Title t= 270.00000 step= 135000
44469
    1GLY      N    1   5.646   5.399   3.817
    1GLY    HT1    2   5.624   5.453   3.903
    1GLY    HT2    3   5.712   5.329   3.854
    1GLY    HT3    4   5.559   5.354   3.782
    1GLY     CA    5   5.715   5.484   3.713
    1GLY    HA1    6   5.723   5.430   3.621
    1GLY    HA2    7   5.813   5.503   3.754
    1GLY      C    8   5.643   5.611   3.675
    1GLY      O    9   5.540   5.639   3.740
    2PRO      N   10   5.687   5.692   3.581
    2PRO     CD   11   5.821   5.678   3.507
    2PRO    HD1   12   5.844   5.580   3.461
    2PRO    HD2   13   5.906   5.719   3.566
    2PRO     CA   14   5.624   5.817   3.543
    2PRO     HA   15   5.610   5.871   3.636
    2PRO     CB   16   5.725   5.881   3.449
    2PRO    HB1   17   5.805   5.940   3.499
    2PRO    HB2   18   5.681   5.950   3.375
    2PRO     CG   19   5.799   5.761   3.387
    2PRO    HG1   20   5.727   5.701   3.328
    2PRO    HG2   21   5.889   5.796   3.332
    2PRO      C   22   5.488   5.803   3.478
    2PRO      O   23   5.421   5.902   3.455
    3GLY      N   24   5.434   5.681   3.454
    3GLY     HN   25   5.473   5.590   3.457
    3GLY     CA   26   5.289   5.674   3.431
    3GLY    HA1   27   5.257   5.584   3.381
    3GLY    HA2   28   5.255   5.763   3.380
    3GLY      C   29   5.206   5.676   3.555
    3GLY      O   30   5.086   5.678   3.538
    4ASN      N   31   5.269   5.683   3.675
    4ASN     HN   32   5.368   5.697   3.677
    4ASN     CA   33   5.212   5.668   3.803
    4ASN     HA   34   5.106   5.655   3.788
    4ASN     CB   35   5.270   5.559   3.895
    4ASN    HB1   36   5.210   5.558   3.989
    4ASN    HB2   37   5.374   5.578   3.929
    4ASN     CG   38   5.282   5.430   3.820
    4ASN    OD1   39   5.386   5.381   3.779
    4ASN    ND2   40   5.169   5.360   3.797
    4ASN   HD21   41   5.175   5.273   3.749
    4ASN   HD22   42   5.082   5.401   3.825
    4ASN      C   43   5.241   5.806   3.872
    4ASN      O   44   5.346   5.858   3.835
    5PRO      N   45   5.167   5.873   3.958
    5PRO     CD   46   5.051   5.810   4.030
    5PRO    HD1   47   5.091   5.739   4.105
    5PRO    HD2   48   4.976   5.767   3.960
    5PRO     CA   49   5.211   6.000   4.020
    5PRO     HA   50   5.196   6.072   3.940
    5PRO     CB   51   5.106   6.021   4.133
    5PRO    HB1   52   5.078   6.129   4.129
    5PRO    HB2   53   5.146   5.988   4.232
    5PRO     CG   54   4.982   5.928   4.100
    5PRO    HG1   55   4.933   5.884   4.190
    5PRO    HG2   56   4.915   5.985   4.032
    5PRO      C   57   5.354   5.991   4.089
    5PRO      O   58   5.386   5.888   4.145
    6GLY      N   59   5.425   6.103   4.085
    6GLY     HN   60   5.374   6.184   4.056
    6GLY     CA   61   5.562   6.122   4.133
    6GLY    HA1   62   5.589   6.221   4.100
    6GLY    HA2   63   5.609   6.032   4.095
    6GLY      C   64   5.575   6.120   4.287
    6GLY      O   65   5.488   6.077   4.362
    7PRO      N   66   5.684   6.173   4.337
    7PRO     CD   67   5.793   6.239   4.259
    7PRO    HD1   68   5.748   6.333   4.221
    7PRO    HD2   69   5.832   6.179   4.174
    7PRO     CA   70   5.692   6.196   4.482
    7PRO     HA   71   5.713   6.102   4.531
    7PRO     CB   72   5.810   6.291   4.488
    7PRO    HB1   73   5.859   6.289   4.588
    7PRO    HB2   74   5.769   6.393   4.471
    7PRO     CG   75   5.898   6.260   4.370
    7PRO    HG1   76   5.979   6.329   4.337
    7PRO    HG2   77   5.948   6.162   4.385
    7PRO      C   78   5.578   6.270   4.560
    7PRO      O   79   5.513   6.363   4.505
    8GLY      N   80   5.552   6.229   4.689
    8GLY     HN   81   5.624   6.184   4.741
    8GLY     CA   82   5.438   6.268   4.762
    8GLY    HA1   83   5.447   6.372   4.791
    8GLY    HA2   84   5.442   6.219   4.858
    8GLY      C   85   5.302   6.243   4.706
    8GLY      O   86   5.283   6.206   4.588
    9ASN      N   87   5.203   6.273   4.787
    9ASN     HN   88   5.226   6.306   4.878
    9ASN     CA   89   5.065   6.235   4.752
    9ASN     HA   90   5.070   6.132   4.719
    9ASN     CB   91   4.982   6.234   4.882
    9ASN    HB1   92   4.872   6.228   4.874
    9ASN    HB2   93   5.026   6.318   4.940
    9ASN     CG   94   5.009   6.108   4.963
    9ASN    OD1   95   5.074   6.005   4.925
    9ASN    ND2   96   4.953   6.111   5.090
    9ASN   HD21   97   4.982   6.047   5.161
    9ASN   HD22   98   4.895   6.187   5.118
    9ASN      C   99   4.997   6.324   4.646
    9ASN      O  100   5.011   6.441   4.660
   10PRO      N  101   4.922   6.267   4.548
   10PRO     CD  102   4.898   6.123   4.531
   10PRO    HD1  103   4.899   6.071   4.629
   10PRO    HD2  104   4.973   6.080   4.461
   10PRO     CA  105   4.850   6.346   4.451
   10PRO     HA  106   4.928   6.382   4.385
   10PRO     CB  107   4.756   6.243   4.378
   10PRO    HB1  108   4.802   6.233   4.277
   10PRO    HB2  109   4.658   6.295   4.381
   10PRO     CG  110   4.756   6.115   4.460
   10PRO    HG1  111   4.665   6.115   4.525
   10PRO    HG2  112   4.745   6.022   4.400
   10PRO      C  113   4.774   6.471   4.505
   10PRO      O  114   4.724   6.467   4.618
   11GLY      N  115   4.765   6.581   4.429
   11GLY     HN  116   4.822   6.568   4.348
   11GLY     CA  117   4.683   6.694   4.448
   11GLY    HA1  118   4.696   6.753   4.359
   11GLY    HA2  119   4.698   6.732   4.548
   11GLY      C  120   4.533   6.669   4.454
   11GLY      O  121   4.489   6.552   4.449
   12PRO      N  122   4.448   6.772   4.457
   12PRO     CD  123   4.491   6.909   4.441
   12PRO    HD1  124   4.537   6.935   4.344
   12PRO    HD2  125   4.566   6.929   4.521
   12PRO     CA  126   4.307   6.757   4.478
   12PRO     HA  127   4.292   6.677   4.549
   12PRO     CB  128   4.273   6.893   4.538
   12PRO    HB1  129   4.284   6.890   4.649
   12PRO    HB2  130   4.170   6.924   4.510
   12PRO     CG  131   4.369   6.989   4.470
   12PRO    HG1  132   4.324   7.025   4.375
   12PRO    HG2  133   4.386   7.082   4.529
   12PRO      C  134   4.232   6.737   4.349
   12PRO      O  135   4.109   6.718   4.359
   13GLY      N  136   4.292   6.737   4.231
   13GLY     HN  137   4.388   6.761   4.221
   13GLY     CA  138   4.216   6.707   4.113
   13GLY    HA1  139   4.163   6.613   4.117
   13GLY    HA2  140   4.289   6.717   4.033
   13GLY      C  141   4.118   6.820   4.072
   13GLY      O  142   4.110   6.919   4.144
   14ASN      N  143   4.057   6.801   3.954
   14ASN     HN  144   4.070   6.717   3.902
   14ASN     CA  145   3.960   6.896   3.902
   14ASN     HA  146   3.954   6.987   3.961
   14ASN     CB  147   3.985   6.924   3.752
   14ASN    HB1  148   3.900   6.970   3.697
   14ASN    HB2  149   4.013   6.830   3.700
   14ASN     CG  150   4.103   7.022   3.741
   14ASN    OD1  151   4.129   7.096   3.836
   14ASN    ND2  152   4.180   7.016   3.628
   14ASN   HD21  153   4.267   7.065   3.621
   14ASN   HD22  154   4.162   6.952   3.553
   14ASN      C  155   3.828   6.830   3.905
   14ASN      O  156   3.819   6.709   3.882
   15PRO      N  157   3.717   6.904   3.924
   15PRO     CD  158   3.725   7.032   4.001
   15PRO    HD1  159   3.790   7.103   3.946
   15PRO    HD2  160   3.772   7.003   4.098
   15PRO     CA  161   3.585   6.839   3.923
   15PRO     HA  162   3.590   6.760   3.997
   15PRO     CB  163   3.497   6.963   3.962
   15PRO    HB1  164   3.439   6.930   4.051
   15PRO    HB2  165   3.431   7.001   3.881
   15PRO     CG  166   3.582   7.082   4.004
   15PRO    HG1  167   3.561   7.171   3.941
   15PRO    HG2  168   3.563   7.111   4.109
   15PRO      C  169   3.520   6.783   3.803
   15PRO    OT1  170   3.407   6.730   3.835
   15PRO    OT2  171   3.553   6.791   3.681
   16LIT    LIT  172   2.389   5.623   2.110
   17LIT    LIT  173   2.261   7.045   1.896
   18LIT    LIT  174   6.004   3.737   6.182
   19LIT    LIT  175   1.248   5.683   4.411
   20LIT    LIT  176   2.419   1.483   3.722
   21LIT    LIT  177   6.266   1.819   0.260
   22LIT    LIT  178   5.281   7.164   4.517
   23LIT    LIT  179   3.631   0.857   5.482
   24LIT    LIT  180   3.561   5.914   2.541
   25LIT    LIT  181   7.174   7.489   5.151
   26LIT    LIT  182   7.399   6.640   0.321
   27LIT    LIT  183   2.188   4.281   0.482
   28LIT    LIT  184   7.887   4.182   5.939
   29LIT    LIT  185   0.321   3.909   6.585
   30LIT    LIT  186   5.287   0.954   4.299
   31LIT    LIT  187   7.811   2.414   1.545
   32LIT    LIT  188   6.118   1.697   2.635
   33LIT    LIT  189   8.139   5.058   2.820
   34LIT    LIT  190   1.100   0.670   3.053
   35LIT    LIT  191   6.680   5.004   3.024
   36LIT    LIT  192   5.157   4.579   0.946
   37LIT    LIT  193   3.346   1.484   6.657
   38LIT    LIT  194   2.247   2.080   2.226
   39LIT    LIT  195   4.966   5.553   5.140
   40LIT    LIT  196   6.611   1.346   6.722
   41LIT    LIT  197   0.377   4.768   6.293
   42LIT    LIT  198   0.969   3.204   4.423
   43LIT    LIT  199   3.374   6.771   3.607
   44LIT    LIT  200   4.690   3.925   3.570
   45LIT    LIT  201   1.867   3.601   4.439
   46LIT    LIT  202   6.008   4.535   6.382
   47LIT    LIT  203   6.237   4.439   5.127
   48LIT    LIT  204   7.123   0.930   0.677
   49LIT    LIT  205   1.162   2.830   3.490
   50LIT    LIT  206   4.671   4.274   1.505
   51LIT    LIT  207   3.685   0.803   2.096
   52LIT    LIT  208   5.398   4.043   2.878
   53LIT    LIT  209   0.015   7.816   2.065
   54LIT    LIT  210   3.927   7.225   0.944
   55LIT    LIT  211   6.421   0.036   6.542
   56LIT    LIT  212   3.931   7.013   6.771
   57LIT    LIT  213   6.216   4.785   4.332
   58CLA    CLA  214   3.554   1.652   1.561
   59CLA    CLA  215   2.642   7.528   1.334
   60CLA    CLA  216   5.556   7.540   3.686
   61CLA    CLA  217   5.470   3.926   4.237
   62CLA    CLA  218   5.727   7.144   0.601
   63CLA    CLA  219   0.185   7.786   3.372
   64CLA    CLA  220   1.622   5.687   5.016
   65CLA    CLA  221   3.345   1.535   5.419
   66CLA    CLA  222   3.313   0.430   0.654
   67CLA    CLA  223   6.662   4.173   3.039
   68CLA    CLA  224   1.682   6.151   1.778
   69CLA    CLA  225   5.175   4.935   4.010
   70CLA    CLA  226   5.071   1.246   4.874
   71CLA    CLA  227   7.861   5.359   5.262
   72CLA    CLA  228   5.251   5.042   2.070
   73CLA    CLA  229   0.393   3.193   3.004
   74CLA    CLA  230   2.011   3.434   4.412
   75CLA    CLA  231   0.790   4.218   5.420
   76CLA    CLA  232   3.579   1.789   3.505
   77CLA    CLA  233   5.172   4.785   6.629
   78CLA    CLA  234   5.453   7.423   6.211
   79CLA    CLA  235   2.853   6.770   4.282
   80CLA    CLA  236   1.149   5.086   4.091
   81CLA    CLA  237   4.282   2.441   0.908
   82CLA    CLA  238   0.572   1.963   3.702
   83CLA    CLA  239   4.510   6.656   0.512
   84CLA    CLA  240   2.384   6.056   2.354
   85CLA    CLA  241   7.759   2.215   0.650
   86CLA    CLA  242   6.857   0.858   3.631
   87CLA    CLA  243   6.572   2.426   1.677
   88CLA    CLA  244   4.233   6.314   5.693
   89CLA    CLA  245   7.453   4.676   2.722
   90CLA    CLA  246   5.705   2.812   0.219
   91CLA    CLA  247   2.565   0.634   2.390
   92CLA    CLA  248   0.317   4.141   6.593
   93CLA    CLA  249   3.923   1.811   5.840
   94CLA    CLA  250   2.952   4.672   3.857
   95CLA    CLA  251   1.968   1.783   5.309
   96CLA    CLA  252   2.301   4.179   5.639
   97CLA    CLA  253   7.309   5.751   0.164
   98CLA    CLA  254   7.936   5.375   5.899
   99CLA    CLA  255   6.658   4.256   0.268
  100TIP3   OH2  256   5.098   0.136   3.304
  100TIP3    H1  257   5.016   0.098   3.272
  100TIP3    H2  258   5.069   0.200   3.370
  101TIP3   OH2  259   6.506   5.169   2.005
  101TIP3    H1  260   6.456   5.206   2.078
  101TIP3    H2  261   6.550   5.093   2.042
  102TIP3   OH2  262   5.897   0.201   1.327
  102TIP3    H1  263   5.835   0.195   1.254
  102TIP3    H2  264   5.863   0.273   1.381
  103TIP3   OH2  265   2.597   4.268   5.663
  103TIP3    H1  266   2.655   4.287   5.590
  103TIP3    H2  267   2.517   4.235   5.623
  104TIP3   OH2  268   0.650   5.418   0.085
  104TIP3    H1  269   0.591   5.434   0.159
  104TIP3    H2  270   0.600   5.362   0.026
  105TIP3   OH2  271   1.217   6.579   0.692
  105TIP3    H1  272   1.295   6.548   0.737
  105TIP3    H2  273   1.204   6.517   0.619
  106TIP3   OH2  274   3.425   6.229   3.489
  106TIP3    H1  275   3.416   6.203   3.581
  106TIP3    H2  276   3.454   6.321   3.494
  107TIP3   OH2  277   2.326   1.520   1.676
  107TIP3    H1  278   2.264   1.474   1.733
  107TIP3    H2  279   2.272   1.585   1.630
  108TIP3   OH2  280   4.309   7.134   6.616
  108TIP3    H1  281   4.272   7.210   6.571
  108TIP3    H2  282   4.254   7.124   6.694
  109TIP3   OH2  283   5.321   5.053   4.272
  109TIP3    H1  284   5.331   4.975   4.327
  109TIP3    H2  285   5.282   5.020   4.191
  110TIP3   OH2  286   5.401   4.190   6.683
  110TIP3    H1  287   5.395   4.286   6.675
  110TIP3    H2  288   5.419   4.175   6.776
  111TIP3   OH2  289   5.383   7.330   5.685
  111TIP3    H1  290   5.369   7.253   5.629
  111TIP3    H2  291   5.302   7.381   5.677
  112TIP3   OH2  292   7.415   4.678   1.258
  112TIP3    H1  293   7.418   4.698   1.352
  112TIP3    H2  294   7.382   4.758   1.217
  113TIP3   OH2  295   0.117   2.210   6.538
  113TIP3    H1  296   0.175   2.140   6.567
  113TIP3    H2  297   0.121   2.275   6.608
  114TIP3   OH2  298   4.158   2.907   0.389
  114TIP3    H1  299   4.220   2.836   0.405
  114TIP3    H2  300   4.086   2.890   0.450
  115TIP3   OH2  301   4.463   5.319   3.458
  115TIP3    H1  302   4.492   5.402   3.422
  115TIP3    H2  303   4.393   5.342   3.520
  116TIP3   OH2  304   6.994   2.148   4.028
  116TIP3    H1  305   7.034   2.062   4.040
  116TIP3    H2  306   6.923   2.151   4.091
  117TIP3   OH2  307   6.182   5.781   5.145
  117TIP3    H1  308   6.115   5.746   5.204
  117TIP3    H2  309   6.216   5.705   5.099
  118TIP3   OH2  310   8.129   2.155   1.855
  118TIP3    H1  311   8.064   2.119   1.795
  118TIP3    H2  312   8.144   2.085   1.919
  119TIP3   OH2  313   1.430   1.649   0.462
  119TIP3    H1  314   1.447   1.555   0.471
  119TIP3    H2  315   1.514   1.691   0.481
  120TIP3   OH2  316   1.477   0.882   5.836
  120TIP3    H1  317   1.567   0.898   5.865
  120TIP3    H2  318   1.477   0.905   5.743
  121TIP3   OH2  319   1.160   6.209   3.431
  121TIP3    H1  320   1.185   6.120   3.457
  121TIP3    H2  321   1.078   6.197   3.382
  122TIP3   OH2  322   2.359   6.609   6.646
  122TIP3    H1  323   2.382   6.700   6.663
  122TIP3    H2  324   2.427   6.558   6.691
  123TIP3   OH2  325   5.113   0.315   2.705
  123TIP3    H1  326   5.175   0.387   2.695
  123TIP3    H2  327   5.158   0.253   2.763
  124TIP3   OH2  328   2.344   6.476   3.690
  124TIP3    H1  329   2.298   6.533   3.751
  124TIP3    H2  330   2.329   6.387   3.724
  125TIP3   OH2  331   4.843   6.709   1.614
  125TIP3    H1  332   4.922   6.763   1.608
  125TIP3    H2  333   4.861   6.634   1.556
  126TIP3   OH2  334   6.375   6.729   3.076
  126TIP3    H1  335   6.392   6.777   3.157
  126TIP3    H2  336   6.451   6.747   3.021
  127TIP3   OH2  337   0.665   6.560   2.216
  127TIP3    H1  338   0.725   6.529   2.283
  127TIP3    H2  339   0.665   6.492   2.149
  128TIP3   OH2  340   0.361   2.447   5.807
  128TIP3    H1  341   0.283   2.456   5.752
  128TIP3    H2  342   0.360   2.524   5.864
  129TIP3   OH2  343   5.730   5.767   3.034
  129TIP3    H1  344   5.706   5.704   3.102
  129TIP3    H2  345   5.814   5.735   2.999
  130TIP3   OH2  346   1.038   0.232   1.849
  130TIP3    H1  347   1.049   0.144   1.885
  130TIP3    H2  348   1.004   0.217   1.760
  131TIP3   OH2  349   2.348   1.869   4.894
  131TIP3    H1  350   2.381   1.890   4.982
  131TIP3    H2  351   2.425   1.839   4.846
  132TIP3   OH2  352   1.593   6.901   0.158
  132TIP3    H1  353   1.588   6.826   0.098
  132TIP3    H2  354   1.649   6.964   0.113
  133TIP3   OH2  355   0.484   2.107   1.817
  133TIP3    H1  356   0.526   2.057   1.748
  133TIP3    H2  357   0.477   2.046   1.890
  134TIP3   OH2  358   3.131   1.068   4.115
  134TIP3    H1  359   3.148   0.988   4.165
  134TIP3    H2  360   3.136   1.040   4.024
  135TIP3   OH2  361   4.270   2.213   3.851
  135TIP3    H1  362   4.271   2.261   3.769
  135TIP3    H2  363   4.265   2.121   3.825
  136TIP3   OH2  364   5.648   6.535   0.213
  136TIP3    H1  365   5.705   6.570   0.282
  136TIP3    H2  366   5.561   6.567   0.236
  137TIP3   OH2  367   2.843   6.812   3.214
  137TIP3    H1  368   2.763   6.761   3.205
  137TIP3    H2  369   2.882   6.811   3.127
  138TIP3   OH2  370   4.565   3.964   2.014
  138TIP3    H1  371   4.503   4.037   2.023
  138TIP3    H2  372   4.562   3.940   1.922
  139TIP3   OH2  373   6.681   1.313   3.497
  139TIP3    H1  374   6.691   1.246   3.565
  139TIP3    H2  375   6.603   1.361   3.523
  140TIP3   OH2  376   7.532   5.130   5.109
  140TIP3    H1  377   7.577   5.071   5.170
  140TIP3    H2  378   7.579   5.121   5.027
  141TIP3   OH2  379   7.397   1.275   2.182
  141TIP3    H1  380   7.386   1.369   2.194
  141TIP3    H2  381   7.308   1.240   2.191
  142TIP3   OH2  382   3.273   3.223   0.919
  142TIP3    H1  383   3.329   3.300   0.918
  142TIP3    H2  384   3.243   3.215   1.010
  143TIP3   OH2  385   8.111   7.159   4.704
  143TIP3    H1  386   8.169   7.199   4.770
  143TIP3    H2  387   8.047   7.227   4.685
  144TIP3   OH2  388   3.490   4.220   1.504
  144TIP3    H1  389   3.447   4.222   1.589
  144TIP3    H2  390   3.430   4.170   1.448
  145TIP3   OH2  391   5.122   2.305   5.447
  145TIP3    H1  392   5.069   2.247   5.502
  145TIP3    H2  393   5.203   2.257   5.433
  146TIP3   OH2  394   1.354   3.872   5.041
  146TIP3    H1  395   1.326   3.899   5.129
  146TIP3    H2  396   1.272   3.851   4.996
  147TIP3   OH2  397   6.732   0.543   0.047
  147TIP3    H1  398   6.641   0.516   0.052
  147TIP3    H2  399   6.736   0.605  -0.025
  148TIP3   OH2  400   3.086   6.918   3.045
  148TIP3    H1  401   3.057   6.974   2.972
  148TIP3    H2  402   3.041   6.835   3.030
  149TIP3   OH2  403   2.198   3.166   3.412
  149TIP3    H1  404   2.126   3.184   3.472
  149TIP3    H2  405   2.172   3.085   3.368
  150TIP3   OH2  406   3.091   6.996   1.776
  150TIP3    H1  407   3.006   6.989   1.819
  150TIP3    H2  408   3.151   7.024   1.846
  151TIP3   OH2  409   3.744   5.662   2.203
  151TIP3    H1  410   3.753   5.567   2.214
  151TIP3    H2  411   3.651   5.674   2.181
  152TIP3   OH2  412   3.376   7.693   1.273
  152TIP3    H1  413   3.385   7.632   1.346
  152TIP3    H2  414   3.323   7.646   1.209
  153TIP3   OH2  415   2.049   7.056   6.403
  153TIP3    H1  416   2.143   7.070   6.389
  153TIP3    H2  417   2.039   7.061   6.498
  154TIP3   OH2  418   8.025   7.417   4.982
  154TIP3    H1  419   8.043   7.323   4.979
  154TIP3    H2  420   7.939   7.426   4.940
  155TIP3   OH2  421   1.421   4.468   2.076
  155TIP3    H1  422   1.413   4.542   2.017
  155TIP3    H2  423   1.501   4.423   2.047
  156TIP3   OH2  424   0.334   1.122   2.672
  156TIP3    H1  425   0.265   1.179   2.638
  156TIP3    H2  426   0.295   1.035   2.673
  157TIP3   OH2  427   7.890   3.062   1.431
  157TIP3    H1  428   7.830   3.126   1.393
  157TIP3    H2  429   7.892   3.084   1.525
  158TIP3   OH2  430   7.417   1.971   6.388
  158TIP3    H1  431   7.487   2.016   6.340
  158TIP3    H2  432   7.337   1.990   6.338
  159TIP3   OH2  433   1.655   1.314   5.476
  159TIP3    H1  434   1.580   1.373   5.487
  159TIP3    H2  435   1.731   1.371   5.486
  160TIP3   OH2  436   5.757   4.456   0.359
  160TIP3    H1  437   5.783   4.519   0.292
  160TIP3    H2  438   5.836   4.440   0.410
  161TIP3   OH2  439   4.487   3.957   3.973
  161TIP3    H1  440   4.564   3.959   4.030
  161TIP3    H2  441   4.426   4.020   4.012
  162TIP3   OH2  442   8.025   5.611   2.938
  162TIP3    H1  443   7.936   5.637   2.960
  162TIP3    H2  444   8.015   5.534   2.882
  163TIP3   OH2  445   3.837   1.430   5.999
  163TIP3    H1  446   3.924   1.451   5.965
  163TIP3    H2  447   3.793   1.385   5.926
  164TIP3   OH2  448   4.247   2.380   0.617
  164TIP3    H1  449   4.271   2.289   0.602
  164TIP3    H2  450   4.241   2.388   0.712
  165TIP3   OH2  451   2.105   5.526   4.959
  165TIP3    H1  452   2.178   5.492   5.011
  165TIP3    H2  453   2.146   5.588   4.899
  166TIP3   OH2  454   7.067   3.444   5.199
  166TIP3    H1  455   7.134   3.475   5.139
  166TIP3    H2  456   6.988   3.433   5.145
  167TIP3   OH2  457   4.489   2.757   1.381
  167TIP3    H1  458   4.419   2.706   1.421
  167TIP3    H2  459   4.569   2.724   1.421
  168TIP3   OH2  460   5.986   2.508   3.422
  168TIP3    H1  461   6.049   2.503   3.351
  168TIP3    H2  462   6.002   2.430   3.475
  169TIP3   OH2  463   5.279   5.552   1.568
  169TIP3    H1  464   5.270   5.466   1.525
  169TIP3    H2  465   5.244   5.538   1.656
  170TIP3   OH2  466   6.278   5.050   1.478
  170TIP3    H1  467   6.210   5.115   1.461
  170TIP3    H2  468   6.322   5.082   1.557
  171TIP3   OH2  469   1.958   3.613   2.961
  171TIP3    H1  470   1.925   3.542   2.906
  171TIP3    H2  471   2.034   3.646   2.913
  172TIP3   OH2  472   3.538   2.141   4.420
  172TIP3    H1  473   3.460   2.151   4.365
  172TIP3    H2  474   3.540   2.221   4.474
  173TIP3   OH2  475   7.935   2.941   3.124
  173TIP3    H1  476   7.944   3.031   3.093
  173TIP3    H2  477   8.025   2.913   3.142
  174TIP3   OH2  478   7.928   5.504   2.381
  174TIP3    H1  479   7.926   5.538   2.470
  174TIP3    H2  480   7.904   5.580   2.326
  175TIP3   OH2  481   1.700   1.763   2.144
  175TIP3    H1  482   1.690   1.685   2.090
  175TIP3    H2  483   1.661   1.834   2.093
  176TIP3   OH2  484   1.576   1.793   5.459
  176TIP3    H1  485   1.644   1.775   5.394
  176TIP3    H2  486   1.607   1.749   5.538
  177TIP3   OH2  487   5.201   4.936   0.623
  177TIP3    H1  488   5.167   4.956   0.710
  177TIP3    H2  489   5.129   4.891   0.579
  178TIP3   OH2  490   2.532   5.331   3.629
  178TIP3    H1  491   2.544   5.420   3.597
  178TIP3    H2  492   2.448   5.303   3.592
  179TIP3   OH2  493   1.565   4.398   3.110
  179TIP3    H1  494   1.535   4.342   3.038
  179TIP3    H2  495   1.569   4.486   3.072
  180TIP3   OH2  496   7.173   0.401   6.556
  180TIP3    H1  497   7.151   0.311   6.536
  180TIP3    H2  498   7.093   0.450   6.538
  181TIP3   OH2  499   4.118   0.155   4.572
  181TIP3    H1  500   4.033   0.163   4.529
  181TIP3    H2  501   4.138   0.061   4.568
  182TIP3   OH2  502   0.968   7.403   0.299
  182TIP3    H1  503   1.041   7.451   0.339
  182TIP3    H2  504   1.010   7.336   0.245
  183TIP3   OH2  505   7.431   0.683   2.210
  183TIP3    H1  506   7.338   0.702   2.222
  183TIP3    H2  507   7.445   0.690   2.116
  184TIP3   OH2  508   2.781   5.070   2.744
  184TIP3    H1  509   2.803   4.999   2.803
  184TIP3    H2  510   2.734   5.133   2.798
  185TIP3   OH2  511   0.930   3.819   1.013
  185TIP3    H1  512   0.987   3.836   1.088
  185TIP3    H2  513   0.842   3.815   1.051
  186TIP3   OH2  514   2.365   6.078   1.076
  186TIP3    H1  515   2.457   6.101   1.075
  186TIP3    H2  516   2.364   5.986   1.106
  187TIP3   OH2  517   3.809   7.496   2.798
  187TIP3    H1  518   3.834   7.522   2.709
  187TIP3    H2  519   3.812   7.401   2.797
  188TIP3   OH2  520   6.972   3.542   4.372
  188TIP3    H1  521   6.921   3.493   4.308
  188TIP3    H2  522   6.914   3.549   4.448
  189TIP3   OH2  523   5.091   4.235   2.485
  189TIP3    H1  524   5.182   4.260   2.499
  189TIP3    H2  525   5.052   4.310   2.439
  190TIP3   OH2  526   3.264   3.606   5.516
  190TIP3    H1  527   3.290   3.546   5.585
  190TIP3    H2  528   3.170   3.619   5.528
  191TIP3   OH2  529   5.141   7.779   1.429
  191TIP3    H1  530   5.109   7.693   1.402
  191TIP3    H2  531   5.126   7.783   1.523
  192TIP3   OH2  532   2.669   1.925   1.455
  192TIP3    H1  533   2.748   1.898   1.408
  192TIP3    H2  534   2.702   1.962   1.537
  193TIP3   OH2  535   6.965   5.687   2.244
  193TIP3    H1  536   7.026   5.660   2.313
  193TIP3    H2  537   7.019   5.735   2.182
  194TIP3   OH2  538   7.528   7.579   6.344
  194TIP3    H1  539   7.595   7.642   6.374
  194TIP3    H2  540   7.557   7.495   6.378
  195TIP3   OH2  541   3.154   0.546   6.050
  195TIP3    H1  542   3.142   0.472   6.110
  195TIP3    H2  543   3.245   0.539   6.022
  196TIP3   OH2  544   0.499   7.600   2.975
  196TIP3    H1  545   0.410   7.587   3.008
  196TIP3    H2  546   0.535   7.670   3.031
  197TIP3   OH2  547   1.443   7.679   0.607
  197TIP3    H1  548   1.423   7.740   0.535
  197TIP3    H2  549   1.375   7.696   0.672
  198TIP3   OH2  550   5.809   5.271   2.945
  198TIP3    H1  551   5.750   5.207   2.904
  198TIP3    H2  552   5.855   5.221   3.013
  199TIP3   OH2  553   0.484   1.164   4.802
  199TIP3    H1  554   0.449   1.089   4.850
  199TIP3    H2  555   0.412   1.227   4.798
  200TIP3   OH2  556   5.635   2.475   2.795
  200TIP3    H1  557   5.627   2.465   2.700
  200TIP3    H2  558   5.569   2.416   2.831
  201TIP3   OH2  559   3.553   4.223   5.676
  201TIP3    H1  560   3.477   4.176   5.641
  201TIP3    H2  561   3.554   4.200   5.769
  202TIP3   OH2  562   4.131   4.132   2.183
  202TIP3    H1  563   4.185   4.092   2.251
  202TIP3    H2  564   4.091   4.058   2.138
  203TIP3   OH2  565   2.100   4.181   5.184
  203TIP3    H1  566   2.073   4.140   5.266
  203TIP3    H2  567   2.019   4.186   5.133
  204TIP3   OH2  568   1.727   7.699   2.537
  204TIP3    H1  569   1.769   7.717   2.453
  204TIP3    H2  570   1.639   7.734   2.528
  205TIP3   OH2  571   4.714   3.581   4.836
  205TIP3    H1  572   4.787   3.527   4.806
  205TIP3    H2  573   4.666   3.604   4.757
  206TIP3   OH2  574   6.629   0.458   5.307
  206TIP3    H1  575   6.676   0.431   5.228
  206TIP3    H2  576   6.698   0.470   5.373
  207TIP3   OH2  577   7.978   4.302   4.275
  207TIP3    H1  578   7.904   4.283   4.332
  207TIP3    H2  579   7.989   4.223   4.222
  208TIP3   OH2  580   6.187   6.175   6.848
  208TIP3    H1  581   6.151   6.145   6.764
  208TIP3    H2  582   6.272   6.212   6.826
  209TIP3   OH2  583   3.984   6.656   0.377
  209TIP3    H1  584   4.070   6.676   0.340
  209TIP3    H2  585   3.992   6.678   0.469
  210TIP3   OH2  586   2.751   5.014   6.049
  210TIP3    H1  587   2.837   5.056   6.045
  210TIP3    H2  588   2.696   5.066   5.990
  211TIP3   OH2  589   0.932   7.210   5.937
  211TIP3    H1  590   0.874   7.144   5.975
  211TIP3    H2  591   1.002   7.220   6.002
  212TIP3   OH2  592   2.279   6.983   4.067
  212TIP3    H1  593   2.328   6.955   4.144
  212TIP3    H2  594   2.208   7.037   4.102
  213TIP3   OH2  595   5.691   0.229   1.139
  213TIP3    H1  596   5.603   0.212   1.171
  213TIP3    H2  597   5.680   0.241   1.045
  214TIP3   OH2  598   5.182   7.506   0.266
  214TIP3    H1  599   5.245   7.511   0.194
  214TIP3    H2  600   5.192   7.417   0.300
  215TIP3   OH2  601   5.174   2.948   1.121
  215TIP3    H1  602   5.138   2.864   1.093
  215TIP3    H2  603   5.106   2.986   1.177
  216TIP3   OH2  604   0.803   0.468   2.287
  216TIP3    H1  605   0.757   0.518   2.219
  216TIP3    H2  606   0.750   0.480   2.366
  217TIP3   OH2  607   6.886   5.366   0.314
  217TIP3    H1  608   6.937   5.447   0.306
  217TIP3    H2  609   6.951   5.297   0.324
  218TIP3   OH2  610   1.174   7.701   1.952
  218TIP3    H1  611   1.157   7.770   2.016
  218TIP3    H2  612   1.175   7.746   1.868
  219TIP3   OH2  613   4.308   0.341   5.488
  219TIP3    H1  614   4.368   0.302   5.424
  219TIP3    H2  615   4.363   0.358   5.564
  220TIP3   OH2  616   3.249   2.122   5.578
  220TIP3    H1  617   3.204   2.139   5.495
  220TIP3    H2  618   3.308   2.196   5.588
  221TIP3   OH2  619   0.917   7.724   2.409
  221TIP3    H1  620   0.993   7.703   2.462
  221TIP3    H2  621   0.872   7.640   2.396
  222TIP3   OH2  622   3.736   3.283   3.769
  222TIP3    H1  623   3.794   3.358   3.785
  222TIP3    H2  624   3.717   3.249   3.857
  223TIP3   OH2  625   1.751   1.211   3.913
  223TIP3    H1  626   1.754   1.299   3.950
  223TIP3    H2  627   1.664   1.179   3.936
  224TIP3   OH2  628   2.316   2.858   4.949
  224TIP3    H1  629   2.290   2.847   5.040
  224TIP3    H2  630   2.313   2.953   4.934
  225TIP3   OH2  631   2.493   1.664   1.193
  225TIP3    H1  632   2.525   1.754   1.185
  225TIP3    H2  633   2.401   1.674   1.215
  226TIP3   OH2  634   7.835   4.447   6.737
  226TIP3    H1  635   7.868   4.371   6.690
  226TIP3    H2  636   7.906   4.511   6.733
  227TIP3   OH2  637   3.570   0.416   1.931
  227TIP3    H1  638   3.556   0.329   1.970
  227TIP3    H2  639   3.489   0.434   1.883
  228TIP3   OH2  640   0.138   3.039   4.848
  228TIP3    H1  641   0.045   3.018   4.862
  228TIP3    H2  642   0.173   2.961   4.805
  229TIP3   OH2  643   4.575   3.096   4.807
  229TIP3    H1  644   4.560   3.181   4.766
  229TIP3    H2  645   4.488   3.058   4.818
  230TIP3   OH2  646   2.251   4.589   5.328
  230TIP3    H1  647   2.222   4.626   5.245
  230TIP3    H2  648   2.243   4.495   5.317
  231TIP3   OH2  649   6.962   0.538   4.477
  231TIP3    H1  650   7.003   0.504   4.398
  231TIP3    H2  651   6.935   0.460   4.526
  232TIP3   OH2  652   2.003   5.998   4.028
  232TIP3    H1  653   2.030   5.922   4.081
  232TIP3    H2  654   1.912   6.013   4.054
  233TIP3   OH2  655   2.791   0.364   0.141
  233TIP3    H1  656   2.765   0.273   0.156
  233TIP3    H2  657   2.852   0.383   0.212
  234TIP3   OH2  658   1.564   2.261   2.598
  234TIP3    H1  659   1.488   2.266   2.656
  234TIP3    H2  660   1.570   2.349   2.560
  235TIP3   OH2  661   5.799   5.364   4.814
  235TIP3    H1  662   5.794   5.322   4.728
  235TIP3    H2  663   5.797   5.458   4.795
  236TIP3   OH2  664   6.775   6.951   3.982
  236TIP3    H1  665   6.803   6.882   4.043
  236TIP3    H2  666   6.823   7.028   4.009
  237TIP3   OH2  667   5.205   0.991   0.754
  237TIP3    H1  668   5.264   1.061   0.784
  237TIP3    H2  669   5.117   1.028   0.765
  238TIP3   OH2  670   1.950   0.063   2.631
  238TIP3    H1  671   1.872   0.008   2.641
  238TIP3    H2  672   1.971   0.057   2.538
  239TIP3   OH2  673   1.072   3.031   6.774
  239TIP3    H1  674   1.065   3.072   6.688
  239TIP3    H2  675   1.088   3.104   6.834
  240TIP3   OH2  676   2.637   3.813   2.426
  240TIP3    H1  677   2.572   3.857   2.481
  240TIP3    H2  678   2.632   3.721   2.451
  241TIP3   OH2  679   2.651   6.025   4.498
  241TIP3    H1  680   2.717   6.030   4.567
  241TIP3    H2  681   2.583   6.086   4.525
  242TIP3   OH2  682   1.477   2.972   1.408
  242TIP3    H1  683   1.445   3.062   1.414
  242TIP3    H2  684   1.553   2.969   1.466
  243TIP3   OH2  685   3.708   0.438   6.794
  243TIP3    H1  686   3.717   0.365   6.732
  243TIP3    H2  687   3.765   0.414   6.867
  244TIP3   OH2  688   3.744   4.492   1.884
  244TIP3    H1  689   3.791   4.411   1.904
  244TIP3    H2  690   3.659   4.482   1.926
  245TIP3   OH2  691   3.484   3.784   3.497
  245TIP3    H1  692   3.426   3.830   3.558
  245TIP3    H2  693   3.533   3.723   3.552
  246TIP3   OH2  694   5.716   4.274   5.657
  246TIP3    H1  695   5.743   4.217   5.586
  246TIP3    H2  696   5.656   4.220   5.710
  247TIP3   OH2  697   2.441   1.963   1.695
  247TIP3    H1  698   2.520   1.996   1.739
  247TIP3    H2  699   2.468   1.879   1.658
  248TIP3   OH2  700   0.135   5.355   5.672
  248TIP3    H1  701   0.218   5.363   5.720
  248TIP3    H2  702   0.071   5.400   5.727
  249TIP3   OH2  703   5.207   1.118   6.370
  249TIP3    H1  704   5.214   1.096   6.463
  249TIP3    H2  705   5.216   1.035   6.324
  250TIP3   OH2  706   3.769   3.057   0.438
  250TIP3    H1  707   3.824   2.979   0.429
  250TIP3    H2  708   3.791   3.112   0.362
  251TIP3   OH2  709   3.967   0.270   1.851
  251TIP3    H1  710   3.919   0.329   1.792
  251TIP3    H2  711   3.907   0.256   1.924
  252TIP3   OH2  712   0.396   6.573   5.722
  252TIP3    H1  713   0.339   6.632   5.772
  252TIP3    H2  714   0.409   6.618   5.639
  253TIP3   OH2  715   0.655   1.997   1.635
  253TIP3    H1  716   0.725   1.968   1.694
  253TIP3    H2  717   0.673   2.090   1.620
  254TIP3   OH2  718   0.934   6.827   3.741
  254TIP3    H1  719   0.947   6.819   3.835
  254TIP3    H2  720   0.978   6.750   3.705
  255TIP3   OH2  721   4.535   5.613   1.181
  255TIP3    H1  722   4.451   5.568   1.191
  255TIP3    H2  723   4.529   5.656   1.096
  256TIP3   OH2  724   6.985   0.087   1.153
  256TIP3    H1  725   6.899   0.045   1.157
  256TIP3    H2  726   7.030   0.044   1.081
  257TIP3   OH2  727   4.880   5.587   6.710
  257TIP3    H1  728   4.887   5.660   6.772
  257TIP3    H2  729   4.881   5.508   6.765
  258TIP3   OH2  730   0.260   4.147   2.950
  258TIP3    H1  731   0.181   4.200   2.955
  258TIP3    H2  732   0.278   4.140   2.856
  259TIP3   OH2  733   2.896   0.800   5.449
  259TIP3    H1  734   2.873   0.885   5.411
  259TIP3    H2  735   2.860   0.803   5.538
  260TIP3   OH2  736   4.687   4.837   3.902
  260TIP3    H1  737   4.607   4.888   3.913
  260TIP3    H2  738   4.662   4.748   3.927
  261TIP3   OH2  739   5.068   4.774   2.046
  261TIP3    H1  740   5.018   4.774   1.965
  261TIP3    H2  741   5.121   4.854   2.043
  262TIP3   OH2  742   1.770   2.853   6.023
  262TIP3    H1  743   1.844   2.883   6.076
  262TIP3    H2  744   1.693   2.891   6.066
  263TIP3   OH2  745   0.480   6.785   3.144
  263TIP3    H1  746   0.483   6.718   3.212
  263TIP3    H2  747   0.450   6.864   3.189
  264TIP3   OH2  748   4.661   2.110   3.119
  264TIP3    H1  749   4.593   2.045   3.139
  264TIP3    H2  750   4.740   2.076   3.162
  265TIP3   OH2  751   8.208   5.758   0.905
  265TIP3    H1  752   8.153   5.692   0.946
  265TIP3    H2  753   8.211   5.829   0.970
  266TIP3   OH2  754   4.089   7.600   2.885
  266TIP3    H1  755   4.069   7.672   2.945
  266TIP3    H2  756   4.011   7.592   2.830
  267TIP3   OH2  757   6.379   4.780   5.291
  267TIP3    H1  758   6.446   4.717   5.318
  267TIP3    H2  759   6.400   4.860   5.340
  268TIP3   OH2  760   2.395   7.344   1.344
  268TIP3    H1  761   2.333   7.395   1.396
  268TIP3    H2  762   2.472   7.401   1.337
  269TIP3   OH2  763   3.278   0.715   0.537
  269TIP3    H1  764   3.302   0.633   0.581
  269TIP3    H2  765   3.194   0.739   0.577
  270TIP3   OH2  766   0.467   5.932   1.252
  270TIP3    H1  767   0.506   6.009   1.211
  270TIP3    H2  768   0.442   5.960   1.339
  271TIP3   OH2  769   7.667   0.019   2.513
  271TIP3    H1  770   7.664   0.056   2.424
  271TIP3    H2  771   7.707   0.088   2.566
  272TIP3   OH2  772   7.816   3.915   0.517
  272TIP3    H1  773   7.868   3.953   0.588
  272TIP3    H2  774   7.857   3.831   0.499
  273TIP3   OH2  775   1.654   0.915   1.483
  273TIP3    H1  776   1.574   0.928   1.432
  273TIP3    H2  777   1.678   1.002   1.513
  274TIP3   OH2  778   5.406   6.722   4.439
  274TIP3    H1  779   5.352   6.653   4.477
  274TIP3    H2  780   5.486   6.677   4.412
  275TIP3   OH2  781   1.670   0.315   2.508
  275TIP3    H1  782   1.636   0.368   2.436
  275TIP3    H2  783   1.711   0.240   2.465
  276TIP3   OH2  784   4.150   3.465   0.345
  276TIP3    H1  785   4.128   3.415   0.424
  276TIP3    H2  786   4.098   3.545   0.352
  277TIP3   OH2  787   4.245   3.633   4.601
  277TIP3    H1  788   4.305   3.673   4.664
  277TIP3    H2  789   4.303   3.594   4.535
  278TIP3   OH2  790   1.917   7.284   0.615
  278TIP3    H1  791   2.009   7.300   0.635
  278TIP3    H2  792   1.917   7.203   0.564
  279TIP3   OH2  793   1.513   6.034   2.960
  279TIP3    H1  794   1.591   5.981   2.946
  279TIP3    H2  795   1.463   6.026   2.879
  280TIP3   OH2  796   6.849   3.549   3.804
  280TIP3    H1  797   6.762   3.588   3.802
  280TIP3    H2  798   6.908   3.621   3.780
  281TIP3   OH2  799   1.590   2.202   0.760
  281TIP3    H1  800   1.672   2.239   0.794
  281TIP3    H2  801   1.581   2.118   0.805
  282TIP3   OH2  802   7.649   2.453   3.391
  282TIP3    H1  803   7.614   2.390   3.328
  282TIP3    H2  804   7.645   2.537   3.346
  283TIP3   OH2  805   6.297  -0.009   6.342
  283TIP3    H1  806   6.207   0.020   6.328
  283TIP3    H2  807   6.309  -0.081   6.280
  284TIP3   OH2  808   3.010   5.485   0.969
  284TIP3    H1  809   2.979   5.459   0.883
  284TIP3    H2  810   2.942   5.543   1.003
  285TIP3   OH2  811   7.600   3.674   6.395
  285TIP3    H1  812   7.510   3.693   6.367
  285TIP3    H2  813   7.599   3.581   6.416
  286TIP3   OH2  814   5.569   1.641   6.304
  286TIP3    H1  815   5.508   1.670   6.236
  286TIP3    H2  816   5.610   1.563   6.267
  287TIP3   OH2  817   5.812   0.054   5.585
  287TIP3    H1  818   5.797  -0.040   5.580
  287TIP3    H2  819   5.783   0.087   5.500
  288TIP3   OH2  820   6.319   2.527   5.430
  288TIP3    H1  821   6.343   2.533   5.338
  288TIP3    H2  822   6.295   2.436   5.444
  289TIP3   OH2  823   2.294   5.999   5.121
  289TIP3    H1  824   2.241   6.061   5.071
  289TIP3    H2  825   2.237   5.970   5.193
  290TIP3   OH2  826   6.890   6.346   0.932
  290TIP3    H1  827   6.822   6.410   0.955
  290TIP3    H2  828   6.880   6.335   0.838
  291TIP3   OH2  829   3.380   2.923   2.944
  291TIP3    H1  830   3.424   3.005   2.925
  291TIP3    H2  831   3.436   2.879   3.009
  292TIP3   OH2  832   8.189   2.790   5.304
  292TIP3    H1  833   8.241   2.861   5.267
  292TIP3    H2  834   8.098   2.817   5.290
  293TIP3   OH2  835   1.336   1.923   3.985
  293TIP3    H1  836   1.376   1.839   3.962
  293TIP3    H2  837   1.247   1.900   4.013
  294TIP3   OH2  838   2.007   7.360   1.743
  294TIP3    H1  839   1.947   7.343   1.816
  294TIP3    H2  840   1.969   7.313   1.669
  295TIP3   OH2  841   7.334   3.074   4.845
  295TIP3    H1  842   7.429   3.064   4.846
  295TIP3    H2  843   7.317   3.154   4.893
  296TIP3   OH2  844   0.650   3.545   5.396
  296TIP3    H1  845   0.563   3.516   5.370
  296TIP3    H2  846   0.658   3.632   5.357
  297TIP3   OH2  847   2.819   4.844   4.056
  297TIP3    H1  848   2.746   4.861   3.997
  297TIP3    H2  849   2.881   4.794   4.003
  298TIP3   OH2  850   4.070   6.568   6.343
  298TIP3    H1  851   4.045   6.539   6.256
  298TIP3    H2  852   4.071   6.664   6.337
  299TIP3   OH2  853   6.106   1.584   5.942
  299TIP3    H1  854   6.068   1.509   5.897
  299TIP3    H2  855   6.070   1.660   5.896
  300TIP3   OH2  856   7.088   0.837   1.277
  300TIP3    H1  857   7.027   0.872   1.212
  300TIP3    H2  858   7.061   0.876   1.360
  301TIP3   OH2  859   8.136   6.569   2.834
  301TIP3    H1  860   8.202   6.601   2.896
  301TIP3    H2  861   8.060   6.547   2.889
  302TIP3   OH2  862   5.668   1.419   5.762
  302TIP3    H1  863   5.735   1.447   5.824
  302TIP3    H2  864   5.671   1.324   5.765
  303TIP3   OH2  865   2.765   7.035   1.587
  303TIP3    H1  866   2.692   7.096   1.574
  303TIP3    H2  867   2.799   7.056   1.673
  304TIP3   OH2  868   3.849   4.498   6.312
  304TIP3    H1  869   3.924   4.536   6.265
  304TIP3    H2  870   3.796   4.574   6.336
  305TIP3   OH2  871   7.943   1.065   0.457
  305TIP3    H1  872   7.897   1.043   0.376
  305TIP3    H2  873   7.876   1.109   0.510
  306TIP3   OH2  874   7.739   0.589   2.039
  306TIP3    H1  875   7.722   0.655   2.106
  306TIP3    H2  876   7.661   0.593   1.983
  307TIP3   OH2  877   4.348   6.759   1.352
  307TIP3    H1  878   4.309   6.674   1.330
  307TIP3    H2  879   4.435   6.737   1.385
  308TIP3   OH2  880   6.606   5.183   1.325
  308TIP3    H1  881   6.636   5.128   1.252
  308TIP3    H2  882   6.604   5.124   1.400
  309TIP3   OH2  883   4.644   5.046   1.282
  309TIP3    H1  884   4.554   5.015   1.288
  309TIP3    H2  885   4.662   5.084   1.368
  310TIP3   OH2  886   2.813   3.278   5.380
  310TIP3    H1  887   2.908   3.290   5.369
  310TIP3    H2  888   2.776   3.306   5.296
  311TIP3   OH2  889   7.213   4.481   1.093
  311TIP3    H1  890   7.120   4.503   1.100
  311TIP3    H2  891   7.245   4.536   1.021
  312TIP3   OH2  892   4.063   0.263   1.446
  312TIP3    H1  893   4.122   0.270   1.370
  312TIP3    H2  894   4.116   0.292   1.520
  313TIP3   OH2  895   7.814   0.533   6.477
  313TIP3    H1  896   7.736   0.541   6.421
  313TIP3    H2  897   7.884   0.508   6.417
  314TIP3   OH2  898   1.726   1.661   1.298
  314TIP3    H1  899   1.805   1.642   1.349
  314TIP3    H2  900   1.759   1.696   1.216
  315TIP3   OH2  901   7.795   1.075   2.881
  315TIP3    H1  902   7.866   1.059   2.818
  315TIP3    H2  903   7.783   0.992   2.925
  316TIP3   OH2  904   4.845   4.771   4.645
  316TIP3    H1  905   4.789   4.816   4.582
  316TIP3    H2  906   4.791   4.761   4.722
  317TIP3   OH2  907   2.935   5.084   4.193
  317TIP3    H1  908   2.934   5.129   4.108
  317TIP3    H2  909   2.981   5.143   4.252
  318TIP3   OH2  910   2.959   4.469   4.673
  318TIP3    H1  911   3.013   4.478   4.752
  318TIP3    H2  912   2.970   4.552   4.627
  319TIP3   OH2  913   0.843   5.593   3.277
  319TIP3    H1  914   0.800   5.577   3.193
  319TIP3    H2  915   0.793   5.539   3.339
  320TIP3   OH2  916   5.449   7.301   1.594
  320TIP3    H1  917   5.359   7.330   1.612
  320TIP3    H2  918   5.483   7.273   1.679
  321TIP3   OH2  919   5.342   3.834   5.012
  321TIP3    H1  920   5.251   3.807   4.997
  321TIP3    H2  921   5.354   3.911   4.957
  322TIP3   OH2  922   0.805   5.152   1.606
  322TIP3    H1  923   0.785   5.188   1.520
  322TIP3    H2  924   0.750   5.074   1.614
  323TIP3   OH2  925   3.141   4.661   5.770
  323TIP3    H1  926   3.179   4.582   5.731
  323TIP3    H2  927   3.177   4.733   5.718
  324TIP3   OH2  928   0.545   2.439   5.092
  324TIP3    H1  929   0.567   2.423   5.001
  324TIP3    H2  930   0.462   2.488   5.089
  325TIP3   OH2  931   1.480   3.588   3.042
  325TIP3    H1  932   1.538   3.647   3.089
  325TIP3    H2  933   1.392   3.616   3.067
  326TIP3   OH2  934   3.237   5.355   1.314
  326TIP3    H1  935   3.243   5.423   1.381
  326TIP3    H2  936   3.324   5.315   1.312
  327TIP3   OH2  937   0.928   4.577   5.162
  327TIP3    H1  938   0.900   4.555   5.251
  327TIP3    H2  939   0.864   4.640   5.131
  328TIP3   OH2  940   1.643   3.827   5.448
  328TIP3    H1  941   1.568   3.864   5.401
  328TIP3    H2  942   1.703   3.800   5.378
  329TIP3   OH2  943   3.827   3.856   0.419
  329TIP3    H1  944   3.918   3.879   0.401
  329TIP3    H2  945   3.776   3.924   0.374
  330TIP3   OH2  946   2.940   3.747   0.119
  330TIP3    H1  947   2.853   3.768   0.151
  330TIP3    H2  948   2.925   3.691   0.043
  331TIP3   OH2  949   7.817   0.890   6.031
  331TIP3    H1  950   7.736   0.863   6.072
  331TIP3    H2  951   7.796   0.973   5.987
  332TIP3   OH2  952   7.651   3.904   1.868
  332TIP3    H1  953   7.680   3.829   1.816
  332TIP3    H2  954   7.690   3.891   1.954
  333TIP3   OH2  955   3.705   1.228   6.732
  333TIP3    H1  956   3.765   1.192   6.797
  333TIP3    H2  957   3.760   1.246   6.655
  334TIP3   OH2  958   2.820   6.863   4.809
  334TIP3    H1  959   2.795   6.812   4.731
  334TIP3    H2  960   2.902   6.905   4.784
  335TIP3   OH2  961   7.154   2.873   5.203
  335TIP3    H1  962   7.235   2.876   5.254
  335TIP3    H2  963   7.141   2.963   5.174
  336TIP3   OH2  964   2.951   7.421   6.355
  336TIP3    H1  965   2.962   7.495   6.415
  336TIP3    H2  966   2.969   7.458   6.268
  337TIP3   OH2  967   5.603   4.913   5.655
  337TIP3    H1  968   5.633   4.878   5.571
  337TIP3    H2  969   5.669   4.883   5.718
  338TIP3   OH2  970   1.152   0.601   3.229
  338TIP3    H1  971   1.178   0.509   3.227
  338TIP3    H2  972   1.181   0.632   3.315
  339TIP3   OH2  973   1.049   7.078   2.689
  339TIP3    H1  974   1.096   7.071   2.606
  339TIP3    H2  975   1.114   7.055   2.755
  340TIP3   OH2  976   8.217   2.181   4.381
  340TIP3    H1  977   8.162   2.252   4.415
  340TIP3    H2  978   8.285   2.225   4.331
  341TIP3   OH2  979   8.018   6.450   6.231
  341TIP3    H1  980   8.108   6.435   6.261
  341TIP3    H2  981   7.979   6.505   6.299
  342TIP3   OH2  982   2.738   6.837   1.044
  342TIP3    H1  983   2.653   6.867   1.010
  342TIP3    H2  984   2.766   6.906   1.104
  343TIP3   OH2  985   7.230   7.513   5.960
  343TIP3    H1  986   7.240   7.528   6.054
  343TIP3    H2  987   7.293   7.572   5.919
  344TIP3   OH2  988   7.695   6.232   2.431
  344TIP3    H1  989   7.645   6.309   2.404
  344TIP3    H2  990   7.653   6.203   2.512
  345TIP3   OH2  991   1.166   5.242   0.395
  345TIP3    H1  992   1.167   5.336   0.376
  345TIP3    H2  993   1.258   5.217   0.394
  346TIP3   OH2  994   0.664   2.847   2.463
  346TIP3    H1  995   0.627   2.763   2.436
  346TIP3    H2  996   0.684   2.836   2.555
  347TIP3   OH2  997   1.244   7.299   4.911
  347TIP3    H1  998   1.337   7.276   4.903
  347TIP3    H2  999   1.214   7.249   4.987
  348TIP3   OH2 1000   2.787   3.639   3.965
  348TIP3    H1 1001   2.711   3.696   3.954
  348TIP3    H2 1002   2.831   3.642   3.879
  349TIP3   OH2 1003   0.798   6.562   1.188
  349TIP3    H1 1004   0.759   6.639   1.230
  349TIP3    H2 1005   0.732   6.494   1.197
  350TIP3   OH2 1006   1.796   6.888   5.820
  350TIP3    H1 1007   1.755   6.886   5.734
  350TIP3    H2 1008   1.889   6.873   5.803
  351TIP3   OH2 1009   4.452   4.523   3.355
  351TIP3    H1 1010   4.453   4.579   3.433
  351TIP3    H2 1011   4.448   4.584   3.282
  352TIP3   OH2 1012   6.584   6.072   3.789
  352TIP3    H1 1013   6.614   6.162   3.802
  352TIP3    H2 1014   6.522   6.077   3.715
  353TIP3   OH2 1015   5.626   1.821   2.964
  353TIP3    H1 1016   5.668   1.907   2.965
  353TIP3    H2 1017   5.545   1.833   3.012
  354TIP3   OH2 1018   6.226   4.424   2.211
  354TIP3    H1 1019   6.164   4.359   2.178
  354TIP3    H2 1020   6.171   4.495   2.243
  355TIP3   OH2 1021   8.267   2.205   5.510
  355TIP3    H1 1022   8.182   2.183   5.472
  355TIP3    H2 1023   8.250   2.282   5.564
  356TIP3   OH2 1024   4.339   0.999   6.397
  356TIP3    H1 1025   4.299   1.056   6.332
  356TIP3    H2 1026   4.288   0.918   6.393
  357TIP3   OH2 1027   7.391   2.635   0.185
  357TIP3    H1 1028   7.462   2.644   0.122
  357TIP3    H2 1029   7.366   2.725   0.207
  358TIP3   OH2 1030   6.157   1.741   3.925
  358TIP3    H1 1031   6.203   1.770   4.004
  358TIP3    H2 1032   6.124   1.654   3.946
  359TIP3   OH2 1033   3.786   4.310   4.157
  359TIP3    H1 1034   3.836   4.255   4.216
  359TIP3    H2 1035   3.749   4.378   4.213
  360TIP3   OH2 1036   5.508   5.916   2.712
  360TIP3    H1 1037   5.450   5.842   2.727
  360TIP3    H2 1038   5.575   5.883   2.652
  361TIP3   OH2 1039   0.467   1.003   6.247
  361TIP3    H1 1040   0.514   1.069   6.195
  361TIP3    H2 1041   0.441   1.049   6.327
  362TIP3   OH2 1042   1.799   6.001   6.553
  362TIP3    H1 1043   1.851   6.074   6.521
  362TIP3    H2 1044   1.796   5.939   6.480
  363TIP3   OH2 1045   5.236   7.635   6.557
  363TIP3    H1 1046   5.219   7.572   6.487
  363TIP3    H2 1047   5.182   7.711   6.534
  364TIP3   OH2 1048   4.748   5.383   5.498
  364TIP3    H1 1049   4.712   5.469   5.523
  364TIP3    H2 1050   4.766   5.339   5.581
  365TIP3   OH2 1051   3.435   5.207   1.145
  365TIP3    H1 1052   3.468   5.123   1.113
  365TIP3    H2 1053   3.401   5.250   1.067
  366TIP3   OH2 1054   2.058   3.812   6.566
  366TIP3    H1 1055   1.967   3.833   6.545
  366TIP3    H2 1056   2.064   3.824   6.661
  367TIP3   OH2 1057   8.197   3.502   4.690
  367TIP3    H1 1058   8.268   3.538   4.744
  367TIP3    H2 1059   8.213   3.407   4.689
  368TIP3   OH2 1060   7.098   5.875   3.949
  368TIP3    H1 1061   7.051   5.862   3.867
  368TIP3    H2 1062   7.067   5.805   4.006
  369TIP3   OH2 1063   2.852   3.537   2.288
  369TIP3    H1 1064   2.879   3.523   2.378
  369TIP3    H2 1065   2.757   3.544   2.292
  370TIP3   OH2 1066   0.426   1.626   4.188
  370TIP3    H1 1067   0.473   1.674   4.120
  370TIP3    H2 1068   0.482   1.552   4.209
  371TIP3   OH2 1069   2.727   6.229   4.864
  371TIP3    H1 1070   2.693   6.171   4.932
  371TIP3    H2 1071   2.720   6.317   4.902
  372TIP3   OH2 1072   2.251   1.233   0.300
  372TIP3    H1 1073   2.286   1.278   0.377
  372TIP3    H2 1074   2.156   1.237   0.311
  373TIP3   OH2 1075   0.197   5.775   6.419
  373TIP3    H1 1076   0.102   5.766   6.409
  373TIP3    H2 1077   0.210   5.789   6.513
  374TIP3   OH2 1078   7.045   3.884   0.935
  374TIP3    H1 1079   6.989   3.961   0.924
  374TIP3    H2 1080   7.020   3.848   1.020
  375TIP3   OH2 1081   8.249   2.021   6.485
  375TIP3    H1 1082   8.166   2.062   6.460
  375TIP3    H2 1083   8.311   2.093   6.493
  376TIP3   OH2 1084   5.596   3.877   0.407
  376TIP3    H1 1085   5.608   3.972   0.402
  376TIP3    H2 1086   5.634   3.844   0.325
  377TIP3   OH2 1087   1.764   3.858   0.440
  377TIP3    H1 1088   1.678   3.821   0.420
  377TIP3    H2 1089   1.805   3.794   0.499
  378TIP3   OH2 1090   6.182   5.749   4.793
  378TIP3    H1 1091   6.181   5.658   4.761
  378TIP3    H2 1092   6.100   5.758   4.841
  379TIP3   OH2 1093   5.160   3.480   5.017
  379TIP3    H1 1094   5.137   3.568   4.986
  379TIP3    H2 1095   5.077   3.445   5.051
  380TIP3   OH2 1096   1.556   1.591   4.231
  380TIP3    H1 1097   1.603   1.545   4.300
  380TIP3    H2 1098   1.518   1.667   4.275
  381TIP3   OH2 1099   3.864   1.480   2.728
  381TIP3    H1 1100   3.893   1.405   2.780
  381TIP3    H2 1101   3.865   1.554   2.789
  382TIP3   OH2 1102   2.875   2.500   5.587
  382TIP3    H1 1103   2.784   2.473   5.572
  382TIP3    H2 1104   2.871   2.556   5.665
  383TIP3   OH2 1105   7.461   1.604   3.746
  383TIP3    H1 1106   7.436   1.543   3.816
  383TIP3    H2 1107   7.526   1.662   3.786
  384TIP3   OH2 1108   3.845   4.906   3.787
  384TIP3    H1 1109   3.797   4.879   3.709
  384TIP3    H2 1110   3.936   4.911   3.759
  385TIP3   OH2 1111   5.719   4.390   4.148
  385TIP3    H1 1112   5.675   4.317   4.105
  385TIP3    H2 1113   5.662   4.466   4.133
  386TIP3   OH2 1114   3.475   5.447   5.551
  386TIP3    H1 1115   3.445   5.520   5.496
  386TIP3    H2 1116   3.428   5.371   5.518
  387TIP3   OH2 1117   2.594   6.436   3.589
  387TIP3    H1 1118   2.499   6.448   3.590
  387TIP3    H2 1119   2.628   6.509   3.639
  388TIP3   OH2 1120   1.749   5.501   3.113
  388TIP3    H1 1121   1.772   5.567   3.178
  388TIP3    H2 1122   1.719   5.552   3.037
  389TIP3   OH2 1123   0.325   0.472   1.370
  389TIP3    H1 1124   0.365   0.398   1.414
  389TIP3    H2 1125   0.354   0.549   1.420
  390TIP3   OH2 1126   6.818   5.070   4.496
  390TIP3    H1 1127   6.827   5.157   4.534
  390TIP3    H2 1128   6.905   5.031   4.506
  391TIP3   OH2 1129   4.483   0.071   5.405
  391TIP3    H1 1130   4.441  -0.013   5.422
  391TIP3    H2 1131   4.490   0.112   5.491
  392TIP3   OH2 1132   3.440   5.883   5.538
  392TIP3    H1 1133   3.484   5.906   5.457
  392TIP3    H2 1134   3.377   5.954   5.553
  393TIP3   OH2 1135   0.538   3.795   2.796
  393TIP3    H1 1136   0.582   3.842   2.725
  393TIP3    H2 1137   0.601   3.727   2.821
  394TIP3   OH2 1138   0.348   5.389   6.150
  394TIP3    H1 1139   0.274   5.451   6.149
  394TIP3    H2 1140   0.425   5.444   6.142
  395TIP3   OH2 1141   2.069   7.336   1.307
  395TIP3    H1 1142   2.011   7.412   1.314
  395TIP3    H2 1143   2.157   7.373   1.306
  396TIP3   OH2 1144   3.288   1.102   4.795
  396TIP3    H1 1145   3.275   1.119   4.701
  396TIP3    H2 1146   3.311   1.009   4.799
  397TIP3   OH2 1147   2.353   3.696   0.019
  397TIP3    H1 1148   2.294   3.621   0.007
  397TIP3    H2 1149   2.403   3.700  -0.062
  398TIP3   OH2 1150   4.488   1.785   0.665
  398TIP3    H1 1151   4.522   1.760   0.579
  398TIP3    H2 1152   4.393   1.789   0.653
  399TIP3   OH2 1153   6.621   0.083   4.827
  399TIP3    H1 1154   6.669   0.164   4.843
  399TIP3    H2 1155   6.682   0.014   4.850
  400TIP3   OH2 1156   5.524   7.504   1.390
  400TIP3    H1 1157   5.454   7.532   1.332
  400TIP3    H2 1158   5.488   7.427   1.435
  401TIP3   OH2 1159   1.496   7.600   2.365
  401TIP3    H1 1160   1.479   7.556   2.282
  401TIP3    H2 1161   1.585   7.573   2.389
  402TIP3   OH2 1162   2.947   5.382   0.264
  402TIP3    H1 1163   2.962   5.295   0.227
  402TIP3    H2 1164   2.871   5.416   0.216
  403TIP3   OH2 1165   4.517   0.405   2.522
  403TIP3    H1 1166   4.504   0.474   2.458
  403TIP3    H2 1167   4.526   0.325   2.470
  404TIP3   OH2 1168   1.356   6.069   4.572
  404TIP3    H1 1169   1.426   6.131   4.594
  404TIP3    H2 1170   1.290   6.121   4.527
  405TIP3   OH2 1171   4.245   5.973   5.607
  405TIP3    H1 1172   4.226   5.954   5.699
  405TIP3    H2 1173   4.266   6.066   5.605
  406TIP3   OH2 1174   7.215   5.012   4.854
  406TIP3    H1 1175   7.206   4.978   4.943
  406TIP3    H2 1176   7.211   4.934   4.798
  407TIP3   OH2 1177   8.296   1.031   1.152
  407TIP3    H1 1178   8.242   0.975   1.207
  407TIP3    H2 1179   8.366   1.062   1.210
  408TIP3   OH2 1180   6.373   7.068   3.540
  408TIP3    H1 1181   6.406   7.096   3.626
  408TIP3    H2 1182   6.410   7.131   3.478
  409TIP3   OH2 1183   8.018   5.965   4.724
  409TIP3    H1 1184   7.948   5.975   4.788
  409TIP3    H2 1185   8.037   5.871   4.723
  410TIP3   OH2 1186   3.768   5.476   1.026
  410TIP3    H1 1187   3.799   5.495   0.937
  410TIP3    H2 1188   3.848   5.469   1.078
  411TIP3   OH2 1189   1.200   0.099   2.982
  411TIP3    H1 1190   1.266   0.046   3.025
  411TIP3    H2 1191   1.162   0.041   2.916
  412TIP3   OH2 1192   8.225   2.048   6.136
  412TIP3    H1 1193   8.193   2.114   6.074
  412TIP3    H2 1194   8.163   1.975   6.127
  413TIP3   OH2 1195   2.828   4.051   5.370
  413TIP3    H1 1196   2.817   3.957   5.382
  413TIP3    H2 1197   2.922   4.064   5.366
  414TIP3   OH2 1198   3.840   4.369   3.889
  414TIP3    H1 1199   3.935   4.381   3.893
  414TIP3    H2 1200   3.811   4.387   3.978
  415TIP3   OH2 1201   3.128   7.704   3.402
  415TIP3    H1 1202   3.208   7.651   3.399
  415TIP3    H2 1203   3.094   7.700   3.313
  416TIP3   OH2 1204   0.206   7.571   1.189
  416TIP3    H1 1205   0.117   7.603   1.174
  416TIP3    H2 1206   0.258   7.611   1.120
  417TIP3   OH2 1207   3.232   2.076   0.944
  417TIP3    H1 1208   3.270   2.029   1.018
  417TIP3    H2 1209   3.274   2.162   0.946
  418TIP3   OH2 1210   6.687   2.335   2.200
  418TIP3    H1 1211   6.660   2.244   2.192
  418TIP3    H2 1212   6.606   2.382   2.222
  419TIP3   OH2 1213   1.410   3.104   2.472
  419TIP3    H1 1214   1.489   3.109   2.527
  419TIP3    H2 1215   1.346   3.058   2.526
  420TIP3   OH2 1216   6.547   7.315   2.516
  420TIP3    H1 1217   6.636   7.329   2.549
  420TIP3    H2 1218   6.557   7.299   2.423
  421TIP3   OH2 1219   1.599   7.467   3.518
  421TIP3    H1 1220   1.672   7.491   3.575
  421TIP3    H2 1221   1.616   7.514   3.437
  422TIP3   OH2 1222   2.767   4.655   6.629
  422TIP3    H1 1223   2.720   4.575   6.607
  422TIP3    H2 1224   2.857   4.628   6.644
  423TIP3   OH2 1225   0.517   4.243   5.549
  423TIP3    H1 1226   0.603   4.247   5.507
  423TIP3    H2 1227   0.528   4.180   5.621
  424TIP3   OH2 1228   4.497   4.795   0.013
  424TIP3    H1 1229   4.519   4.832  -0.072
  424TIP3    H2 1230   4.423   4.848   0.045
  425TIP3   OH2 1231   2.892   7.411   3.259
  425TIP3    H1 1232   2.923   7.415   3.169
  425TIP3    H2 1233   2.970   7.393   3.311
  426TIP3   OH2 1234   1.643   0.301   1.704
  426TIP3    H1 1235   1.678   0.213   1.695
  426TIP3    H2 1236   1.674   0.331   1.789
  427TIP3   OH2 1237   0.998   6.407   3.028
  427TIP3    H1 1238   0.969   6.459   3.103
  427TIP3    H2 1239   1.094   6.404   3.036
  428TIP3   OH2 1240   2.730   6.201   5.479
  428TIP3    H1 1241   2.825   6.190   5.476
  428TIP3    H2 1242   2.695   6.132   5.423
  429TIP3   OH2 1243   6.013   2.116   2.763
  429TIP3    H1 1244   5.983   2.170   2.836
  429TIP3    H2 1245   5.985   2.164   2.685
  430TIP3   OH2 1246   2.121   0.579   4.108
  430TIP3    H1 1247   2.048   0.533   4.150
  430TIP3    H2 1248   2.198   0.526   4.127
  431TIP3   OH2 1249   1.923   3.257   6.055
  431TIP3    H1 1250   1.941   3.285   6.145
  431TIP3    H2 1251   1.829   3.243   6.052
  432TIP3   OH2 1252   1.265   2.441   1.163
  432TIP3    H1 1253   1.231   2.530   1.174
  432TIP3    H2 1254   1.286   2.435   1.069
  433TIP3   OH2 1255   2.377   2.785   5.463
  433TIP3    H1 1256   2.441   2.839   5.417
  433TIP3    H2 1257   2.383   2.813   5.554
  434TIP3   OH2 1258   3.835   4.812   4.044
  434TIP3    H1 1259   3.832   4.848   3.955
  434TIP3    H2 1260   3.913   4.853   4.083
  435TIP3   OH2 1261   3.017   1.996   2.728
  435TIP3    H1 1262   3.006   1.933   2.799
  435TIP3    H2 1263   3.087   2.054   2.757
  436TIP3   OH2 1264   6.770   0.407   5.826
  436TIP3    H1 1265   6.857   0.436   5.797
  436TIP3    H2 1266   6.787   0.331   5.882
  437TIP3   OH2 1267   6.468   1.268   2.614
  437TIP3    H1 1268   6.476   1.313   2.698
  437TIP3    H2 1269   6.475   1.175   2.637
  438TIP3   OH2 1270   0.541   6.535   4.035
  438TIP3    H1 1271   0.460   6.489   4.013
  438TIP3    H2 1272   0.514   6.601   4.100
  439TIP3   OH2 1273   3.654   2.163   2.346
  439TIP3    H1 1274   3.721   2.135   2.408
  439TIP3    H2 1275   3.577   2.110   2.367
  440TIP3   OH2 1276   0.777   7.602   6.482
  440TIP3    H1 1277   0.753   7.517   6.520
  440TIP3    H2 1278   0.825   7.579   6.402
  441TIP3   OH2 1279   2.688   6.934   0.504
  441TIP3    H1 1280   2.736   6.854   0.523
  441TIP3    H2 1281   2.719   6.961   0.418
  442TIP3   OH2 1282   7.803   4.356   5.868
  442TIP3    H1 1283   7.863   4.429   5.849
  442TIP3    H2 1284   7.716   4.391   5.847
  443TIP3   OH2 1285   5.398   1.210   0.846
  443TIP3    H1 1286   5.392   1.272   0.773
  443TIP3    H2 1287   5.490   1.184   0.847
  444TIP3   OH2 1288   5.184   0.426   5.354
  444TIP3    H1 1289   5.119   0.363   5.385
  444TIP3    H2 1290   5.139   0.473   5.284
  445TIP3   OH2 1291   7.491   5.429   0.590
  445TIP3    H1 1292   7.407   5.461   0.557
  445TIP3    H2 1293   7.556   5.475   0.538
  446TIP3   OH2 1294   4.512   5.057   3.902
  446TIP3    H1 1295   4.586   5.100   3.946
  446TIP3    H2 1296   4.438   5.115   3.918
  447TIP3   OH2 1297   6.955   2.741   4.602
  447TIP3    H1 1298   6.862   2.758   4.589
  447TIP3    H2 1299   6.958   2.653   4.640
  448TIP3   OH2 1300   3.156   5.374   2.763
  448TIP3    H1 1301   3.240   5.420   2.755
  448TIP3    H2 1302   3.180   5.282   2.773
  449TIP3   OH2 1303   0.546   2.827   1.642
  449TIP3    H1 1304   0.460   2.869   1.636
  449TIP3    H2 1305   0.527   2.740   1.677
  450TIP3   OH2 1306   1.216   1.664   4.336
  450TIP3    H1 1307   1.134   1.670   4.286
  450TIP3    H2 1308   1.284   1.661   4.270
  451TIP3   OH2 1309   5.003   7.254   5.749
  451TIP3    H1 1310   4.949   7.246   5.827
  451TIP3    H2 1311   4.974   7.336   5.708
  452TIP3   OH2 1312   5.418   1.377   1.870
  452TIP3    H1 1313   5.468   1.437   1.814
  452TIP3    H2 1314   5.482   1.345   1.934
  453TIP3   OH2 1315   3.488   0.527   3.852
  453TIP3    H1 1316   3.508   0.502   3.761
  453TIP3    H2 1317   3.563   0.497   3.902
  454TIP3   OH2 1318   0.542   7.202   0.316
  454TIP3    H1 1319   0.580   7.268   0.258
  454TIP3    H2 1320   0.449   7.201   0.293
  455TIP3   OH2 1321   2.555   2.514   1.112
  455TIP3    H1 1322   2.641   2.544   1.082
  455TIP3    H2 1323   2.574   2.438   1.167
  456TIP3   OH2 1324   7.625   2.649   6.326
  456TIP3    H1 1325   7.704   2.603   6.299
  456TIP3    H2 1326   7.656   2.723   6.378
  457TIP3   OH2 1327   0.812   4.541   0.344
  457TIP3    H1 1328   0.900   4.558   0.377
  457TIP3    H2 1329   0.768   4.626   0.349
  458TIP3   OH2 1330   5.623   5.383   0.284
  458TIP3    H1 1331   5.649   5.416   0.370
  458TIP3    H2 1332   5.584   5.297   0.302
  459TIP3   OH2 1333   2.972   4.355   3.503
  459TIP3    H1 1334   3.047   4.306   3.539
  459TIP3    H2 1335   2.998   4.447   3.512
  460TIP3   OH2 1336   8.144   0.456   6.042
  460TIP3    H1 1337   8.239   0.445   6.035
  460TIP3    H2 1338   8.120   0.513   5.969
  461TIP3   OH2 1339   5.824   5.947   6.064
  461TIP3    H1 1340   5.810   5.867   6.114
  461TIP3    H2 1341   5.872   6.004   6.123
  462TIP3   OH2 1342   6.500   1.073   4.871
  462TIP3    H1 1343   6.465   1.120   4.947
  462TIP3    H2 1344   6.594   1.090   4.874
  463TIP3   OH2 1345   1.668   2.239   6.082
  463TIP3    H1 1346   1.758   2.272   6.078
  463TIP3    H2 1347   1.614   2.314   6.059
  464TIP3   OH2 1348   3.650   0.646   6.330
  464TIP3    H1 1349   3.583   0.708   6.302
  464TIP3    H2 1350   3.615   0.560   6.306
  465TIP3   OH2 1351   6.076   0.346  -0.011
  465TIP3    H1 1352   5.997   0.346  -0.063
  465TIP3    H2 1353   6.068   0.423   0.046
  466TIP3   OH2 1354   2.625   3.409   6.505
  466TIP3    H1 1355   2.550   3.457   6.540
  466TIP3    H2 1356   2.621   3.425   6.410
  467TIP3   OH2 1357   0.334   1.082   0.539
  467TIP3    H1 1358   0.279   1.160   0.549
  467TIP3    H2 1359   0.303   1.023   0.608
  468TIP3   OH2 1360   0.035   6.110   2.085
  468TIP3    H1 1361   0.051   6.189   2.137
  468TIP3    H2 1362   0.113   6.057   2.095
  469TIP3   OH2 1363   1.745   3.564   4.588
  469TIP3    H1 1364   1.672   3.615   4.623
  469TIP3    H2 1365   1.751   3.488   4.647
  470TIP3   OH2 1366   5.182   5.599   1.198
  470TIP3    H1 1367   5.235   5.551   1.263
  470TIP3    H2 1368   5.150   5.676   1.246
  471TIP3   OH2 1369   1.552   2.873   2.735
  471TIP3    H1 1370   1.576   2.912   2.819
  471TIP3    H2 1371   1.632   2.877   2.682
  472TIP3   OH2 1372   7.475   0.981   5.627
  472TIP3    H1 1373   7.399   1.010   5.576
  472TIP3    H2 1374   7.541   1.048   5.612
  473TIP3   OH2 1375   7.703   3.572   3.252
  473TIP3    H1 1376   7.627   3.522   3.222
  473TIP3    H2 1377   7.766   3.505   3.280
  474TIP3   OH2 1378   4.265   5.360   3.635
  474TIP3    H1 1379   4.265   5.313   3.718
  474TIP3    H2 1380   4.180   5.342   3.596
  475TIP3   OH2 1381   7.670   5.059   4.850
  475TIP3    H1 1382   7.739   4.999   4.823
  475TIP3    H2 1383   7.715   5.142   4.867
  476TIP3   OH2 1384   5.263   0.775   0.926
  476TIP3    H1 1385   5.305   0.858   0.947
  476TIP3    H2 1386   5.209   0.794   0.850
  477TIP3   OH2 1387   5.765   6.365   6.698
  477TIP3    H1 1388   5.737   6.300   6.633
  477TIP3    H2 1389   5.717   6.444   6.675
  478TIP3   OH2 1390   0.317   6.313   0.957
  478TIP3    H1 1391   0.299   6.406   0.969
  478TIP3    H2 1392   0.260   6.270   1.021
  479TIP3   OH2 1393   0.844   7.760   1.979
  479TIP3    H1 1394   0.918   7.731   1.926
  479TIP3    H2 1395   0.779   7.691   1.971
  480TIP3   OH2 1396   0.134   6.133   4.654
  480TIP3    H1 1397   0.210   6.178   4.619
  480TIP3    H2 1398   0.066   6.200   4.660
  481TIP3   OH2 1399   4.788   0.688   1.147
  481TIP3    H1 1400   4.789   0.697   1.052
  481TIP3    H2 1401   4.719   0.748   1.176
  482TIP3   OH2 1402   3.734   1.914   3.761
  482TIP3    H1 1403   3.824   1.881   3.765
  482TIP3    H2 1404   3.694   1.865   3.688
  483TIP3   OH2 1405   4.292   6.517   1.008
  483TIP3    H1 1406   4.328   6.440   1.050
  483TIP3    H2 1407   4.205   6.528   1.047
  484TIP3   OH2 1408   4.773   0.155   0.797
  484TIP3    H1 1409   4.832   0.229   0.810
  484TIP3    H2 1410   4.685   0.191   0.810
  485TIP3   OH2 1411   2.600   6.236   6.276
  485TIP3    H1 1412   2.561   6.315   6.314
  485TIP3    H2 1413   2.551   6.164   6.316
  486TIP3   OH2 1414   8.184   0.378   4.581
  486TIP3    H1 1415   8.111   0.355   4.523
  486TIP3    H2 1416   8.142   0.417   4.658
  487TIP3   OH2 1417   2.070   6.219   6.065
  487TIP3    H1 1418   2.088   6.238   6.157
  487TIP3    H2 1419   2.033   6.301   6.030
  488TIP3   OH2 1420   7.239   4.597   3.395
  488TIP3    H1 1421   7.327   4.598   3.355
  488TIP3    H2 1422   7.220   4.504   3.405
  489TIP3   OH2 1423   3.547   2.207   3.355
  489TIP3    H1 1424   3.531   2.276   3.291
  489TIP3    H2 1425   3.528   2.248   3.440
  490TIP3   OH2 1426   2.136   0.693   1.303
  490TIP3    H1 1427   2.161   0.668   1.392
  490TIP3    H2 1428   2.206   0.752   1.275
  491TIP3   OH2 1429   7.791   2.284   1.692
  491TIP3    H1 1430   7.788   2.313   1.783
  491TIP3    H2 1431   7.793   2.189   1.696
  492TIP3   OH2 1432   3.288   4.150   6.185
  492TIP3    H1 1433   3.247   4.075   6.226
  492TIP3    H2 1434   3.223   4.182   6.122
  493TIP3   OH2 1435   2.755   5.827   4.333
  493TIP3    H1 1436   2.841   5.858   4.363
  493TIP3    H2 1437   2.693   5.891   4.369
  494TIP3   OH2 1438   7.861   3.713   6.003
  494TIP3    H1 1439   7.787   3.746   5.952
  494TIP3    H2 1440   7.876   3.781   6.069
  495TIP3   OH2 1441   3.882   2.315   1.405
  495TIP3    H1 1442   3.955   2.266   1.443
  495TIP3    H2 1443   3.813   2.250   1.393
  496TIP3   OH2 1444   1.960   1.268   4.521
  496TIP3    H1 1445   1.972   1.228   4.435
  496TIP3    H2 1446   1.871   1.304   4.520
  497TIP3   OH2 1447   6.146   2.261   2.016
  497TIP3    H1 1448   6.223   2.283   1.963
  497TIP3    H2 1449   6.163   2.173   2.047
  498TIP3   OH2 1450   6.691   1.530   0.306
  498TIP3    H1 1451   6.601   1.518   0.338
  498TIP3    H2 1452   6.681   1.570   0.220
  499TIP3   OH2 1453   5.982   7.248   5.775
  499TIP3    H1 1454   6.048   7.236   5.706
  499TIP3    H2 1455   5.945   7.335   5.757
  500TIP3   OH2 1456   1.200   5.092   4.709
  500TIP3    H1 1457   1.192   5.151   4.784
  500TIP3    H2 1458   1.271   5.130   4.657
  501TIP3   OH2 1459   8.220   0.246   2.947
  501TIP3    H1 1460   8.216   0.341   2.938
  501TIP3    H2 1461   8.130   0.220   2.965
  502TIP3   OH2 1462   2.130   0.978   1.013
  502TIP3    H1 1463   2.040   1.009   1.002
  502TIP3    H2 1464   2.128   0.888   0.982
  503TIP3   OH2 1465   2.484   5.890   3.700
  503TIP3    H1 1466   2.524   5.931   3.623
  503TIP3    H2 1467   2.549   5.826   3.729
  504TIP3   OH2 1468   4.949   5.050   2.270
  504TIP3    H1 1469   5.032   5.017   2.238
  504TIP3    H2 1470   4.969   5.139   2.302
  505TIP3   OH2 1471   3.318   7.656   0.387
  505TIP3    H1 1472   3.227   7.636   0.365
  505TIP3    H2 1473   3.343   7.587   0.448
  506TIP3   OH2 1474   4.746   0.658   0.840
  506TIP3    H1 1475   4.673   0.600   0.864
  506TIP3    H2 1476   4.709   0.718   0.775
  507TIP3   OH2 1477   4.137   0.774   3.041
  507TIP3    H1 1478   4.124   0.680   3.045
  507TIP3    H2 1479   4.053   0.809   3.012
  508TIP3   OH2 1480   3.316   7.147   3.451
  508TIP3    H1 1481   3.390   7.206   3.440
  508TIP3    H2 1482   3.279   7.137   3.363
  509TIP3   OH2 1483   0.275   5.647   6.768
  509TIP3    H1 1484   0.221   5.606   6.700
  509TIP3    H2 1485   0.323   5.574   6.808
  510TIP3   OH2 1486   1.633   3.317   3.282
  510TIP3    H1 1487   1.675   3.232   3.295
  510TIP3    H2 1488   1.696   3.368   3.230
  511TIP3   OH2 1489   0.867   5.738   3.871
  511TIP3    H1 1490   0.866   5.809   3.806
  511TIP3    H2 1491   0.852   5.659   3.819
  512TIP3   OH2 1492   6.490   4.656   6.512
  512TIP3    H1 1493   6.575   4.672   6.470
  512TIP3    H2 1494   6.478   4.562   6.507
  513TIP3   OH2 1495   6.635   3.976   2.792
  513TIP3    H1 1496   6.559   4.008   2.743
  513TIP3    H2 1497   6.650   4.041   2.860
  514TIP3   OH2 1498   7.632   3.893   6.567
  514TIP3    H1 1499   7.634   3.810   6.519
  514TIP3    H2 1500   7.603   3.869   6.655
  515TIP3   OH2 1501   1.569   3.999   3.265
  515TIP3    H1 1502   1.555   4.063   3.335
  515TIP3    H2 1503   1.589   3.917   3.310
  516TIP3   OH2 1504   1.617   3.825   0.112
  516TIP3    H1 1505   1.635   3.918   0.094
  516TIP3    H2 1506   1.599   3.821   0.206
  517TIP3   OH2 1507   3.019   1.263   1.161
  517TIP3    H1 1508   2.927   1.260   1.136
  517TIP3    H2 1509   3.018   1.282   1.255
  518TIP3   OH2 1510   3.124   0.865   4.296
  518TIP3    H1 1511   3.103   0.915   4.375
  518TIP3    H2 1512   3.129   0.774   4.326
  519TIP3   OH2 1513   0.994   1.527   2.530
  519TIP3    H1 1514   1.042   1.566   2.457
  519TIP3    H2 1515   0.920   1.586   2.544
  520TIP3   OH2 1516   1.564   3.964   5.674
  520TIP3    H1 1517   1.588   3.892   5.615
  520TIP3    H2 1518   1.613   3.946   5.755
  521TIP3   OH2 1519   2.238   1.039   0.601
  521TIP3    H1 1520   2.264   0.951   0.628
  521TIP3    H2 1521   2.211   1.029   0.510
  522TIP3   OH2 1522   0.323   7.381   0.568
  522TIP3    H1 1523   0.271   7.322   0.623
  522TIP3    H2 1524   0.284   7.467   0.581
  523TIP3   OH2 1525   6.297   7.264   2.646
  523TIP3    H1 1526   6.389   7.269   2.620
  523TIP3    H2 1527   6.293   7.191   2.707
  524TIP3   OH2 1528   2.567   5.797   6.573
  524TIP3    H1 1529   2.568   5.743   6.494
  524TIP3    H2 1530   2.656   5.789   6.609
  525TIP3   OH2 1531   1.818   1.228   0.660
  525TIP3    H1 1532   1.818   1.323   0.672
  525TIP3    H2 1533   1.740   1.198   0.706
  526TIP3   OH2 1534   3.556   2.954   0.633
  526TIP3    H1 1535   3.632   2.975   0.688
  526TIP3    H2 1536   3.584   2.979   0.545
  527TIP3   OH2 1537   2.228   5.045   5.350
  527TIP3    H1 1538   2.264   4.987   5.417
  527TIP3    H2 1539   2.196   4.986   5.281
  528TIP3   OH2 1540   6.794   3.941   1.371
  528TIP3    H1 1541   6.800   4.023   1.322
  528TIP3    H2 1542   6.728   3.958   1.438
  529TIP3   OH2 1543   3.178   6.880   3.897
  529TIP3    H1 1544   3.249   6.816   3.887
  529TIP3    H2 1545   3.173   6.924   3.812
  530TIP3   OH2 1546   7.040   0.852   2.559
  530TIP3    H1 1547   7.054   0.775   2.613
  530TIP3    H2 1548   6.944   0.859   2.551
  531TIP3   OH2 1549   6.655   6.484   4.747
  531TIP3    H1 1550   6.661   6.393   4.716
  531TIP3    H2 1551   6.718   6.532   4.694
  532TIP3   OH2 1552   3.141   6.441   2.125
  532TIP3    H1 1553   3.225   6.471   2.088
  532TIP3    H2 1554   3.113   6.513   2.182
  533TIP3   OH2 1555   6.207   6.029   6.017
  533TIP3    H1 1556   6.274   6.096   6.031
  533TIP3    H2 1557   6.247   5.967   5.957
  534TIP3   OH2 1558   5.072   2.722   3.196
  534TIP3    H1 1559   5.000   2.767   3.238
  534TIP3    H2 1560   5.107   2.785   3.133
  535TIP3   OH2 1561   5.439   3.481   5.021
  535TIP3    H1 1562   5.343   3.477   5.031
  535TIP3    H2 1563   5.467   3.542   5.089
  536TIP3   OH2 1564   4.168   1.948   5.129
  536TIP3    H1 1565   4.212   2.028   5.098
  536TIP3    H2 1566   4.149   1.967   5.221
  537TIP3   OH2 1567   5.787   3.165   6.029
  537TIP3    H1 1568   5.764   3.095   5.967
  537TIP3    H2 1569   5.757   3.245   5.986
  538TIP3   OH2 1570   7.079   5.527   2.421
  538TIP3    H1 1571   7.118   5.445   2.452
  538TIP3    H2 1572   6.991   5.528   2.459
  539TIP3   OH2 1573   3.928   2.643   1.370
  539TIP3    H1 1574   3.934   2.607   1.282
  539TIP3    H2 1575   4.005   2.611   1.416
  540TIP3   OH2 1576   5.018   1.907   3.686
  540TIP3    H1 1577   5.082   1.850   3.643
  540TIP3    H2 1578   5.041   1.904   3.779
  541TIP3   OH2 1579   1.102   5.640   6.567
  541TIP3    H1 1580   1.009   5.633   6.546
  541TIP3    H2 1581   1.146   5.645   6.483
  542TIP3   OH2 1582   0.290   0.264   6.056
  542TIP3    H1 1583   0.242   0.193   6.101
  542TIP3    H2 1584   0.279   0.340   6.114
  543TIP3   OH2 1585   5.955   4.491   4.287
  543TIP3    H1 1586   5.904   4.448   4.218
  543TIP3    H2 1587   6.041   4.449   4.283
  544TIP3   OH2 1588   3.401   6.138   3.747
  544TIP3    H1 1589   3.393   6.198   3.821
  544TIP3    H2 1590   3.406   6.051   3.788
  545TIP3   OH2 1591   4.249   2.736   6.252
  545TIP3    H1 1592   4.305   2.740   6.329
  545TIP3    H2 1593   4.219   2.826   6.240
  546TIP3   OH2 1594   4.723   2.871   4.889
  546TIP3    H1 1595   4.705   2.895   4.980
  546TIP3    H2 1596   4.698   2.948   4.838
  547TIP3   OH2 1597   3.855   1.380   4.868
  547TIP3    H1 1598   3.925   1.412   4.810
  547TIP3    H2 1599   3.782   1.440   4.854
  548TIP3   OH2 1600   4.165   4.106   1.108
  548TIP3    H1 1601   4.212   4.148   1.180
  548TIP3    H2 1602   4.224   4.113   1.034
  549TIP3   OH2 1603   0.896   3.796   0.186
  549TIP3    H1 1604   0.820   3.843   0.152
  549TIP3    H2 1605   0.871   3.772   0.275
  550TIP3   OH2 1606   7.175   5.290   4.445
  550TIP3    H1 1607   7.171   5.202   4.481
  550TIP3    H2 1608   7.198   5.345   4.520
  551TIP3   OH2 1609   4.200   1.764   0.913
  551TIP3    H1 1610   4.221   1.708   0.988
  551TIP3    H2 1611   4.200   1.704   0.838
  552TIP3   OH2 1612   1.128   1.382   1.558
  552TIP3    H1 1613   1.121   1.308   1.619
  552TIP3    H2 1614   1.043   1.426   1.564
  553TIP3   OH2 1615   6.627   3.663   2.296
  553TIP3    H1 1616   6.602   3.725   2.227
  553TIP3    H2 1617   6.717   3.686   2.316
  554TIP3   OH2 1618   0.859   0.490   1.030
  554TIP3    H1 1619   0.856   0.561   0.966
  554TIP3    H2 1620   0.827   0.529   1.111
  555TIP3   OH2 1621   5.257   4.596   3.298
  555TIP3    H1 1622   5.335   4.545   3.318
  555TIP3    H2 1623   5.184   4.543   3.331
  556TIP3   OH2 1624   5.500   3.498   2.551
  556TIP3    H1 1625   5.562   3.568   2.529
  556TIP3    H2 1626   5.553   3.418   2.549
  557TIP3   OH2 1627   2.884   4.518   5.864
  557TIP3    H1 1628   2.880   4.587   5.929
  557TIP3    H2 1629   2.975   4.491   5.862
  558TIP3   OH2 1630   2.712   1.028   3.837
  558TIP3    H1 1631   2.707   0.956   3.775
  558TIP3    H2 1632   2.804   1.057   3.833
  559TIP3   OH2 1633   5.047   0.025   4.514
  559TIP3    H1 1634   4.974  -0.029   4.546
  559TIP3    H2 1635   5.118  -0.037   4.499
  560TIP3   OH2 1636   5.598   7.206   1.824
  560TIP3    H1 1637   5.624   7.234   1.911
  560TIP3    H2 1638   5.557   7.121   1.837
  561TIP3   OH2 1639   2.383   4.491   5.758
  561TIP3    H1 1640   2.320   4.514   5.689
  561TIP3    H2 1641   2.422   4.409   5.729
  562TIP3   OH2 1642   1.206   4.541   2.792
  562TIP3    H1 1643   1.223   4.488   2.869
  562TIP3    H2 1644   1.292   4.555   2.752
  563TIP3   OH2 1645   1.084   3.218   6.571
  563TIP3    H1 1646   1.145   3.223   6.498
  563TIP3    H2 1647   1.011   3.274   6.546
  564TIP3   OH2 1648   4.265   4.778   5.354
  564TIP3    H1 1649   4.340   4.751   5.301
  564TIP3    H2 1650   4.207   4.702   5.354
  565TIP3   OH2 1651   3.762   5.141   1.626
  565TIP3    H1 1652   3.757   5.086   1.547
  565TIP3    H2 1653   3.745   5.229   1.594
  566TIP3   OH2 1654   1.561   6.247   2.095
  566TIP3    H1 1655   1.466   6.251   2.081
  566TIP3    H2 1656   1.595   6.212   2.013
  567TIP3   OH2 1657   3.639   4.231   2.742
  567TIP3    H1 1658   3.555   4.185   2.752
  567TIP3    H2 1659   3.638   4.263   2.652
  568TIP3   OH2 1660   0.554   6.374   5.442
  568TIP3    H1 1661   0.473   6.392   5.489
  568TIP3    H2 1662   0.566   6.280   5.450
  569TIP3   OH2 1663   6.308   0.905   4.573
  569TIP3    H1 1664   6.255   0.826   4.588
  569TIP3    H2 1665   6.389   0.873   4.535
  570TIP3   OH2 1666   2.101   2.067   2.099
  570TIP3    H1 1667   2.059   2.133   2.044
  570TIP3    H2 1668   2.083   1.984   2.056
  571TIP3   OH2 1669   1.750   5.069   5.816
  571TIP3    H1 1670   1.687   5.137   5.838
  571TIP3    H2 1671   1.715   4.989   5.857
  572TIP3   OH2 1672   3.782   4.726   5.176
  572TIP3    H1 1673   3.815   4.693   5.093
  572TIP3    H2 1674   3.822   4.813   5.186
  573TIP3   OH2 1675   6.880   7.778   1.509
  573TIP3    H1 1676   6.790   7.795   1.481
  573TIP3    H2 1677   6.891   7.830   1.589
  574TIP3   OH2 1678   1.075   5.893   1.473
  574TIP3    H1 1679   0.989   5.931   1.458
  574TIP3    H2 1680   1.056   5.802   1.497
  575TIP3   OH2 1681   6.837   0.250   3.733
  575TIP3    H1 1682   6.848   0.294   3.649
  575TIP3    H2 1683   6.780   0.175   3.714
  576TIP3   OH2 1684   2.296   2.512   1.191
  576TIP3    H1 1685   2.381   2.506   1.147
  576TIP3    H2 1686   2.303   2.591   1.244
  577TIP3   OH2 1687   1.439   1.065   3.495
  577TIP3    H1 1688   1.413   1.000   3.430
  577TIP3    H2 1689   1.488   1.015   3.561
  578TIP3   OH2 1690   1.147   5.762   5.282
  578TIP3    H1 1691   1.210   5.725   5.220
  578TIP3    H2 1692   1.168   5.719   5.365
  579TIP3   OH2 1693   3.309   1.410   0.581
  579TIP3    H1 1694   3.351   1.358   0.512
  579TIP3    H2 1695   3.331   1.501   0.559
  580TIP3   OH2 1696   2.205   7.523   5.890
  580TIP3    H1 1697   2.127   7.488   5.931
  580TIP3    H2 1698   2.223   7.463   5.818
  581TIP3   OH2 1699   5.503   7.637   3.985
  581TIP3    H1 1700   5.542   7.723   3.999
  581TIP3    H2 1701   5.541   7.606   3.903
  582TIP3   OH2 1702   7.064   3.439   3.419
  582TIP3    H1 1703   7.107   3.473   3.341
  582TIP3    H2 1704   7.133   3.440   3.486
  583TIP3   OH2 1705   1.617   6.585   0.823
  583TIP3    H1 1706   1.586   6.518   0.763
  583TIP3    H2 1707   1.547   6.651   0.825
  584TIP3   OH2 1708   2.114   7.815   5.895
  584TIP3    H1 1709   2.136   7.725   5.870
  584TIP3    H2 1710   2.024   7.827   5.865
  585TIP3   OH2 1711   1.292   4.699   1.965
  585TIP3    H1 1712   1.224   4.691   2.031
  585TIP3    H2 1713   1.259   4.767   1.906
  586TIP3   OH2 1714   3.835   1.027   3.274
  586TIP3    H1 1715   3.754   1.049   3.320
  586TIP3    H2 1716   3.867   1.111   3.240
  587TIP3   OH2 1717   3.560   1.362   4.832
  587TIP3    H1 1718   3.605   1.360   4.747
  587TIP3    H2 1719   3.510   1.281   4.834
  588TIP3   OH2 1720   0.348   7.699   0.977
  588TIP3    H1 1721   0.341   7.608   0.949
  588TIP3    H2 1722   0.368   7.748   0.897
  589TIP3   OH2 1723   4.949   0.568   2.798
  589TIP3    H1 1724   5.010   0.608   2.736
  589TIP3    H2 1725   4.958   0.474   2.783
  590TIP3   OH2 1726   4.368   0.093   2.894
  590TIP3    H1 1727   4.362   0.167   2.834
  590TIP3    H2 1728   4.434   0.035   2.856
  591TIP3   OH2 1729   1.805   5.945   1.338
  591TIP3    H1 1730   1.772   6.031   1.312
  591TIP3    H2 1731   1.738   5.909   1.396
  592TIP3   OH2 1732   4.145   4.125   4.100
  592TIP3    H1 1733   4.227   4.082   4.125
  592TIP3    H2 1734   4.076   4.068   4.133
  593TIP3   OH2 1735   0.298   6.601   6.674
  593TIP3    H1 1736   0.353   6.647   6.738
  593TIP3    H2 1737   0.229   6.560   6.727
  594TIP3   OH2 1738   4.345   7.133   0.864
  594TIP3    H1 1739   4.301   7.056   0.829
  594TIP3    H2 1740   4.427   7.139   0.815
  595TIP3   OH2 1741   5.018   3.467   6.604
  595TIP3    H1 1742   5.025   3.530   6.676
  595TIP3    H2 1743   5.043   3.517   6.526
  596TIP3   OH2 1744   7.042   7.329   0.525
  596TIP3    H1 1745   7.049   7.237   0.550
  596TIP3    H2 1746   7.004   7.371   0.602
  597TIP3   OH2 1747   8.010   6.368   3.205
  597TIP3    H1 1748   8.103   6.354   3.189
  597TIP3    H2 1749   8.005   6.401   3.294
  598TIP3   OH2 1750   3.295   4.884   2.224
  598TIP3    H1 1751   3.251   4.805   2.255
  598TIP3    H2 1752   3.386   4.858   2.211
  599TIP3   OH2 1753   6.756   7.084   2.643
  599TIP3    H1 1754   6.683   7.040   2.600
  599TIP3    H2 1755   6.720   7.116   2.726
  600TIP3   OH2 1756   7.001   7.550   6.573
  600TIP3    H1 1757   6.959   7.535   6.658
  600TIP3    H2 1758   7.094   7.535   6.589
  601TIP3   OH2 1759   7.071   1.569   5.234
  601TIP3    H1 1760   7.116   1.486   5.248
  601TIP3    H2 1761   6.996   1.566   5.294
  602TIP3   OH2 1762   4.857   5.972   3.246
  602TIP3    H1 1763   4.849   6.039   3.313
  602TIP3    H2 1764   4.767   5.959   3.214
  603TIP3   OH2 1765   2.742   3.022   0.368
  603TIP3    H1 1766   2.826   3.062   0.349
  603TIP3    H2 1767   2.763   2.945   0.421
  604TIP3   OH2 1768   7.609   3.033   3.884
  604TIP3    H1 1769   7.608   2.974   3.959
  604TIP3    H2 1770   7.527   3.083   3.891
  605TIP3   OH2 1771   5.703   5.380   1.207
  605TIP3    H1 1772   5.704   5.473   1.228
  605TIP3    H2 1773   5.697   5.335   1.291
  606TIP3   OH2 1774   5.769   0.831   1.892
  606TIP3    H1 1775   5.864   0.836   1.894
  606TIP3    H2 1776   5.740   0.886   1.965
  607TIP3   OH2 1777   1.423   0.896   0.393
  607TIP3    H1 1778   1.405   0.808   0.359
  607TIP3    H2 1779   1.421   0.952   0.315
  608TIP3   OH2 1780   7.158   5.184   1.275
  608TIP3    H1 1781   7.108   5.195   1.356
  608TIP3    H2 1782   7.238   5.235   1.289
  609TIP3   OH2 1783   0.003   4.228   3.515
  609TIP3    H1 1784  -0.016   4.217   3.421
  609TIP3    H2 1785   0.035   4.317   3.523
  610TIP3   OH2 1786   0.998   0.364   6.355
  610TIP3    H1 1787   0.931   0.331   6.294
  610TIP3    H2 1788   1.076   0.313   6.333
  611TIP3   OH2 1789   2.174   6.198   5.014
  611TIP3    H1 1790   2.223   6.280   5.015
  611TIP3    H2 1791   2.085   6.224   4.990
  612TIP3   OH2 1792   4.741   0.690   1.936
  612TIP3    H1 1793   4.688   0.710   2.013
  612TIP3    H2 1794   4.826   0.664   1.971
  613TIP3   OH2 1795   0.267   4.395   2.377
  613TIP3    H1 1796   0.273   4.318   2.320
  613TIP3    H2 1797   0.315   4.463   2.331
  614TIP3   OH2 1798   3.779   0.208   0.521
  614TIP3    H1 1799   3.769   0.182   0.613
  614TIP3    H2 1800   3.698   0.256   0.502
  615TIP3   OH2 1801   7.032   7.828   3.061
  615TIP3    H1 1802   7.089   7.751   3.066
  615TIP3    H2 1803   6.980   7.825   3.141
  616TIP3   OH2 1804   1.225   7.098   0.607
  616TIP3    H1 1805   1.161   7.166   0.631
  616TIP3    H2 1806   1.190   7.018   0.647
  617TIP3   OH2 1807   7.088   0.483   2.485
  617TIP3    H1 1808   7.096   0.530   2.568
  617TIP3    H2 1809   7.014   0.424   2.498
  618TIP3   OH2 1810   4.479   0.504   6.329
  618TIP3    H1 1811   4.480   0.409   6.327
  618TIP3    H2 1812   4.428   0.526   6.407
  619TIP3   OH2 1813   0.532   5.398   1.603
  619TIP3    H1 1814   0.550   5.461   1.534
  619TIP3    H2 1815   0.481   5.447   1.668
  620TIP3   OH2 1816   2.855   1.847   3.563
  620TIP3    H1 1817   2.775   1.853   3.511
  620TIP3    H2 1818   2.886   1.757   3.551
  621TIP3   OH2 1819   3.620   5.285   0.726
  621TIP3    H1 1820   3.632   5.264   0.634
  621TIP3    H2 1821   3.665   5.368   0.739
  622TIP3   OH2 1822   1.208   6.609   4.986
  622TIP3    H1 1823   1.207   6.635   4.894
  622TIP3    H2 1824   1.129   6.555   4.997
  623TIP3   OH2 1825   7.266   3.640   5.351
  623TIP3    H1 1826   7.178   3.669   5.327
  623TIP3    H2 1827   7.278   3.558   5.304
  624TIP3   OH2 1828   4.086   5.270   2.115
  624TIP3    H1 1829   4.103   5.361   2.092
  624TIP3    H2 1830   4.101   5.266   2.210
  625TIP3   OH2 1831   4.382   7.792   4.388
  625TIP3    H1 1832   4.417   7.872   4.349
  625TIP3    H2 1833   4.287   7.805   4.388
  626TIP3   OH2 1834   2.247   1.705   4.059
  626TIP3    H1 1835   2.233   1.784   4.111
  626TIP3    H2 1836   2.281   1.641   4.121
  627TIP3   OH2 1837   0.202   4.241   1.140
  627TIP3    H1 1838   0.248   4.289   1.209
  627TIP3    H2 1839   0.174   4.309   1.078
  628TIP3   OH2 1840   0.835   0.958   0.833
  628TIP3    H1 1841   0.922   0.940   0.870
  628TIP3    H2 1842   0.854   0.995   0.747
  629TIP3   OH2 1843   4.719   0.310   3.188
  629TIP3    H1 1844   4.627   0.332   3.199
  629TIP3    H2 1845   4.739   0.250   3.259
  630TIP3   OH2 1846   7.050   4.136   5.949
  630TIP3    H1 1847   7.090   4.221   5.932
  630TIP3    H2 1848   7.049   4.092   5.864
  631TIP3   OH2 1849   1.773   4.371   1.250
  631TIP3    H1 1850   1.755   4.446   1.306
  631TIP3    H2 1851   1.753   4.403   1.161
  632TIP3   OH2 1852   5.116   3.692   4.834
  632TIP3    H1 1853   5.195   3.675   4.783
  632TIP3    H2 1854   5.057   3.739   4.774
  633TIP3   OH2 1855   0.290   6.378   5.555
  633TIP3    H1 1856   0.198   6.363   5.580
  633TIP3    H2 1857   0.328   6.425   5.629
  634TIP3   OH2 1858   4.699   3.408   5.753
  634TIP3    H1 1859   4.630   3.441   5.696
  634TIP3    H2 1860   4.781   3.436   5.712
  635TIP3   OH2 1861   3.064   0.794   5.719
  635TIP3    H1 1862   2.981   0.838   5.741
  635TIP3    H2 1863   3.038   0.705   5.696
  636TIP3   OH2 1864   5.061   5.599   0.638
  636TIP3    H1 1865   5.154   5.583   0.654
  636TIP3    H2 1866   5.059   5.674   0.579
  637TIP3   OH2 1867   0.315   7.309   1.325
  637TIP3    H1 1868   0.330   7.358   1.406
  637TIP3    H2 1869   0.269   7.370   1.268
  638TIP3   OH2 1870   2.870   6.379   2.829
  638TIP3    H1 1871   2.887   6.387   2.923
  638TIP3    H2 1872   2.775   6.393   2.820
  639TIP3   OH2 1873   3.377   6.974   2.863
  639TIP3    H1 1874   3.358   7.062   2.828
  639TIP3    H2 1875   3.332   6.971   2.947
  640TIP3   OH2 1876   1.916   2.696   1.472
  640TIP3    H1 1877   1.896   2.622   1.414
  640TIP3    H2 1878   1.958   2.760   1.416
  641TIP3   OH2 1879   5.856   7.244   0.869
  641TIP3    H1 1880   5.803   7.168   0.893
  641TIP3    H2 1881   5.817   7.276   0.788
  642TIP3   OH2 1882   7.432   3.977   5.163
  642TIP3    H1 1883   7.489   3.934   5.100
  642TIP3    H2 1884   7.356   3.919   5.171
  643TIP3   OH2 1885   0.447   4.363   0.413
  643TIP3    H1 1886   0.531   4.316   0.407
  643TIP3    H2 1887   0.416   4.344   0.502
  644TIP3   OH2 1888   0.021   6.859   0.246
  644TIP3    H1 1889  -0.059   6.838   0.295
  644TIP3    H2 1890   0.019   6.799   0.171
  645TIP3   OH2 1891   2.246   0.620   1.571
  645TIP3    H1 1892   2.242   0.547   1.633
  645TIP3    H2 1893   2.310   0.680   1.609
  646TIP3   OH2 1894   7.479   1.809   2.928
  646TIP3    H1 1895   7.384   1.812   2.940
  646TIP3    H2 1896   7.492   1.819   2.834
  647TIP3   OH2 1897   4.197   6.424   0.762
  647TIP3    H1 1898   4.240   6.448   0.844
  647TIP3    H2 1899   4.263   6.374   0.713
  648TIP3   OH2 1900   5.316   2.170   0.135
  648TIP3    H1 1901   5.290   2.262   0.121
  648TIP3    H2 1902   5.407   2.176   0.164
  649TIP3   OH2 1903   2.927   5.621   3.095
  649TIP3    H1 1904   2.985   5.642   3.021
  649TIP3    H2 1905   2.941   5.691   3.158
  650TIP3   OH2 1906   0.574   1.096   1.266
  650TIP3    H1 1907   0.577   1.159   1.337
  650TIP3    H2 1908   0.628   1.023   1.296
  651TIP3   OH2 1909   6.740   5.188   3.013
  651TIP3    H1 1910   6.794   5.226   3.083
  651TIP3    H2 1911   6.710   5.263   2.962
  652TIP3   OH2 1912   5.156   3.480   5.332
  652TIP3    H1 1913   5.099   3.553   5.356
  652TIP3    H2 1914   5.141   3.467   5.238
  653TIP3   OH2 1915   3.552   4.403   3.152
  653TIP3    H1 1916   3.468   4.378   3.190
  653TIP3    H2 1917   3.587   4.321   3.115
  654TIP3   OH2 1918   2.936   7.091   5.599
  654TIP3    H1 1919   2.900   7.140   5.525
  654TIP3    H2 1920   3.010   7.143   5.629
  655TIP3   OH2 1921   6.336   2.222   2.237
  655TIP3    H1 1922   6.280   2.198   2.311
  655TIP3    H2 1923   6.302   2.306   2.207
  656TIP3   OH2 1924   4.911   1.119   6.689
  656TIP3    H1 1925   4.982   1.119   6.753
  656TIP3    H2 1926   4.885   1.211   6.682
  657TIP3   OH2 1927   2.768   5.657   5.746
  657TIP3    H1 1928   2.811   5.610   5.675
  657TIP3    H2 1929   2.803   5.746   5.740
  658TIP3   OH2 1930   4.115   3.111   2.410
  658TIP3    H1 1931   4.104   3.177   2.342
  658TIP3    H2 1932   4.027   3.074   2.423
  659TIP3   OH2 1933   4.868   3.273   4.323
  659TIP3    H1 1934   4.826   3.354   4.353
  659TIP3    H2 1935   4.962   3.291   4.328
  660TIP3   OH2 1936   5.035   7.727   3.865
  660TIP3    H1 1937   5.114   7.686   3.830
  660TIP3    H2 1938   4.974   7.726   3.791
  661TIP3   OH2 1939   1.175   5.798   0.800
  661TIP3    H1 1940   1.104   5.786   0.738
  661TIP3    H2 1941   1.244   5.843   0.751
  662TIP3   OH2 1942   2.088   0.670   0.529
  662TIP3    H1 1943   2.030   0.737   0.565
  662TIP3    H2 1944   2.134   0.714   0.458
  663TIP3   OH2 1945   7.737   7.003   6.161
  663TIP3    H1 1946   7.695   6.932   6.210
  663TIP3    H2 1947   7.780   7.057   6.227
  664TIP3   OH2 1948   2.564   2.364   3.899
  664TIP3    H1 1949   2.658   2.368   3.883
  664TIP3    H2 1950   2.543   2.271   3.895
  665TIP3   OH2 1951   3.521   2.428   2.383
  665TIP3    H1 1952   3.575   2.477   2.321
  665TIP3    H2 1953   3.537   2.336   2.361
  666TIP3   OH2 1954   7.640   0.345   4.454
  666TIP3    H1 1955   7.630   0.436   4.425
  666TIP3    H2 1956   7.662   0.352   4.547
  667TIP3   OH2 1957   7.909   3.860   5.420
  667TIP3    H1 1958   7.957   3.908   5.352
  667TIP3    H2 1959   7.945   3.772   5.417
  668TIP3   OH2 1960   2.662   3.540   2.046
  668TIP3    H1 1961   2.606   3.590   2.106
  668TIP3    H2 1962   2.669   3.594   1.968
  669TIP3   OH2 1963   7.735   4.379   2.833
  669TIP3    H1 1964   7.663   4.394   2.772
  669TIP3    H2 1965   7.757   4.466   2.866
  670TIP3   OH2 1966   4.916   3.515   5.122
  670TIP3    H1 1967   4.840   3.456   5.131
  670TIP3    H2 1968   4.880   3.594   5.083
  671TIP3   OH2 1969   5.277   7.034   1.621
  671TIP3    H1 1970   5.245   7.115   1.582
  671TIP3    H2 1971   5.351   7.008   1.566
  672TIP3   OH2 1972   6.015   3.210   2.283
  672TIP3    H1 1973   5.963   3.133   2.263
  672TIP3    H2 1974   5.966   3.256   2.352
  673TIP3   OH2 1975   1.047   4.625   0.490
  673TIP3    H1 1976   1.054   4.573   0.571
  673TIP3    H2 1977   1.091   4.707   0.511
  674TIP3   OH2 1978   2.335   2.545   5.296
  674TIP3    H1 1979   2.283   2.467   5.316
  674TIP3    H2 1980   2.340   2.593   5.378
  675TIP3   OH2 1981   5.457   0.842   3.282
  675TIP3    H1 1982   5.545   0.878   3.272
  675TIP3    H2 1983   5.402   0.901   3.230
  676TIP3   OH2 1984   5.679   3.664   5.511
  676TIP3    H1 1985   5.616   3.640   5.443
  676TIP3    H2 1986   5.643   3.742   5.551
  677TIP3   OH2 1987   5.572   1.201   1.123
  677TIP3    H1 1988   5.666   1.185   1.127
  677TIP3    H2 1989   5.542   1.186   1.213
  678TIP3   OH2 1990   2.715   6.579   4.936
  678TIP3    H1 1991   2.715   6.669   4.903
  678TIP3    H2 1992   2.629   6.569   4.976
  679TIP3   OH2 1993   2.706   4.790   5.251
  679TIP3    H1 1994   2.646   4.810   5.179
  679TIP3    H2 1995   2.650   4.781   5.328
  680TIP3   OH2 1996   0.132   3.700   5.479
  680TIP3    H1 1997   0.217   3.745   5.473
  680TIP3    H2 1998   0.120   3.661   5.392
  681TIP3   OH2 1999   7.138   6.712   6.636
  681TIP3    H1 2000   7.048   6.737   6.617
  681TIP3    H2 2001   7.174   6.787   6.684
  682TIP3   OH2 2002   5.760   1.804   2.488
  682TIP3    H1 2003   5.777   1.886   2.443
  682TIP3    H2 2004   5.664   1.796   2.488
  683TIP3   OH2 2005   6.324   0.440   3.574
  683TIP3    H1 2006   6.366   0.415   3.656
  683TIP3    H2 2007   6.290   0.528   3.590
  684TIP3   OH2 2008   3.870   2.159   2.800
  684TIP3    H1 2009   3.921   2.085   2.834
  684TIP3    H2 2010   3.800   2.119   2.749
  685TIP3   OH2 2011   5.587   2.665   5.733
  685TIP3    H1 2012   5.604   2.732   5.667
  685TIP3    H2 2013   5.544   2.594   5.684
  686TIP3   OH2 2014   3.909   4.973   5.170
  686TIP3    H1 2015   3.894   5.066   5.154
  686TIP3    H2 2016   3.943   4.969   5.259
  687TIP3   OH2 2017   0.198   1.938   5.756
  687TIP3    H1 2018   0.232   1.936   5.666
  687TIP3    H2 2019   0.140   2.015   5.758
  688TIP3   OH2 2020   7.690   1.708   0.348
  688TIP3    H1 2021   7.743   1.750   0.280
  688TIP3    H2 2022   7.667   1.780   0.408
  689TIP3   OH2 2023   6.297   5.029   2.927
  689TIP3    H1 2024   6.363   4.961   2.926
  689TIP3    H2 2025   6.230   4.999   2.864
  690TIP3   OH2 2026   5.535   5.132   3.629
  690TIP3    H1 2027   5.464   5.194   3.614
  690TIP3    H2 2028   5.499   5.068   3.690
  691TIP3   OH2 2029   1.039   2.187   6.382
  691TIP3    H1 2030   1.105   2.118   6.381
  691TIP3    H2 2031   1.070   2.249   6.448
  692TIP3   OH2 2032   2.319   4.296   1.398
  692TIP3    H1 2033   2.376   4.325   1.328
  692TIP3    H2 2034   2.232   4.293   1.359
  693TIP3   OH2 2035   5.812   1.629   1.383
  693TIP3    H1 2036   5.726   1.602   1.416
  693TIP3    H2 2037   5.794   1.660   1.294
  694TIP3   OH2 2038   1.449   7.149   2.995
  694TIP3    H1 2039   1.431   7.124   3.086
  694TIP3    H2 2040   1.533   7.107   2.975
  695TIP3   OH2 2041   3.675   2.034   3.034
  695TIP3    H1 2042   3.605   2.014   3.096
  695TIP3    H2 2043   3.755   2.009   3.080
  696TIP3   OH2 2044   0.650   5.125   4.512
  696TIP3    H1 2045   0.631   5.120   4.606
  696TIP3    H2 2046   0.597   5.199   4.481
  697TIP3   OH2 2047   6.294   7.484   3.784
  697TIP3    H1 2048   6.250   7.526   3.858
  697TIP3    H2 2049   6.353   7.551   3.749
  698TIP3   OH2 2050   4.347   1.664   4.719
  698TIP3    H1 2051   4.439   1.693   4.717
  698TIP3    H2 2052   4.308   1.707   4.643
  699TIP3   OH2 2053   6.467   6.706   3.679
  699TIP3    H1 2054   6.523   6.781   3.700
  699TIP3    H2 2055   6.514   6.660   3.609
  700TIP3   OH2 2056   4.796   0.194   1.489
  700TIP3    H1 2057   4.884   0.164   1.510
  700TIP3    H2 2058   4.770   0.142   1.413
  701TIP3   OH2 2059   3.117   4.339   1.908
  701TIP3    H1 2060   3.096   4.247   1.925
  701TIP3    H2 2061   3.209   4.338   1.882
  702TIP3   OH2 2062   5.967   4.306   5.947
  702TIP3    H1 2063   5.949   4.393   5.912
  702TIP3    H2 2064   5.990   4.253   5.871
  703TIP3   OH2 2065   6.697   6.977   5.210
  703TIP3    H1 2066   6.656   7.013   5.289
  703TIP3    H2 2067   6.727   7.054   5.162
  704TIP3   OH2 2068   7.948   5.637   5.725
  704TIP3    H1 2069   7.985   5.579   5.658
  704TIP3    H2 2070   7.925   5.578   5.797
  705TIP3   OH2 2071   5.081   2.406   6.394
  705TIP3    H1 2072   5.006   2.426   6.450
  705TIP3    H2 2073   5.101   2.488   6.350
  706TIP3   OH2 2074   5.084   1.921   5.440
  706TIP3    H1 2075   4.999   1.882   5.421
  706TIP3    H2 2076   5.065   2.001   5.488
  707TIP3   OH2 2077   6.493   0.446   0.364
  707TIP3    H1 2078   6.518   0.372   0.308
  707TIP3    H2 2079   6.397   0.440   0.369
  708TIP3   OH2 2080   7.361   4.082   5.985
  708TIP3    H1 2081   7.418   4.052   6.056
  708TIP3    H2 2082   7.398   4.165   5.957
  709TIP3   OH2 2083   1.953   3.214   4.074
  709TIP3    H1 2084   2.046   3.211   4.097
  709TIP3    H2 2085   1.912   3.266   4.143
  710TIP3   OH2 2086   7.832  -0.018   6.543
  710TIP3    H1 2087   7.876   0.060   6.575
  710TIP3    H2 2088   7.828  -0.006   6.448
  711TIP3   OH2 2089   7.512   1.715   6.324
  711TIP3    H1 2090   7.450   1.787   6.338
  711TIP3    H2 2091   7.473   1.640   6.368
  712TIP3   OH2 2092   6.285   4.628   4.444
  712TIP3    H1 2093   6.286   4.592   4.533
  712TIP3    H2 2094   6.348   4.575   4.395
  713TIP3   OH2 2095   0.399   2.197   2.225
  713TIP3    H1 2096   0.388   2.291   2.238
  713TIP3    H2 2097   0.492   2.187   2.203
  714TIP3   OH2 2098   4.826   6.512   6.479
  714TIP3    H1 2099   4.888   6.514   6.407
  714TIP3    H2 2100   4.758   6.451   6.451
  715TIP3   OH2 2101   7.636   6.813   3.291
  715TIP3    H1 2102   7.680   6.764   3.361
  715TIP3    H2 2103   7.583   6.878   3.336
  716TIP3   OH2 2104   7.426   6.224   1.280
  716TIP3    H1 2105   7.384   6.163   1.341
  716TIP3    H2 2106   7.431   6.306   1.329
  717TIP3   OH2 2107   1.501   0.066   1.903
  717TIP3    H1 2108   1.533   0.089   1.816
  717TIP3    H2 2109   1.440   0.135   1.926
  718TIP3   OH2 2110   5.451   4.172   3.455
  718TIP3    H1 2111   5.494   4.252   3.424
  718TIP3    H2 2112   5.398   4.144   3.381
  719TIP3   OH2 2113   7.067   5.354   1.910
  719TIP3    H1 2114   7.014   5.422   1.868
  719TIP3    H2 2115   7.151   5.397   1.929
  720TIP3   OH2 2116   7.620   6.868   0.890
  720TIP3    H1 2117   7.602   6.791   0.837
  720TIP3    H2 2118   7.538   6.887   0.935
  721TIP3   OH2 2119   4.639   2.358   1.513
  721TIP3    H1 2120   4.647   2.454   1.509
  721TIP3    H2 2121   4.571   2.342   1.578
  722TIP3   OH2 2122   7.400   4.809   5.157
  722TIP3    H1 2123   7.460   4.841   5.224
  722TIP3    H2 2124   7.457   4.784   5.084
  723TIP3   OH2 2125   1.664   1.942   6.039
  723TIP3    H1 2126   1.617   2.024   6.045
  723TIP3    H2 2127   1.609   1.886   5.983
  724TIP3   OH2 2128   1.699   3.507   0.497
  724TIP3    H1 2129   1.780   3.465   0.467
  724TIP3    H2 2130   1.664   3.447   0.563
  725TIP3   OH2 2131   3.254   3.622   2.821
  725TIP3    H1 2132   3.345   3.603   2.842
  725TIP3    H2 2133   3.232   3.560   2.752
  726TIP3   OH2 2134   3.950   4.958   2.945
  726TIP3    H1 2135   3.948   4.964   3.041
  726TIP3    H2 2136   4.038   4.986   2.921
  727TIP3   OH2 2137   2.216   5.070   5.818
  727TIP3    H1 2138   2.266   5.062   5.737
  727TIP3    H2 2139   2.149   5.002   5.812
  728TIP3   OH2 2140   2.220   2.683   2.110
  728TIP3    H1 2141   2.209   2.650   2.021
  728TIP3    H2 2142   2.293   2.632   2.146
  729TIP3   OH2 2143   7.196   1.341   6.532
  729TIP3    H1 2144   7.221   1.251   6.508
  729TIP3    H2 2145   7.105   1.334   6.561
  730TIP3   OH2 2146   8.042   3.452   5.231
  730TIP3    H1 2147   8.092   3.463   5.313
  730TIP3    H2 2148   8.106   3.419   5.168
  731TIP3   OH2 2149   7.748   0.537   2.613
  731TIP3    H1 2150   7.664   0.531   2.566
  731TIP3    H2 2151   7.813   0.506   2.549
  732TIP3   OH2 2152   7.904   2.378   5.872
  732TIP3    H1 2153   7.981   2.431   5.854
  732TIP3    H2 2154   7.832   2.442   5.879
  733TIP3   OH2 2155   5.701   7.677   3.402
  733TIP3    H1 2156   5.615   7.718   3.395
  733TIP3    H2 2157   5.695   7.620   3.479
  734TIP3   OH2 2158   3.016   7.679   1.920
  734TIP3    H1 2159   3.037   7.751   1.980
  734TIP3    H2 2160   3.076   7.691   1.846
  735TIP3   OH2 2161   4.333   7.213   3.359
  735TIP3    H1 2162   4.353   7.262   3.279
  735TIP3    H2 2163   4.261   7.154   3.334
  736TIP3   OH2 2164   0.954   6.994   3.502
  736TIP3    H1 2165   0.993   6.953   3.425
  736TIP3    H2 2166   0.968   6.930   3.572
  737TIP3   OH2 2167   6.122   7.418   2.756
  737TIP3    H1 2168   6.081   7.360   2.821
  737TIP3    H2 2169   6.181   7.360   2.707
  738TIP3   OH2 2170   0.763   4.879   3.042
  738TIP3    H1 2171   0.814   4.913   3.115
  738TIP3    H2 2172   0.811   4.906   2.964
  739TIP3   OH2 2173   4.273   5.767   1.982
  739TIP3    H1 2174   4.280   5.795   2.073
  739TIP3    H2 2175   4.307   5.840   1.931
  740TIP3   OH2 2176   6.210   6.104   1.215
  740TIP3    H1 2177   6.173   6.032   1.266
  740TIP3    H2 2178   6.142   6.171   1.215
  741TIP3   OH2 2179   3.662   3.248   1.792
  741TIP3    H1 2180   3.699   3.206   1.714
  741TIP3    H2 2181   3.580   3.201   1.808
  742TIP3   OH2 2182   3.125   4.902   6.621
  742TIP3    H1 2183   3.041   4.946   6.607
  742TIP3    H2 2184   3.106   4.809   6.609
  743TIP3   OH2 2185   7.499   4.133   1.911
  743TIP3    H1 2186   7.550   4.055   1.890
  743TIP3    H2 2187   7.468   4.165   1.826
  744TIP3   OH2 2188   0.942   2.069   1.609
  744TIP3    H1 2189   0.901   2.126   1.543
  744TIP3    H2 2190   1.008   2.125   1.651
  745TIP3   OH2 2191   1.892   3.562   2.243
  745TIP3    H1 2192   1.927   3.646   2.271
  745TIP3    H2 2193   1.904   3.561   2.148
  746TIP3   OH2 2194   7.496   4.948   2.550
  746TIP3    H1 2195   7.469   4.869   2.596
  746TIP3    H2 2196   7.587   4.961   2.575
  747TIP3   OH2 2197   3.011   5.319   4.320
  747TIP3    H1 2198   3.018   5.362   4.235
  747TIP3    H2 2199   2.963   5.381   4.375
  748TIP3   OH2 2200   2.234   4.293   0.000
  748TIP3    H1 2201   2.295   4.314   0.071
  748TIP3    H2 2202   2.151   4.276   0.044
  749TIP3   OH2 2203   2.990   5.904   4.459
  749TIP3    H1 2204   3.012   5.993   4.432
  749TIP3    H2 2205   3.050   5.884   4.531
  750TIP3   OH2 2206   0.507   4.187   0.178
  750TIP3    H1 2207   0.435   4.241   0.147
  750TIP3    H2 2208   0.584   4.244   0.177
  751TIP3   OH2 2209   4.451   1.070   0.385
  751TIP3    H1 2210   4.390   1.001   0.412
  751TIP3    H2 2211   4.405   1.118   0.316
  752TIP3   OH2 2212   5.681   6.522   3.059
  752TIP3    H1 2213   5.721   6.605   3.086
  752TIP3    H2 2214   5.646   6.485   3.140
  753TIP3   OH2 2215   4.977   5.311   6.351
  753TIP3    H1 2216   5.007   5.250   6.418
  753TIP3    H2 2217   5.020   5.394   6.372
  754TIP3   OH2 2218   2.978   5.798   3.381
  754TIP3    H1 2219   3.031   5.859   3.431
  754TIP3    H2 2220   2.924   5.854   3.325
  755TIP3   OH2 2221   5.654   4.847   2.272
  755TIP3    H1 2222   5.595   4.839   2.198
  755TIP3    H2 2223   5.742   4.836   2.234
  756TIP3   OH2 2224   6.479   2.259   5.254
  756TIP3    H1 2225   6.458   2.170   5.279
  756TIP3    H2 2226   6.395   2.298   5.229
  757TIP3   OH2 2227   3.685   6.912   4.438
  757TIP3    H1 2228   3.628   6.863   4.379
  757TIP3    H2 2229   3.652   6.892   4.526
  758TIP3   OH2 2230   5.461   4.727   1.669
  758TIP3    H1 2231   5.519   4.727   1.593
  758TIP3    H2 2232   5.450   4.819   1.691
  759TIP3   OH2 2233   0.277   0.378   5.045
  759TIP3    H1 2234   0.366   0.375   5.082
  759TIP3    H2 2235   0.266   0.469   5.016
  760TIP3   OH2 2236   2.895   5.897   1.808
  760TIP3    H1 2237   2.873   5.990   1.810
  760TIP3    H2 2238   2.825   5.857   1.756
  761TIP3   OH2 2239   4.088   7.037   2.688
  761TIP3    H1 2240   4.137   7.057   2.608
  761TIP3    H2 2241   4.014   7.097   2.687
  762TIP3   OH2 2242   6.682   0.491   1.436
  762TIP3    H1 2243   6.592   0.473   1.463
  762TIP3    H2 2244   6.698   0.431   1.363
  763TIP3   OH2 2245   1.934   7.109   5.522
  763TIP3    H1 2246   1.925   7.040   5.457
  763TIP3    H2 2247   2.029   7.119   5.534
  764TIP3   OH2 2248   1.495   1.253   3.264
  764TIP3    H1 2249   1.590   1.243   3.273
  764TIP3    H2 2250   1.459   1.176   3.309
  765TIP3   OH2 2251   2.215   0.685   3.063
  765TIP3    H1 2252   2.129   0.687   3.105
  765TIP3    H2 2253   2.211   0.755   2.997
  766TIP3   OH2 2254   2.474   1.580   4.928
  766TIP3    H1 2255   2.514   1.593   4.842
  766TIP3    H2 2256   2.388   1.542   4.909
  767TIP3   OH2 2257   1.665   3.463   5.300
  767TIP3    H1 2258   1.631   3.386   5.254
  767TIP3    H2 2259   1.591   3.494   5.353
  768TIP3   OH2 2260   7.461   2.135   0.732
  768TIP3    H1 2261   7.552   2.161   0.720
  768TIP3    H2 2262   7.464   2.040   0.743
  769TIP3   OH2 2263   3.701   3.537   1.019
  769TIP3    H1 2264   3.639   3.489   0.964
  769TIP3    H2 2265   3.763   3.576   0.958
  770TIP3   OH2 2266   7.039   2.154   6.550
  770TIP3    H1 2267   6.967   2.209   6.517
  770TIP3    H2 2268   7.094   2.139   6.473
  771TIP3   OH2 2269   3.657   0.643   4.183
  771TIP3    H1 2270   3.723   0.707   4.210
  771TIP3    H2 2271   3.708   0.570   4.147
  772TIP3   OH2 2272   1.748   3.915   1.103
  772TIP3    H1 2273   1.691   3.951   1.035
  772TIP3    H2 2274   1.723   3.961   1.183
  773TIP3   OH2 2275   3.551   1.586   5.710
  773TIP3    H1 2276   3.520   1.675   5.727
  773TIP3    H2 2277   3.489   1.550   5.646
  774TIP3   OH2 2278   7.862   6.747   2.720
  774TIP3    H1 2279   7.929   6.707   2.665
  774TIP3    H2 2280   7.779   6.722   2.680
  775TIP3   OH2 2281   3.078   7.408   2.039
  775TIP3    H1 2282   2.988   7.378   2.049
  775TIP3    H2 2283   3.071   7.488   1.987
  776TIP3   OH2 2284   3.510   7.433   4.272
  776TIP3    H1 2285   3.559   7.362   4.313
  776TIP3    H2 2286   3.465   7.477   4.344
  777TIP3   OH2 2287   6.231   3.034   6.088
  777TIP3    H1 2288   6.253   3.097   6.156
  777TIP3    H2 2289   6.165   2.977   6.128
  778TIP3   OH2 2290   1.441   4.802   1.165
  778TIP3    H1 2291   1.475   4.874   1.112
  778TIP3    H2 2292   1.423   4.841   1.251
  779TIP3   OH2 2293   6.092   2.087   0.772
  779TIP3    H1 2294   6.168   2.144   0.758
  779TIP3    H2 2295   6.042   2.131   0.841
  780TIP3   OH2 2296   5.828   6.926   4.241
  780TIP3    H1 2297   5.835   6.855   4.304
  780TIP3    H2 2298   5.738   6.919   4.208
  781TIP3   OH2 2299   5.443   0.236   0.366
  781TIP3    H1 2300   5.497   0.313   0.383
  781TIP3    H2 2301   5.410   0.210   0.452
  782TIP3   OH2 2302   2.534   5.406   1.478
  782TIP3    H1 2303   2.555   5.342   1.546
  782TIP3    H2 2304   2.603   5.472   1.485
  783TIP3   OH2 2305   2.437   3.782   3.693
  783TIP3    H1 2306   2.401   3.869   3.675
  783TIP3    H2 2307   2.437   3.738   3.608
  784TIP3   OH2 2308   8.039   7.446   2.074
  784TIP3    H1 2309   8.105   7.397   2.122
  784TIP3    H2 2310   8.057   7.427   1.982
  785TIP3   OH2 2311   1.754   5.666   4.540
  785TIP3    H1 2312   1.766   5.607   4.614
  785TIP3    H2 2313   1.674   5.715   4.560
  786TIP3   OH2 2314   4.243   0.680   1.917
  786TIP3    H1 2315   4.330   0.721   1.918
  786TIP3    H2 2316   4.256   0.594   1.955
  787TIP3   OH2 2317   7.431   3.778   3.861
  787TIP3    H1 2318   7.385   3.841   3.915
  787TIP3    H2 2319   7.421   3.811   3.771
  788TIP3   OH2 2320   4.037   3.280   6.731
  788TIP3    H1 2321   4.099   3.330   6.783
  788TIP3    H2 2322   4.019   3.336   6.655
  789TIP3   OH2 2323   6.814   4.080   3.278
  789TIP3    H1 2324   6.734   4.099   3.327
  789TIP3    H2 2325   6.787   4.079   3.187
  790TIP3   OH2 2326   2.401   0.137   4.126
  790TIP3    H1 2327   2.478   0.157   4.072
  790TIP3    H2 2328   2.379   0.219   4.168
  791TIP3   OH2 2329   6.907   4.515   6.207
  791TIP3    H1 2330   6.904   4.419   6.211
  791TIP3    H2 2331   6.900   4.535   6.114
  792TIP3   OH2 2332   8.143   7.126   3.307
  792TIP3    H1 2333   8.181   7.185   3.242
  792TIP3    H2 2334   8.200   7.136   3.384
  793TIP3   OH2 2335   3.551   1.205   1.713
  793TIP3    H1 2336   3.543   1.110   1.712
  793TIP3    H2 2337   3.579   1.228   1.625
  794TIP3   OH2 2338   6.809   1.639   4.480
  794TIP3    H1 2339   6.755   1.658   4.403
  794TIP3    H2 2340   6.877   1.580   4.447
  795TIP3   OH2 2341   5.466   0.295   6.477
  795TIP3    H1 2342   5.468   0.340   6.392
  795TIP3    H2 2343   5.393   0.235   6.470
  796TIP3   OH2 2344   5.056   6.468   0.174
  796TIP3    H1 2345   5.027   6.549   0.132
  796TIP3    H2 2346   5.020   6.473   0.263
  797TIP3   OH2 2347   5.072   6.482   5.711
  797TIP3    H1 2348   5.060   6.517   5.622
  797TIP3    H2 2349   4.986   6.492   5.752
  798TIP3   OH2 2350   5.865   0.511   4.881
  798TIP3    H1 2351   5.937   0.574   4.874
  798TIP3    H2 2352   5.836   0.497   4.791
  799TIP3   OH2 2353   5.975   5.733   0.635
  799TIP3    H1 2354   6.042   5.796   0.611
  799TIP3    H2 2355   6.016   5.648   0.621
  800TIP3   OH2 2356   3.569   6.866   0.796
  800TIP3    H1 2357   3.560   6.784   0.747
  800TIP3    H2 2358   3.495   6.919   0.769
  801TIP3   OH2 2359   6.353   4.198   4.435
  801TIP3    H1 2360   6.394   4.281   4.457
  801TIP3    H2 2361   6.419   4.132   4.454
  802TIP3   OH2 2362   7.099   6.113   6.161
  802TIP3    H1 2363   7.146   6.059   6.224
  802TIP3    H2 2364   7.147   6.196   6.160
  803TIP3   OH2 2365   1.970   2.473   6.582
  803TIP3    H1 2366   2.045   2.523   6.548
  803TIP3    H2 2367   1.919   2.537   6.632
  804TIP3   OH2 2368   0.810   2.867   6.218
  804TIP3    H1 2369   0.777   2.823   6.296
  804TIP3    H2 2370   0.734   2.909   6.179
  805TIP3   OH2 2371   4.097   7.617   3.296
  805TIP3    H1 2372   4.189   7.614   3.322
  805TIP3    H2 2373   4.076   7.528   3.270
  806TIP3   OH2 2374   3.765   1.822   0.221
  806TIP3    H1 2375   3.735   1.795   0.135
  806TIP3    H2 2376   3.685   1.849   0.267
  807TIP3   OH2 2377   0.931   3.384   5.925
  807TIP3    H1 2378   0.976   3.414   6.005
  807TIP3    H2 2379   0.872   3.457   5.904
  808TIP3   OH2 2380   6.253   4.289   5.005
  808TIP3    H1 2381   6.307   4.272   4.927
  808TIP3    H2 2382   6.262   4.210   5.058
  809TIP3   OH2 2383   0.774   6.458   3.849
  809TIP3    H1 2384   0.698   6.475   3.905
  809TIP3    H2 2385   0.738   6.447   3.762
  810TIP3   OH2 2386   2.696   0.124   0.169
  810TIP3    H1 2387   2.725   0.045   0.124
  810TIP3    H2 2388   2.604   0.108   0.191
  811TIP3   OH2 2389   2.849   7.386   1.523
  811TIP3    H1 2390   2.778   7.411   1.463
  811TIP3    H2 2391   2.814   7.405   1.610
  812TIP3   OH2 2392   3.147   1.232   4.572
  812TIP3    H1 2393   3.134   1.320   4.606
  812TIP3    H2 2394   3.229   1.238   4.523
  813TIP3   OH2 2395   4.966   7.564   0.438
  813TIP3    H1 2396   5.037   7.543   0.378
  813TIP3    H2 2397   4.986   7.514   0.517
  814TIP3   OH2 2398   5.125   3.096   0.588
  814TIP3    H1 2399   5.090   3.031   0.648
  814TIP3    H2 2400   5.122   3.179   0.636
  815TIP3   OH2 2401   3.182   0.187   1.655
  815TIP3    H1 2402   3.275   0.195   1.636
  815TIP3    H2 2403   3.139   0.211   1.573
  816TIP3   OH2 2404   3.578   6.658   4.996
  816TIP3    H1 2405   3.497   6.612   5.017
  816TIP3    H2 2406   3.641   6.626   5.059
  817TIP3   OH2 2407   4.244   6.588   6.779
  817TIP3    H1 2408   4.171   6.591   6.841
  817TIP3    H2 2409   4.315   6.635   6.822
  818TIP3   OH2 2410   4.944   4.431   2.343
  818TIP3    H1 2411   4.970   4.523   2.353
  818TIP3    H2 2412   4.898   4.428   2.259
  819TIP3   OH2 2413   3.909   6.411   3.766
  819TIP3    H1 2414   3.824   6.367   3.764
  819TIP3    H2 2415   3.945   6.399   3.678
  820TIP3   OH2 2416   6.159   6.434   0.332
  820TIP3    H1 2417   6.144   6.488   0.255
  820TIP3    H2 2418   6.103   6.357   0.319
  821TIP3   OH2 2419   5.091   4.691   4.619
  821TIP3    H1 2420   4.999   4.716   4.630
  821TIP3    H2 2421   5.131   4.707   4.705
  822TIP3   OH2 2422   1.045   2.107   6.061
  822TIP3    H1 2423   0.966   2.083   6.109
  822TIP3    H2 2424   1.076   2.187   6.104
  823TIP3   OH2 2425   7.407   1.249   3.382
  823TIP3    H1 2426   7.474   1.225   3.447
  823TIP3    H2 2427   7.334   1.281   3.435
  824TIP3   OH2 2428   2.666   3.805   0.260
  824TIP3    H1 2429   2.697   3.866   0.328
  824TIP3    H2 2430   2.684   3.718   0.297
  825TIP3   OH2 2431   2.251   4.054   3.943
  825TIP3    H1 2432   2.256   4.105   3.861
  825TIP3    H2 2433   2.194   3.980   3.922
  826TIP3   OH2 2434   0.916   5.283   3.315
  826TIP3    H1 2435   0.929   5.294   3.410
  826TIP3    H2 2436   0.821   5.279   3.304
  827TIP3   OH2 2437   2.458   0.093   2.343
  827TIP3    H1 2438   2.414   0.071   2.426
  827TIP3    H2 2439   2.441   0.186   2.332
  828TIP3   OH2 2440   3.804   3.033   5.767
  828TIP3    H1 2441   3.734   3.007   5.827
  828TIP3    H2 2442   3.773   3.006   5.681
  829TIP3   OH2 2443   2.509   2.023   6.091
  829TIP3    H1 2444   2.424   2.055   6.060
  829TIP3    H2 2445   2.487   1.960   6.160
  830TIP3   OH2 2446   7.304   1.855   5.322
  830TIP3    H1 2447   7.301   1.784   5.257
  830TIP3    H2 2448   7.370   1.915   5.288
  831TIP3   OH2 2449   1.161   0.099   1.107
  831TIP3    H1 2450   1.161   0.044   1.028
  831TIP3    H2 2451   1.112   0.177   1.082
  832TIP3   OH2 2452   8.026   3.160   2.739
  832TIP3    H1 2453   8.118   3.153   2.763
  832TIP3    H2 2454   7.979   3.114   2.808
  833TIP3   OH2 2455   3.704   5.708   5.360
  833TIP3    H1 2456   3.756   5.692   5.281
  833TIP3    H2 2457   3.614   5.703   5.330
  834TIP3   OH2 2458   4.033   5.395   5.284
  834TIP3    H1 2459   4.097   5.439   5.339
  834TIP3    H2 2460   3.970   5.357   5.346
  835TIP3   OH2 2461   3.311   5.114   0.457
  835TIP3    H1 2462   3.293   5.021   0.470
  835TIP3    H2 2463   3.300   5.152   0.545
  836TIP3   OH2 2464   7.721   1.179   4.227
  836TIP3    H1 2465   7.726   1.212   4.138
  836TIP3    H2 2466   7.639   1.130   4.230
  837TIP3   OH2 2467   7.537   5.700   6.357
  837TIP3    H1 2468   7.552   5.631   6.422
  837TIP3    H2 2469   7.445   5.725   6.369
  838TIP3   OH2 2470   0.038   5.807   3.723
  838TIP3    H1 2471   0.114   5.822   3.667
  838TIP3    H2 2472  -0.031   5.778   3.663
  839TIP3   OH2 2473   7.970   5.423   0.036
  839TIP3    H1 2474   7.914   5.500   0.043
  839TIP3    H2 2475   7.947   5.384  -0.048
  840TIP3   OH2 2476   5.168   1.866   3.254
  840TIP3    H1 2477   5.077   1.895   3.245
  840TIP3    H2 2478   5.209   1.931   3.310
  841TIP3   OH2 2479   5.941   5.362   2.749
  841TIP3    H1 2480   6.028   5.356   2.788
  841TIP3    H2 2481   5.883   5.322   2.814
  842TIP3   OH2 2482   1.882   5.066   2.086
  842TIP3    H1 2483   1.896   5.107   2.001
  842TIP3    H2 2484   1.801   5.104   2.119
  843TIP3   OH2 2485   4.020   4.832   4.721
  843TIP3    H1 2486   4.093   4.776   4.693
  843TIP3    H2 2487   4.061   4.914   4.748
  844TIP3   OH2 2488   7.851   0.486   4.021
  844TIP3    H1 2489   7.822   0.576   4.009
  844TIP3    H2 2490   7.942   0.494   4.051
  845TIP3   OH2 2491   0.357   1.382   0.496
  845TIP3    H1 2492   0.354   1.433   0.576
  845TIP3    H2 2493   0.439   1.407   0.454
  846TIP3   OH2 2494   0.393   2.094   5.241
  846TIP3    H1 2495   0.462   2.160   5.254
  846TIP3    H2 2496   0.311   2.143   5.247
  847TIP3   OH2 2497   4.998   0.086   5.067
  847TIP3    H1 2498   5.026   0.138   5.142
  847TIP3    H2 2499   4.985  -0.002   5.101
  848TIP3   OH2 2500   1.931   7.539   5.558
  848TIP3    H1 2501   2.006   7.599   5.562
  848TIP3    H2 2502   1.947   7.477   5.628
  849TIP3   OH2 2503   4.669   7.260   2.583
  849TIP3    H1 2504   4.633   7.221   2.504
  849TIP3    H2 2505   4.682   7.352   2.561
  850TIP3   OH2 2506   1.276   2.380   0.122
  850TIP3    H1 2507   1.346   2.316   0.105
  850TIP3    H2 2508   1.232   2.346   0.200
  851TIP3   OH2 2509   3.939   4.817   3.219
  851TIP3    H1 2510   3.850   4.834   3.249
  851TIP3    H2 2511   3.929   4.768   3.138
  852TIP3   OH2 2512   7.084   0.153   0.043
  852TIP3    H1 2513   7.107   0.062   0.059
  852TIP3    H2 2514   7.001   0.166   0.089
  853TIP3   OH2 2515   7.813   4.808   3.178
  853TIP3    H1 2516   7.786   4.888   3.223
  853TIP3    H2 2517   7.904   4.795   3.205
  854TIP3   OH2 2518   3.125   6.412   3.179
  854TIP3    H1 2519   3.117   6.316   3.185
  854TIP3    H2 2520   3.050   6.446   3.228
  855TIP3   OH2 2521   8.082   4.312   2.548
  855TIP3    H1 2522   8.017   4.369   2.507
  855TIP3    H2 2523   8.130   4.369   2.608
  856TIP3   OH2 2524   4.608   7.168   4.086
  856TIP3    H1 2525   4.658   7.201   4.011
  856TIP3    H2 2526   4.521   7.148   4.051
  857TIP3   OH2 2527   1.468   4.994   0.016
  857TIP3    H1 2528   1.402   4.939   0.059
  857TIP3    H2 2529   1.471   4.961  -0.074
  858TIP3   OH2 2530   4.016   7.411   4.008
  858TIP3    H1 2531   4.105   7.406   3.974
  858TIP3    H2 2532   3.964   7.445   3.935
  859TIP3   OH2 2533   4.879   6.690   6.757
  859TIP3    H1 2534   4.916   6.616   6.708
  859TIP3    H2 2535   4.857   6.653   6.843
  860TIP3   OH2 2536   3.361   0.951   0.617
  860TIP3    H1 2537   3.287   0.984   0.566
  860TIP3    H2 2538   3.360   0.856   0.603
  861TIP3   OH2 2539   0.414   4.134   4.223
  861TIP3    H1 2540   0.430   4.145   4.129
  861TIP3    H2 2541   0.331   4.180   4.238
  862TIP3   OH2 2542   1.368   0.777   5.239
  862TIP3    H1 2543   1.322   0.736   5.165
  862TIP3    H2 2544   1.339   0.868   5.237
  863TIP3   OH2 2545   6.584   4.309   4.137
  863TIP3    H1 2546   6.668   4.315   4.091
  863TIP3    H2 2547   6.571   4.215   4.152
  864TIP3   OH2 2548   4.733   1.853   6.017
  864TIP3    H1 2549   4.685   1.921   5.971
  864TIP3    H2 2550   4.685   1.772   5.999
  865TIP3   OH2 2551   2.888   7.506   4.573
  865TIP3    H1 2552   2.812   7.461   4.609
  865TIP3    H2 2553   2.902   7.580   4.632
  866TIP3   OH2 2554   3.154   6.320   3.890
  866TIP3    H1 2555   3.162   6.410   3.921
  866TIP3    H2 2556   3.237   6.279   3.915
  867TIP3   OH2 2557   5.435   6.695   4.059
  867TIP3    H1 2558   5.504   6.630   4.046
  867TIP3    H2 2559   5.405   6.716   3.970
  868TIP3   OH2 2560   6.197   2.155   2.468
  868TIP3    H1 2561   6.247   2.122   2.543
  868TIP3    H2 2562   6.175   2.077   2.417
  869TIP3   OH2 2563   3.521   6.051   2.405
  869TIP3    H1 2564   3.597   6.036   2.348
  869TIP3    H2 2565   3.498   6.142   2.391
  870TIP3   OH2 2566   3.491   1.613   1.852
  870TIP3    H1 2567   3.509   1.706   1.866
  870TIP3    H2 2568   3.488   1.603   1.757
  871TIP3   OH2 2569   6.944   5.091   3.700
  871TIP3    H1 2570   6.971   5.028   3.766
  871TIP3    H2 2571   6.946   5.175   3.746
  872TIP3   OH2 2572   6.959   4.262   0.471
  872TIP3    H1 2573   7.027   4.327   0.457
  872TIP3    H2 2574   6.916   4.253   0.385
  873TIP3   OH2 2575   1.330   5.340   6.693
  873TIP3    H1 2576   1.419   5.373   6.702
  873TIP3    H2 2577   1.328   5.260   6.746
  874TIP3   OH2 2578   3.601   2.169   5.840
  874TIP3    H1 2579   3.693   2.155   5.865
  874TIP3    H2 2580   3.556   2.183   5.923
  875TIP3   OH2 2581   4.754   3.797   3.697
  875TIP3    H1 2582   4.846   3.768   3.691
  875TIP3    H2 2583   4.719   3.751   3.773
  876TIP3   OH2 2584   4.613   1.568   2.423
  876TIP3    H1 2585   4.623   1.661   2.442
  876TIP3    H2 2586   4.702   1.533   2.426
  877TIP3   OH2 2587   4.127   5.904   0.248
  877TIP3    H1 2588   4.088   5.828   0.206
  877TIP3    H2 2589   4.117   5.887   0.342
  878TIP3   OH2 2590   3.781   6.473   3.368
  878TIP3    H1 2591   3.830   6.396   3.395
  878TIP3    H2 2592   3.768   6.523   3.449
  879TIP3   OH2 2593   6.674   6.253   5.338
  879TIP3    H1 2594   6.627   6.212   5.265
  879TIP3    H2 2595   6.698   6.340   5.306
  880TIP3   OH2 2596   3.549   4.857   4.134
  880TIP3    H1 2597   3.570   4.927   4.197
  880TIP3    H2 2598   3.631   4.842   4.087
  881TIP3   OH2 2599   3.513   3.339   2.419
  881TIP3    H1 2600   3.568   3.260   2.424
  881TIP3    H2 2601   3.450   3.329   2.490
  882TIP3   OH2 2602   7.122   6.815   4.359
  882TIP3    H1 2603   7.084   6.816   4.447
  882TIP3    H2 2604   7.135   6.722   4.340
  883TIP3   OH2 2605   0.727   6.148   2.016
  883TIP3    H1 2606   0.666   6.138   2.089
  883TIP3    H2 2607   0.728   6.242   1.999
  884TIP3   OH2 2608   7.121   7.084   4.672
  884TIP3    H1 2609   7.100   7.117   4.759
  884TIP3    H2 2610   7.065   7.008   4.660
  885TIP3   OH2 2611   6.869   4.927   4.953
  885TIP3    H1 2612   6.899   4.857   5.012
  885TIP3    H2 2613   6.880   4.890   4.865
  886TIP3   OH2 2614   5.499   4.705   4.262
  886TIP3    H1 2615   5.528   4.696   4.171
  886TIP3    H2 2616   5.403   4.707   4.256
  887TIP3   OH2 2617   1.058   0.414   2.529
  887TIP3    H1 2618   1.034   0.399   2.438
  887TIP3    H2 2619   1.152   0.395   2.532
  888TIP3   OH2 2620   6.811   5.062   2.709
  888TIP3    H1 2621   6.847   4.977   2.733
  888TIP3    H2 2622   6.885   5.123   2.715
  889TIP3   OH2 2623   5.841   4.405   3.305
  889TIP3    H1 2624   5.901   4.341   3.342
  889TIP3    H2 2625   5.885   4.438   3.227
  890TIP3   OH2 2626   4.987   4.982   5.353
  890TIP3    H1 2627   5.077   5.006   5.373
  890TIP3    H2 2628   4.951   4.951   5.435
  891TIP3   OH2 2629   2.137   3.810   1.602
  891TIP3    H1 2630   2.106   3.852   1.522
  891TIP3    H2 2631   2.181   3.731   1.573
  892TIP3   OH2 2632   3.863   7.262   2.219
  892TIP3    H1 2633   3.837   7.203   2.289
  892TIP3    H2 2634   3.835   7.219   2.138
  893TIP3   OH2 2635   5.513   6.255   1.899
  893TIP3    H1 2636   5.554   6.230   1.982
  893TIP3    H2 2637   5.425   6.216   1.903
  894TIP3   OH2 2638   6.846   6.647   4.107
  894TIP3    H1 2639   6.798   6.634   4.188
  894TIP3    H2 2640   6.846   6.561   4.065
  895TIP3   OH2 2641   5.131   4.055   4.937
  895TIP3    H1 2642   5.192   4.128   4.927
  895TIP3    H2 2643   5.117   4.023   4.848
  896TIP3   OH2 2644   4.897   0.007   3.685
  896TIP3    H1 2645   4.841  -0.023   3.757
  896TIP3    H2 2646   4.863   0.094   3.664
  897TIP3   OH2 2647   4.947   2.388   4.181
  897TIP3    H1 2648   4.897   2.317   4.220
  897TIP3    H2 2649   4.881   2.444   4.140
  898TIP3   OH2 2650   5.327   7.074   4.677
  898TIP3    H1 2651   5.347   6.981   4.688
  898TIP3    H2 2652   5.379   7.118   4.743
  899TIP3   OH2 2653   1.762   2.587   5.728
  899TIP3    H1 2654   1.789   2.512   5.675
  899TIP3    H2 2655   1.699   2.634   5.673
  900TIP3   OH2 2656   0.334   1.400   3.544
  900TIP3    H1 2657   0.263   1.387   3.607
  900TIP3    H2 2658   0.369   1.312   3.529
  901TIP3   OH2 2659   7.040   7.055   0.556
  901TIP3    H1 2660   7.097   6.979   0.564
  901TIP3    H2 2661   6.951   7.020   0.559
  902TIP3   OH2 2662   1.428   3.183   6.706
  902TIP3    H1 2663   1.439   3.132   6.786
  902TIP3    H2 2664   1.407   3.117   6.639
  903TIP3   OH2 2665   3.655   2.668   1.282
  903TIP3    H1 2666   3.657   2.594   1.221
  903TIP3    H2 2667   3.740   2.665   1.326
  904TIP3   OH2 2668   1.011   0.987   5.478
  904TIP3    H1 2669   1.027   0.955   5.567
  904TIP3    H2 2670   1.055   1.072   5.476
  905TIP3   OH2 2671   3.137   1.141   5.847
  905TIP3    H1 2672   3.223   1.157   5.810
  905TIP3    H2 2673   3.128   1.045   5.848
  906TIP3   OH2 2674   5.674   0.156   4.853
  906TIP3    H1 2675   5.756   0.190   4.817
  906TIP3    H2 2676   5.612   0.228   4.843
  907TIP3   OH2 2677   1.602   0.287   4.389
  907TIP3    H1 2678   1.683   0.260   4.346
  907TIP3    H2 2679   1.544   0.211   4.383
  908TIP3   OH2 2680   6.769   1.257   6.295
  908TIP3    H1 2681   6.753   1.164   6.281
  908TIP3    H2 2682   6.834   1.281   6.229
  909TIP3   OH2 2683   7.815   4.162   4.981
  909TIP3    H1 2684   7.868   4.142   5.058
  909TIP3    H2 2685   7.878   4.191   4.915
  910TIP3   OH2 2686   1.754   3.355   4.243
  910TIP3    H1 2687   1.827   3.379   4.299
  910TIP3    H2 2688   1.749   3.425   4.177
  911TIP3   OH2 2689   2.128   4.438   6.268
  911TIP3    H1 2690   2.073   4.429   6.190
  911TIP3    H2 2691   2.198   4.498   6.243
  912TIP3   OH2 2692   7.953   0.790   3.930
  912TIP3    H1 2693   7.913   0.786   4.017
  912TIP3    H2 2694   7.878   0.797   3.870
  913TIP3   OH2 2695   2.683   7.624   4.029
  913TIP3    H1 2696   2.696   7.600   4.121
  913TIP3    H2 2697   2.695   7.542   3.982
  914TIP3   OH2 2698   5.409   4.988   0.915
  914TIP3    H1 2699   5.326   5.027   0.887
  914TIP3    H2 2700   5.473   5.059   0.905
  915TIP3   OH2 2701   8.081   6.679   5.866
  915TIP3    H1 2702   8.064   6.600   5.918
  915TIP3    H2 2703   8.151   6.653   5.806
  916TIP3   OH2 2704   2.195   3.740   4.237
  916TIP3    H1 2705   2.138   3.735   4.160
  916TIP3    H2 2706   2.166   3.668   4.294
  917TIP3   OH2 2707   6.523   2.035   2.161
  917TIP3    H1 2708   6.474   2.112   2.189
  917TIP3    H2 2709   6.532   1.982   2.240
  918TIP3   OH2 2710   5.314   6.885   3.292
  918TIP3    H1 2711   5.334   6.805   3.340
  918TIP3    H2 2712   5.337   6.865   3.201
  919TIP3   OH2 2713   7.130   5.938   6.639
  919TIP3    H1 2714   7.044   5.897   6.646
  919TIP3    H2 2715   7.123   6.017   6.692
  920TIP3   OH2 2716   2.530   2.750   3.676
  920TIP3    H1 2717   2.437   2.756   3.655
  920TIP3    H2 2718   2.536   2.683   3.744
  921TIP3   OH2 2719   5.422   3.179   6.333
  921TIP3    H1 2720   5.448   3.176   6.241
  921TIP3    H2 2721   5.474   3.249   6.371
  922TIP3   OH2 2722   2.919   6.252   3.083
  922TIP3    H1 2723   2.941   6.194   3.155
  922TIP3    H2 2724   2.823   6.251   3.080
  923TIP3   OH2 2725   5.240   3.995   2.459
  923TIP3    H1 2726   5.211   3.936   2.528
  923TIP3    H2 2727   5.331   4.015   2.482
  924TIP3   OH2 2728   7.900   3.231   3.791
  924TIP3    H1 2729   7.924   3.182   3.712
  924TIP3    H2 2730   7.902   3.323   3.763
  925TIP3   OH2 2731   5.153   5.845   1.315
  925TIP3    H1 2732   5.069   5.878   1.284
  925TIP3    H2 2733   5.213   5.858   1.241
  926TIP3   OH2 2734   7.905   0.447   5.119
  926TIP3    H1 2735   7.989   0.486   5.141
  926TIP3    H2 2736   7.926   0.374   5.062
  927TIP3   OH2 2737   3.360   7.005   4.799
  927TIP3    H1 2738   3.448   6.991   4.836
  927TIP3    H2 2739   3.301   6.964   4.863
  928TIP3   OH2 2740   3.415   1.672   6.272
  928TIP3    H1 2741   3.448   1.635   6.190
  928TIP3    H2 2742   3.405   1.766   6.254
  929TIP3   OH2 2743   1.203   6.686   4.726
  929TIP3    H1 2744   1.120   6.674   4.681
  929TIP3    H2 2745   1.221   6.779   4.719
  930TIP3   OH2 2746   5.553   3.446   4.313
  930TIP3    H1 2747   5.462   3.448   4.284
  930TIP3    H2 2748   5.577   3.354   4.312
  931TIP3   OH2 2749   7.636   6.418   4.300
  931TIP3    H1 2750   7.548   6.390   4.275
  931TIP3    H2 2751   7.626   6.450   4.390
  932TIP3   OH2 2752   4.368   0.303   5.771
  932TIP3    H1 2753   4.296   0.243   5.751
  932TIP3    H2 2754   4.386   0.289   5.864
  933TIP3   OH2 2755   1.910   2.465   5.358
  933TIP3    H1 2756   1.986   2.418   5.323
  933TIP3    H2 2757   1.837   2.438   5.303
  934TIP3   OH2 2758   6.456   1.080   6.499
  934TIP3    H1 2759   6.423   1.033   6.422
  934TIP3    H2 2760   6.397   1.055   6.570
  935TIP3   OH2 2761   4.536   2.429   1.111
  935TIP3    H1 2762   4.508   2.368   1.178
  935TIP3    H2 2763   4.467   2.424   1.044
  936TIP3   OH2 2764   3.373   1.223   3.918
  936TIP3    H1 2765   3.395   1.239   3.826
  936TIP3    H2 2766   3.421   1.143   3.940
  937TIP3   OH2 2767   1.305   6.924   6.070
  937TIP3    H1 2768   1.358   6.868   6.013
  937TIP3    H2 2769   1.363   6.997   6.093
  938TIP3   OH2 2770   3.339   5.253   5.414
  938TIP3    H1 2771   3.347   5.202   5.334
  938TIP3    H2 2772   3.276   5.204   5.468
  939TIP3   OH2 2773   6.138   6.969   2.644
  939TIP3    H1 2774   6.147   6.995   2.552
  939TIP3    H2 2775   6.048   6.938   2.651
  940TIP3   OH2 2776   3.709   1.761   2.610
  940TIP3    H1 2777   3.753   1.679   2.633
  940TIP3    H2 2778   3.651   1.779   2.685
  941TIP3   OH2 2779   2.508   2.564   6.679
  941TIP3    H1 2780   2.542   2.542   6.766
  941TIP3    H2 2781   2.531   2.656   6.666
  942TIP3   OH2 2782   3.222   4.235   3.066
  942TIP3    H1 2783   3.186   4.147   3.078
  942TIP3    H2 2784   3.294   4.240   3.129
  943TIP3   OH2 2785   2.500   4.164   6.420
  943TIP3    H1 2786   2.411   4.128   6.413
  943TIP3    H2 2787   2.523   4.187   6.330
  944TIP3   OH2 2788   5.076   7.516   1.375
  944TIP3    H1 2789   4.995   7.525   1.324
  944TIP3    H2 2790   5.052   7.460   1.449
  945TIP3   OH2 2791   6.822   4.602   5.364
  945TIP3    H1 2792   6.850   4.645   5.283
  945TIP3    H2 2793   6.883   4.529   5.375
  946TIP3   OH2 2794   2.828   6.685   4.595
  946TIP3    H1 2795   2.871   6.693   4.510
  946TIP3    H2 2796   2.818   6.591   4.608
  947TIP3   OH2 2797   2.370   2.480   1.468
  947TIP3    H1 2798   2.411   2.461   1.384
  947TIP3    H2 2799   2.442   2.502   1.526
  948TIP3   OH2 2800   6.971   1.525   5.864
  948TIP3    H1 2801   6.999   1.518   5.773
  948TIP3    H2 2802   7.003   1.611   5.892
  949TIP3   OH2 2803   6.290   1.218   1.820
  949TIP3    H1 2804   6.287   1.166   1.739
  949TIP3    H2 2805   6.353   1.173   1.876
  950TIP3   OH2 2806   8.254   4.351   4.340
  950TIP3    H1 2807   8.247   4.373   4.433
  950TIP3    H2 2808   8.171   4.381   4.303
  951TIP3   OH2 2809   5.566   3.007   6.674
  951TIP3    H1 2810   5.508   2.945   6.631
  951TIP3    H2 2811   5.650   2.997   6.629
  952TIP3   OH2 2812   1.886   1.914   5.707
  952TIP3    H1 2813   1.974   1.880   5.691
  952TIP3    H2 2814   1.896   1.975   5.780
  953TIP3   OH2 2815   2.954   5.388   6.361
  953TIP3    H1 2816   2.971   5.418   6.450
  953TIP3    H2 2817   2.914   5.464   6.318
  954TIP3   OH2 2818   3.218   4.437   6.487
  954TIP3    H1 2819   3.301   4.437   6.440
  954TIP3    H2 2820   3.215   4.352   6.530
  955TIP3   OH2 2821   4.234   1.326   3.490
  955TIP3    H1 2822   4.215   1.294   3.578
  955TIP3    H2 2823   4.178   1.403   3.480
  956TIP3   OH2 2824   4.023   0.566   1.017
  956TIP3    H1 2825   4.004   0.606   0.932
  956TIP3    H2 2826   3.995   0.632   1.080
  957TIP3   OH2 2827   0.136   3.856   2.123
  957TIP3    H1 2828   0.106   3.765   2.126
  957TIP3    H2 2829   0.105   3.895   2.205
  958TIP3   OH2 2830   7.606   4.824   5.888
  958TIP3    H1 2831   7.631   4.911   5.920
  958TIP3    H2 2832   7.687   4.788   5.850
  959TIP3   OH2 2833   1.276   7.776   6.178
  959TIP3    H1 2834   1.326   7.855   6.201
  959TIP3    H2 2835   1.226   7.800   6.100
  960TIP3   OH2 2836   3.575   1.390   0.127
  960TIP3    H1 2837   3.620   1.389   0.042
  960TIP3    H2 2838   3.618   1.460   0.176
  961TIP3   OH2 2839   0.790   6.880   6.561
  961TIP3    H1 2840   0.808   6.968   6.527
  961TIP3    H2 2841   0.837   6.821   6.502
  962TIP3   OH2 2842   1.401   2.207   6.540
  962TIP3    H1 2843   1.461   2.262   6.589
  962TIP3    H2 2844   1.437   2.119   6.548
  963TIP3   OH2 2845   4.092   6.191   4.049
  963TIP3    H1 2846   4.070   6.138   4.125
  963TIP3    H2 2847   4.073   6.281   4.076
  964TIP3   OH2 2848   6.876   4.526   1.478
  964TIP3    H1 2849   6.823   4.447   1.485
  964TIP3    H2 2850   6.940   4.506   1.409
  965TIP3   OH2 2851   0.555   4.371   4.595
  965TIP3    H1 2852   0.467   4.376   4.633
  965TIP3    H2 2853   0.614   4.375   4.671
  966TIP3   OH2 2854   6.179   4.003   2.932
  966TIP3    H1 2855   6.116   3.994   2.861
  966TIP3    H2 2856   6.242   3.932   2.918
  967TIP3   OH2 2857   8.182   4.426   4.659
  967TIP3    H1 2858   8.103   4.434   4.711
  967TIP3    H2 2859   8.214   4.516   4.650
  968TIP3   OH2 2860   7.303   2.505   6.136
  968TIP3    H1 2861   7.366   2.513   6.064
  968TIP3    H2 2862   7.218   2.497   6.092
  969TIP3   OH2 2863   2.562   0.663   0.001
  969TIP3    H1 2864   2.638   0.707   0.040
  969TIP3    H2 2865   2.531   0.724  -0.066
  970TIP3   OH2 2866   2.253   2.408   0.667
  970TIP3    H1 2867   2.342   2.397   0.702
  970TIP3    H2 2868   2.199   2.347   0.717
  971TIP3   OH2 2869   7.924   6.492   2.972
  971TIP3    H1 2870   7.855   6.558   2.983
  971TIP3    H2 2871   7.922   6.442   3.054
  972TIP3   OH2 2872   1.300   3.580   5.781
  972TIP3    H1 2873   1.320   3.623   5.698
  972TIP3    H2 2874   1.381   3.586   5.831
  973TIP3   OH2 2875   7.338   3.691   2.955
  973TIP3    H1 2876   7.361   3.671   2.864
  973TIP3    H2 2877   7.414   3.738   2.989
  974TIP3   OH2 2878   6.768   5.375   0.753
  974TIP3    H1 2879   6.740   5.466   0.747
  974TIP3    H2 2880   6.733   5.345   0.837
  975TIP3   OH2 2881   6.073   1.601   1.282
  975TIP3    H1 2882   5.983   1.613   1.312
  975TIP3    H2 2883   6.065   1.556   1.198
  976TIP3   OH2 2884   2.234   3.044   1.084
  976TIP3    H1 2885   2.304   2.998   1.038
  976TIP3    H2 2886   2.157   3.031   1.030
  977TIP3   OH2 2887   2.909   5.015   2.465
  977TIP3    H1 2888   2.946   4.936   2.506
  977TIP3    H2 2889   2.913   5.081   2.535
  978TIP3   OH2 2890   2.278   7.193   3.017
  978TIP3    H1 2891   2.196   7.193   2.969
  978TIP3    H2 2892   2.311   7.103   3.008
  979TIP3   OH2 2893   6.920   0.962   4.716
  979TIP3    H1 2894   7.001   0.964   4.767
  979TIP3    H2 2895   6.909   0.870   4.692
  980TIP3   OH2 2896   6.007   0.665   3.508
  980TIP3    H1 2897   5.951   0.596   3.543
  980TIP3    H2 2898   6.081   0.669   3.569
  981TIP3   OH2 2899   5.901   2.075   5.751
  981TIP3    H1 2900   5.936   2.101   5.665
  981TIP3    H2 2901   5.914   2.152   5.806
  982TIP3   OH2 2902   4.165   0.650   1.640
  982TIP3    H1 2903   4.245   0.598   1.648
  982TIP3    H2 2904   4.163   0.702   1.720
  983TIP3   OH2 2905   2.985   0.060   0.137
  983TIP3    H1 2906   2.977   0.119   0.062
  983TIP3    H2 2907   2.949   0.110   0.211
  984TIP3   OH2 2908   4.401   4.908   5.902
  984TIP3    H1 2909   4.381   4.893   5.809
  984TIP3    H2 2910   4.451   4.831   5.928
  985TIP3   OH2 2911   5.060   6.063   0.192
  985TIP3    H1 2912   5.080   6.153   0.169
  985TIP3    H2 2913   5.090   6.012   0.117
  986TIP3   OH2 2914   7.090   1.430   0.165
  986TIP3    H1 2915   7.126   1.449   0.078
  986TIP3    H2 2916   7.130   1.497   0.222
  987TIP3   OH2 2917   6.267   3.090   6.354
  987TIP3    H1 2918   6.322   3.014   6.335
  987TIP3    H2 2919   6.207   3.061   6.423
  988TIP3   OH2 2920   0.003   2.270   2.483
  988TIP3    H1 2921   0.048   2.233   2.407
  988TIP3    H2 2922   0.061   2.250   2.557
  989TIP3   OH2 2923   2.477   5.082   2.589
  989TIP3    H1 2924   2.503   5.113   2.502
  989TIP3    H2 2925   2.526   5.137   2.650
  990TIP3   OH2 2926   7.893   5.717   4.442
  990TIP3    H1 2927   7.957   5.739   4.510
  990TIP3    H2 2928   7.808   5.724   4.486
  991TIP3   OH2 2929   5.562   6.274   0.334
  991TIP3    H1 2930   5.604   6.352   0.297
  991TIP3    H2 2931   5.635   6.218   0.362
  992TIP3   OH2 2932   8.272   4.625   6.029
  992TIP3    H1 2933   8.359   4.584   6.024
  992TIP3    H2 2934   8.281   4.693   6.095
  993TIP3   OH2 2935   2.867   2.120   5.447
  993TIP3    H1 2936   2.905   2.047   5.398
  993TIP3    H2 2937   2.921   2.195   5.423
  994TIP3   OH2 2938   3.377   3.985   4.651
  994TIP3    H1 2939   3.324   3.966   4.729
  994TIP3    H2 2940   3.464   3.952   4.673
  995TIP3   OH2 2941   4.181   5.835   1.424
  995TIP3    H1 2942   4.097   5.877   1.406
  995TIP3    H2 2943   4.243   5.881   1.368
  996TIP3   OH2 2944   2.701   3.047   5.527
  996TIP3    H1 2945   2.738   3.124   5.484
  996TIP3    H2 2946   2.668   2.993   5.455
  997TIP3   OH2 2947   0.296   7.508   3.448
  997TIP3    H1 2948   0.385   7.543   3.449
  997TIP3    H2 2949   0.240   7.585   3.437
  998TIP3   OH2 2950   6.444   6.556   4.455
  998TIP3    H1 2951   6.417   6.526   4.541
  998TIP3    H2 2952   6.404   6.495   4.393
  999TIP3   OH2 2953   6.357   1.638   1.567
  999TIP3    H1 2954   6.341   1.710   1.627
  999TIP3    H2 2955   6.402   1.572   1.620
 1000TIP3   OH2 2956   1.930   4.459   1.522
 1000TIP3    H1 2957   1.904   4.530   1.464
 1000TIP3    H2 2958   1.883   4.477   1.603
 1001TIP3   OH2 2959   5.170   6.709   0.589
 1001TIP3    H1 2960   5.263   6.724   0.574
 1001TIP3    H2 2961   5.159   6.717   0.683
 1002TIP3   OH2 2962   6.119   5.315   3.863
 1002TIP3    H1 2963   6.167   5.388   3.824
 1002TIP3    H2 2964   6.178   5.279   3.929
 1003TIP3   OH2 2965   1.388   0.231   6.026
 1003TIP3    H1 2966   1.424   0.144   6.038
 1003TIP3    H2 2967   1.339   0.226   5.944
 1004TIP3   OH2 2968   5.946   7.483   0.561
 1004TIP3    H1 2969   5.886   7.434   0.505
 1004TIP3    H2 2970   5.893   7.555   0.595
 1005TIP3   OH2 2971   4.940   1.462   5.550
 1005TIP3    H1 2972   4.913   1.476   5.641
 1005TIP3    H2 2973   4.861   1.431   5.506
 1006TIP3   OH2 2974   6.127   5.715   5.879
 1006TIP3    H1 2975   6.192   5.775   5.841
 1006TIP3    H2 2976   6.149   5.711   5.972
 1007TIP3   OH2 2977   7.145   7.848   3.915
 1007TIP3    H1 2978   7.130   7.941   3.931
 1007TIP3    H2 2979   7.227   7.845   3.866
 1008TIP3   OH2 2980   2.044   3.349   2.321
 1008TIP3    H1 2981   2.002   3.268   2.292
 1008TIP3    H2 2982   1.973   3.414   2.321
 1009TIP3   OH2 2983   0.928   0.678   1.868
 1009TIP3    H1 2984   1.016   0.649   1.891
 1009TIP3    H2 2985   0.933   0.774   1.867
 1010TIP3   OH2 2986   0.702   2.275   2.847
 1010TIP3    H1 2987   0.720   2.181   2.851
 1010TIP3    H2 2988   0.703   2.296   2.754
 1011TIP3   OH2 2989   3.172   6.365   2.910
 1011TIP3    H1 2990   3.109   6.391   2.978
 1011TIP3    H2 2991   3.166   6.269   2.908
 1012TIP3   OH2 2992   6.526   2.127   5.647
 1012TIP3    H1 2993   6.564   2.205   5.607
 1012TIP3    H2 2994   6.572   2.117   5.729
 1013TIP3   OH2 2995   7.248   7.237   3.620
 1013TIP3    H1 2996   7.248   7.142   3.608
 1013TIP3    H2 2997   7.336   7.264   3.594
 1014TIP3   OH2 2998   3.709   0.631   2.471
 1014TIP3    H1 2999   3.710   0.546   2.426
 1014TIP3    H2 3000   3.617   0.656   2.472
 1015TIP3   OH2 3001   0.612   0.803   5.514
 1015TIP3    H1 3002   0.578   0.892   5.504
 1015TIP3    H2 3003   0.677   0.810   5.583
 1016TIP3   OH2 3004   1.623   6.866   0.611
 1016TIP3    H1 3005   1.569   6.943   0.594
 1016TIP3    H2 3006   1.579   6.822   0.684
 1017TIP3   OH2 3007   2.469   0.314   5.834
 1017TIP3    H1 3008   2.563   0.330   5.829
 1017TIP3    H2 3009   2.431   0.372   5.769
 1018TIP3   OH2 3010   3.152   6.050   1.550
 1018TIP3    H1 3011   3.219   6.020   1.611
 1018TIP3    H2 3012   3.131   6.138   1.578
 1019TIP3   OH2 3013   4.316   7.853   3.755
 1019TIP3    H1 3014   4.244   7.850   3.692
 1019TIP3    H2 3015   4.329   7.762   3.781
 1020TIP3   OH2 3016   1.768   2.670   3.115
 1020TIP3    H1 3017   1.722   2.687   3.197
 1020TIP3    H2 3018   1.729   2.589   3.082
 1021TIP3   OH2 3019   3.320   5.678   3.316
 1021TIP3    H1 3020   3.385   5.616   3.347
 1021TIP3    H2 3021   3.236   5.631   3.324
 1022TIP3   OH2 3022   4.786   2.612   6.204
 1022TIP3    H1 3023   4.758   2.522   6.184
 1022TIP3    H2 3024   4.877   2.603   6.233
 1023TIP3   OH2 3025   4.997   1.836   2.851
 1023TIP3    H1 3026   5.071   1.817   2.794
 1023TIP3    H2 3027   4.937   1.887   2.797
 1024TIP3   OH2 3028   4.164   6.937   0.152
 1024TIP3    H1 3029   4.189   6.878   0.224
 1024TIP3    H2 3030   4.129   6.879   0.085
 1025TIP3   OH2 3031   1.675   5.695   3.583
 1025TIP3    H1 3032   1.592   5.676   3.540
 1025TIP3    H2 3033   1.657   5.768   3.641
 1026TIP3   OH2 3034   0.273   3.450   3.665
 1026TIP3    H1 3035   0.263   3.359   3.694
 1026TIP3    H2 3036   0.309   3.444   3.577
 1027TIP3   OH2 3037   0.111   6.649   2.824
 1027TIP3    H1 3038   0.130   6.742   2.830
 1027TIP3    H2 3039   0.173   6.608   2.884
 1028TIP3   OH2 3040   7.642   5.697   0.553
 1028TIP3    H1 3041   7.626   5.753   0.476
 1028TIP3    H2 3042   7.716   5.643   0.527
 1029TIP3   OH2 3043   5.621   4.591   1.881
 1029TIP3    H1 3044   5.560   4.528   1.920
 1029TIP3    H2 3045   5.581   4.616   1.798
 1030TIP3   OH2 3046   7.007   1.183   3.694
 1030TIP3    H1 3047   7.039   1.155   3.780
 1030TIP3    H2 3048   6.912   1.168   3.698
 1031TIP3   OH2 3049   0.858   4.589   4.829
 1031TIP3    H1 3050   0.797   4.517   4.840
 1031TIP3    H2 3051   0.845   4.644   4.906
 1032TIP3   OH2 3052   4.123   1.680   2.429
 1032TIP3    H1 3053   4.126   1.590   2.461
 1032TIP3    H2 3054   4.207   1.717   2.455
 1033TIP3   OH2 3055   6.779   4.531   0.154
 1033TIP3    H1 3056   6.709   4.594   0.139
 1033TIP3    H2 3057   6.735   4.458   0.199
 1034TIP3   OH2 3058   1.159   0.731   4.628
 1034TIP3    H1 3059   1.225   0.684   4.577
 1034TIP3    H2 3060   1.167   0.822   4.599
 1035TIP3   OH2 3061   2.384   2.656   4.329
 1035TIP3    H1 3062   2.348   2.591   4.389
 1035TIP3    H2 3063   2.326   2.732   4.337
 1036TIP3   OH2 3064   7.200   0.339   4.619
 1036TIP3    H1 3065   7.192   0.244   4.621
 1036TIP3    H2 3066   7.246   0.358   4.537
 1037TIP3   OH2 3067   6.997   6.691   1.205
 1037TIP3    H1 3068   6.918   6.640   1.226
 1037TIP3    H2 3069   6.988   6.710   1.112
 1038TIP3   OH2 3070   1.109   4.460   4.058
 1038TIP3    H1 3071   1.066   4.497   4.135
 1038TIP3    H2 3072   1.146   4.535   4.012
 1039TIP3   OH2 3073   3.172   7.801   3.845
 1039TIP3    H1 3074   3.182   7.818   3.752
 1039TIP3    H2 3075   3.163   7.705   3.851
 1040TIP3   OH2 3076   5.453   4.388   1.968
 1040TIP3    H1 3077   5.370   4.436   1.981
 1040TIP3    H2 3078   5.427   4.296   1.964
 1041TIP3   OH2 3079   2.422   2.957   5.961
 1041TIP3    H1 3080   2.442   2.890   6.027
 1041TIP3    H2 3081   2.380   3.027   6.010
 1042TIP3   OH2 3082   4.245   4.469   5.566
 1042TIP3    H1 3083   4.222   4.502   5.479
 1042TIP3    H2 3084   4.335   4.439   5.558
 1043TIP3   OH2 3085   0.896   4.737   3.668
 1043TIP3    H1 3086   0.814   4.785   3.658
 1043TIP3    H2 3087   0.928   4.761   3.755
 1044TIP3   OH2 3088   3.158   6.550   2.725
 1044TIP3    H1 3089   3.154   6.462   2.762
 1044TIP3    H2 3090   3.227   6.546   2.659
 1045TIP3   OH2 3091   8.097   6.669   2.585
 1045TIP3    H1 3092   8.123   6.760   2.565
 1045TIP3    H2 3093   8.137   6.651   2.670
 1046TIP3   OH2 3094   0.886   3.713   3.032
 1046TIP3    H1 3095   0.794   3.735   3.017
 1046TIP3    H2 3096   0.885   3.628   3.075
 1047TIP3   OH2 3097   3.025   7.460   5.341
 1047TIP3    H1 3098   2.970   7.522   5.292
 1047TIP3    H2 3099   2.972   7.380   5.346
 1048TIP3   OH2 3100   2.365   7.479   3.744
 1048TIP3    H1 3101   2.418   7.410   3.783
 1048TIP3    H2 3102   2.425   7.523   3.682
 1049TIP3   OH2 3103   7.832   7.711   1.056
 1049TIP3    H1 3104   7.889   7.649   1.101
 1049TIP3    H2 3105   7.766   7.656   1.013
 1050TIP3   OH2 3106   5.465   3.145   6.031
 1050TIP3    H1 3107   5.449   3.052   6.043
 1050TIP3    H2 3108   5.527   3.149   5.958
 1051TIP3   OH2 3109   5.704   6.850   4.566
 1051TIP3    H1 3110   5.771   6.831   4.632
 1051TIP3    H2 3111   5.650   6.771   4.563
 1052TIP3   OH2 3112   6.093   2.046   3.425
 1052TIP3    H1 3113   6.135   1.981   3.481
 1052TIP3    H2 3114   6.123   2.024   3.337
 1053TIP3   OH2 3115   4.063   3.475   5.019
 1053TIP3    H1 3116   4.052   3.488   4.925
 1053TIP3    H2 3117   4.145   3.519   5.040
 1054TIP3   OH2 3118   4.662   4.401   4.454
 1054TIP3    H1 3119   4.657   4.328   4.393
 1054TIP3    H2 3120   4.749   4.394   4.493
 1055TIP3   OH2 3121   2.196   1.552   3.382
 1055TIP3    H1 3122   2.268   1.527   3.325
 1055TIP3    H2 3123   2.212   1.644   3.403
 1056TIP3   OH2 3124   3.262   5.914   5.891
 1056TIP3    H1 3125   3.283   5.826   5.859
 1056TIP3    H2 3126   3.171   5.908   5.918
 1057TIP3   OH2 3127   7.982   0.130   0.617
 1057TIP3    H1 3128   8.040   0.167   0.550
 1057TIP3    H2 3129   7.909   0.092   0.567
 1058TIP3   OH2 3130   4.525   6.698   5.936
 1058TIP3    H1 3131   4.547   6.677   6.027
 1058TIP3    H2 3132   4.532   6.615   5.890
 1059TIP3   OH2 3133   1.572   6.012   4.879
 1059TIP3    H1 3134   1.621   6.022   4.797
 1059TIP3    H2 3135   1.506   5.946   4.858
 1060TIP3   OH2 3136   7.371   1.195   1.597
 1060TIP3    H1 3137   7.285   1.234   1.582
 1060TIP3    H2 3138   7.352   1.113   1.643
 1061TIP3   OH2 3139   5.277   1.945   6.117
 1061TIP3    H1 3140   5.307   1.956   6.207
 1061TIP3    H2 3141   5.288   1.851   6.100
 1062TIP3   OH2 3142   4.523   0.862   5.445
 1062TIP3    H1 3143   4.543   0.949   5.411
 1062TIP3    H2 3144   4.480   0.879   5.529
 1063TIP3   OH2 3145   6.169   2.468   2.583
 1063TIP3    H1 3146   6.179   2.491   2.675
 1063TIP3    H2 3147   6.251   2.424   2.560
 1064TIP3   OH2 3148   0.207   3.434   3.127
 1064TIP3    H1 3149   0.120   3.434   3.086
 1064TIP3    H2 3150   0.252   3.360   3.087
 1065TIP3   OH2 3151   0.186   1.837   1.203
 1065TIP3    H1 3152   0.095   1.838   1.233
 1065TIP3    H2 3153   0.184   1.786   1.122
 1066TIP3   OH2 3154   6.013   6.857   6.194
 1066TIP3    H1 3155   6.015   6.872   6.288
 1066TIP3    H2 3156   5.967   6.773   6.184
 1067TIP3   OH2 3157   0.376   4.048   1.422
 1067TIP3    H1 3158   0.358   4.032   1.329
 1067TIP3    H2 3159   0.432   3.974   1.448
 1068TIP3   OH2 3160   4.721   5.325   3.618
 1068TIP3    H1 3161   4.643   5.275   3.592
 1068TIP3    H2 3162   4.768   5.266   3.676
 1069TIP3   OH2 3163   4.272   5.929   1.726
 1069TIP3    H1 3164   4.217   5.948   1.650
 1069TIP3    H2 3165   4.359   5.916   1.689
 1070TIP3   OH2 3166   7.395   3.334   2.936
 1070TIP3    H1 3167   7.432   3.267   2.879
 1070TIP3    H2 3168   7.312   3.297   2.966
 1071TIP3   OH2 3169   7.060   4.753   3.584
 1071TIP3    H1 3170   7.072   4.804   3.504
 1071TIP3    H2 3171   7.141   4.702   3.592
 1072TIP3   OH2 3172   2.368   5.472   4.822
 1072TIP3    H1 3173   2.455   5.510   4.810
 1072TIP3    H2 3174   2.356   5.469   4.917
 1073TIP3   OH2 3175   5.243   4.432   0.462
 1073TIP3    H1 3176   5.324   4.463   0.422
 1073TIP3    H2 3177   5.269   4.356   0.515
 1074TIP3   OH2 3178   3.239   0.550   3.074
 1074TIP3    H1 3179   3.291   0.496   3.015
 1074TIP3    H2 3180   3.151   0.549   3.037
 1075TIP3   OH2 3181   0.993   0.131   5.941
 1075TIP3    H1 3182   1.042   0.097   6.016
 1075TIP3    H2 3183   1.017   0.073   5.868
 1076TIP3   OH2 3184   1.449   2.947   3.774
 1076TIP3    H1 3185   1.416   3.030   3.808
 1076TIP3    H2 3186   1.521   2.971   3.716
 1077TIP3   OH2 3187   4.232   1.943   2.302
 1077TIP3    H1 3188   4.259   1.934   2.394
 1077TIP3    H2 3189   4.180   1.865   2.284
 1078TIP3   OH2 3190   1.654   2.802   2.080
 1078TIP3    H1 3191   1.744   2.815   2.109
 1078TIP3    H2 3192   1.603   2.867   2.129
 1079TIP3   OH2 3193   5.930   1.798   4.905
 1079TIP3    H1 3194   5.950   1.810   4.998
 1079TIP3    H2 3195   5.953   1.706   4.888
 1080TIP3   OH2 3196   4.546   4.542   0.545
 1080TIP3    H1 3197   4.519   4.589   0.466
 1080TIP3    H2 3198   4.499   4.458   0.540
 1081TIP3   OH2 3199   5.995   3.275   6.685
 1081TIP3    H1 3200   5.976   3.224   6.764
 1081TIP3    H2 3201   5.909   3.296   6.649
 1082TIP3   OH2 3202   1.424   1.050   0.153
 1082TIP3    H1 3203   1.410   1.143   0.138
 1082TIP3    H2 3204   1.429   1.012   0.065
 1083TIP3   OH2 3205   6.503   6.769   2.827
 1083TIP3    H1 3206   6.485   6.858   2.794
 1083TIP3    H2 3207   6.435   6.715   2.785
 1084TIP3   OH2 3208   7.919   1.509   2.928
 1084TIP3    H1 3209   7.841   1.470   2.967
 1084TIP3    H2 3210   7.895   1.525   2.837
 1085TIP3   OH2 3211   3.480   2.356   3.589
 1085TIP3    H1 3212   3.497   2.304   3.667
 1085TIP3    H2 3213   3.564   2.396   3.567
 1086TIP3   OH2 3214   3.790   0.214   1.370
 1086TIP3    H1 3215   3.881   0.245   1.368
 1086TIP3    H2 3216   3.799   0.119   1.378
 1087TIP3   OH2 3217   0.597   4.991   5.100
 1087TIP3    H1 3218   0.602   5.049   5.175
 1087TIP3    H2 3219   0.509   5.006   5.064
 1088TIP3   OH2 3220   2.346   3.376   4.778
 1088TIP3    H1 3221   2.265   3.407   4.740
 1088TIP3    H2 3222   2.384   3.453   4.821
 1089TIP3   OH2 3223   1.667   1.123   1.163
 1089TIP3    H1 3224   1.581   1.085   1.184
 1089TIP3    H2 3225   1.677   1.195   1.226
 1090TIP3   OH2 3226   0.084   2.877   1.882
 1090TIP3    H1 3227   0.079   2.962   1.839
 1090TIP3    H2 3228   0.175   2.870   1.911
 1091TIP3   OH2 3229   8.041   7.049   2.318
 1091TIP3    H1 3230   8.070   7.099   2.242
 1091TIP3    H2 3231   7.965   7.098   2.350
 1092TIP3   OH2 3232   4.066   3.052   4.775
 1092TIP3    H1 3233   3.992   2.993   4.760
 1092TIP3    H2 3234   4.038   3.135   4.737
 1093TIP3   OH2 3235   7.050   5.217   4.703
 1093TIP3    H1 3236   7.109   5.143   4.712
 1093TIP3    H2 3237   7.005   5.224   4.787
 1094TIP3   OH2 3238   5.800   5.914   0.744
 1094TIP3    H1 3239   5.867   5.982   0.756
 1094TIP3    H2 3240   5.840   5.853   0.682
 1095TIP3   OH2 3241   4.254   1.511   4.917
 1095TIP3    H1 3242   4.196   1.562   4.973
 1095TIP3    H2 3243   4.272   1.569   4.843
 1096TIP3   OH2 3244   4.789   5.142   5.653
 1096TIP3    H1 3245   4.845   5.066   5.671
 1096TIP3    H2 3246   4.700   5.107   5.652
 1097TIP3   OH2 3247   2.517   3.117   0.179
 1097TIP3    H1 3248   2.438   3.069   0.156
 1097TIP3    H2 3249   2.570   3.055   0.228
 1098TIP3   OH2 3250   7.040   3.746   4.045
 1098TIP3    H1 3251   6.948   3.749   4.017
 1098TIP3    H2 3252   7.090   3.764   3.965
 1099TIP3   OH2 3253   2.892   3.483   6.538
 1099TIP3    H1 3254   2.905   3.428   6.615
 1099TIP3    H2 3255   2.797   3.479   6.522
 1100TIP3   OH2 3256   7.510   7.494   4.771
 1100TIP3    H1 3257   7.493   7.484   4.677
 1100TIP3    H2 3258   7.424   7.518   4.808
 1101TIP3   OH2 3259   3.371   4.124   5.284
 1101TIP3    H1 3260   3.426   4.135   5.362
 1101TIP3    H2 3261   3.401   4.193   5.225
 1102TIP3   OH2 3262   5.070   5.343   2.820
 1102TIP3    H1 3263   5.104   5.430   2.841
 1102TIP3    H2 3264   5.037   5.309   2.904
 1103TIP3   OH2 3265   5.573   0.293   3.405
 1103TIP3    H1 3266   5.668   0.306   3.407
 1103TIP3    H2 3267   5.557   0.220   3.464
 1104TIP3   OH2 3268   6.176   6.319   3.509
 1104TIP3    H1 3269   6.118   6.248   3.538
 1104TIP3    H2 3270   6.130   6.398   3.536
 1105TIP3   OH2 3271   1.054   1.284   3.845
 1105TIP3    H1 3272   1.149   1.272   3.843
 1105TIP3    H2 3273   1.037   1.355   3.783
 1106TIP3   OH2 3274   7.974   4.865   4.124
 1106TIP3    H1 3275   8.037   4.815   4.176
 1106TIP3    H2 3276   7.906   4.801   4.101
 1107TIP3   OH2 3277   3.811   5.213   4.645
 1107TIP3    H1 3278   3.766   5.155   4.707
 1107TIP3    H2 3279   3.814   5.298   4.689
 1108TIP3   OH2 3280   3.051   7.659   1.434
 1108TIP3    H1 3281   2.981   7.672   1.369
 1108TIP3    H2 3282   3.112   7.599   1.391
 1109TIP3   OH2 3283   3.990   7.550   1.543
 1109TIP3    H1 3284   3.906   7.510   1.521
 1109TIP3    H2 3285   3.971   7.643   1.549
 1110TIP3   OH2 3286   4.927   0.279   2.996
 1110TIP3    H1 3287   5.003   0.337   3.000
 1110TIP3    H2 3288   4.872   0.307   3.069
 1111TIP3   OH2 3289   6.652   7.609   1.186
 1111TIP3    H1 3290   6.643   7.523   1.227
 1111TIP3    H2 3291   6.650   7.671   1.259
 1112TIP3   OH2 3292   7.671   6.835   4.750
 1112TIP3    H1 3293   7.647   6.816   4.840
 1112TIP3    H2 3294   7.756   6.878   4.755
 1113TIP3   OH2 3295   5.158   4.583   0.247
 1113TIP3    H1 3296   5.177   4.510   0.307
 1113TIP3    H2 3297   5.166   4.545   0.160
 1114TIP3   OH2 3298   0.921   2.182   3.167
 1114TIP3    H1 3299   0.900   2.146   3.081
 1114TIP3    H2 3300   1.007   2.146   3.188
 1115TIP3   OH2 3301   3.176   7.102   0.781
 1115TIP3    H1 3302   3.136   7.079   0.864
 1115TIP3    H2 3303   3.270   7.093   0.796
 1116TIP3   OH2 3304   5.247   7.227   0.724
 1116TIP3    H1 3305   5.214   7.144   0.691
 1116TIP3    H2 3306   5.339   7.211   0.744
 1117TIP3   OH2 3307   5.903   3.908   6.143
 1117TIP3    H1 3308   5.860   3.901   6.058
 1117TIP3    H2 3309   5.931   4.000   6.148
 1118TIP3   OH2 3310   3.733   3.037   3.068
 1118TIP3    H1 3311   3.659   2.977   3.056
 1118TIP3    H2 3312   3.810   2.981   3.059
 1119TIP3   OH2 3313   7.497   3.150   1.213
 1119TIP3    H1 3314   7.508   3.103   1.296
 1119TIP3    H2 3315   7.536   3.093   1.147
 1120TIP3   OH2 3316   3.331   7.060   0.500
 1120TIP3    H1 3317   3.357   6.977   0.460
 1120TIP3    H2 3318   3.349   7.126   0.433
 1121TIP3   OH2 3319   7.061   7.480   4.994
 1121TIP3    H1 3320   7.018   7.395   5.003
 1121TIP3    H2 3321   6.992   7.539   4.961
 1122TIP3   OH2 3322   0.459   7.405   5.050
 1122TIP3    H1 3323   0.502   7.387   5.133
 1122TIP3    H2 3324   0.491   7.491   5.024
 1123TIP3   OH2 3325   6.201   3.199   5.354
 1123TIP3    H1 3326   6.123   3.216   5.406
 1123TIP3    H2 3327   6.196   3.105   5.333
 1124TIP3   OH2 3328   2.892   4.853   3.239
 1124TIP3    H1 3329   2.954   4.780   3.235
 1124TIP3    H2 3330   2.808   4.815   3.215
 1125TIP3   OH2 3331   2.072   1.333   6.512
 1125TIP3    H1 3332   2.120   1.341   6.593
 1125TIP3    H2 3333   2.138   1.315   6.445
 1126TIP3   OH2 3334   2.723   2.154   4.129
 1126TIP3    H1 3335   2.678   2.070   4.143
 1126TIP3    H2 3336   2.680   2.215   4.189
 1127TIP3   OH2 3337   7.386   7.301   2.221
 1127TIP3    H1 3338   7.333   7.259   2.289
 1127TIP3    H2 3339   7.334   7.376   2.193
 1128TIP3   OH2 3340   8.093   4.167   6.333
 1128TIP3    H1 3341   8.188   4.175   6.342
 1128TIP3    H2 3342   8.062   4.150   6.422
 1129TIP3   OH2 3343   7.340   0.477   4.374
 1129TIP3    H1 3344   7.313   0.492   4.283
 1129TIP3    H2 3345   7.405   0.545   4.391
 1130TIP3   OH2 3346   3.463   1.217   2.342
 1130TIP3    H1 3347   3.443   1.178   2.428
 1130TIP3    H2 3348   3.402   1.290   2.334
 1131TIP3   OH2 3349   0.595   3.139   5.616
 1131TIP3    H1 3350   0.655   3.161   5.687
 1131TIP3    H2 3351   0.538   3.071   5.652
 1132TIP3   OH2 3352   4.223   1.769   0.395
 1132TIP3    H1 3353   4.305   1.727   0.369
 1132TIP3    H2 3354   4.249   1.856   0.425
 1133TIP3   OH2 3355   3.796   5.496   3.525
 1133TIP3    H1 3356   3.805   5.439   3.601
 1133TIP3    H2 3357   3.720   5.550   3.546
 1134TIP3   OH2 3358   4.277   1.225   4.810
 1134TIP3    H1 3359   4.193   1.182   4.828
 1134TIP3    H2 3360   4.267   1.313   4.846
 1135TIP3   OH2 3361   4.995   2.352   5.013
 1135TIP3    H1 3362   5.035   2.436   4.993
 1135TIP3    H2 3363   4.919   2.348   4.954
 1136TIP3   OH2 3364   6.564   2.789   0.731
 1136TIP3    H1 3365   6.630   2.802   0.800
 1136TIP3    H2 3366   6.596   2.713   0.682
 1137TIP3   OH2 3367   7.178   5.050   0.747
 1137TIP3    H1 3368   7.198   5.079   0.658
 1137TIP3    H2 3369   7.262   5.046   0.791
 1138TIP3   OH2 3370   1.881   6.839   6.327
 1138TIP3    H1 3371   1.935   6.918   6.339
 1138TIP3    H2 3372   1.944   6.771   6.305
 1139TIP3   OH2 3373   2.753   6.607   6.024
 1139TIP3    H1 3374   2.786   6.640   6.107
 1139TIP3    H2 3375   2.788   6.518   6.017
 1140TIP3   OH2 3376   6.607   4.308   5.234
 1140TIP3    H1 3377   6.589   4.327   5.142
 1140TIP3    H2 3378   6.702   4.311   5.241
 1141TIP3   OH2 3379   2.925   6.806   1.977
 1141TIP3    H1 3380   2.878   6.791   1.895
 1141TIP3    H2 3381   2.895   6.736   2.035
 1142TIP3   OH2 3382   1.290   5.989   2.474
 1142TIP3    H1 3383   1.278   6.083   2.459
 1142TIP3    H2 3384   1.296   5.951   2.386
 1143TIP3   OH2 3385   0.816   5.637   2.877
 1143TIP3    H1 3386   0.817   5.732   2.863
 1143TIP3    H2 3387   0.745   5.622   2.939
 1144TIP3   OH2 3388   8.353   2.389   3.390
 1144TIP3    H1 3389   8.276   2.346   3.352
 1144TIP3    H2 3390   8.427   2.350   3.345
 1145TIP3   OH2 3391   3.613   0.917   2.236
 1145TIP3    H1 3392   3.551   0.989   2.237
 1145TIP3    H2 3393   3.641   0.907   2.327
 1146TIP3   OH2 3394   1.958   3.813   1.790
 1146TIP3    H1 3395   2.026   3.812   1.722
 1146TIP3    H2 3396   1.881   3.850   1.747
 1147TIP3   OH2 3397   4.819   2.767   3.578
 1147TIP3    H1 3398   4.730   2.731   3.585
 1147TIP3    H2 3399   4.849   2.774   3.669
 1148TIP3   OH2 3400   3.743   2.642   4.364
 1148TIP3    H1 3401   3.691   2.720   4.385
 1148TIP3    H2 3402   3.692   2.598   4.296
 1149TIP3   OH2 3403   2.725   1.627   5.466
 1149TIP3    H1 3404   2.667   1.594   5.535
 1149TIP3    H2 3405   2.810   1.588   5.484
 1150TIP3   OH2 3406   0.562   7.162   2.074
 1150TIP3    H1 3407   0.496   7.228   2.095
 1150TIP3    H2 3408   0.612   7.200   2.002
 1151TIP3   OH2 3409   7.912   1.189   2.309
 1151TIP3    H1 3410   7.986   1.127   2.305
 1151TIP3    H2 3411   7.836   1.133   2.324
 1152TIP3   OH2 3412   3.882   0.770   1.186
 1152TIP3    H1 3413   3.811   0.757   1.123
 1152TIP3    H2 3414   3.844   0.750   1.271
 1153TIP3   OH2 3415   5.748   3.487   6.620
 1153TIP3    H1 3416   5.769   3.437   6.699
 1153TIP3    H2 3417   5.715   3.571   6.652
 1154TIP3   OH2 3418   0.059   4.369   5.163
 1154TIP3    H1 3419  -0.017   4.328   5.205
 1154TIP3    H2 3420   0.027   4.455   5.135
 1155TIP3   OH2 3421   3.469   6.640   0.656
 1155TIP3    H1 3422   3.483   6.602   0.569
 1155TIP3    H2 3423   3.377   6.666   0.656
 1156TIP3   OH2 3424   0.191   3.808   6.480
 1156TIP3    H1 3425   0.107   3.850   6.460
 1156TIP3    H2 3426   0.173   3.714   6.475
 1157TIP3   OH2 3427   7.895   3.250   4.748
 1157TIP3    H1 3428   7.831   3.214   4.686
 1157TIP3    H2 3429   7.967   3.280   4.693
 1158TIP3   OH2 3430   1.838   1.677   2.355
 1158TIP3    H1 3431   1.777   1.699   2.425
 1158TIP3    H2 3432   1.786   1.680   2.275
 1159TIP3   OH2 3433   6.945   0.961   5.982
 1159TIP3    H1 3434   7.034   0.927   5.986
 1159TIP3    H2 3435   6.944   1.018   5.905
 1160TIP3   OH2 3436   3.216   2.343   1.627
 1160TIP3    H1 3437   3.298   2.390   1.641
 1160TIP3    H2 3438   3.231   2.291   1.549
 1161TIP3   OH2 3439   6.463   6.847   3.299
 1161TIP3    H1 3440   6.526   6.825   3.368
 1161TIP3    H2 3441   6.425   6.930   3.327
 1162TIP3   OH2 3442   5.672   1.668   4.804
 1162TIP3    H1 3443   5.682   1.596   4.741
 1162TIP3    H2 3444   5.744   1.728   4.783
 1163TIP3   OH2 3445   7.350   3.703   6.332
 1163TIP3    H1 3446   7.333   3.652   6.412
 1163TIP3    H2 3447   7.267   3.744   6.312
 1164TIP3   OH2 3448   0.645   0.731   2.358
 1164TIP3    H1 3449   0.573   0.735   2.294
 1164TIP3    H2 3450   0.706   0.799   2.329
 1165TIP3   OH2 3451   4.308   0.565   3.358
 1165TIP3    H1 3452   4.216   0.544   3.342
 1165TIP3    H2 3453   4.317   0.656   3.332
 1166TIP3   OH2 3454   2.813   4.033   0.706
 1166TIP3    H1 3455   2.808   3.963   0.771
 1166TIP3    H2 3456   2.881   4.092   0.739
 1167TIP3   OH2 3457   6.246   3.887   1.139
 1167TIP3    H1 3458   6.188   3.940   1.084
 1167TIP3    H2 3459   6.268   3.811   1.085
 1168TIP3   OH2 3460   1.477   0.332   1.422
 1168TIP3    H1 3461   1.461   0.241   1.397
 1168TIP3    H2 3462   1.540   0.326   1.493
 1169TIP3   OH2 3463   6.811   1.730   1.578
 1169TIP3    H1 3464   6.826   1.825   1.573
 1169TIP3    H2 3465   6.791   1.714   1.670
 1170TIP3   OH2 3466   6.922   0.538   6.596
 1170TIP3    H1 3467   6.890   0.607   6.654
 1170TIP3    H2 3468   6.873   0.550   6.514
 1171TIP3   OH2 3469   5.436   6.162   2.802
 1171TIP3    H1 3470   5.452   6.079   2.756
 1171TIP3    H2 3471   5.352   6.150   2.846
 1172TIP3   OH2 3472   4.944   1.964   5.829
 1172TIP3    H1 3473   4.889   2.016   5.887
 1172TIP3    H2 3474   4.890   1.888   5.805
 1173TIP3   OH2 3475   3.028   3.747   1.611
 1173TIP3    H1 3476   3.082   3.691   1.666
 1173TIP3    H2 3477   2.984   3.686   1.552
 1174TIP3   OH2 3478   7.760   3.699   2.750
 1174TIP3    H1 3479   7.825   3.749   2.700
 1174TIP3    H2 3480   7.800   3.613   2.762
 1175TIP3   OH2 3481   1.655   2.725   3.836
 1175TIP3    H1 3482   1.589   2.794   3.836
 1175TIP3    H2 3483   1.612   2.650   3.875
 1176TIP3   OH2 3484   0.729   6.257   4.370
 1176TIP3    H1 3485   0.648   6.214   4.399
 1176TIP3    H2 3486   0.709   6.288   4.282
 1177TIP3   OH2 3487   2.938   3.568   1.393
 1177TIP3    H1 3488   2.959   3.476   1.412
 1177TIP3    H2 3489   2.850   3.565   1.355
 1178TIP3   OH2 3490   6.830   2.048   0.963
 1178TIP3    H1 3491   6.763   2.091   0.910
 1178TIP3    H2 3492   6.781   2.008   1.036
 1179TIP3   OH2 3493   5.769   3.283   4.506
 1179TIP3    H1 3494   5.734   3.225   4.574
 1179TIP3    H2 3495   5.815   3.224   4.445
 1180TIP3   OH2 3496   5.315   1.921   6.390
 1180TIP3    H1 3497   5.357   1.934   6.475
 1180TIP3    H2 3498   5.233   1.971   6.396
 1181TIP3   OH2 3499   7.411   5.486   2.542
 1181TIP3    H1 3500   7.388   5.498   2.450
 1181TIP3    H2 3501   7.408   5.574   2.579
 1182TIP3   OH2 3502   2.705   2.234   2.433
 1182TIP3    H1 3503   2.789   2.203   2.467
 1182TIP3    H2 3504   2.647   2.158   2.441
 1183TIP3   OH2 3505   2.830   2.885   0.825
 1183TIP3    H1 3506   2.743   2.915   0.796
 1183TIP3    H2 3507   2.885   2.963   0.820
 1184TIP3   OH2 3508   4.636   5.238   0.520
 1184TIP3    H1 3509   4.580   5.203   0.589
 1184TIP3    H2 3510   4.696   5.166   0.499
 1185TIP3   OH2 3511   8.235   1.196   2.728
 1185TIP3    H1 3512   8.305   1.207   2.792
 1185TIP3    H2 3513   8.172   1.139   2.771
 1186TIP3   OH2 3514   5.652   1.202   4.382
 1186TIP3    H1 3515   5.560   1.225   4.388
 1186TIP3    H2 3516   5.664   1.131   4.445
 1187TIP3   OH2 3517   4.703   1.487   1.180
 1187TIP3    H1 3518   4.708   1.512   1.272
 1187TIP3    H2 3519   4.782   1.435   1.165
 1188TIP3   OH2 3520   0.820   2.884   4.215
 1188TIP3    H1 3521   0.827   2.874   4.120
 1188TIP3    H2 3522   0.764   2.960   4.227
 1189TIP3   OH2 3523   8.218   7.725   0.733
 1189TIP3    H1 3524   8.198   7.636   0.763
 1189TIP3    H2 3525   8.135   7.771   0.734
 1190TIP3   OH2 3526   5.995   1.335   4.678
 1190TIP3    H1 3527   5.994   1.253   4.728
 1190TIP3    H2 3528   6.001   1.307   4.587
 1191TIP3   OH2 3529   4.682   1.073   0.586
 1191TIP3    H1 3530   4.604   1.084   0.532
 1191TIP3    H2 3531   4.706   1.161   0.612
 1192TIP3   OH2 3532   5.072   5.319   0.588
 1192TIP3    H1 3533   5.053   5.412   0.587
 1192TIP3    H2 3534   4.992   5.278   0.556
 1193TIP3   OH2 3535   7.428   2.578   5.882
 1193TIP3    H1 3536   7.340   2.605   5.856
 1193TIP3    H2 3537   7.458   2.523   5.809
 1194TIP3   OH2 3538   3.992   3.290   6.304
 1194TIP3    H1 3539   4.056   3.221   6.289
 1194TIP3    H2 3540   3.966   3.318   6.216
 1195TIP3   OH2 3541   4.791   6.726   5.047
 1195TIP3    H1 3542   4.754   6.813   5.032
 1195TIP3    H2 3543   4.770   6.677   4.967
 1196TIP3   OH2 3544   7.342   3.823   5.762
 1196TIP3    H1 3545   7.327   3.894   5.700
 1196TIP3    H2 3546   7.334   3.864   5.848
 1197TIP3   OH2 3547   6.450   0.416   4.384
 1197TIP3    H1 3548   6.356   0.403   4.373
 1197TIP3    H2 3549   6.464   0.413   4.479
 1198TIP3   OH2 3550   2.782   2.902   5.161
 1198TIP3    H1 3551   2.735   2.819   5.154
 1198TIP3    H2 3552   2.797   2.929   5.070
 1199TIP3   OH2 3553   3.469   0.264   5.614
 1199TIP3    H1 3554   3.467   0.239   5.521
 1199TIP3    H2 3555   3.530   0.338   5.617
 1200TIP3   OH2 3556   1.464   5.673   4.368
 1200TIP3    H1 3557   1.537   5.618   4.338
 1200TIP3    H2 3558   1.499   5.762   4.365
 1201TIP3   OH2 3559   5.754   0.010   5.943
 1201TIP3    H1 3560   5.675   0.050   5.906
 1201TIP3    H2 3561   5.765   0.052   6.028
 1202TIP3   OH2 3562   1.733   1.250   6.789
 1202TIP3    H1 3563   1.665   1.234   6.723
 1202TIP3    H2 3564   1.792   1.313   6.748
 1203TIP3   OH2 3565   0.270   4.057   2.001
 1203TIP3    H1 3566   0.205   4.126   2.012
 1203TIP3    H2 3567   0.230   3.980   2.042
 1204TIP3   OH2 3568   1.197   7.142   6.550
 1204TIP3    H1 3569   1.181   7.192   6.630
 1204TIP3    H2 3570   1.269   7.083   6.573
 1205TIP3   OH2 3571   6.059   4.173   0.292
 1205TIP3    H1 3572   6.125   4.157   0.225
 1205TIP3    H2 3573   6.101   4.232   0.354
 1206TIP3   OH2 3574   3.870   0.985   4.420
 1206TIP3    H1 3575   3.905   1.074   4.413
 1206TIP3    H2 3576   3.803   0.990   4.488
 1207TIP3   OH2 3577   3.400   6.658   0.159
 1207TIP3    H1 3578   3.371   6.714   0.087
 1207TIP3    H2 3579   3.482   6.620   0.128
 1208TIP3   OH2 3580   7.946   2.645   3.600
 1208TIP3    H1 3581   7.943   2.556   3.564
 1208TIP3    H2 3582   7.912   2.636   3.689
 1209TIP3   OH2 3583   2.551   3.932   0.826
 1209TIP3    H1 3584   2.605   3.863   0.787
 1209TIP3    H2 3585   2.505   3.971   0.751
 1210TIP3   OH2 3586   7.523   5.002   1.286
 1210TIP3    H1 3587   7.564   4.964   1.364
 1210TIP3    H2 3588   7.596   5.028   1.231
 1211TIP3   OH2 3589   4.683   6.060   2.895
 1211TIP3    H1 3590   4.596   6.098   2.881
 1211TIP3    H2 3591   4.744   6.128   2.866
 1212TIP3   OH2 3592   4.545   3.221   6.468
 1212TIP3    H1 3593   4.589   3.303   6.493
 1212TIP3    H2 3594   4.484   3.204   6.540
 1213TIP3   OH2 3595   3.684   5.098   0.091
 1213TIP3    H1 3596   3.614   5.060   0.144
 1213TIP3    H2 3597   3.764   5.074   0.137
 1214TIP3   OH2 3598   4.968   6.013   2.583
 1214TIP3    H1 3599   4.883   5.970   2.591
 1214TIP3    H2 3600   4.949   6.098   2.545
 1215TIP3   OH2 3601   5.480   7.346   0.288
 1215TIP3    H1 3602   5.464   7.377   0.199
 1215TIP3    H2 3603   5.430   7.264   0.295
 1216TIP3   OH2 3604   6.799   2.534   2.070
 1216TIP3    H1 3605   6.739   2.535   1.996
 1216TIP3    H2 3606   6.768   2.462   2.125
 1217TIP3   OH2 3607   3.365   5.622   2.028
 1217TIP3    H1 3608   3.419   5.701   2.025
 1217TIP3    H2 3609   3.275   5.655   2.024
 1218TIP3   OH2 3610   4.604   6.347   2.614
 1218TIP3    H1 3611   4.565   6.260   2.607
 1218TIP3    H2 3612   4.553   6.390   2.683
 1219TIP3   OH2 3613   5.092   2.548   0.494
 1219TIP3    H1 3614   5.091   2.459   0.459
 1219TIP3    H2 3615   5.158   2.546   0.563
 1220TIP3   OH2 3616   2.355   3.406   2.289
 1220TIP3    H1 3617   2.327   3.341   2.353
 1220TIP3    H2 3618   2.292   3.400   2.218
 1221TIP3   OH2 3619   2.746   3.453   4.732
 1221TIP3    H1 3620   2.700   3.442   4.815
 1221TIP3    H2 3621   2.677   3.472   4.668
 1222TIP3   OH2 3622   3.443   6.844   0.363
 1222TIP3    H1 3623   3.535   6.835   0.385
 1222TIP3    H2 3624   3.425   6.772   0.303
 1223TIP3   OH2 3625   8.064   7.161   0.504
 1223TIP3    H1 3626   8.073   7.166   0.409
 1223TIP3    H2 3627   8.040   7.071   0.522
 1224TIP3   OH2 3628   4.495   5.085   0.701
 1224TIP3    H1 3629   4.577   5.054   0.662
 1224TIP3    H2 3630   4.436   5.010   0.697
 1225TIP3   OH2 3631   4.327   1.231   0.710
 1225TIP3    H1 3632   4.341   1.141   0.683
 1225TIP3    H2 3633   4.339   1.230   0.805
 1226TIP3   OH2 3634   7.953   3.527   3.042
 1226TIP3    H1 3635   8.006   3.561   2.971
 1226TIP3    H2 3636   7.963   3.591   3.113
 1227TIP3   OH2 3637   4.126   2.999   1.550
 1227TIP3    H1 3638   4.161   2.950   1.476
 1227TIP3    H2 3639   4.133   2.938   1.624
 1228TIP3   OH2 3640   1.765   3.639   6.701
 1228TIP3    H1 3641   1.789   3.602   6.786
 1228TIP3    H2 3642   1.688   3.589   6.674
 1229TIP3   OH2 3643   3.094   7.658   3.118
 1229TIP3    H1 3644   3.083   7.737   3.066
 1229TIP3    H2 3645   3.043   7.591   3.072
 1230TIP3   OH2 3646   6.057   6.484   3.689
 1230TIP3    H1 3647   6.000   6.519   3.758
 1230TIP3    H2 3648   6.102   6.411   3.730
 1231TIP3   OH2 3649   6.776   1.205   2.224
 1231TIP3    H1 3650   6.682   1.224   2.226
 1231TIP3    H2 3651   6.785   1.121   2.269
 1232TIP3   OH2 3652   5.316   6.774   6.229
 1232TIP3    H1 3653   5.272   6.689   6.219
 1232TIP3    H2 3654   5.376   6.779   6.155
 1233TIP3   OH2 3655   7.289   6.851   0.801
 1233TIP3    H1 3656   7.231   6.918   0.837
 1233TIP3    H2 3657   7.268   6.772   0.851
 1234TIP3   OH2 3658   7.429   0.660   4.935
 1234TIP3    H1 3659   7.478   0.604   4.996
 1234TIP3    H2 3660   7.426   0.609   4.854
 1235TIP3   OH2 3661   1.980   0.963   2.384
 1235TIP3    H1 3662   1.932   0.997   2.460
 1235TIP3    H2 3663   1.937   1.004   2.308
 1236TIP3   OH2 3664   7.846   7.535   5.787
 1236TIP3    H1 3665   7.922   7.475   5.789
 1236TIP3    H2 3666   7.792   7.508   5.861
 1237TIP3   OH2 3667   0.065   1.349   0.988
 1237TIP3    H1 3668   0.063   1.267   0.939
 1237TIP3    H2 3669   0.157   1.366   1.003
 1238TIP3   OH2 3670   7.517   1.144   6.267
 1238TIP3    H1 3671   7.534   1.227   6.223
 1238TIP3    H2 3672   7.603   1.111   6.291
 1239TIP3   OH2 3673   6.212   4.857   3.472
 1239TIP3    H1 3674   6.140   4.843   3.533
 1239TIP3    H2 3675   6.266   4.924   3.515
 1240TIP3   OH2 3676   7.213   2.165   4.494
 1240TIP3    H1 3677   7.303   2.198   4.486
 1240TIP3    H2 3678   7.223   2.070   4.504
 1241TIP3   OH2 3679   0.172   2.404   1.434
 1241TIP3    H1 3680   0.087   2.377   1.469
 1241TIP3    H2 3681   0.233   2.336   1.464
 1242TIP3   OH2 3682   7.650   6.610   2.600
 1242TIP3    H1 3683   7.575   6.551   2.595
 1242TIP3    H2 3684   7.686   6.611   2.512
 1243TIP3   OH2 3685   8.197   6.507   1.348
 1243TIP3    H1 3686   8.195   6.578   1.284
 1243TIP3    H2 3687   8.108   6.505   1.385
 1244TIP3   OH2 3688   7.620   1.752   1.128
 1244TIP3    H1 3689   7.581   1.733   1.213
 1244TIP3    H2 3690   7.579   1.834   1.100
 1245TIP3   OH2 3691   3.818   1.608   3.573
 1245TIP3    H1 3692   3.738   1.637   3.530
 1245TIP3    H2 3693   3.865   1.689   3.593
 1246TIP3   OH2 3694   5.699   0.564   5.085
 1246TIP3    H1 3695   5.736   0.540   5.000
 1246TIP3    H2 3696   5.609   0.533   5.082
 1247TIP3   OH2 3697   3.645   6.851   2.220
 1247TIP3    H1 3698   3.609   6.866   2.133
 1247TIP3    H2 3699   3.711   6.920   2.231
 1248TIP3   OH2 3700   7.819   4.495   3.243
 1248TIP3    H1 3701   7.856   4.536   3.164
 1248TIP3    H2 3702   7.870   4.414   3.253
 1249TIP3   OH2 3703   2.406   1.869   6.291
 1249TIP3    H1 3704   2.319   1.845   6.259
 1249TIP3    H2 3705   2.458   1.789   6.281
 1250TIP3   OH2 3706   6.933   2.795   3.690
 1250TIP3    H1 3707   6.930   2.702   3.711
 1250TIP3    H2 3708   6.931   2.839   3.776
 1251TIP3   OH2 3709   6.260   3.715   5.457
 1251TIP3    H1 3710   6.328   3.782   5.446
 1251TIP3    H2 3711   6.215   3.712   5.373
 1252TIP3   OH2 3712   1.213   3.790   4.458
 1252TIP3    H1 3713   1.183   3.797   4.548
 1252TIP3    H2 3714   1.158   3.853   4.410
 1253TIP3   OH2 3715   1.247   6.312   0.170
 1253TIP3    H1 3716   1.298   6.299   0.249
 1253TIP3    H2 3717   1.176   6.247   0.177
 1254TIP3   OH2 3718   0.145   3.235   5.403
 1254TIP3    H1 3719   0.167   3.290   5.478
 1254TIP3    H2 3720   0.172   3.147   5.430
 1255TIP3   OH2 3721   4.779   3.317   0.977
 1255TIP3    H1 3722   4.759   3.231   1.016
 1255TIP3    H2 3723   4.874   3.319   0.972
 1256TIP3   OH2 3724   5.925   6.701   5.433
 1256TIP3    H1 3725   5.997   6.757   5.405
 1256TIP3    H2 3726   5.942   6.616   5.392
 1257TIP3   OH2 3727   6.512   3.665   6.449
 1257TIP3    H1 3728   6.455   3.734   6.482
 1257TIP3    H2 3729   6.453   3.593   6.428
 1258TIP3   OH2 3730   6.670   5.322   5.735
 1258TIP3    H1 3731   6.724   5.291   5.662
 1258TIP3    H2 3732   6.683   5.417   5.734
 1259TIP3   OH2 3733   5.039   2.143   3.559
 1259TIP3    H1 3734   5.019   2.216   3.618
 1259TIP3    H2 3735   5.024   2.065   3.612
 1260TIP3   OH2 3736   1.926   1.461   1.109
 1260TIP3    H1 3737   1.886   1.387   1.154
 1260TIP3    H2 3738   2.020   1.447   1.118
 1261TIP3   OH2 3739   7.379   5.534   1.418
 1261TIP3    H1 3740   7.358   5.498   1.504
 1261TIP3    H2 3741   7.406   5.458   1.366
 1262TIP3   OH2 3742   3.341   1.917   6.566
 1262TIP3    H1 3743   3.267   1.957   6.520
 1262TIP3    H2 3744   3.412   1.917   6.503
 1263TIP3   OH2 3745   5.440   3.682   0.158
 1263TIP3    H1 3746   5.529   3.717   0.154
 1263TIP3    H2 3747   5.452   3.587   0.159
 1264TIP3   OH2 3748   3.987   4.758   2.426
 1264TIP3    H1 3749   4.047   4.720   2.363
 1264TIP3    H2 3750   4.032   4.749   2.510
 1265TIP3   OH2 3751   5.865   5.525   1.946
 1265TIP3    H1 3752   5.878   5.536   2.040
 1265TIP3    H2 3753   5.771   5.533   1.934
 1266TIP3   OH2 3754   1.846   0.406   3.591
 1266TIP3    H1 3755   1.779   0.423   3.658
 1266TIP3    H2 3756   1.900   0.485   3.592
 1267TIP3   OH2 3757   5.066   7.011   4.174
 1267TIP3    H1 3758   5.076   6.939   4.111
 1267TIP3    H2 3759   5.089   7.089   4.124
 1268TIP3   OH2 3760   1.424   3.981   0.688
 1268TIP3    H1 3761   1.369   4.045   0.733
 1268TIP3    H2 3762   1.392   3.896   0.718
 1269TIP3   OH2 3763   7.150   0.580   3.228
 1269TIP3    H1 3764   7.105   0.497   3.240
 1269TIP3    H2 3765   7.094   0.645   3.270
 1270TIP3   OH2 3766   1.629   0.829   1.762
 1270TIP3    H1 3767   1.545   0.874   1.758
 1270TIP3    H2 3768   1.633   0.779   1.681
 1271TIP3   OH2 3769   7.590   2.809   2.637
 1271TIP3    H1 3770   7.557   2.801   2.727
 1271TIP3    H2 3771   7.581   2.902   2.617
 1272TIP3   OH2 3772   3.693   0.785   2.727
 1272TIP3    H1 3773   3.662   0.853   2.667
 1272TIP3    H2 3774   3.656   0.809   2.812
 1273TIP3   OH2 3775   0.066   0.751   5.869
 1273TIP3    H1 3776   0.160   0.742   5.884
 1273TIP3    H2 3777   0.035   0.661   5.859
 1274TIP3   OH2 3778   3.809   5.285   3.716
 1274TIP3    H1 3779   3.783   5.349   3.783
 1274TIP3    H2 3780   3.884   5.241   3.754
 1275TIP3   OH2 3781   5.837   0.766   6.056
 1275TIP3    H1 3782   5.796   0.700   6.113
 1275TIP3    H2 3783   5.898   0.717   6.002
 1276TIP3   OH2 3784   4.256   4.680   2.717
 1276TIP3    H1 3785   4.246   4.587   2.738
 1276TIP3    H2 3786   4.167   4.712   2.707
 1277TIP3   OH2 3787   2.141   0.558   5.662
 1277TIP3    H1 3788   2.185   0.510   5.592
 1277TIP3    H2 3789   2.132   0.647   5.628
 1278TIP3   OH2 3790   4.346   0.824   2.345
 1278TIP3    H1 3791   4.331   0.899   2.402
 1278TIP3    H2 3792   4.266   0.816   2.293
 1279TIP3   OH2 3793   1.528   2.962   6.176
 1279TIP3    H1 3794   1.490   2.876   6.192
 1279TIP3    H2 3795   1.600   2.969   6.238
 1280TIP3   OH2 3796   0.845   5.976   5.355
 1280TIP3    H1 3797   0.789   6.041   5.399
 1280TIP3    H2 3798   0.819   5.980   5.263
 1281TIP3   OH2 3799   1.665   0.637   4.768
 1281TIP3    H1 3800   1.736   0.699   4.785
 1281TIP3    H2 3801   1.594   0.691   4.735
 1282TIP3   OH2 3802   3.344   4.644   4.300
 1282TIP3    H1 3803   3.272   4.600   4.255
 1282TIP3    H2 3804   3.421   4.591   4.279
 1283TIP3   OH2 3805   0.177   4.818   1.394
 1283TIP3    H1 3806   0.132   4.847   1.315
 1283TIP3    H2 3807   0.112   4.766   1.442
 1284TIP3   OH2 3808   8.240   2.830   4.498
 1284TIP3    H1 3809   8.270   2.912   4.460
 1284TIP3    H2 3810   8.145   2.833   4.490
 1285TIP3   OH2 3811   6.808   3.561   5.402
 1285TIP3    H1 3812   6.861   3.536   5.325
 1285TIP3    H2 3813   6.762   3.480   5.425
 1286TIP3   OH2 3814   0.455   5.530   0.673
 1286TIP3    H1 3815   0.362   5.555   0.668
 1286TIP3    H2 3816   0.502   5.610   0.648
 1287TIP3   OH2 3817   6.516   1.726   4.069
 1287TIP3    H1 3818   6.427   1.743   4.097
 1287TIP3    H2 3819   6.509   1.714   3.974
 1288TIP3   OH2 3820   1.229   5.308   0.041
 1288TIP3    H1 3821   1.224   5.345   0.129
 1288TIP3    H2 3822   1.320   5.280   0.033
 1289TIP3   OH2 3823   4.268   0.858   0.421
 1289TIP3    H1 3824   4.218   0.824   0.346
 1289TIP3    H2 3825   4.340   0.797   0.431
 1290TIP3   OH2 3826   3.658   7.001   6.501
 1290TIP3    H1 3827   3.707   7.032   6.425
 1290TIP3    H2 3828   3.657   6.906   6.491
 1291TIP3   OH2 3829   4.781   3.912   2.701
 1291TIP3    H1 3830   4.816   4.001   2.705
 1291TIP3    H2 3831   4.837   3.862   2.759
 1292TIP3   OH2 3832   5.699   7.598   5.127
 1292TIP3    H1 3833   5.739   7.543   5.194
 1292TIP3    H2 3834   5.738   7.684   5.141
 1293TIP3   OH2 3835   3.620   0.101   2.902
 1293TIP3    H1 3836   3.575   0.183   2.885
 1293TIP3    H2 3837   3.572   0.061   2.975
 1294TIP3   OH2 3838   3.235   6.085   6.297
 1294TIP3    H1 3839   3.153   6.039   6.313
 1294TIP3    H2 3840   3.300   6.036   6.347
 1295TIP3   OH2 3841   3.434   3.620   2.475
 1295TIP3    H1 3842   3.452   3.652   2.387
 1295TIP3    H2 3843   3.466   3.530   2.476
 1296TIP3   OH2 3844   6.774   3.127   3.025
 1296TIP3    H1 3845   6.800   3.054   2.968
 1296TIP3    H2 3846   6.695   3.163   2.983
 1297TIP3   OH2 3847   7.322   4.410   2.849
 1297TIP3    H1 3848   7.378   4.460   2.789
 1297TIP3    H2 3849   7.264   4.360   2.792
 1298TIP3   OH2 3850   0.552   7.410   0.133
 1298TIP3    H1 3851   0.469   7.400   0.087
 1298TIP3    H2 3852   0.617   7.419   0.064
 1299TIP3   OH2 3853   1.183   6.909   0.151
 1299TIP3    H1 3854   1.126   6.880   0.079
 1299TIP3    H2 3855   1.151   6.862   0.228
 1300TIP3   OH2 3856   6.365   7.663   0.085
 1300TIP3    H1 3857   6.434   7.604   0.116
 1300TIP3    H2 3858   6.412   7.733   0.039
 1301TIP3   OH2 3859   2.674   0.306   2.812
 1301TIP3    H1 3860   2.765   0.293   2.786
 1301TIP3    H2 3861   2.631   0.341   2.734
 1302TIP3   OH2 3862   8.103   1.555   1.364
 1302TIP3    H1 3863   8.163   1.491   1.327
 1302TIP3    H2 3864   8.030   1.558   1.301
 1303TIP3   OH2 3865   0.727   6.157   3.939
 1303TIP3    H1 3866   0.796   6.170   4.005
 1303TIP3    H2 3867   0.765   6.094   3.877
 1304TIP3   OH2 3868   7.869   0.703   3.137
 1304TIP3    H1 3869   7.799   0.741   3.084
 1304TIP3    H2 3870   7.938   0.683   3.073
 1305TIP3   OH2 3871   5.874   7.613   6.348
 1305TIP3    H1 3872   5.934   7.556   6.299
 1305TIP3    H2 3873   5.808   7.554   6.384
 1306TIP3   OH2 3874   2.422   7.390   1.977
 1306TIP3    H1 3875   2.362   7.434   1.916
 1306TIP3    H2 3876   2.509   7.403   1.939
 1307TIP3   OH2 3877   3.761   2.786   6.286
 1307TIP3    H1 3878   3.833   2.794   6.349
 1307TIP3    H2 3879   3.794   2.827   6.206
 1308TIP3   OH2 3880   0.083   5.509   4.368
 1308TIP3    H1 3881   0.105   5.553   4.286
 1308TIP3    H2 3882   0.102   5.574   4.436
 1309TIP3   OH2 3883   2.273   1.457   1.970
 1309TIP3    H1 3884   2.320   1.467   2.053
 1309TIP3    H2 3885   2.182   1.441   1.997
 1310TIP3   OH2 3886   1.677   3.305   1.823
 1310TIP3    H1 3887   1.587   3.316   1.794
 1310TIP3    H2 3888   1.670   3.263   1.909
 1311TIP3   OH2 3889   4.633   0.819   1.542
 1311TIP3    H1 3890   4.591   0.759   1.480
 1311TIP3    H2 3891   4.565   0.839   1.606
 1312TIP3   OH2 3892   3.621   3.882   0.781
 1312TIP3    H1 3893   3.648   3.956   0.728
 1312TIP3    H2 3894   3.538   3.909   0.821
 1313TIP3   OH2 3895   6.236   6.850   4.045
 1313TIP3    H1 3896   6.195   6.925   4.003
 1313TIP3    H2 3897   6.312   6.886   4.091
 1314TIP3   OH2 3898   5.994   3.842   1.792
 1314TIP3    H1 3899   6.062   3.789   1.833
 1314TIP3    H2 3900   5.914   3.789   1.799
 1315TIP3   OH2 3901   0.679   0.212   6.302
 1315TIP3    H1 3902   0.721   0.277   6.246
 1315TIP3    H2 3903   0.702   0.127   6.262
 1316TIP3   OH2 3904   4.833   5.161   5.160
 1316TIP3    H1 3905   4.890   5.084   5.168
 1316TIP3    H2 3906   4.768   5.151   5.229
 1317TIP3   OH2 3907   3.508   6.577   0.940
 1317TIP3    H1 3908   3.546   6.492   0.965
 1317TIP3    H2 3909   3.522   6.582   0.846
 1318TIP3   OH2 3910   1.340   6.228   0.415
 1318TIP3    H1 3911   1.428   6.240   0.453
 1318TIP3    H2 3912   1.281   6.265   0.481
 1319TIP3   OH2 3913   3.904   0.234   6.354
 1319TIP3    H1 3914   3.956   0.303   6.396
 1319TIP3    H2 3915   3.925   0.155   6.404
 1320TIP3   OH2 3916   7.893   2.171   4.674
 1320TIP3    H1 3917   7.927   2.101   4.618
 1320TIP3    H2 3918   7.856   2.125   4.749
 1321TIP3   OH2 3919   4.796   7.697   0.154
 1321TIP3    H1 3920   4.720   7.641   0.135
 1321TIP3    H2 3921   4.775   7.738   0.238
 1322TIP3   OH2 3922   4.732   7.514   2.177
 1322TIP3    H1 3923   4.742   7.609   2.172
 1322TIP3    H2 3924   4.645   7.498   2.138
 1323TIP3   OH2 3925   7.842   6.076   4.054
 1323TIP3    H1 3926   7.921   6.076   4.000
 1323TIP3    H2 3927   7.854   6.003   4.115
 1324TIP3   OH2 3928   3.811   5.892   4.151
 1324TIP3    H1 3929   3.812   5.954   4.077
 1324TIP3    H2 3930   3.819   5.806   4.110
 1325TIP3   OH2 3931   1.831   6.907   4.432
 1325TIP3    H1 3932   1.779   6.967   4.378
 1325TIP3    H2 3933   1.776   6.889   4.508
 1326TIP3   OH2 3934   5.615   5.174   1.005
 1326TIP3    H1 3935   5.691   5.124   0.976
 1326TIP3    H2 3936   5.650   5.237   1.067
 1327TIP3   OH2 3937   4.034   0.784   4.648
 1327TIP3    H1 3938   3.998   0.697   4.665
 1327TIP3    H2 3939   4.077   0.776   4.563
 1328TIP3   OH2 3940   6.867   7.282   5.395
 1328TIP3    H1 3941   6.803   7.351   5.414
 1328TIP3    H2 3942   6.843   7.211   5.454
 1329TIP3   OH2 3943   0.302   7.326   0.295
 1329TIP3    H1 3944   0.310   7.348   0.388
 1329TIP3    H2 3945   0.282   7.409   0.252
 1330TIP3   OH2 3946   0.780   1.548   5.806
 1330TIP3    H1 3947   0.782   1.627   5.861
 1330TIP3    H2 3948   0.831   1.484   5.854
 1331TIP3   OH2 3949   4.106   0.756   6.501
 1331TIP3    H1 3950   4.045   0.688   6.529
 1331TIP3    H2 3951   4.098   0.758   6.406
 1332TIP3   OH2 3952   5.735   0.993   1.656
 1332TIP3    H1 3953   5.825   0.989   1.690
 1332TIP3    H2 3954   5.696   0.910   1.682
 1333TIP3   OH2 3955   1.401   7.009   4.511
 1333TIP3    H1 3956   1.404   7.103   4.497
 1333TIP3    H2 3957   1.315   6.993   4.549
 1334TIP3   OH2 3958   2.986   3.581   2.897
 1334TIP3    H1 3959   3.079   3.593   2.878
 1334TIP3    H2 3960   2.942   3.634   2.830
 1335TIP3   OH2 3961   2.254   2.251   4.192
 1335TIP3    H1 3962   2.332   2.307   4.187
 1335TIP3    H2 3963   2.213   2.275   4.275
 1336TIP3   OH2 3964   3.045   7.322   3.830
 1336TIP3    H1 3965   3.073   7.413   3.843
 1336TIP3    H2 3966   2.950   7.324   3.839
 1337TIP3   OH2 3967   0.770   7.759   4.884
 1337TIP3    H1 3968   0.865   7.747   4.878
 1337TIP3    H2 3969   0.734   7.675   4.854
 1338TIP3   OH2 3970   6.827   5.317   3.244
 1338TIP3    H1 3971   6.886   5.242   3.249
 1338TIP3    H2 3972   6.772   5.310   3.322
 1339TIP3   OH2 3973   4.628   1.423   4.691
 1339TIP3    H1 3974   4.612   1.512   4.657
 1339TIP3    H2 3975   4.565   1.368   4.645
 1340TIP3   OH2 3976   0.977   6.197   5.064
 1340TIP3    H1 3977   1.048   6.134   5.054
 1340TIP3    H2 3978   0.902   6.144   5.092
 1341TIP3   OH2 3979   3.706   2.462   6.492
 1341TIP3    H1 3980   3.745   2.391   6.544
 1341TIP3    H2 3981   3.779   2.499   6.444
 1342TIP3   OH2 3982   4.602   7.122   0.068
 1342TIP3    H1 3983   4.673   7.060   0.086
 1342TIP3    H2 3984   4.612   7.188   0.137
 1343TIP3   OH2 3985   6.301   7.635   0.494
 1343TIP3    H1 3986   6.254   7.656   0.413
 1343TIP3    H2 3987   6.236   7.591   0.548
 1344TIP3   OH2 3988   4.617   4.320   0.969
 1344TIP3    H1 3989   4.625   4.346   0.877
 1344TIP3    H2 3990   4.665   4.238   0.975
 1345TIP3   OH2 3991   2.424   0.371   2.316
 1345TIP3    H1 3992   2.330   0.383   2.326
 1345TIP3    H2 3993   2.462   0.456   2.335
 1346TIP3   OH2 3994   7.670   0.511   1.255
 1346TIP3    H1 3995   7.703   0.447   1.191
 1346TIP3    H2 3996   7.708   0.483   1.338
 1347TIP3   OH2 3997   4.179   5.207   5.868
 1347TIP3    H1 3998   4.099   5.250   5.899
 1347TIP3    H2 3999   4.240   5.215   5.941
 1348TIP3   OH2 4000   0.373   2.470   5.421
 1348TIP3    H1 4001   0.322   2.511   5.351
 1348TIP3    H2 4002   0.445   2.530   5.438
 1349TIP3   OH2 4003   1.227   2.005   0.690
 1349TIP3    H1 4004   1.183   2.058   0.624
 1349TIP3    H2 4005   1.164   1.999   0.762
 1350TIP3   OH2 4006   6.618   4.545   4.948
 1350TIP3    H1 4007   6.686   4.607   4.920
 1350TIP3    H2 4008   6.644   4.462   4.909
 1351TIP3   OH2 4009   2.871   5.902   5.637
 1351TIP3    H1 4010   2.919   5.984   5.624
 1351TIP3    H2 4011   2.889   5.851   5.558
 1352TIP3   OH2 4012   6.529   1.613   2.762
 1352TIP3    H1 4013   6.481   1.608   2.844
 1352TIP3    H2 4014   6.561   1.703   2.758
 1353TIP3   OH2 4015   3.346   0.385   2.437
 1353TIP3    H1 4016   3.389   0.448   2.495
 1353TIP3    H2 4017   3.366   0.300   2.475
 1354TIP3   OH2 4018   2.957   2.229   3.088
 1354TIP3    H1 4019   2.955   2.303   3.148
 1354TIP3    H2 4020   3.024   2.170   3.125
 1355TIP3   OH2 4021   5.827   4.434   1.546
 1355TIP3    H1 4022   5.866   4.521   1.557
 1355TIP3    H2 4023   5.786   4.437   1.459
 1356TIP3   OH2 4024   5.378   5.411   2.538
 1356TIP3    H1 4025   5.327   5.369   2.469
 1356TIP3    H2 4026   5.437   5.343   2.570
 1357TIP3   OH2 4027   2.500   2.022   4.505
 1357TIP3    H1 4028   2.574   2.006   4.562
 1357TIP3    H2 4029   2.433   2.060   4.562
 1358TIP3   OH2 4030   6.872   0.670   6.146
 1358TIP3    H1 4031   6.891   0.724   6.070
 1358TIP3    H2 4032   6.953   0.623   6.163
 1359TIP3   OH2 4033   5.488   3.124   3.246
 1359TIP3    H1 4034   5.529   3.207   3.272
 1359TIP3    H2 4035   5.396   3.145   3.236
 1360TIP3   OH2 4036   2.788   3.052   4.931
 1360TIP3    H1 4037   2.846   3.122   4.901
 1360TIP3    H2 4038   2.701   3.091   4.932
 1361TIP3   OH2 4039   8.126   1.192   6.636
 1361TIP3    H1 4040   8.042   1.147   6.627
 1361TIP3    H2 4041   8.187   1.141   6.583
 1362TIP3   OH2 4042   6.289   6.137   0.101
 1362TIP3    H1 4043   6.370   6.143   0.151
 1362TIP3    H2 4044   6.314   6.092   0.020
 1363TIP3   OH2 4045   2.236   3.287   5.932
 1363TIP3    H1 4046   2.242   3.308   5.839
 1363TIP3    H2 4047   2.190   3.361   5.972
 1364TIP3   OH2 4048   0.521   3.050   6.310
 1364TIP3    H1 4049   0.479   3.123   6.356
 1364TIP3    H2 4050   0.471   2.973   6.337
 1365TIP3   OH2 4051   2.334   6.506   6.399
 1365TIP3    H1 4052   2.364   6.530   6.487
 1365TIP3    H2 4053   2.242   6.481   6.411
 1366TIP3   OH2 4054   1.906   3.566   6.464
 1366TIP3    H1 4055   1.998   3.582   6.484
 1366TIP3    H2 4056   1.860   3.587   6.545
 1367TIP3   OH2 4057   1.504   1.807   3.647
 1367TIP3    H1 4058   1.539   1.735   3.699
 1367TIP3    H2 4059   1.442   1.765   3.587
 1368TIP3   OH2 4060   6.856   1.274   3.920
 1368TIP3    H1 4061   6.807   1.356   3.913
 1368TIP3    H2 4062   6.793   1.212   3.957
 1369TIP3   OH2 4063   0.327   6.960   2.642
 1369TIP3    H1 4064   0.397   6.909   2.683
 1369TIP3    H2 4065   0.254   6.955   2.703
 1370TIP3   OH2 4066   3.194   0.708   6.365
 1370TIP3    H1 4067   3.148   0.790   6.382
 1370TIP3    H2 4068   3.125   0.641   6.368
 1371TIP3   OH2 4069   3.009   0.779   1.237
 1371TIP3    H1 4070   2.935   0.787   1.176
 1371TIP3    H2 4071   3.040   0.690   1.225
 1372TIP3   OH2 4072   3.945   2.995   2.023
 1372TIP3    H1 4073   3.992   3.059   1.969
 1372TIP3    H2 4074   3.872   2.966   1.968
 1373TIP3   OH2 4075   6.132   0.092   0.436
 1373TIP3    H1 4076   6.081   0.095   0.517
 1373TIP3    H2 4077   6.100   0.015   0.391
 1374TIP3   OH2 4078   2.824   1.297   0.481
 1374TIP3    H1 4079   2.908   1.285   0.526
 1374TIP3    H2 4080   2.824   1.388   0.454
 1375TIP3   OH2 4081   3.063   3.202   3.118
 1375TIP3    H1 4082   3.070   3.176   3.026
 1375TIP3    H2 4083   2.997   3.144   3.155
 1376TIP3   OH2 4084   3.476   2.758   4.044
 1376TIP3    H1 4085   3.496   2.805   4.125
 1376TIP3    H2 4086   3.419   2.818   3.996
 1377TIP3   OH2 4087   5.246   4.650   4.148
 1377TIP3    H1 4088   5.236   4.732   4.100
 1377TIP3    H2 4089   5.163   4.639   4.194
 1378TIP3   OH2 4090   6.421   2.653   5.779
 1378TIP3    H1 4091   6.362   2.723   5.807
 1378TIP3    H2 4092   6.449   2.679   5.691
 1379TIP3   OH2 4093   0.958   4.234   2.766
 1379TIP3    H1 4094   1.009   4.212   2.844
 1379TIP3    H2 4095   0.958   4.154   2.714
 1380TIP3   OH2 4096   5.078   1.843   3.958
 1380TIP3    H1 4097   4.996   1.824   4.003
 1380TIP3    H2 4098   5.130   1.763   3.968
 1381TIP3   OH2 4099   0.689   1.595   2.247
 1381TIP3    H1 4100   0.764   1.534   2.251
 1381TIP3    H2 4101   0.714   1.659   2.181
 1382TIP3   OH2 4102   7.003   7.059   0.282
 1382TIP3    H1 4103   7.014   7.064   0.377
 1382TIP3    H2 4104   6.923   7.108   0.265
 1383TIP3   OH2 4105   6.340   5.095   4.765
 1383TIP3    H1 4106   6.274   5.116   4.699
 1383TIP3    H2 4107   6.294   5.042   4.830
 1384TIP3   OH2 4108   4.252   5.190   4.646
 1384TIP3    H1 4109   4.242   5.178   4.740
 1384TIP3    H2 4110   4.259   5.102   4.611
 1385TIP3   OH2 4111   4.808   5.378   4.441
 1385TIP3    H1 4112   4.719   5.362   4.410
 1385TIP3    H2 4113   4.838   5.293   4.472
 1386TIP3   OH2 4114   3.763   0.803   0.479
 1386TIP3    H1 4115   3.706   0.730   0.502
 1386TIP3    H2 4116   3.750   0.867   0.549
 1387TIP3   OH2 4117   4.183   0.107   5.718
 1387TIP3    H1 4118   4.107   0.060   5.753
 1387TIP3    H2 4119   4.236   0.038   5.677
 1388TIP3   OH2 4120   2.332   4.322   4.785
 1388TIP3    H1 4121   2.392   4.388   4.750
 1388TIP3    H2 4122   2.287   4.287   4.708
 1389TIP3   OH2 4123   6.043   0.362   3.845
 1389TIP3    H1 4124   5.974   0.374   3.910
 1389TIP3    H2 4125   6.005   0.396   3.764
 1390TIP3   OH2 4126   0.134   5.271   3.337
 1390TIP3    H1 4127   0.175   5.327   3.271
 1390TIP3    H2 4128   0.050   5.246   3.299
 1391TIP3   OH2 4129   2.413   2.025   0.422
 1391TIP3    H1 4130   2.325   2.029   0.461
 1391TIP3    H2 4131   2.456   2.104   0.452
 1392TIP3   OH2 4132   4.855   1.195   1.306
 1392TIP3    H1 4133   4.890   1.259   1.244
 1392TIP3    H2 4134   4.889   1.111   1.274
 1393TIP3   OH2 4135   5.913   6.508   2.916
 1393TIP3    H1 4136   5.827   6.512   2.959
 1393TIP3    H2 4137   5.972   6.552   2.977
 1394TIP3   OH2 4138   0.624   6.502   0.128
 1394TIP3    H1 4139   0.627   6.585   0.174
 1394TIP3    H2 4140   0.535   6.469   0.142
 1395TIP3   OH2 4141   1.933   3.297   6.319
 1395TIP3    H1 4142   1.890   3.375   6.354
 1395TIP3    H2 4143   1.981   3.261   6.394
 1396TIP3   OH2 4144   2.788   6.060   2.439
 1396TIP3    H1 4145   2.775   6.002   2.514
 1396TIP3    H2 4146   2.880   6.051   2.417
 1397TIP3   OH2 4147   5.034   5.247   4.069
 1397TIP3    H1 4148   5.052   5.153   4.071
 1397TIP3    H2 4149   5.120   5.288   4.071
 1398TIP3   OH2 4150   2.199   7.049   5.583
 1398TIP3    H1 4151   2.285   7.013   5.603
 1398TIP3    H2 4152   2.218   7.127   5.530
 1399TIP3   OH2 4153   2.985   0.173   4.254
 1399TIP3    H1 4154   2.994   0.189   4.348
 1399TIP3    H2 4155   3.074   0.150   4.226
 1400TIP3   OH2 4156   5.464   7.830   4.298
 1400TIP3    H1 4157   5.416   7.755   4.265
 1400TIP3    H2 4158   5.436   7.838   4.390
 1401TIP3   OH2 4159   8.255   1.822   4.883
 1401TIP3    H1 4160   8.351   1.825   4.881
 1401TIP3    H2 4161   8.227   1.912   4.868
 1402TIP3   OH2 4162   1.207   4.894   1.811
 1402TIP3    H1 4163   1.254   4.974   1.833
 1402TIP3    H2 4164   1.130   4.924   1.763
 1403TIP3   OH2 4165   4.689   3.644   3.913
 1403TIP3    H1 4166   4.632   3.654   3.989
 1403TIP3    H2 4167   4.736   3.562   3.929
 1404TIP3   OH2 4168   2.205   4.538   4.120
 1404TIP3    H1 4169   2.181   4.448   4.095
 1404TIP3    H2 4170   2.295   4.531   4.150
 1405TIP3   OH2 4171   0.567   6.943   6.755
 1405TIP3    H1 4172   0.643   6.984   6.795
 1405TIP3    H2 4173   0.506   7.016   6.739
 1406TIP3   OH2 4174   7.009   3.358   2.087
 1406TIP3    H1 4175   6.970   3.445   2.084
 1406TIP3    H2 4176   6.966   3.315   2.161
 1407TIP3   OH2 4177   0.189   4.100   2.489
 1407TIP3    H1 4178   0.155   4.017   2.457
 1407TIP3    H2 4179   0.266   4.117   2.433
 1408TIP3   OH2 4180   7.253   6.292   4.052
 1408TIP3    H1 4181   7.281   6.217   3.999
 1408TIP3    H2 4182   7.301   6.282   4.135
 1409TIP3   OH2 4183   5.879   1.309   1.248
 1409TIP3    H1 4184   5.873   1.221   1.286
 1409TIP3    H2 4185   5.870   1.368   1.322
 1410TIP3   OH2 4186   8.297   6.022   6.410
 1410TIP3    H1 4187   8.258   5.941   6.444
 1410TIP3    H2 4188   8.302   6.080   6.486
 1411TIP3   OH2 4189   5.532   4.356   2.970
 1411TIP3    H1 4190   5.617   4.386   3.002
 1411TIP3    H2 4191   5.517   4.406   2.890
 1412TIP3   OH2 4192   4.800   3.110   2.462
 1412TIP3    H1 4193   4.799   3.167   2.540
 1412TIP3    H2 4194   4.707   3.089   2.447
 1413TIP3   OH2 4195   7.623   4.312   6.268
 1413TIP3    H1 4196   7.557   4.286   6.332
 1413TIP3    H2 4197   7.632   4.407   6.280
 1414TIP3   OH2 4198   6.217   7.514   6.037
 1414TIP3    H1 4199   6.211   7.419   6.033
 1414TIP3    H2 4200   6.129   7.543   6.061
 1415TIP3   OH2 4201   7.595   0.341   0.179
 1415TIP3    H1 4202   7.544   0.365   0.101
 1415TIP3    H2 4203   7.677   0.306   0.144
 1416TIP3   OH2 4204   7.055   1.244   1.025
 1416TIP3    H1 4205   6.993   1.184   1.066
 1416TIP3    H2 4206   7.017   1.331   1.038
 1417TIP3   OH2 4207   8.038   0.953   2.333
 1417TIP3    H1 4208   8.037   0.894   2.258
 1417TIP3    H2 4209   7.959   0.931   2.382
 1418TIP3   OH2 4210   4.158   3.962   6.520
 1418TIP3    H1 4211   4.072   3.969   6.561
 1418TIP3    H2 4212   4.191   4.052   6.518
 1419TIP3   OH2 4213   4.726   4.773   2.986
 1419TIP3    H1 4214   4.804   4.749   2.935
 1419TIP3    H2 4215   4.655   4.772   2.922
 1420TIP3   OH2 4216   5.686   3.692   4.278
 1420TIP3    H1 4217   5.625   3.764   4.292
 1420TIP3    H2 4218   5.632   3.613   4.280
 1421TIP3   OH2 4219   0.568   1.566   5.137
 1421TIP3    H1 4220   0.653   1.568   5.181
 1421TIP3    H2 4221   0.586   1.602   5.050
 1422TIP3   OH2 4222   3.065   5.543   4.553
 1422TIP3    H1 4223   3.040   5.467   4.607
 1422TIP3    H2 4224   3.145   5.576   4.593
 1423TIP3   OH2 4225   3.110   2.633   5.250
 1423TIP3    H1 4226   3.088   2.668   5.336
 1423TIP3    H2 4227   3.196   2.591   5.261
 1424TIP3   OH2 4228   3.681   1.629   4.403
 1424TIP3    H1 4229   3.671   1.711   4.451
 1424TIP3    H2 4230   3.633   1.565   4.456
 1425TIP3   OH2 4231   1.497   0.574   6.639
 1425TIP3    H1 4232   1.576   0.530   6.606
 1425TIP3    H2 4233   1.450   0.601   6.561
 1426TIP3   OH2 4234   2.110   0.209   0.230
 1426TIP3    H1 4235   2.141   0.262   0.303
 1426TIP3    H2 4236   2.032   0.164   0.263
 1427TIP3   OH2 4237   0.542   0.205   2.206
 1427TIP3    H1 4238   0.596   0.200   2.128
 1427TIP3    H2 4239   0.498   0.290   2.200
 1428TIP3   OH2 4240   5.189   4.604   2.618
 1428TIP3    H1 4241   5.181   4.582   2.525
 1428TIP3    H2 4242   5.158   4.694   2.625
 1429TIP3   OH2 4243   2.064   6.989   1.888
 1429TIP3    H1 4244   2.015   7.051   1.836
 1429TIP3    H2 4245   2.024   6.904   1.869
 1430TIP3   OH2 4246   1.422   2.002   4.667
 1430TIP3    H1 4247   1.352   1.948   4.704
 1430TIP3    H2 4248   1.502   1.961   4.698
 1431TIP3   OH2 4249   7.902   2.788   1.451
 1431TIP3    H1 4250   7.929   2.879   1.449
 1431TIP3    H2 4251   7.854   2.778   1.533
 1432TIP3   OH2 4252   7.588   2.988   2.309
 1432TIP3    H1 4253   7.546   2.922   2.253
 1432TIP3    H2 4254   7.643   2.937   2.368
 1433TIP3   OH2 4255   1.111   7.196   1.048
 1433TIP3    H1 4256   1.038   7.258   1.041
 1433TIP3    H2 4257   1.084   7.122   0.993
 1434TIP3   OH2 4258   2.240   1.305   1.506
 1434TIP3    H1 4259   2.194   1.380   1.469
 1434TIP3    H2 4260   2.331   1.317   1.480
 1435TIP3   OH2 4261   1.679   4.073  -0.001
 1435TIP3    H1 4262   1.668   4.166   0.020
 1435TIP3    H2 4263   1.772   4.065  -0.024
 1436TIP3   OH2 4264   7.497   5.730   5.785
 1436TIP3    H1 4265   7.529   5.644   5.811
 1436TIP3    H2 4266   7.535   5.790   5.849
 1437TIP3   OH2 4267   2.852   6.708   0.521
 1437TIP3    H1 4268   2.934   6.664   0.499
 1437TIP3    H2 4269   2.856   6.722   0.615
 1438TIP3   OH2 4270   4.708   1.185   6.285
 1438TIP3    H1 4271   4.670   1.169   6.372
 1438TIP3    H2 4272   4.798   1.214   6.304
 1439TIP3   OH2 4273   4.349   2.754   4.049
 1439TIP3    H1 4274   4.414   2.689   4.077
 1439TIP3    H2 4275   4.326   2.800   4.130
 1440TIP3   OH2 4276   4.120   6.860   5.544
 1440TIP3    H1 4277   4.207   6.895   5.562
 1440TIP3    H2 4278   4.122   6.771   5.579
 1441TIP3   OH2 4279   1.655   4.685   5.665
 1441TIP3    H1 4280   1.596   4.694   5.590
 1441TIP3    H2 4281   1.742   4.703   5.629
 1442TIP3   OH2 4282   6.352   5.296   4.338
 1442TIP3    H1 4283   6.313   5.296   4.250
 1442TIP3    H2 4284   6.352   5.388   4.365
 1443TIP3   OH2 4285   4.054   7.206   5.198
 1443TIP3    H1 4286   4.089   7.124   5.162
 1443TIP3    H2 4287   4.079   7.204   5.290
 1444TIP3   OH2 4288   0.281   7.248   2.752
 1444TIP3    H1 4289   0.314   7.177   2.697
 1444TIP3    H2 4290   0.358   7.280   2.799
 1445TIP3   OH2 4291   7.526   2.037   4.053
 1445TIP3    H1 4292   7.467   1.976   4.008
 1445TIP3    H2 4293   7.499   2.032   4.145
 1446TIP3   OH2 4294   2.718   6.584   3.143
 1446TIP3    H1 4295   2.661   6.559   3.216
 1446TIP3    H2 4296   2.660   6.590   3.068
 1447TIP3   OH2 4297   7.137   6.232   0.971
 1447TIP3    H1 4298   7.117   6.220   1.064
 1447TIP3    H2 4299   7.055   6.261   0.933
 1448TIP3   OH2 4300   0.742   7.500   4.798
 1448TIP3    H1 4301   0.832   7.469   4.809
 1448TIP3    H2 4302   0.703   7.439   4.736
 1449TIP3   OH2 4303   4.309   1.065   5.022
 1449TIP3    H1 4304   4.354   1.114   4.952
 1449TIP3    H2 4305   4.222   1.104   5.027
 1450TIP3   OH2 4306   5.281   3.786   5.374
 1450TIP3    H1 4307   5.188   3.770   5.390
 1450TIP3    H2 4308   5.289   3.882   5.370
 1451TIP3   OH2 4309   6.278   6.495   1.256
 1451TIP3    H1 4310   6.232   6.507   1.338
 1451TIP3    H2 4311   6.210   6.494   1.189
 1452TIP3   OH2 4312   3.271   5.894   3.163
 1452TIP3    H1 4313   3.335   5.949   3.208
 1452TIP3    H2 4314   3.273   5.811   3.210
 1453TIP3   OH2 4315   3.674   6.488   1.610
 1453TIP3    H1 4316   3.708   6.417   1.665
 1453TIP3    H2 4317   3.665   6.563   1.668
 1454TIP3   OH2 4318   2.081   3.971   4.710
 1454TIP3    H1 4319   1.996   4.010   4.689
 1454TIP3    H2 4320   2.088   3.978   4.805
 1455TIP3   OH2 4321   8.286   4.630   5.118
 1455TIP3    H1 4322   8.307   4.691   5.047
 1455TIP3    H2 4323   8.353   4.647   5.184
 1456TIP3   OH2 4324   2.524   7.299   3.095
 1456TIP3    H1 4325   2.516   7.357   3.171
 1456TIP3    H2 4326   2.434   7.288   3.063
 1457TIP3   OH2 4327   4.044   0.894   5.076
 1457TIP3    H1 4328   4.035   0.962   5.009
 1457TIP3    H2 4329   4.129   0.854   5.058
 1458TIP3   OH2 4330   5.193   1.731   3.537
 1458TIP3    H1 4331   5.183   1.780   3.456
 1458TIP3    H2 4332   5.166   1.642   3.515
 1459TIP3   OH2 4333   0.255   6.733   2.452
 1459TIP3    H1 4334   0.267   6.824   2.480
 1459TIP3    H2 4335   0.263   6.737   2.356
 1460TIP3   OH2 4336   6.345   3.376   3.371
 1460TIP3    H1 4337   6.304   3.307   3.318
 1460TIP3    H2 4338   6.272   3.433   3.396
 1461TIP3   OH2 4339   4.806   6.992   5.992
 1461TIP3    H1 4340   4.773   6.953   5.912
 1461TIP3    H2 4341   4.884   6.941   6.013
 1462TIP3   OH2 4342   3.600   4.049   3.457
 1462TIP3    H1 4343   3.578   3.956   3.444
 1462TIP3    H2 4344   3.649   4.051   3.540
 1463TIP3   OH2 4345   7.459   5.884   3.492
 1463TIP3    H1 4346   7.551   5.867   3.511
 1463TIP3    H2 4347   7.454   5.881   3.396
 1464TIP3   OH2 4348   4.466   4.321   3.563
 1464TIP3    H1 4349   4.542   4.368   3.598
 1464TIP3    H2 4350   4.401   4.390   3.547
 1465TIP3   OH2 4351   3.980   0.661   3.670
 1465TIP3    H1 4352   3.948   0.711   3.746
 1465TIP3    H2 4353   3.980   0.570   3.700
 1466TIP3   OH2 4354   2.847   5.829   6.678
 1466TIP3    H1 4355   2.819   5.921   6.673
 1466TIP3    H2 4356   2.892   5.822   6.761
 1467TIP3   OH2 4357   7.551   6.198   2.665
 1467TIP3    H1 4358   7.468   6.183   2.620
 1467TIP3    H2 4359   7.536   6.166   2.754
 1468TIP3   OH2 4360   7.052   5.181   3.152
 1468TIP3    H1 4361   7.131   5.235   3.162
 1468TIP3    H2 4362   7.085   5.094   3.128
 1469TIP3   OH2 4363   8.097   7.817   4.672
 1469TIP3    H1 4364   8.131   7.903   4.647
 1469TIP3    H2 4365   8.119   7.760   4.599
 1470TIP3   OH2 4366   6.387   2.147   5.958
 1470TIP3    H1 4367   6.329   2.134   6.032
 1470TIP3    H2 4368   6.362   2.232   5.922
 1471TIP3   OH2 4369   0.657   0.129   5.918
 1471TIP3    H1 4370   0.724   0.166   5.861
 1471TIP3    H2 4371   0.603   0.203   5.945
 1472TIP3   OH2 4372   2.172   3.025   4.050
 1472TIP3    H1 4373   2.122   2.960   4.100
 1472TIP3    H2 4374   2.199   3.090   4.115
 1473TIP3   OH2 4375   1.358   7.531   6.607
 1473TIP3    H1 4376   1.325   7.560   6.692
 1473TIP3    H2 4377   1.440   7.487   6.626
 1474TIP3   OH2 4378   6.736   2.758   0.955
 1474TIP3    H1 4379   6.694   2.724   1.034
 1474TIP3    H2 4380   6.830   2.751   0.973
 1475TIP3   OH2 4381   0.574   5.675   1.987
 1475TIP3    H1 4382   0.495   5.646   2.032
 1475TIP3    H2 4383   0.618   5.733   2.049
 1476TIP3   OH2 4384   3.190   1.742   2.139
 1476TIP3    H1 4385   3.282   1.732   2.163
 1476TIP3    H2 4386   3.142   1.700   2.210
 1477TIP3   OH2 4387   8.230   1.604   1.590
 1477TIP3    H1 4388   8.194   1.603   1.501
 1477TIP3    H2 4389   8.154   1.589   1.647
 1478TIP3   OH2 4390   6.703   1.716   1.334
 1478TIP3    H1 4391   6.636   1.780   1.311
 1478TIP3    H2 4392   6.730   1.741   1.423
 1479TIP3   OH2 4393   0.756   2.885   2.180
 1479TIP3    H1 4394   0.849   2.894   2.200
 1479TIP3    H2 4395   0.714   2.954   2.233
 1480TIP3   OH2 4396   5.791   2.922   2.885
 1480TIP3    H1 4397   5.719   2.981   2.906
 1480TIP3    H2 4398   5.757   2.863   2.819
 1481TIP3   OH2 4399   4.988   4.937   1.469
 1481TIP3    H1 4400   4.903   4.893   1.477
 1481TIP3    H2 4401   4.966   5.030   1.469
 1482TIP3   OH2 4402   7.865   2.022   4.909
 1482TIP3    H1 4403   7.914   2.048   4.987
 1482TIP3    H2 4404   7.891   1.931   4.894
 1483TIP3   OH2 4405   0.666   4.412   6.359
 1483TIP3    H1 4406   0.690   4.322   6.338
 1483TIP3    H2 4407   0.743   4.449   6.401
 1484TIP3   OH2 4408   5.075   2.492   0.815
 1484TIP3    H1 4409   5.029   2.416   0.778
 1484TIP3    H2 4410   5.167   2.470   0.808
 1485TIP3   OH2 4411   2.224   5.986   1.437
 1485TIP3    H1 4412   2.150   6.041   1.414
 1485TIP3    H2 4413   2.188   5.897   1.441
 1486TIP3   OH2 4414   0.755   1.731   3.801
 1486TIP3    H1 4415   0.796   1.809   3.840
 1486TIP3    H2 4416   0.695   1.767   3.735
 1487TIP3   OH2 4417   5.151   6.669   5.953
 1487TIP3    H1 4418   5.113   6.617   5.882
 1487TIP3    H2 4419   5.161   6.607   6.025
 1488TIP3   OH2 4420   1.107   2.688   2.018
 1488TIP3    H1 4421   1.146   2.704   2.104
 1488TIP3    H2 4422   1.060   2.768   1.998
 1489TIP3   OH2 4423   2.143   1.850   2.715
 1489TIP3    H1 4424   2.096   1.912   2.659
 1489TIP3    H2 4425   2.233   1.853   2.684
 1490TIP3   OH2 4426   5.183   3.661   0.070
 1490TIP3    H1 4427   5.277   3.668   0.083
 1490TIP3    H2 4428   5.172   3.647  -0.024
 1491TIP3   OH2 4429   2.628   2.252   0.206
 1491TIP3    H1 4430   2.555   2.242   0.144
 1491TIP3    H2 4431   2.592   2.304   0.277
 1492TIP3   OH2 4432   6.442   6.309   1.063
 1492TIP3    H1 4433   6.368   6.359   1.097
 1492TIP3    H2 4434   6.482   6.269   1.140
 1493TIP3   OH2 4435   1.696   5.159   3.270
 1493TIP3    H1 4436   1.725   5.142   3.360
 1493TIP3    H2 4437   1.605   5.129   3.268
 1494TIP3   OH2 4438   7.886   6.451   2.190
 1494TIP3    H1 4439   7.980   6.449   2.177
 1494TIP3    H2 4440   7.849   6.446   2.102
 1495TIP3   OH2 4441   4.864   1.978   4.821
 1495TIP3    H1 4442   4.906   1.893   4.838
 1495TIP3    H2 4443   4.886   2.031   4.897
 1496TIP3   OH2 4444   5.800   7.727   1.612
 1496TIP3    H1 4445   5.826   7.638   1.636
 1496TIP3    H2 4446   5.785   7.724   1.518
 1497TIP3   OH2 4447   8.141   0.179   2.095
 1497TIP3    H1 4448   8.052   0.175   2.129
 1497TIP3    H2 4449   8.186   0.241   2.151
 1498TIP3   OH2 4450   6.934   7.608   2.705
 1498TIP3    H1 4451   7.010   7.572   2.750
 1498TIP3    H2 4452   6.956   7.700   2.689
 1499TIP3   OH2 4453   4.459   1.854   1.591
 1499TIP3    H1 4454   4.552   1.861   1.608
 1499TIP3    H2 4455   4.425   1.800   1.662
 1500TIP3   OH2 4456   7.756   3.683   0.276
 1500TIP3    H1 4457   7.673   3.729   0.287
 1500TIP3    H2 4458   7.823   3.748   0.298
 1501TIP3   OH2 4459   6.581   6.632   1.664
 1501TIP3    H1 4460   6.623   6.718   1.676
 1501TIP3    H2 4461   6.490   6.647   1.691
 1502TIP3   OH2 4462   1.208   3.261   0.080
 1502TIP3    H1 4463   1.168   3.335   0.125
 1502TIP3    H2 4464   1.302   3.280   0.082
 1503TIP3   OH2 4465   7.539   4.835   3.180
 1503TIP3    H1 4466   7.628   4.806   3.161
 1503TIP3    H2 4467   7.486   4.756   3.169
 1504TIP3   OH2 4468   1.922   1.484   0.408
 1504TIP3    H1 4469   2.014   1.482   0.433
 1504TIP3    H2 4470   1.898   1.577   0.414
 1505TIP3   OH2 4471   2.508   6.165   1.382
 1505TIP3    H1 4472   2.490   6.219   1.459
 1505TIP3    H2 4473   2.422   6.133   1.355
 1506TIP3   OH2 4474   2.472   6.622   0.939
 1506TIP3    H1 4475   2.445   6.591   0.853
 1506TIP3    H2 4476   2.567   6.633   0.931
 1507TIP3   OH2 4477   7.040   0.436   5.844
 1507TIP3    H1 4478   7.114   0.496   5.850
 1507TIP3    H2 4479   7.067   0.359   5.893
 1508TIP3   OH2 4480   4.110   2.271   0.404
 1508TIP3    H1 4481   4.161   2.346   0.436
 1508TIP3    H2 4482   4.019   2.299   0.412
 1509TIP3   OH2 4483   5.721   5.516   4.549
 1509TIP3    H1 4484   5.765   5.558   4.476
 1509TIP3    H2 4485   5.745   5.568   4.626
 1510TIP3   OH2 4486   5.514   7.520   2.571
 1510TIP3    H1 4487   5.520   7.614   2.554
 1510TIP3    H2 4488   5.470   7.485   2.493
 1511TIP3   OH2 4489   7.744   7.055   5.898
 1511TIP3    H1 4490   7.768   6.974   5.851
 1511TIP3    H2 4491   7.754   7.033   5.990
 1512TIP3   OH2 4492   2.219   7.604   2.052
 1512TIP3    H1 4493   2.170   7.522   2.057
 1512TIP3    H2 4494   2.164   7.667   2.099
 1513TIP3   OH2 4495   3.200   5.585   1.476
 1513TIP3    H1 4496   3.150   5.662   1.448
 1513TIP3    H2 4497   3.182   5.578   1.570
 1514TIP3   OH2 4498   2.381   7.364   2.388
 1514TIP3    H1 4499   2.374   7.405   2.302
 1514TIP3    H2 4500   2.294   7.374   2.427
 1515TIP3   OH2 4501   3.201   7.711   2.424
 1515TIP3    H1 4502   3.263   7.673   2.362
 1515TIP3    H2 4503   3.116   7.674   2.397
 1516TIP3   OH2 4504   6.471   7.599   4.826
 1516TIP3    H1 4505   6.542   7.539   4.803
 1516TIP3    H2 4506   6.454   7.648   4.745
 1517TIP3   OH2 4507   7.978   3.722   4.273
 1517TIP3    H1 4508   7.951   3.640   4.229
 1517TIP3    H2 4509   7.976   3.701   4.366
 1518TIP3   OH2 4510   8.036   6.329   5.707
 1518TIP3    H1 4511   8.001   6.366   5.788
 1518TIP3    H2 4512   7.960   6.290   5.664
 1519TIP3   OH2 4513   6.641   7.620   5.987
 1519TIP3    H1 4514   6.644   7.542   6.042
 1519TIP3    H2 4515   6.705   7.602   5.917
 1520TIP3   OH2 4516   5.184   4.888   6.342
 1520TIP3    H1 4517   5.156   4.844   6.422
 1520TIP3    H2 4518   5.185   4.819   6.276
 1521TIP3   OH2 4519   2.327   1.948   0.908
 1521TIP3    H1 4520   2.413   1.910   0.889
 1521TIP3    H2 4521   2.346   2.026   0.961
 1522TIP3   OH2 4522   6.541   0.856   0.169
 1522TIP3    H1 4523   6.577   0.771   0.194
 1522TIP3    H2 4524   6.613   0.917   0.178
 1523TIP3   OH2 4525   7.786   2.142   3.641
 1523TIP3    H1 4526   7.804   2.059   3.596
 1523TIP3    H2 4527   7.776   2.118   3.733
 1524TIP3   OH2 4528   0.825   3.372   3.678
 1524TIP3    H1 4529   0.788   3.437   3.618
 1524TIP3    H2 4530   0.831   3.292   3.626
 1525TIP3   OH2 4531   0.155   4.666   3.830
 1525TIP3    H1 4532   0.179   4.655   3.921
 1525TIP3    H2 4533   0.237   4.658   3.782
 1526TIP3   OH2 4534   4.927   1.852   6.554
 1526TIP3    H1 4535   4.983   1.801   6.495
 1526TIP3    H2 4536   4.987   1.912   6.598
 1527TIP3   OH2 4537   4.196   5.296   2.727
 1527TIP3    H1 4538   4.191   5.206   2.694
 1527TIP3    H2 4539   4.107   5.329   2.721
 1528TIP3   OH2 4540   0.948   0.570   2.985
 1528TIP3    H1 4541   0.958   0.477   2.966
 1528TIP3    H2 4542   0.861   0.592   2.950
 1529TIP3   OH2 4543   0.513   1.263   3.882
 1529TIP3    H1 4544   0.491   1.303   3.966
 1529TIP3    H2 4545   0.542   1.337   3.828
 1530TIP3   OH2 4546   2.674   4.194   0.307
 1530TIP3    H1 4547   2.725   4.254   0.361
 1530TIP3    H2 4548   2.593   4.242   0.287
 1531TIP3   OH2 4549   6.131   0.909   3.860
 1531TIP3    H1 4550   6.173   0.824   3.874
 1531TIP3    H2 4551   6.071   0.919   3.934
 1532TIP3   OH2 4552   2.342   3.866   4.888
 1532TIP3    H1 4553   2.426   3.909   4.905
 1532TIP3    H2 4554   2.280   3.939   4.879
 1533TIP3   OH2 4555   4.087   6.372   0.297
 1533TIP3    H1 4556   4.017   6.399   0.357
 1533TIP3    H2 4557   4.061   6.284   0.268
 1534TIP3   OH2 4558   7.199   4.546   3.855
 1534TIP3    H1 4559   7.217   4.639   3.836
 1534TIP3    H2 4560   7.251   4.498   3.790
 1535TIP3   OH2 4561   6.039   2.708   0.357
 1535TIP3    H1 4562   6.099   2.634   0.351
 1535TIP3    H2 4563   6.003   2.718   0.269
 1536TIP3   OH2 4564   4.089   3.393   2.082
 1536TIP3    H1 4565   4.026   3.327   2.056
 1536TIP3    H2 4566   4.117   3.434   2.000
 1537TIP3   OH2 4567   3.865   2.274   5.004
 1537TIP3    H1 4568   3.806   2.338   4.965
 1537TIP3    H2 4569   3.936   2.265   4.941
 1538TIP3   OH2 4570   1.194   3.622   2.661
 1538TIP3    H1 4571   1.253   3.549   2.645
 1538TIP3    H2 4572   1.160   3.645   2.574
 1539TIP3   OH2 4573   5.337   6.836   3.013
 1539TIP3    H1 4574   5.274   6.901   2.981
 1539TIP3    H2 4575   5.316   6.756   2.966
 1540TIP3   OH2 4576   8.213   2.585   2.919
 1540TIP3    H1 4577   8.183   2.501   2.884
 1540TIP3    H2 4578   8.194   2.647   2.849
 1541TIP3   OH2 4579   0.438   4.953   5.872
 1541TIP3    H1 4580   0.523   4.941   5.916
 1541TIP3    H2 4581   0.397   5.025   5.919
 1542TIP3   OH2 4582   0.277   2.704   3.303
 1542TIP3    H1 4583   0.235   2.658   3.230
 1542TIP3    H2 4584   0.322   2.778   3.263
 1543TIP3   OH2 4585   2.005   4.014   0.798
 1543TIP3    H1 4586   1.914   3.990   0.814
 1543TIP3    H2 4587   2.050   3.931   0.785
 1544TIP3   OH2 4588   0.920   1.046   5.991
 1544TIP3    H1 4589   0.971   1.007   6.063
 1544TIP3    H2 4590   0.830   1.045   6.023
 1545TIP3   OH2 4591   4.581   6.917   3.888
 1545TIP3    H1 4592   4.522   6.857   3.843
 1545TIP3    H2 4593   4.532   6.999   3.895
 1546TIP3   OH2 4594   4.095   3.869   5.439
 1546TIP3    H1 4595   4.120   3.864   5.531
 1546TIP3    H2 4596   4.131   3.953   5.409
 1547TIP3   OH2 4597   6.234   7.232   1.001
 1547TIP3    H1 4598   6.194   7.301   1.053
 1547TIP3    H2 4599   6.164   7.202   0.942
 1548TIP3   OH2 4600   8.149   0.081   4.542
 1548TIP3    H1 4601   8.064   0.056   4.579
 1548TIP3    H2 4602   8.163   0.171   4.573
 1549TIP3   OH2 4603   7.232   0.078   4.619
 1549TIP3    H1 4604   7.325   0.098   4.608
 1549TIP3    H2 4605   7.216   0.004   4.561
 1550TIP3   OH2 4606   3.652   0.092   6.218
 1550TIP3    H1 4607   3.673   0.146   6.295
 1550TIP3    H2 4608   3.734   0.086   6.170
 1551TIP3   OH2 4609   2.225   5.364   0.607
 1551TIP3    H1 4610   2.253   5.413   0.684
 1551TIP3    H2 4611   2.141   5.403   0.583
 1552TIP3   OH2 4612   0.556   4.659   6.007
 1552TIP3    H1 4613   0.640   4.633   6.045
 1552TIP3    H2 4614   0.560   4.629   5.916
 1553TIP3   OH2 4615   0.390   5.491   2.448
 1553TIP3    H1 4616   0.384   5.398   2.425
 1553TIP3    H2 4617   0.414   5.491   2.541
 1554TIP3   OH2 4618   0.882   6.101   5.680
 1554TIP3    H1 4619   0.788   6.122   5.682
 1554TIP3    H2 4620   0.923   6.182   5.651
 1555TIP3   OH2 4621   7.061   6.106   4.963
 1555TIP3    H1 4622   7.132   6.056   4.923
 1555TIP3    H2 4623   7.101   6.145   5.041
 1556TIP3   OH2 4624   8.116   1.791   3.438
 1556TIP3    H1 4625   8.186   1.827   3.492
 1556TIP3    H2 4626   8.062   1.866   3.415
 1557TIP3   OH2 4627   0.554   7.052   3.560
 1557TIP3    H1 4628   0.533   7.135   3.602
 1557TIP3    H2 4629   0.478   6.996   3.578
 1558TIP3   OH2 4630   1.289   0.383   4.685
 1558TIP3    H1 4631   1.310   0.401   4.777
 1558TIP3    H2 4632   1.202   0.421   4.673
 1559TIP3   OH2 4633   1.387   4.279   1.047
 1559TIP3    H1 4634   1.426   4.361   1.077
 1559TIP3    H2 4635   1.309   4.269   1.101
 1560TIP3   OH2 4636   5.915   5.879   4.587
 1560TIP3    H1 4637   5.864   5.812   4.633
 1560TIP3    H2 4638   5.927   5.949   4.652
 1561TIP3   OH2 4639   4.708   5.547   2.535
 1561TIP3    H1 4640   4.760   5.627   2.535
 1561TIP3    H2 4641   4.764   5.482   2.578
 1562TIP3   OH2 4642   1.422   6.809   0.830
 1562TIP3    H1 4643   1.337   6.821   0.789
 1562TIP3    H2 4644   1.410   6.838   0.921
 1563TIP3   OH2 4645   5.656   5.313   6.618
 1563TIP3    H1 4646   5.715   5.240   6.636
 1563TIP3    H2 4647   5.568   5.276   6.628
 1564TIP3   OH2 4648   2.212   1.603   6.351
 1564TIP3    H1 4649   2.189   1.534   6.289
 1564TIP3    H2 4650   2.305   1.621   6.333
 1565TIP3   OH2 4651   8.267   6.159   2.920
 1565TIP3    H1 4652   8.204   6.089   2.934
 1565TIP3    H2 4653   8.226   6.215   2.854
 1566TIP3   OH2 4654   4.391   0.092   0.549
 1566TIP3    H1 4655   4.351   0.030   0.609
 1566TIP3    H2 4656   4.479   0.057   0.534
 1567TIP3   OH2 4657   2.225   0.144   1.105
 1567TIP3    H1 4658   2.253   0.059   1.071
 1567TIP3    H2 4659   2.238   0.205   1.032
 1568TIP3   OH2 4660   3.964   7.643   5.858
 1568TIP3    H1 4661   3.990   7.560   5.818
 1568TIP3    H2 4662   4.013   7.646   5.940
 1569TIP3   OH2 4663   6.487   3.781   3.018
 1569TIP3    H1 4664   6.534   3.698   3.020
 1569TIP3    H2 4665   6.512   3.821   2.934
 1570TIP3   OH2 4666   4.810   3.886   3.027
 1570TIP3    H1 4667   4.880   3.820   3.022
 1570TIP3    H2 4668   4.780   3.896   2.937
 1571TIP3   OH2 4669   1.201   4.756   4.059
 1571TIP3    H1 4670   1.199   4.849   4.082
 1571TIP3    H2 4671   1.190   4.711   4.143
 1572TIP3   OH2 4672   5.645   7.584   0.608
 1572TIP3    H1 4673   5.571   7.542   0.564
 1572TIP3    H2 4674   5.612   7.604   0.696
 1573TIP3   OH2 4675   1.515   7.785   3.467
 1573TIP3    H1 4676   1.436   7.829   3.499
 1573TIP3    H2 4677   1.559   7.852   3.414
 1574TIP3   OH2 4678   0.436   3.644   4.027
 1574TIP3    H1 4679   0.531   3.650   4.014
 1574TIP3    H2 4680   0.400   3.719   3.980
 1575TIP3   OH2 4681   1.539   0.859   2.939
 1575TIP3    H1 4682   1.490   0.785   2.902
 1575TIP3    H2 4683   1.630   0.837   2.923
 1576TIP3   OH2 4684   8.052   4.776   3.426
 1576TIP3    H1 4685   8.078   4.817   3.509
 1576TIP3    H2 4686   7.967   4.736   3.445
 1577TIP3   OH2 4687   5.910   1.786   0.932
 1577TIP3    H1 4688   5.891   1.874   0.964
 1577TIP3    H2 4689   5.882   1.728   1.002
 1578TIP3   OH2 4690   5.674   6.837   2.113
 1578TIP3    H1 4691   5.591   6.794   2.134
 1578TIP3    H2 4692   5.741   6.775   2.140
 1579TIP3   OH2 4693   0.699   4.309   0.449
 1579TIP3    H1 4694   0.732   4.392   0.414
 1579TIP3    H2 4695   0.743   4.299   0.533
 1580TIP3   OH2 4696   4.198   2.972   3.958
 1580TIP3    H1 4697   4.118   2.988   4.010
 1580TIP3    H2 4698   4.248   2.910   4.011
 1581TIP3   OH2 4699   0.976   4.034   1.767
 1581TIP3    H1 4700   1.068   4.020   1.744
 1581TIP3    H2 4701   0.927   3.992   1.697
 1582TIP3   OH2 4702   3.858   0.235   3.377
 1582TIP3    H1 4703   3.783   0.212   3.432
 1582TIP3    H2 4704   3.825   0.230   3.288
 1583TIP3   OH2 4705   5.164   2.577   4.091
 1583TIP3    H1 4706   5.202   2.563   4.178
 1583TIP3    H2 4707   5.073   2.548   4.099
 1584TIP3   OH2 4708   5.603   5.942   6.523
 1584TIP3    H1 4709   5.575   5.872   6.581
 1584TIP3    H2 4710   5.568   5.918   6.437
 1585TIP3   OH2 4711   2.970   0.828   1.503
 1585TIP3    H1 4712   2.986   0.817   1.409
 1585TIP3    H2 4713   3.020   0.905   1.527
 1586TIP3   OH2 4714   1.226   1.470   5.640
 1586TIP3    H1 4715   1.321   1.484   5.631
 1586TIP3    H2 4716   1.193   1.553   5.674
 1587TIP3   OH2 4717   6.617   2.420   2.787
 1587TIP3    H1 4718   6.635   2.366   2.865
 1587TIP3    H2 4719   6.655   2.505   2.807
 1588TIP3   OH2 4720   4.861   3.106   3.893
 1588TIP3    H1 4721   4.818   3.031   3.851
 1588TIP3    H2 4722   4.793   3.174   3.895
 1589TIP3   OH2 4723   6.300   3.956   2.163
 1589TIP3    H1 4724   6.375   3.982   2.217
 1589TIP3    H2 4725   6.225   3.997   2.206
 1590TIP3   OH2 4726   3.298   2.982   1.303
 1590TIP3    H1 4727   3.256   3.059   1.264
 1590TIP3    H2 4728   3.390   2.992   1.282
 1591TIP3   OH2 4729   4.798   5.477   1.802
 1591TIP3    H1 4730   4.843   5.511   1.724
 1591TIP3    H2 4731   4.725   5.425   1.766
 1592TIP3   OH2 4732   7.705   6.516   0.035
 1592TIP3    H1 4733   7.780   6.505   0.093
 1592TIP3    H2 4734   7.722   6.458  -0.039
 1593TIP3   OH2 4735   6.158   4.097   6.346
 1593TIP3    H1 4736   6.077   4.141   6.321
 1593TIP3    H2 4737   6.138   4.056   6.431
 1594TIP3   OH2 4738   3.085   6.999   4.147
 1594TIP3    H1 4739   3.047   6.927   4.197
 1594TIP3    H2 4740   3.127   6.957   4.072
 1595TIP3   OH2 4741   6.007   4.298   4.744
 1595TIP3    H1 4742   6.045   4.292   4.657
 1595TIP3    H2 4743   6.020   4.389   4.769
 1596TIP3   OH2 4744   0.321   4.356   5.092
 1596TIP3    H1 4745   0.233   4.341   5.128
 1596TIP3    H2 4746   0.380   4.317   5.157
 1597TIP3   OH2 4747   2.939   4.444   1.033
 1597TIP3    H1 4748   3.003   4.410   0.970
 1597TIP3    H2 4749   2.903   4.365   1.074
 1598TIP3   OH2 4750   1.073   5.596   0.589
 1598TIP3    H1 4751   1.070   5.520   0.647
 1598TIP3    H2 4752   1.155   5.587   0.541
 1599TIP3   OH2 4753   1.798   7.739   0.068
 1599TIP3    H1 4754   1.877   7.793   0.063
 1599TIP3    H2 4755   1.739   7.786   0.127
 1600TIP3   OH2 4756   3.125   4.990   0.081
 1600TIP3    H1 4757   3.122   4.895   0.067
 1600TIP3    H2 4758   3.214   5.015   0.057
 1601TIP3   OH2 4759   7.721   0.752   3.800
 1601TIP3    H1 4760   7.702   0.772   3.708
 1601TIP3    H2 4761   7.724   0.657   3.803
 1602TIP3   OH2 4762   5.346   2.029   4.256
 1602TIP3    H1 4763   5.341   2.069   4.169
 1602TIP3    H2 4764   5.264   2.055   4.299
 1603TIP3   OH2 4765   8.015   6.268   1.849
 1603TIP3    H1 4766   7.994   6.180   1.880
 1603TIP3    H2 4767   7.937   6.319   1.867
 1604TIP3   OH2 4768   7.893   5.754   3.835
 1604TIP3    H1 4769   7.879   5.672   3.787
 1604TIP3    H2 4770   7.946   5.729   3.910
 1605TIP3   OH2 4771   5.560   2.894   3.980
 1605TIP3    H1 4772   5.531   2.842   4.056
 1605TIP3    H2 4773   5.640   2.849   3.951
 1606TIP3   OH2 4774   7.587   1.294   4.588
 1606TIP3    H1 4775   7.590   1.359   4.519
 1606TIP3    H2 4776   7.571   1.211   4.543
 1607TIP3   OH2 4777   2.857   1.407   1.499
 1607TIP3    H1 4778   2.795   1.363   1.557
 1607TIP3    H2 4779   2.803   1.460   1.442
 1608TIP3   OH2 4780   0.630   3.068   4.208
 1608TIP3    H1 4781   0.649   3.154   4.246
 1608TIP3    H2 4782   0.624   3.085   4.114
 1609TIP3   OH2 4783   3.478   0.199   1.650
 1609TIP3    H1 4784   3.476   0.143   1.572
 1609TIP3    H2 4785   3.569   0.223   1.660
 1610TIP3   OH2 4786   3.434   5.004   5.288
 1610TIP3    H1 4787   3.473   4.967   5.368
 1610TIP3    H2 4788   3.451   4.938   5.221
 1611TIP3   OH2 4789   1.779   1.423   6.387
 1611TIP3    H1 4790   1.792   1.351   6.324
 1611TIP3    H2 4791   1.868   1.451   6.409
 1612TIP3   OH2 4792   4.235   1.711   3.660
 1612TIP3    H1 4793   4.214   1.638   3.718
 1612TIP3    H2 4794   4.318   1.744   3.693
 1613TIP3   OH2 4795   0.115   7.465   4.318
 1613TIP3    H1 4796   0.060   7.478   4.396
 1613TIP3    H2 4797   0.062   7.410   4.261
 1614TIP3   OH2 4798   7.195   5.748   1.723
 1614TIP3    H1 4799   7.243   5.828   1.745
 1614TIP3    H2 4800   7.197   5.746   1.627
 1615TIP3   OH2 4801   6.634   7.649   2.339
 1615TIP3    H1 4802   6.652   7.741   2.324
 1615TIP3    H2 4803   6.570   7.648   2.410
 1616TIP3   OH2 4804   4.242   4.536   3.570
 1616TIP3    H1 4805   4.244   4.584   3.653
 1616TIP3    H2 4806   4.151   4.544   3.540
 1617TIP3   OH2 4807   5.864   3.984   0.264
 1617TIP3    H1 4808   5.929   4.054   0.252
 1617TIP3    H2 4809   5.838   3.960   0.175
 1618TIP3   OH2 4810   1.469   1.678   4.662
 1618TIP3    H1 4811   1.503   1.738   4.728
 1618TIP3    H2 4812   1.468   1.593   4.705
 1619TIP3   OH2 4813   5.908   0.578   0.445
 1619TIP3    H1 4814   5.983   0.539   0.490
 1619TIP3    H2 4815   5.900   0.666   0.482
 1620TIP3   OH2 4816   1.727   0.507   3.853
 1620TIP3    H1 4817   1.677   0.530   3.775
 1620TIP3    H2 4818   1.778   0.585   3.873
 1621TIP3   OH2 4819   3.018   5.188   5.386
 1621TIP3    H1 4820   3.044   5.279   5.405
 1621TIP3    H2 4821   3.050   5.173   5.297
 1622TIP3   OH2 4822   3.223   1.871   2.542
 1622TIP3    H1 4823   3.259   1.818   2.613
 1622TIP3    H2 4824   3.135   1.896   2.572
 1623TIP3   OH2 4825   6.446   0.816   2.341
 1623TIP3    H1 4826   6.380   0.882   2.320
 1623TIP3    H2 4827   6.438   0.752   2.270
 1624TIP3   OH2 4828   5.105   7.552   5.849
 1624TIP3    H1 4829   5.146   7.486   5.904
 1624TIP3    H2 4830   5.131   7.529   5.760
 1625TIP3   OH2 4831   7.463   6.934   6.775
 1625TIP3    H1 4832   7.474   6.944   6.681
 1625TIP3    H2 4833   7.374   6.965   6.792
 1626TIP3   OH2 4834   3.832   3.771   6.153
 1626TIP3    H1 4835   3.845   3.731   6.239
 1626TIP3    H2 4836   3.752   3.731   6.120
 1627TIP3   OH2 4837   2.536   1.219   4.922
 1627TIP3    H1 4838   2.605   1.276   4.956
 1627TIP3    H2 4839   2.575   1.131   4.924
 1628TIP3   OH2 4840   3.943   0.939   6.062
 1628TIP3    H1 4841   3.861   0.988   6.056
 1628TIP3    H2 4842   3.946   0.908   6.152
 1629TIP3   OH2 4843   6.166   1.971   6.719
 1629TIP3    H1 4844   6.244   1.952   6.667
 1629TIP3    H2 4845   6.104   1.903   6.695
 1630TIP3   OH2 4846   7.144   5.420   5.256
 1630TIP3    H1 4847   7.083   5.469   5.311
 1630TIP3    H2 4848   7.219   5.403   5.314
 1631TIP3   OH2 4849   4.721   1.158   3.468
 1631TIP3    H1 4850   4.739   1.157   3.562
 1631TIP3    H2 4851   4.643   1.214   3.460
 1632TIP3   OH2 4852   6.022   5.151   5.153
 1632TIP3    H1 4853   5.966   5.142   5.076
 1632TIP3    H2 4854   6.005   5.072   5.204
 1633TIP3   OH2 4855   8.077   3.980   6.075
 1633TIP3    H1 4856   7.997   3.958   6.123
 1633TIP3    H2 4857   8.103   4.065   6.110
 1634TIP3   OH2 4858   2.111   6.073   2.205
 1634TIP3    H1 4859   2.130   6.108   2.118
 1634TIP3    H2 4860   2.197   6.061   2.245
 1635TIP3   OH2 4861   6.047   1.213   4.006
 1635TIP3    H1 4862   5.983   1.142   4.001
 1635TIP3    H2 4863   6.101   1.191   4.082
 1636TIP3   OH2 4864   1.189   2.254   2.992
 1636TIP3    H1 4865   1.144   2.173   2.968
 1636TIP3    H2 4866   1.205   2.245   3.086
 1637TIP3   OH2 4867   5.720   4.158   2.678
 1637TIP3    H1 4868   5.664   4.231   2.652
 1637TIP3    H2 4869   5.795   4.199   2.720
 1638TIP3   OH2 4870   7.406   0.518   4.697
 1638TIP3    H1 4871   7.335   0.456   4.680
 1638TIP3    H2 4872   7.433   0.549   4.610
 1639TIP3   OH2 4873   4.738   6.379   5.063
 1639TIP3    H1 4874   4.652   6.381   5.105
 1639TIP3    H2 4875   4.731   6.442   4.991
 1640TIP3   OH2 4876   7.795   7.163   5.618
 1640TIP3    H1 4877   7.808   7.131   5.707
 1640TIP3    H2 4878   7.870   7.220   5.602
 1641TIP3   OH2 4879   3.292   3.049   4.198
 1641TIP3    H1 4880   3.310   3.045   4.292
 1641TIP3    H2 4881   3.199   3.070   4.192
 1642TIP3   OH2 4882   4.800   7.007   4.497
 1642TIP3    H1 4883   4.774   7.052   4.416
 1642TIP3    H2 4884   4.879   6.958   4.473
 1643TIP3   OH2 4885   4.962   6.275   5.446
 1643TIP3    H1 4886   4.880   6.305   5.486
 1643TIP3    H2 4887   4.998   6.352   5.403
 1644TIP3   OH2 4888   8.249   7.011   2.762
 1644TIP3    H1 4889   8.195   6.986   2.837
 1644TIP3    H2 4890   8.206   6.971   2.686
 1645TIP3   OH2 4891   5.314   2.525   5.802
 1645TIP3    H1 4892   5.359   2.609   5.792
 1645TIP3    H2 4893   5.293   2.498   5.712
 1646TIP3   OH2 4894   3.997   1.003   2.318
 1646TIP3    H1 4895   4.072   0.970   2.269
 1646TIP3    H2 4896   3.967   0.928   2.369
 1647TIP3   OH2 4897   7.060   0.991   0.851
 1647TIP3    H1 4898   6.967   1.004   0.866
 1647TIP3    H2 4899   7.097   0.975   0.938
 1648TIP3   OH2 4900   7.590   2.730   6.724
 1648TIP3    H1 4901   7.625   2.656   6.674
 1648TIP3    H2 4902   7.496   2.713   6.731
 1649TIP3   OH2 4903   5.690   3.273   2.679
 1649TIP3    H1 4904   5.631   3.198   2.689
 1649TIP3    H2 4905   5.752   3.264   2.751
 1650TIP3   OH2 4906   4.021   4.904   5.427
 1650TIP3    H1 4907   4.104   4.872   5.394
 1650TIP3    H2 4908   3.999   4.844   5.499
 1651TIP3   OH2 4909   4.483   5.562   3.387
 1651TIP3    H1 4910   4.547   5.612   3.336
 1651TIP3    H2 4911   4.420   5.531   3.323
 1652TIP3   OH2 4912   3.394   7.277   2.744
 1652TIP3    H1 4913   3.405   7.369   2.769
 1652TIP3    H2 4914   3.471   7.258   2.690
 1653TIP3   OH2 4915   7.525   3.758   6.078
 1653TIP3    H1 4916   7.453   3.781   6.136
 1653TIP3    H2 4917   7.604   3.793   6.120
 1654TIP3   OH2 4918   0.111   3.684   3.012
 1654TIP3    H1 4919   0.077   3.711   2.926
 1654TIP3    H2 4920   0.196   3.728   3.018
 1655TIP3   OH2 4921   0.523   4.517   5.450
 1655TIP3    H1 4922   0.491   4.442   5.499
 1655TIP3    H2 4923   0.466   4.589   5.476
 1656TIP3   OH2 4924   1.734   5.698   6.118
 1656TIP3    H1 4925   1.766   5.755   6.048
 1656TIP3    H2 4926   1.701   5.621   6.072
 1657TIP3   OH2 4927   2.592   0.366   4.319
 1657TIP3    H1 4928   2.633   0.281   4.304
 1657TIP3    H2 4929   2.663   0.430   4.309
 1658TIP3   OH2 4930   1.119   7.290   3.540
 1658TIP3    H1 4931   1.194   7.344   3.567
 1658TIP3    H2 4932   1.068   7.347   3.482
 1659TIP3   OH2 4933   5.207   6.509   6.167
 1659TIP3    H1 4934   5.224   6.457   6.245
 1659TIP3    H2 4935   5.234   6.453   6.094
 1660TIP3   OH2 4936   0.924   1.408   4.234
 1660TIP3    H1 4937   0.897   1.468   4.165
 1660TIP3    H2 4938   0.844   1.361   4.259
 1661TIP3   OH2 4939   1.885   5.504   5.102
 1661TIP3    H1 4940   1.962   5.533   5.054
 1661TIP3    H2 4941   1.817   5.568   5.079
 1662TIP3   OH2 4942   3.010   1.820   5.828
 1662TIP3    H1 4943   3.070   1.844   5.758
 1662TIP3    H2 4944   3.066   1.776   5.893
 1663TIP3   OH2 4945   5.074   0.152   1.465
 1663TIP3    H1 4946   5.116   0.102   1.396
 1663TIP3    H2 4947   5.129   0.230   1.476
 1664TIP3   OH2 4948   7.720   1.461   1.005
 1664TIP3    H1 4949   7.675   1.542   1.028
 1664TIP3    H2 4950   7.771   1.483   0.926
 1665TIP3   OH2 4951   0.261   4.644   4.104
 1665TIP3    H1 4952   0.343   4.671   4.145
 1665TIP3    H2 4953   0.201   4.717   4.120
 1666TIP3   OH2 4954   1.269   7.598   1.094
 1666TIP3    H1 4955   1.183   7.571   1.126
 1666TIP3    H2 4956   1.326   7.523   1.112
 1667TIP3   OH2 4957   1.560   0.991   0.773
 1667TIP3    H1 4958   1.484   0.940   0.745
 1667TIP3    H2 4959   1.539   1.081   0.746
 1668TIP3   OH2 4960   6.971   5.895   6.025
 1668TIP3    H1 4961   7.048   5.852   5.986
 1668TIP3    H2 4962   7.008   5.961   6.084
 1669TIP3   OH2 4963   0.005   5.103   5.532
 1669TIP3    H1 4964  -0.039   5.038   5.586
 1669TIP3    H2 4965   0.062   5.150   5.593
 1670TIP3   OH2 4966   4.264   1.411   2.707
 1670TIP3    H1 4967   4.355   1.386   2.723
 1670TIP3    H2 4968   4.255   1.410   2.612
 1671TIP3   OH2 4969   0.121   2.087   4.644
 1671TIP3    H1 4970   0.041   2.139   4.642
 1671TIP3    H2 4971   0.182   2.135   4.587
 1672TIP3   OH2 4972   1.459   5.456   6.023
 1672TIP3    H1 4973   1.390   5.518   5.998
 1672TIP3    H2 4974   1.452   5.450   6.118
 1673TIP3   OH2 4975   3.981   5.395   5.627
 1673TIP3    H1 4976   4.026   5.311   5.629
 1673TIP3    H2 4977   3.890   5.374   5.610
 1674TIP3   OH2 4978   4.545   4.837   0.410
 1674TIP3    H1 4979   4.546   4.918   0.359
 1674TIP3    H2 4980   4.484   4.855   0.482
 1675TIP3   OH2 4981   6.412   6.094   5.661
 1675TIP3    H1 4982   6.505   6.074   5.648
 1675TIP3    H2 4983   6.408   6.190   5.661
 1676TIP3   OH2 4984   7.578   0.563   6.336
 1676TIP3    H1 4985   7.555   0.486   6.286
 1676TIP3    H2 4986   7.507   0.573   6.399
 1677TIP3   OH2 4987   4.979   2.756   4.781
 1677TIP3    H1 4988   4.928   2.819   4.833
 1677TIP3    H2 4989   4.915   2.714   4.724
 1678TIP3   OH2 4990   6.335   5.716   1.731
 1678TIP3    H1 4991   6.338   5.628   1.768
 1678TIP3    H2 4992   6.244   5.727   1.702
 1679TIP3   OH2 4993   4.259   5.874   2.651
 1679TIP3    H1 4994   4.191   5.828   2.700
 1679TIP3    H2 4995   4.338   5.822   2.666
 1680TIP3   OH2 4996   2.272   6.018   4.773
 1680TIP3    H1 4997   2.311   6.066   4.700
 1680TIP3    H2 4998   2.244   6.086   4.835
 1681TIP3   OH2 4999   8.086   5.400   4.841
 1681TIP3    H1 5000   8.069   5.444   4.758
 1681TIP3    H2 5001   8.076   5.468   4.907
 1682TIP3   OH2 5002   8.178   4.547   0.034
 1682TIP3    H1 5003   8.138   4.618  -0.018
 1682TIP3    H2 5004   8.140   4.558   0.121
 1683TIP3   OH2 5005   0.094   4.614   5.710
 1683TIP3    H1 5006   0.178   4.645   5.743
 1683TIP3    H2 5007   0.102   4.519   5.710
 1684TIP3   OH2 5008   5.450   3.696   0.562
 1684TIP3    H1 5009   5.519   3.639   0.597
 1684TIP3    H2 5010   5.494   3.753   0.500
 1685TIP3   OH2 5011   2.471   4.320   0.797
 1685TIP3    H1 5012   2.531   4.377   0.749
 1685TIP3    H2 5013   2.460   4.363   0.882
 1686TIP3   OH2 5014   7.281   0.845   6.433
 1686TIP3    H1 5015   7.264   0.752   6.448
 1686TIP3    H2 5016   7.376   0.850   6.423
 1687TIP3   OH2 5017   8.038   5.502   3.238
 1687TIP3    H1 5018   7.964   5.554   3.268
 1687TIP3    H2 5019   8.035   5.508   3.143
 1688TIP3   OH2 5020   5.716   3.405   5.933
 1688TIP3    H1 5021   5.791   3.431   5.880
 1688TIP3    H2 5022   5.641   3.418   5.875
 1689TIP3   OH2 5023   3.482   5.849   0.409
 1689TIP3    H1 5024   3.484   5.841   0.314
 1689TIP3    H2 5025   3.390   5.864   0.431
 1690TIP3   OH2 5026   5.969   7.151   6.666
 1690TIP3    H1 5027   5.911   7.226   6.656
 1690TIP3    H2 5028   5.926   7.095   6.730
 1691TIP3   OH2 5029   8.154   0.293   1.199
 1691TIP3    H1 5030   8.068   0.254   1.211
 1691TIP3    H2 5031   8.146   0.348   1.121
 1692TIP3   OH2 5032   3.277   4.657   2.427
 1692TIP3    H1 5033   3.282   4.562   2.431
 1692TIP3    H2 5034   3.364   4.687   2.454
 1693TIP3   OH2 5035   6.680   3.243   5.626
 1693TIP3    H1 5036   6.687   3.173   5.562
 1693TIP3    H2 5037   6.616   3.304   5.589
 1694TIP3   OH2 5038   0.581   7.589   1.779
 1694TIP3    H1 5039   0.577   7.680   1.811
 1694TIP3    H2 5040   0.549   7.594   1.690
 1695TIP3   OH2 5041   6.966   5.611   1.807
 1695TIP3    H1 5042   7.038   5.668   1.782
 1695TIP3    H2 5043   6.914   5.602   1.727
 1696TIP3   OH2 5044   2.082   3.244   4.944
 1696TIP3    H1 5045   2.082   3.152   4.918
 1696TIP3    H2 5046   2.110   3.291   4.865
 1697TIP3   OH2 5047   3.607   6.148   4.226
 1697TIP3    H1 5048   3.518   6.145   4.261
 1697TIP3    H2 5049   3.638   6.058   4.231
 1698TIP3   OH2 5050   7.029   0.349   3.284
 1698TIP3    H1 5051   7.018   0.306   3.199
 1698TIP3    H2 5052   6.972   0.299   3.343
 1699TIP3   OH2 5053   7.179   2.071   6.305
 1699TIP3    H1 5054   7.157   1.980   6.286
 1699TIP3    H2 5055   7.145   2.121   6.231
 1700TIP3   OH2 5056   5.673   5.823   4.381
 1700TIP3    H1 5057   5.681   5.906   4.333
 1700TIP3    H2 5058   5.725   5.761   4.330
 1701TIP3   OH2 5059   7.049   3.133   2.269
 1701TIP3    H1 5060   6.985   3.109   2.202
 1701TIP3    H2 5061   6.998   3.141   2.350
 1702TIP3   OH2 5062   1.784   2.055   1.362
 1702TIP3    H1 5063   1.810   2.147   1.357
 1702TIP3    H2 5064   1.728   2.051   1.440
 1703TIP3   OH2 5065   4.226   1.815   2.725
 1703TIP3    H1 5066   4.286   1.780   2.660
 1703TIP3    H2 5067   4.244   1.909   2.727
 1704TIP3   OH2 5068   0.840   1.628   1.275
 1704TIP3    H1 5069   0.889   1.612   1.195
 1704TIP3    H2 5070   0.881   1.705   1.314
 1705TIP3   OH2 5071   5.974   4.716   5.628
 1705TIP3    H1 5072   5.905   4.782   5.635
 1705TIP3    H2 5073   5.973   4.690   5.536
 1706TIP3   OH2 5074   3.310   0.357   1.139
 1706TIP3    H1 5075   3.391   0.309   1.155
 1706TIP3    H2 5076   3.252   0.294   1.096
 1707TIP3   OH2 5077   0.608   7.170   6.022
 1707TIP3    H1 5078   0.669   7.099   6.005
 1707TIP3    H2 5079   0.567   7.147   6.106
 1708TIP3   OH2 5080   5.732   6.200   6.454
 1708TIP3    H1 5081   5.696   6.111   6.455
 1708TIP3    H2 5082   5.825   6.188   6.437
 1709TIP3   OH2 5083   7.352   0.583   0.956
 1709TIP3    H1 5084   7.401   0.608   1.035
 1709TIP3    H2 5085   7.408   0.611   0.884
 1710TIP3   OH2 5086   5.200   6.025   2.872
 1710TIP3    H1 5087   5.186   5.950   2.815
 1710TIP3    H2 5088   5.192   5.989   2.961
 1711TIP3   OH2 5089   2.904   5.393   0.735
 1711TIP3    H1 5090   2.962   5.402   0.660
 1711TIP3    H2 5091   2.816   5.397   0.698
 1712TIP3   OH2 5092   0.650   4.597   3.209
 1712TIP3    H1 5093   0.741   4.581   3.232
 1712TIP3    H2 5094   0.636   4.547   3.129
 1713TIP3   OH2 5095   5.129   0.800   1.180
 1713TIP3    H1 5096   5.190   0.845   1.122
 1713TIP3    H2 5097   5.118   0.713   1.140
 1714TIP3   OH2 5098   4.675   1.669   4.264
 1714TIP3    H1 5099   4.723   1.666   4.347
 1714TIP3    H2 5100   4.598   1.723   4.283
 1715TIP3   OH2 5101   1.182   3.272   5.876
 1715TIP3    H1 5102   1.216   3.292   5.788
 1715TIP3    H2 5103   1.107   3.331   5.886
 1716TIP3   OH2 5104   3.209   4.599   5.077
 1716TIP3    H1 5105   3.167   4.678   5.042
 1716TIP3    H2 5106   3.174   4.528   5.023
 1717TIP3   OH2 5107   1.071   2.272   1.736
 1717TIP3    H1 5108   1.044   2.361   1.713
 1717TIP3    H2 5109   1.042   2.261   1.826
 1718TIP3   OH2 5110   4.380   7.581   2.893
 1718TIP3    H1 5111   4.287   7.595   2.871
 1718TIP3    H2 5112   4.427   7.617   2.818
 1719TIP3   OH2 5113   3.296   4.356   4.371
 1719TIP3    H1 5114   3.312   4.393   4.284
 1719TIP3    H2 5115   3.216   4.304   4.361
 1720TIP3   OH2 5116   1.513   6.653   1.474
 1720TIP3    H1 5117   1.595   6.635   1.520
 1720TIP3    H2 5118   1.462   6.706   1.535
 1721TIP3   OH2 5119   7.059   7.630   4.111
 1721TIP3    H1 5120   7.064   7.699   4.046
 1721TIP3    H2 5121   7.144   7.632   4.155
 1722TIP3   OH2 5122   5.235   3.484   0.365
 1722TIP3    H1 5123   5.252   3.490   0.271
 1722TIP3    H2 5124   5.239   3.390   0.384
 1723TIP3   OH2 5125   4.600   7.372   6.772
 1723TIP3    H1 5126   4.589   7.421   6.691
 1723TIP3    H2 5127   4.521   7.390   6.823
 1724TIP3   OH2 5128   3.698   7.374   3.748
 1724TIP3    H1 5129   3.637   7.439   3.712
 1724TIP3    H2 5130   3.785   7.410   3.729
 1725TIP3   OH2 5131   2.202   0.581   4.651
 1725TIP3    H1 5132   2.283   0.552   4.608
 1725TIP3    H2 5133   2.217   0.562   4.744
 1726TIP3   OH2 5134   4.996   7.834   0.503
 1726TIP3    H1 5135   4.985   7.749   0.459
 1726TIP3    H2 5136   4.966   7.819   0.592
 1727TIP3   OH2 5137   3.799   5.993   6.758
 1727TIP3    H1 5138   3.858   5.955   6.823
 1727TIP3    H2 5139   3.712   5.982   6.797
 1728TIP3   OH2 5140   7.677   7.194   0.163
 1728TIP3    H1 5141   7.624   7.169   0.087
 1728TIP3    H2 5142   7.665   7.288   0.170
 1729TIP3   OH2 5143   2.522   5.795   5.718
 1729TIP3    H1 5144   2.602   5.749   5.743
 1729TIP3    H2 5145   2.526   5.800   5.622
 1730TIP3   OH2 5146   2.856   4.811   0.560
 1730TIP3    H1 5147   2.857   4.797   0.655
 1730TIP3    H2 5148   2.836   4.725   0.524
 1731TIP3   OH2 5149   7.448   4.938   1.791
 1731TIP3    H1 5150   7.516   4.948   1.857
 1731TIP3    H2 5151   7.369   4.915   1.840
 1732TIP3   OH2 5152   5.307   0.890   3.598
 1732TIP3    H1 5153   5.257   0.934   3.529
 1732TIP3    H2 5154   5.380   0.949   3.617
 1733TIP3   OH2 5155   0.047   1.495   2.047
 1733TIP3    H1 5156  -0.009   1.480   1.971
 1733TIP3    H2 5157  -0.005   1.551   2.105
 1734TIP3   OH2 5158   5.311   6.830   5.595
 1734TIP3    H1 5159   5.322   6.753   5.650
 1734TIP3    H2 5160   5.357   6.808   5.514
 1735TIP3   OH2 5161   7.509   7.207   5.939
 1735TIP3    H1 5162   7.579   7.163   5.890
 1735TIP3    H2 5163   7.555   7.275   5.989
 1736TIP3   OH2 5164   1.992   2.852   1.227
 1736TIP3    H1 5165   1.963   2.906   1.153
 1736TIP3    H2 5166   2.084   2.835   1.209
 1737TIP3   OH2 5167   7.851   0.139   3.036
 1737TIP3    H1 5168   7.859   0.219   3.088
 1737TIP3    H2 5169   7.758   0.120   3.035
 1738TIP3   OH2 5170   1.212   0.599   6.168
 1738TIP3    H1 5171   1.266   0.568   6.241
 1738TIP3    H2 5172   1.274   0.610   6.096
 1739TIP3   OH2 5173   5.680   5.332   2.362
 1739TIP3    H1 5174   5.649   5.286   2.440
 1739TIP3    H2 5175   5.667   5.269   2.291
 1740TIP3   OH2 5176   1.069   3.454   6.149
 1740TIP3    H1 5177   1.025   3.521   6.201
 1740TIP3    H2 5178   1.161   3.480   6.149
 1741TIP3   OH2 5179   6.142   2.317   3.808
 1741TIP3    H1 5180   6.133   2.227   3.841
 1741TIP3    H2 5181   6.158   2.306   3.714
 1742TIP3   OH2 5182   6.939   0.178   6.751
 1742TIP3    H1 5183   7.034   0.188   6.763
 1742TIP3    H2 5184   6.920   0.222   6.669
 1743TIP3   OH2 5185   1.099   4.541   3.703
 1743TIP3    H1 5186   1.015   4.586   3.690
 1743TIP3    H2 5187   1.145   4.552   3.620
 1744TIP3   OH2 5188   6.782   6.105   0.576
 1744TIP3    H1 5189   6.714   6.060   0.627
 1744TIP3    H2 5190   6.769   6.073   0.486
 1745TIP3   OH2 5191   1.498   1.841   4.369
 1745TIP3    H1 5192   1.462   1.790   4.441
 1745TIP3    H2 5193   1.572   1.889   4.407
 1746TIP3   OH2 5194   1.114   5.045   1.384
 1746TIP3    H1 5195   1.206   5.023   1.368
 1746TIP3    H2 5196   1.069   5.022   1.302
 1747TIP3   OH2 5197   1.668   6.306   3.318
 1747TIP3    H1 5198   1.762   6.300   3.306
 1747TIP3    H2 5199   1.637   6.355   3.241
 1748TIP3   OH2 5200   0.338   6.879   4.489
 1748TIP3    H1 5201   0.250   6.841   4.484
 1748TIP3    H2 5202   0.335   6.955   4.430
 1749TIP3   OH2 5203   8.248   1.769   6.355
 1749TIP3    H1 5204   8.301   1.775   6.434
 1749TIP3    H2 5205   8.231   1.860   6.330
 1750TIP3   OH2 5206   7.738   4.720   2.045
 1750TIP3    H1 5207   7.715   4.675   1.963
 1750TIP3    H2 5208   7.655   4.756   2.077
 1751TIP3   OH2 5209   1.802   3.829   2.122
 1751TIP3    H1 5210   1.895   3.814   2.138
 1751TIP3    H2 5211   1.781   3.771   2.049
 1752TIP3   OH2 5212   1.502   0.290   3.104
 1752TIP3    H1 5213   1.484   0.224   3.036
 1752TIP3    H2 5214   1.565   0.247   3.162
 1753TIP3   OH2 5215   3.997   3.823   6.707
 1753TIP3    H1 5216   4.087   3.841   6.735
 1753TIP3    H2 5217   3.949   3.902   6.730
 1754TIP3   OH2 5218   4.830   7.393   0.713
 1754TIP3    H1 5219   4.759   7.448   0.744
 1754TIP3    H2 5220   4.909   7.445   0.728
 1755TIP3   OH2 5221   6.173   4.503   5.837
 1755TIP3    H1 5222   6.211   4.437   5.895
 1755TIP3    H2 5223   6.101   4.541   5.887
 1756TIP3   OH2 5224   4.025   4.116   2.714
 1756TIP3    H1 5225   4.097   4.074   2.760
 1756TIP3    H2 5226   3.947   4.097   2.767
 1757TIP3   OH2 5227   4.787   6.973   1.696
 1757TIP3    H1 5228   4.834   7.010   1.771
 1757TIP3    H2 5229   4.803   6.879   1.702
 1758TIP3   OH2 5230   7.961   2.606   0.908
 1758TIP3    H1 5231   7.898   2.557   0.961
 1758TIP3    H2 5232   7.996   2.673   0.968
 1759TIP3   OH2 5233   1.510   5.507   2.532
 1759TIP3    H1 5234   1.476   5.527   2.445
 1759TIP3    H2 5235   1.564   5.429   2.520
 1760TIP3   OH2 5236   6.894   3.596   2.069
 1760TIP3    H1 5237   6.822   3.586   2.007
 1760TIP3    H2 5238   6.884   3.684   2.104
 1761TIP3   OH2 5239   6.244   7.540   6.373
 1761TIP3    H1 5240   6.183   7.467   6.386
 1761TIP3    H2 5241   6.330   7.499   6.367
 1762TIP3   OH2 5242   6.725   6.826   6.619
 1762TIP3    H1 5243   6.650   6.879   6.646
 1762TIP3    H2 5244   6.745   6.771   6.695
 1763TIP3   OH2 5245   5.927   7.394   1.426
 1763TIP3    H1 5246   5.929   7.313   1.375
 1763TIP3    H2 5247   5.915   7.365   1.516
 1764TIP3   OH2 5248   1.020   3.306   3.467
 1764TIP3    H1 5249   0.959   3.232   3.465
 1764TIP3    H2 5250   1.014   3.339   3.556
 1765TIP3   OH2 5251   6.650   3.728   5.565
 1765TIP3    H1 5252   6.580   3.666   5.587
 1765TIP3    H2 5253   6.721   3.674   5.532
 1766TIP3   OH2 5254   5.300   7.191   6.544
 1766TIP3    H1 5255   5.308   7.160   6.453
 1766TIP3    H2 5256   5.344   7.124   6.596
 1767TIP3   OH2 5257   7.862   0.959   0.883
 1767TIP3    H1 5258   7.846   0.974   0.976
 1767TIP3    H2 5259   7.779   0.925   0.849
 1768TIP3   OH2 5260   2.380   3.293   1.152
 1768TIP3    H1 5261   2.456   3.276   1.096
 1768TIP3    H2 5262   2.329   3.213   1.148
 1769TIP3   OH2 5263   5.921   2.617   1.133
 1769TIP3    H1 5264   5.858   2.552   1.165
 1769TIP3    H2 5265   5.965   2.648   1.213
 1770TIP3   OH2 5266   4.971   7.593   0.925
 1770TIP3    H1 5267   4.966   7.586   1.021
 1770TIP3    H2 5268   5.057   7.558   0.903
 1771TIP3   OH2 5269   5.852   2.821   4.136
 1771TIP3    H1 5270   5.797   2.780   4.202
 1771TIP3    H2 5271   5.838   2.915   4.148
 1772TIP3   OH2 5272   4.750   2.724   2.463
 1772TIP3    H1 5273   4.689   2.687   2.399
 1772TIP3    H2 5274   4.695   2.779   2.519
 1773TIP3   OH2 5275   2.604   5.128   5.869
 1773TIP3    H1 5276   2.574   5.219   5.870
 1773TIP3    H2 5277   2.627   5.111   5.778
 1774TIP3   OH2 5278   2.625   0.947   4.926
 1774TIP3    H1 5279   2.578   0.889   4.865
 1774TIP3    H2 5280   2.680   0.888   4.977
 1775TIP3   OH2 5281   6.633   0.791   3.991
 1775TIP3    H1 5282   6.560   0.827   4.039
 1775TIP3    H2 5283   6.664   0.717   4.044
 1776TIP3   OH2 5284   4.899   1.950   0.847
 1776TIP3    H1 5285   4.978   1.898   0.837
 1776TIP3    H2 5286   4.880   1.947   0.941
 1777TIP3   OH2 5287   0.060   3.285   6.394
 1777TIP3    H1 5288   0.101   3.208   6.355
 1777TIP3    H2 5289  -0.001   3.317   6.327
 1778TIP3   OH2 5290   3.204   5.988   2.472
 1778TIP3    H1 5291   3.286   6.018   2.510
 1778TIP3    H2 5292   3.229   5.917   2.413
 1779TIP3   OH2 5293   2.992   7.583   3.855
 1779TIP3    H1 5294   2.967   7.577   3.763
 1779TIP3    H2 5295   2.933   7.649   3.892
 1780TIP3   OH2 5296   7.232   6.213   2.040
 1780TIP3    H1 5297   7.294   6.163   2.092
 1780TIP3    H2 5298   7.174   6.147   2.002
 1781TIP3   OH2 5299   7.063   0.571   3.926
 1781TIP3    H1 5300   6.975   0.575   3.889
 1781TIP3    H2 5301   7.121   0.602   3.857
 1782TIP3   OH2 5302   1.821   4.074   3.162
 1782TIP3    H1 5303   1.735   4.041   3.189
 1782TIP3    H2 5304   1.851   4.126   3.237
 1783TIP3   OH2 5305   6.456   0.241   3.429
 1783TIP3    H1 5306   6.473   0.183   3.503
 1783TIP3    H2 5307   6.409   0.315   3.467
 1784TIP3   OH2 5308   3.774   7.056   2.028
 1784TIP3    H1 5309   3.818   7.023   1.950
 1784TIP3    H2 5310   3.705   7.113   1.994
 1785TIP3   OH2 5311   5.067   4.420   6.320
 1785TIP3    H1 5312   5.037   4.500   6.277
 1785TIP3    H2 5313   5.082   4.358   6.248
 1786TIP3   OH2 5314   4.464   6.634   2.821
 1786TIP3    H1 5315   4.493   6.693   2.751
 1786TIP3    H2 5316   4.394   6.682   2.865
 1787TIP3   OH2 5317   0.751   1.240   3.678
 1787TIP3    H1 5318   0.766   1.198   3.593
 1787TIP3    H2 5319   0.804   1.319   3.675
 1788TIP3   OH2 5320   2.731   1.612   0.443
 1788TIP3    H1 5321   2.657   1.581   0.495
 1788TIP3    H2 5322   2.700   1.608   0.353
 1789TIP3   OH2 5323   7.714   5.734   0.996
 1789TIP3    H1 5324   7.657   5.685   1.054
 1789TIP3    H2 5325   7.677   5.720   0.909
 1790TIP3   OH2 5326   7.335   5.579   2.854
 1790TIP3    H1 5327   7.246   5.602   2.828
 1790TIP3    H2 5328   7.374   5.661   2.881
 1791TIP3   OH2 5329   6.374   7.621   5.850
 1791TIP3    H1 5330   6.457   7.591   5.888
 1791TIP3    H2 5331   6.307   7.592   5.912
 1792TIP3   OH2 5332   1.408   7.310   2.595
 1792TIP3    H1 5333   1.491   7.327   2.640
 1792TIP3    H2 5334   1.367   7.240   2.645
 1793TIP3   OH2 5335   2.541   2.019   2.513
 1793TIP3    H1 5336   2.520   1.949   2.576
 1793TIP3    H2 5337   2.513   1.984   2.428
 1794TIP3   OH2 5338   8.167   6.653   3.156
 1794TIP3    H1 5339   8.073   6.672   3.149
 1794TIP3    H2 5340   8.170   6.571   3.207
 1795TIP3   OH2 5341   6.202   4.393   0.370
 1795TIP3    H1 5342   6.273   4.375   0.432
 1795TIP3    H2 5343   6.162   4.474   0.401
 1796TIP3   OH2 5344   5.381   0.732   0.130
 1796TIP3    H1 5345   5.364   0.785   0.207
 1796TIP3    H2 5346   5.345   0.646   0.151
 1797TIP3   OH2 5347   0.361   1.990   5.976
 1797TIP3    H1 5348   0.409   2.070   5.955
 1797TIP3    H2 5349   0.309   1.971   5.898
 1798TIP3   OH2 5350   7.039   1.974   4.942
 1798TIP3    H1 5351   7.111   1.912   4.935
 1798TIP3    H2 5352   7.039   2.022   4.859
 1799TIP3   OH2 5353   3.583   4.643   3.491
 1799TIP3    H1 5354   3.516   4.628   3.558
 1799TIP3    H2 5355   3.636   4.563   3.491
 1800TIP3   OH2 5356   2.490   3.713   2.188
 1800TIP3    H1 5357   2.455   3.639   2.238
 1800TIP3    H2 5358   2.542   3.762   2.251
 1801TIP3   OH2 5359   3.076   6.475   6.140
 1801TIP3    H1 5360   3.106   6.437   6.057
 1801TIP3    H2 5361   3.021   6.407   6.179
 1802TIP3   OH2 5362   3.247   2.105   4.235
 1802TIP3    H1 5363   3.220   2.030   4.287
 1802TIP3    H2 5364   3.294   2.067   4.160
 1803TIP3   OH2 5365   0.155   0.635   3.264
 1803TIP3    H1 5366   0.201   0.562   3.223
 1803TIP3    H2 5367   0.198   0.644   3.350
 1804TIP3   OH2 5368   6.659   7.056   0.923
 1804TIP3    H1 5369   6.654   7.074   0.830
 1804TIP3    H2 5370   6.568   7.054   0.952
 1805TIP3   OH2 5371   5.209   4.504   5.076
 1805TIP3    H1 5372   5.203   4.508   5.171
 1805TIP3    H2 5373   5.145   4.439   5.050
 1806TIP3   OH2 5374   2.733   0.649   3.892
 1806TIP3    H1 5375   2.795   0.687   3.830
 1806TIP3    H2 5376   2.725   0.715   3.961
 1807TIP3   OH2 5377   5.975   1.803   5.818
 1807TIP3    H1 5378   5.916   1.747   5.767
 1807TIP3    H2 5379   5.960   1.891   5.782
 1808TIP3   OH2 5380   2.591   5.633   0.319
 1808TIP3    H1 5381   2.544   5.556   0.350
 1808TIP3    H2 5382   2.628   5.606   0.235
 1809TIP3   OH2 5383   3.814   0.192   4.976
 1809TIP3    H1 5384   3.899   0.218   5.012
 1809TIP3    H2 5385   3.819   0.097   4.969
 1810TIP3   OH2 5386   3.555   6.781   5.863
 1810TIP3    H1 5387   3.591   6.861   5.902
 1810TIP3    H2 5388   3.463   6.802   5.846
 1811TIP3   OH2 5389   7.467   0.105   6.691
 1811TIP3    H1 5390   7.489   0.175   6.629
 1811TIP3    H2 5391   7.511   0.028   6.657
 1812TIP3   OH2 5392   6.734   6.838   1.336
 1812TIP3    H1 5393   6.651   6.862   1.378
 1812TIP3    H2 5394   6.707   6.783   1.263
 1813TIP3   OH2 5395   0.294   2.871   6.592
 1813TIP3    H1 5396   0.293   2.865   6.496
 1813TIP3    H2 5397   0.360   2.808   6.619
 1814TIP3   OH2 5398   0.031   3.065   4.410
 1814TIP3    H1 5399   0.038   3.115   4.328
 1814TIP3    H2 5400   0.121   3.048   4.436
 1815TIP3   OH2 5401   6.539   6.999   6.646
 1815TIP3    H1 5402   6.586   7.063   6.592
 1815TIP3    H2 5403   6.467   6.969   6.590
 1816TIP3   OH2 5404   4.134   2.164   1.687
 1816TIP3    H1 5405   4.058   2.112   1.714
 1816TIP3    H2 5406   4.178   2.111   1.621
 1817TIP3   OH2 5407   3.466   7.547   2.719
 1817TIP3    H1 5408   3.417   7.627   2.704
 1817TIP3    H2 5409   3.521   7.537   2.642
 1818TIP3   OH2 5410   6.047   2.477   1.463
 1818TIP3    H1 5411   5.974   2.466   1.402
 1818TIP3    H2 5412   6.075   2.387   1.482
 1819TIP3   OH2 5413   5.330   7.564   3.452
 1819TIP3    H1 5414   5.387   7.548   3.527
 1819TIP3    H2 5415   5.352   7.653   3.423
 1820TIP3   OH2 5416   3.583   2.794   4.597
 1820TIP3    H1 5417   3.528   2.856   4.646
 1820TIP3    H2 5418   3.564   2.709   4.637
 1821TIP3   OH2 5419   6.339   4.259   5.955
 1821TIP3    H1 5420   6.328   4.169   5.987
 1821TIP3    H2 5421   6.378   4.306   6.028
 1822TIP3   OH2 5422   1.101   1.036   2.203
 1822TIP3    H1 5423   1.065   1.100   2.142
 1822TIP3    H2 5424   1.038   0.963   2.202
 1823TIP3   OH2 5425   1.688   1.379   3.621
 1823TIP3    H1 5426   1.602   1.365   3.580
 1823TIP3    H2 5427   1.672   1.445   3.689
 1824TIP3   OH2 5428   2.765   0.171   2.015
 1824TIP3    H1 5429   2.827   0.244   2.010
 1824TIP3    H2 5430   2.679   0.213   2.015
 1825TIP3   OH2 5431   7.170   3.357   1.450
 1825TIP3    H1 5432   7.158   3.444   1.487
 1825TIP3    H2 5433   7.088   3.311   1.469
 1826TIP3   OH2 5434   6.961   3.138   1.491
 1826TIP3    H1 5435   6.890   3.201   1.496
 1826TIP3    H2 5436   6.971   3.119   1.398
 1827TIP3   OH2 5437   3.443   7.841   5.950
 1827TIP3    H1 5438   3.418   7.873   6.036
 1827TIP3    H2 5439   3.372   7.782   5.925
 1828TIP3   OH2 5440   7.284   6.067   5.703
 1828TIP3    H1 5441   7.255   6.127   5.635
 1828TIP3    H2 5442   7.244   6.100   5.783
 1829TIP3   OH2 5443   1.394   3.671   3.372
 1829TIP3    H1 5444   1.349   3.703   3.295
 1829TIP3    H2 5445   1.344   3.707   3.446
 1830TIP3   OH2 5446   8.132   6.766   1.447
 1830TIP3    H1 5447   8.157   6.799   1.533
 1830TIP3    H2 5448   8.037   6.762   1.449
 1831TIP3   OH2 5449   1.833   6.296   4.376
 1831TIP3    H1 5450   1.897   6.299   4.304
 1831TIP3    H2 5451   1.866   6.228   4.434
 1832TIP3   OH2 5452   0.525   0.362   5.958
 1832TIP3    H1 5453   0.490   0.394   5.875
 1832TIP3    H2 5454   0.448   0.334   6.007
 1833TIP3   OH2 5455   1.007   5.767   3.586
 1833TIP3    H1 5456   0.986   5.839   3.646
 1833TIP3    H2 5457   1.090   5.732   3.618
 1834TIP3   OH2 5458   7.249   2.527   0.395
 1834TIP3    H1 5459   7.297   2.554   0.317
 1834TIP3    H2 5460   7.295   2.570   0.468
 1835TIP3   OH2 5461   1.473   2.509   3.907
 1835TIP3    H1 5462   1.394   2.517   3.959
 1835TIP3    H2 5463   1.503   2.419   3.922
 1836TIP3   OH2 5464   0.744   7.402   6.084
 1836TIP3    H1 5465   0.703   7.338   6.026
 1836TIP3    H2 5466   0.673   7.432   6.141
 1837TIP3   OH2 5467   5.658   4.054   2.080
 1837TIP3    H1 5468   5.720   4.097   2.021
 1837TIP3    H2 5469   5.714   4.004   2.140
 1838TIP3   OH2 5470   4.952   6.439   6.221
 1838TIP3    H1 5471   4.944   6.343   6.221
 1838TIP3    H2 5472   5.045   6.455   6.205
 1839TIP3   OH2 5473   7.414   5.398   0.099
 1839TIP3    H1 5474   7.341   5.336   0.093
 1839TIP3    H2 5475   7.376   5.477   0.138
 1840TIP3   OH2 5476   0.971   1.291   4.675
 1840TIP3    H1 5477   1.007   1.203   4.682
 1840TIP3    H2 5478   1.011   1.327   4.597
 1841TIP3   OH2 5479   1.093   7.167   1.846
 1841TIP3    H1 5480   1.171   7.222   1.853
 1841TIP3    H2 5481   1.125   7.078   1.860
 1842TIP3   OH2 5482   7.405   0.609   6.105
 1842TIP3    H1 5483   7.480   0.662   6.133
 1842TIP3    H2 5484   7.434   0.567   6.024
 1843TIP3   OH2 5485   4.417   2.384   6.106
 1843TIP3    H1 5486   4.453   2.472   6.105
 1843TIP3    H2 5487   4.388   2.370   6.196
 1844TIP3   OH2 5488   7.432   4.879   5.438
 1844TIP3    H1 5489   7.493   4.952   5.427
 1844TIP3    H2 5490   7.346   4.920   5.446
 1845TIP3   OH2 5491   4.326   3.340   5.143
 1845TIP3    H1 5492   4.409   3.305   5.109
 1845TIP3    H2 5493   4.352   3.410   5.202
 1846TIP3   OH2 5494   4.755   5.650   3.204
 1846TIP3    H1 5495   4.762   5.703   3.283
 1846TIP3    H2 5496   4.753   5.714   3.133
 1847TIP3   OH2 5497   6.238   3.910   4.342
 1847TIP3    H1 5498   6.203   3.946   4.260
 1847TIP3    H2 5499   6.295   3.979   4.376
 1848TIP3   OH2 5500   0.225   0.666   4.167
 1848TIP3    H1 5501   0.161   0.614   4.119
 1848TIP3    H2 5502   0.173   0.735   4.208
 1849TIP3   OH2 5503   6.570   3.460   3.112
 1849TIP3    H1 5504   6.575   3.403   3.188
 1849TIP3    H2 5505   6.661   3.479   3.090
 1850TIP3   OH2 5506   3.750   7.468   3.182
 1850TIP3    H1 5507   3.707   7.530   3.123
 1850TIP3    H2 5508   3.836   7.453   3.144
 1851TIP3   OH2 5509   7.204   2.830   3.614
 1851TIP3    H1 5510   7.111   2.810   3.603
 1851TIP3    H2 5511   7.228   2.787   3.697
 1852TIP3   OH2 5512   3.772   2.010   4.311
 1852TIP3    H1 5513   3.795   1.955   4.386
 1852TIP3    H2 5514   3.704   2.068   4.344
 1853TIP3   OH2 5515   6.080   7.308   3.742
 1853TIP3    H1 5516   6.164   7.353   3.751
 1853TIP3    H2 5517   6.027   7.341   3.815
 1854TIP3   OH2 5518   4.496   1.304   2.447
 1854TIP3    H1 5519   4.508   1.399   2.441
 1854TIP3    H2 5520   4.566   1.274   2.505
 1855TIP3   OH2 5521   3.403   0.265   4.469
 1855TIP3    H1 5522   3.478   0.325   4.478
 1855TIP3    H2 5523   3.427   0.189   4.520
 1856TIP3   OH2 5524   4.180   5.942   2.377
 1856TIP3    H1 5525   4.210   5.937   2.468
 1856TIP3    H2 5526   4.227   5.872   2.333
 1857TIP3   OH2 5527  -0.009   1.715   4.195
 1857TIP3    H1 5528   0.067   1.743   4.143
 1857TIP3    H2 5529   0.028   1.662   4.265
 1858TIP3   OH2 5530   1.657   1.665   2.860
 1858TIP3    H1 5531   1.692   1.720   2.790
 1858TIP3    H2 5532   1.569   1.643   2.830
 1859TIP3   OH2 5533   6.185   0.227   1.627
 1859TIP3    H1 5534   6.206   0.159   1.563
 1859TIP3    H2 5535   6.089   0.226   1.631
 1860TIP3   OH2 5536   7.690   4.764   2.365
 1860TIP3    H1 5537   7.648   4.790   2.283
 1860TIP3    H2 5538   7.637   4.691   2.397
 1861TIP3   OH2 5539   2.727   5.497   1.795
 1861TIP3    H1 5540   2.802   5.454   1.754
 1861TIP3    H2 5541   2.654   5.437   1.781
 1862TIP3   OH2 5542   5.486   2.119   2.458
 1862TIP3    H1 5543   5.481   2.210   2.488
 1862TIP3    H2 5544   5.535   2.124   2.375
 1863TIP3   OH2 5545   4.400   6.132   3.677
 1863TIP3    H1 5546   4.411   6.047   3.634
 1863TIP3    H2 5547   4.316   6.124   3.724
 1864TIP3   OH2 5548   2.660   2.026   0.960
 1864TIP3    H1 5549   2.625   2.014   1.048
 1864TIP3    H2 5550   2.753   2.043   0.973
 1865TIP3   OH2 5551   1.924   5.099   1.820
 1865TIP3    H1 5552   1.882   5.185   1.817
 1865TIP3    H2 5553   1.948   5.081   1.729
 1866TIP3   OH2 5554   4.988   4.125   1.876
 1866TIP3    H1 5555   4.944   4.209   1.863
 1866TIP3    H2 5556   5.078   4.140   1.848
 1867TIP3   OH2 5557   7.324   2.456   3.281
 1867TIP3    H1 5558   7.274   2.531   3.250
 1867TIP3    H2 5559   7.399   2.450   3.222
 1868TIP3   OH2 5560   3.817   6.197   2.653
 1868TIP3    H1 5561   3.818   6.228   2.562
 1868TIP3    H2 5562   3.847   6.272   2.704
 1869TIP3   OH2 5563   8.114   2.716   2.690
 1869TIP3    H1 5564   8.058   2.653   2.644
 1869TIP3    H2 5565   8.056   2.790   2.709
 1870TIP3   OH2 5566   6.189   1.299   3.319
 1870TIP3    H1 5567   6.204   1.226   3.380
 1870TIP3    H2 5568   6.191   1.377   3.375
 1871TIP3   OH2 5569   2.223   1.446   6.088
 1871TIP3    H1 5570   2.292   1.491   6.038
 1871TIP3    H2 5571   2.142   1.469   6.043
 1872TIP3   OH2 5572   7.021   5.046   0.018
 1872TIP3    H1 5573   6.943   5.007  -0.023
 1872TIP3    H2 5574   7.050   4.980   0.081
 1873TIP3   OH2 5575   8.064   5.397   1.145
 1873TIP3    H1 5576   8.107   5.346   1.077
 1873TIP3    H2 5577   8.002   5.452   1.097
 1874TIP3   OH2 5578   3.643   7.254   1.678
 1874TIP3    H1 5579   3.693   7.216   1.605
 1874TIP3    H2 5580   3.551   7.234   1.657
 1875TIP3   OH2 5581   4.280   4.970   4.433
 1875TIP3    H1 5582   4.319   4.920   4.505
 1875TIP3    H2 5583   4.349   5.029   4.405
 1876TIP3   OH2 5584   5.024   4.067   3.745
 1876TIP3    H1 5585   4.962   4.140   3.750
 1876TIP3    H2 5586   5.072   4.070   3.828
 1877TIP3   OH2 5587   6.298   5.905   2.801
 1877TIP3    H1 5588   6.268   5.900   2.892
 1877TIP3    H2 5589   6.364   5.835   2.793
 1878TIP3   OH2 5590   5.807   1.447   3.476
 1878TIP3    H1 5591   5.763   1.530   3.459
 1878TIP3    H2 5592   5.867   1.437   3.401
 1879TIP3   OH2 5593   2.764   4.295   3.668
 1879TIP3    H1 5594   2.739   4.386   3.686
 1879TIP3    H2 5595   2.811   4.299   3.584
 1880TIP3   OH2 5596   6.980   3.299   5.655
 1880TIP3    H1 5597   7.061   3.254   5.680
 1880TIP3    H2 5598   6.918   3.228   5.638
 1881TIP3   OH2 5599   2.087   3.962   2.554
 1881TIP3    H1 5600   2.159   4.011   2.595
 1881TIP3    H2 5601   2.081   3.998   2.466
 1882TIP3   OH2 5602   0.524   1.210   2.485
 1882TIP3    H1 5603   0.466   1.171   2.550
 1882TIP3    H2 5604   0.517   1.304   2.499
 1883TIP3   OH2 5605   3.707   3.544   2.752
 1883TIP3    H1 5606   3.744   3.628   2.725
 1883TIP3    H2 5607   3.746   3.480   2.692
 1884TIP3   OH2 5608   4.130   0.883   2.104
 1884TIP3    H1 5609   4.217   0.843   2.102
 1884TIP3    H2 5610   4.079   0.832   2.040
 1885TIP3   OH2 5611   6.232   6.814   0.898
 1885TIP3    H1 5612   6.175   6.737   0.899
 1885TIP3    H2 5613   6.262   6.820   0.807
 1886TIP3   OH2 5614   2.884   6.979   2.314
 1886TIP3    H1 5615   2.866   6.885   2.316
 1886TIP3    H2 5616   2.822   7.016   2.378
 1887TIP3   OH2 5617   3.440   2.372   6.055
 1887TIP3    H1 5618   3.400   2.446   6.009
 1887TIP3    H2 5619   3.489   2.412   6.126
 1888TIP3   OH2 5620   1.073   6.026   1.157
 1888TIP3    H1 5621   1.034   6.104   1.118
 1888TIP3    H2 5622   1.157   6.057   1.193
 1889TIP3   OH2 5623   0.879   3.267   2.577
 1889TIP3    H1 5624   0.887   3.350   2.624
 1889TIP3    H2 5625   0.878   3.200   2.645
 1890TIP3   OH2 5626   7.923   1.198   1.831
 1890TIP3    H1 5627   7.871   1.269   1.794
 1890TIP3    H2 5628   7.868   1.120   1.820
 1891TIP3   OH2 5629   6.120   2.338   6.209
 1891TIP3    H1 5630   6.184   2.409   6.208
 1891TIP3    H2 5631   6.041   2.378   6.243
 1892TIP3   OH2 5632   8.120   5.848   5.692
 1892TIP3    H1 5633   8.053   5.781   5.706
 1892TIP3    H2 5634   8.153   5.832   5.604
 1893TIP3   OH2 5635   5.290   0.922   5.621
 1893TIP3    H1 5636   5.231   0.870   5.567
 1893TIP3    H2 5637   5.378   0.890   5.599
 1894TIP3   OH2 5638   3.049   5.079   3.139
 1894TIP3    H1 5639   3.031   4.986   3.148
 1894TIP3    H2 5640   2.966   5.117   3.109
 1895TIP3   OH2 5641   6.947   7.431   3.560
 1895TIP3    H1 5642   6.900   7.478   3.629
 1895TIP3    H2 5643   6.963   7.344   3.597
 1896TIP3   OH2 5644   7.557   6.005   6.469
 1896TIP3    H1 5645   7.517   6.087   6.497
 1896TIP3    H2 5646   7.639   6.032   6.427
 1897TIP3   OH2 5647   2.921   0.071   1.701
 1897TIP3    H1 5648   2.999   0.126   1.686
 1897TIP3    H2 5649   2.886   0.056   1.613
 1898TIP3   OH2 5650   2.574   2.684   4.128
 1898TIP3    H1 5651   2.547   2.669   4.219
 1898TIP3    H2 5652   2.669   2.671   4.129
 1899TIP3   OH2 5653   7.603   1.842   6.050
 1899TIP3    H1 5654   7.652   1.769   6.088
 1899TIP3    H2 5655   7.513   1.828   6.079
 1900TIP3   OH2 5656   8.016   3.127   6.658
 1900TIP3    H1 5657   7.938   3.083   6.693
 1900TIP3    H2 5658   8.025   3.093   6.569
 1901TIP3   OH2 5659   4.784   0.909   2.409
 1901TIP3    H1 5660   4.723   0.837   2.426
 1901TIP3    H2 5661   4.728   0.986   2.399
 1902TIP3   OH2 5662   6.032   3.651   6.012
 1902TIP3    H1 5663   6.099   3.679   5.950
 1902TIP3    H2 5664   5.969   3.603   5.960
 1903TIP3   OH2 5665   5.560   0.516   2.661
 1903TIP3    H1 5666   5.540   0.521   2.755
 1903TIP3    H2 5667   5.539   0.425   2.638
 1904TIP3   OH2 5668   4.227   4.983   2.953
 1904TIP3    H1 5669   4.314   4.968   2.989
 1904TIP3    H2 5670   4.237   4.972   2.859
 1905TIP3   OH2 5671   5.036   0.692   4.056
 1905TIP3    H1 5672   5.067   0.602   4.057
 1905TIP3    H2 5673   4.996   0.702   3.970
 1906TIP3   OH2 5674   7.113   3.129   5.094
 1906TIP3    H1 5675   7.047   3.164   5.035
 1906TIP3    H2 5676   7.187   3.189   5.086
 1907TIP3   OH2 5677   0.678   5.949   1.021
 1907TIP3    H1 5678   0.749   5.986   0.967
 1907TIP3    H2 5679   0.618   6.023   1.035
 1908TIP3   OH2 5680   0.198   1.052   3.131
 1908TIP3    H1 5681   0.251   0.979   3.100
 1908TIP3    H2 5682   0.115   1.043   3.085
 1909TIP3   OH2 5683   7.821   4.185   4.483
 1909TIP3    H1 5684   7.727   4.171   4.469
 1909TIP3    H2 5685   7.863   4.117   4.430
 1910TIP3   OH2 5686   0.461   4.800   4.288
 1910TIP3    H1 5687   0.431   4.863   4.354
 1910TIP3    H2 5688   0.546   4.834   4.260
 1911TIP3   OH2 5689   1.424   3.562   3.748
 1911TIP3    H1 5690   1.473   3.503   3.806
 1911TIP3    H2 5691   1.448   3.534   3.660
 1912TIP3   OH2 5692   6.539   6.593   5.000
 1912TIP3    H1 5693   6.571   6.578   4.911
 1912TIP3    H2 5694   6.567   6.682   5.020
 1913TIP3   OH2 5695   1.443   1.121   2.896
 1913TIP3    H1 5696   1.389   1.132   2.974
 1913TIP3    H2 5697   1.477   1.032   2.902
 1914TIP3   OH2 5698   7.998   7.400   1.801
 1914TIP3    H1 5699   8.011   7.356   1.717
 1914TIP3    H2 5700   7.915   7.447   1.792
 1915TIP3   OH2 5701   2.953   0.630   1.679
 1915TIP3    H1 5702   2.864   0.614   1.710
 1915TIP3    H2 5703   2.942   0.693   1.607
 1916TIP3   OH2 5704   5.354   7.148   3.638
 1916TIP3    H1 5705   5.263   7.175   3.644
 1916TIP3    H2 5706   5.381   7.173   3.550
 1917TIP3   OH2 5707   3.560   2.136   4.877
 1917TIP3    H1 5708   3.550   2.226   4.909
 1917TIP3    H2 5709   3.479   2.119   4.829
 1918TIP3   OH2 5710   4.422   3.731   3.829
 1918TIP3    H1 5711   4.497   3.673   3.814
 1918TIP3    H2 5712   4.451   3.789   3.900
 1919TIP3   OH2 5713   3.222   1.752   0.089
 1919TIP3    H1 5714   3.234   1.708   0.173
 1919TIP3    H2 5715   3.180   1.687   0.033
 1920TIP3   OH2 5716   2.198  -0.044   2.759
 1920TIP3    H1 5717   2.164   0.041   2.786
 1920TIP3    H2 5718   2.204  -0.039   2.664
 1921TIP3   OH2 5719   6.025   7.582   4.584
 1921TIP3    H1 5720   6.084   7.513   4.614
 1921TIP3    H2 5721   5.972   7.540   4.516
 1922TIP3   OH2 5722   6.591   4.605   5.655
 1922TIP3    H1 5723   6.553   4.613   5.567
 1922TIP3    H2 5724   6.582   4.512   5.677
 1923TIP3   OH2 5725   3.293   6.516   0.456
 1923TIP3    H1 5726   3.222   6.557   0.406
 1923TIP3    H2 5727   3.249   6.473   0.530
 1924TIP3   OH2 5728   1.477   7.122   0.266
 1924TIP3    H1 5729   1.466   7.112   0.361
 1924TIP3    H2 5730   1.511   7.037   0.238
 1925TIP3   OH2 5731   0.765   2.935   1.719
 1925TIP3    H1 5732   0.691   2.889   1.680
 1925TIP3    H2 5733   0.763   3.022   1.680
 1926TIP3   OH2 5734   7.652   7.536   0.896
 1926TIP3    H1 5735   7.682   7.516   0.807
 1926TIP3    H2 5736   7.603   7.618   0.887
 1927TIP3   OH2 5737   5.340   5.941   4.531
 1927TIP3    H1 5738   5.393   5.970   4.457
 1927TIP3    H2 5739   5.298   6.022   4.563
 1928TIP3   OH2 5740   4.204   2.880   5.663
 1928TIP3    H1 5741   4.153   2.861   5.584
 1928TIP3    H2 5742   4.285   2.919   5.629
 1929TIP3   OH2 5743   3.944   3.413   4.109
 1929TIP3    H1 5744   3.926   3.507   4.112
 1929TIP3    H2 5745   3.969   3.390   4.198
 1930TIP3   OH2 5746   6.473   3.738   0.160
 1930TIP3    H1 5747   6.474   3.831   0.185
 1930TIP3    H2 5748   6.545   3.699   0.210
 1931TIP3   OH2 5749   6.095   3.522   2.418
 1931TIP3    H1 5750   6.167   3.460   2.403
 1931TIP3    H2 5751   6.068   3.506   2.508
 1932TIP3   OH2 5752   4.876   7.582   4.680
 1932TIP3    H1 5753   4.817   7.509   4.662
 1932TIP3    H2 5754   4.964   7.546   4.668
 1933TIP3   OH2 5755   5.205   1.768   5.660
 1933TIP3    H1 5756   5.222   1.841   5.720
 1933TIP3    H2 5757   5.160   1.808   5.585
 1934TIP3   OH2 5758   2.427   6.816   2.327
 1934TIP3    H1 5759   2.423   6.732   2.281
 1934TIP3    H2 5760   2.521   6.834   2.334
 1935TIP3   OH2 5761   0.387   6.600   2.949
 1935TIP3    H1 5762   0.392   6.662   3.021
 1935TIP3    H2 5763   0.429   6.645   2.875
 1936TIP3   OH2 5764   4.373   7.723   0.157
 1936TIP3    H1 5765   4.331   7.656   0.103
 1936TIP3    H2 5766   4.394   7.678   0.239
 1937TIP3   OH2 5767   7.597   0.364   3.517
 1937TIP3    H1 5768   7.606   0.409   3.433
 1937TIP3    H2 5769   7.671   0.304   3.520
 1938TIP3   OH2 5770   0.255   7.544   3.070
 1938TIP3    H1 5771   0.232   7.454   3.047
 1938TIP3    H2 5772   0.208   7.561   3.152
 1939TIP3   OH2 5773   3.770   5.373   6.774
 1939TIP3    H1 5774   3.724   5.290   6.765
 1939TIP3    H2 5775   3.835   5.372   6.704
 1940TIP3   OH2 5776   5.844   2.527   0.710
 1940TIP3    H1 5777   5.898   2.602   0.736
 1940TIP3    H2 5778   5.775   2.565   0.656
 1941TIP3   OH2 5779   7.175   0.960   0.022
 1941TIP3    H1 5780   7.228   0.911   0.084
 1941TIP3    H2 5781   7.225   0.958  -0.059
 1942TIP3   OH2 5782   6.546   4.458   3.698
 1942TIP3    H1 5783   6.554   4.454   3.603
 1942TIP3    H2 5784   6.547   4.366   3.726
 1943TIP3   OH2 5785   0.526   0.400   5.210
 1943TIP3    H1 5786   0.586   0.467   5.243
 1943TIP3    H2 5787   0.498   0.353   5.289
 1944TIP3   OH2 5788   2.272   0.579   5.430
 1944TIP3    H1 5789   2.214   0.538   5.367
 1944TIP3    H2 5790   2.329   0.635   5.377
 1945TIP3   OH2 5791   3.354   3.687   0.995
 1945TIP3    H1 5792   3.385   3.750   1.060
 1945TIP3    H2 5793   3.310   3.740   0.929
 1946TIP3   OH2 5794   7.156   0.297   3.682
 1946TIP3    H1 5795   7.136   0.206   3.705
 1946TIP3    H2 5796   7.070   0.338   3.667
 1947TIP3   OH2 5797   3.331   3.866   2.602
 1947TIP3    H1 5798   3.358   3.907   2.520
 1947TIP3    H2 5799   3.369   3.778   2.598
 1948TIP3   OH2 5800   7.143   4.290   1.855
 1948TIP3    H1 5801   7.197   4.227   1.808
 1948TIP3    H2 5802   7.053   4.264   1.836
 1949TIP3   OH2 5803   0.466   1.597   3.419
 1949TIP3    H1 5804   0.415   1.522   3.450
 1949TIP3    H2 5805   0.403   1.669   3.417
 1950TIP3   OH2 5806   2.378   0.405   4.119
 1950TIP3    H1 5807   2.436   0.410   4.195
 1950TIP3    H2 5808   2.413   0.471   4.059
 1951TIP3   OH2 5809   7.080   4.148   0.112
 1951TIP3    H1 5810   6.999   4.150   0.059
 1951TIP3    H2 5811   7.103   4.240   0.123
 1952TIP3   OH2 5812   1.548   4.814   0.452
 1952TIP3    H1 5813   1.590   4.834   0.369
 1952TIP3    H2 5814   1.588   4.731   0.480
 1953TIP3   OH2 5815   6.418   0.402   1.533
 1953TIP3    H1 5816   6.429   0.345   1.457
 1953TIP3    H2 5817   6.324   0.399   1.553
 1954TIP3   OH2 5818   7.391   2.796   4.883
 1954TIP3    H1 5819   7.329   2.740   4.930
 1954TIP3    H2 5820   7.342   2.875   4.863
 1955TIP3   OH2 5821   7.509   1.159   0.571
 1955TIP3    H1 5822   7.570   1.231   0.589
 1955TIP3    H2 5823   7.461   1.148   0.653
 1956TIP3   OH2 5824   0.124   1.282   2.940
 1956TIP3    H1 5825   0.189   1.303   3.008
 1956TIP3    H2 5826   0.064   1.221   2.983
 1957TIP3   OH2 5827   7.993   7.345   5.526
 1957TIP3    H1 5828   7.998   7.345   5.430
 1957TIP3    H2 5829   8.065   7.403   5.553
 1958TIP3   OH2 5830   2.500   0.078   0.398
 1958TIP3    H1 5831   2.592   0.059   0.415
 1958TIP3    H2 5832   2.452   0.012   0.449
 1959TIP3   OH2 5833   0.277   4.962   3.113
 1959TIP3    H1 5834   0.333   4.888   3.135
 1959TIP3    H2 5835   0.304   4.988   3.025
 1960TIP3   OH2 5836   0.725   1.625   6.533
 1960TIP3    H1 5837   0.667   1.701   6.535
 1960TIP3    H2 5838   0.804   1.656   6.488
 1961TIP3   OH2 5839   3.999   2.045   2.511
 1961TIP3    H1 5840   3.986   1.970   2.453
 1961TIP3    H2 5841   3.948   2.025   2.589
 1962TIP3   OH2 5842   6.173   5.059   0.918
 1962TIP3    H1 5843   6.163   5.078   1.011
 1962TIP3    H2 5844   6.263   5.028   0.909
 1963TIP3   OH2 5845   3.345   7.731   5.669
 1963TIP3    H1 5846   3.377   7.818   5.645
 1963TIP3    H2 5847   3.270   7.716   5.612
 1964TIP3   OH2 5848   8.047   3.575   1.063
 1964TIP3    H1 5849   7.963   3.531   1.052
 1964TIP3    H2 5850   8.037   3.627   1.143
 1965TIP3   OH2 5851   5.727   5.574   2.761
 1965TIP3    H1 5852   5.641   5.556   2.799
 1965TIP3    H2 5853   5.761   5.487   2.738
 1966TIP3   OH2 5854   1.124   3.491   3.252
 1966TIP3    H1 5855   1.117   3.430   3.326
 1966TIP3    H2 5856   1.051   3.468   3.194
 1967TIP3   OH2 5857   1.911   1.633   3.461
 1967TIP3    H1 5858   1.831   1.584   3.479
 1967TIP3    H2 5859   1.908   1.650   3.367
 1968TIP3   OH2 5860   4.427   3.430   5.681
 1968TIP3    H1 5861   4.363   3.460   5.746
 1968TIP3    H2 5862   4.381   3.365   5.629
 1969TIP3   OH2 5863   2.953   2.638   3.588
 1969TIP3    H1 5864   2.965   2.653   3.682
 1969TIP3    H2 5865   3.009   2.562   3.568
 1970TIP3   OH2 5866   3.501   2.829   1.921
 1970TIP3    H1 5867   3.436   2.773   1.962
 1970TIP3    H2 5868   3.526   2.781   1.841
 1971TIP3   OH2 5869   3.973   2.534   2.321
 1971TIP3    H1 5870   3.965   2.547   2.226
 1971TIP3    H2 5871   3.987   2.440   2.332
 1972TIP3   OH2 5872   4.368   2.269   6.601
 1972TIP3    H1 5873   4.326   2.313   6.675
 1972TIP3    H2 5874   4.315   2.292   6.525
 1973TIP3   OH2 5875   1.810   2.597   0.187
 1973TIP3    H1 5876   1.750   2.671   0.178
 1973TIP3    H2 5877   1.827   2.569   0.097
 1974TIP3   OH2 5878   0.013   4.868   4.982
 1974TIP3    H1 5879   0.018   4.917   5.064
 1974TIP3    H2 5880   0.061   4.921   4.919
 1975TIP3   OH2 5881   7.800   2.044   1.105
 1975TIP3    H1 5882   7.753   2.120   1.071
 1975TIP3    H2 5883   7.736   1.973   1.104
 1976TIP3   OH2 5884   4.132   7.040   3.313
 1976TIP3    H1 5885   4.145   6.950   3.341
 1976TIP3    H2 5886   4.042   7.043   3.281
 1977TIP3   OH2 5887   0.578   3.031   2.787
 1977TIP3    H1 5888   0.540   3.099   2.843
 1977TIP3    H2 5889   0.505   2.972   2.769
 1978TIP3   OH2 5890   1.650   7.281   5.647
 1978TIP3    H1 5891   1.720   7.223   5.678
 1978TIP3    H2 5892   1.600   7.302   5.726
 1979TIP3   OH2 5893   2.452   6.087   0.573
 1979TIP3    H1 5894   2.455   5.999   0.535
 1979TIP3    H2 5895   2.378   6.084   0.634
 1980TIP3   OH2 5896   8.210   2.998   1.434
 1980TIP3    H1 5897   8.192   2.913   1.393
 1980TIP3    H2 5898   8.130   3.049   1.419
 1981TIP3   OH2 5899   7.558   1.835   6.748
 1981TIP3    H1 5900   7.585   1.893   6.819
 1981TIP3    H2 5901   7.478   1.875   6.713
 1982TIP3   OH2 5902   1.200   3.547   6.550
 1982TIP3    H1 5903   1.188   3.477   6.486
 1982TIP3    H2 5904   1.147   3.520   6.625
 1983TIP3   OH2 5905   1.937   6.509   3.637
 1983TIP3    H1 5906   1.974   6.467   3.559
 1983TIP3    H2 5907   2.013   6.547   3.682
 1984TIP3   OH2 5908   7.558   3.335   6.193
 1984TIP3    H1 5909   7.505   3.346   6.272
 1984TIP3    H2 5910   7.516   3.393   6.128
 1985TIP3   OH2 5911   2.905   1.836   2.417
 1985TIP3    H1 5912   2.832   1.800   2.368
 1985TIP3    H2 5913   2.871   1.849   2.505
 1986TIP3   OH2 5914   4.364   4.135   0.912
 1986TIP3    H1 5915   4.452   4.106   0.936
 1986TIP3    H2 5916   4.373   4.229   0.896
 1987TIP3   OH2 5917   3.554   3.697   3.240
 1987TIP3    H1 5918   3.528   3.710   3.331
 1987TIP3    H2 5919   3.535   3.604   3.223
 1988TIP3   OH2 5920   6.480   3.408   4.443
 1988TIP3    H1 5921   6.459   3.375   4.355
 1988TIP3    H2 5922   6.571   3.380   4.457
 1989TIP3   OH2 5923   3.088   2.071   6.524
 1989TIP3    H1 5924   3.011   2.127   6.533
 1989TIP3    H2 5925   3.083   2.036   6.435
 1990TIP3   OH2 5926   5.256   1.424   2.187
 1990TIP3    H1 5927   5.180   1.382   2.227
 1990TIP3    H2 5928   5.232   1.433   2.095
 1991TIP3   OH2 5929   0.508   6.769   2.770
 1991TIP3    H1 5930   0.537   6.769   2.679
 1991TIP3    H2 5931   0.589   6.767   2.822
 1992TIP3   OH2 5932   0.209   7.252   4.993
 1992TIP3    H1 5933   0.294   7.297   4.994
 1992TIP3    H2 5934   0.177   7.258   5.083
 1993TIP3   OH2 5935   4.015   6.189   0.745
 1993TIP3    H1 5936   3.987   6.132   0.816
 1993TIP3    H2 5937   4.085   6.242   0.783
 1994TIP3   OH2 5938   1.807   7.430   4.555
 1994TIP3    H1 5939   1.736   7.367   4.564
 1994TIP3    H2 5940   1.815   7.444   4.461
 1995TIP3   OH2 5941   6.683   6.040   5.537
 1995TIP3    H1 5942   6.686   6.111   5.473
 1995TIP3    H2 5943   6.763   6.050   5.588
 1996TIP3   OH2 5944   8.182   6.980   4.516
 1996TIP3    H1 5945   8.230   6.911   4.563
 1996TIP3    H2 5946   8.156   7.041   4.585
 1997TIP3   OH2 5947   7.734   3.302   1.698
 1997TIP3    H1 5948   7.802   3.317   1.764
 1997TIP3    H2 5949   7.747   3.212   1.671
 1998TIP3   OH2 5950   3.394   5.352   5.081
 1998TIP3    H1 5951   3.436   5.426   5.037
 1998TIP3    H2 5952   3.467   5.304   5.120
 1999TIP3   OH2 5953   5.214   3.382   1.507
 1999TIP3    H1 5954   5.304   3.383   1.538
 1999TIP3    H2 5955   5.220   3.407   1.415
 2000TIP3   OH2 5956   2.937   6.161   2.697
 2000TIP3    H1 5957   2.857   6.109   2.688
 2000TIP3    H2 5958   2.909   6.242   2.739
 2001TIP3   OH2 5959   6.562   5.387   3.839
 2001TIP3    H1 5960   6.564   5.412   3.932
 2001TIP3    H2 5961   6.553   5.471   3.793
 2002TIP3   OH2 5962   4.492   0.408   5.140
 2002TIP3    H1 5963   4.430   0.337   5.156
 2002TIP3    H2 5964   4.575   0.365   5.123
 2003TIP3   OH2 5965   7.498   7.730   1.165
 2003TIP3    H1 5966   7.526   7.765   1.080
 2003TIP3    H2 5967   7.403   7.745   1.166
 2004TIP3   OH2 5968   7.849   1.989   2.038
 2004TIP3    H1 5969   7.870   1.998   2.131
 2004TIP3    H2 5970   7.906   1.918   2.007
 2005TIP3   OH2 5971   4.568   7.448   1.067
 2005TIP3    H1 5972   4.607   7.367   1.033
 2005TIP3    H2 5973   4.594   7.451   1.159
 2006TIP3   OH2 5974   4.992   0.274   3.525
 2006TIP3    H1 5975   4.941   0.344   3.566
 2006TIP3    H2 5976   5.082   0.308   3.524
 2007TIP3   OH2 5977   0.811   5.965   0.657
 2007TIP3    H1 5978   0.810   5.873   0.630
 2007TIP3    H2 5979   0.862   5.966   0.739
 2008TIP3   OH2 5980   8.175   5.983   5.439
 2008TIP3    H1 5981   8.085   5.989   5.472
 2008TIP3    H2 5982   8.185   6.060   5.383
 2009TIP3   OH2 5983   0.543   1.580   0.384
 2009TIP3    H1 5984   0.541   1.507   0.322
 2009TIP3    H2 5985   0.616   1.634   0.354
 2010TIP3   OH2 5986   2.810   7.253   5.414
 2010TIP3    H1 5987   2.748   7.323   5.393
 2010TIP3    H2 5988   2.772   7.175   5.374
 2011TIP3   OH2 5989   8.047   5.075   4.429
 2011TIP3    H1 5990   7.967   5.116   4.463
 2011TIP3    H2 5991   8.016   4.999   4.380
 2012TIP3   OH2 5992   2.096   6.919   6.024
 2012TIP3    H1 5993   2.155   6.984   5.984
 2012TIP3    H2 5994   2.148   6.877   6.092
 2013TIP3   OH2 5995   3.094   2.982   6.557
 2013TIP3    H1 5996   3.124   3.033   6.482
 2013TIP3    H2 5997   3.151   3.009   6.629
 2014TIP3   OH2 5998   7.623   1.076   1.446
 2014TIP3    H1 5999   7.681   1.150   1.428
 2014TIP3    H2 6000   7.553   1.113   1.499
 2015TIP3   OH2 6001   1.759   3.073   6.303
 2015TIP3    H1 6002   1.759   3.036   6.391
 2015TIP3    H2 6003   1.821   3.146   6.307
 2016TIP3   OH2 6004   7.035   4.416   5.431
 2016TIP3    H1 6005   7.125   4.384   5.425
 2016TIP3    H2 6006   7.041   4.493   5.486
 2017TIP3   OH2 6007   6.133   1.554   6.456
 2017TIP3    H1 6008   6.112   1.516   6.370
 2017TIP3    H2 6009   6.112   1.484   6.518
 2018TIP3   OH2 6010   4.786   4.661   2.605
 2018TIP3    H1 6011   4.854   4.698   2.549
 2018TIP3    H2 6012   4.714   4.642   2.545
 2019TIP3   OH2 6013   5.316   4.632   3.636
 2019TIP3    H1 6014   5.317   4.537   3.654
 2019TIP3    H2 6015   5.388   4.667   3.689
 2020TIP3   OH2 6016   4.874   2.180   4.319
 2020TIP3    H1 6017   4.883   2.092   4.281
 2020TIP3    H2 6018   4.798   2.173   4.377
 2021TIP3   OH2 6019   1.560   5.006   1.897
 2021TIP3    H1 6020   1.630   4.943   1.878
 2021TIP3    H2 6021   1.513   4.967   1.971
 2022TIP3   OH2 6022   5.167   0.852   4.741
 2022TIP3    H1 6023   5.082   0.894   4.750
 2022TIP3    H2 6024   5.229   0.925   4.736
 2023TIP3   OH2 6025   4.683   2.817   2.009
 2023TIP3    H1 6026   4.732   2.849   1.934
 2023TIP3    H2 6027   4.665   2.895   2.061
 2024TIP3   OH2 6028   3.045   1.854   5.081
 2024TIP3    H1 6029   3.055   1.900   4.997
 2024TIP3    H2 6030   3.135   1.846   5.114
 2025TIP3   OH2 6031   2.368   3.279   1.561
 2025TIP3    H1 6032   2.342   3.217   1.493
 2025TIP3    H2 6033   2.464   3.281   1.556
 2026TIP3   OH2 6034   2.361   0.159   1.880
 2026TIP3    H1 6035   2.412   0.110   1.816
 2026TIP3    H2 6036   2.424   0.218   1.922
 2027TIP3   OH2 6037   5.264   1.958   2.578
 2027TIP3    H1 6038   5.181   1.949   2.532
 2027TIP3    H2 6039   5.314   2.020   2.525
 2028TIP3   OH2 6040   4.570   2.092   4.052
 2028TIP3    H1 6041   4.528   2.175   4.030
 2028TIP3    H2 6042   4.503   2.026   4.034
 2029TIP3   OH2 6043   3.252   2.474   1.902
 2029TIP3    H1 6044   3.228   2.460   1.811
 2029TIP3    H2 6045   3.172   2.456   1.951
 2030TIP3   OH2 6046   4.560   3.371   1.847
 2030TIP3    H1 6047   4.639   3.357   1.794
 2030TIP3    H2 6048   4.587   3.432   1.915
 2031TIP3   OH2 6049   6.068   4.236   4.477
 2031TIP3    H1 6050   6.025   4.169   4.423
 2031TIP3    H2 6051   6.161   4.224   4.459
 2032TIP3   OH2 6052   6.952   1.986   3.274
 2032TIP3    H1 6053   6.952   2.071   3.318
 2032TIP3    H2 6054   6.961   1.922   3.345
 2033TIP3   OH2 6055   2.948   7.802   4.641
 2033TIP3    H1 6056   3.025   7.855   4.622
 2033TIP3    H2 6057   2.907   7.844   4.717
 2034TIP3   OH2 6058   2.141   7.730   0.262
 2034TIP3    H1 6059   2.197   7.766   0.330
 2034TIP3    H2 6060   2.062   7.702   0.309
 2035TIP3   OH2 6061   1.197   2.691   6.589
 2035TIP3    H1 6062   1.238   2.741   6.660
 2035TIP3    H2 6063   1.164   2.612   6.632
 2036TIP3   OH2 6064   3.642   5.909   2.723
 2036TIP3    H1 6065   3.737   5.901   2.737
 2036TIP3    H2 6066   3.603   5.867   2.799
 2037TIP3   OH2 6067   4.617   3.775   5.746
 2037TIP3    H1 6068   4.544   3.812   5.795
 2037TIP3    H2 6069   4.657   3.712   5.806
 2038TIP3   OH2 6070   1.074   0.098   4.323
 2038TIP3    H1 6071   0.986   0.065   4.308
 2038TIP3    H2 6072   1.062   0.189   4.350
 2039TIP3   OH2 6073   2.396   6.968   4.337
 2039TIP3    H1 6074   2.487   6.962   4.308
 2039TIP3    H2 6075   2.397   6.930   4.425
 2040TIP3   OH2 6076   8.131   1.272   0.516
 2040TIP3    H1 6077   8.079   1.207   0.468
 2040TIP3    H2 6078   8.093   1.356   0.492
 2041TIP3   OH2 6079   2.697   0.514   1.725
 2041TIP3    H1 6080   2.639   0.522   1.801
 2041TIP3    H2 6081   2.669   0.433   1.682
 2042TIP3   OH2 6082   4.092   1.509   3.172
 2042TIP3    H1 6083   4.098   1.511   3.267
 2042TIP3    H2 6084   4.153   1.577   3.143
 2043TIP3   OH2 6085   4.687   3.964   6.561
 2043TIP3    H1 6086   4.638   4.027   6.509
 2043TIP3    H2 6087   4.633   3.949   6.638
 2044TIP3   OH2 6088   4.164   1.164   6.224
 2044TIP3    H1 6089   4.192   1.244   6.180
 2044TIP3    H2 6090   4.098   1.193   6.287
 2045TIP3   OH2 6091   6.863   1.593   3.248
 2045TIP3    H1 6092   6.952   1.575   3.276
 2045TIP3    H2 6093   6.817   1.621   3.327
 2046TIP3   OH2 6094   1.922   5.918   1.057
 2046TIP3    H1 6095   1.839   5.966   1.046
 2046TIP3    H2 6096   1.932   5.910   1.151
 2047TIP3   OH2 6097   1.393   4.490   0.423
 2047TIP3    H1 6098   1.457   4.419   0.423
 2047TIP3    H2 6099   1.439   4.564   0.385
 2048TIP3   OH2 6100   6.945   4.922   2.013
 2048TIP3    H1 6101   6.988   4.929   2.098
 2048TIP3    H2 6102   6.888   4.845   2.021
 2049TIP3   OH2 6103   3.314   0.466   2.121
 2049TIP3    H1 6104   3.275   0.542   2.079
 2049TIP3    H2 6105   3.310   0.485   2.215
 2050TIP3   OH2 6106   7.812   5.017   6.503
 2050TIP3    H1 6107   7.776   5.006   6.591
 2050TIP3    H2 6108   7.775   5.100   6.473
 2051TIP3   OH2 6109   7.263   0.953   1.092
 2051TIP3    H1 6110   7.202   0.930   1.161
 2051TIP3    H2 6111   7.349   0.926   1.125
 2052TIP3   OH2 6112   5.765   6.158   3.879
 2052TIP3    H1 6113   5.733   6.244   3.852
 2052TIP3    H2 6114   5.698   6.097   3.847
 2053TIP3   OH2 6115   6.726   3.478   0.305
 2053TIP3    H1 6116   6.656   3.426   0.345
 2053TIP3    H2 6117   6.711   3.567   0.338
 2054TIP3   OH2 6118   6.842   0.153   6.012
 2054TIP3    H1 6119   6.904   0.116   5.950
 2054TIP3    H2 6120   6.887   0.147   6.097
 2055TIP3   OH2 6121   8.164   4.857   5.878
 2055TIP3    H1 6122   8.259   4.866   5.864
 2055TIP3    H2 6123   8.152   4.764   5.898
 2056TIP3   OH2 6124   0.134   0.340   4.643
 2056TIP3    H1 6125   0.078   0.373   4.713
 2056TIP3    H2 6126   0.076   0.330   4.568
 2057TIP3   OH2 6127   6.930   0.354   2.149
 2057TIP3    H1 6128   7.011   0.405   2.142
 2057TIP3    H2 6129   6.941   0.283   2.085
 2058TIP3   OH2 6130   6.452   7.159   5.662
 2058TIP3    H1 6131   6.438   7.253   5.663
 2058TIP3    H2 6132   6.499   7.141   5.743
 2059TIP3   OH2 6133   3.995   4.003   3.029
 2059TIP3    H1 6134   3.914   4.047   3.003
 2059TIP3    H2 6135   3.967   3.917   3.060
 2060TIP3   OH2 6136   2.038   0.351   3.178
 2060TIP3    H1 6137   2.030   0.313   3.091
 2060TIP3    H2 6138   2.126   0.324   3.207
 2061TIP3   OH2 6139   7.219   3.645   1.583
 2061TIP3    H1 6140   7.255   3.730   1.608
 2061TIP3    H2 6141   7.240   3.587   1.657
 2062TIP3   OH2 6142   6.254   7.509   5.594
 2062TIP3    H1 6143   6.341   7.497   5.634
 2062TIP3    H2 6144   6.207   7.565   5.656
 2063TIP3   OH2 6145   5.668   1.310   2.887
 2063TIP3    H1 6146   5.667   1.238   2.824
 2063TIP3    H2 6147   5.590   1.361   2.866
 2064TIP3   OH2 6148   4.971   0.281   0.137
 2064TIP3    H1 6149   5.054   0.236   0.124
 2064TIP3    H2 6150   4.978   0.360   0.084
 2065TIP3   OH2 6151   6.687   2.896   2.587
 2065TIP3    H1 6152   6.691   2.836   2.662
 2065TIP3    H2 6153   6.628   2.966   2.616
 2066TIP3   OH2 6154   8.009   7.421   4.661
 2066TIP3    H1 6155   7.938   7.436   4.598
 2066TIP3    H2 6156   7.988   7.479   4.735
 2067TIP3   OH2 6157   1.211   5.529   4.296
 2067TIP3    H1 6158   1.146   5.475   4.341
 2067TIP3    H2 6159   1.241   5.474   4.223
 2068TIP3   OH2 6160   0.167   0.282   6.437
 2068TIP3    H1 6161   0.135   0.201   6.477
 2068TIP3    H2 6162   0.226   0.252   6.367
 2069TIP3   OH2 6163   4.172   4.010   5.138
 2069TIP3    H1 6164   4.169   4.100   5.171
 2069TIP3    H2 6165   4.205   3.959   5.211
 2070TIP3   OH2 6166   2.855   2.110   0.134
 2070TIP3    H1 6167   2.932   2.122   0.190
 2070TIP3    H2 6168   2.788   2.166   0.173
 2071TIP3   OH2 6169   2.615   3.405   3.404
 2071TIP3    H1 6170   2.665   3.379   3.327
 2071TIP3    H2 6171   2.553   3.333   3.418
 2072TIP3   OH2 6172   1.834   4.404   6.303
 2072TIP3    H1 6173   1.869   4.405   6.215
 2072TIP3    H2 6174   1.901   4.445   6.357
 2073TIP3   OH2 6175   7.871   0.701   1.196
 2073TIP3    H1 6176   7.796   0.682   1.141
 2073TIP3    H2 6177   7.864   0.640   1.270
 2074TIP3   OH2 6178   8.299   3.109   0.132
 2074TIP3    H1 6179   8.346   3.037   0.090
 2074TIP3    H2 6180   8.263   3.070   0.212
 2075TIP3   OH2 6181   3.599   5.271   0.437
 2075TIP3    H1 6182   3.626   5.181   0.421
 2075TIP3    H2 6183   3.506   5.265   0.459
 2076TIP3   OH2 6184   3.508   7.167   2.460
 2076TIP3    H1 6185   3.512   7.083   2.506
 2076TIP3    H2 6186   3.523   7.145   2.368
 2077TIP3   OH2 6187   6.389   0.006   0.523
 2077TIP3    H1 6188   6.396  -0.032   0.435
 2077TIP3    H2 6189   6.306   0.052   0.522
 2078TIP3   OH2 6190   4.554   1.815   6.361
 2078TIP3    H1 6191   4.523   1.884   6.302
 2078TIP3    H2 6192   4.577   1.861   6.442
 2079TIP3   OH2 6193   2.947   0.889   0.120
 2079TIP3    H1 6194   2.882   0.822   0.102
 2079TIP3    H2 6195   2.971   0.875   0.212
 2080TIP3   OH2 6196   1.133   0.481   1.876
 2080TIP3    H1 6197   1.216   0.458   1.835
 2080TIP3    H2 6198   1.080   0.402   1.871
 2081TIP3   OH2 6199   4.964   7.800   2.129
 2081TIP3    H1 6200   4.964   7.783   2.035
 2081TIP3    H2 6201   4.873   7.821   2.150
 2082TIP3   OH2 6202   6.721   0.322   6.442
 2082TIP3    H1 6203   6.701   0.413   6.421
 2082TIP3    H2 6204   6.807   0.307   6.402
 2083TIP3   OH2 6205   1.349   7.318   4.478
 2083TIP3    H1 6206   1.329   7.335   4.570
 2083TIP3    H2 6207   1.362   7.405   4.440
 2084TIP3   OH2 6208   5.024   3.969   3.318
 2084TIP3    H1 6209   4.958   3.903   3.337
 2084TIP3    H2 6210   5.051   4.001   3.404
 2085TIP3   OH2 6211   2.724   5.560   0.102
 2085TIP3    H1 6212   2.738   5.501   0.028
 2085TIP3    H2 6213   2.740   5.647   0.066
 2086TIP3   OH2 6214   5.289   5.218   2.335
 2086TIP3    H1 6215   5.199   5.250   2.330
 2086TIP3    H2 6216   5.295   5.152   2.265
 2087TIP3   OH2 6217   3.721   6.135   0.923
 2087TIP3    H1 6218   3.664   6.211   0.911
 2087TIP3    H2 6219   3.680   6.084   0.992
 2088TIP3   OH2 6220   2.880   0.239   6.169
 2088TIP3    H1 6221   2.885   0.278   6.257
 2088TIP3    H2 6222   2.870   0.145   6.185
 2089TIP3   OH2 6223   0.485   4.024   5.774
 2089TIP3    H1 6224   0.560   4.013   5.715
 2089TIP3    H2 6225   0.522   4.016   5.862
 2090TIP3   OH2 6226   4.012   1.506   0.051
 2090TIP3    H1 6227   4.042   1.531   0.138
 2090TIP3    H2 6228   3.971   1.585   0.016
 2091TIP3   OH2 6229   7.997   7.410   0.874
 2091TIP3    H1 6230   7.964   7.451   0.954
 2091TIP3    H2 6231   7.918   7.380   0.829
 2092TIP3   OH2 6232   6.681   2.519   2.529
 2092TIP3    H1 6233   6.626   2.511   2.451
 2092TIP3    H2 6234   6.641   2.460   2.593
 2093TIP3   OH2 6235   6.029   5.003   5.897
 2093TIP3    H1 6236   6.086   5.046   5.961
 2093TIP3    H2 6237   6.082   4.931   5.863
 2094TIP3   OH2 6238   1.363   1.892   2.280
 2094TIP3    H1 6239   1.372   1.965   2.341
 2094TIP3    H2 6240   1.403   1.924   2.199
 2095TIP3   OH2 6241   4.167   3.605   4.280
 2095TIP3    H1 6242   4.158   3.521   4.235
 2095TIP3    H2 6243   4.087   3.613   4.332
 2096TIP3   OH2 6244   1.369   2.492   4.186
 2096TIP3    H1 6245   1.290   2.436   4.186
 2096TIP3    H2 6246   1.388   2.505   4.279
 2097TIP3   OH2 6247   0.704   2.908   0.101
 2097TIP3    H1 6248   0.675   2.911   0.192
 2097TIP3    H2 6249   0.705   2.814   0.079
 2098TIP3   OH2 6250   7.905   6.596   5.322
 2098TIP3    H1 6251   7.973   6.545   5.366
 2098TIP3    H2 6252   7.846   6.531   5.284
 2099TIP3   OH2 6253   2.418   6.233   2.075
 2099TIP3    H1 6254   2.426   6.139   2.060
 2099TIP3    H2 6255   2.395   6.240   2.168
 2100TIP3   OH2 6256   1.551   5.785   4.703
 2100TIP3    H1 6257   1.621   5.849   4.691
 2100TIP3    H2 6258   1.586   5.724   4.768
 2101TIP3   OH2 6259   3.443   3.896   4.898
 2101TIP3    H1 6260   3.459   3.886   4.992
 2101TIP3    H2 6261   3.528   3.884   4.857
 2102TIP3   OH2 6262   6.798   2.668   1.249
 2102TIP3    H1 6263   6.861   2.603   1.280
 2102TIP3    H2 6264   6.744   2.687   1.326
 2103TIP3   OH2 6265   0.264   0.858   1.959
 2103TIP3    H1 6266   0.226   0.831   1.875
 2103TIP3    H2 6267   0.285   0.951   1.947
 2104TIP3   OH2 6268   3.970   0.536   3.934
 2104TIP3    H1 6269   3.970   0.630   3.949
 2104TIP3    H2 6270   4.062   0.515   3.916
 2105TIP3   OH2 6271   7.513   4.114   1.338
 2105TIP3    H1 6272   7.427   4.142   1.370
 2105TIP3    H2 6273   7.507   4.121   1.243
 2106TIP3   OH2 6274   6.802   2.779   6.207
 2106TIP3    H1 6275   6.889   2.770   6.245
 2106TIP3    H2 6276   6.761   2.694   6.219
 2107TIP3   OH2 6277   3.591   4.750   6.043
 2107TIP3    H1 6278   3.657   4.812   6.075
 2107TIP3    H2 6279   3.507   4.794   6.058
 2108TIP3   OH2 6280   6.376   1.129   1.563
 2108TIP3    H1 6281   6.452   1.145   1.507
 2108TIP3    H2 6282   6.351   1.216   1.595
 2109TIP3   OH2 6283   8.320   7.043   5.402
 2109TIP3    H1 6284   8.308   6.949   5.384
 2109TIP3    H2 6285   8.230   7.077   5.410
 2110TIP3   OH2 6286   3.914   3.661   3.741
 2110TIP3    H1 6287   3.883   3.677   3.652
 2110TIP3    H2 6288   4.006   3.687   3.739
 2111TIP3   OH2 6289   4.670   4.061   3.164
 2111TIP3    H1 6290   4.733   4.001   3.124
 2111TIP3    H2 6291   4.695   4.148   3.131
 2112TIP3   OH2 6292   0.855   0.694   4.625
 2112TIP3    H1 6293   0.933   0.749   4.614
 2112TIP3    H2 6294   0.785   0.743   4.583
 2113TIP3   OH2 6295   7.713   5.520   4.035
 2113TIP3    H1 6296   7.696   5.590   4.099
 2113TIP3    H2 6297   7.628   5.479   4.022
 2114TIP3   OH2 6298   7.233   0.878   6.162
 2114TIP3    H1 6299   7.289   0.805   6.133
 2114TIP3    H2 6300   7.221   0.862   6.256
 2115TIP3   OH2 6301   7.339   2.842   6.079
 2115TIP3    H1 6302   7.379   2.767   6.124
 2115TIP3    H2 6303   7.290   2.888   6.147
 2116TIP3   OH2 6304   4.319   2.639   5.825
 2116TIP3    H1 6305   4.414   2.629   5.832
 2116TIP3    H2 6306   4.306   2.731   5.805
 2117TIP3   OH2 6307   5.927   3.158   3.263
 2117TIP3    H1 6308   5.888   3.158   3.350
 2117TIP3    H2 6309   5.880   3.227   3.215
 2118TIP3   OH2 6310   3.036   5.797   3.852
 2118TIP3    H1 6311   3.073   5.867   3.906
 2118TIP3    H2 6312   3.094   5.792   3.776
 2119TIP3   OH2 6313   6.994   7.806   6.105
 2119TIP3    H1 6314   7.027   7.841   6.188
 2119TIP3    H2 6315   6.971   7.715   6.126
 2120TIP3   OH2 6316   4.508   2.690   2.310
 2120TIP3    H1 6317   4.413   2.680   2.311
 2120TIP3    H2 6318   4.533   2.673   2.219
 2121TIP3   OH2 6319   1.609   5.459   2.791
 2121TIP3    H1 6320   1.596   5.536   2.846
 2121TIP3    H2 6321   1.554   5.475   2.714
 2122TIP3   OH2 6322   3.737   6.980   6.805
 2122TIP3    H1 6323   3.677   7.021   6.742
 2122TIP3    H2 6324   3.682   6.918   6.853
 2123TIP3   OH2 6325   7.594   7.495   2.002
 2123TIP3    H1 6326   7.552   7.449   1.930
 2123TIP3    H2 6327   7.670   7.441   2.024
 2124TIP3   OH2 6328   5.964   4.205   1.617
 2124TIP3    H1 6329   5.886   4.260   1.604
 2124TIP3    H2 6330   6.014   4.215   1.537
 2125TIP3   OH2 6331   4.938   1.894   5.125
 2125TIP3    H1 6332   4.946   1.856   5.212
 2125TIP3    H2 6333   4.883   1.833   5.077
 2126TIP3   OH2 6334   1.681   2.388   0.362
 2126TIP3    H1 6335   1.770   2.424   0.359
 2126TIP3    H2 6336   1.658   2.373   0.270
 2127TIP3   OH2 6337   0.817   7.028   2.042
 2127TIP3    H1 6338   0.833   7.003   1.950
 2127TIP3    H2 6339   0.724   7.054   2.043
 2128TIP3   OH2 6340   3.297   0.287   3.231
 2128TIP3    H1 6341   3.283   0.222   3.161
 2128TIP3    H2 6342   3.365   0.345   3.196
 2129TIP3   OH2 6343   7.912   0.127   2.256
 2129TIP3    H1 6344   7.878   0.051   2.208
 2129TIP3    H2 6345   7.929   0.094   2.344
 2130TIP3   OH2 6346   4.762   5.510   4.714
 2130TIP3    H1 6347   4.706   5.473   4.646
 2130TIP3    H2 6348   4.846   5.524   4.672
 2131TIP3   OH2 6349   5.751   1.751   0.578
 2131TIP3    H1 6350   5.670   1.762   0.528
 2131TIP3    H2 6351   5.731   1.682   0.641
 2132TIP3   OH2 6352   8.172   1.594   2.238
 2132TIP3    H1 6353   8.144   1.624   2.152
 2132TIP3    H2 6354   8.146   1.665   2.297
 2133TIP3   OH2 6355   0.274   6.254   0.680
 2133TIP3    H1 6356   0.198   6.312   0.671
 2133TIP3    H2 6357   0.251   6.196   0.753
 2134TIP3   OH2 6358   0.142   4.220   4.197
 2134TIP3    H1 6359   0.099   4.203   4.114
 2134TIP3    H2 6360   0.089   4.288   4.239
 2135TIP3   OH2 6361   6.496   1.917   1.299
 2135TIP3    H1 6362   6.466   1.991   1.247
 2135TIP3    H2 6363   6.473   1.938   1.389
 2136TIP3   OH2 6364   2.899   7.093   3.914
 2136TIP3    H1 6365   2.983   7.077   3.873
 2136TIP3    H2 6366   2.918   7.099   4.007
 2137TIP3   OH2 6367   0.465   4.903   0.554
 2137TIP3    H1 6368   0.466   4.811   0.529
 2137TIP3    H2 6369   0.402   4.944   0.495
 2138TIP3   OH2 6370   2.238   0.885   3.568
 2138TIP3    H1 6371   2.262   0.819   3.503
 2138TIP3    H2 6372   2.305   0.953   3.559
 2139TIP3   OH2 6373   6.607   0.482   2.485
 2139TIP3    H1 6374   6.650   0.431   2.416
 2139TIP3    H2 6375   6.515   0.458   2.478
 2140TIP3   OH2 6376   5.513  -0.008   2.181
 2140TIP3    H1 6377   5.586   0.041   2.143
 2140TIP3    H2 6378   5.454  -0.024   2.107
 2141TIP3   OH2 6379   1.054   1.926   4.059
 2141TIP3    H1 6380   0.994   1.991   4.022
 2141TIP3    H2 6381   0.996   1.864   4.105
 2142TIP3   OH2 6382   8.292   7.857   6.539
 2142TIP3    H1 6383   8.263   7.771   6.509
 2142TIP3    H2 6384   8.271   7.858   6.633
 2143TIP3   OH2 6385   0.982   3.549   2.312
 2143TIP3    H1 6386   0.994   3.455   2.303
 2143TIP3    H2 6387   1.065   3.587   2.283
 2144TIP3   OH2 6388   7.643   4.737   0.312
 2144TIP3    H1 6389   7.594   4.658   0.292
 2144TIP3    H2 6390   7.696   4.753   0.234
 2145TIP3   OH2 6391   6.247   0.593   1.273
 2145TIP3    H1 6392   6.334   0.630   1.260
 2145TIP3    H2 6393   6.230   0.542   1.194
 2146TIP3   OH2 6394   2.209   7.139   4.685
 2146TIP3    H1 6395   2.176   7.165   4.599
 2146TIP3    H2 6396   2.181   7.209   4.743
 2147TIP3   OH2 6397   1.476   7.836   1.366
 2147TIP3    H1 6398   1.417   7.846   1.291
 2147TIP3    H2 6399   1.428   7.875   1.439
 2148TIP3   OH2 6400   5.242   1.399   2.710
 2148TIP3    H1 6401   5.155   1.360   2.697
 2148TIP3    H2 6402   5.303   1.330   2.683
 2149TIP3   OH2 6403   4.597   1.836   2.408
 2149TIP3    H1 6404   4.642   1.855   2.325
 2149TIP3    H2 6405   4.567   1.922   2.437
 2150TIP3   OH2 6406   2.461   4.888   5.790
 2150TIP3    H1 6407   2.516   4.814   5.816
 2150TIP3    H2 6408   2.499   4.963   5.836
 2151TIP3   OH2 6409   8.243   0.100   6.254
 2151TIP3    H1 6410   8.309   0.030   6.251
 2151TIP3    H2 6411   8.247   0.139   6.167
 2152TIP3   OH2 6412   4.659   2.201   6.307
 2152TIP3    H1 6413   4.581   2.167   6.262
 2152TIP3    H2 6414   4.717   2.125   6.314
 2153TIP3   OH2 6415   3.191   7.117   3.197
 2153TIP3    H1 6416   3.148   7.047   3.149
 2153TIP3    H2 6417   3.263   7.144   3.139
 2154TIP3   OH2 6418   6.677   1.867   2.706
 2154TIP3    H1 6419   6.754   1.922   2.707
 2154TIP3    H2 6420   6.629   1.891   2.786
 2155TIP3   OH2 6421   7.922   2.152   2.294
 2155TIP3    H1 6422   8.006   2.178   2.257
 2155TIP3    H2 6423   7.918   2.197   2.379
 2156TIP3   OH2 6424   3.406   6.780   4.570
 2156TIP3    H1 6425   3.449   6.828   4.641
 2156TIP3    H2 6426   3.463   6.705   4.553
 2157TIP3   OH2 6427   6.615   4.594   1.940
 2157TIP3    H1 6428   6.591   4.551   1.858
 2157TIP3    H2 6429   6.710   4.602   1.937
 2158TIP3   OH2 6430   2.769   0.679   2.788
 2158TIP3    H1 6431   2.734   0.763   2.759
 2158TIP3    H2 6432   2.827   0.651   2.716
 2159TIP3   OH2 6433   8.260   7.195   2.140
 2159TIP3    H1 6434   8.310   7.167   2.217
 2159TIP3    H2 6435   8.311   7.267   2.103
 2160TIP3   OH2 6436   3.163   5.225   2.303
 2160TIP3    H1 6437   3.158   5.246   2.209
 2160TIP3    H2 6438   3.138   5.307   2.346
 2161TIP3   OH2 6439   6.137   0.144   5.529
 2161TIP3    H1 6440   6.072   0.187   5.474
 2161TIP3    H2 6441   6.206   0.117   5.468
 2162TIP3   OH2 6442   0.529   7.642   5.873
 2162TIP3    H1 6443   0.506   7.555   5.904
 2162TIP3    H2 6444   0.606   7.667   5.925
 2163TIP3   OH2 6445   7.868   1.603   4.580
 2163TIP3    H1 6446   7.808   1.566   4.515
 2163TIP3    H2 6447   7.859   1.697   4.571
 2164TIP3   OH2 6448   6.774   1.412   1.589
 2164TIP3    H1 6449   6.861   1.399   1.626
 2164TIP3    H2 6450   6.771   1.505   1.569
 2165TIP3   OH2 6451   2.718   2.821   2.685
 2165TIP3    H1 6452   2.681   2.737   2.657
 2165TIP3    H2 6453   2.807   2.799   2.715
 2166TIP3   OH2 6454   0.258   6.949   0.866
 2166TIP3    H1 6455   0.186   6.960   0.927
 2166TIP3    H2 6456   0.306   6.872   0.899
 2167TIP3   OH2 6457   3.120   2.063   0.677
 2167TIP3    H1 6458   3.146   2.051   0.768
 2167TIP3    H2 6459   3.151   1.985   0.631
 2168TIP3   OH2 6460   6.389   7.117   6.092
 2168TIP3    H1 6461   6.349   7.031   6.103
 2168TIP3    H2 6462   6.315   7.176   6.078
 2169TIP3   OH2 6463   7.176   7.380   3.839
 2169TIP3    H1 6464   7.211   7.311   3.782
 2169TIP3    H2 6465   7.248   7.401   3.899
 2170TIP3   OH2 6466   5.480   0.216   4.465
 2170TIP3    H1 6467   5.438   0.215   4.551
 2170TIP3    H2 6468   5.481   0.124   4.438
 2171TIP3   OH2 6469   6.756   4.986   5.665
 2171TIP3    H1 6470   6.691   4.944   5.608
 2171TIP3    H2 6471   6.782   5.065   5.619
 2172TIP3   OH2 6472   0.657   6.568   6.523
 2172TIP3    H1 6473   0.674   6.569   6.429
 2172TIP3    H2 6474   0.617   6.482   6.539
 2173TIP3   OH2 6475   5.628   0.666   6.648
 2173TIP3    H1 6476   5.543   0.667   6.693
 2173TIP3    H2 6477   5.608   0.634   6.560
 2174TIP3   OH2 6478   6.360   1.245   5.081
 2174TIP3    H1 6479   6.394   1.290   5.159
 2174TIP3    H2 6480   6.314   1.169   5.117
 2175TIP3   OH2 6481   5.192   7.415   2.060
 2175TIP3    H1 6482   5.263   7.351   2.068
 2175TIP3    H2 6483   5.236   7.500   2.060
 2176TIP3   OH2 6484   5.406   5.370   6.373
 2176TIP3    H1 6485   5.499   5.364   6.353
 2176TIP3    H2 6486   5.391   5.306   6.443
 2177TIP3   OH2 6487   3.950   5.708   1.648
 2177TIP3    H1 6488   3.955   5.675   1.737
 2177TIP3    H2 6489   3.967   5.802   1.655
 2178TIP3   OH2 6490   1.229   4.592   5.728
 2178TIP3    H1 6491   1.226   4.571   5.635
 2178TIP3    H2 6492   1.142   4.627   5.748
 2179TIP3   OH2 6493   2.764   6.315   2.332
 2179TIP3    H1 6494   2.769   6.222   2.351
 2179TIP3    H2 6495   2.842   6.353   2.373
 2180TIP3   OH2 6496   0.668   1.999   5.270
 2180TIP3    H1 6497   0.581   1.973   5.239
 2180TIP3    H2 6498   0.662   1.995   5.365
 2181TIP3   OH2 6499   1.950   4.183   6.598
 2181TIP3    H1 6500   2.001   4.107   6.626
 2181TIP3    H2 6501   1.893   4.150   6.529
 2182TIP3   OH2 6502   2.640   7.549   6.002
 2182TIP3    H1 6503   2.677   7.463   5.984
 2182TIP3    H2 6504   2.690   7.583   6.076
 2183TIP3   OH2 6505   7.323   1.114   6.471
 2183TIP3    H1 6506   7.277   1.030   6.463
 2183TIP3    H2 6507   7.400   1.104   6.415
 2184TIP3   OH2 6508   5.063   7.004   4.754
 2184TIP3    H1 6509   5.034   6.921   4.715
 2184TIP3    H2 6510   5.137   7.032   4.700
 2185TIP3   OH2 6511   0.314   5.086   0.421
 2185TIP3    H1 6512   0.329   5.151   0.490
 2185TIP3    H2 6513   0.354   5.124   0.343
 2186TIP3   OH2 6514   1.566   0.419   3.368
 2186TIP3    H1 6515   1.659   0.441   3.379
 2186TIP3    H2 6516   1.563   0.369   3.287
 2187TIP3   OH2 6517   2.082   6.683   5.256
 2187TIP3    H1 6518   2.116   6.700   5.168
 2187TIP3    H2 6519   2.053   6.592   5.253
 2188TIP3   OH2 6520   5.488  -0.034   3.060
 2188TIP3    H1 6521   5.474  -0.004   3.150
 2188TIP3    H2 6522   5.582  -0.019   3.045
 2189TIP3   OH2 6523   0.526   2.014   6.460
 2189TIP3    H1 6524   0.448   2.019   6.516
 2189TIP3    H2 6525   0.586   2.079   6.497
 2190TIP3   OH2 6526   2.860   5.694   1.063
 2190TIP3    H1 6527   2.792   5.703   0.996
 2190TIP3    H2 6528   2.842   5.764   1.125
 2191TIP3   OH2 6529   1.757   4.107   1.305
 2191TIP3    H1 6530   1.795   4.193   1.284
 2191TIP3    H2 6531   1.673   4.127   1.347
 2192TIP3   OH2 6532   1.683   1.561   4.478
 2192TIP3    H1 6533   1.627   1.586   4.552
 2192TIP3    H2 6534   1.770   1.551   4.517
 2193TIP3   OH2 6535   5.152   4.089   5.851
 2193TIP3    H1 6536   5.132   4.007   5.807
 2193TIP3    H2 6537   5.241   4.077   5.884
 2194TIP3   OH2 6538   3.390   4.170   2.128
 2194TIP3    H1 6539   3.343   4.123   2.059
 2194TIP3    H2 6540   3.481   4.146   2.115
 2195TIP3   OH2 6541   0.212   4.768   0.431
 2195TIP3    H1 6542   0.199   4.797   0.341
 2195TIP3    H2 6543   0.136   4.800   0.479
 2196TIP3   OH2 6544   2.314   1.025   2.172
 2196TIP3    H1 6545   2.330   0.988   2.259
 2196TIP3    H2 6546   2.384   0.990   2.118
 2197TIP3   OH2 6547   0.008   6.340   6.021
 2197TIP3    H1 6548   0.097   6.303   6.019
 2197TIP3    H2 6549  -0.042   6.279   6.074
 2198TIP3   OH2 6550   1.840   2.506   1.287
 2198TIP3    H1 6551   1.804   2.434   1.235
 2198TIP3    H2 6552   1.920   2.531   1.241
 2199TIP3   OH2 6553   4.494   3.287   0.801
 2199TIP3    H1 6554   4.577   3.277   0.754
 2199TIP3    H2 6555   4.468   3.198   0.823
 2200TIP3   OH2 6556   0.506   1.344   4.156
 2200TIP3    H1 6557   0.593   1.320   4.122
 2200TIP3    H2 6558   0.470   1.261   4.188
 2201TIP3   OH2 6559   7.889   1.495   5.613
 2201TIP3    H1 6560   7.835   1.451   5.547
 2201TIP3    H2 6561   7.978   1.466   5.595
 2202TIP3   OH2 6562   8.047   2.054   5.123
 2202TIP3    H1 6563   8.019   2.042   5.214
 2202TIP3    H2 6564   8.130   2.101   5.129
 2203TIP3   OH2 6565   0.520   3.593   1.586
 2203TIP3    H1 6566   0.450   3.658   1.586
 2203TIP3    H2 6567   0.517   3.555   1.674
 2204TIP3   OH2 6568   6.001   6.209   6.451
 2204TIP3    H1 6569   6.054   6.285   6.474
 2204TIP3    H2 6570   5.996   6.157   6.531
 2205TIP3   OH2 6571   3.991   0.990   3.495
 2205TIP3    H1 6572   3.948   0.975   3.410
 2205TIP3    H2 6573   4.033   1.075   3.485
 2206TIP3   OH2 6574   1.278   1.097   1.614
 2206TIP3    H1 6575   1.348   1.079   1.676
 2206TIP3    H2 6576   1.322   1.133   1.537
 2207TIP3   OH2 6577   0.794   1.921   3.469
 2207TIP3    H1 6578   0.740   1.901   3.545
 2207TIP3    H2 6579   0.843   2.000   3.493
 2208TIP3   OH2 6580   4.813   2.430   2.605
 2208TIP3    H1 6581   4.734   2.484   2.598
 2208TIP3    H2 6582   4.847   2.425   2.516
 2209TIP3   OH2 6583   7.873   6.562   6.760
 2209TIP3    H1 6584   7.889   6.645   6.804
 2209TIP3    H2 6585   7.929   6.564   6.682
 2210TIP3   OH2 6586   0.134   2.469   5.013
 2210TIP3    H1 6587   0.054   2.473   4.960
 2210TIP3    H2 6588   0.171   2.383   4.993
 2211TIP3   OH2 6589   6.703   6.952   0.174
 2211TIP3    H1 6590   6.747   7.034   0.198
 2211TIP3    H2 6591   6.673   6.966   0.084
 2212TIP3   OH2 6592   3.832   7.093   6.320
 2212TIP3    H1 6593   3.817   7.171   6.267
 2212TIP3    H2 6594   3.856   7.025   6.257
 2213TIP3   OH2 6595   8.120   1.644   0.640
 2213TIP3    H1 6596   8.145   1.593   0.563
 2213TIP3    H2 6597   8.202   1.657   0.688
 2214TIP3   OH2 6598   5.699   0.958   4.511
 2214TIP3    H1 6599   5.702   0.877   4.459
 2214TIP3    H2 6600   5.642   0.937   4.585
 2215TIP3   OH2 6601   5.557   1.227   6.759
 2215TIP3    H1 6602   5.499   1.189   6.693
 2215TIP3    H2 6603   5.620   1.278   6.709
 2216TIP3   OH2 6604   4.698   7.724   5.300
 2216TIP3    H1 6605   4.663   7.794   5.355
 2216TIP3    H2 6606   4.621   7.687   5.256
 2217TIP3   OH2 6607   4.832   3.641   4.183
 2217TIP3    H1 6608   4.738   3.626   4.170
 2217TIP3    H2 6609   4.873   3.602   4.106
 2218TIP3   OH2 6610   7.585   3.076   6.002
 2218TIP3    H1 6611   7.656   3.138   5.985
 2218TIP3    H2 6612   7.506   3.129   6.001
 2219TIP3   OH2 6613   7.986   0.187   5.010
 2219TIP3    H1 6614   7.937   0.149   5.083
 2219TIP3    H2 6615   8.067   0.138   5.007
 2220TIP3   OH2 6616   4.554   7.398   5.432
 2220TIP3    H1 6617   4.637   7.439   5.457
 2220TIP3    H2 6618   4.504   7.395   5.514
 2221TIP3   OH2 6619   3.631   1.503   0.642
 2221TIP3    H1 6620   3.613   1.410   0.658
 2221TIP3    H2 6621   3.713   1.519   0.688
 2222TIP3   OH2 6622   5.297   3.748   4.018
 2222TIP3    H1 6623   5.341   3.816   4.069
 2222TIP3    H2 6624   5.300   3.780   3.928
 2223TIP3   OH2 6625   7.054   3.011   0.391
 2223TIP3    H1 6626   6.981   2.953   0.413
 2223TIP3    H2 6627   7.018   3.072   0.327
 2224TIP3   OH2 6628   2.487   5.543   3.126
 2224TIP3    H1 6629   2.543   5.475   3.089
 2224TIP3    H2 6630   2.516   5.624   3.083
 2225TIP3   OH2 6631   0.189   2.432   1.172
 2225TIP3    H1 6632   0.177   2.429   1.267
 2225TIP3    H2 6633   0.196   2.340   1.146
 2226TIP3   OH2 6634   2.823   1.233   2.622
 2226TIP3    H1 6635   2.728   1.238   2.613
 2226TIP3    H2 6636   2.843   1.290   2.697
 2227TIP3   OH2 6637   5.324   2.656   2.912
 2227TIP3    H1 6638   5.323   2.746   2.946
 2227TIP3    H2 6639   5.374   2.607   2.977
 2228TIP3   OH2 6640   0.962   7.696   2.840
 2228TIP3    H1 6641   0.905   7.772   2.835
 2228TIP3    H2 6642   0.961   7.671   2.932
 2229TIP3   OH2 6643   6.278   0.701   5.471
 2229TIP3    H1 6644   6.199   0.753   5.458
 2229TIP3    H2 6645   6.337   0.758   5.521
 2230TIP3   OH2 6646   2.502   1.548   0.934
 2230TIP3    H1 6647   2.534   1.557   1.024
 2230TIP3    H2 6648   2.575   1.576   0.880
 2231TIP3   OH2 6649   7.046   7.710   4.702
 2231TIP3    H1 6650   7.022   7.803   4.705
 2231TIP3    H2 6651   7.052   7.684   4.794
 2232TIP3   OH2 6652   3.050   1.233   3.331
 2232TIP3    H1 6653   3.007   1.155   3.296
 2232TIP3    H2 6654   3.074   1.208   3.421
 2233TIP3   OH2 6655   6.837   0.330   4.005
 2233TIP3    H1 6656   6.805   0.244   4.033
 2233TIP3    H2 6657   6.840   0.324   3.909
 2234TIP3   OH2 6658   1.120   0.853   3.119
 2234TIP3    H1 6659   1.190   0.876   3.180
 2234TIP3    H2 6660   1.102   0.934   3.072
 2235TIP3   OH2 6661   7.480   6.221   5.134
 2235TIP3    H1 6662   7.448   6.178   5.214
 2235TIP3    H2 6663   7.528   6.297   5.166
 2236TIP3   OH2 6664   0.610   5.680   2.601
 2236TIP3    H1 6665   0.598   5.589   2.629
 2236TIP3    H2 6666   0.691   5.678   2.549
 2237TIP3   OH2 6667   7.444   2.166   3.527
 2237TIP3    H1 6668   7.531   2.137   3.498
 2237TIP3    H2 6669   7.447   2.261   3.517
 2238TIP3   OH2 6670   5.540   7.834   1.469
 2238TIP3    H1 6671   5.483   7.760   1.448
 2238TIP3    H2 6672   5.583   7.856   1.386
 2239TIP3   OH2 6673   1.027   7.531   2.104
 2239TIP3    H1 6674   1.024   7.582   2.185
 2239TIP3    H2 6675   1.069   7.589   2.041
 2240TIP3   OH2 6676   2.027   5.040   4.037
 2240TIP3    H1 6677   1.948   5.094   4.039
 2240TIP3    H2 6678   2.074   5.064   4.117
 2241TIP3   OH2 6679   8.284   4.875   6.478
 2241TIP3    H1 6680   8.191   4.896   6.485
 2241TIP3    H2 6681   8.298   4.804   6.540
 2242TIP3   OH2 6682   3.111   1.901   5.582
 2242TIP3    H1 6683   3.165   1.979   5.576
 2242TIP3    H2 6684   3.057   1.903   5.503
 2243TIP3   OH2 6685   5.991   5.349   1.776
 2243TIP3    H1 6686   5.970   5.377   1.866
 2243TIP3    H2 6687   6.015   5.256   1.785
 2244TIP3   OH2 6688   0.159   2.214   4.915
 2244TIP3    H1 6689   0.254   2.203   4.911
 2244TIP3    H2 6690   0.126   2.174   4.834
 2245TIP3   OH2 6691   4.769   0.277   5.136
 2245TIP3    H1 6692   4.732   0.190   5.121
 2245TIP3    H2 6693   4.829   0.291   5.063
 2246TIP3   OH2 6694   1.431   1.980   5.288
 2246TIP3    H1 6695   1.452   2.062   5.332
 2246TIP3    H2 6696   1.432   1.915   5.359
 2247TIP3   OH2 6697   6.418   4.719   5.895
 2247TIP3    H1 6698   6.451   4.634   5.866
 2247TIP3    H2 6699   6.496   4.773   5.904
 2248TIP3   OH2 6700   4.062   5.462   6.391
 2248TIP3    H1 6701   4.157   5.463   6.393
 2248TIP3    H2 6702   4.039   5.502   6.307
 2249TIP3   OH2 6703   0.090   1.018   1.548
 2249TIP3    H1 6704   0.059   0.930   1.568
 2249TIP3    H2 6705   0.056   1.072   1.619
 2250TIP3   OH2 6706   0.324   4.156   6.271
 2250TIP3    H1 6707   0.308   4.066   6.244
 2250TIP3    H2 6708   0.322   4.153   6.367
 2251TIP3   OH2 6709   1.241   3.180   5.008
 2251TIP3    H1 6710   1.234   3.229   4.926
 2251TIP3    H2 6711   1.175   3.220   5.065
 2252TIP3   OH2 6712   0.188   2.182   2.677
 2252TIP3    H1 6713   0.279   2.195   2.703
 2252TIP3    H2 6714   0.167   2.092   2.702
 2253TIP3   OH2 6715   1.299   3.856   1.786
 2253TIP3    H1 6716   1.369   3.883   1.846
 2253TIP3    H2 6717   1.332   3.878   1.699
 2254TIP3   OH2 6718   0.104   6.454   0.518
 2254TIP3    H1 6719   0.072   6.471   0.429
 2254TIP3    H2 6720   0.026   6.424   0.565
 2255TIP3   OH2 6721   2.032   2.653   3.999
 2255TIP3    H1 6722   2.032   2.712   4.075
 2255TIP3    H2 6723   2.118   2.664   3.959
 2256TIP3   OH2 6724   7.589   2.460   5.670
 2256TIP3    H1 6725   7.669   2.435   5.623
 2256TIP3    H2 6726   7.592   2.556   5.671
 2257TIP3   OH2 6727   2.653   1.806   3.337
 2257TIP3    H1 6728   2.644   1.834   3.246
 2257TIP3    H2 6729   2.602   1.870   3.387
 2258TIP3   OH2 6730   8.084   6.185   2.396
 2258TIP3    H1 6731   8.036   6.268   2.403
 2258TIP3    H2 6732   8.175   6.208   2.415
 2259TIP3   OH2 6733   1.154   7.482   1.556
 2259TIP3    H1 6734   1.060   7.463   1.548
 2259TIP3    H2 6735   1.169   7.553   1.493
 2260TIP3   OH2 6736   8.303   3.554   0.963
 2260TIP3    H1 6737   8.308   3.632   0.907
 2260TIP3    H2 6738   8.213   3.552   0.994
 2261TIP3   OH2 6739   0.426   1.345   5.263
 2261TIP3    H1 6740   0.479   1.353   5.342
 2261TIP3    H2 6741   0.463   1.410   5.203
 2262TIP3   OH2 6742   0.334   0.861   1.580
 2262TIP3    H1 6743   0.370   0.838   1.494
 2262TIP3    H2 6744   0.255   0.911   1.560
 2263TIP3   OH2 6745   5.294   4.124   4.430
 2263TIP3    H1 6746   5.338   4.067   4.367
 2263TIP3    H2 6747   5.363   4.150   4.491
 2264TIP3   OH2 6748   2.714   5.859   0.247
 2264TIP3    H1 6749   2.635   5.886   0.200
 2264TIP3    H2 6750   2.686   5.784   0.299
 2265TIP3   OH2 6751   4.931   4.674   2.828
 2265TIP3    H1 6752   4.864   4.694   2.762
 2265TIP3    H2 6753   4.985   4.607   2.787
 2266TIP3   OH2 6754   0.808   3.791   0.456
 2266TIP3    H1 6755   0.744   3.744   0.510
 2266TIP3    H2 6756   0.780   3.882   0.460
 2267TIP3   OH2 6757   2.062   0.217   0.878
 2267TIP3    H1 6758   2.075   0.203   0.784
 2267TIP3    H2 6759   2.017   0.301   0.885
 2268TIP3   OH2 6760   1.344   0.113   2.430
 2268TIP3    H1 6761   1.376   0.113   2.520
 2268TIP3    H2 6762   1.409   0.061   2.381
 2269TIP3   OH2 6763   3.367   7.246   3.013
 2269TIP3    H1 6764   3.367   7.275   2.921
 2269TIP3    H2 6765   3.375   7.327   3.063
 2270TIP3   OH2 6766   6.495   7.202   3.786
 2270TIP3    H1 6767   6.427   7.242   3.841
 2270TIP3    H2 6768   6.578   7.231   3.826
 2271TIP3   OH2 6769   6.926   0.463   2.933
 2271TIP3    H1 6770   6.867   0.390   2.914
 2271TIP3    H2 6771   7.006   0.422   2.963
 2272TIP3   OH2 6772   2.185   3.064   5.363
 2272TIP3    H1 6773   2.091   3.082   5.362
 2272TIP3    H2 6774   2.203   3.038   5.454
 2273TIP3   OH2 6775   6.704   1.860   5.811
 2273TIP3    H1 6776   6.761   1.860   5.887
 2273TIP3    H2 6777   6.762   1.840   5.737
 2274TIP3   OH2 6778   0.647   6.870   5.757
 2274TIP3    H1 6779   0.710   6.939   5.735
 2274TIP3    H2 6780   0.671   6.796   5.701
 2275TIP3   OH2 6781   3.005   1.205   2.054
 2275TIP3    H1 6782   2.925   1.153   2.049
 2275TIP3    H2 6783   3.007   1.255   1.972
 2276TIP3   OH2 6784   4.437   5.856   0.505
 2276TIP3    H1 6785   4.450   5.897   0.419
 2276TIP3    H2 6786   4.347   5.879   0.529
 2277TIP3   OH2 6787   4.606   0.495   4.029
 2277TIP3    H1 6788   4.643   0.540   3.953
 2277TIP3    H2 6789   4.550   0.427   3.993
 2278TIP3   OH2 6790   4.660   6.974   6.434
 2278TIP3    H1 6791   4.706   6.891   6.429
 2278TIP3    H2 6792   4.673   7.004   6.524
 2279TIP3   OH2 6793   1.608   5.417   5.642
 2279TIP3    H1 6794   1.644   5.452   5.560
 2279TIP3    H2 6795   1.659   5.459   5.711
 2280TIP3   OH2 6796   0.093   2.377   4.622
 2280TIP3    H1 6797   0.127   2.465   4.637
 2280TIP3    H2 6798   0.157   2.336   4.564
 2281TIP3   OH2 6799   3.431   4.641   4.670
 2281TIP3    H1 6800   3.490   4.631   4.596
 2281TIP3    H2 6801   3.488   4.656   4.745
 2282TIP3   OH2 6802   2.977   6.302   0.643
 2282TIP3    H1 6803   2.897   6.334   0.603
 2282TIP3    H2 6804   2.951   6.224   0.692
 2283TIP3   OH2 6805   8.177   4.499   0.319
 2283TIP3    H1 6806   8.262   4.469   0.349
 2283TIP3    H2 6807   8.166   4.584   0.361
 2284TIP3   OH2 6808   2.963   0.747   2.603
 2284TIP3    H1 6809   2.913   0.821   2.638
 2284TIP3    H2 6810   3.037   0.787   2.557
 2285TIP3   OH2 6811   6.050   3.641   4.672
 2285TIP3    H1 6812   6.016   3.606   4.590
 2285TIP3    H2 6813   6.138   3.605   4.679
 2286TIP3   OH2 6814   4.794   5.130   2.701
 2286TIP3    H1 6815   4.748   5.124   2.617
 2286TIP3    H2 6816   4.881   5.162   2.679
 2287TIP3   OH2 6817   3.463   1.327   6.747
 2287TIP3    H1 6818   3.418   1.248   6.776
 2287TIP3    H2 6819   3.556   1.303   6.745
 2288TIP3   OH2 6820   6.810   1.978   5.143
 2288TIP3    H1 6821   6.876   1.976   5.074
 2288TIP3    H2 6822   6.769   1.891   5.139
 2289TIP3   OH2 6823   5.990   7.182   6.225
 2289TIP3    H1 6824   5.953   7.101   6.259
 2289TIP3    H2 6825   6.058   7.206   6.288
 2290TIP3   OH2 6826   3.406   7.444   0.541
 2290TIP3    H1 6827   3.404   7.388   0.464
 2290TIP3    H2 6828   3.499   7.454   0.561
 2291TIP3   OH2 6829   5.269   3.140   0.073
 2291TIP3    H1 6830   5.293   3.054   0.107
 2291TIP3    H2 6831   5.175   3.134   0.058
 2292TIP3   OH2 6832   4.599   6.185   0.863
 2292TIP3    H1 6833   4.513   6.158   0.830
 2292TIP3    H2 6834   4.659   6.163   0.792
 2293TIP3   OH2 6835   4.150   6.576   3.780
 2293TIP3    H1 6836   4.206   6.521   3.725
 2293TIP3    H2 6837   4.074   6.521   3.798
 2294TIP3   OH2 6838   2.272   7.430   1.660
 2294TIP3    H1 6839   2.270   7.498   1.592
 2294TIP3    H2 6840   2.180   7.417   1.683
 2295TIP3   OH2 6841   1.770   4.613   3.567
 2295TIP3    H1 6842   1.812   4.642   3.648
 2295TIP3    H2 6843   1.682   4.650   3.571
 2296TIP3   OH2 6844   2.948   5.116   5.798
 2296TIP3    H1 6845   2.876   5.063   5.764
 2296TIP3    H2 6846   2.979   5.068   5.875
 2297TIP3   OH2 6847   2.638   7.499   5.385
 2297TIP3    H1 6848   2.560   7.542   5.351
 2297TIP3    H2 6849   2.711   7.553   5.353
 2298TIP3   OH2 6850   7.752   6.463   6.478
 2298TIP3    H1 6851   7.711   6.540   6.517
 2298TIP3    H2 6852   7.733   6.470   6.385
 2299TIP3   OH2 6853   4.902   3.816   6.619
 2299TIP3    H1 6854   4.910   3.838   6.712
 2299TIP3    H2 6855   4.837   3.878   6.585
 2300TIP3   OH2 6856   6.464   5.456   0.623
 2300TIP3    H1 6857   6.534   5.444   0.559
 2300TIP3    H2 6858   6.509   5.487   0.701
 2301TIP3   OH2 6859   4.508   2.384   5.354
 2301TIP3    H1 6860   4.538   2.456   5.409
 2301TIP3    H2 6861   4.566   2.386   5.278
 2302TIP3   OH2 6862   5.570   3.575   3.955
 2302TIP3    H1 6863   5.621   3.651   3.982
 2302TIP3    H2 6864   5.489   3.580   4.006
 2303TIP3   OH2 6865   2.116   1.878   6.192
 2303TIP3    H1 6866   2.096   1.971   6.191
 2303TIP3    H2 6867   2.073   1.845   6.271
 2304TIP3   OH2 6868   5.491   2.512   4.636
 2304TIP3    H1 6869   5.490   2.524   4.541
 2304TIP3    H2 6870   5.581   2.531   4.662
 2305TIP3   OH2 6871   2.215   5.572   6.468
 2305TIP3    H1 6872   2.301   5.612   6.480
 2305TIP3    H2 6873   2.212   5.502   6.533
 2306TIP3   OH2 6874   7.008   7.790   0.044
 2306TIP3    H1 6875   7.059   7.715   0.074
 2306TIP3    H2 6876   7.009   7.852   0.117
 2307TIP3   OH2 6877   5.811   0.490   2.540
 2307TIP3    H1 6878   5.793   0.422   2.475
 2307TIP3    H2 6879   5.742   0.479   2.606
 2308TIP3   OH2 6880   7.783   0.932   5.602
 2308TIP3    H1 6881   7.801   0.844   5.633
 2308TIP3    H2 6882   7.695   0.952   5.632
 2309TIP3   OH2 6883   7.844   0.553   4.436
 2309TIP3    H1 6884   7.908   0.621   4.418
 2309TIP3    H2 6885   7.887   0.471   4.411
 2310TIP3   OH2 6886   4.303   4.309   3.014
 2310TIP3    H1 6887   4.286   4.304   3.108
 2310TIP3    H2 6888   4.269   4.227   2.979
 2311TIP3   OH2 6889   7.647   1.602   4.820
 2311TIP3    H1 6890   7.600   1.549   4.885
 2311TIP3    H2 6891   7.624   1.693   4.842
 2312TIP3   OH2 6892   6.924   1.960   6.706
 2312TIP3    H1 6893   6.891   1.927   6.623
 2312TIP3    H2 6894   6.996   2.019   6.683
 2313TIP3   OH2 6895   3.771   6.846   0.977
 2313TIP3    H1 6896   3.729   6.777   1.029
 2313TIP3    H2 6897   3.704   6.871   0.913
 2314TIP3   OH2 6898   0.689   3.945   4.648
 2314TIP3    H1 6899   0.634   3.872   4.621
 2314TIP3    H2 6900   0.696   3.937   4.743
 2315TIP3   OH2 6901   0.950   0.462   1.414
 2315TIP3    H1 6902   1.041   0.488   1.402
 2315TIP3    H2 6903   0.901   0.519   1.355
 2316TIP3   OH2 6904   4.265   5.452   5.412
 2316TIP3    H1 6905   4.301   5.380   5.361
 2316TIP3    H2 6906   4.270   5.421   5.503
 2317TIP3   OH2 6907   3.368   2.969   6.207
 2317TIP3    H1 6908   3.307   3.026   6.254
 2317TIP3    H2 6909   3.446   2.969   6.262
 2318TIP3   OH2 6910   2.466   3.938   0.089
 2318TIP3    H1 6911   2.393   3.877   0.083
 2318TIP3    H2 6912   2.538   3.884   0.123
 2319TIP3   OH2 6913   0.491   4.257   5.265
 2319TIP3    H1 6914   0.584   4.258   5.291
 2319TIP3    H2 6915   0.443   4.253   5.348
 2320TIP3   OH2 6916   0.955   2.568   5.079
 2320TIP3    H1 6917   0.926   2.532   4.995
 2320TIP3    H2 6918   1.031   2.622   5.057
 2321TIP3   OH2 6919   3.007   3.793   6.502
 2321TIP3    H1 6920   3.046   3.763   6.584
 2321TIP3    H2 6921   2.987   3.713   6.454
 2322TIP3   OH2 6922   4.134   3.178   3.323
 2322TIP3    H1 6923   4.148   3.260   3.371
 2322TIP3    H2 6924   4.212   3.169   3.268
 2323TIP3   OH2 6925   7.487   0.144   4.552
 2323TIP3    H1 6926   7.521   0.199   4.482
 2323TIP3    H2 6927   7.528   0.179   4.632
 2324TIP3   OH2 6928   1.817   3.921   6.583
 2324TIP3    H1 6929   1.783   3.848   6.636
 2324TIP3    H2 6930   1.741   3.977   6.570
 2325TIP3   OH2 6931   1.655   7.181   4.583
 2325TIP3    H1 6932   1.660   7.093   4.619
 2325TIP3    H2 6933   1.657   7.168   4.488
 2326TIP3   OH2 6934   4.758   3.611   6.748
 2326TIP3    H1 6935   4.762   3.672   6.675
 2326TIP3    H2 6936   4.849   3.589   6.766
 2327TIP3   OH2 6937   2.836   2.840   1.232
 2327TIP3    H1 6938   2.929   2.821   1.228
 2327TIP3    H2 6939   2.807   2.838   1.140
 2328TIP3   OH2 6940   7.540   4.033   5.736
 2328TIP3    H1 6941   7.571   4.038   5.645
 2328TIP3    H2 6942   7.476   4.104   5.743
 2329TIP3   OH2 6943   2.008   1.156   0.119
 2329TIP3    H1 6944   2.083   1.097   0.114
 2329TIP3    H2 6945   1.957   1.138   0.039
 2330TIP3   OH2 6946   5.979   6.814   3.996
 2330TIP3    H1 6947   6.072   6.802   4.015
 2330TIP3    H2 6948   5.940   6.840   4.079
 2331TIP3   OH2 6949   2.216   2.799   5.208
 2331TIP3    H1 6950   2.262   2.716   5.224
 2331TIP3    H2 6951   2.243   2.855   5.280
 2332TIP3   OH2 6952   7.746   6.694   2.957
 2332TIP3    H1 6953   7.697   6.772   2.985
 2332TIP3    H2 6954   7.772   6.714   2.867
 2333TIP3   OH2 6955   4.507   5.040   2.696
 2333TIP3    H1 6956   4.508   5.117   2.754
 2333TIP3    H2 6957   4.600   5.019   2.684
 2334TIP3   OH2 6958   2.585   3.167   2.534
 2334TIP3    H1 6959   2.674   3.135   2.549
 2334TIP3    H2 6960   2.575   3.239   2.596
 2335TIP3   OH2 6961   0.157   3.321   2.662
 2335TIP3    H1 6962   0.121   3.233   2.647
 2335TIP3    H2 6963   0.239   3.305   2.709
 2336TIP3   OH2 6964   0.951   5.199   6.327
 2336TIP3    H1 6965   0.961   5.264   6.258
 2336TIP3    H2 6966   0.857   5.192   6.341
 2337TIP3   OH2 6967   2.515   4.655   3.025
 2337TIP3    H1 6968   2.443   4.646   2.964
 2337TIP3    H2 6969   2.537   4.748   3.024
 2338TIP3   OH2 6970   7.148   6.834   0.570
 2338TIP3    H1 6971   7.074   6.774   0.584
 2338TIP3    H2 6972   7.199   6.828   0.650
 2339TIP3   OH2 6973   4.531   3.603   1.255
 2339TIP3    H1 6974   4.458   3.636   1.203
 2339TIP3    H2 6975   4.504   3.516   1.283
 2340TIP3   OH2 6976   5.108   3.232   5.742
 2340TIP3    H1 6977   5.091   3.142   5.769
 2340TIP3    H2 6978   5.156   3.224   5.660
 2341TIP3   OH2 6979   0.299   3.779   0.004
 2341TIP3    H1 6980   0.238   3.821   0.064
 2341TIP3    H2 6981   0.260   3.694  -0.014
 2342TIP3   OH2 6982   6.824   7.042   2.293
 2342TIP3    H1 6983   6.733   7.042   2.321
 2342TIP3    H2 6984   6.837   7.127   2.251
 2343TIP3   OH2 6985   7.427   5.779   2.576
 2343TIP3    H1 6986   7.397   5.794   2.665
 2343TIP3    H2 6987   7.523   5.775   2.583
 2344TIP3   OH2 6988   0.363   5.168   2.490
 2344TIP3    H1 6989   0.446   5.180   2.536
 2344TIP3    H2 6990   0.372   5.083   2.446
 2345TIP3   OH2 6991   4.827   4.629   3.502
 2345TIP3    H1 6992   4.826   4.712   3.550
 2345TIP3    H2 6993   4.840   4.654   3.411
 2346TIP3   OH2 6994   7.005   5.623   4.916
 2346TIP3    H1 6995   6.925   5.611   4.865
 2346TIP3    H2 6996   6.997   5.712   4.952
 2347TIP3   OH2 6997   5.069   6.294   3.956
 2347TIP3    H1 6998   5.128   6.274   3.883
 2347TIP3    H2 6999   5.127   6.327   4.025
 2348TIP3   OH2 7000   1.672   0.148   3.265
 2348TIP3    H1 7001   1.647   0.123   3.354
 2348TIP3    H2 7002   1.723   0.074   3.233
 2349TIP3   OH2 7003   1.326   2.097   2.456
 2349TIP3    H1 7004   1.251   2.149   2.428
 2349TIP3    H2 7005   1.377   2.156   2.511
 2350TIP3   OH2 7006   5.105   4.227   6.107
 2350TIP3    H1 7007   5.197   4.232   6.133
 2350TIP3    H2 7008   5.107   4.194   6.017
 2351TIP3   OH2 7009   0.824   6.116   2.379
 2351TIP3    H1 7010   0.762   6.082   2.314
 2351TIP3    H2 7011   0.816   6.057   2.453
 2352TIP3   OH2 7012   1.979   5.509   5.512
 2352TIP3    H1 7013   1.979   5.542   5.602
 2352TIP3    H2 7014   2.004   5.417   5.521
 2353TIP3   OH2 7015   3.082   5.107   0.683
 2353TIP3    H1 7016   2.999   5.151   0.703
 2353TIP3    H2 7017   3.149   5.163   0.721
 2354TIP3   OH2 7018   5.918   4.524   6.761
 2354TIP3    H1 7019   5.894   4.570   6.680
 2354TIP3    H2 7020   6.014   4.523   6.761
 2355TIP3   OH2 7021   2.939   7.051   2.863
 2355TIP3    H1 7022   2.908   7.094   2.783
 2355TIP3    H2 7023   2.862   7.049   2.920
 2356TIP3   OH2 7024   6.808   5.495   4.788
 2356TIP3    H1 7025   6.831   5.413   4.832
 2356TIP3    H2 7026   6.815   5.474   4.694
 2357TIP3   OH2 7027   3.369   7.264   0.339
 2357TIP3    H1 7028   3.443   7.290   0.283
 2357TIP3    H2 7029   3.296   7.254   0.278
 2358TIP3   OH2 7030   0.715   0.541   2.018
 2358TIP3    H1 7031   0.634   0.531   1.968
 2358TIP3    H2 7032   0.767   0.603   1.967
 2359TIP3   OH2 7033   5.379   5.626   0.973
 2359TIP3    H1 7034   5.363   5.542   1.016
 2359TIP3    H2 7035   5.474   5.629   0.962
 2360TIP3   OH2 7036   7.409   7.110   3.041
 2360TIP3    H1 7037   7.434   7.138   3.129
 2360TIP3    H2 7038   7.321   7.072   3.052
 2361TIP3   OH2 7039   5.033   3.267   0.277
 2361TIP3    H1 7040   5.105   3.208   0.303
 2361TIP3    H2 7041   4.994   3.225   0.200
 2362TIP3   OH2 7042   1.903   4.286   0.876
 2362TIP3    H1 7043   1.922   4.241   0.958
 2362TIP3    H2 7044   1.923   4.221   0.808
 2363TIP3   OH2 7045   2.066   4.354   5.746
 2363TIP3    H1 7046   2.098   4.439   5.715
 2363TIP3    H2 7047   2.135   4.292   5.723
 2364TIP3   OH2 7048   6.611   0.510   0.600
 2364TIP3    H1 7049   6.623   0.603   0.584
 2364TIP3    H2 7050   6.575   0.475   0.519
 2365TIP3   OH2 7051   1.786   7.212   1.916
 2365TIP3    H1 7052   1.796   7.137   1.859
 2365TIP3    H2 7053   1.702   7.251   1.891
 2366TIP3   OH2 7054   2.214   5.422   2.594
 2366TIP3    H1 7055   2.229   5.425   2.688
 2366TIP3    H2 7056   2.148   5.489   2.577
 2367TIP3   OH2 7057   3.762   6.082   5.160
 2367TIP3    H1 7058   3.848   6.048   5.137
 2367TIP3    H2 7059   3.733   6.130   5.083
 2368TIP3   OH2 7060   2.345   6.072   5.630
 2368TIP3    H1 7061   2.289   6.116   5.694
 2368TIP3    H2 7062   2.338   5.979   5.652
 2369TIP3   OH2 7063   1.636   6.236   5.030
 2369TIP3    H1 7064   1.570   6.301   5.005
 2369TIP3    H2 7065   1.611   6.157   4.983
 2370TIP3   OH2 7066   5.330   5.659   4.610
 2370TIP3    H1 7067   5.399   5.726   4.616
 2370TIP3    H2 7068   5.367   5.592   4.552
 2371TIP3   OH2 7069   0.137   6.281   1.624
 2371TIP3    H1 7070   0.211   6.224   1.600
 2371TIP3    H2 7071   0.084   6.228   1.683
 2372TIP3   OH2 7072   1.675   1.578   0.122
 2372TIP3    H1 7073   1.756   1.559   0.075
 2372TIP3    H2 7074   1.671   1.512   0.191
 2373TIP3   OH2 7075   2.684   2.565   2.092
 2373TIP3    H1 7076   2.616   2.605   2.038
 2373TIP3    H2 7077   2.761   2.560   2.035
 2374TIP3   OH2 7078   7.396   3.300   5.011
 2374TIP3    H1 7079   7.424   3.355   4.937
 2374TIP3    H2 7080   7.374   3.362   5.080
 2375TIP3   OH2 7081   4.867   4.015   5.355
 2375TIP3    H1 7082   4.790   4.001   5.299
 2375TIP3    H2 7083   4.853   3.958   5.430
 2376TIP3   OH2 7084   1.392   1.915   1.669
 2376TIP3    H1 7085   1.390   2.000   1.624
 2376TIP3    H2 7086   1.308   1.910   1.715
 2377TIP3   OH2 7087   5.477   5.507   4.440
 2377TIP3    H1 7088   5.451   5.415   4.439
 2377TIP3    H2 7089   5.569   5.505   4.467
 2378TIP3   OH2 7090   5.943   6.138   3.679
 2378TIP3    H1 7091   5.881   6.175   3.742
 2378TIP3    H2 7092   5.897   6.141   3.595
 2379TIP3   OH2 7093   7.855   3.652   6.725
 2379TIP3    H1 7094   7.840   3.589   6.795
 2379TIP3    H2 7095   7.768   3.681   6.699
 2380TIP3   OH2 7096   4.245   4.058   2.939
 2380TIP3    H1 7097   4.304   4.026   3.007
 2380TIP3    H2 7098   4.158   4.046   2.976
 2381TIP3   OH2 7099   4.903   0.963   2.782
 2381TIP3    H1 7100   4.894   0.880   2.736
 2381TIP3    H2 7101   4.822   0.972   2.833
 2382TIP3   OH2 7102   8.066   4.120   2.992
 2382TIP3    H1 7103   8.058   4.086   2.902
 2382TIP3    H2 7104   8.138   4.071   3.030
 2383TIP3   OH2 7105   5.592   2.543   2.084
 2383TIP3    H1 7106   5.514   2.500   2.049
 2383TIP3    H2 7107   5.561   2.586   2.164
 2384TIP3   OH2 7108   7.493   2.068   1.069
 2384TIP3    H1 7109   7.534   2.150   1.044
 2384TIP3    H2 7110   7.495   2.015   0.989
 2385TIP3   OH2 7111   5.401   5.681   2.523
 2385TIP3    H1 7112   5.483   5.676   2.473
 2385TIP3    H2 7113   5.379   5.589   2.541
 2386TIP3   OH2 7114   3.091   6.684   1.745
 2386TIP3    H1 7115   3.074   6.754   1.809
 2386TIP3    H2 7116   3.180   6.656   1.763
 2387TIP3   OH2 7117   0.380   3.491   2.316
 2387TIP3    H1 7118   0.437   3.466   2.389
 2387TIP3    H2 7119   0.398   3.426   2.248
 2388TIP3   OH2 7120   8.106   2.376   2.682
 2388TIP3    H1 7121   8.128   2.386   2.589
 2388TIP3    H2 7122   8.011   2.370   2.683
 2389TIP3   OH2 7123   7.447   4.658   6.203
 2389TIP3    H1 7124   7.360   4.619   6.208
 2389TIP3    H2 7125   7.486   4.620   6.124
 2390TIP3   OH2 7126   7.333   3.956   0.552
 2390TIP3    H1 7127   7.338   4.002   0.636
 2390TIP3    H2 7128   7.322   4.026   0.488
 2391TIP3   OH2 7129   2.372   1.364   3.041
 2391TIP3    H1 7130   2.399   1.433   3.101
 2391TIP3    H2 7131   2.454   1.327   3.008
 2392TIP3   OH2 7132   5.412   1.931   4.857
 2392TIP3    H1 7133   5.389   1.908   4.767
 2392TIP3    H2 7134   5.331   1.922   4.906
 2393TIP3   OH2 7135   5.180   2.610   2.331
 2393TIP3    H1 7136   5.151   2.604   2.422
 2393TIP3    H2 7137   5.107   2.651   2.285
 2394TIP3   OH2 7138   3.410   6.126   0.039
 2394TIP3    H1 7139   3.379   6.054   0.093
 2394TIP3    H2 7140   3.504   6.110   0.029
 2395TIP3   OH2 7141   5.340   7.087   5.482
 2395TIP3    H1 7142   5.302   7.001   5.499
 2395TIP3    H2 7143   5.290   7.122   5.408
 2396TIP3   OH2 7144   5.851   4.304   2.379
 2396TIP3    H1 7145   5.918   4.347   2.432
 2396TIP3    H2 7146   5.775   4.363   2.384
 2397TIP3   OH2 7147   0.582   1.322   5.495
 2397TIP3    H1 7148   0.553   1.393   5.552
 2397TIP3    H2 7149   0.676   1.314   5.512
 2398TIP3   OH2 7150   5.449   4.164   5.248
 2398TIP3    H1 7151   5.478   4.237   5.303
 2398TIP3    H2 7152   5.450   4.199   5.159
 2399TIP3   OH2 7153   5.432   4.559   4.745
 2399TIP3    H1 7154   5.366   4.510   4.697
 2399TIP3    H2 7155   5.382   4.619   4.801
 2400TIP3   OH2 7156   2.145   7.354   3.208
 2400TIP3    H1 7157   2.214   7.330   3.270
 2400TIP3    H2 7158   2.172   7.315   3.125
 2401TIP3   OH2 7159   5.897   4.566   5.890
 2401TIP3    H1 7160   5.885   4.623   5.813
 2401TIP3    H2 7161   5.913   4.626   5.962
 2402TIP3   OH2 7162   5.582   5.459   4.083
 2402TIP3    H1 7163   5.542   5.507   4.156
 2402TIP3    H2 7164   5.619   5.381   4.123
 2403TIP3   OH2 7165   2.313   5.065   2.081
 2403TIP3    H1 7166   2.239   5.031   2.031
 2403TIP3    H2 7167   2.389   5.048   2.025
 2404TIP3   OH2 7168   2.705   2.189   5.689
 2404TIP3    H1 7169   2.773   2.168   5.625
 2404TIP3    H2 7170   2.623   2.168   5.644
 2405TIP3   OH2 7171   7.460   4.911   6.305
 2405TIP3    H1 7172   7.458   4.825   6.263
 2405TIP3    H2 7173   7.551   4.920   6.334
 2406TIP3   OH2 7174   7.690   4.983   0.444
 2406TIP3    H1 7175   7.719   4.994   0.534
 2406TIP3    H2 7176   7.718   4.894   0.421
 2407TIP3   OH2 7177   5.900   1.304   0.101
 2407TIP3    H1 7178   5.808   1.279   0.108
 2407TIP3    H2 7179   5.944   1.226   0.067
 2408TIP3   OH2 7180   0.651   2.867   1.370
 2408TIP3    H1 7181   0.573   2.921   1.363
 2408TIP3    H2 7182   0.645   2.827   1.457
 2409TIP3   OH2 7183   4.532   5.839   5.972
 2409TIP3    H1 7184   4.622   5.831   6.004
 2409TIP3    H2 7185   4.480   5.856   6.051
 2410TIP3   OH2 7186   2.120   6.650   3.340
 2410TIP3    H1 7187   2.148   6.737   3.368
 2410TIP3    H2 7188   2.024   6.653   3.349
 2411TIP3   OH2 7189   7.113   3.871   0.190
 2411TIP3    H1 7190   7.042   3.825   0.145
 2411TIP3    H2 7191   7.099   3.963   0.167
 2412TIP3   OH2 7192   0.482   1.543   6.189
 2412TIP3    H1 7193   0.509   1.630   6.159
 2412TIP3    H2 7194   0.388   1.551   6.205
 2413TIP3   OH2 7195   7.291   5.169   3.706
 2413TIP3    H1 7196   7.303   5.163   3.611
 2413TIP3    H2 7197   7.380   5.161   3.741
 2414TIP3   OH2 7198   6.802   5.056   1.817
 2414TIP3    H1 7199   6.736   5.038   1.883
 2414TIP3    H2 7200   6.882   5.016   1.851
 2415TIP3   OH2 7201   8.242   5.117   1.409
 2415TIP3    H1 7202   8.159   5.074   1.387
 2415TIP3    H2 7203   8.265   5.083   1.495
 2416TIP3   OH2 7204   4.879   1.481   5.830
 2416TIP3    H1 7205   4.942   1.533   5.880
 2416TIP3    H2 7206   4.794   1.522   5.847
 2417TIP3   OH2 7207   1.916   2.073   2.821
 2417TIP3    H1 7208   1.899   2.163   2.795
 2417TIP3    H2 7209   1.883   2.067   2.911
 2418TIP3   OH2 7210   8.069   5.257   2.238
 2418TIP3    H1 7211   7.988   5.282   2.282
 2418TIP3    H2 7212   8.070   5.308   2.157
 2419TIP3   OH2 7213   3.620   5.658   5.663
 2419TIP3    H1 7214   3.545   5.598   5.663
 2419TIP3    H2 7215   3.623   5.693   5.574
 2420TIP3   OH2 7216   6.320   3.558   6.740
 2420TIP3    H1 7217   6.322   3.653   6.735
 2420TIP3    H2 7218   6.411   3.533   6.753
 2421TIP3   OH2 7219   0.580   5.964   0.191
 2421TIP3    H1 7220   0.640   6.030   0.227
 2421TIP3    H2 7221   0.619   5.940   0.107
 2422TIP3   OH2 7222   0.512   5.299   3.954
 2422TIP3    H1 7223   0.541   5.367   4.015
 2422TIP3    H2 7224   0.432   5.334   3.915
 2423TIP3   OH2 7225   2.852   3.006   4.097
 2423TIP3    H1 7226   2.853   2.914   4.126
 2423TIP3    H2 7227   2.940   3.038   4.117
 2424TIP3   OH2 7228   2.380   6.986   1.504
 2424TIP3    H1 7229   2.447   7.051   1.524
 2424TIP3    H2 7230   2.415   6.935   1.432
 2425TIP3   OH2 7231   1.360   1.343   0.098
 2425TIP3    H1 7232   1.325   1.431   0.113
 2425TIP3    H2 7233   1.418   1.353   0.022
 2426TIP3   OH2 7234   3.910   1.340   1.813
 2426TIP3    H1 7235   3.889   1.269   1.873
 2426TIP3    H2 7236   3.844   1.407   1.830
 2427TIP3   OH2 7237   6.191   2.880   2.777
 2427TIP3    H1 7238   6.104   2.880   2.738
 2427TIP3    H2 7239   6.183   2.937   2.854
 2428TIP3   OH2 7240   2.667   4.164   6.625
 2428TIP3    H1 7241   2.639   4.119   6.706
 2428TIP3    H2 7242   2.595   4.149   6.564
 2429TIP3   OH2 7243   4.236   5.628   1.629
 2429TIP3    H1 7244   4.204   5.681   1.701
 2429TIP3    H2 7245   4.193   5.664   1.551
 2430TIP3   OH2 7246   3.516   4.799   2.604
 2430TIP3    H1 7247   3.558   4.779   2.688
 2430TIP3    H2 7248   3.585   4.786   2.539
 2431TIP3   OH2 7249   3.763   7.000   5.121
 2431TIP3    H1 7250   3.766   6.905   5.131
 2431TIP3    H2 7251   3.855   7.026   5.111
 2432TIP3   OH2 7252   1.648   3.209   5.997
 2432TIP3    H1 7253   1.562   3.250   6.008
 2432TIP3    H2 7254   1.628   3.121   5.964
 2433TIP3   OH2 7255   5.445   6.277   2.535
 2433TIP3    H1 7256   5.537   6.290   2.512
 2433TIP3    H2 7257   5.437   6.317   2.622
 2434TIP3   OH2 7258   8.078   6.124   2.133
 2434TIP3    H1 7259   8.107   6.143   2.222
 2434TIP3    H2 7260   8.160   6.116   2.083
 2435TIP3   OH2 7261   1.631   0.839   3.200
 2435TIP3    H1 7262   1.602   0.884   3.121
 2435TIP3    H2 7263   1.668   0.756   3.169
 2436TIP3   OH2 7264   3.278   5.099   2.057
 2436TIP3    H1 7265   3.271   5.021   2.112
 2436TIP3    H2 7266   3.367   5.130   2.071
 2437TIP3   OH2 7267   1.281   2.177   5.829
 2437TIP3    H1 7268   1.339   2.177   5.753
 2437TIP3    H2 7269   1.195   2.155   5.792
 2438TIP3   OH2 7270   1.174   5.771   4.816
 2438TIP3    H1 7271   1.115   5.695   4.824
 2438TIP3    H2 7272   1.207   5.765   4.727
 2439TIP3   OH2 7273   3.793   2.254   1.779
 2439TIP3    H1 7274   3.732   2.209   1.837
 2439TIP3    H2 7275   3.776   2.347   1.793
 2440TIP3   OH2 7276   4.825   4.911   0.896
 2440TIP3    H1 7277   4.797   5.001   0.910
 2440TIP3    H2 7278   4.836   4.875   0.984
 2441TIP3   OH2 7279   1.940   3.999   5.809
 2441TIP3    H1 7280   1.881   3.931   5.775
 2441TIP3    H2 7281   1.919   4.077   5.758
 2442TIP3   OH2 7282   2.833   6.096   4.257
 2442TIP3    H1 7283   2.775   6.116   4.330
 2442TIP3    H2 7284   2.888   6.174   4.247
 2443TIP3   OH2 7285   3.772   0.773   5.359
 2443TIP3    H1 7286   3.843   0.837   5.349
 2443TIP3    H2 7287   3.815   0.688   5.352
 2444TIP3   OH2 7288   0.356   2.221  -0.038
 2444TIP3    H1 7289   0.403   2.164   0.022
 2444TIP3    H2 7290   0.274   2.241   0.007
 2445TIP3   OH2 7291   5.023   3.538   1.624
 2445TIP3    H1 7292   5.104   3.496   1.594
 2445TIP3    H2 7293   5.012   3.508   1.714
 2446TIP3   OH2 7294   0.430   4.684   1.410
 2446TIP3    H1 7295   0.470   4.734   1.339
 2446TIP3    H2 7296   0.336   4.687   1.392
 2447TIP3   OH2 7297   3.223   4.909   3.548
 2447TIP3    H1 7298   3.165   4.933   3.621
 2447TIP3    H2 7299   3.275   4.988   3.532
 2448TIP3   OH2 7300   1.091   1.915   3.632
 2448TIP3    H1 7301   1.147   1.842   3.660
 2448TIP3    H2 7302   1.073   1.897   3.540
 2449TIP3   OH2 7303   1.700   0.193   5.553
 2449TIP3    H1 7304   1.785   0.236   5.553
 2449TIP3    H2 7305   1.699   0.140   5.634
 2450TIP3   OH2 7306   5.521   7.743   0.841
 2450TIP3    H1 7307   5.546   7.834   0.848
 2450TIP3    H2 7308   5.569   7.699   0.911
 2451TIP3   OH2 7309   6.227   7.798   6.140
 2451TIP3    H1 7310   6.267   7.713   6.123
 2451TIP3    H2 7311   6.203   7.831   6.054
 2452TIP3   OH2 7312   0.081   2.013   3.297
 2452TIP3    H1 7313   0.129   2.090   3.329
 2452TIP3    H2 7314   0.149   1.955   3.263
 2453TIP3   OH2 7315   4.952   2.332   3.779
 2453TIP3    H1 7316   4.956   2.425   3.803
 2453TIP3    H2 7317   4.928   2.288   3.860
 2454TIP3   OH2 7318   1.871   7.489   4.918
 2454TIP3    H1 7319   1.820   7.415   4.884
 2454TIP3    H2 7320   1.835   7.504   5.005
 2455TIP3   OH2 7321   4.819   6.891   2.516
 2455TIP3    H1 7322   4.833   6.817   2.457
 2455TIP3    H2 7323   4.886   6.955   2.491
 2456TIP3   OH2 7324   5.842   4.177   0.974
 2456TIP3    H1 7325   5.804   4.099   0.933
 2456TIP3    H2 7326   5.774   4.210   1.032
 2457TIP3   OH2 7327   3.662   2.362   2.142
 2457TIP3    H1 7328   3.685   2.291   2.203
 2457TIP3    H2 7329   3.597   2.323   2.084
 2458TIP3   OH2 7330   5.190   0.761   2.257
 2458TIP3    H1 7331   5.219   0.788   2.345
 2458TIP3    H2 7332   5.265   0.781   2.200
 2459TIP3   OH2 7333   2.030   2.130   6.204
 2459TIP3    H1 7334   2.089   2.202   6.181
 2459TIP3    H2 7335   1.994   2.156   6.289
 2460TIP3   OH2 7336   2.485   0.542   2.760
 2460TIP3    H1 7337   2.472   0.573   2.671
 2460TIP3    H2 7338   2.571   0.575   2.785
 2461TIP3   OH2 7339   1.892   1.472   5.382
 2461TIP3    H1 7340   1.982   1.448   5.359
 2461TIP3    H2 7341   1.888   1.566   5.368
 2462TIP3   OH2 7342   7.087   2.435   3.928
 2462TIP3    H1 7343   7.061   2.352   3.968
 2462TIP3    H2 7344   7.004   2.472   3.896
 2463TIP3   OH2 7345   4.124   2.128   6.128
 2463TIP3    H1 7346   4.116   2.127   6.033
 2463TIP3    H2 7347   4.127   2.036   6.153
 2464TIP3   OH2 7348   5.997   0.347   3.101
 2464TIP3    H1 7349   5.991   0.321   3.009
 2464TIP3    H2 7350   5.983   0.441   3.100
 2465TIP3   OH2 7351   5.557   0.418   1.704
 2465TIP3    H1 7352   5.645   0.456   1.703
 2465TIP3    H2 7353   5.500   0.488   1.673
 2466TIP3   OH2 7354   4.855   2.794   4.180
 2466TIP3    H1 7355   4.922   2.782   4.247
 2466TIP3    H2 7356   4.819   2.881   4.197
 2467TIP3   OH2 7357   1.551   7.008   5.173
 2467TIP3    H1 7358   1.638   7.030   5.206
 2467TIP3    H2 7359   1.497   7.000   5.251
 2468TIP3   OH2 7360   0.383   5.780   0.204
 2468TIP3    H1 7361   0.296   5.814   0.182
 2468TIP3    H2 7362   0.437   5.858   0.214
 2469TIP3   OH2 7363   8.020   5.530   5.446
 2469TIP3    H1 7364   7.960   5.472   5.399
 2469TIP3    H2 7365   8.104   5.483   5.445
 2470TIP3   OH2 7366   6.484   0.330   6.302
 2470TIP3    H1 7367   6.517   0.286   6.223
 2470TIP3    H2 7368   6.554   0.318   6.366
 2471TIP3   OH2 7369   2.311   7.570   0.696
 2471TIP3    H1 7370   2.254   7.502   0.661
 2471TIP3    H2 7371   2.256   7.649   0.697
 2472TIP3   OH2 7372   5.289   2.638   3.589
 2472TIP3    H1 7373   5.308   2.610   3.499
 2472TIP3    H2 7374   5.223   2.576   3.620
 2473TIP3   OH2 7375   6.574   5.930   1.398
 2473TIP3    H1 7376   6.657   5.896   1.432
 2473TIP3    H2 7377   6.508   5.900   1.460
 2474TIP3   OH2 7378   4.981   5.578   6.458
 2474TIP3    H1 7379   4.946   5.570   6.546
 2474TIP3    H2 7380   5.009   5.670   6.452
 2475TIP3   OH2 7381   4.379   1.632   6.754
 2475TIP3    H1 7382   4.383   1.689   6.831
 2475TIP3    H2 7383   4.466   1.637   6.716
 2476TIP3   OH2 7384   2.304   5.239   3.521
 2476TIP3    H1 7385   2.352   5.163   3.490
 2476TIP3    H2 7386   2.277   5.216   3.610
 2477TIP3   OH2 7387   5.177   7.182   1.408
 2477TIP3    H1 7388   5.100   7.229   1.440
 2477TIP3    H2 7389   5.142   7.102   1.369
 2478TIP3   OH2 7390   4.504   1.150   3.878
 2478TIP3    H1 7391   4.483   1.103   3.958
 2478TIP3    H2 7392   4.560   1.090   3.828
 2479TIP3   OH2 7393   3.774   7.263   6.087
 2479TIP3    H1 7394   3.865   7.235   6.095
 2479TIP3    H2 7395   3.774   7.356   6.110
 2480TIP3   OH2 7396   5.081   7.421   4.941
 2480TIP3    H1 7397   5.099   7.444   4.849
 2480TIP3    H2 7398   5.104   7.500   4.990
 2481TIP3   OH2 7399   1.150   5.758   6.110
 2481TIP3    H1 7400   1.131   5.838   6.060
 2481TIP3    H2 7401   1.094   5.691   6.069
 2482TIP3   OH2 7402   1.874   6.218   4.691
 2482TIP3    H1 7403   1.844   6.290   4.746
 2482TIP3    H2 7404   1.960   6.245   4.661
 2483TIP3   OH2 7405   4.582   5.621   2.284
 2483TIP3    H1 7406   4.612   5.705   2.317
 2483TIP3    H2 7407   4.655   5.587   2.233
 2484TIP3   OH2 7408   0.550   3.244   2.211
 2484TIP3    H1 7409   0.599   3.325   2.199
 2484TIP3    H2 7410   0.599   3.195   2.277
 2485TIP3   OH2 7411   6.107   4.252   6.702
 2485TIP3    H1 7412   6.094   4.173   6.755
 2485TIP3    H2 7413   6.202   4.263   6.699
 2486TIP3   OH2 7414   7.212   3.791   0.737
 2486TIP3    H1 7415   7.308   3.788   0.746
 2486TIP3    H2 7416   7.181   3.833   0.817
 2487TIP3   OH2 7417   1.977   6.365   0.593
 2487TIP3    H1 7418   2.056   6.407   0.628
 2487TIP3    H2 7419   1.951   6.419   0.519
 2488TIP3   OH2 7420   1.973   6.495   2.643
 2488TIP3    H1 7421   1.999   6.578   2.603
 2488TIP3    H2 7422   2.050   6.468   2.694
 2489TIP3   OH2 7423   3.291   3.882   0.807
 2489TIP3    H1 7424   3.333   3.961   0.774
 2489TIP3    H2 7425   3.207   3.878   0.763
 2490TIP3   OH2 7426   3.803   3.656   0.732
 2490TIP3    H1 7427   3.898   3.662   0.745
 2490TIP3    H2 7428   3.769   3.738   0.769
 2491TIP3   OH2 7429   6.398   7.181   5.145
 2491TIP3    H1 7430   6.369   7.149   5.231
 2491TIP3    H2 7431   6.353   7.124   5.082
 2492TIP3   OH2 7432   0.353   7.764   0.690
 2492TIP3    H1 7433   0.332   7.857   0.687
 2492TIP3    H2 7434   0.449   7.761   0.689
 2493TIP3   OH2 7435   4.275   0.568   1.115
 2493TIP3    H1 7436   4.202   0.517   1.079
 2493TIP3    H2 7437   4.246   0.594   1.202
 2494TIP3   OH2 7438   1.906   2.038   5.962
 2494TIP3    H1 7439   1.822   1.994   5.968
 2494TIP3    H2 7440   1.925   2.066   6.052
 2495TIP3   OH2 7441   4.406   4.616   2.225
 2495TIP3    H1 7442   4.421   4.692   2.169
 2495TIP3    H2 7443   4.329   4.573   2.187
 2496TIP3   OH2 7444   2.494   5.362   0.348
 2496TIP3    H1 7445   2.525   5.281   0.308
 2496TIP3    H2 7446   2.408   5.377   0.310
 2497TIP3   OH2 7447   5.067   0.391   3.785
 2497TIP3    H1 7448   5.107   0.478   3.778
 2497TIP3    H2 7449   5.141   0.331   3.791
 2498TIP3   OH2 7450   4.362   7.619   3.899
 2498TIP3    H1 7451   4.273   7.590   3.920
 2498TIP3    H2 7452   4.388   7.671   3.975
 2499TIP3   OH2 7453   4.397   1.205   0.992
 2499TIP3    H1 7454   4.430   1.295   0.991
 2499TIP3    H2 7455   4.453   1.160   1.055
 2500TIP3   OH2 7456   5.201   3.354   3.642
 2500TIP3    H1 7457   5.108   3.359   3.664
 2500TIP3    H2 7458   5.206   3.389   3.552
 2501TIP3   OH2 7459   7.209   1.819   5.593
 2501TIP3    H1 7460   7.233   1.853   5.506
 2501TIP3    H2 7461   7.247   1.731   5.596
 2502TIP3   OH2 7462   8.307   7.006   6.391
 2502TIP3    H1 7463   8.276   6.916   6.385
 2502TIP3    H2 7464   8.263   7.041   6.469
 2503TIP3   OH2 7465   5.969   6.147   6.187
 2503TIP3    H1 7466   5.995   6.180   6.272
 2503TIP3    H2 7467   6.051   6.121   6.145
 2504TIP3   OH2 7468   7.995   3.553   5.840
 2504TIP3    H1 7469   7.974   3.629   5.893
 2504TIP3    H2 7470   7.927   3.551   5.772
 2505TIP3   OH2 7471   3.611   0.530   0.558
 2505TIP3    H1 7472   3.526   0.499   0.588
 2505TIP3    H2 7473   3.672   0.502   0.626
 2506TIP3   OH2 7474   7.333   7.000   2.064
 2506TIP3    H1 7475   7.376   7.085   2.049
 2506TIP3    H2 7476   7.370   6.969   2.147
 2507TIP3   OH2 7477   1.591   0.175   0.511
 2507TIP3    H1 7478   1.677   0.149   0.544
 2507TIP3    H2 7479   1.529   0.125   0.565
 2508TIP3   OH2 7480   0.559   2.625   6.129
 2508TIP3    H1 7481   0.472   2.646   6.096
 2508TIP3    H2 7482   0.559   2.660   6.218
 2509TIP3   OH2 7483   6.228   1.679   3.662
 2509TIP3    H1 7484   6.144   1.721   3.642
 2509TIP3    H2 7485   6.230   1.675   3.757
 2510TIP3   OH2 7486   0.243   0.906   3.649
 2510TIP3    H1 7487   0.197   0.988   3.664
 2510TIP3    H2 7488   0.335   0.926   3.662
 2511TIP3   OH2 7489   1.979   7.439   2.767
 2511TIP3    H1 7490   1.925   7.449   2.688
 2511TIP3    H2 7491   2.068   7.428   2.734
 2512TIP3   OH2 7492   5.538   1.666   4.507
 2512TIP3    H1 7493   5.489   1.625   4.578
 2512TIP3    H2 7494   5.622   1.622   4.507
 2513TIP3   OH2 7495   7.104   4.806   6.079
 2513TIP3    H1 7496   7.051   4.863   6.134
 2513TIP3    H2 7497   7.145   4.865   6.015
 2514TIP3   OH2 7498   0.952   3.001   4.465
 2514TIP3    H1 7499   0.930   2.957   4.547
 2514TIP3    H2 7500   0.904   2.951   4.398
 2515TIP3   OH2 7501   3.093   1.229   2.539
 2515TIP3    H1 7502   3.125   1.215   2.628
 2515TIP3    H2 7503   2.998   1.224   2.546
 2516TIP3   OH2 7504   3.495   1.952   3.227
 2516TIP3    H1 7505   3.507   1.909   3.312
 2516TIP3    H2 7506   3.487   2.045   3.249
 2517TIP3   OH2 7507   2.321   6.443   5.099
 2517TIP3    H1 7508   2.240   6.494   5.105
 2517TIP3    H2 7509   2.353   6.439   5.189
 2518TIP3   OH2 7510   2.069   5.978   6.160
 2518TIP3    H1 7511   2.053   6.047   6.095
 2518TIP3    H2 7512   1.986   5.931   6.167
 2519TIP3   OH2 7513   7.013   2.919   5.698
 2519TIP3    H1 7514   6.990   2.908   5.606
 2519TIP3    H2 7515   6.930   2.930   5.743
 2520TIP3   OH2 7516   6.912   1.466   2.247
 2520TIP3    H1 7517   6.871   1.383   2.270
 2520TIP3    H2 7518   6.898   1.522   2.323
 2521TIP3   OH2 7519   1.219   6.303   4.530
 2521TIP3    H1 7520   1.230   6.328   4.622
 2521TIP3    H2 7521   1.200   6.385   4.485
 2522TIP3   OH2 7522   2.220   2.532   1.882
 2522TIP3    H1 7523   2.263   2.449   1.863
 2522TIP3    H2 7524   2.156   2.543   1.811
 2523TIP3   OH2 7525   7.529   0.580   3.957
 2523TIP3    H1 7526   7.458   0.515   3.951
 2523TIP3    H2 7527   7.586   0.559   3.884
 2524TIP3   OH2 7528   7.579   6.121   5.531
 2524TIP3    H1 7529   7.530   6.039   5.529
 2524TIP3    H2 7530   7.646   6.110   5.463
 2525TIP3   OH2 7531   0.250   0.530   2.361
 2525TIP3    H1 7532   0.256   0.471   2.436
 2525TIP3    H2 7533   0.268   0.617   2.398
 2526TIP3   OH2 7534   6.730   4.356   4.444
 2526TIP3    H1 7535   6.754   4.392   4.530
 2526TIP3    H2 7536   6.775   4.411   4.381
 2527TIP3   OH2 7537   4.185   0.598   1.378
 2527TIP3    H1 7538   4.206   0.507   1.402
 2527TIP3    H2 7539   4.171   0.642   1.462
 2528TIP3   OH2 7540   4.516   1.460   0.983
 2528TIP3    H1 7541   4.553   1.534   0.935
 2528TIP3    H2 7542   4.560   1.461   1.068
 2529TIP3   OH2 7543   3.570   2.966   6.401
 2529TIP3    H1 7544   3.632   2.900   6.370
 2529TIP3    H2 7545   3.615   3.050   6.389
 2530TIP3   OH2 7546   1.705   0.867   4.431
 2530TIP3    H1 7547   1.610   0.880   4.434
 2530TIP3    H2 7548   1.717   0.774   4.450
 2531TIP3   OH2 7549   7.596   2.854   4.270
 2531TIP3    H1 7550   7.514   2.808   4.253
 2531TIP3    H2 7551   7.589   2.881   4.362
 2532TIP3   OH2 7552   4.532   3.039   2.418
 2532TIP3    H1 7553   4.493   3.126   2.414
 2532TIP3    H2 7554   4.460   2.979   2.400
 2533TIP3   OH2 7555   2.457   1.832   2.691
 2533TIP3    H1 7556   2.499   1.746   2.698
 2533TIP3    H2 7557   2.501   1.886   2.757
 2534TIP3   OH2 7558   6.252   3.649   0.306
 2534TIP3    H1 7559   6.288   3.576   0.357
 2534TIP3    H2 7560   6.258   3.724   0.365
 2535TIP3   OH2 7561   6.464   7.598   2.807
 2535TIP3    H1 7562   6.426   7.616   2.893
 2535TIP3    H2 7563   6.549   7.558   2.825
 2536TIP3   OH2 7564   6.458   7.328   0.869
 2536TIP3    H1 7565   6.407   7.262   0.917
 2536TIP3    H2 7566   6.398   7.402   0.860
 2537TIP3   OH2 7567   6.828   2.589   3.986
 2537TIP3    H1 7568   6.733   2.573   3.985
 2537TIP3    H2 7569   6.859   2.546   4.065
 2538TIP3   OH2 7570   1.779   4.369   2.145
 2538TIP3    H1 7571   1.742   4.394   2.060
 2538TIP3    H2 7572   1.750   4.279   2.158
 2539TIP3   OH2 7573   1.560   4.113   4.732
 2539TIP3    H1 7574   1.500   4.052   4.689
 2539TIP3    H2 7575   1.530   4.115   4.823
 2540TIP3   OH2 7576   6.640   6.750   4.481
 2540TIP3    H1 7577   6.693   6.683   4.524
 2540TIP3    H2 7578   6.564   6.702   4.447
 2541TIP3   OH2 7579   4.377   4.765   5.618
 2541TIP3    H1 7580   4.453   4.710   5.634
 2541TIP3    H2 7581   4.330   4.720   5.547
 2542TIP3   OH2 7582   0.705   0.399   3.137
 2542TIP3    H1 7583   0.777   0.365   3.189
 2542TIP3    H2 7584   0.627   0.358   3.173
 2543TIP3   OH2 7585   3.294   5.987   6.576
 2543TIP3    H1 7586   3.258   5.912   6.529
 2543TIP3    H2 7587   3.250   5.987   6.661
 2544TIP3   OH2 7588   2.168   6.356   1.473
 2544TIP3    H1 7589   2.258   6.375   1.444
 2544TIP3    H2 7590   2.129   6.310   1.399
 2545TIP3   OH2 7591   1.983   0.893   3.130
 2545TIP3    H1 7592   1.963   0.812   3.179
 2545TIP3    H2 7593   1.906   0.905   3.074
 2546TIP3   OH2 7594   0.403   4.448   1.252
 2546TIP3    H1 7595   0.314   4.470   1.280
 2546TIP3    H2 7596   0.458   4.515   1.293
 2547TIP3   OH2 7597   4.512   3.000   2.738
 2547TIP3    H1 7598   4.426   3.043   2.746
 2547TIP3    H2 7599   4.507   2.954   2.655
 2548TIP3   OH2 7600   8.292   1.352   2.338
 2548TIP3    H1 7601   8.306   1.271   2.287
 2548TIP3    H2 7602   8.305   1.422   2.274
 2549TIP3   OH2 7603   2.174   5.227   5.548
 2549TIP3    H1 7604   2.236   5.299   5.540
 2549TIP3    H2 7605   2.188   5.174   5.469
 2550TIP3   OH2 7606   6.603   4.174   3.775
 2550TIP3    H1 7607   6.578   4.121   3.851
 2550TIP3    H2 7608   6.694   4.150   3.757
 2551TIP3   OH2 7609   1.646   6.970   6.383
 2551TIP3    H1 7610   1.583   6.911   6.342
 2551TIP3    H2 7611   1.729   6.949   6.339
 2552TIP3   OH2 7612   3.295   3.250   0.602
 2552TIP3    H1 7613   3.304   3.178   0.666
 2552TIP3    H2 7614   3.311   3.208   0.518
 2553TIP3   OH2 7615   4.758   2.364   3.048
 2553TIP3    H1 7616   4.747   2.282   3.096
 2553TIP3    H2 7617   4.849   2.389   3.064
 2554TIP3   OH2 7618   1.386   6.303   5.486
 2554TIP3    H1 7619   1.313   6.357   5.517
 2554TIP3    H2 7620   1.425   6.354   5.414
 2555TIP3   OH2 7621   6.059   2.678   4.032
 2555TIP3    H1 7622   6.036   2.606   3.972
 2555TIP3    H2 7623   5.976   2.699   4.076
 2556TIP3   OH2 7624   1.218   3.258   0.794
 2556TIP3    H1 7625   1.132   3.299   0.801
 2556TIP3    H2 7626   1.216   3.187   0.859
 2557TIP3   OH2 7627   6.689   4.846   3.407
 2557TIP3    H1 7628   6.711   4.786   3.479
 2557TIP3    H2 7629   6.754   4.916   3.414
 2558TIP3   OH2 7630   0.827   0.900   1.368
 2558TIP3    H1 7631   0.877   0.903   1.287
 2558TIP3    H2 7632   0.819   0.807   1.389
 2559TIP3   OH2 7633   7.642   3.931   4.875
 2559TIP3    H1 7634   7.674   4.013   4.912
 2559TIP3    H2 7635   7.700   3.915   4.800
 2560TIP3   OH2 7636   3.802   4.010   2.825
 2560TIP3    H1 7637   3.754   3.950   2.882
 2560TIP3    H2 7638   3.737   4.077   2.800
 2561TIP3   OH2 7639   0.768   5.457   5.501
 2561TIP3    H1 7640   0.808   5.531   5.545
 2561TIP3    H2 7641   0.841   5.403   5.472
 2562TIP3   OH2 7642   7.193   6.165   0.503
 2562TIP3    H1 7643   7.142   6.084   0.499
 2562TIP3    H2 7644   7.243   6.158   0.584
 2563TIP3   OH2 7645   7.497   3.141   1.654
 2563TIP3    H1 7646   7.507   3.236   1.645
 2563TIP3    H2 7647   7.473   3.128   1.745
 2564TIP3   OH2 7648   1.394   1.525   4.963
 2564TIP3    H1 7649   1.339   1.457   4.926
 2564TIP3    H2 7650   1.425   1.489   5.046
 2565TIP3   OH2 7651   4.700   4.488   3.692
 2565TIP3    H1 7652   4.707   4.522   3.781
 2565TIP3    H2 7653   4.762   4.540   3.642
 2566TIP3   OH2 7654   4.193   1.588   1.156
 2566TIP3    H1 7655   4.146   1.583   1.239
 2566TIP3    H2 7656   4.255   1.515   1.160
 2567TIP3   OH2 7657   4.794   3.355   1.697
 2567TIP3    H1 7658   4.737   3.358   1.620
 2567TIP3    H2 7659   4.823   3.446   1.709
 2568TIP3   OH2 7660   4.917   4.221   5.711
 2568TIP3    H1 7661   4.996   4.187   5.752
 2568TIP3    H2 7662   4.853   4.151   5.719
 2569TIP3   OH2 7663   0.241   5.633   5.413
 2569TIP3    H1 7664   0.234   5.547   5.370
 2569TIP3    H2 7665   0.323   5.669   5.381
 2570TIP3   OH2 7666   1.396   0.858   6.712
 2570TIP3    H1 7667   1.459   0.874   6.782
 2570TIP3    H2 7668   1.408   0.765   6.691
 2571TIP3   OH2 7669   7.574   3.312   0.813
 2571TIP3    H1 7670   7.540   3.382   0.870
 2571TIP3    H2 7671   7.570   3.349   0.725
 2572TIP3   OH2 7672   0.019   1.358   1.572
 2572TIP3    H1 7673  -0.066   1.321   1.595
 2572TIP3    H2 7674   0.002   1.450   1.555
 2573TIP3   OH2 7675   8.072   0.187   4.153
 2573TIP3    H1 7676   8.133   0.128   4.199
 2573TIP3    H2 7677   7.987   0.143   4.159
 2574TIP3   OH2 7678   2.391   3.474   0.238
 2574TIP3    H1 7679   2.370   3.424   0.159
 2574TIP3    H2 7680   2.374   3.565   0.214
 2575TIP3   OH2 7681   2.288   2.111   2.407
 2575TIP3    H1 7682   2.224   2.085   2.473
 2575TIP3    H2 7683   2.353   2.162   2.455
 2576TIP3   OH2 7684   7.908   1.625   6.009
 2576TIP3    H1 7685   7.924   1.686   5.937
 2576TIP3    H2 7686   7.996   1.597   6.036
 2577TIP3   OH2 7687   3.499   7.045   1.320
 2577TIP3    H1 7688   3.467   6.972   1.373
 2577TIP3    H2 7689   3.579   7.013   1.280
 2578TIP3   OH2 7690   6.584   2.358   5.481
 2578TIP3    H1 7691   6.619   2.438   5.441
 2578TIP3    H2 7692   6.550   2.307   5.407
 2579TIP3   OH2 7693   1.434   2.658   5.185
 2579TIP3    H1 7694   1.389   2.718   5.246
 2579TIP3    H2 7695   1.527   2.671   5.203
 2580TIP3   OH2 7696   0.681   5.810   3.574
 2580TIP3    H1 7697   0.748   5.744   3.556
 2580TIP3    H2 7698   0.724   5.894   3.557
 2581TIP3   OH2 7699   0.246   7.027   5.869
 2581TIP3    H1 7700   0.249   7.119   5.842
 2581TIP3    H2 7701   0.153   7.009   5.883
 2582TIP3   OH2 7702   0.588   5.853   5.845
 2582TIP3    H1 7703   0.545   5.870   5.761
 2582TIP3    H2 7704   0.605   5.939   5.881
 2583TIP3   OH2 7705   0.030   0.535   4.415
 2583TIP3    H1 7706  -0.049   0.510   4.462
 2583TIP3    H2 7707   0.053   0.458   4.363
 2584TIP3   OH2 7708   0.903   4.567   6.379
 2584TIP3    H1 7709   0.973   4.519   6.334
 2584TIP3    H2 7710   0.942   4.593   6.462
 2585TIP3   OH2 7711   0.259   5.746   0.687
 2585TIP3    H1 7712   0.229   5.765   0.776
 2585TIP3    H2 7713   0.254   5.830   0.642
 2586TIP3   OH2 7714   6.896   4.312   5.235
 2586TIP3    H1 7715   6.946   4.339   5.158
 2586TIP3    H2 7716   6.954   4.331   5.309
 2587TIP3   OH2 7717   6.939   7.370   2.246
 2587TIP3    H1 7718   6.999   7.298   2.230
 2587TIP3    H2 7719   6.982   7.422   2.315
 2588TIP3   OH2 7720   1.444   6.426   5.261
 2588TIP3    H1 7721   1.394   6.505   5.242
 2588TIP3    H2 7722   1.414   6.362   5.197
 2589TIP3   OH2 7723   6.011   4.724   3.198
 2589TIP3    H1 7724   6.023   4.637   3.159
 2589TIP3    H2 7725   5.957   4.771   3.136
 2590TIP3   OH2 7726   3.249   1.811   3.485
 2590TIP3    H1 7727   3.221   1.902   3.495
 2590TIP3    H2 7728   3.344   1.815   3.482
 2591TIP3   OH2 7729   6.852   4.702   5.711
 2591TIP3    H1 7730   6.885   4.791   5.701
 2591TIP3    H2 7731   6.760   4.707   5.687
 2592TIP3   OH2 7732   5.667   1.637   5.079
 2592TIP3    H1 7733   5.697   1.647   4.989
 2592TIP3    H2 7734   5.629   1.722   5.101
 2593TIP3   OH2 7735   1.186   1.591   2.785
 2593TIP3    H1 7736   1.134   1.538   2.724
 2593TIP3    H2 7737   1.150   1.679   2.777
 2594TIP3   OH2 7738   7.109   0.646   3.639
 2594TIP3    H1 7739   7.052   0.583   3.594
 2594TIP3    H2 7740   7.066   0.731   3.626
 2595TIP3   OH2 7741   3.884   6.795   2.557
 2595TIP3    H1 7742   3.965   6.743   2.561
 2595TIP3    H2 7743   3.887   6.850   2.635
 2596TIP3   OH2 7744   0.511   6.070   4.169
 2596TIP3    H1 7745   0.553   5.995   4.212
 2596TIP3    H2 7746   0.579   6.109   4.115
 2597TIP3   OH2 7747   6.756   3.743   4.049
 2597TIP3    H1 7748   6.694   3.683   4.091
 2597TIP3    H2 7749   6.720   3.757   3.962
 2598TIP3   OH2 7750   3.278   2.528   3.161
 2598TIP3    H1 7751   3.296   2.611   3.204
 2598TIP3    H2 7752   3.187   2.509   3.181
 2599TIP3   OH2 7753   6.347   1.645   0.236
 2599TIP3    H1 7754   6.390   1.596   0.306
 2599TIP3    H2 7755   6.345   1.583   0.162
 2600TIP3   OH2 7756   7.441   4.158   2.954
 2600TIP3    H1 7757   7.402   4.073   2.932
 2600TIP3    H2 7758   7.375   4.222   2.928
 2601TIP3   OH2 7759   0.648   6.956   0.909
 2601TIP3    H1 7760   0.607   7.015   0.846
 2601TIP3    H2 7761   0.723   6.919   0.863
 2602TIP3   OH2 7762   4.293   5.038   5.508
 2602TIP3    H1 7763   4.200   5.050   5.527
 2602TIP3    H2 7764   4.308   4.944   5.522
 2603TIP3   OH2 7765   6.361   4.245   2.987
 2603TIP3    H1 7766   6.308   4.167   2.971
 2603TIP3    H2 7767   6.449   4.212   3.005
 2604TIP3   OH2 7768   7.318   0.869   0.232
 2604TIP3    H1 7769   7.314   0.809   0.306
 2604TIP3    H2 7770   7.349   0.951   0.270
 2605TIP3   OH2 7771   5.418   1.472   5.845
 2605TIP3    H1 7772   5.502   1.438   5.816
 2605TIP3    H2 7773   5.391   1.413   5.915
 2606TIP3   OH2 7774   6.860   0.807   4.464
 2606TIP3    H1 7775   6.873   0.712   4.472
 2606TIP3    H2 7776   6.869   0.824   4.370
 2607TIP3   OH2 7777   3.480   4.558   0.970
 2607TIP3    H1 7778   3.573   4.546   0.989
 2607TIP3    H2 7779   3.444   4.598   1.050
 2608TIP3   OH2 7780   1.371   3.578   5.242
 2608TIP3    H1 7781   1.306   3.628   5.193
 2608TIP3    H2 7782   1.421   3.531   5.175
 2609TIP3   OH2 7783   7.113   2.966   4.379
 2609TIP3    H1 7784   7.160   2.888   4.351
 2609TIP3    H2 7785   7.117   2.964   4.475
 2610TIP3   OH2 7786   7.393   2.827   5.360
 2610TIP3    H1 7787   7.391   2.778   5.443
 2610TIP3    H2 7788   7.369   2.917   5.385
 2611TIP3   OH2 7789   4.220   2.035   0.711
 2611TIP3    H1 7790   4.128   2.015   0.694
 2611TIP3    H2 7791   4.224   2.052   0.805
 2612TIP3   OH2 7792   5.373   6.642   1.125
 2612TIP3    H1 7793   5.358   6.549   1.107
 2612TIP3    H2 7794   5.286   6.682   1.120
 2613TIP3   OH2 7795   6.045   1.837   2.753
 2613TIP3    H1 7796   5.989   1.794   2.817
 2613TIP3    H2 7797   6.041   1.930   2.776
 2614TIP3   OH2 7798   2.149   3.507   2.526
 2614TIP3    H1 7799   2.108   3.459   2.454
 2614TIP3    H2 7800   2.080   3.563   2.561
 2615TIP3   OH2 7801   4.471   4.681   4.943
 2615TIP3    H1 7802   4.385   4.652   4.913
 2615TIP3    H2 7803   4.469   4.667   5.038
 2616TIP3   OH2 7804   5.156   0.594   6.154
 2616TIP3    H1 7805   5.157   0.523   6.090
 2616TIP3    H2 7806   5.066   0.593   6.188
 2617TIP3   OH2 7807   5.245   2.153   4.750
 2617TIP3    H1 7808   5.337   2.147   4.774
 2617TIP3    H2 7809   5.199   2.107   4.820
 2618TIP3   OH2 7810   8.207   5.389   1.655
 2618TIP3    H1 7811   8.133   5.328   1.650
 2618TIP3    H2 7812   8.211   5.428   1.568
 2619TIP3   OH2 7813   4.651   6.221   3.773
 2619TIP3    H1 7814   4.681   6.149   3.718
 2619TIP3    H2 7815   4.561   6.237   3.745
 2620TIP3   OH2 7816   7.826   1.354   2.112
 2620TIP3    H1 7817   7.869   1.297   2.176
 2620TIP3    H2 7818   7.853   1.320   2.027
 2621TIP3   OH2 7819   3.638   0.709   6.691
 2621TIP3    H1 7820   3.548   0.695   6.663
 2621TIP3    H2 7821   3.660   0.631   6.742
 2622TIP3   OH2 7822   6.295   7.684   4.130
 2622TIP3    H1 7823   6.388   7.670   4.114
 2622TIP3    H2 7824   6.257   7.596   4.129
 2623TIP3   OH2 7825   6.952   6.194   5.620
 2623TIP3    H1 7826   7.023   6.167   5.678
 2623TIP3    H2 7827   6.995   6.220   5.539
 2624TIP3   OH2 7828   2.211   0.098   6.107
 2624TIP3    H1 7829   2.186   0.172   6.051
 2624TIP3    H2 7830   2.296   0.069   6.073
 2625TIP3   OH2 7831   6.289   1.271   5.704
 2625TIP3    H1 7832   6.317   1.217   5.778
 2625TIP3    H2 7833   6.366   1.323   5.681
 2626TIP3   OH2 7834   0.854   2.104   1.336
 2626TIP3    H1 7835   0.839   2.198   1.331
 2626TIP3    H2 7836   0.836   2.072   1.247
 2627TIP3   OH2 7837   3.642   2.667   2.202
 2627TIP3    H1 7838   3.712   2.701   2.146
 2627TIP3    H2 7839   3.612   2.588   2.158
 2628TIP3   OH2 7840   0.192   5.648   3.889
 2628TIP3    H1 7841   0.239   5.583   3.837
 2628TIP3    H2 7842   0.127   5.685   3.829
 2629TIP3   OH2 7843   5.956   4.033   4.304
 2629TIP3    H1 7844   5.962   3.943   4.272
 2629TIP3    H2 7845   5.873   4.037   4.351
 2630TIP3   OH2 7846   2.444   3.275   0.776
 2630TIP3    H1 7847   2.404   3.277   0.690
 2630TIP3    H2 7848   2.525   3.325   0.766
 2631TIP3   OH2 7849   3.167   5.118   5.635
 2631TIP3    H1 7850   3.168   5.029   5.599
 2631TIP3    H2 7851   3.085   5.123   5.684
 2632TIP3   OH2 7852   2.417   6.820   0.125
 2632TIP3    H1 7853   2.354   6.888   0.101
 2632TIP3    H2 7854   2.417   6.819   0.220
 2633TIP3   OH2 7855   1.371   2.649   1.944
 2633TIP3    H1 7856   1.275   2.649   1.944
 2633TIP3    H2 7857   1.394   2.625   1.854
 2634TIP3   OH2 7858   2.520   5.645   6.307
 2634TIP3    H1 7859   2.535   5.551   6.294
 2634TIP3    H2 7860   2.514   5.680   6.219
 2635TIP3   OH2 7861   4.890   7.098   5.185
 2635TIP3    H1 7862   4.840   7.074   5.107
 2635TIP3    H2 7863   4.845   7.052   5.257
 2636TIP3   OH2 7864   7.078   0.353   5.264
 2636TIP3    H1 7865   7.128   0.384   5.188
 2636TIP3    H2 7866   7.077   0.258   5.256
 2637TIP3   OH2 7867   2.791   0.838   4.716
 2637TIP3    H1 7868   2.810   0.929   4.740
 2637TIP3    H2 7869   2.737   0.805   4.787
 2638TIP3   OH2 7870   1.311   2.891   2.967
 2638TIP3    H1 7871   1.350   2.893   2.880
 2638TIP3    H2 7872   1.320   2.801   2.996
 2639TIP3   OH2 7873   0.568   6.024   4.717
 2639TIP3    H1 7874   0.661   6.009   4.737
 2639TIP3    H2 7875   0.521   5.979   4.787
 2640TIP3   OH2 7876   1.393   1.077   6.496
 2640TIP3    H1 7877   1.441   1.016   6.552
 2640TIP3    H2 7878   1.392   1.034   6.410
 2641TIP3   OH2 7879   1.800   1.137   2.198
 2641TIP3    H1 7880   1.790   1.065   2.136
 2641TIP3    H2 7881   1.718   1.138   2.247
 2642TIP3   OH2 7882   6.188   1.528   5.255
 2642TIP3    H1 7883   6.204   1.527   5.350
 2642TIP3    H2 7884   6.098   1.562   5.247
 2643TIP3   OH2 7885   3.357   7.011   6.720
 2643TIP3    H1 7886   3.275   7.017   6.769
 2643TIP3    H2 7887   3.408   6.945   6.767
 2644TIP3   OH2 7888   3.028   6.975   0.491
 2644TIP3    H1 7889   3.121   6.983   0.514
 2644TIP3    H2 7890   2.995   7.064   0.500
 2645TIP3   OH2 7891   1.076   6.623   3.625
 2645TIP3    H1 7892   1.116   6.630   3.538
 2645TIP3    H2 7893   1.056   6.530   3.635
 2646TIP3   OH2 7894   2.810   4.485   1.774
 2646TIP3    H1 7895   2.823   4.392   1.758
 2646TIP3    H2 7896   2.742   4.511   1.711
 2647TIP3   OH2 7897   1.067   0.906   6.173
 2647TIP3    H1 7898   1.079   0.889   6.267
 2647TIP3    H2 7899   1.156   0.911   6.138
 2648TIP3   OH2 7900   4.577   5.926   6.403
 2648TIP3    H1 7901   4.538   5.882   6.478
 2648TIP3    H2 7902   4.510   5.919   6.334
 2649TIP3   OH2 7903   8.286   0.181   5.980
 2649TIP3    H1 7904   8.258   0.241   5.910
 2649TIP3    H2 7905   8.318   0.103   5.933
 2650TIP3   OH2 7906   3.760   0.964   3.640
 2650TIP3    H1 7907   3.846   0.978   3.601
 2650TIP3    H2 7908   3.739   1.047   3.683
 2651TIP3   OH2 7909   3.193   2.798   5.003
 2651TIP3    H1 7910   3.167   2.889   4.991
 2651TIP3    H2 7911   3.161   2.775   5.090
 2652TIP3   OH2 7912   1.842   6.418   1.876
 2652TIP3    H1 7913   1.832   6.442   1.969
 2652TIP3    H2 7914   1.788   6.339   1.866
 2653TIP3   OH2 7915   4.626   1.307   3.198
 2653TIP3    H1 7916   4.678   1.227   3.197
 2653TIP3    H2 7917   4.592   1.312   3.288
 2654TIP3   OH2 7918   2.649   5.124   2.355
 2654TIP3    H1 7919   2.644   5.045   2.300
 2654TIP3    H2 7920   2.711   5.100   2.424
 2655TIP3   OH2 7921   7.670   1.576   6.746
 2655TIP3    H1 7922   7.604   1.524   6.701
 2655TIP3    H2 7923   7.651   1.666   6.721
 2656TIP3   OH2 7924   7.914   4.445   4.527
 2656TIP3    H1 7925   8.008   4.429   4.528
 2656TIP3    H2 7926   7.874   4.358   4.524
 2657TIP3   OH2 7927   2.368   0.208   5.531
 2657TIP3    H1 7928   2.440   0.266   5.507
 2657TIP3    H2 7929   2.319   0.196   5.450
 2658TIP3   OH2 7930   3.342   7.730   2.979
 2658TIP3    H1 7931   3.324   7.757   2.889
 2658TIP3    H2 7932   3.269   7.671   3.001
 2659TIP3   OH2 7933   5.906   1.195   1.004
 2659TIP3    H1 7934   5.921   1.113   1.050
 2659TIP3    H2 7935   5.867   1.253   1.069
 2660TIP3   OH2 7936   3.800   3.795   2.628
 2660TIP3    H1 7937   3.777   3.880   2.666
 2660TIP3    H2 7938   3.894   3.788   2.639
 2661TIP3   OH2 7939   7.238   2.943   3.101
 2661TIP3    H1 7940   7.320   2.970   3.142
 2661TIP3    H2 7941   7.194   3.025   3.079
 2662TIP3   OH2 7942   7.970   6.262   4.501
 2662TIP3    H1 7943   8.028   6.192   4.473
 2662TIP3    H2 7944   7.939   6.302   4.420
 2663TIP3   OH2 7945   0.316   4.594   6.266
 2663TIP3    H1 7946   0.372   4.527   6.306
 2663TIP3    H2 7947   0.292   4.558   6.181
 2664TIP3   OH2 7948   7.745   1.138   3.332
 2664TIP3    H1 7949   7.745   1.228   3.299
 2664TIP3    H2 7950   7.664   1.100   3.297
 2665TIP3   OH2 7951   5.493   3.985   6.503
 2665TIP3    H1 7952   5.494   4.041   6.580
 2665TIP3    H2 7953   5.413   4.010   6.456
 2666TIP3   OH2 7954   1.514   7.297   1.964
 2666TIP3    H1 7955   1.438   7.336   1.921
 2666TIP3    H2 7956   1.514   7.206   1.935
 2667TIP3   OH2 7957   7.374   6.688   6.143
 2667TIP3    H1 7958   7.386   6.779   6.117
 2667TIP3    H2 7959   7.389   6.638   6.062
 2668TIP3   OH2 7960   2.184   3.367   5.485
 2668TIP3    H1 7961   2.274   3.356   5.456
 2668TIP3    H2 7962   2.134   3.383   5.405
 2669TIP3   OH2 7963   4.557   0.826   6.294
 2669TIP3    H1 7964   4.508   0.898   6.253
 2669TIP3    H2 7965   4.558   0.849   6.387
 2670TIP3   OH2 7966   4.933   1.041   4.516
 2670TIP3    H1 7967   4.887   0.973   4.566
 2670TIP3    H2 7968   4.930   1.118   4.573
 2671TIP3   OH2 7969   1.485   2.840   0.540
 2671TIP3    H1 7970   1.489   2.760   0.488
 2671TIP3    H2 7971   1.410   2.828   0.598
 2672TIP3   OH2 7972   1.441   6.270   3.746
 2672TIP3    H1 7973   1.524   6.242   3.784
 2672TIP3    H2 7974   1.466   6.328   3.674
 2673TIP3   OH2 7975   4.160   5.148   1.877
 2673TIP3    H1 7976   4.151   5.182   1.966
 2673TIP3    H2 7977   4.217   5.210   1.832
 2674TIP3   OH2 7978   3.469   3.157   3.747
 2674TIP3    H1 7979   3.560   3.185   3.735
 2674TIP3    H2 7980   3.426   3.232   3.790
 2675TIP3   OH2 7981   0.005   2.906   6.466
 2675TIP3    H1 7982   0.098   2.887   6.454
 2675TIP3    H2 7983   0.001   2.949   6.552
 2676TIP3   OH2 7984   3.622   1.156   3.379
 2676TIP3    H1 7985   3.600   1.175   3.470
 2676TIP3    H2 7986   3.540   1.167   3.331
 2677TIP3   OH2 7987   6.735   0.599   6.381
 2677TIP3    H1 7988   6.764   0.627   6.294
 2677TIP3    H2 7989   6.650   0.641   6.393
 2678TIP3   OH2 7990   6.137   3.470   1.048
 2678TIP3    H1 7991   6.053   3.497   1.085
 2678TIP3    H2 7992   6.161   3.392   1.098
 2679TIP3   OH2 7993   7.084   2.624   6.733
 2679TIP3    H1 7994   7.086   2.531   6.710
 2679TIP3    H2 7995   7.004   2.635   6.785
 2680TIP3   OH2 7996   4.653   5.506   0.629
 2680TIP3    H1 7997   4.708   5.504   0.708
 2680TIP3    H2 7998   4.682   5.430   0.578
 2681TIP3   OH2 7999   4.359   0.341   1.512
 2681TIP3    H1 8000   4.422   0.334   1.441
 2681TIP3    H2 8001   4.412   0.340   1.592
 2682TIP3   OH2 8002   3.685   6.515   5.614
 2682TIP3    H1 8003   3.753   6.486   5.552
 2682TIP3    H2 8004   3.653   6.597   5.577
 2683TIP3   OH2 8005   3.475   7.605   3.751
 2683TIP3    H1 8006   3.462   7.596   3.845
 2683TIP3    H2 8007   3.396   7.568   3.712
 2684TIP3   OH2 8008   6.947   4.701   0.364
 2684TIP3    H1 8009   6.890   4.777   0.359
 2684TIP3    H2 8010   6.940   4.660   0.278
 2685TIP3   OH2 8011   2.410   1.407   2.186
 2685TIP3    H1 8012   2.356   1.351   2.242
 2685TIP3    H2 8013   2.458   1.346   2.130
 2686TIP3   OH2 8014   5.673   6.122   5.578
 2686TIP3    H1 8015   5.653   6.216   5.584
 2686TIP3    H2 8016   5.598   6.085   5.532
 2687TIP3   OH2 8017   6.483   3.090   4.367
 2687TIP3    H1 8018   6.564   3.060   4.407
 2687TIP3    H2 8019   6.443   3.147   4.433
 2688TIP3   OH2 8020   0.757   5.218   4.229
 2688TIP3    H1 8021   0.745   5.201   4.322
 2688TIP3    H2 8022   0.768   5.313   4.223
 2689TIP3   OH2 8023   7.520   1.331   5.851
 2689TIP3    H1 8024   7.570   1.410   5.833
 2689TIP3    H2 8025   7.526   1.320   5.946
 2690TIP3   OH2 8026   6.285   4.804   1.355
 2690TIP3    H1 8027   6.374   4.801   1.321
 2690TIP3    H2 8028   6.274   4.894   1.387
 2691TIP3   OH2 8029   0.602   3.794   2.264
 2691TIP3    H1 8030   0.618   3.794   2.170
 2691TIP3    H2 8031   0.669   3.735   2.300
 2692TIP3   OH2 8032   0.703   5.248   2.218
 2692TIP3    H1 8033   0.677   5.325   2.269
 2692TIP3    H2 8034   0.703   5.278   2.127
 2693TIP3   OH2 8035   3.166   2.346   0.550
 2693TIP3    H1 8036   3.073   2.362   0.535
 2693TIP3    H2 8037   3.174   2.251   0.556
 2694TIP3   OH2 8038   3.052   1.744   6.726
 2694TIP3    H1 8039   3.134   1.791   6.741
 2694TIP3    H2 8040   3.002   1.758   6.806
 2695TIP3   OH2 8041   2.167   6.459   4.330
 2695TIP3    H1 8042   2.148   6.551   4.309
 2695TIP3    H2 8043   2.181   6.417   4.246
 2696TIP3   OH2 8044   6.229   0.874   0.137
 2696TIP3    H1 8045   6.220   0.779   0.129
 2696TIP3    H2 8046   6.309   0.886   0.187
 2697TIP3   OH2 8047   6.148   5.498   6.477
 2697TIP3    H1 8048   6.217   5.456   6.426
 2697TIP3    H2 8049   6.186   5.581   6.506
 2698TIP3   OH2 8050   2.683   5.465   2.968
 2698TIP3    H1 8051   2.724   5.435   2.887
 2698TIP3    H2 8052   2.747   5.525   3.006
 2699TIP3   OH2 8053   0.878   7.797   5.486
 2699TIP3    H1 8054   0.817   7.791   5.412
 2699TIP3    H2 8055   0.935   7.871   5.465
 2700TIP3   OH2 8056   6.807   6.410   2.637
 2700TIP3    H1 8057   6.893   6.369   2.648
 2700TIP3    H2 8058   6.814   6.494   2.682
 2701TIP3   OH2 8059   0.745   3.176   5.835
 2701TIP3    H1 8060   0.753   3.112   5.905
 2701TIP3    H2 8061   0.820   3.235   5.847
 2702TIP3   OH2 8062   7.291   4.356   5.430
 2702TIP3    H1 8063   7.323   4.446   5.426
 2702TIP3    H2 8064   7.370   4.302   5.426
 2703TIP3   OH2 8065   6.220   0.062   2.133
 2703TIP3    H1 8066   6.314   0.062   2.119
 2703TIP3    H2 8067   6.183   0.035   2.049
 2704TIP3   OH2 8068   5.005   0.522   1.172
 2704TIP3    H1 8069   4.927   0.578   1.174
 2704TIP3    H2 8070   4.972   0.435   1.151
 2705TIP3   OH2 8071   5.684   3.046   3.717
 2705TIP3    H1 8072   5.670   2.995   3.637
 2705TIP3    H2 8073   5.602   3.094   3.729
 2706TIP3   OH2 8074   2.261   3.492   0.996
 2706TIP3    H1 8075   2.181   3.527   1.034
 2706TIP3    H2 8076   2.276   3.410   1.042
 2707TIP3   OH2 8077   2.795   6.361   5.247
 2707TIP3    H1 8078   2.870   6.369   5.305
 2707TIP3    H2 8079   2.737   6.299   5.291
 2708TIP3   OH2 8080   7.444   2.428   1.231
 2708TIP3    H1 8081   7.438   2.397   1.141
 2708TIP3    H2 8082   7.464   2.521   1.223
 2709TIP3   OH2 8083   4.964   5.415   2.583
 2709TIP3    H1 8084   4.967   5.510   2.591
 2709TIP3    H2 8085   5.011   5.384   2.661
 2710TIP3   OH2 8086   3.678   3.487   6.526
 2710TIP3    H1 8087   3.695   3.518   6.437
 2710TIP3    H2 8088   3.756   3.512   6.575
 2711TIP3   OH2 8089   8.148   5.032   3.027
 2711TIP3    H1 8090   8.156   5.113   3.077
 2711TIP3    H2 8091   8.165   4.963   3.091
 2712TIP3   OH2 8092   1.613   4.580   0.160
 2712TIP3    H1 8093   1.623   4.675   0.175
 2712TIP3    H2 8094   1.701   4.550   0.138
 2713TIP3   OH2 8095   0.595   0.897   0.343
 2713TIP3    H1 8096   0.549   0.955   0.283
 2713TIP3    H2 8097   0.673   0.946   0.369
 2714TIP3   OH2 8098   6.864   2.761   1.663
 2714TIP3    H1 8099   6.879   2.729   1.752
 2714TIP3    H2 8100   6.839   2.853   1.674
 2715TIP3   OH2 8101   3.221   6.078   4.948
 2715TIP3    H1 8102   3.275   6.132   4.890
 2715TIP3    H2 8103   3.212   6.131   5.028
 2716TIP3   OH2 8104   2.314   4.847   2.864
 2716TIP3    H1 8105   2.296   4.939   2.883
 2716TIP3    H2 8106   2.314   4.842   2.769
 2717TIP3   OH2 8107   3.153   3.926   5.863
 2717TIP3    H1 8108   3.153   3.830   5.866
 2717TIP3    H2 8109   3.145   3.952   5.955
 2718TIP3   OH2 8110   0.457   5.374   5.064
 2718TIP3    H1 8111   0.532   5.411   5.111
 2718TIP3    H2 8112   0.494   5.339   4.983
 2719TIP3   OH2 8113   6.088   7.223   3.493
 2719TIP3    H1 8114   6.089   7.255   3.583
 2719TIP3    H2 8115   6.167   7.171   3.485
 2720TIP3   OH2 8116   2.145   1.775   4.754
 2720TIP3    H1 8117   2.086   1.720   4.805
 2720TIP3    H2 8118   2.214   1.799   4.815
 2721TIP3   OH2 8119   5.618   0.929   0.624
 2721TIP3    H1 8120   5.644   0.981   0.548
 2721TIP3    H2 8121   5.616   0.991   0.696
 2722TIP3   OH2 8122   4.787   1.673   2.034
 2722TIP3    H1 8123   4.775   1.630   1.950
 2722TIP3    H2 8124   4.712   1.733   2.041
 2723TIP3   OH2 8125   3.975   0.098   0.822
 2723TIP3    H1 8126   3.988   0.183   0.864
 2723TIP3    H2 8127   3.887   0.103   0.786
 2724TIP3   OH2 8128   1.757   6.070   6.215
 2724TIP3    H1 8129   1.772   5.994   6.270
 2724TIP3    H2 8130   1.718   6.135   6.274
 2725TIP3   OH2 8131   3.736   5.772   6.484
 2725TIP3    H1 8132   3.694   5.852   6.513
 2725TIP3    H2 8133   3.700   5.755   6.397
 2726TIP3   OH2 8134   4.477   5.171   1.564
 2726TIP3    H1 8135   4.496   5.172   1.657
 2726TIP3    H2 8136   4.464   5.263   1.541
 2727TIP3   OH2 8137   7.859   0.495   5.402
 2727TIP3    H1 8138   7.882   0.460   5.316
 2727TIP3    H2 8139   7.784   0.551   5.386
 2728TIP3   OH2 8140   3.561   5.235   2.056
 2728TIP3    H1 8141   3.526   5.294   2.123
 2728TIP3    H2 8142   3.654   5.225   2.079
 2729TIP3   OH2 8143   0.274   2.778   2.278
 2729TIP3    H1 8144   0.185   2.775   2.243
 2729TIP3    H2 8145   0.325   2.825   2.212
 2730TIP3   OH2 8146   6.501   6.820   1.170
 2730TIP3    H1 8147   6.525   6.898   1.120
 2730TIP3    H2 8148   6.409   6.834   1.193
 2731TIP3   OH2 8149   8.196   6.528   4.454
 2731TIP3    H1 8150   8.206   6.474   4.376
 2731TIP3    H2 8151   8.131   6.594   4.430
 2732TIP3   OH2 8152   7.499   5.290   3.192
 2732TIP3    H1 8153   7.432   5.358   3.200
 2732TIP3    H2 8154   7.471   5.221   3.253
 2733TIP3   OH2 8155   4.016   5.351   0.162
 2733TIP3    H1 8156   4.048   5.264   0.187
 2733TIP3    H2 8157   3.944   5.368   0.222
 2734TIP3   OH2 8158   7.039   1.255   0.548
 2734TIP3    H1 8159   6.969   1.248   0.482
 2734TIP3    H2 8160   6.999   1.305   0.619
 2735TIP3   OH2 8161   2.513   1.156   6.692
 2735TIP3    H1 8162   2.543   1.247   6.690
 2735TIP3    H2 8163   2.420   1.161   6.673
 2736TIP3   OH2 8164   2.542   5.532   3.426
 2736TIP3    H1 8165   2.622   5.582   3.438
 2736TIP3    H2 8166   2.492   5.581   3.360
 2737TIP3   OH2 8167   5.196   6.664   2.848
 2737TIP3    H1 8168   5.266   6.703   2.796
 2737TIP3    H2 8169   5.117   6.677   2.796
 2738TIP3   OH2 8170   1.171   0.724   2.038
 2738TIP3    H1 8171   1.136   0.693   2.121
 2738TIP3    H2 8172   1.181   0.645   1.985
 2739TIP3   OH2 8173   6.740   5.246   0.035
 2739TIP3    H1 8174   6.707   5.182   0.098
 2739TIP3    H2 8175   6.827   5.270   0.068
 2740TIP3   OH2 8176   4.942   0.263   1.103
 2740TIP3    H1 8177   4.920   0.181   1.147
 2740TIP3    H2 8178   4.972   0.237   1.016
 2741TIP3   OH2 8179   0.318   5.524   3.659
 2741TIP3    H1 8180   0.376   5.599   3.672
 2741TIP3    H2 8181   0.368   5.464   3.604
 2742TIP3   OH2 8182   1.650   5.389   4.952
 2742TIP3    H1 8183   1.603   5.469   4.973
 2742TIP3    H2 8184   1.742   5.409   4.971
 2743TIP3   OH2 8185   3.426   0.493   5.979
 2743TIP3    H1 8186   3.443   0.480   6.072
 2743TIP3    H2 8187   3.503   0.456   5.935
 2744TIP3   OH2 8188   5.375   4.744   0.363
 2744TIP3    H1 8189   5.369   4.757   0.268
 2744TIP3    H2 8190   5.397   4.651   0.372
 2745TIP3   OH2 8191   4.943   5.252   3.015
 2745TIP3    H1 8192   4.984   5.224   3.096
 2745TIP3    H2 8193   4.854   5.277   3.039
 2746TIP3   OH2 8194   8.294   7.781   0.476
 2746TIP3    H1 8195   8.269   7.752   0.564
 2746TIP3    H2 8196   8.355   7.853   0.492
 2747TIP3   OH2 8197   4.849   0.404   0.826
 2747TIP3    H1 8198   4.927   0.404   0.770
 2747TIP3    H2 8199   4.808   0.489   0.811
 2748TIP3   OH2 8200   5.889   6.344   5.535
 2748TIP3    H1 8201   5.890   6.264   5.482
 2748TIP3    H2 8202   5.800   6.349   5.570
 2749TIP3   OH2 8203   1.758   6.859   3.165
 2749TIP3    H1 8204   1.698   6.927   3.133
 2749TIP3    H2 8205   1.802   6.900   3.240
 2750TIP3   OH2 8206   7.230   1.631   3.597
 2750TIP3    H1 8207   7.253   1.610   3.507
 2750TIP3    H2 8208   7.312   1.629   3.645
 2751TIP3   OH2 8209   0.966   7.026   2.265
 2751TIP3    H1 8210   0.968   6.930   2.270
 2751TIP3    H2 8211   0.915   7.045   2.186
 2752TIP3   OH2 8212   8.148   2.166   2.839
 2752TIP3    H1 8213   8.096   2.187   2.917
 2752TIP3    H2 8214   8.147   2.247   2.788
 2753TIP3   OH2 8215   2.589   6.957   4.900
 2753TIP3    H1 8216   2.571   6.885   4.960
 2753TIP3    H2 8217   2.677   6.939   4.867
 2754TIP3   OH2 8218   7.291   2.812   6.770
 2754TIP3    H1 8219   7.315   2.841   6.681
 2754TIP3    H2 8220   7.240   2.732   6.756
 2755TIP3   OH2 8221   5.633   6.755   3.399
 2755TIP3    H1 8222   5.719   6.742   3.437
 2755TIP3    H2 8223   5.649   6.758   3.304
 2756TIP3   OH2 8224   6.799   4.786   2.658
 2756TIP3    H1 8225   6.843   4.834   2.588
 2756TIP3    H2 8226   6.861   4.718   2.683
 2757TIP3   OH2 8227   5.899   4.177   2.111
 2757TIP3    H1 8228   5.894   4.234   2.188
 2757TIP3    H2 8229   5.957   4.223   2.050
 2758TIP3   OH2 8230   6.608   6.157   1.258
 2758TIP3    H1 8231   6.617   6.070   1.296
 2758TIP3    H2 8232   6.690   6.202   1.280
 2759TIP3   OH2 8233   7.358   1.660   0.277
 2759TIP3    H1 8234   7.306   1.691   0.203
 2759TIP3    H2 8235   7.445   1.697   0.263
 2760TIP3   OH2 8236   1.456   0.667   6.337
 2760TIP3    H1 8237   1.453   0.759   6.308
 2760TIP3    H2 8238   1.488   0.619   6.261
 2761TIP3   OH2 8239   2.653   5.022   3.755
 2761TIP3    H1 8240   2.685   4.934   3.740
 2761TIP3    H2 8241   2.557   5.013   3.755
 2762TIP3   OH2 8242   5.224   1.404   6.257
 2762TIP3    H1 8243   5.237   1.328   6.313
 2762TIP3    H2 8244   5.261   1.377   6.172
 2763TIP3   OH2 8245   2.087   6.665   1.366
 2763TIP3    H1 8246   2.158   6.604   1.346
 2763TIP3    H2 8247   2.031   6.663   1.288
 2764TIP3   OH2 8248   6.971   2.165   1.589
 2764TIP3    H1 8249   7.022   2.124   1.519
 2764TIP3    H2 8250   6.916   2.230   1.544
 2765TIP3   OH2 8251   7.918   6.203   6.125
 2765TIP3    H1 8252   7.955   6.290   6.141
 2765TIP3    H2 8253   7.992   6.144   6.132
 2766TIP3   OH2 8254   2.621   3.341   2.250
 2766TIP3    H1 8255   2.531   3.335   2.280
 2766TIP3    H2 8256   2.615   3.376   2.161
 2767TIP3   OH2 8257   6.802   2.338   1.485
 2767TIP3    H1 8258   6.769   2.332   1.396
 2767TIP3    H2 8259   6.725   2.360   1.538
 2768TIP3   OH2 8260   6.185   2.074   3.163
 2768TIP3    H1 8261   6.234   2.121   3.096
 2768TIP3    H2 8262   6.125   2.017   3.114
 2769TIP3   OH2 8263   4.103   6.963   5.096
 2769TIP3    H1 8264   4.195   6.987   5.087
 2769TIP3    H2 8265   4.105   6.873   5.129
 2770TIP3   OH2 8266   0.054   4.559   2.059
 2770TIP3    H1 8267   0.136   4.523   2.025
 2770TIP3    H2 8268  -0.013   4.499   2.027
 2771TIP3   OH2 8269   4.947   4.082   0.728
 2771TIP3    H1 8270   4.936   4.026   0.651
 2771TIP3    H2 8271   4.938   4.171   0.695
 2772TIP3   OH2 8272   0.981   6.408   1.748
 2772TIP3    H1 8273   1.053   6.449   1.796
 2772TIP3    H2 8274   1.019   6.328   1.711
 2773TIP3   OH2 8275   2.209   7.617   5.514
 2773TIP3    H1 8276   2.224   7.612   5.419
 2773TIP3    H2 8277   2.184   7.708   5.530
 2774TIP3   OH2 8278   7.715   5.252   1.798
 2774TIP3    H1 8279   7.737   5.200   1.721
 2774TIP3    H2 8280   7.763   5.334   1.786
 2775TIP3   OH2 8281   5.799   1.909   6.155
 2775TIP3    H1 8282   5.758   1.915   6.069
 2775TIP3    H2 8283   5.892   1.893   6.136
 2776TIP3   OH2 8284   5.274   4.548   6.444
 2776TIP3    H1 8285   5.235   4.634   6.463
 2776TIP3    H2 8286   5.202   4.496   6.410
 2777TIP3   OH2 8287   5.652   4.811   1.422
 2777TIP3    H1 8288   5.669   4.786   1.331
 2777TIP3    H2 8289   5.574   4.866   1.417
 2778TIP3   OH2 8290   6.236   6.378   6.554
 2778TIP3    H1 8291   6.194   6.420   6.479
 2778TIP3    H2 8292   6.197   6.421   6.630
 2779TIP3   OH2 8293   0.749   4.142   6.257
 2779TIP3    H1 8294   0.767   4.189   6.175
 2779TIP3    H2 8295   0.702   4.063   6.230
 2780TIP3   OH2 8296   4.465   4.702   3.584
 2780TIP3    H1 8297   4.394   4.638   3.576
 2780TIP3    H2 8298   4.446   4.749   3.665
 2781TIP3   OH2 8299   8.145   6.385   4.201
 2781TIP3    H1 8300   8.051   6.368   4.214
 2781TIP3    H2 8301   8.179   6.303   4.167
 2782TIP3   OH2 8302   5.132   0.393   5.944
 2782TIP3    H1 8303   5.169   0.445   5.872
 2782TIP3    H2 8304   5.113   0.308   5.905
 2783TIP3   OH2 8305   7.762   7.694   5.578
 2783TIP3    H1 8306   7.772   7.762   5.644
 2783TIP3    H2 8307   7.762   7.612   5.627
 2784TIP3   OH2 8308   1.681   0.100   5.255
 2784TIP3    H1 8309   1.599   0.128   5.215
 2784TIP3    H2 8310   1.688   0.151   5.336
 2785TIP3   OH2 8311   1.971   7.414   5.993
 2785TIP3    H1 8312   1.887   7.458   6.008
 2785TIP3    H2 8313   1.966   7.333   6.044
 2786TIP3   OH2 8314   3.611   6.367   5.086
 2786TIP3    H1 8315   3.586   6.329   5.002
 2786TIP3    H2 8316   3.564   6.316   5.151
 2787TIP3   OH2 8317   3.813   0.541   3.064
 2787TIP3    H1 8318   3.813   0.622   3.115
 2787TIP3    H2 8319   3.899   0.540   3.022
 2788TIP3   OH2 8320   4.787   5.771   4.506
 2788TIP3    H1 8321   4.874   5.790   4.471
 2788TIP3    H2 8322   4.800   5.772   4.601
 2789TIP3   OH2 8323   8.229   1.174   5.566
 2789TIP3    H1 8324   8.267   1.110   5.626
 2789TIP3    H2 8325   8.136   1.178   5.591
 2790TIP3   OH2 8326   5.418   5.242   1.781
 2790TIP3    H1 8327   5.372   5.302   1.839
 2790TIP3    H2 8328   5.495   5.291   1.752
 2791TIP3   OH2 8329   0.793   4.300   1.690
 2791TIP3    H1 8330   0.773   4.374   1.632
 2791TIP3    H2 8331   0.889   4.296   1.691
 2792TIP3   OH2 8332   2.794   1.537   2.127
 2792TIP3    H1 8333   2.801   1.453   2.170
 2792TIP3    H2 8334   2.754   1.595   2.192
 2793TIP3   OH2 8335   6.810   5.217   4.120
 2793TIP3    H1 8336   6.873   5.248   4.055
 2793TIP3    H2 8337   6.834   5.264   4.200
 2794TIP3   OH2 8338   4.504   7.055   1.660
 2794TIP3    H1 8339   4.597   7.062   1.639
 2794TIP3    H2 8340   4.496   6.969   1.702
 2795TIP3   OH2 8341   8.187   1.446   6.673
 2795TIP3    H1 8342   8.193   1.495   6.591
 2795TIP3    H2 8343   8.157   1.359   6.646
 2796TIP3   OH2 8344   4.619   4.391   6.600
 2796TIP3    H1 8345   4.659   4.325   6.656
 2796TIP3    H2 8346   4.548   4.428   6.652
 2797TIP3   OH2 8347   1.686   2.677   5.303
 2797TIP3    H1 8348   1.771   2.683   5.347
 2797TIP3    H2 8349   1.700   2.611   5.234
 2798TIP3   OH2 8350   3.883   2.686   4.618
 2798TIP3    H1 8351   3.831   2.667   4.540
 2798TIP3    H2 8352   3.862   2.777   4.640
 2799TIP3   OH2 8353   5.704   1.135   0.819
 2799TIP3    H1 8354   5.732   1.182   0.741
 2799TIP3    H2 8355   5.775   1.147   0.882
 2800TIP3   OH2 8356   1.889   4.939   4.973
 2800TIP3    H1 8357   1.798   4.961   4.954
 2800TIP3    H2 8358   1.934   5.024   4.974
 2801TIP3   OH2 8359   7.962   7.489   1.171
 2801TIP3    H1 8360   8.054   7.468   1.189
 2801TIP3    H2 8361   7.915   7.448   1.244
 2802TIP3   OH2 8362   6.548   3.176   0.180
 2802TIP3    H1 8363   6.545   3.108   0.113
 2802TIP3    H2 8364   6.575   3.255   0.133
 2803TIP3   OH2 8365   1.903   3.201   3.053
 2803TIP3    H1 8366   1.931   3.169   3.139
 2803TIP3    H2 8367   1.896   3.296   3.063
 2804TIP3   OH2 8368   6.700   2.095   3.773
 2804TIP3    H1 8369   6.721   2.077   3.865
 2804TIP3    H2 8370   6.783   2.121   3.734
 2805TIP3   OH2 8371   1.206   4.301   1.270
 2805TIP3    H1 8372   1.173   4.308   1.359
 2805TIP3    H2 8373   1.153   4.364   1.220
 2806TIP3   OH2 8374   7.989   2.479   0.671
 2806TIP3    H1 8375   7.991   2.526   0.754
 2806TIP3    H2 8376   7.923   2.411   0.684
 2807TIP3   OH2 8377   3.100   6.662   2.283
 2807TIP3    H1 8378   3.147   6.745   2.273
 2807TIP3    H2 8379   3.042   6.675   2.357
 2808TIP3   OH2 8380   2.419   6.427   3.084
 2808TIP3    H1 8381   2.467   6.422   3.167
 2808TIP3    H2 8382   2.382   6.340   3.072
 2809TIP3   OH2 8383   2.056   6.221   5.537
 2809TIP3    H1 8384   2.074   6.204   5.630
 2809TIP3    H2 8385   1.979   6.169   5.517
 2810TIP3   OH2 8386   5.719   6.160   4.939
 2810TIP3    H1 8387   5.677   6.080   4.970
 2810TIP3    H2 8388   5.675   6.230   4.987
 2811TIP3   OH2 8389   7.652   6.777   5.618
 2811TIP3    H1 8390   7.569   6.818   5.642
 2811TIP3    H2 8391   7.648   6.690   5.657
 2812TIP3   OH2 8392   0.722   6.131   3.521
 2812TIP3    H1 8393   0.790   6.092   3.467
 2812TIP3    H2 8394   0.644   6.130   3.465
 2813TIP3   OH2 8395   0.918   6.067   3.340
 2813TIP3    H1 8396   0.872   6.078   3.256
 2813TIP3    H2 8397   0.967   5.986   3.329
 2814TIP3   OH2 8398   7.644   3.736   5.794
 2814TIP3    H1 8399   7.630   3.829   5.777
 2814TIP3    H2 8400   7.566   3.708   5.842
 2815TIP3   OH2 8401   3.032   6.198   5.700
 2815TIP3    H1 8402   3.039   6.251   5.780
 2815TIP3    H2 8403   3.116   6.152   5.694
 2816TIP3   OH2 8404   3.320   3.717   4.675
 2816TIP3    H1 8405   3.338   3.790   4.616
 2816TIP3    H2 8406   3.281   3.650   4.619
 2817TIP3   OH2 8407   6.538   6.909   2.062
 2817TIP3    H1 8408   6.514   6.989   2.016
 2817TIP3    H2 8409   6.624   6.885   2.027
 2818TIP3   OH2 8410   5.569   3.826   6.086
 2818TIP3    H1 8411   5.597   3.819   6.177
 2818TIP3    H2 8412   5.647   3.804   6.035
 2819TIP3   OH2 8413   6.737   1.838   3.707
 2819TIP3    H1 8414   6.725   1.933   3.710
 2819TIP3    H2 8415   6.825   1.824   3.742
 2820TIP3   OH2 8416   3.563   5.789   6.812
 2820TIP3    H1 8417   3.530   5.853   6.875
 2820TIP3    H2 8418   3.581   5.841   6.733
 2821TIP3   OH2 8419   0.179   3.294   5.098
 2821TIP3    H1 8420   0.236   3.299   5.021
 2821TIP3    H2 8421   0.209   3.218   5.147
 2822TIP3   OH2 8422   3.889   6.946   4.839
 2822TIP3    H1 8423   3.928   6.985   4.917
 2822TIP3    H2 8424   3.917   6.855   4.840
 2823TIP3   OH2 8425   7.011   6.741   0.932
 2823TIP3    H1 8426   7.081   6.689   0.892
 2823TIP3    H2 8427   6.933   6.721   0.880
 2824TIP3   OH2 8428   6.158   1.981   2.041
 2824TIP3    H1 8429   6.251   1.961   2.052
 2824TIP3    H2 8430   6.123   1.987   2.129
 2825TIP3   OH2 8431   4.147   4.366   6.150
 2825TIP3    H1 8432   4.123   4.459   6.156
 2825TIP3    H2 8433   4.141   4.333   6.240
 2826TIP3   OH2 8434   1.345   1.914   1.016
 2826TIP3    H1 8435   1.279   1.936   0.950
 2826TIP3    H2 8436   1.370   1.998   1.054
 2827TIP3   OH2 8437   6.255   4.918   4.462
 2827TIP3    H1 8438   6.346   4.947   4.465
 2827TIP3    H2 8439   6.205   4.989   4.501
 2828TIP3   OH2 8440   3.446   3.476   3.501
 2828TIP3    H1 8441   3.353   3.472   3.521
 2828TIP3    H2 8442   3.475   3.385   3.502
 2829TIP3   OH2 8443   1.534   6.739   2.297
 2829TIP3    H1 8444   1.616   6.776   2.265
 2829TIP3    H2 8445   1.502   6.803   2.360
 2830TIP3   OH2 8446   4.169   2.841   1.331
 2830TIP3    H1 8447   4.169   2.747   1.345
 2830TIP3    H2 8448   4.101   2.856   1.265
 2831TIP3   OH2 8449   1.635   5.435   2.090
 2831TIP3    H1 8450   1.659   5.527   2.084
 2831TIP3    H2 8451   1.642   5.403   2.000
 2832TIP3   OH2 8452   4.527   0.597   6.061
 2832TIP3    H1 8453   4.507   0.576   6.152
 2832TIP3    H2 8454   4.498   0.520   6.012
 2833TIP3   OH2 8455   2.412   5.820   0.483
 2833TIP3    H1 8456   2.442   5.744   0.433
 2833TIP3    H2 8457   2.325   5.840   0.447
 2834TIP3   OH2 8458   6.343   7.846   4.341
 2834TIP3    H1 8459   6.266   7.875   4.391
 2834TIP3    H2 8460   6.307   7.786   4.275
 2835TIP3   OH2 8461   7.694   3.713   1.678
 2835TIP3    H1 8462   7.754   3.706   1.604
 2835TIP3    H2 8463   7.735   3.660   1.747
 2836TIP3   OH2 8464   2.112   1.887   2.988
 2836TIP3    H1 8465   2.110   1.982   2.973
 2836TIP3    H2 8466   2.113   1.849   2.901
 2837TIP3   OH2 8467   0.108   7.533   4.769
 2837TIP3    H1 8468   0.112   7.617   4.814
 2837TIP3    H2 8469   0.197   7.498   4.775
 2838TIP3   OH2 8470   6.568   2.511   4.110
 2838TIP3    H1 8471   6.577   2.441   4.045
 2838TIP3    H2 8472   6.478   2.502   4.142
 2839TIP3   OH2 8473   2.168   2.636   6.184
 2839TIP3    H1 8474   2.130   2.641   6.096
 2839TIP3    H2 8475   2.215   2.719   6.194
 2840TIP3   OH2 8476   5.922   2.866   1.943
 2840TIP3    H1 8477   5.999   2.922   1.954
 2840TIP3    H2 8478   5.931   2.799   2.011
 2841TIP3   OH2 8479   2.807   7.394   3.706
 2841TIP3    H1 8480   2.821   7.487   3.688
 2841TIP3    H2 8481   2.741   7.366   3.643
 2842TIP3   OH2 8482   2.677   3.560   0.399
 2842TIP3    H1 8483   2.645   3.484   0.350
 2842TIP3    H2 8484   2.771   3.543   0.411
 2843TIP3   OH2 8485   0.148   7.768   4.896
 2843TIP3    H1 8486   0.111   7.856   4.905
 2843TIP3    H2 8487   0.236   7.774   4.933
 2844TIP3   OH2 8488   2.062   1.174   5.913
 2844TIP3    H1 8489   2.114   1.252   5.931
 2844TIP3    H2 8490   1.985   1.207   5.867
 2845TIP3   OH2 8491   1.283   4.731   1.598
 2845TIP3    H1 8492   1.253   4.811   1.642
 2845TIP3    H2 8493   1.226   4.662   1.633
 2846TIP3   OH2 8494   6.193   6.186   5.389
 2846TIP3    H1 8495   6.238   6.263   5.355
 2846TIP3    H2 8496   6.200   6.193   5.484
 2847TIP3   OH2 8497   5.028   4.673   5.595
 2847TIP3    H1 8498   5.075   4.682   5.513
 2847TIP3    H2 8499   5.039   4.580   5.619
 2848TIP3   OH2 8500   8.226   4.668   4.541
 2848TIP3    H1 8501   8.313   4.701   4.518
 2848TIP3    H2 8502   8.205   4.713   4.623
 2849TIP3   OH2 8503   2.459   0.568   0.840
 2849TIP3    H1 8504   2.416   0.650   0.819
 2849TIP3    H2 8505   2.396   0.520   0.894
 2850TIP3   OH2 8506   4.205   6.462   5.004
 2850TIP3    H1 8507   4.117   6.432   4.984
 2850TIP3    H2 8508   4.263   6.398   4.962
 2851TIP3   OH2 8509   4.592   1.836   5.184
 2851TIP3    H1 8510   4.573   1.783   5.261
 2851TIP3    H2 8511   4.658   1.787   5.136
 2852TIP3   OH2 8512   7.009   6.500   1.905
 2852TIP3    H1 8513   6.913   6.499   1.900
 2852TIP3    H2 8514   7.038   6.484   1.815
 2853TIP3   OH2 8515   0.386   3.583   5.650
 2853TIP3    H1 8516   0.366   3.675   5.667
 2853TIP3    H2 8517   0.470   3.568   5.695
 2854TIP3   OH2 8518   7.900   4.217   3.212
 2854TIP3    H1 8519   7.953   4.187   3.138
 2854TIP3    H2 8520   7.828   4.155   3.217
 2855TIP3   OH2 8521   5.250   1.823   1.818
 2855TIP3    H1 8522   5.338   1.841   1.851
 2855TIP3    H2 8523   5.228   1.898   1.764
 2856TIP3   OH2 8524   7.899   5.420   3.866
 2856TIP3    H1 8525   7.971   5.401   3.927
 2856TIP3    H2 8526   7.833   5.463   3.920
 2857TIP3   OH2 8527   4.585   3.950   0.700
 2857TIP3    H1 8528   4.609   3.964   0.791
 2857TIP3    H2 8529   4.513   4.012   0.684
 2858TIP3   OH2 8530   7.349   4.656   3.029
 2858TIP3    H1 8531   7.389   4.580   3.072
 2858TIP3    H2 8532   7.378   4.649   2.938
 2859TIP3   OH2 8533   2.481   1.757   6.727
 2859TIP3    H1 8534   2.406   1.706   6.697
 2859TIP3    H2 8535   2.444   1.842   6.751
 2860TIP3   OH2 8536   3.360   4.012   3.630
 2860TIP3    H1 8537   3.425   4.062   3.581
 2860TIP3    H2 8538   3.365   4.049   3.719
 2861TIP3   OH2 8539   4.189   7.538   2.009
 2861TIP3    H1 8540   4.157   7.477   1.942
 2861TIP3    H2 8541   4.172   7.625   1.973
 2862TIP3   OH2 8542   6.661   2.681   4.318
 2862TIP3    H1 8543   6.667   2.588   4.341
 2862TIP3    H2 8544   6.623   2.683   4.231
 2863TIP3   OH2 8545   6.149   6.784   6.588
 2863TIP3    H1 8546   6.062   6.796   6.626
 2863TIP3    H2 8547   6.200   6.741   6.658
 2864TIP3   OH2 8548   0.929   2.559   4.797
 2864TIP3    H1 8549   0.944   2.653   4.786
 2864TIP3    H2 8550   1.014   2.519   4.780
 2865TIP3   OH2 8551   1.335   6.048   3.160
 2865TIP3    H1 8552   1.385   6.044   3.079
 2865TIP3    H2 8553   1.243   6.048   3.131
 2866TIP3   OH2 8554   2.970   4.249   5.166
 2866TIP3    H1 8555   2.989   4.155   5.160
 2866TIP3    H2 8556   2.969   4.267   5.260
 2867TIP3   OH2 8557   6.236   7.876   3.046
 2867TIP3    H1 8558   6.205   7.827   2.970
 2867TIP3    H2 8559   6.183   7.843   3.119
 2868TIP3   OH2 8560   7.246   6.789   3.835
 2868TIP3    H1 8561   7.336   6.810   3.809
 2868TIP3    H2 8562   7.249   6.698   3.863
 2869TIP3   OH2 8563   6.657   6.322   6.525
 2869TIP3    H1 8564   6.702   6.384   6.583
 2869TIP3    H2 8565   6.672   6.357   6.437
 2870TIP3   OH2 8566   1.457   2.104   6.262
 2870TIP3    H1 8567   1.508   2.094   6.342
 2870TIP3    H2 8568   1.512   2.157   6.205
 2871TIP3   OH2 8569   1.403   4.626   4.642
 2871TIP3    H1 8570   1.415   4.547   4.695
 2871TIP3    H2 8571   1.371   4.593   4.558
 2872TIP3   OH2 8572   4.462   2.647   6.089
 2872TIP3    H1 8573   4.469   2.700   6.010
 2872TIP3    H2 8574   4.373   2.663   6.121
 2873TIP3   OH2 8575   1.750   0.958   5.915
 2873TIP3    H1 8576   1.808   0.882   5.907
 2873TIP3    H2 8577   1.784   1.021   5.851
 2874TIP3   OH2 8578   2.639   4.400   2.794
 2874TIP3    H1 8579   2.640   4.385   2.888
 2874TIP3    H2 8580   2.595   4.484   2.783
 2875TIP3   OH2 8581   3.115   2.423   5.660
 2875TIP3    H1 8582   3.033   2.438   5.613
 2875TIP3    H2 8583   3.090   2.368   5.734
 2876TIP3   OH2 8584   4.622   1.316   0.772
 2876TIP3    H1 8585   4.561   1.343   0.841
 2876TIP3    H2 8586   4.576   1.335   0.690
 2877TIP3   OH2 8587   4.689   3.221   2.785
 2877TIP3    H1 8588   4.627   3.286   2.752
 2877TIP3    H2 8589   4.656   3.137   2.753
 2878TIP3   OH2 8590   8.187   2.482   1.256
 2878TIP3    H1 8591   8.186   2.479   1.160
 2878TIP3    H2 8592   8.160   2.394   1.283
 2879TIP3   OH2 8593   6.890   6.618   1.498
 2879TIP3    H1 8594   6.905   6.709   1.471
 2879TIP3    H2 8595   6.804   6.620   1.541
 2880TIP3   OH2 8596   2.772   2.354   0.738
 2880TIP3    H1 8597   2.814   2.271   0.713
 2880TIP3    H2 8598   2.790   2.363   0.832
 2881TIP3   OH2 8599   2.497   0.900   6.075
 2881TIP3    H1 8600   2.484   0.985   6.033
 2881TIP3    H2 8601   2.592   0.893   6.085
 2882TIP3   OH2 8602   1.901   4.194   1.611
 2882TIP3    H1 8603   1.972   4.154   1.561
 2882TIP3    H2 8604   1.905   4.287   1.588
 2883TIP3   OH2 8605   4.184   4.743   4.053
 2883TIP3    H1 8606   4.176   4.678   4.124
 2883TIP3    H2 8607   4.129   4.816   4.081
 2884TIP3   OH2 8608   4.867   7.218   3.511
 2884TIP3    H1 8609   4.832   7.143   3.464
 2884TIP3    H2 8610   4.885   7.283   3.444
 2885TIP3   OH2 8611   6.826   6.563   4.514
 2885TIP3    H1 8612   6.785   6.525   4.437
 2885TIP3    H2 8613   6.894   6.501   4.539
 2886TIP3   OH2 8614   1.735   0.071   6.335
 2886TIP3    H1 8615   1.665   0.131   6.360
 2886TIP3    H2 8616   1.778   0.048   6.417
 2887TIP3   OH2 8617   4.542   3.426   5.436
 2887TIP3    H1 8618   4.515   3.490   5.502
 2887TIP3    H2 8619   4.472   3.361   5.435
 2888TIP3   OH2 8620   3.086   1.083   5.340
 2888TIP3    H1 8621   3.159   1.130   5.299
 2888TIP3    H2 8622   3.123   1.050   5.422
 2889TIP3   OH2 8623   3.738   1.082   5.974
 2889TIP3    H1 8624   3.646   1.058   5.965
 2889TIP3    H2 8625   3.737   1.177   5.983
 2890TIP3   OH2 8626   2.049   0.276   5.321
 2890TIP3    H1 8627   2.028   0.182   5.323
 2890TIP3    H2 8628   2.130   0.280   5.270
 2891TIP3   OH2 8629   6.903   1.265   3.331
 2891TIP3    H1 8630   6.824   1.293   3.377
 2891TIP3    H2 8631   6.963   1.339   3.339
 2892TIP3   OH2 8632   8.013   4.666   1.796
 2892TIP3    H1 8633   7.993   4.606   1.868
 2892TIP3    H2 8634   8.010   4.612   1.718
 2893TIP3   OH2 8635   1.312   6.437   6.753
 2893TIP3    H1 8636   1.380   6.374   6.778
 2893TIP3    H2 8637   1.308   6.498   6.826
 2894TIP3   OH2 8638   7.330   6.691   6.420
 2894TIP3    H1 8639   7.303   6.685   6.328
 2894TIP3    H2 8640   7.253   6.722   6.466
 2895TIP3   OH2 8641   3.801   5.414   2.387
 2895TIP3    H1 8642   3.755   5.405   2.471
 2895TIP3    H2 8643   3.756   5.354   2.328
 2896TIP3   OH2 8644   5.145   1.634   3.050
 2896TIP3    H1 8645   5.127   1.683   2.969
 2896TIP3    H2 8646   5.201   1.692   3.101
 2897TIP3   OH2 8647   0.821   4.278   0.700
 2897TIP3    H1 8648   0.814   4.235   0.785
 2897TIP3    H2 8649   0.903   4.329   0.705
 2898TIP3   OH2 8650   7.477   2.446   3.038
 2898TIP3    H1 8651   7.469   2.389   2.961
 2898TIP3    H2 8652   7.568   2.474   3.038
 2899TIP3   OH2 8653   6.493   7.695   4.571
 2899TIP3    H1 8654   6.569   7.666   4.521
 2899TIP3    H2 8655   6.433   7.732   4.505
 2900TIP3   OH2 8656   3.238   6.232   0.566
 2900TIP3    H1 8657   3.227   6.227   0.471
 2900TIP3    H2 8658   3.155   6.266   0.598
 2901TIP3   OH2 8659   2.384   3.150   4.946
 2901TIP3    H1 8660   2.392   3.166   5.040
 2901TIP3    H2 8661   2.355   3.233   4.909
 2902TIP3   OH2 8662   3.509   2.379   3.124
 2902TIP3    H1 8663   3.552   2.447   3.073
 2902TIP3    H2 8664   3.421   2.412   3.140
 2903TIP3   OH2 8665   8.224   5.759   6.400
 2903TIP3    H1 8666   8.192   5.724   6.483
 2903TIP3    H2 8667   8.145   5.785   6.352
 2904TIP3   OH2 8668   0.422   1.987   1.258
 2904TIP3    H1 8669   0.362   1.918   1.230
 2904TIP3    H2 8670   0.501   1.940   1.285
 2905TIP3   OH2 8671   1.341   4.950   5.778
 2905TIP3    H1 8672   1.425   4.993   5.761
 2905TIP3    H2 8673   1.310   4.989   5.860
 2906TIP3   OH2 8674   4.091   2.534   3.147
 2906TIP3    H1 8675   4.007   2.566   3.181
 2906TIP3    H2 8676   4.074   2.442   3.126
 2907TIP3   OH2 8677   1.440   3.715   4.322
 2907TIP3    H1 8678   1.365   3.737   4.378
 2907TIP3    H2 8679   1.402   3.666   4.249
 2908TIP3   OH2 8680   3.782   6.310   3.113
 2908TIP3    H1 8681   3.728   6.361   3.174
 2908TIP3    H2 8682   3.718   6.261   3.061
 2909TIP3   OH2 8683   6.085   4.276   4.062
 2909TIP3    H1 8684   6.060   4.187   4.035
 2909TIP3    H2 8685   6.042   4.333   3.998
 2910TIP3   OH2 8686   3.111   1.098   2.280
 2910TIP3    H1 8687   3.076   1.146   2.205
 2910TIP3    H2 8688   3.105   1.160   2.353
 2911TIP3   OH2 8689   7.322   1.276   3.881
 2911TIP3    H1 8690   7.276   1.193   3.894
 2911TIP3    H2 8691   7.370   1.265   3.799
 2912TIP3   OH2 8692   5.227   2.812   5.645
 2912TIP3    H1 8693   5.149   2.775   5.686
 2912TIP3    H2 8694   5.233   2.768   5.560
 2913TIP3   OH2 8695   2.848   1.717   6.503
 2913TIP3    H1 8696   2.881   1.735   6.591
 2913TIP3    H2 8697   2.806   1.798   6.475
 2914TIP3   OH2 8698   7.552   5.562   1.135
 2914TIP3    H1 8699   7.477   5.571   1.194
 2914TIP3    H2 8700   7.518   5.516   1.059
 2915TIP3   OH2 8701   7.385   7.537   5.616
 2915TIP3    H1 8702   7.314   7.536   5.681
 2915TIP3    H2 8703   7.352   7.595   5.547
 2916TIP3   OH2 8704   6.586   2.913   2.042
 2916TIP3    H1 8705   6.516   2.848   2.037
 2916TIP3    H2 8706   6.606   2.919   2.135
 2917TIP3   OH2 8707   8.264   3.611   3.253
 2917TIP3    H1 8708   8.323   3.616   3.178
 2917TIP3    H2 8709   8.183   3.654   3.222
 2918TIP3   OH2 8710   7.282   4.033   3.633
 2918TIP3    H1 8711   7.344   4.036   3.560
 2918TIP3    H2 8712   7.198   4.014   3.593
 2919TIP3   OH2 8713   5.450   2.858   3.028
 2919TIP3    H1 8714   5.479   2.772   2.998
 2919TIP3    H2 8715   5.511   2.881   3.098
 2920TIP3   OH2 8716   6.503   6.636   5.622
 2920TIP3    H1 8717   6.547   6.703   5.570
 2920TIP3    H2 8718   6.461   6.684   5.693
 2921TIP3   OH2 8719   1.288   6.080   5.784
 2921TIP3    H1 8720   1.308   6.048   5.696
 2921TIP3    H2 8721   1.198   6.053   5.800
 2922TIP3   OH2 8722   4.412   4.271   2.171
 2922TIP3    H1 8723   4.354   4.345   2.156
 2922TIP3    H2 8724   4.355   4.204   2.210
 2923TIP3   OH2 8725   3.790   2.919   4.129
 2923TIP3    H1 8726   3.815   2.846   4.072
 2923TIP3    H2 8727   3.713   2.887   4.177
 2924TIP3   OH2 8728   2.970   0.003   3.757
 2924TIP3    H1 8729   2.945   0.077   3.702
 2924TIP3    H2 8730   2.954   0.032   3.846
 2925TIP3   OH2 8731   1.709   7.338   1.636
 2925TIP3    H1 8732   1.743   7.427   1.644
 2925TIP3    H2 8733   1.768   7.295   1.574
 2926TIP3   OH2 8734   3.005   1.071   3.776
 2926TIP3    H1 8735   3.027   1.155   3.815
 2926TIP3    H2 8736   3.089   1.030   3.756
 2927TIP3   OH2 8737   2.415   0.717   1.203
 2927TIP3    H1 8738   2.346   0.652   1.207
 2927TIP3    H2 8739   2.490   0.676   1.246
 2928TIP3   OH2 8740   3.428   1.390   4.133
 2928TIP3    H1 8741   3.396   1.342   4.056
 2928TIP3    H2 8742   3.482   1.461   4.096
 2929TIP3   OH2 8743   0.362   6.655   4.649
 2929TIP3    H1 8744   0.401   6.684   4.732
 2929TIP3    H2 8745   0.346   6.736   4.601
 2930TIP3   OH2 8746   8.263   6.775   5.439
 2930TIP3    H1 8747   8.200   6.706   5.457
 2930TIP3    H2 8748   8.346   6.729   5.424
 2931TIP3   OH2 8749   3.975   1.906   0.571
 2931TIP3    H1 8750   4.031   1.829   0.575
 2931TIP3    H2 8751   3.968   1.927   0.478
 2932TIP3   OH2 8752   2.554   4.659   0.427
 2932TIP3    H1 8753   2.533   4.727   0.491
 2932TIP3    H2 8754   2.471   4.642   0.382
 2933TIP3   OH2 8755   7.673   0.874   3.028
 2933TIP3    H1 8756   7.648   0.939   3.094
 2933TIP3    H2 8757   7.590   0.838   2.997
 2934TIP3   OH2 8758   2.830   3.219   3.906
 2934TIP3    H1 8759   2.833   3.149   3.970
 2934TIP3    H2 8760   2.761   3.194   3.845
 2935TIP3   OH2 8761   6.978   7.160   3.992
 2935TIP3    H1 8762   7.055   7.103   3.981
 2935TIP3    H2 8763   6.978   7.215   3.913
 2936TIP3   OH2 8764   1.150   1.505   3.067
 2936TIP3    H1 8765   1.158   1.558   2.988
 2936TIP3    H2 8766   1.100   1.428   3.040
 2937TIP3   OH2 8767   0.782   3.095   5.201
 2937TIP3    H1 8768   0.810   3.187   5.198
 2937TIP3    H2 8769   0.691   3.097   5.171
 2938TIP3   OH2 8770   5.420   6.701   2.141
 2938TIP3    H1 8771   5.360   6.627   2.131
 2938TIP3    H2 8772   5.363   6.778   2.141
 2939TIP3   OH2 8773   2.372   2.397   5.959
 2939TIP3    H1 8774   2.446   2.366   6.011
 2939TIP3    H2 8775   2.399   2.483   5.928
 2940TIP3   OH2 8776   5.278   5.396   5.877
 2940TIP3    H1 8777   5.226   5.375   5.799
 2940TIP3    H2 8778   5.238   5.344   5.947
 2941TIP3   OH2 8779   4.055   7.791   4.977
 2941TIP3    H1 8780   4.039   7.699   4.996
 2941TIP3    H2 8781   4.135   7.792   4.925
 2942TIP3   OH2 8782   6.563   3.743   4.619
 2942TIP3    H1 8783   6.615   3.764   4.541
 2942TIP3    H2 8784   6.569   3.820   4.674
 2943TIP3   OH2 8785   5.354   3.205   0.404
 2943TIP3    H1 8786   5.428   3.144   0.401
 2943TIP3    H2 8787   5.294   3.166   0.468
 2944TIP3   OH2 8788   0.985   1.748   2.150
 2944TIP3    H1 8789   0.950   1.669   2.110
 2944TIP3    H2 8790   1.079   1.746   2.132
 2945TIP3   OH2 8791   8.069   7.485   0.513
 2945TIP3    H1 8792   8.091   7.416   0.575
 2945TIP3    H2 8793   8.149   7.500   0.464
 2946TIP3   OH2 8794   6.014   0.127   0.672
 2946TIP3    H1 8795   6.036   0.185   0.745
 2946TIP3    H2 8796   5.919   0.133   0.666
 2947TIP3   OH2 8797   7.226   1.327   3.614
 2947TIP3    H1 8798   7.161   1.275   3.661
 2947TIP3    H2 8799   7.271   1.377   3.683
 2948TIP3   OH2 8800   6.584   5.377   4.120
 2948TIP3    H1 8801   6.675   5.350   4.107
 2948TIP3    H2 8802   6.577   5.391   4.215
 2949TIP3   OH2 8803   2.295   0.845   2.595
 2949TIP3    H1 8804   2.218   0.898   2.616
 2949TIP3    H2 8805   2.264   0.755   2.602
 2950TIP3   OH2 8806   7.360   0.107   1.085
 2950TIP3    H1 8807   7.282   0.075   1.040
 2950TIP3    H2 8808   7.348   0.202   1.087
 2951TIP3   OH2 8809   1.970   1.530   3.944
 2951TIP3    H1 8810   1.959   1.495   3.856
 2951TIP3    H2 8811   2.024   1.465   3.989
 2952TIP3   OH2 8812   0.990   0.288   2.959
 2952TIP3    H1 8813   0.917   0.265   2.902
 2952TIP3    H2 8814   1.044   0.209   2.964
 2953TIP3   OH2 8815   4.911   4.155   2.698
 2953TIP3    H1 8816   4.987   4.186   2.649
 2953TIP3    H2 8817   4.935   4.168   2.790
 2954TIP3   OH2 8818   5.968   0.808   0.536
 2954TIP3    H1 8819   5.944   0.886   0.485
 2954TIP3    H2 8820   6.054   0.783   0.503
 2955TIP3   OH2 8821   0.703   5.774   1.238
 2955TIP3    H1 8822   0.615   5.811   1.243
 2955TIP3    H2 8823   0.734   5.796   1.150
 2956TIP3   OH2 8824   7.701   3.728   1.072
 2956TIP3    H1 8825   7.683   3.733   1.166
 2956TIP3    H2 8826   7.728   3.637   1.057
 2957TIP3   OH2 8827   5.081   5.498   0.952
 2957TIP3    H1 8828   5.106   5.570   0.894
 2957TIP3    H2 8829   5.104   5.529   1.040
 2958TIP3   OH2 8830   0.541   7.254   4.819
 2958TIP3    H1 8831   0.454   7.214   4.817
 2958TIP3    H2 8832   0.539   7.311   4.896
 2959TIP3   OH2 8833   0.495   0.700   6.459
 2959TIP3    H1 8834   0.443   0.736   6.388
 2959TIP3    H2 8835   0.570   0.658   6.416
 2960TIP3   OH2 8836   3.962   5.424   1.203
 2960TIP3    H1 8837   4.031   5.363   1.177
 2960TIP3    H2 8838   3.990   5.457   1.288
 2961TIP3   OH2 8839   7.160   2.455   2.288
 2961TIP3    H1 8840   7.129   2.434   2.200
 2961TIP3    H2 8841   7.081   2.481   2.336
 2962TIP3   OH2 8842   2.450   2.675   0.912
 2962TIP3    H1 8843   2.411   2.603   0.863
 2962TIP3    H2 8844   2.478   2.636   0.995
 2963TIP3   OH2 8845   2.074   6.883   4.549
 2963TIP3    H1 8846   1.984   6.890   4.515
 2963TIP3    H2 8847   2.108   6.972   4.542
 2964TIP3   OH2 8848   5.419   2.481   0.221
 2964TIP3    H1 8849   5.335   2.460   0.181
 2964TIP3    H2 8850   5.476   2.505   0.148
 2965TIP3   OH2 8851   3.755   2.445   5.823
 2965TIP3    H1 8852   3.797   2.529   5.838
 2965TIP3    H2 8853   3.749   2.405   5.910
 2966TIP3   OH2 8854   7.826   6.767   1.467
 2966TIP3    H1 8855   7.797   6.838   1.525
 2966TIP3    H2 8856   7.821   6.804   1.379
 2967TIP3   OH2 8857   5.675   7.099   2.957
 2967TIP3    H1 8858   5.710   7.168   2.901
 2967TIP3    H2 8859   5.686   7.132   3.046
 2968TIP3   OH2 8860   2.418   0.325   0.514
 2968TIP3    H1 8861   2.441   0.256   0.452
 2968TIP3    H2 8862   2.433   0.286   0.600
 2969TIP3   OH2 8863   3.064   3.169   4.163
 2969TIP3    H1 8864   3.055   3.259   4.129
 2969TIP3    H2 8865   3.019   3.171   4.248
 2970TIP3   OH2 8866   2.182   6.505   2.847
 2970TIP3    H1 8867   2.182   6.409   2.842
 2970TIP3    H2 8868   2.199   6.524   2.939
 2971TIP3   OH2 8869   3.634   2.061   6.698
 2971TIP3    H1 8870   3.685   1.984   6.722
 2971TIP3    H2 8871   3.607   2.044   6.608
 2972TIP3   OH2 8872   7.506   7.792   0.890
 2972TIP3    H1 8873   7.422   7.783   0.846
 2972TIP3    H2 8874   7.533   7.882   0.872
 2973TIP3   OH2 8875   0.387   6.283   2.300
 2973TIP3    H1 8876   0.426   6.364   2.334
 2973TIP3    H2 8877   0.380   6.226   2.377
 2974TIP3   OH2 8878   1.511   6.846   2.713
 2974TIP3    H1 8879   1.589   6.847   2.768
 2974TIP3    H2 8880   1.507   6.757   2.678
 2975TIP3   OH2 8881   7.741   1.234   0.165
 2975TIP3    H1 8882   7.655   1.267   0.138
 2975TIP3    H2 8883   7.764   1.288   0.240
 2976TIP3   OH2 8884   0.854   7.133   1.411
 2976TIP3    H1 8885   0.810   7.117   1.328
 2976TIP3    H2 8886   0.855   7.229   1.419
 2977TIP3   OH2 8887   5.736   1.758   1.142
 2977TIP3    H1 8888   5.655   1.719   1.111
 2977TIP3    H2 8889   5.710   1.840   1.183
 2978TIP3   OH2 8890   3.572   2.266   0.454
 2978TIP3    H1 8891   3.610   2.183   0.483
 2978TIP3    H2 8892   3.645   2.315   0.418
 2979TIP3   OH2 8893   0.365   0.538   4.711
 2979TIP3    H1 8894   0.314   0.460   4.732
 2979TIP3    H2 8895   0.456   0.508   4.711
 2980TIP3   OH2 8896   5.889   5.125   1.528
 2980TIP3    H1 8897   5.958   5.190   1.519
 2980TIP3    H2 8898   5.813   5.163   1.484
 2981TIP3   OH2 8899   3.318   6.846   1.456
 2981TIP3    H1 8900   3.362   6.761   1.467
 2981TIP3    H2 8901   3.262   6.834   1.379
 2982TIP3   OH2 8902   4.403   7.658   1.336
 2982TIP3    H1 8903   4.328   7.620   1.291
 2982TIP3    H2 8904   4.371   7.740   1.372
 2983TIP3   OH2 8905   2.867   2.068   5.872
 2983TIP3    H1 8906   2.876   1.978   5.841
 2983TIP3    H2 8907   2.801   2.106   5.815
 2984TIP3   OH2 8908   4.877   4.677   0.619
 2984TIP3    H1 8909   4.833   4.614   0.561
 2984TIP3    H2 8910   4.937   4.724   0.562
 2985TIP3   OH2 8911   0.903   3.500   1.536
 2985TIP3    H1 8912   0.969   3.431   1.542
 2985TIP3    H2 8913   0.822   3.454   1.512
 2986TIP3   OH2 8914   4.605   6.940   5.539
 2986TIP3    H1 8915   4.681   6.932   5.480
 2986TIP3    H2 8916   4.564   7.023   5.514
 2987TIP3   OH2 8917   2.458   0.948   1.942
 2987TIP3    H1 8918   2.426   1.038   1.930
 2987TIP3    H2 8919   2.551   0.959   1.965
 2988TIP3   OH2 8920   7.272   3.412   2.281
 2988TIP3    H1 8921   7.325   3.345   2.238
 2988TIP3    H2 8922   7.185   3.404   2.241
 2989TIP3   OH2 8923   0.114   3.914   4.191
 2989TIP3    H1 8924   0.140   4.004   4.171
 2989TIP3    H2 8925   0.022   3.908   4.162
 2990TIP3   OH2 8926   0.516   0.133   6.638
 2990TIP3    H1 8927   0.430   0.122   6.679
 2990TIP3    H2 8928   0.522   0.061   6.576
 2991TIP3   OH2 8929   1.397   6.532   1.774
 2991TIP3    H1 8930   1.452   6.475   1.720
 2991TIP3    H2 8931   1.458   6.576   1.832
 2992TIP3   OH2 8932   4.202   4.866   3.256
 2992TIP3    H1 8933   4.222   4.925   3.184
 2992TIP3    H2 8934   4.115   4.831   3.235
 2993TIP3   OH2 8935   4.884   0.930   0.339
 2993TIP3    H1 8936   4.791   0.910   0.325
 2993TIP3    H2 8937   4.926   0.910   0.256
 2994TIP3   OH2 8938   2.308   5.281   4.108
 2994TIP3    H1 8939   2.390   5.274   4.157
 2994TIP3    H2 8940   2.313   5.367   4.065
 2995TIP3   OH2 8941   1.542   4.578   4.897
 2995TIP3    H1 8942   1.526   4.610   4.985
 2995TIP3    H2 8943   1.569   4.656   4.848
 2996TIP3   OH2 8944   0.745   4.743   5.061
 2996TIP3    H1 8945   0.688   4.685   5.111
 2996TIP3    H2 8946   0.706   4.830   5.071
 2997TIP3   OH2 8947   3.670   4.573   2.950
 2997TIP3    H1 8948   3.747   4.573   3.007
 2997TIP3    H2 8949   3.604   4.524   2.999
 2998TIP3   OH2 8950   6.255   2.840   0.531
 2998TIP3    H1 8951   6.272   2.934   0.530
 2998TIP3    H2 8952   6.238   2.818   0.439
 2999TIP3   OH2 8953   2.285   6.706   1.107
 2999TIP3    H1 8954   2.370   6.712   1.065
 2999TIP3    H2 8955   2.226   6.675   1.038
 3000TIP3   OH2 8956   7.739   2.678   3.922
 3000TIP3    H1 8957   7.734   2.590   3.885
 3000TIP3    H2 8958   7.804   2.723   3.869
 3001TIP3   OH2 8959   2.061   1.977   1.308
 3001TIP3    H1 8960   1.981   2.011   1.348
 3001TIP3    H2 8961   2.034   1.896   1.266
 3002TIP3   OH2 8962   5.424   4.715   6.125
 3002TIP3    H1 8963   5.391   4.636   6.168
 3002TIP3    H2 8964   5.449   4.773   6.197
 3003TIP3   OH2 8965   5.596   3.061   0.448
 3003TIP3    H1 8966   5.667   3.093   0.503
 3003TIP3    H2 8967   5.638   2.998   0.390
 3004TIP3   OH2 8968   1.228   4.423   3.057
 3004TIP3    H1 8969   1.257   4.332   3.071
 3004TIP3    H2 8970   1.145   4.429   3.103
 3005TIP3   OH2 8971   4.306   6.087   1.935
 3005TIP3    H1 8972   4.261   6.033   1.871
 3005TIP3    H2 8973   4.284   6.177   1.911
 3006TIP3   OH2 8974   3.009   1.449   0.936
 3006TIP3    H1 8975   2.915   1.435   0.922
 3006TIP3    H2 8976   3.039   1.369   0.979
 3007TIP3   OH2 8977   6.951   5.287   3.890
 3007TIP3    H1 8978   7.043   5.300   3.915
 3007TIP3    H2 8979   6.920   5.375   3.868
 3008TIP3   OH2 8980   3.138   5.507   4.126
 3008TIP3    H1 8981   3.114   5.501   4.034
 3008TIP3    H2 8982   3.094   5.586   4.157
 3009TIP3   OH2 8983   4.854   0.181   2.750
 3009TIP3    H1 8984   4.883   0.213   2.836
 3009TIP3    H2 8985   4.930   0.196   2.693
 3010TIP3   OH2 8986   4.065   0.229   5.461
 3010TIP3    H1 8987   4.124   0.303   5.470
 3010TIP3    H2 8988   4.103   0.161   5.516
 3011TIP3   OH2 8989   1.800   6.079   5.225
 3011TIP3    H1 8990   1.734   6.064   5.293
 3011TIP3    H2 8991   1.754   6.127   5.157
 3012TIP3   OH2 8992   2.406   7.683   5.958
 3012TIP3    H1 8993   2.340   7.630   5.914
 3012TIP3    H2 8994   2.470   7.620   5.992
 3013TIP3   OH2 8995   5.832   6.913   2.562
 3013TIP3    H1 8996   5.770   6.979   2.531
 3013TIP3    H2 8997   5.781   6.856   2.619
 3014TIP3   OH2 8998   8.154   0.643   6.475
 3014TIP3    H1 8999   8.169   0.568   6.534
 3014TIP3    H2 9000   8.103   0.607   6.403
 3015TIP3   OH2 9001   6.542   0.641   2.836
 3015TIP3    H1 9002   6.472   0.580   2.814
 3015TIP3    H2 9003   6.534   0.654   2.930
 3016TIP3   OH2 9004   4.326   3.569   2.882
 3016TIP3    H1 9005   4.279   3.497   2.841
 3016TIP3    H2 9006   4.284   3.648   2.849
 3017TIP3   OH2 9007   3.338   3.759   1.600
 3017TIP3    H1 9008   3.425   3.797   1.588
 3017TIP3    H2 9009   3.333   3.739   1.694
 3018TIP3   OH2 9010   0.052   3.286   0.847
 3018TIP3    H1 9011  -0.015   3.289   0.779
 3018TIP3    H2 9012   0.041   3.368   0.895
 3019TIP3   OH2 9013   3.321   3.956   6.646
 3019TIP3    H1 9014   3.288   4.017   6.579
 3019TIP3    H2 9015   3.282   3.987   6.728
 3020TIP3   OH2 9016   4.080   2.523   4.778
 3020TIP3    H1 9017   4.084   2.428   4.765
 3020TIP3    H2 9018   4.024   2.554   4.708
 3021TIP3   OH2 9019   5.203   0.787   1.441
 3021TIP3    H1 9020   5.200   0.834   1.358
 3021TIP3    H2 9021   5.120   0.738   1.443
 3022TIP3   OH2 9022   4.788   2.597   1.511
 3022TIP3    H1 9023   4.843   2.670   1.482
 3022TIP3    H2 9024   4.840   2.554   1.579
 3023TIP3   OH2 9025   4.896   3.679   6.354
 3023TIP3    H1 9026   4.971   3.712   6.305
 3023TIP3    H2 9027   4.913   3.705   6.444
 3024TIP3   OH2 9028   4.335   7.201   0.443
 3024TIP3    H1 9029   4.346   7.247   0.527
 3024TIP3    H2 9030   4.422   7.166   0.424
 3025TIP3   OH2 9031   5.206   1.974   5.848
 3025TIP3    H1 9032   5.110   1.972   5.852
 3025TIP3    H2 9033   5.234   1.956   5.938
 3026TIP3   OH2 9034   1.162   3.695   3.881
 3026TIP3    H1 9035   1.186   3.719   3.792
 3026TIP3    H2 9036   1.203   3.761   3.937
 3027TIP3   OH2 9037   7.485   1.487   3.184
 3027TIP3    H1 9038   7.523   1.541   3.115
 3027TIP3    H2 9039   7.417   1.436   3.140
 3028TIP3   OH2 9040   3.759   2.583   5.536
 3028TIP3    H1 9041   3.705   2.506   5.554
 3028TIP3    H2 9042   3.843   2.547   5.506
 3029TIP3   OH2 9043   5.367   2.702   1.124
 3029TIP3    H1 9044   5.274   2.694   1.104
 3029TIP3    H2 9045   5.407   2.726   1.040
 3030TIP3   OH2 9046   4.399   5.914   6.209
 3030TIP3    H1 9047   4.359   6.000   6.199
 3030TIP3    H2 9048   4.361   5.879   6.289
 3031TIP3   OH2 9049   5.243   0.217   6.199
 3031TIP3    H1 9050   5.187   0.208   6.122
 3031TIP3    H2 9051   5.183   0.232   6.271
 3032TIP3   OH2 9052   8.121   5.726   3.555
 3032TIP3    H1 9053   8.098   5.749   3.465
 3032TIP3    H2 9054   8.137   5.631   3.552
 3033TIP3   OH2 9055   3.771   6.565   5.181
 3033TIP3    H1 9056   3.723   6.485   5.159
 3033TIP3    H2 9057   3.797   6.553   5.272
 3034TIP3   OH2 9058   0.055   3.843   2.387
 3034TIP3    H1 9059   0.137   3.793   2.379
 3034TIP3    H2 9060  -0.003   3.786   2.438
 3035TIP3   OH2 9061   1.366   6.048   0.907
 3035TIP3    H1 9062   1.329   6.015   0.989
 3035TIP3    H2 9063   1.441   5.990   0.890
 3036TIP3   OH2 9064   0.592   5.957   6.474
 3036TIP3    H1 9065   0.550   5.882   6.431
 3036TIP3    H2 9066   0.521   5.997   6.524
 3037TIP3   OH2 9067   6.266   5.542   5.031
 3037TIP3    H1 9068   6.280   5.496   4.948
 3037TIP3    H2 9069   6.280   5.475   5.098
 3038TIP3   OH2 9070   7.233   5.798   1.013
 3038TIP3    H1 9071   7.165   5.844   1.063
 3038TIP3    H2 9072   7.268   5.733   1.074
 3039TIP3   OH2 9073   0.360   7.714   5.096
 3039TIP3    H1 9074   0.355   7.792   5.152
 3039TIP3    H2 9075   0.296   7.653   5.134
 3040TIP3   OH2 9076   0.881   7.572   3.081
 3040TIP3    H1 9077   0.805   7.555   3.135
 3040TIP3    H2 9078   0.934   7.634   3.132
 3041TIP3   OH2 9079   0.094   2.261   0.322
 3041TIP3    H1 9080   0.103   2.323   0.394
 3041TIP3    H2 9081   0.115   2.311   0.244
 3042TIP3   OH2 9082   0.839   5.544   4.164
 3042TIP3    H1 9083   0.857   5.637   4.177
 3042TIP3    H2 9084   0.910   5.513   4.108
 3043TIP3   OH2 9085   6.805   2.960   4.790
 3043TIP3    H1 9086   6.714   2.981   4.812
 3043TIP3    H2 9087   6.807   2.864   4.786
 3044TIP3   OH2 9088   0.537   1.922   4.251
 3044TIP3    H1 9089   0.541   2.002   4.304
 3044TIP3    H2 9090   0.561   1.951   4.163
 3045TIP3   OH2 9091   0.062   5.051   4.751
 3045TIP3    H1 9092   0.118   5.127   4.737
 3045TIP3    H2 9093  -0.027   5.085   4.747
 3046TIP3   OH2 9094   4.990   2.880   0.734
 3046TIP3    H1 9095   5.080   2.866   0.763
 3046TIP3    H2 9096   4.952   2.936   0.802
 3047TIP3   OH2 9097   3.625   0.947   1.041
 3047TIP3    H1 9098   3.655   1.029   1.079
 3047TIP3    H2 9099   3.536   0.966   1.009
 3048TIP3   OH2 9100   0.494   6.594   4.385
 3048TIP3    H1 9101   0.423   6.535   4.359
 3048TIP3    H2 9102   0.464   6.632   4.468
 3049TIP3   OH2 9103   0.691   2.240   0.568
 3049TIP3    H1 9104   0.745   2.169   0.533
 3049TIP3    H2 9105   0.623   2.253   0.502
 3050TIP3   OH2 9106   7.809   6.718   6.244
 3050TIP3    H1 9107   7.757   6.639   6.230
 3050TIP3    H2 9108   7.771   6.758   6.323
 3051TIP3   OH2 9109   2.939   1.560   6.316
 3051TIP3    H1 9110   2.915   1.628   6.379
 3051TIP3    H2 9111   3.020   1.522   6.352
 3052TIP3   OH2 9112   1.141   5.990   6.338
 3052TIP3    H1 9113   1.107   5.913   6.292
 3052TIP3    H2 9114   1.069   6.018   6.395
 3053TIP3   OH2 9115   4.773   1.903   0.549
 3053TIP3    H1 9116   4.723   1.959   0.609
 3053TIP3    H2 9117   4.818   1.840   0.606
 3054TIP3   OH2 9118   3.403   7.168   1.612
 3054TIP3    H1 9119   3.327   7.158   1.554
 3054TIP3    H2 9120   3.401   7.091   1.668
 3055TIP3   OH2 9121   0.709   2.795   2.946
 3055TIP3    H1 9122   0.773   2.734   2.981
 3055TIP3    H2 9123   0.675   2.751   2.868
 3056TIP3   OH2 9124   7.162   1.937   4.086
 3056TIP3    H1 9125   7.191   1.933   4.177
 3056TIP3    H2 9126   7.186   1.852   4.050
 3057TIP3   OH2 9127   6.140   1.461   6.197
 3057TIP3    H1 9128   6.141   1.372   6.164
 3057TIP3    H2 9129   6.119   1.515   6.121
 3058TIP3   OH2 9130   6.180   7.775   4.738
 3058TIP3    H1 9131   6.152   7.692   4.697
 3058TIP3    H2 9132   6.122   7.841   4.699
 3059TIP3   OH2 9133   5.299   4.826   4.462
 3059TIP3    H1 9134   5.331   4.871   4.540
 3059TIP3    H2 9135   5.232   4.766   4.494
 3060TIP3   OH2 9136   2.358   7.260   3.368
 3060TIP3    H1 9137   2.432   7.257   3.429
 3060TIP3    H2 9138   2.345   7.169   3.342
 3061TIP3   OH2 9139   7.091   0.626   1.859
 3061TIP3    H1 9140   7.058   0.616   1.948
 3061TIP3    H2 9141   7.141   0.546   1.843
 3062TIP3   OH2 9142   2.188   1.779   1.631
 3062TIP3    H1 9143   2.172   1.771   1.725
 3062TIP3    H2 9144   2.283   1.793   1.625
 3063TIP3   OH2 9145   4.182   5.197   4.225
 3063TIP3    H1 9146   4.229   5.272   4.188
 3063TIP3    H2 9147   4.089   5.218   4.212
 3064TIP3   OH2 9148   3.126   4.425   1.574
 3064TIP3    H1 9149   3.189   4.495   1.589
 3064TIP3    H2 9150   3.062   4.434   1.645
 3065TIP3   OH2 9151   4.250   6.499   1.488
 3065TIP3    H1 9152   4.297   6.547   1.556
 3065TIP3    H2 9153   4.290   6.412   1.489
 3066TIP3   OH2 9154   1.832   7.199   3.118
 3066TIP3    H1 9155   1.886   7.179   3.195
 3066TIP3    H2 9156   1.761   7.253   3.153
 3067TIP3   OH2 9157   8.184   7.344   2.446
 3067TIP3    H1 9158   8.234   7.286   2.504
 3067TIP3    H2 9159   8.092   7.324   2.465
 3068TIP3   OH2 9160   7.859   4.420   2.428
 3068TIP3    H1 9161   7.852   4.359   2.355
 3068TIP3    H2 9162   7.769   4.429   2.459
 3069TIP3   OH2 9163   5.834   2.389   0.474
 3069TIP3    H1 9164   5.888   2.402   0.396
 3069TIP3    H2 9165   5.876   2.442   0.542
 3070TIP3   OH2 9166   4.773   2.411   5.741
 3070TIP3    H1 9167   4.841   2.420   5.808
 3070TIP3    H2 9168   4.775   2.319   5.716
 3071TIP3   OH2 9169   6.127   0.557   5.133
 3071TIP3    H1 9170   6.149   0.483   5.075
 3071TIP3    H2 9171   6.193   0.553   5.202
 3072TIP3   OH2 9172   3.947   6.326  -0.005
 3072TIP3    H1 9173   3.995   6.246   0.018
 3072TIP3    H2 9174   3.907   6.354   0.077
 3073TIP3   OH2 9175   8.053   3.983   5.220
 3073TIP3    H1 9176   8.103   4.032   5.285
 3073TIP3    H2 9177   8.095   4.004   5.136
 3074TIP3   OH2 9178   0.353   3.119   5.825
 3074TIP3    H1 9179   0.408   3.190   5.793
 3074TIP3    H2 9180   0.334   3.142   5.916
 3075TIP3   OH2 9181   6.727   3.997   5.036
 3075TIP3    H1 9182   6.805   4.051   5.047
 3075TIP3    H2 9183   6.710   3.961   5.124
 3076TIP3   OH2 9184   3.940   0.654   2.722
 3076TIP3    H1 9185   3.922   0.561   2.710
 3076TIP3    H2 9186   3.855   0.697   2.713
 3077TIP3   OH2 9187   6.081   4.008   0.956
 3077TIP3    H1 9188   6.122   4.029   0.872
 3077TIP3    H2 9189   6.012   4.073   0.965
 3078TIP3   OH2 9190   4.717   5.630   2.021
 3078TIP3    H1 9191   4.786   5.640   2.087
 3078TIP3    H2 9192   4.754   5.570   1.956
 3079TIP3   OH2 9193   0.343   6.039   6.620
 3079TIP3    H1 9194   0.252   6.010   6.621
 3079TIP3    H2 9195   0.339   6.130   6.591
 3080TIP3   OH2 9196   0.704   3.767   3.351
 3080TIP3    H1 9197   0.685   3.764   3.257
 3080TIP3    H2 9198   0.685   3.858   3.376
 3081TIP3   OH2 9199   3.646   1.677   1.265
 3081TIP3    H1 9200   3.610   1.685   1.353
 3081TIP3    H2 9201   3.729   1.725   1.269
 3082TIP3   OH2 9202   5.757   7.337   0.390
 3082TIP3    H1 9203   5.673   7.352   0.349
 3082TIP3    H2 9204   5.737   7.286   0.469
 3083TIP3   OH2 9205   7.978   1.905   6.165
 3083TIP3    H1 9206   7.990   1.856   6.084
 3083TIP3    H2 9207   7.978   1.838   6.234
 3084TIP3   OH2 9208   6.046   1.177   2.703
 3084TIP3    H1 9209   6.004   1.102   2.745
 3084TIP3    H2 9210   6.134   1.148   2.683
 3085TIP3   OH2 9211   2.283   2.515   5.018
 3085TIP3    H1 9212   2.189   2.530   5.010
 3085TIP3    H2 9213   2.301   2.523   5.112
 3086TIP3   OH2 9214   1.537   6.278   0.182
 3086TIP3    H1 9215   1.540   6.275   0.086
 3086TIP3    H2 9216   1.494   6.197   0.208
 3087TIP3   OH2 9217   4.341   5.453   6.418
 3087TIP3    H1 9218   4.345   5.522   6.483
 3087TIP3    H2 9219   4.405   5.478   6.351
 3088TIP3   OH2 9220   3.148   2.438   6.294
 3088TIP3    H1 9221   3.209   2.511   6.306
 3088TIP3    H2 9222   3.101   2.432   6.377
 3089TIP3   OH2 9223   3.219   6.643   3.597
 3089TIP3    H1 9224   3.125   6.664   3.600
 3089TIP3    H2 9225   3.225   6.568   3.538
 3090TIP3   OH2 9226   5.112   4.985   0.876
 3090TIP3    H1 9227   5.093   5.071   0.915
 3090TIP3    H2 9228   5.027   4.941   0.872
 3091TIP3   OH2 9229   5.973   3.874   3.728
 3091TIP3    H1 9230   5.933   3.807   3.674
 3091TIP3    H2 9231   5.902   3.936   3.747
 3092TIP3   OH2 9232   7.844   2.646   4.574
 3092TIP3    H1 9233   7.851   2.712   4.505
 3092TIP3    H2 9234   7.756   2.611   4.565
 3093TIP3   OH2 9235   5.809   6.098   1.090
 3093TIP3    H1 9236   5.814   6.154   1.012
 3093TIP3    H2 9237   5.735   6.133   1.140
 3094TIP3   OH2 9238   7.863   2.266   2.549
 3094TIP3    H1 9239   7.851   2.171   2.547
 3094TIP3    H2 9240   7.845   2.291   2.639
 3095TIP3   OH2 9241   4.924   0.463   1.843
 3095TIP3    H1 9242   4.975   0.545   1.842
 3095TIP3    H2 9243   4.914   0.441   1.750
 3096TIP3   OH2 9244   6.882   4.573   2.387
 3096TIP3    H1 9245   6.943   4.632   2.432
 3096TIP3    H2 9246   6.849   4.516   2.457
 3097TIP3   OH2 9247   6.237   0.796   2.103
 3097TIP3    H1 9248   6.220   0.726   2.040
 3097TIP3    H2 9249   6.157   0.802   2.155
 3098TIP3   OH2 9250   6.468   7.309   1.579
 3098TIP3    H1 9251   6.437   7.399   1.572
 3098TIP3    H2 9252   6.417   7.272   1.651
 3099TIP3   OH2 9253   7.182   7.405   1.936
 3099TIP3    H1 9254   7.172   7.459   2.014
 3099TIP3    H2 9255   7.276   7.386   1.931
 3100TIP3   OH2 9256   1.339   5.380   5.665
 3100TIP3    H1 9257   1.316   5.305   5.610
 3100TIP3    H2 9258   1.435   5.376   5.673
 3101TIP3   OH2 9259   2.409   4.949   4.028
 3101TIP3    H1 9260   2.402   5.020   3.963
 3101TIP3    H2 9261   2.473   4.982   4.091
 3102TIP3   OH2 9262   5.453   3.118   0.827
 3102TIP3    H1 9263   5.375   3.078   0.865
 3102TIP3    H2 9264   5.444   3.103   0.733
 3103TIP3   OH2 9265   7.712   5.519   2.094
 3103TIP3    H1 9266   7.732   5.606   2.059
 3103TIP3    H2 9267   7.645   5.484   2.035
 3104TIP3   OH2 9268   6.222   1.414   1.410
 3104TIP3    H1 9269   6.166   1.482   1.371
 3104TIP3    H2 9270   6.248   1.451   1.495
 3105TIP3   OH2 9271   1.743   4.119   2.233
 3105TIP3    H1 9272   1.708   4.044   2.186
 3105TIP3    H2 9273   1.827   4.090   2.267
 3106TIP3   OH2 9274   0.771   6.617   6.238
 3106TIP3    H1 9275   0.783   6.540   6.182
 3106TIP3    H2 9276   0.861   6.647   6.256
 3107TIP3   OH2 9277   1.129   7.025   2.998
 3107TIP3    H1 9278   1.224   7.026   2.987
 3107TIP3    H2 9279   1.101   6.943   2.956
 3108TIP3   OH2 9280   2.727   7.268   5.836
 3108TIP3    H1 9281   2.736   7.180   5.799
 3108TIP3    H2 9282   2.752   7.257   5.928
 3109TIP3   OH2 9283   6.895   7.503   3.846
 3109TIP3    H1 9284   6.986   7.474   3.851
 3109TIP3    H2 9285   6.884   7.559   3.923
 3110TIP3   OH2 9286   6.854   2.260   5.024
 3110TIP3    H1 9287   6.828   2.223   4.940
 3110TIP3    H2 9288   6.865   2.184   5.081
 3111TIP3   OH2 9289   1.831   0.756   3.947
 3111TIP3    H1 9290   1.875   0.803   3.876
 3111TIP3    H2 9291   1.869   0.794   4.027
 3112TIP3   OH2 9292   4.132   7.179   1.895
 3112TIP3    H1 9293   4.124   7.256   1.838
 3112TIP3    H2 9294   4.222   7.150   1.883
 3113TIP3   OH2 9295   3.705   0.299   2.697
 3113TIP3    H1 9296   3.774   0.272   2.758
 3113TIP3    H2 9297   3.751   0.322   2.617
 3114TIP3   OH2 9298   3.597   5.757   3.796
 3114TIP3    H1 9299   3.603   5.684   3.858
 3114TIP3    H2 9300   3.592   5.715   3.710
 3115TIP3   OH2 9301   4.639   4.871   4.484
 3115TIP3    H1 9302   4.591   4.939   4.436
 3115TIP3    H2 9303   4.653   4.802   4.419
 3116TIP3   OH2 9304   4.977   7.150   0.328
 3116TIP3    H1 9305   4.925   7.133   0.407
 3116TIP3    H2 9306   4.938   7.094   0.261
 3117TIP3   OH2 9307   3.707   2.990   5.484
 3117TIP3    H1 9308   3.779   3.053   5.476
 3117TIP3    H2 9309   3.656   3.001   5.403
 3118TIP3   OH2 9310   3.730   6.680   3.173
 3118TIP3    H1 9311   3.636   6.680   3.189
 3118TIP3    H2 9312   3.764   6.610   3.230
 3119TIP3   OH2 9313   4.938   4.881   0.232
 3119TIP3    H1 9314   4.855   4.884   0.184
 3119TIP3    H2 9315   4.987   4.958   0.201
 3120TIP3   OH2 9316   0.753   2.035   6.064
 3120TIP3    H1 9317   0.710   2.119   6.047
 3120TIP3    H2 9318   0.701   1.996   6.135
 3121TIP3   OH2 9319   1.118   4.204   3.328
 3121TIP3    H1 9320   1.076   4.178   3.411
 3121TIP3    H2 9321   1.107   4.299   3.325
 3122TIP3   OH2 9322   5.682   5.823   2.144
 3122TIP3    H1 9323   5.760   5.771   2.163
 3122TIP3    H2 9324   5.624   5.807   2.219
 3123TIP3   OH2 9325   8.261   1.156   4.421
 3123TIP3    H1 9326   8.201   1.124   4.354
 3123TIP3    H2 9327   8.204   1.187   4.491
 3124TIP3   OH2 9328   1.612   2.830   1.822
 3124TIP3    H1 9329   1.640   2.787   1.902
 3124TIP3    H2 9330   1.534   2.880   1.848
 3125TIP3   OH2 9331   6.646   7.845   6.168
 3125TIP3    H1 9332   6.576   7.815   6.226
 3125TIP3    H2 9333   6.667   7.769   6.114
 3126TIP3   OH2 9334   3.050   5.792   1.387
 3126TIP3    H1 9335   2.962   5.811   1.354
 3126TIP3    H2 9336   3.063   5.853   1.459
 3127TIP3   OH2 9337   8.257   7.177   0.697
 3127TIP3    H1 9338   8.210   7.131   0.767
 3127TIP3    H2 9339   8.195   7.182   0.625
 3128TIP3   OH2 9340   4.608   4.190   4.913
 3128TIP3    H1 9341   4.551   4.247   4.861
 3128TIP3    H2 9342   4.691   4.189   4.865
 3129TIP3   OH2 9343   5.904   0.432   4.260
 3129TIP3    H1 9344   5.996   0.415   4.241
 3129TIP3    H2 9345   5.882   0.369   4.328
 3130TIP3   OH2 9346   7.252   7.684   0.773
 3130TIP3    H1 9347   7.159   7.708   0.775
 3130TIP3    H2 9348   7.251   7.588   0.779
 3131TIP3   OH2 9349   6.503   7.451   5.316
 3131TIP3    H1 9350   6.581   7.464   5.369
 3131TIP3    H2 9351   6.517   7.507   5.239
 3132TIP3   OH2 9352   3.605   2.789   2.485
 3132TIP3    H1 9353   3.510   2.774   2.478
 3132TIP3    H2 9354   3.644   2.723   2.427
 3133TIP3   OH2 9355   4.650   5.310   4.924
 3133TIP3    H1 9356   4.707   5.285   4.996
 3133TIP3    H2 9357   4.698   5.379   4.878
 3134TIP3   OH2 9358   0.516   6.561   3.297
 3134TIP3    H1 9359   0.597   6.516   3.321
 3134TIP3    H2 9360   0.447   6.495   3.309
 3135TIP3   OH2 9361   4.681   5.739   0.116
 3135TIP3    H1 9362   4.744   5.804   0.147
 3135TIP3    H2 9363   4.643   5.703   0.196
 3136TIP3   OH2 9364   5.221   2.151   2.787
 3136TIP3    H1 9365   5.237   2.085   2.720
 3136TIP3    H2 9366   5.139   2.194   2.759
 3137TIP3   OH2 9367   1.134   2.347   6.170
 3137TIP3    H1 9368   1.062   2.409   6.156
 3137TIP3    H2 9369   1.106   2.294   6.245
 3138TIP3   OH2 9370   5.619   6.395   5.571
 3138TIP3    H1 9371   5.549   6.386   5.635
 3138TIP3    H2 9372   5.646   6.486   5.577
 3139TIP3   OH2 9373   2.904   4.882   2.886
 3139TIP3    H1 9374   2.960   4.825   2.940
 3139TIP3    H2 9375   2.869   4.823   2.818
 3140TIP3   OH2 9376   1.554   4.288   0.362
 3140TIP3    H1 9377   1.515   4.211   0.320
 3140TIP3    H2 9378   1.600   4.253   0.438
 3141TIP3   OH2 9379   1.193   0.087   0.266
 3141TIP3    H1 9380   1.101   0.111   0.280
 3141TIP3    H2 9381   1.233   0.094   0.352
 3142TIP3   OH2 9382   5.087   2.856   6.068
 3142TIP3    H1 9383   5.070   2.780   6.124
 3142TIP3    H2 9384   5.031   2.925   6.103
 3143TIP3   OH2 9385   0.264   0.158   2.058
 3143TIP3    H1 9386   0.306   0.127   1.978
 3143TIP3    H2 9387   0.296   0.248   2.068
 3144TIP3   OH2 9388   4.535   3.314   3.575
 3144TIP3    H1 9389   4.476   3.258   3.526
 3144TIP3    H2 9390   4.479   3.384   3.610
 3145TIP3   OH2 9391   4.257   5.604   1.298
 3145TIP3    H1 9392   4.192   5.595   1.228
 3145TIP3    H2 9393   4.237   5.688   1.338
 3146TIP3   OH2 9394   6.388   1.992   2.627
 3146TIP3    H1 9395   6.371   1.970   2.719
 3146TIP3    H2 9396   6.469   2.042   2.629
 3147TIP3   OH2 9397   3.316   3.293   5.121
 3147TIP3    H1 9398   3.271   3.330   5.197
 3147TIP3    H2 9399   3.365   3.367   5.084
 3148TIP3   OH2 9400   7.278   3.052   0.946
 3148TIP3    H1 9401   7.225   3.009   0.879
 3148TIP3    H2 9402   7.317   2.980   0.995
 3149TIP3   OH2 9403   3.047   4.007   1.690
 3149TIP3    H1 9404   3.078   4.062   1.618
 3149TIP3    H2 9405   3.048   3.918   1.654
 3150TIP3   OH2 9406   4.818   6.718   1.139
 3150TIP3    H1 9407   4.861   6.696   1.222
 3150TIP3    H2 9408   4.794   6.811   1.149
 3151TIP3   OH2 9409   1.795   0.049   5.023
 3151TIP3    H1 9410   1.780   0.077   5.113
 3151TIP3    H2 9411   1.715   0.072   4.976
 3152TIP3   OH2 9412   3.626   6.934   1.703
 3152TIP3    H1 9413   3.639   6.928   1.608
 3152TIP3    H2 9414   3.698   6.991   1.732
 3153TIP3   OH2 9415   1.700   6.418   6.166
 3153TIP3    H1 9416   1.704   6.513   6.154
 3153TIP3    H2 9417   1.657   6.386   6.086
 3154TIP3   OH2 9418   3.617   1.368   0.942
 3154TIP3    H1 9419   3.633   1.274   0.944
 3154TIP3    H2 9420   3.653   1.401   1.024
 3155TIP3   OH2 9421   0.720   7.496   3.627
 3155TIP3    H1 9422   0.745   7.421   3.573
 3155TIP3    H2 9423   0.685   7.457   3.707
 3156TIP3   OH2 9424   3.196   3.954   3.266
 3156TIP3    H1 9425   3.203   3.930   3.358
 3156TIP3    H2 9426   3.256   3.895   3.221
 3157TIP3   OH2 9427   5.412   0.816   2.075
 3157TIP3    H1 9428   5.437   0.883   2.011
 3157TIP3    H2 9429   5.392   0.739   2.022
 3158TIP3   OH2 9430   6.921   5.557   3.775
 3158TIP3    H1 9431   6.963   5.637   3.745
 3158TIP3    H2 9432   6.938   5.494   3.704
 3159TIP3   OH2 9433   3.652   7.839   1.612
 3159TIP3    H1 9434   3.671   7.913   1.670
 3159TIP3    H2 9435   3.736   7.820   1.569
 3160TIP3   OH2 9436   7.942   3.082   2.003
 3160TIP3    H1 9437   7.919   2.995   2.035
 3160TIP3    H2 9438   8.005   3.116   2.067
 3161TIP3   OH2 9439   7.951   6.427   1.611
 3161TIP3    H1 9440   7.886   6.464   1.671
 3161TIP3    H2 9441   8.013   6.382   1.669
 3162TIP3   OH2 9442   5.386   6.312   0.542
 3162TIP3    H1 9443   5.453   6.296   0.609
 3162TIP3    H2 9444   5.432   6.302   0.459
 3163TIP3   OH2 9445   3.033   3.246   4.419
 3163TIP3    H1 9446   3.045   3.341   4.416
 3163TIP3    H2 9447   3.000   3.228   4.507
 3164TIP3   OH2 9448   6.796   6.621   5.651
 3164TIP3    H1 9449   6.745   6.548   5.687
 3164TIP3    H2 9450   6.848   6.582   5.581
 3165TIP3   OH2 9451   4.863   0.669   4.889
 3165TIP3    H1 9452   4.804   0.631   4.823
 3165TIP3    H2 9453   4.884   0.756   4.855
 3166TIP3   OH2 9454   2.381   0.685   6.741
 3166TIP3    H1 9455   2.291   0.708   6.722
 3166TIP3    H2 9456   2.415   0.759   6.792
 3167TIP3   OH2 9457   4.076   4.038   0.722
 3167TIP3    H1 9458   4.109   3.978   0.655
 3167TIP3    H2 9459   3.981   4.030   0.716
 3168TIP3   OH2 9460   6.045   6.025   6.662
 3168TIP3    H1 9461   6.060   5.947   6.609
 3168TIP3    H2 9462   5.974   6.001   6.722
 3169TIP3   OH2 9463   7.418   7.674   5.873
 3169TIP3    H1 9464   7.467   7.685   5.955
 3169TIP3    H2 9465   7.485   7.658   5.807
 3170TIP3   OH2 9466   1.427   2.152   1.143
 3170TIP3    H1 9467   1.367   2.213   1.099
 3170TIP3    H2 9468   1.389   2.138   1.229
 3171TIP3   OH2 9469   1.288   1.924   5.951
 3171TIP3    H1 9470   1.343   1.999   5.927
 3171TIP3    H2 9471   1.205   1.964   5.977
 3172TIP3   OH2 9472   3.087   5.584   0.073
 3172TIP3    H1 9473   3.150   5.537   0.019
 3172TIP3    H2 9474   3.066   5.524   0.144
 3173TIP3   OH2 9475   4.679   0.391   1.070
 3173TIP3    H1 9476   4.644   0.305   1.048
 3173TIP3    H2 9477   4.774   0.380   1.066
 3174TIP3   OH2 9478   6.821   7.515   1.570
 3174TIP3    H1 9479   6.838   7.606   1.545
 3174TIP3    H2 9480   6.762   7.522   1.645
 3175TIP3   OH2 9481   6.518   2.153   1.134
 3175TIP3    H1 9482   6.441   2.198   1.167
 3175TIP3    H2 9483   6.592   2.207   1.163
 3176TIP3   OH2 9484   4.576   0.054   6.694
 3176TIP3    H1 9485   4.530   0.133   6.722
 3176TIP3    H2 9486   4.633   0.033   6.767
 3177TIP3   OH2 9487   1.768   7.467   5.179
 3177TIP3    H1 9488   1.780   7.556   5.212
 3177TIP3    H2 9489   1.673   7.458   5.166
 3178TIP3   OH2 9490   7.769   2.425   3.828
 3178TIP3    H1 9491   7.783   2.339   3.867
 3178TIP3    H2 9492   7.795   2.415   3.737
 3179TIP3   OH2 9493   5.071   4.963   4.345
 3179TIP3    H1 9494   5.106   5.007   4.267
 3179TIP3    H2 9495   5.137   4.897   4.367
 3180TIP3   OH2 9496   0.934   1.247   1.738
 3180TIP3    H1 9497   0.843   1.278   1.745
 3180TIP3    H2 9498   0.925   1.154   1.716
 3181TIP3   OH2 9499   3.766   4.236   6.429
 3181TIP3    H1 9500   3.758   4.327   6.400
 3181TIP3    H2 9501   3.717   4.186   6.364
 3182TIP3   OH2 9502   4.244   7.168   1.543
 3182TIP3    H1 9503   4.283   7.184   1.457
 3182TIP3    H2 9504   4.301   7.104   1.584
 3183TIP3   OH2 9505   2.350   6.159   5.374
 3183TIP3    H1 9506   2.297   6.094   5.329
 3183TIP3    H2 9507   2.338   6.140   5.467
 3184TIP3   OH2 9508   1.342   3.916   1.528
 3184TIP3    H1 9509   1.392   3.984   1.482
 3184TIP3    H2 9510   1.252   3.928   1.497
 3185TIP3   OH2 9511   4.200   0.614   2.648
 3185TIP3    H1 9512   4.113   0.643   2.676
 3185TIP3    H2 9513   4.192   0.520   2.635
 3186TIP3   OH2 9514   7.831   3.859   2.999
 3186TIP3    H1 9515   7.796   3.940   2.962
 3186TIP3    H2 9516   7.867   3.811   2.925
 3187TIP3   OH2 9517   3.480   0.228   0.483
 3187TIP3    H1 9518   3.448   0.148   0.525
 3187TIP3    H2 9519   3.423   0.297   0.517
 3188TIP3   OH2 9520   7.279   4.646   2.169
 3188TIP3    H1 9521   7.188   4.615   2.175
 3188TIP3    H2 9522   7.315   4.599   2.094
 3189TIP3   OH2 9523   4.874   7.345   2.036
 3189TIP3    H1 9524   4.967   7.366   2.043
 3189TIP3    H2 9525   4.833   7.393   2.107
 3190TIP3   OH2 9526   6.678   3.376   0.041
 3190TIP3    H1 9527   6.615   3.441   0.008
 3190TIP3    H2 9528   6.753   3.428   0.070
 3191TIP3   OH2 9529   7.823   5.798   4.850
 3191TIP3    H1 9530   7.780   5.745   4.917
 3191TIP3    H2 9531   7.787   5.766   4.767
 3192TIP3   OH2 9532   4.094   7.503   5.288
 3192TIP3    H1 9533   4.024   7.452   5.248
 3192TIP3    H2 9534   4.048   7.577   5.330
 3193TIP3   OH2 9535   0.528   1.330   0.237
 3193TIP3    H1 9536   0.485   1.246   0.250
 3193TIP3    H2 9537   0.619   1.308   0.217
 3194TIP3   OH2 9538   4.589   7.438   0.159
 3194TIP3    H1 9539   4.661   7.418   0.219
 3194TIP3    H2 9540   4.512   7.397   0.199
 3195TIP3   OH2 9541   8.227   7.426   1.244
 3195TIP3    H1 9542   8.220   7.330   1.245
 3195TIP3    H2 9543   8.320   7.443   1.231
 3196TIP3   OH2 9544   0.884   3.009   0.449
 3196TIP3    H1 9545   0.798   3.008   0.407
 3196TIP3    H2 9546   0.896   2.920   0.483
 3197TIP3   OH2 9547   6.224   3.112   2.924
 3197TIP3    H1 9548   6.260   3.201   2.918
 3197TIP3    H2 9549   6.265   3.075   3.002
 3198TIP3   OH2 9550   1.573   1.594   6.418
 3198TIP3    H1 9551   1.651   1.545   6.393
 3198TIP3    H2 9552   1.604   1.654   6.486
 3199TIP3   OH2 9553   6.581   1.151   6.764
 3199TIP3    H1 9554   6.493   1.115   6.761
 3199TIP3    H2 9555   6.637   1.076   6.786
 3200TIP3   OH2 9556   7.548   1.308   2.566
 3200TIP3    H1 9557   7.469   1.257   2.586
 3200TIP3    H2 9558   7.519   1.372   2.502
 3201TIP3   OH2 9559   0.826   4.054   5.153
 3201TIP3    H1 9560   0.819   4.095   5.239
 3201TIP3    H2 9561   0.918   4.066   5.128
 3202TIP3   OH2 9562   2.916   7.409   4.919
 3202TIP3    H1 9563   2.878   7.323   4.935
 3202TIP3    H2 9564   3.004   7.390   4.884
 3203TIP3   OH2 9565   7.173   7.012   6.728
 3203TIP3    H1 9566   7.112   7.066   6.677
 3203TIP3    H2 9567   7.202   7.069   6.798
 3204TIP3   OH2 9568   8.110   4.669   4.299
 3204TIP3    H1 9569   8.038   4.605   4.296
 3204TIP3    H2 9570   8.153   4.654   4.383
 3205TIP3   OH2 9571   4.788   2.351   4.829
 3205TIP3    H1 9572   4.809   2.371   4.738
 3205TIP3    H2 9573   4.697   2.322   4.826
 3206TIP3   OH2 9574   2.873   3.041   1.837
 3206TIP3    H1 9575   2.876   3.031   1.932
 3206TIP3    H2 9576   2.806   3.107   1.822
 3207TIP3   OH2 9577   6.325   2.525   0.931
 3207TIP3    H1 9578   6.324   2.617   0.904
 3207TIP3    H2 9579   6.233   2.506   0.953
 3208TIP3   OH2 9580   1.365   3.459   0.691
 3208TIP3    H1 9581   1.320   3.409   0.759
 3208TIP3    H2 9582   1.456   3.428   0.695
 3209TIP3   OH2 9583   7.070   2.436   1.557
 3209TIP3    H1 9584   7.079   2.491   1.480
 3209TIP3    H2 9585   6.977   2.443   1.581
 3210TIP3   OH2 9586   7.805   6.399   1.921
 3210TIP3    H1 9587   7.809   6.482   1.874
 3210TIP3    H2 9588   7.713   6.371   1.913
 3211TIP3   OH2 9589   7.057   1.502   3.053
 3211TIP3    H1 9590   7.106   1.457   3.123
 3211TIP3    H2 9591   7.082   1.594   3.062
 3212TIP3   OH2 9592   4.331   3.502   0.845
 3212TIP3    H1 9593   4.375   3.578   0.805
 3212TIP3    H2 9594   4.383   3.427   0.816
 3213TIP3   OH2 9595   0.424   4.418   6.464
 3213TIP3    H1 9596   0.510   4.415   6.424
 3213TIP3    H2 9597   0.400   4.326   6.478
 3214TIP3   OH2 9598   6.156   0.344   2.119
 3214TIP3    H1 9599   6.153   0.361   2.025
 3214TIP3    H2 9600   6.201   0.259   2.127
 3215TIP3   OH2 9601   1.174   7.649   5.877
 3215TIP3    H1 9602   1.091   7.629   5.921
 3215TIP3    H2 9603   1.158   7.629   5.785
 3216TIP3   OH2 9604   5.938   2.270   2.998
 3216TIP3    H1 9605   5.999   2.262   3.072
 3216TIP3    H2 9606   5.954   2.357   2.963
 3217TIP3   OH2 9607   6.407   5.777   3.822
 3217TIP3    H1 9608   6.503   5.773   3.821
 3217TIP3    H2 9609   6.385   5.840   3.754
 3218TIP3   OH2 9610   4.633   6.306   1.711
 3218TIP3    H1 9611   4.674   6.233   1.665
 3218TIP3    H2 9612   4.702   6.342   1.766
 3219TIP3   OH2 9613   6.041   3.075   1.146
 3219TIP3    H1 9614   5.993   3.141   1.095
 3219TIP3    H2 9615   5.973   3.021   1.185
 3220TIP3   OH2 9616   4.636   6.813   1.443
 3220TIP3    H1 9617   4.693   6.875   1.399
 3220TIP3    H2 9618   4.693   6.767   1.504
 3221TIP3   OH2 9619   2.096   0.261   1.811
 3221TIP3    H1 9620   2.186   0.226   1.815
 3221TIP3    H2 9621   2.101   0.331   1.747
 3222TIP3   OH2 9622   6.336   0.206   2.897
 3222TIP3    H1 9623   6.417   0.255   2.909
 3222TIP3    H2 9624   6.326   0.156   2.978
 3223TIP3   OH2 9625   1.062   3.540  -0.001
 3223TIP3    H1 9626   1.142   3.523   0.048
 3223TIP3    H2 9627   1.001   3.577   0.062
 3224TIP3   OH2 9628   7.643   0.679   0.147
 3224TIP3    H1 9629   7.625   0.639   0.232
 3224TIP3    H2 9630   7.616   0.612   0.084
 3225TIP3   OH2 9631   6.104   2.458   6.588
 3225TIP3    H1 9632   6.123   2.381   6.535
 3225TIP3    H2 9633   6.077   2.424   6.672
 3226TIP3   OH2 9634   2.810   5.204   3.108
 3226TIP3    H1 9635   2.758   5.180   3.186
 3226TIP3    H2 9636   2.756   5.268   3.062
 3227TIP3   OH2 9637   6.702   6.427   4.310
 3227TIP3    H1 9638   6.757   6.403   4.236
 3227TIP3    H2 9639   6.613   6.411   4.280
 3228TIP3   OH2 9640   5.490   4.456   6.591
 3228TIP3    H1 9641   5.424   4.472   6.524
 3228TIP3    H2 9642   5.456   4.501   6.669
 3229TIP3   OH2 9643   2.711   7.484   3.424
 3229TIP3    H1 9644   2.635   7.482   3.367
 3229TIP3    H2 9645   2.779   7.438   3.374
 3230TIP3   OH2 9646   1.872   5.844   2.515
 3230TIP3    H1 9647   1.891   5.861   2.423
 3230TIP3    H2 9648   1.777   5.850   2.522
 3231TIP3   OH2 9649   6.157   2.565   3.213
 3231TIP3    H1 9650   6.225   2.528   3.268
 3231TIP3    H2 9651   6.177   2.659   3.209
 3232TIP3   OH2 9652   3.276   3.309   2.875
 3232TIP3    H1 9653   3.354   3.258   2.897
 3232TIP3    H2 9654   3.259   3.362   2.952
 3233TIP3   OH2 9655   6.626   1.643   6.529
 3233TIP3    H1 9656   6.621   1.579   6.458
 3233TIP3    H2 9657   6.538   1.643   6.568
 3234TIP3   OH2 9658   7.004   5.676   3.346
 3234TIP3    H1 9659   6.919   5.690   3.387
 3234TIP3    H2 9660   7.054   5.754   3.367
 3235TIP3   OH2 9661   2.614   0.591   5.163
 3235TIP3    H1 9662   2.696   0.623   5.127
 3235TIP3    H2 9663   2.577   0.535   5.094
 3236TIP3   OH2 9664   3.840   0.251   5.746
 3236TIP3    H1 9665   3.817   0.221   5.658
 3236TIP3    H2 9666   3.888   0.333   5.731
 3237TIP3   OH2 9667   0.875   5.562   0.383
 3237TIP3    H1 9668   0.944   5.565   0.449
 3237TIP3    H2 9669   0.832   5.647   0.389
 3238TIP3   OH2 9670   1.657   0.548   1.347
 3238TIP3    H1 9671   1.626   0.627   1.303
 3238TIP3    H2 9672   1.584   0.487   1.341
 3239TIP3   OH2 9673   3.305   5.236   3.811
 3239TIP3    H1 9674   3.303   5.216   3.717
 3239TIP3    H2 9675   3.322   5.151   3.852
 3240TIP3   OH2 9676   6.897   3.814   1.165
 3240TIP3    H1 9677   6.823   3.780   1.114
 3240TIP3    H2 9678   6.856   3.846   1.246
 3241TIP3   OH2 9679   1.765   7.663   4.693
 3241TIP3    H1 9680   1.804   7.631   4.774
 3241TIP3    H2 9681   1.781   7.593   4.630
 3242TIP3   OH2 9682   5.905   4.576   0.992
 3242TIP3    H1 9683   5.817   4.588   0.957
 3242TIP3    H2 9684   5.963   4.585   0.916
 3243TIP3   OH2 9685   0.684   1.395   1.662
 3243TIP3    H1 9686   0.754   1.460   1.667
 3243TIP3    H2 9687   0.603   1.445   1.671
 3244TIP3   OH2 9688   7.825   1.403   4.915
 3244TIP3    H1 9689   7.777   1.479   4.883
 3244TIP3    H2 9690   7.833   1.346   4.838
 3245TIP3   OH2 9691   3.706   0.922   5.638
 3245TIP3    H1 9692   3.751   0.863   5.698
 3245TIP3    H2 9693   3.656   0.981   5.694
 3246TIP3   OH2 9694   2.020   1.740   3.720
 3246TIP3    H1 9695   2.014   1.671   3.786
 3246TIP3    H2 9696   1.985   1.700   3.640
 3247TIP3   OH2 9697   1.160   2.118   6.650
 3247TIP3    H1 9698   1.221   2.156   6.586
 3247TIP3    H2 9699   1.175   2.024   6.644
 3248TIP3   OH2 9700   5.138   6.505   1.341
 3248TIP3    H1 9701   5.206   6.528   1.405
 3248TIP3    H2 9702   5.067   6.469   1.394
 3249TIP3   OH2 9703   3.310   7.286   4.106
 3249TIP3    H1 9704   3.333   7.210   4.159
 3249TIP3    H2 9705   3.349   7.360   4.151
 3250TIP3   OH2 9706   5.464   1.631   1.203
 3250TIP3    H1 9707   5.493   1.576   1.276
 3250TIP3    H2 9708   5.444   1.715   1.243
 3251TIP3   OH2 9709   7.613   3.049   3.077
 3251TIP3    H1 9710   7.664   3.073   3.154
 3251TIP3    H2 9711   7.525   3.035   3.110
 3252TIP3   OH2 9712   7.913   0.510   1.742
 3252TIP3    H1 9713   7.964   0.549   1.671
 3252TIP3    H2 9714   7.845   0.575   1.761
 3253TIP3   OH2 9715   1.122   6.041   4.787
 3253TIP3    H1 9716   1.152   6.042   4.696
 3253TIP3    H2 9717   1.154   5.959   4.823
 3254TIP3   OH2 9718   7.293   4.481   1.948
 3254TIP3    H1 9719   7.268   4.390   1.963
 3254TIP3    H2 9720   7.258   4.502   1.861
 3255TIP3   OH2 9721   6.621   3.333   4.786
 3255TIP3    H1 9722   6.542   3.378   4.815
 3255TIP3    H2 9723   6.608   3.242   4.812
 3256TIP3   OH2 9724   6.008   0.905   2.238
 3256TIP3    H1 9725   5.959   0.833   2.278
 3256TIP3    H2 9726   5.941   0.967   2.210
 3257TIP3   OH2 9727   0.860   5.504   3.733
 3257TIP3    H1 9728   0.920   5.465   3.670
 3257TIP3    H2 9729   0.882   5.462   3.816
 3258TIP3   OH2 9730   7.895   1.778   3.002
 3258TIP3    H1 9731   7.921   1.688   2.981
 3258TIP3    H2 9732   7.810   1.768   3.046
 3259TIP3   OH2 9733   5.273   4.588   2.058
 3259TIP3    H1 9734   5.199   4.648   2.062
 3259TIP3    H2 9735   5.350   4.645   2.055
 3260TIP3   OH2 9736   3.739   2.018   1.624
 3260TIP3    H1 9737   3.784   2.087   1.672
 3260TIP3    H2 9738   3.768   2.030   1.533
 3261TIP3   OH2 9739   6.170   2.293   3.540
 3261TIP3    H1 9740   6.160   2.209   3.495
 3261TIP3    H2 9741   6.253   2.328   3.508
 3262TIP3   OH2 9742   7.755   5.059   6.046
 3262TIP3    H1 9743   7.732   5.112   5.970
 3262TIP3    H2 9744   7.722   5.109   6.121
 3263TIP3   OH2 9745   5.007   5.526   4.602
 3263TIP3    H1 9746   5.029   5.612   4.566
 3263TIP3    H2 9747   4.997   5.470   4.526
 3264TIP3   OH2 9748   4.518   4.998   5.198
 3264TIP3    H1 9749   4.543   5.063   5.264
 3264TIP3    H2 9750   4.571   4.921   5.220
 3265TIP3   OH2 9751   7.454   1.718   1.851
 3265TIP3    H1 9752   7.402   1.799   1.842
 3265TIP3    H2 9753   7.501   1.711   1.768
 3266TIP3   OH2 9754   4.476   7.345   3.793
 3266TIP3    H1 9755   4.458   7.281   3.724
 3266TIP3    H2 9756   4.562   7.319   3.827
 3267TIP3   OH2 9757   1.669   4.775   2.037
 3267TIP3    H1 9758   1.764   4.781   2.039
 3267TIP3    H2 9759   1.642   4.765   2.128
 3268TIP3   OH2 9760   6.119   6.283   4.688
 3268TIP3    H1 9761   6.165   6.204   4.659
 3268TIP3    H2 9762   6.095   6.265   4.779
 3269TIP3   OH2 9763   6.927   2.371   2.887
 3269TIP3    H1 9764   7.016   2.389   2.915
 3269TIP3    H2 9765   6.888   2.458   2.872
 3270TIP3   OH2 9766   3.993   4.296   3.587
 3270TIP3    H1 9767   4.076   4.328   3.623
 3270TIP3    H2 9768   3.999   4.200   3.594
 3271TIP3   OH2 9769   0.339   2.787   1.925
 3271TIP3    H1 9770   0.422   2.834   1.917
 3271TIP3    H2 9771   0.364   2.700   1.957
 3272TIP3   OH2 9772   6.260   1.061   0.717
 3272TIP3    H1 9773   6.266   1.144   0.765
 3272TIP3    H2 9774   6.181   1.020   0.751
 3273TIP3   OH2 9775   2.207   1.385   4.277
 3273TIP3    H1 9776   2.272   1.456   4.280
 3273TIP3    H2 9777   2.245   1.316   4.332
 3274TIP3   OH2 9778   6.817   5.882   1.271
 3274TIP3    H1 9779   6.863   5.930   1.201
 3274TIP3    H2 9780   6.839   5.929   1.351
 3275TIP3   OH2 9781   3.910   0.093   2.799
 3275TIP3    H1 9782   3.828   0.053   2.829
 3275TIP3    H2 9783   3.974   0.022   2.804
 3276TIP3   OH2 9784   6.457   4.043   5.706
 3276TIP3    H1 9785   6.520   3.975   5.733
 3276TIP3    H2 9786   6.438   4.091   5.787
 3277TIP3   OH2 9787   1.218   0.143   3.655
 3277TIP3    H1 9788   1.234   0.049   3.661
 3277TIP3    H2 9789   1.192   0.168   3.744
 3278TIP3   OH2 9790   7.085   6.400   0.018
 3278TIP3    H1 9791   7.045   6.477   0.057
 3278TIP3    H2 9792   7.089   6.336   0.089
 3279TIP3   OH2 9793   5.206   1.640   4.425
 3279TIP3    H1 9794   5.209   1.549   4.455
 3279TIP3    H2 9795   5.186   1.633   4.331
 3280TIP3   OH2 9796   0.775   4.002   5.672
 3280TIP3    H1 9797   0.773   4.022   5.579
 3280TIP3    H2 9798   0.854   4.046   5.704
 3281TIP3   OH2 9799   0.712   4.958   6.729
 3281TIP3    H1 9800   0.687   4.896   6.798
 3281TIP3    H2 9801   0.690   5.044   6.765
 3282TIP3   OH2 9802   0.476   6.775   4.179
 3282TIP3    H1 9803   0.498   6.724   4.257
 3282TIP3    H2 9804   0.421   6.846   4.210
 3283TIP3   OH2 9805   6.204   6.984   4.383
 3283TIP3    H1 9806   6.171   7.021   4.301
 3283TIP3    H2 9807   6.276   7.042   4.407
 3284TIP3   OH2 9808   7.130   0.541   6.159
 3284TIP3    H1 9809   7.220   0.571   6.145
 3284TIP3    H2 9810   7.124   0.459   6.111
 3285TIP3   OH2 9811   0.260   2.373   6.148
 3285TIP3    H1 9812   0.183   2.336   6.191
 3285TIP3    H2 9813   0.238   2.373   6.055
 3286TIP3   OH2 9814   5.410   6.295   1.401
 3286TIP3    H1 9815   5.459   6.312   1.482
 3286TIP3    H2 9816   5.319   6.288   1.429
 3287TIP3   OH2 9817   5.266   0.287   1.856
 3287TIP3    H1 9818   5.338   0.321   1.910
 3287TIP3    H2 9819   5.304   0.276   1.769
 3288TIP3   OH2 9820   5.341   4.151   0.890
 3288TIP3    H1 9821   5.353   4.059   0.912
 3288TIP3    H2 9822   5.382   4.199   0.962
 3289TIP3   OH2 9823   3.644   5.105   5.732
 3289TIP3    H1 9824   3.694   5.089   5.812
 3289TIP3    H2 9825   3.680   5.186   5.696
 3290TIP3   OH2 9826   7.179   1.245   1.875
 3290TIP3    H1 9827   7.219   1.320   1.919
 3290TIP3    H2 9828   7.186   1.173   1.938
 3291TIP3   OH2 9829   0.100   3.952   0.429
 3291TIP3    H1 9830   0.017   3.921   0.465
 3291TIP3    H2 9831   0.146   3.991   0.504
 3292TIP3   OH2 9832   6.990   5.346   3.560
 3292TIP3    H1 9833   7.039   5.361   3.479
 3292TIP3    H2 9834   6.978   5.251   3.564
 3293TIP3   OH2 9835   3.140   1.572   3.496
 3293TIP3    H1 9836   3.203   1.515   3.540
 3293TIP3    H2 9837   3.175   1.660   3.505
 3294TIP3   OH2 9838   4.110   6.844   6.378
 3294TIP3    H1 9839   4.100   6.921   6.323
 3294TIP3    H2 9840   4.204   6.829   6.382
 3295TIP3   OH2 9841   6.506   0.409   4.654
 3295TIP3    H1 9842   6.494   0.390   4.747
 3295TIP3    H2 9843   6.544   0.497   4.652
 3296TIP3   OH2 9844   3.672   4.737   0.524
 3296TIP3    H1 9845   3.632   4.685   0.594
 3296TIP3    H2 9846   3.636   4.700   0.443
 3297TIP3   OH2 9847   1.696   2.481   6.306
 3297TIP3    H1 9848   1.669   2.462   6.216
 3297TIP3    H2 9849   1.615   2.498   6.353
 3298TIP3   OH2 9850   5.147   6.837   3.978
 3298TIP3    H1 9851   5.138   6.844   3.883
 3298TIP3    H2 9852   5.233   6.873   3.997
 3299TIP3   OH2 9853   6.270   3.245   0.180
 3299TIP3    H1 9854   6.223   3.326   0.157
 3299TIP3    H2 9855   6.362   3.269   0.176
 3300TIP3   OH2 9856   4.348   4.848   3.861
 3300TIP3    H1 9857   4.393   4.929   3.888
 3300TIP3    H2 9858   4.300   4.821   3.939
 3301TIP3   OH2 9859   4.007   5.958   5.479
 3301TIP3    H1 9860   3.995   5.864   5.465
 3301TIP3    H2 9861   4.096   5.966   5.514
 3302TIP3   OH2 9862   7.078   3.865   6.055
 3302TIP3    H1 9863   6.996   3.830   6.022
 3302TIP3    H2 9864   7.079   3.956   6.025
 3303TIP3   OH2 9865   6.791   1.347   0.783
 3303TIP3    H1 9866   6.708   1.392   0.800
 3303TIP3    H2 9867   6.857   1.416   0.790
 3304TIP3   OH2 9868   6.283   6.537   0.051
 3304TIP3    H1 9869   6.376   6.558   0.053
 3304TIP3    H2 9870   6.268   6.504  -0.037
 3305TIP3   OH2 9871   8.218   6.312   5.331
 3305TIP3    H1 9872   8.149   6.304   5.265
 3305TIP3    H2 9873   8.294   6.345   5.283
 3306TIP3   OH2 9874   0.763   5.823   0.356
 3306TIP3    H1 9875   0.699   5.850   0.290
 3306TIP3    H2 9876   0.727   5.854   0.439
 3307TIP3   OH2 9877   0.651   1.591   0.640
 3307TIP3    H1 9878   0.594   1.618   0.567
 3307TIP3    H2 9879   0.721   1.540   0.598
 3308TIP3   OH2 9880   4.518   3.852   1.766
 3308TIP3    H1 9881   4.538   3.759   1.783
 3308TIP3    H2 9882   4.513   3.858   1.671
 3309TIP3   OH2 9883   0.911   5.293   6.614
 3309TIP3    H1 9884   0.974   5.260   6.549
 3309TIP3    H2 9885   0.936   5.249   6.696
 3310TIP3   OH2 9886   6.092   6.514   3.142
 3310TIP3    H1 9887   6.101   6.557   3.227
 3310TIP3    H2 9888   6.182   6.507   3.110
 3311TIP3   OH2 9889   2.555   3.739   5.768
 3311TIP3    H1 9890   2.535   3.832   5.777
 3311TIP3    H2 9891   2.488   3.695   5.821
 3312TIP3   OH2 9892   7.748   6.876   4.245
 3312TIP3    H1 9893   7.755   6.911   4.334
 3312TIP3    H2 9894   7.835   6.841   4.226
 3313TIP3   OH2 9895   5.422   1.120   3.107
 3313TIP3    H1 9896   5.477   1.157   3.176
 3313TIP3    H2 9897   5.351   1.184   3.097
 3314TIP3   OH2 9898   3.466   6.959   5.295
 3314TIP3    H1 9899   3.409   6.885   5.274
 3314TIP3    H2 9900   3.428   7.032   5.248
 3315TIP3   OH2 9901   6.381   6.782   2.236
 3315TIP3    H1 9902   6.436   6.811   2.164
 3315TIP3    H2 9903   6.408   6.692   2.253
 3316TIP3   OH2 9904   5.183   6.416   2.583
 3316TIP3    H1 9905   5.218   6.501   2.610
 3316TIP3    H2 9906   5.250   6.379   2.526
 3317TIP3   OH2 9907   1.112   6.573   2.263
 3317TIP3    H1 9908   1.067   6.492   2.287
 3317TIP3    H2 9909   1.192   6.544   2.219
 3318TIP3   OH2 9910   3.658   6.195   4.892
 3318TIP3    H1 9911   3.640   6.224   4.802
 3318TIP3    H2 9912   3.660   6.099   4.886
 3319TIP3   OH2 9913   2.630   3.178   1.051
 3319TIP3    H1 9914   2.632   3.097   1.103
 3319TIP3    H2 9915   2.570   3.159   0.979
 3320TIP3   OH2 9916   2.967   0.884   0.392
 3320TIP3    H1 9917   3.024   0.830   0.447
 3320TIP3    H2 9918   2.885   0.835   0.388
 3321TIP3   OH2 9919   3.018   0.497   6.346
 3321TIP3    H1 9920   3.007   0.459   6.433
 3321TIP3    H2 9921   2.931   0.491   6.307
 3322TIP3   OH2 9922   2.993  -0.015   6.402
 3322TIP3    H1 9923   2.911   0.013   6.444
 3322TIP3    H2 9924   3.061   0.032   6.449
 3323TIP3   OH2 9925   4.429   3.318   2.359
 3323TIP3    H1 9926   4.461   3.384   2.298
 3323TIP3    H2 9927   4.334   3.334   2.364
 3324TIP3   OH2 9928   0.926   3.460   2.050
 3324TIP3    H1 9929   0.912   3.371   2.082
 3324TIP3    H2 9930   1.019   3.463   2.027
 3325TIP3   OH2 9931   8.046   3.076   5.367
 3325TIP3    H1 9932   8.104   3.061   5.293
 3325TIP3    H2 9933   7.959   3.055   5.333
 3326TIP3   OH2 9934   6.051   2.346   5.649
 3326TIP3    H1 9935   6.145   2.330   5.654
 3326TIP3    H2 9936   6.019   2.283   5.585
 3327TIP3   OH2 9937   6.536   3.479   2.064
 3327TIP3    H1 9938   6.571   3.567   2.081
 3327TIP3    H2 9939   6.444   3.493   2.040
 3328TIP3   OH2 9940   7.853   7.093   4.028
 3328TIP3    H1 9941   7.816   7.026   4.085
 3328TIP3    H2 9942   7.947   7.089   4.044
 3329TIP3   OH2 9943   8.275   7.199   1.547
 3329TIP3    H1 9944   8.189   7.156   1.547
 3329TIP3    H2 9945   8.284   7.236   1.635
 3330TIP3   OH2 9946   2.306   1.030   3.971
 3330TIP3    H1 9947   2.374   1.093   3.995
 3330TIP3    H2 9948   2.291   0.980   4.051
 3331TIP3   OH2 9949   2.047   4.867   5.210
 3331TIP3    H1 9950   2.002   4.902   5.133
 3331TIP3    H2 9951   2.005   4.782   5.225
 3332TIP3   OH2 9952   1.259   1.176   4.381
 3332TIP3    H1 9953   1.187   1.239   4.380
 3332TIP3    H2 9954   1.337   1.228   4.399
 3333TIP3   OH2 9955   3.316   3.824   4.057
 3333TIP3    H1 9956   3.229   3.787   4.075
 3333TIP3    H2 9957   3.300   3.898   3.999
 3334TIP3   OH2 9958   2.388   2.872   1.983
 3334TIP3    H1 9959   2.336   2.808   2.031
 3334TIP3    H2 9960   2.358   2.957   2.015
 3335TIP3   OH2 9961   7.298   0.408   0.563
 3335TIP3    H1 9962   7.206   0.433   0.555
 3335TIP3    H2 9963   7.317   0.359   0.483
 3336TIP3   OH2 9964   0.457   1.735   3.919
 3336TIP3    H1 9965   0.485   1.820   3.886
 3336TIP3    H2 9966   0.512   1.672   3.873
 3337TIP3   OH2 9967   2.502   1.805   2.073
 3337TIP3    H1 9968   2.533   1.741   2.009
 3337TIP3    H2 9969   2.562   1.879   2.063
 3338TIP3   OH2 9970   4.135   5.238   1.524
 3338TIP3    H1 9971   4.225   5.268   1.531
 3338TIP3    H2 9972   4.123   5.179   1.598
 3339TIP3   OH2 9973   5.578   2.354   6.233
 3339TIP3    H1 9974   5.619   2.326   6.151
 3339TIP3    H2 9975   5.486   2.330   6.223
 3340TIP3   OH2 9976   3.411   3.881   5.173
 3340TIP3    H1 9977   3.400   3.955   5.233
 3340TIP3    H2 9978   3.325   3.839   5.171
 3341TIP3   OH2 9979   6.895   1.284   6.568
 3341TIP3    H1 9980   6.913   1.196   6.603
 3341TIP3    H2 9981   6.878   1.269   6.475
 3342TIP3   OH2 9982   0.521   1.438   1.962
 3342TIP3    H1 9983   0.548   1.349   1.937
 3342TIP3    H2 9984   0.517   1.436   2.058
 3343TIP3   OH2 9985   5.258   3.731   1.918
 3343TIP3    H1 9986   5.304   3.802   1.874
 3343TIP3    H2 9987   5.327   3.670   1.945
 3344TIP3   OH2 9988   5.537   6.045   3.787
 3344TIP3    H1 9989   5.519   6.120   3.731
 3344TIP3    H2 9990   5.463   5.985   3.770
 3345TIP3   OH2 9991   7.654   0.218   1.581
 3345TIP3    H1 9992   7.711   0.248   1.510
 3345TIP3    H2 9993   7.713   0.205   1.655
 3346TIP3   OH2 9994   1.497   5.162   5.957
 3346TIP3    H1 9995   1.489   5.257   5.958
 3346TIP3    H2 9996   1.454   5.133   6.038
 3347TIP3   OH2 9997   1.979   4.057   2.947
 3347TIP3    H1 9998   1.909   4.083   3.007
 3347TIP3    H2 9999   2.035   4.000   2.998
 3348TIP3   OH210000   2.880   4.782   5.996
 3348TIP3    H110001   2.839   4.864   6.024
 3348TIP3    H210002   2.889   4.791   5.901
 3349TIP3   OH210003   3.814   7.195   1.102
 3349TIP3    H110004   3.752   7.252   1.147
 3349TIP3    H210005   3.812   7.113   1.150
 3350TIP3   OH210006   1.604   3.521   1.257
 3350TIP3    H110007   1.538   3.453   1.269
 3350TIP3    H210008   1.626   3.517   1.164
 3351TIP3   OH210009   4.119   0.403   6.404
 3351TIP3    H110010   4.083   0.476   6.353
 3351TIP3    H210011   4.204   0.434   6.433
 3352TIP3   OH210012   0.066   2.254   3.953
 3352TIP3    H110013   0.076   2.162   3.927
 3352TIP3    H210014  -0.006   2.286   3.899
 3353TIP3   OH210015   0.949   6.782   4.038
 3353TIP3    H110016   0.869   6.829   4.063
 3353TIP3    H210017   0.992   6.761   4.121
 3354TIP3   OH210018   5.506   6.672   1.853
 3354TIP3    H110019   5.568   6.654   1.782
 3354TIP3    H210020   5.538   6.619   1.926
 3355TIP3   OH210021   5.182   0.024   3.623
 3355TIP3    H110022   5.089   0.040   3.638
 3355TIP3    H210023   5.225   0.108   3.640
 3356TIP3   OH210024   6.119   3.770   3.446
 3356TIP3    H110025   6.201   3.815   3.424
 3356TIP3    H210026   6.077   3.826   3.511
 3357TIP3   OH210027   4.842   6.666   5.306
 3357TIP3    H110028   4.821   6.688   5.215
 3357TIP3    H210029   4.784   6.594   5.327
 3358TIP3   OH210030   7.747   2.735   0.720
 3358TIP3    H110031   7.814   2.682   0.764
 3358TIP3    H210032   7.796   2.803   0.674
 3359TIP3   OH210033   6.469   6.049   2.632
 3359TIP3    H110034   6.474   5.960   2.597
 3359TIP3    H210035   6.382   6.054   2.672
 3360TIP3   OH210036   3.359   6.439   6.265
 3360TIP3    H110037   3.337   6.482   6.183
 3360TIP3    H210038   3.430   6.378   6.242
 3361TIP3   OH210039   1.668   2.342   1.150
 3361TIP3    H110040   1.606   2.391   1.096
 3361TIP3    H210041   1.693   2.267   1.096
 3362TIP3   OH210042   3.444   1.957   1.501
 3362TIP3    H110043   3.467   1.864   1.497
 3362TIP3    H210044   3.529   2.002   1.502
 3363TIP3   OH210045   0.127   2.822   0.613
 3363TIP3    H110046   0.128   2.782   0.700
 3363TIP3    H210047   0.085   2.757   0.557
 3364TIP3   OH210048   0.407   2.750   4.385
 3364TIP3    H110049   0.468   2.704   4.328
 3364TIP3    H210050   0.327   2.698   4.382
 3365TIP3   OH210051   2.224   2.074   5.536
 3365TIP3    H110052   2.207   2.110   5.623
 3365TIP3    H210053   2.138   2.046   5.505
 3366TIP3   OH210054   3.574   7.561   0.760
 3366TIP3    H110055   3.637   7.572   0.689
 3366TIP3    H210056   3.530   7.645   0.766
 3367TIP3   OH210057   7.443   0.163   6.012
 3367TIP3    H110058   7.395   0.149   5.930
 3367TIP3    H210059   7.485   0.078   6.030
 3368TIP3   OH210060   0.705   4.794   0.368
 3368TIP3    H110061   0.709   4.840   0.452
 3368TIP3    H210062   0.613   4.771   0.357
 3369TIP3   OH210063   7.780   0.678   6.726
 3369TIP3    H110064   7.816   0.630   6.651
 3369TIP3    H210065   7.857   0.700   6.779
 3370TIP3   OH210066   0.404   7.362   4.280
 3370TIP3    H110067   0.338   7.348   4.348
 3370TIP3    H210068   0.463   7.427   4.317
 3371TIP3   OH210069   0.328   4.732   1.088
 3371TIP3    H110070   0.290   4.820   1.087
 3371TIP3    H210071   0.258   4.676   1.122
 3372TIP3   OH210072   1.795   0.332   0.283
 3372TIP3    H110073   1.822   0.240   0.288
 3372TIP3    H210074   1.827   0.370   0.365
 3373TIP3   OH210075   4.636   1.705   0.870
 3373TIP3    H110076   4.714   1.668   0.828
 3373TIP3    H210077   4.576   1.722   0.797
 3374TIP3   OH210078   2.082   6.929   3.143
 3374TIP3    H110079   2.164   6.979   3.147
 3374TIP3    H210080   2.104   6.852   3.090
 3375TIP3   OH210081   5.188   6.633   4.964
 3375TIP3    H110082   5.120   6.615   4.899
 3375TIP3    H210083   5.180   6.727   4.982
 3376TIP3   OH210084   7.269   0.890   4.671
 3376TIP3    H110085   7.236   0.833   4.602
 3376TIP3    H210086   7.365   0.880   4.666
 3377TIP3   OH210087   5.958   1.620   2.564
 3377TIP3    H110088   5.893   1.691   2.564
 3377TIP3    H210089   5.907   1.541   2.548
 3378TIP3   OH210090   5.678   4.872   5.205
 3378TIP3    H110091   5.770   4.888   5.186
 3378TIP3    H210092   5.655   4.939   5.269
 3379TIP3   OH210093   7.141   4.917   0.475
 3379TIP3    H110094   7.171   4.870   0.553
 3379TIP3    H210095   7.207   4.899   0.409
 3380TIP3   OH210096   2.673   5.681   6.047
 3380TIP3    H110097   2.747   5.716   5.997
 3380TIP3    H210098   2.713   5.644   6.126
 3381TIP3   OH210099   1.026   5.452   3.986
 3381TIP3    H110100   1.037   5.357   3.979
 3381TIP3    H210101   1.115   5.485   3.995
 3382TIP3   OH210102   5.181   4.045  -0.004
 3382TIP3    H110103   5.142   4.133  -0.004
 3382TIP3    H210104   5.140   4.000   0.070
 3383TIP3   OH210105   6.998   0.100   1.709
 3383TIP3    H110106   7.060   0.081   1.638
 3383TIP3    H210107   6.964   0.187   1.690
 3384TIP3   OH210108   4.696   4.708   1.794
 3384TIP3    H110109   4.682   4.632   1.850
 3384TIP3    H210110   4.632   4.773   1.823
 3385TIP3   OH210111   7.400   5.303   5.973
 3385TIP3    H110112   7.366   5.278   6.059
 3385TIP3    H210113   7.451   5.383   5.990
 3386TIP3   OH210114   2.601   3.207   6.082
 3386TIP3    H110115   2.602   3.220   6.177
 3386TIP3    H210116   2.553   3.125   6.069
 3387TIP3   OH210117   1.536   6.872   4.121
 3387TIP3    H110118   1.450   6.842   4.090
 3387TIP3    H210119   1.516   6.946   4.178
 3388TIP3   OH210120   3.052   1.911   1.581
 3388TIP3    H110121   3.010   1.882   1.662
 3388TIP3    H210122   3.015   1.855   1.513
 3389TIP3   OH210123   0.951   2.837   3.874
 3389TIP3    H110124   0.961   2.789   3.957
 3389TIP3    H210125   1.007   2.914   3.884
 3390TIP3   OH210126   2.491   3.930   1.507
 3390TIP3    H110127   2.490   3.981   1.426
 3390TIP3    H210128   2.421   3.967   1.560
 3391TIP3   OH210129   3.311   6.873   5.836
 3391TIP3    H110130   3.228   6.902   5.873
 3391TIP3    H210131   3.333   6.939   5.770
 3392TIP3   OH210132   6.414   0.291   1.293
 3392TIP3    H110133   6.377   0.355   1.232
 3392TIP3    H210134   6.346   0.225   1.303
 3393TIP3   OH210135   2.062   7.570   6.749
 3393TIP3    H110136   2.031   7.611   6.830
 3393TIP3    H210137   2.116   7.637   6.708
 3394TIP3   OH210138   5.807   3.602   2.539
 3394TIP3    H110139   5.756   3.620   2.618
 3394TIP3    H210140   5.892   3.570   2.572
 3395TIP3   OH210141   3.345   5.965   1.745
 3395TIP3    H110142   3.341   6.033   1.813
 3395TIP3    H210143   3.274   5.905   1.766
 3396TIP3   OH210144   6.583   4.814   0.001
 3396TIP3    H110145   6.531   4.816   0.081
 3396TIP3    H210146   6.537   4.754  -0.057
 3397TIP3   OH210147   1.879   6.481   0.845
 3397TIP3    H110148   1.903   6.429   0.769
 3397TIP3    H210149   1.807   6.537   0.815
 3398TIP3   OH210150   2.702   3.614   5.603
 3398TIP3    H110151   2.650   3.667   5.663
 3398TIP3    H210152   2.686   3.524   5.631
 3399TIP3   OH210153   4.953   4.002   1.357
 3399TIP3    H110154   5.015   4.004   1.284
 3399TIP3    H210155   4.958   3.913   1.391
 3400TIP3   OH210156   2.167   2.322   0.914
 3400TIP3    H110157   2.244   2.337   0.968
 3400TIP3    H210158   2.119   2.253   0.960
 3401TIP3   OH210159   4.292   4.765   2.011
 3401TIP3    H110160   4.278   4.796   1.921
 3401TIP3    H210161   4.270   4.840   2.066
 3402TIP3   OH210162   7.499   2.205   5.426
 3402TIP3    H110163   7.459   2.152   5.495
 3402TIP3    H210164   7.486   2.295   5.455
 3403TIP3   OH210165   2.723   3.304   0.309
 3403TIP3    H110166   2.732   3.350   0.226
 3403TIP3    H210167   2.691   3.217   0.285
 3404TIP3   OH210168   1.017   2.766   3.610
 3404TIP3    H110169   0.945   2.718   3.569
 3404TIP3    H210170   0.977   2.805   3.689
 3405TIP3   OH210171   4.787   5.425   2.262
 3405TIP3    H110172   4.747   5.357   2.208
 3405TIP3    H210173   4.729   5.434   2.337
 3406TIP3   OH210174   3.079   1.229   6.126
 3406TIP3    H110175   3.095   1.323   6.118
 3406TIP3    H210176   3.101   1.193   6.039
 3407TIP3   OH210177   5.120   6.745   0.845
 3407TIP3    H110178   5.146   6.713   0.932
 3407TIP3    H210179   5.079   6.830   0.862
 3408TIP3   OH210180   2.697   2.838   4.725
 3408TIP3    H110181   2.632   2.903   4.699
 3408TIP3    H210182   2.748   2.882   4.793
 3409TIP3   OH210183   2.714   6.743   5.468
 3409TIP3    H110184   2.777   6.679   5.501
 3409TIP3    H210185   2.674   6.700   5.392
 3410TIP3   OH210186   6.999   7.495   1.112
 3410TIP3    H110187   7.057   7.473   1.185
 3410TIP3    H210188   6.981   7.411   1.071
 3411TIP3   OH210189   2.428   5.973   3.950
 3411TIP3    H110190   2.440   5.943   3.861
 3411TIP3    H210191   2.411   6.067   3.942
 3412TIP3   OH210192   6.323   0.430   1.032
 3412TIP3    H110193   6.394   0.490   1.010
 3412TIP3    H210194   6.338   0.352   0.978
 3413TIP3   OH210195   7.495   1.845   3.345
 3413TIP3    H110196   7.489   1.881   3.433
 3413TIP3    H210197   7.426   1.778   3.342
 3414TIP3   OH210198   4.380   6.884   6.326
 3414TIP3    H110199   4.459   6.884   6.381
 3414TIP3    H210200   4.410   6.914   6.241
 3415TIP3   OH210201   1.480   3.020   4.142
 3415TIP3    H110202   1.437   2.942   4.105
 3415TIP3    H210203   1.463   3.014   4.236
 3416TIP3   OH210204   2.317   4.376   1.660
 3416TIP3    H110205   2.300   4.467   1.639
 3416TIP3    H210206   2.306   4.329   1.578
 3417TIP3   OH210207   4.085   1.363   2.910
 3417TIP3    H110208   4.076   1.426   2.981
 3417TIP3    H210209   4.145   1.406   2.848
 3418TIP3   OH210210   3.534   0.970   5.358
 3418TIP3    H110211   3.452   0.958   5.310
 3418TIP3    H210212   3.572   1.050   5.322
 3419TIP3   OH210213   0.909   3.229   0.770
 3419TIP3    H110214   0.845   3.299   0.758
 3419TIP3    H210215   0.952   3.220   0.685
 3420TIP3   OH210216   2.963   2.325   3.375
 3420TIP3    H110217   2.916   2.307   3.456
 3420TIP3    H210218   3.055   2.328   3.401
 3421TIP3   OH210219   7.300   1.551   6.393
 3421TIP3    H110220   7.281   1.543   6.299
 3421TIP3    H210221   7.268   1.469   6.430
 3422TIP3   OH210222   4.102   1.857   3.944
 3422TIP3    H110223   4.086   1.780   3.998
 3422TIP3    H210224   4.044   1.924   3.981
 3423TIP3   OH210225   1.594   1.113   2.377
 3423TIP3    H110226   1.572   1.198   2.413
 3423TIP3    H210227   1.511   1.065   2.374
 3424TIP3   OH210228   4.102   2.169   5.833
 3424TIP3    H110229   4.132   2.257   5.851
 3424TIP3    H210230   4.182   2.116   5.831
 3425TIP3   OH210231   6.772   4.411   2.576
 3425TIP3    H110232   6.724   4.414   2.660
 3425TIP3    H210233   6.805   4.322   2.571
 3426TIP3   OH210234   3.569   3.219   4.639
 3426TIP3    H110235   3.540   3.308   4.658
 3426TIP3    H210236   3.549   3.169   4.718
 3427TIP3   OH210237   2.279   1.804   3.372
 3427TIP3    H110238   2.296   1.824   3.464
 3427TIP3    H210239   2.280   1.890   3.329
 3428TIP3   OH210240   2.861   3.828   3.347
 3428TIP3    H110241   2.883   3.920   3.365
 3428TIP3    H210242   2.938   3.779   3.376
 3429TIP3   OH210243   5.213   0.774   4.268
 3429TIP3    H110244   5.173   0.733   4.345
 3429TIP3    H210245   5.154   0.752   4.196
 3430TIP3   OH210246   2.455   0.778   1.706
 3430TIP3    H110247   2.457   0.856   1.761
 3430TIP3    H210248   2.541   0.776   1.664
 3431TIP3   OH210249   6.469   3.591   3.513
 3431TIP3    H110250   6.416   3.599   3.592
 3431TIP3    H210251   6.423   3.526   3.459
 3432TIP3   OH210252   6.950   2.738   6.523
 3432TIP3    H110253   6.979   2.706   6.437
 3432TIP3    H210254   7.015   2.704   6.584
 3433TIP3   OH210255   3.958   3.242   5.082
 3433TIP3    H110256   3.991   3.330   5.065
 3433TIP3    H210257   4.006   3.213   5.160
 3434TIP3   OH210258   1.282   0.969   6.003
 3434TIP3    H110259   1.228   1.046   5.990
 3434TIP3    H210260   1.344   0.969   5.930
 3435TIP3   OH210261   1.916   5.702   0.864
 3435TIP3    H110262   1.909   5.764   0.937
 3435TIP3    H210263   1.939   5.619   0.905
 3436TIP3   OH210264   2.802   0.599   0.362
 3436TIP3    H110265   2.727   0.658   0.368
 3436TIP3    H210266   2.813   0.583   0.269
 3437TIP3   OH210267   3.668   4.642   4.498
 3437TIP3    H110268   3.662   4.631   4.403
 3437TIP3    H210269   3.747   4.594   4.523
 3438TIP3   OH210270   0.747   0.594   1.271
 3438TIP3    H110271   0.666   0.644   1.281
 3438TIP3    H210272   0.720   0.503   1.285
 3439TIP3   OH210273   7.176   5.261   0.056
 3439TIP3    H110274   7.105   5.197   0.056
 3439TIP3    H210275   7.136   5.342   0.024
 3440TIP3   OH210276   4.473   6.861   0.138
 3440TIP3    H110277   4.457   6.951   0.111
 3440TIP3    H210278   4.544   6.867   0.201
 3441TIP3   OH210279   0.997   2.399   1.982
 3441TIP3    H110280   0.911   2.386   2.021
 3441TIP3    H210281   1.014   2.493   1.992
 3442TIP3   OH210282   7.248   2.668   0.812
 3442TIP3    H110283   7.266   2.718   0.732
 3442TIP3    H210284   7.322   2.608   0.819
 3443TIP3   OH210285   6.324   1.265   0.884
 3443TIP3    H110286   6.341   1.340   0.941
 3443TIP3    H210287   6.363   1.191   0.929
 3444TIP3   OH210288   2.439   2.644   4.800
 3444TIP3    H110289   2.405   2.731   4.816
 3444TIP3    H210290   2.393   2.588   4.862
 3445TIP3   OH210291   1.649   6.921   4.643
 3445TIP3    H110292   1.564   6.903   4.603
 3445TIP3    H210293   1.668   6.843   4.694
 3446TIP3   OH210294   2.423   6.151   4.589
 3446TIP3    H110295   2.412   6.166   4.495
 3446TIP3    H210296   2.421   6.239   4.628
 3447TIP3   OH210297   4.626   5.112   3.454
 3447TIP3    H110298   4.558   5.179   3.464
 3447TIP3    H210299   4.585   5.045   3.400
 3448TIP3   OH210300   7.677   2.888   6.443
 3448TIP3    H110301   7.756   2.898   6.497
 3448TIP3    H210302   7.677   2.966   6.387
 3449TIP3   OH210303   7.610   6.916   3.024
 3449TIP3    H110304   7.601   6.907   3.119
 3449TIP3    H210305   7.543   6.981   3.000
 3450TIP3   OH210306   3.063   0.228   2.315
 3450TIP3    H110307   3.046   0.260   2.227
 3450TIP3    H210308   3.145   0.270   2.341
 3451TIP3   OH210309   8.222   3.380   5.040
 3451TIP3    H110310   8.295   3.323   5.064
 3451TIP3    H210311   8.257   3.437   4.972
 3452TIP3   OH210312   5.519   6.947   1.903
 3452TIP3    H110313   5.593   6.944   1.963
 3452TIP3    H210314   5.518   6.860   1.861
 3453TIP3   OH210315   7.535   0.870   4.654
 3453TIP3    H110316   7.589   0.888   4.730
 3453TIP3    H210317   7.583   0.803   4.605
 3454TIP3   OH210318   2.082   3.446   4.717
 3454TIP3    H110319   2.116   3.535   4.730
 3454TIP3    H210320   2.054   3.445   4.625
 3455TIP3   OH210321   2.874   3.977   2.862
 3455TIP3    H110322   2.909   3.992   2.950
 3455TIP3    H210323   2.911   4.048   2.809
 3456TIP3   OH210324   3.670   0.416   2.305
 3456TIP3    H110325   3.611   0.489   2.288
 3456TIP3    H210326   3.656   0.355   2.233
 3457TIP3   OH210327   2.176   6.756   5.009
 3457TIP3    H110328   2.165   6.716   4.922
 3457TIP3    H210329   2.145   6.846   4.997
 3458TIP3   OH210330   8.133   1.678   1.981
 3458TIP3    H110331   8.082   1.676   1.900
 3458TIP3    H210332   8.140   1.772   2.002
 3459TIP3   OH210333   5.859   1.577   1.948
 3459TIP3    H110334   5.895   1.527   2.022
 3459TIP3    H210335   5.914   1.655   1.942
 3460TIP3   OH210336   0.202   5.639   5.889
 3460TIP3    H110337   0.202   5.627   5.983
 3460TIP3    H210338   0.130   5.700   5.873
 3461TIP3   OH210339   7.405   0.165   2.674
 3461TIP3    H110340   7.427   0.171   2.767
 3461TIP3    H210341   7.314   0.137   2.673
 3462TIP3   OH210342   1.542   6.445   3.521
 3462TIP3    H110343   1.595   6.398   3.456
 3462TIP3    H210344   1.585   6.426   3.604
 3463TIP3   OH210345   4.559   3.494   2.211
 3463TIP3    H110346   4.575   3.583   2.241
 3463TIP3    H210347   4.537   3.503   2.118
 3464TIP3   OH210348   3.587   2.480   1.882
 3464TIP3    H110349   3.546   2.439   1.806
 3464TIP3    H210350   3.517   2.531   1.923
 3465TIP3   OH210351   4.360   0.272   0.975
 3465TIP3    H110352   4.421   0.311   0.912
 3465TIP3    H210353   4.276   0.272   0.931
 3466TIP3   OH210354   0.852   4.531   5.448
 3466TIP3    H110355   0.811   4.445   5.434
 3466TIP3    H210356   0.780   4.589   5.470
 3467TIP3   OH210357   0.520   2.818   3.728
 3467TIP3    H110358   0.480   2.773   3.653
 3467TIP3    H210359   0.448   2.870   3.765
 3468TIP3   OH210360   6.656   6.448   3.500
 3468TIP3    H110361   6.674   6.451   3.406
 3468TIP3    H210362   6.560   6.452   3.506
 3469TIP3   OH210363   7.481   1.425   6.619
 3469TIP3    H110364   7.412   1.460   6.562
 3469TIP3    H210365   7.434   1.370   6.682
 3470TIP3   OH210366   3.339   5.030   3.997
 3470TIP3    H110367   3.422   4.993   3.966
 3470TIP3    H210368   3.355   5.050   4.090
 3471TIP3   OH210369   3.313   7.111   1.894
 3471TIP3    H110370   3.401   7.133   1.924
 3471TIP3    H210371   3.260   7.188   1.914
 3472TIP3   OH210372   2.647   0.921   4.276
 3472TIP3    H110373   2.690   0.894   4.194
 3472TIP3    H210374   2.575   0.858   4.287
 3473TIP3   OH210375   4.570   1.160   1.257
 3473TIP3    H110376   4.500   1.222   1.275
 3473TIP3    H210377   4.627   1.164   1.334
 3474TIP3   OH210378   5.874   3.891   5.168
 3474TIP3    H110379   5.782   3.870   5.180
 3474TIP3    H210380   5.883   3.912   5.075
 3475TIP3   OH210381   4.120   6.423   2.589
 3475TIP3    H110382   4.026   6.412   2.600
 3475TIP3    H210383   4.131   6.516   2.570
 3476TIP3   OH210384   4.567   2.976   0.280
 3476TIP3    H110385   4.515   2.956   0.357
 3476TIP3    H210386   4.630   2.904   0.274
 3477TIP3   OH210387   0.544   0.543   1.548
 3477TIP3    H110388   0.514   0.591   1.625
 3477TIP3    H210389   0.635   0.572   1.536
 3478TIP3   OH210390   5.632   2.904   4.530
 3478TIP3    H110391   5.537   2.898   4.534
 3478TIP3    H210392   5.654   2.974   4.592
 3479TIP3   OH210393   7.199   0.960   2.034
 3479TIP3    H110394   7.123   0.994   2.082
 3479TIP3    H210395   7.243   0.904   2.098
 3480TIP3   OH210396   2.015   2.412   4.718
 3480TIP3    H110397   1.980   2.444   4.635
 3480TIP3    H210398   1.954   2.344   4.746
 3481TIP3   OH210399   8.191   0.701   5.446
 3481TIP3    H110400   8.181   0.794   5.429
 3481TIP3    H210401   8.141   0.658   5.376
 3482TIP3   OH210402   2.895   6.523   3.617
 3482TIP3    H110403   2.918   6.435   3.648
 3482TIP3    H210404   2.914   6.522   3.524
 3483TIP3   OH210405   3.981   1.238   0.042
 3483TIP3    H110406   4.015   1.209  -0.042
 3483TIP3    H210407   3.960   1.331   0.030
 3484TIP3   OH210408   3.977   5.831   4.973
 3484TIP3    H110409   3.903   5.855   4.917
 3484TIP3    H210410   4.049   5.817   4.912
 3485TIP3   OH210411   2.774   3.907   4.403
 3485TIP3    H110412   2.832   3.948   4.338
 3485TIP3    H210413   2.816   3.925   4.487
 3486TIP3   OH210414   2.548   3.633   0.633
 3486TIP3    H110415   2.466   3.587   0.654
 3486TIP3    H210416   2.564   3.612   0.541
 3487TIP3   OH210417   4.231   7.718   6.365
 3487TIP3    H110418   4.240   7.790   6.302
 3487TIP3    H210419   4.309   7.725   6.421
 3488TIP3   OH210420   4.535   7.703   5.016
 3488TIP3    H110421   4.545   7.796   4.996
 3488TIP3    H210422   4.462   7.699   5.077
 3489TIP3   OH210423   6.869   3.958   5.464
 3489TIP3    H110424   6.909   3.901   5.530
 3489TIP3    H210425   6.810   4.015   5.514
 3490TIP3   OH210426   2.761   0.597   3.111
 3490TIP3    H110427   2.709   0.530   3.067
 3490TIP3    H210428   2.826   0.623   3.046
 3491TIP3   OH210429   1.857   1.644   3.045
 3491TIP3    H110430   1.779   1.674   2.999
 3491TIP3    H210431   1.884   1.719   3.098
 3492TIP3   OH210432   4.763   2.492   0.292
 3492TIP3    H110433   4.770   2.427   0.362
 3492TIP3    H210434   4.674   2.525   0.299
 3493TIP3   OH210435   6.024   4.672   1.381
 3493TIP3    H110436   5.941   4.689   1.336
 3493TIP3    H210437   6.090   4.714   1.327
 3494TIP3   OH210438   6.107   5.875   2.992
 3494TIP3    H110439   6.114   5.897   3.085
 3494TIP3    H210440   6.062   5.950   2.953
 3495TIP3   OH210441   2.796   3.189   6.420
 3495TIP3    H110442   2.756   3.135   6.488
 3495TIP3    H210443   2.842   3.258   6.468
 3496TIP3   OH210444   0.033   1.898   3.557
 3496TIP3    H110445   0.094   1.937   3.620
 3496TIP3    H210446   0.032   1.960   3.484
 3497TIP3   OH210447   8.190   6.197   3.594
 3497TIP3    H110448   8.172   6.152   3.511
 3497TIP3    H210449   8.272   6.243   3.579
 3498TIP3   OH210450   0.730   7.818   6.671
 3498TIP3    H110451   0.683   7.743   6.706
 3498TIP3    H210452   0.756   7.792   6.583
 3499TIP3   OH210453   7.254   4.723   0.648
 3499TIP3    H110454   7.318   4.667   0.604
 3499TIP3    H210455   7.264   4.702   0.741
 3500TIP3   OH210456   1.877   5.917   4.442
 3500TIP3    H110457   1.966   5.947   4.424
 3500TIP3    H210458   1.875   5.826   4.414
 3501TIP3   OH210459   8.118   0.716   4.540
 3501TIP3    H110460   8.209   0.736   4.562
 3501TIP3    H210461   8.067   0.760   4.608
 3502TIP3   OH210462   1.027   6.206   2.069
 3502TIP3    H110463   1.075   6.130   2.038
 3502TIP3    H210464   0.943   6.201   2.024
 3503TIP3   OH210465   0.873   5.371   2.530
 3503TIP3    H110466   0.799   5.381   2.470
 3503TIP3    H210467   0.895   5.278   2.526
 3504TIP3   OH210468   1.952   6.840   5.455
 3504TIP3    H110469   2.019   6.793   5.407
 3504TIP3    H210470   1.989   6.853   5.543
 3505TIP3   OH210471   2.418   2.113   3.834
 3505TIP3    H110472   2.440   2.020   3.836
 3505TIP3    H210473   2.333   2.118   3.879
 3506TIP3   OH210474   1.680   5.691   1.448
 3506TIP3    H110475   1.729   5.653   1.520
 3506TIP3    H210476   1.642   5.771   1.484
 3507TIP3   OH210477   4.310   1.078   3.365
 3507TIP3    H110478   4.316   1.121   3.279
 3507TIP3    H210479   4.287   1.148   3.426
 3508TIP3   OH210480   4.553   1.525   4.935
 3508TIP3    H110481   4.458   1.530   4.950
 3508TIP3    H210482   4.561   1.507   4.842
 3509TIP3   OH210483   6.186   6.971   0.023
 3509TIP3    H110484   6.090   6.976   0.024
 3509TIP3    H210485   6.206   6.899  -0.036
 3510TIP3   OH210486   4.735   6.112   5.394
 3510TIP3    H110487   4.826   6.142   5.405
 3510TIP3    H210488   4.720   6.053   5.468
 3511TIP3   OH210489   2.692   1.325   1.690
 3511TIP3    H110490   2.763   1.326   1.754
 3511TIP3    H210491   2.621   1.279   1.735
 3512TIP3   OH210492   7.585   7.813   5.384
 3512TIP3    H110493   7.622   7.777   5.304
 3512TIP3    H210494   7.621   7.759   5.454
 3513TIP3   OH210495   6.522   3.445   5.154
 3513TIP3    H110496   6.574   3.490   5.087
 3513TIP3    H210497   6.439   3.493   5.156
 3514TIP3   OH210498   6.223   3.540   6.489
 3514TIP3    H110499   6.293   3.477   6.471
 3514TIP3    H210500   6.228   3.555   6.583
 3515TIP3   OH210501   2.172   5.928   0.402
 3515TIP3    H110502   2.165   6.018   0.432
 3515TIP3    H210503   2.097   5.883   0.443
 3516TIP3   OH210504   1.191   5.058   5.991
 3516TIP3    H110505   1.234   5.095   6.068
 3516TIP3    H210506   1.112   5.111   5.980
 3517TIP3   OH210507   8.196   1.079   3.371
 3517TIP3    H110508   8.289   1.056   3.373
 3517TIP3    H210509   8.166   1.047   3.286
 3518TIP3   OH210510   7.612   4.038   6.205
 3518TIP3    H110511   7.637   4.124   6.239
 3518TIP3    H210512   7.529   4.019   6.248
 3519TIP3   OH210513   6.844   5.237   5.508
 3519TIP3    H110514   6.832   5.169   5.442
 3519TIP3    H210515   6.938   5.254   5.509
 3520TIP3   OH210516   1.388   6.953   3.641
 3520TIP3    H110517   1.386   7.028   3.582
 3520TIP3    H210518   1.355   6.880   3.587
 3521TIP3   OH210519   7.440   0.518   5.845
 3521TIP3    H110520   7.416   0.606   5.815
 3521TIP3    H210521   7.391   0.459   5.787
 3522TIP3   OH210522   0.280   4.347   0.121
 3522TIP3    H110523   0.302   4.431   0.081
 3522TIP3    H210524   0.208   4.366   0.180
 3523TIP3   OH210525   6.640   0.739   1.340
 3523TIP3    H110526   6.667   0.648   1.329
 3523TIP3    H210527   6.567   0.750   1.279
 3524TIP3   OH210528   7.095   7.806   3.492
 3524TIP3    H110529   7.035   7.844   3.556
 3524TIP3    H210530   7.117   7.720   3.528
 3525TIP3   OH210531   7.852   7.353   0.419
 3525TIP3    H110532   7.911   7.391   0.484
 3525TIP3    H210533   7.901   7.279   0.383
 3526TIP3   OH210534   6.184   5.229   6.596
 3526TIP3    H110535   6.141   5.306   6.559
 3526TIP3    H210536   6.124   5.197   6.663
 3527TIP3   OH210537   1.430   0.922   6.230
 3527TIP3    H110538   1.368   0.933   6.158
 3527TIP3    H210539   1.508   0.970   6.202
 3528TIP3   OH210540   1.973   6.599   1.113
 3528TIP3    H110541   2.015   6.626   1.031
 3528TIP3    H210542   1.880   6.593   1.091
 3529TIP3   OH210543   4.164   6.934   1.290
 3529TIP3    H110544   4.233   6.870   1.311
 3529TIP3    H210545   4.174   6.950   1.196
 3530TIP3   OH210546   7.972   5.892   6.435
 3530TIP3    H110547   7.960   5.902   6.530
 3530TIP3    H210548   7.900   5.834   6.408
 3531TIP3   OH210549   1.095   4.436   2.054
 3531TIP3    H110550   1.076   4.420   2.146
 3531TIP3    H210551   1.096   4.532   2.047
 3532TIP3   OH210552   4.677   6.953   3.042
 3532TIP3    H110553   4.655   7.024   2.982
 3532TIP3    H210554   4.605   6.950   3.105
 3533TIP3   OH210555   3.036   3.194   5.662
 3533TIP3    H110556   3.056   3.249   5.738
 3533TIP3    H210557   3.007   3.111   5.700
 3534TIP3   OH210558   1.117   7.586   6.464
 3534TIP3    H110559   1.050   7.589   6.532
 3534TIP3    H210560   1.191   7.541   6.505
 3535TIP3   OH210561   6.071   2.711   1.359
 3535TIP3    H110562   6.114   2.773   1.418
 3535TIP3    H210563   6.056   2.633   1.412
 3536TIP3   OH210564   5.217   4.481   2.333
 3536TIP3    H110565   5.136   4.449   2.294
 3536TIP3    H210566   5.260   4.530   2.262
 3537TIP3   OH210567   6.816   2.979   1.173
 3537TIP3    H110568   6.842   2.887   1.175
 3537TIP3    H210569   6.899   3.027   1.169
 3538TIP3   OH210570   6.413   1.717   3.312
 3538TIP3    H110571   6.486   1.763   3.269
 3538TIP3    H210572   6.455   1.667   3.382
 3539TIP3   OH210573   4.206   3.871   0.964
 3539TIP3    H110574   4.185   3.940   1.027
 3539TIP3    H210575   4.166   3.900   0.882
 3540TIP3   OH210576   5.536   1.203   4.757
 3540TIP3    H110577   5.598   1.170   4.692
 3540TIP3    H210578   5.584   1.272   4.802
 3541TIP3   OH210579   0.771   3.072   1.067
 3541TIP3    H110580   0.837   3.096   1.002
 3541TIP3    H210581   0.784   3.135   1.138
 3542TIP3   OH210582   8.075   5.029   0.677
 3542TIP3    H110583   8.091   5.041   0.583
 3542TIP3    H210584   8.134   5.091   0.719
 3543TIP3   OH210585   8.174   3.101   5.627
 3543TIP3    H110586   8.130   3.176   5.666
 3543TIP3    H210587   8.128   3.086   5.545
 3544TIP3   OH210588   1.626   6.803   1.830
 3544TIP3    H110589   1.649   6.756   1.750
 3544TIP3    H210590   1.588   6.736   1.887
 3545TIP3   OH210591   8.195   3.249   0.605
 3545TIP3    H110592   8.169   3.187   0.536
 3545TIP3    H210593   8.130   3.236   0.674
 3546TIP3   OH210594   6.456   2.415   4.615
 3546TIP3    H110595   6.510   2.344   4.582
 3546TIP3    H210596   6.403   2.441   4.540
 3547TIP3   OH210597   6.679   7.293   2.281
 3547TIP3    H110598   6.721   7.262   2.200
 3547TIP3    H210599   6.741   7.357   2.316
 3548TIP3   OH210600   5.265   6.037   3.656
 3548TIP3    H110601   5.190   6.012   3.603
 3548TIP3    H210602   5.339   5.990   3.616
 3549TIP3   OH210603   5.743   1.733   1.711
 3549TIP3    H110604   5.818   1.767   1.760
 3549TIP3    H210605   5.778   1.657   1.664
 3550TIP3   OH210606   3.311   5.788   3.616
 3550TIP3    H110607   3.259   5.709   3.598
 3550TIP3    H210608   3.334   5.781   3.709
 3551TIP3   OH210609   2.407   6.677   2.724
 3551TIP3    H110610   2.358   6.733   2.664
 3551TIP3    H210611   2.358   6.594   2.724
 3552TIP3   OH210612   0.813   0.402   0.246
 3552TIP3    H110613   0.781   0.477   0.196
 3552TIP3    H210614   0.745   0.335   0.234
 3553TIP3   OH210615   7.358   5.650   3.661
 3553TIP3    H110616   7.449   5.634   3.639
 3553TIP3    H210617   7.330   5.717   3.598
 3554TIP3   OH210618   4.883   2.548   6.509
 3554TIP3    H110619   4.806   2.505   6.472
 3554TIP3    H210620   4.852   2.636   6.533
 3555TIP3   OH210621   1.019   3.382   1.109
 3555TIP3    H110622   0.983   3.307   1.156
 3555TIP3    H210623   1.073   3.427   1.174
 3556TIP3   OH210624   5.882   6.175   3.413
 3556TIP3    H110625   5.896   6.123   3.334
 3556TIP3    H210626   5.832   6.251   3.383
 3557TIP3   OH210627   2.219   7.718   6.596
 3557TIP3    H110628   2.288   7.701   6.532
 3557TIP3    H210629   2.243   7.803   6.635
 3558TIP3   OH210630   7.593   0.336   6.564
 3558TIP3    H110631   7.651   0.392   6.513
 3558TIP3    H210632   7.606   0.364   6.655
 3559TIP3   OH210633   5.048   2.156   0.639
 3559TIP3    H110634   5.092   2.106   0.570
 3559TIP3    H210635   4.961   2.116   0.646
 3560TIP3   OH210636   4.377   1.369   1.291
 3560TIP3    H110637   4.299   1.323   1.322
 3560TIP3    H210638   4.383   1.446   1.347
 3561TIP3   OH210639   0.743   5.974   6.228
 3561TIP3    H110640   0.765   5.880   6.225
 3561TIP3    H210641   0.707   5.987   6.316
 3562TIP3   OH210642   7.008   4.649   3.257
 3562TIP3    H110643   6.962   4.566   3.273
 3562TIP3    H210644   7.089   4.642   3.307
 3563TIP3   OH210645   0.617   5.637   3.096
 3563TIP3    H110646   0.648   5.727   3.089
 3563TIP3    H210647   0.528   5.644   3.130
 3564TIP3   OH210648   3.230   3.735   4.962
 3564TIP3    H110649   3.280   3.756   4.883
 3564TIP3    H210650   3.296   3.714   5.028
 3565TIP3   OH210651   2.126   2.406   2.759
 3565TIP3    H110652   2.043   2.392   2.805
 3565TIP3    H210653   2.192   2.408   2.829
 3566TIP3   OH210654   0.261   0.554   6.534
 3566TIP3    H110655   0.344   0.553   6.487
 3566TIP3    H210656   0.225   0.466   6.521
 3567TIP3   OH210657   2.915   6.264   6.220
 3567TIP3    H110658   2.934   6.182   6.266
 3567TIP3    H210659   2.821   6.277   6.232
 3568TIP3   OH210660   0.868   6.815   4.929
 3568TIP3    H110661   0.889   6.807   4.836
 3568TIP3    H210662   0.827   6.732   4.952
 3569TIP3   OH210663   3.549   6.166   1.650
 3569TIP3    H110664   3.562   6.240   1.710
 3569TIP3    H210665   3.497   6.104   1.701
 3570TIP3   OH210666   3.213   1.331   4.930
 3570TIP3    H110667   3.217   1.250   4.880
 3570TIP3    H210668   3.288   1.328   4.988
 3571TIP3   OH210669   1.993   7.302   5.702
 3571TIP3    H110670   1.969   7.296   5.794
 3571TIP3    H210671   1.969   7.217   5.666
 3572TIP3   OH210672   0.897   2.105   1.993
 3572TIP3    H110673   0.980   2.058   1.983
 3572TIP3    H210674   0.834   2.055   1.941
 3573TIP3   OH210675   1.049   5.353   0.703
 3573TIP3    H110676   1.047   5.309   0.788
 3573TIP3    H210677   1.011   5.289   0.642
 3574TIP3   OH210678   7.255   1.740   2.239
 3574TIP3    H110679   7.218   1.819   2.199
 3574TIP3    H210680   7.235   1.671   2.176
 3575TIP3   OH210681   5.643   7.311   4.063
 3575TIP3    H110682   5.602   7.365   4.130
 3575TIP3    H210683   5.578   7.308   3.992
 3576TIP3   OH210684   4.223   3.236   4.908
 3576TIP3    H110685   4.206   3.317   4.956
 3576TIP3    H210686   4.144   3.184   4.921
 3577TIP3   OH210687   3.104   3.893   2.445
 3577TIP3    H110688   3.157   3.949   2.389
 3577TIP3    H210689   3.143   3.902   2.532
 3578TIP3   OH210690   2.661   3.680   1.489
 3578TIP3    H110691   2.605   3.758   1.491
 3578TIP3    H210692   2.694   3.678   1.399
 3579TIP3   OH210693   1.747   4.380   3.317
 3579TIP3    H110694   1.832   4.371   3.274
 3579TIP3    H210695   1.683   4.364   3.248
 3580TIP3   OH210696   5.106   3.943   6.359
 3580TIP3    H110697   5.182   3.889   6.384
 3580TIP3    H210698   5.119   4.025   6.407
 3581TIP3   OH210699   0.989   1.691   0.138
 3581TIP3    H110700   0.947   1.740   0.067
 3581TIP3    H210701   0.999   1.603   0.103
 3582TIP3   OH210702   6.870   2.787   5.511
 3582TIP3    H110703   6.913   2.755   5.432
 3582TIP3    H210704   6.906   2.732   5.581
 3583TIP3   OH210705   3.098   0.380   0.145
 3583TIP3    H110706   3.112   0.442   0.216
 3583TIP3    H210707   3.161   0.404   0.078
 3584TIP3   OH210708   4.615   0.058   4.308
 3584TIP3    H110709   4.690   0.113   4.332
 3584TIP3    H210710   4.554   0.068   4.381
 3585TIP3   OH210711   2.714   0.610   4.558
 3585TIP3    H110712   2.655   0.637   4.488
 3585TIP3    H210713   2.755   0.691   4.588
 3586TIP3   OH210714   0.774   2.290   5.717
 3586TIP3    H110715   0.808   2.318   5.631
 3586TIP3    H210716   0.801   2.360   5.777
 3587TIP3   OH210717   6.852   4.392   3.541
 3587TIP3    H110718   6.759   4.411   3.526
 3587TIP3    H210719   6.892   4.397   3.454
 3588TIP3   OH210720   6.989   1.813   3.793
 3588TIP3    H110721   7.067   1.870   3.796
 3588TIP3    H210722   7.022   1.726   3.813
 3589TIP3   OH210723   0.611   2.857   1.041
 3589TIP3    H110724   0.661   2.939   1.044
 3589TIP3    H210725   0.633   2.812   1.123
 3590TIP3   OH210726   1.169   2.281   4.238
 3590TIP3    H110727   1.195   2.231   4.315
 3590TIP3    H210728   1.222   2.245   4.167
 3591TIP3   OH210729   3.516   3.533   1.380
 3591TIP3    H110730   3.607   3.506   1.371
 3591TIP3    H210731   3.518   3.629   1.376
 3592TIP3   OH210732   1.171   1.318   6.673
 3592TIP3    H110733   1.215   1.345   6.592
 3592TIP3    H210734   1.208   1.376   6.740
 3593TIP3   OH210735   1.749   5.932   4.091
 3593TIP3    H110736   1.751   5.846   4.133
 3593TIP3    H210737   1.660   5.938   4.054
 3594TIP3   OH210738   4.253   6.300   2.166
 3594TIP3    H110739   4.291   6.322   2.251
 3594TIP3    H210740   4.176   6.247   2.187
 3595TIP3   OH210741   3.835   6.906   5.591
 3595TIP3    H110742   3.828   6.811   5.602
 3595TIP3    H210743   3.926   6.922   5.569
 3596TIP3   OH210744   8.187   4.077   4.364
 3596TIP3    H110745   8.210   4.165   4.333
 3596TIP3    H210746   8.242   4.065   4.441
 3597TIP3   OH210747   7.440   1.544   2.398
 3597TIP3    H110748   7.402   1.606   2.335
 3597TIP3    H210749   7.425   1.584   2.484
 3598TIP3   OH210750   1.890   0.435   2.349
 3598TIP3    H110751   1.827   0.381   2.301
 3598TIP3    H210752   1.880   0.522   2.311
 3599TIP3   OH210753   7.276   1.104   5.472
 3599TIP3    H110754   7.187   1.069   5.467
 3599TIP3    H210755   7.268   1.185   5.523
 3600TIP3   OH210756   4.076   1.754   1.645
 3600TIP3    H110757   4.055   1.746   1.738
 3600TIP3    H210758   3.998   1.721   1.600
 3601TIP3   OH210759   0.052   4.118   2.735
 3601TIP3    H110760   0.098   4.134   2.652
 3601TIP3    H210761   0.033   4.206   2.768
 3602TIP3   OH210762   2.394   1.606   5.949
 3602TIP3    H110763   2.485   1.607   5.979
 3602TIP3    H210764   2.383   1.688   5.902
 3603TIP3   OH210765   7.195   2.465   4.602
 3603TIP3    H110766   7.242   2.423   4.530
 3603TIP3    H210767   7.214   2.409   4.678
 3604TIP3   OH210768   6.498   1.087   6.170
 3604TIP3    H110769   6.559   1.026   6.210
 3604TIP3    H210770   6.553   1.156   6.132
 3605TIP3   OH210771   5.657   7.452   6.439
 3605TIP3    H110772   5.612   7.504   6.506
 3605TIP3    H210773   5.591   7.438   6.372
 3606TIP3   OH210774   7.307   1.386   2.911
 3606TIP3    H110775   7.370   1.314   2.906
 3606TIP3    H210776   7.240   1.355   2.971
 3607TIP3   OH210777   6.371   3.597   1.033
 3607TIP3    H110778   6.421   3.538   1.089
 3607TIP3    H210779   6.285   3.554   1.024
 3608TIP3   OH210780   0.788   5.529   4.481
 3608TIP3    H110781   0.787   5.535   4.385
 3608TIP3    H210782   0.808   5.437   4.499
 3609TIP3   OH210783   7.688   0.492   3.740
 3609TIP3    H110784   7.734   0.431   3.798
 3609TIP3    H210785   7.655   0.437   3.668
 3610TIP3   OH210786   1.826   3.849   1.449
 3610TIP3    H110787   1.862   3.932   1.416
 3610TIP3    H210788   1.772   3.874   1.524
 3611TIP3   OH210789   8.240   6.336   4.642
 3611TIP3    H110790   8.313   6.393   4.668
 3611TIP3    H210791   8.208   6.374   4.560
 3612TIP3   OH210792   6.862   2.760   2.241
 3612TIP3    H110793   6.827   2.690   2.187
 3612TIP3    H210794   6.951   2.773   2.209
 3613TIP3   OH210795   8.150   1.229   6.282
 3613TIP3    H110796   8.152   1.146   6.329
 3613TIP3    H210797   8.191   1.211   6.198
 3614TIP3   OH210798   8.295   1.025   6.465
 3614TIP3    H110799   8.320   0.975   6.543
 3614TIP3    H210800   8.326   0.972   6.392
 3615TIP3   OH210801   6.875   6.019   5.249
 3615TIP3    H110802   6.836   5.935   5.275
 3615TIP3    H210803   6.816   6.085   5.284
 3616TIP3   OH210804   2.396   2.694   1.722
 3616TIP3    H110805   2.336   2.650   1.782
 3616TIP3    H210806   2.459   2.738   1.779
 3617TIP3   OH210807   6.150   2.583   2.110
 3617TIP3    H110808   6.187   2.514   2.054
 3617TIP3    H210809   6.080   2.621   2.058
 3618TIP3   OH210810   2.201   4.621   5.590
 3618TIP3    H110811   2.231   4.623   5.499
 3618TIP3    H210812   2.106   4.636   5.584
 3619TIP3   OH210813   4.255   3.228   4.270
 3619TIP3    H110814   4.185   3.218   4.335
 3619TIP3    H210815   4.221   3.185   4.192
 3620TIP3   OH210816   1.922   4.145   4.455
 3620TIP3    H110817   1.871   4.169   4.377
 3620TIP3    H210818   1.868   4.079   4.498
 3621TIP3   OH210819   6.049   1.447   1.029
 3621TIP3    H110820   6.136   1.411   1.012
 3621TIP3    H210821   5.992   1.371   1.038
 3622TIP3   OH210822   7.509   2.942   1.474
 3622TIP3    H110823   7.532   3.009   1.538
 3622TIP3    H210824   7.421   2.914   1.499
 3623TIP3   OH210825   4.446   2.877   3.083
 3623TIP3    H110826   4.524   2.840   3.041
 3623TIP3    H210827   4.409   2.935   3.017
 3624TIP3   OH210828   2.591   6.910   4.166
 3624TIP3    H110829   2.664   6.851   4.183
 3624TIP3    H210830   2.539   6.866   4.098
 3625TIP3   OH210831   2.267   2.819   3.592
 3625TIP3    H110832   2.187   2.767   3.581
 3625TIP3    H210833   2.242   2.889   3.653
 3626TIP3   OH210834   5.722   7.352   2.526
 3626TIP3    H110835   5.655   7.409   2.564
 3626TIP3    H210836   5.787   7.413   2.491
 3627TIP3   OH210837   1.563   5.911   0.471
 3627TIP3    H110838   1.582   5.827   0.430
 3627TIP3    H210839   1.583   5.897   0.564
 3628TIP3   OH210840   1.963   1.050   5.291
 3628TIP3    H110841   1.908   1.036   5.367
 3628TIP3    H210842   1.961   0.967   5.243
 3629TIP3   OH210843   4.289   4.966   0.102
 3629TIP3    H110844   4.280   5.038   0.039
 3629TIP3    H210845   4.265   5.005   0.186
 3630TIP3   OH210846   3.943   0.780   2.480
 3630TIP3    H110847   3.863   0.727   2.481
 3630TIP3    H210848   3.970   0.784   2.572
 3631TIP3   OH210849   0.842   2.246   1.008
 3631TIP3    H110850   0.915   2.210   1.058
 3631TIP3    H210851   0.782   2.279   1.075
 3632TIP3   OH210852   2.125   1.776   5.745
 3632TIP3    H110853   2.153   1.763   5.655
 3632TIP3    H210854   2.205   1.805   5.791
 3633TIP3   OH210855   5.016   3.822   4.348
 3633TIP3    H110856   4.973   3.753   4.298
 3633TIP3    H210857   5.110   3.801   4.342
 3634TIP3   OH210858   3.675   6.722   0.066
 3634TIP3    H110859   3.715   6.808   0.060
 3634TIP3    H210860   3.666   6.692  -0.024
 3635TIP3   OH210861   1.343   2.783   4.539
 3635TIP3    H110862   1.314   2.766   4.628
 3635TIP3    H210863   1.326   2.701   4.492
 3636TIP3   OH210864   3.238   0.497   3.975
 3636TIP3    H110865   3.332   0.495   3.961
 3636TIP3    H210866   3.206   0.412   3.944
 3637TIP3   OH210867   6.006   7.502   3.247
 3637TIP3    H110868   6.027   7.414   3.216
 3637TIP3    H210869   5.918   7.494   3.284
 3638TIP3   OH210870   1.322   5.800   3.827
 3638TIP3    H110871   1.327   5.865   3.757
 3638TIP3    H210872   1.275   5.726   3.788
 3639TIP3   OH210873   3.194   1.683   1.873
 3639TIP3    H110874   3.284   1.712   1.856
 3639TIP3    H210875   3.173   1.721   1.958
 3640TIP3   OH210876   5.786   6.461   4.820
 3640TIP3    H110877   5.832   6.530   4.868
 3640TIP3    H210878   5.850   6.431   4.754
 3641TIP3   OH210879   2.556   7.064   6.705
 3641TIP3    H110880   2.651   7.056   6.715
 3641TIP3    H210881   2.543   7.154   6.675
 3642TIP3   OH210882   6.144   2.760   4.614
 3642TIP3    H110883   6.152   2.730   4.705
 3642TIP3    H210884   6.100   2.688   4.569
 3643TIP3   OH210885   0.012   7.597   3.711
 3643TIP3    H110886   0.079   7.661   3.687
 3643TIP3    H210887  -0.066   7.649   3.727
 3644TIP3   OH210888   1.968   1.663   1.515
 3644TIP3    H110889   1.979   1.589   1.574
 3644TIP3    H210890   2.047   1.716   1.528
 3645TIP3   OH210891   3.597   5.710   3.501
 3645TIP3    H110892   3.623   5.750   3.418
 3645TIP3    H210893   3.504   5.734   3.510
 3646TIP3   OH210894   0.885   3.620   6.277
 3646TIP3    H110895   0.884   3.550   6.342
 3646TIP3    H210896   0.796   3.657   6.282
 3647TIP3   OH210897   6.122   6.958   3.147
 3647TIP3    H110898   6.217   6.974   3.144
 3647TIP3    H210899   6.096   6.952   3.055
 3648TIP3   OH210900   5.120   6.215   3.455
 3648TIP3    H110901   5.048   6.277   3.444
 3648TIP3    H210902   5.079   6.129   3.445
 3649TIP3   OH210903   6.415   2.151   3.291
 3649TIP3    H110904   6.429   2.235   3.334
 3649TIP3    H210905   6.326   2.155   3.257
 3650TIP3   OH210906   2.614   5.070   4.827
 3650TIP3    H110907   2.639   5.144   4.772
 3650TIP3    H210908   2.653   4.994   4.785
 3651TIP3   OH210909   6.763   1.990   1.516
 3651TIP3    H110910   6.815   2.054   1.563
 3651TIP3    H210911   6.674   2.002   1.549
 3652TIP3   OH210912   1.888   2.338   4.017
 3652TIP3    H110913   1.948   2.378   4.079
 3652TIP3    H210914   1.811   2.395   4.016
 3653TIP3   OH210915   4.606   7.139   5.254
 3653TIP3    H110916   4.531   7.198   5.259
 3653TIP3    H210917   4.682   7.197   5.258
 3654TIP3   OH210918   0.718   2.269   1.571
 3654TIP3    H110919   0.655   2.280   1.499
 3654TIP3    H210920   0.718   2.353   1.616
 3655TIP3   OH210921   2.719   6.416   1.219
 3655TIP3    H110922   2.706   6.400   1.312
 3655TIP3    H210923   2.644   6.376   1.176
 3656TIP3   OH210924   2.256   5.376   6.654
 3656TIP3    H110925   2.322   5.328   6.605
 3656TIP3    H210926   2.196   5.309   6.686
 3657TIP3   OH210927   6.071   2.450   4.784
 3657TIP3    H110928   6.121   2.517   4.832
 3657TIP3    H210929   6.137   2.406   4.730
 3658TIP3   OH210930   5.384   1.730   0.059
 3658TIP3    H110931   5.358   1.643   0.091
 3658TIP3    H210932   5.468   1.747   0.102
 3659TIP3   OH210933   1.906   1.834   4.498
 3659TIP3    H110934   1.987   1.885   4.504
 3659TIP3    H210935   1.931   1.746   4.527
 3660TIP3   OH210936   2.868   5.650   1.960
 3660TIP3    H110937   2.892   5.729   1.912
 3660TIP3    H210938   2.829   5.592   1.894
 3661TIP3   OH210939   4.510   0.875   4.948
 3661TIP3    H110940   4.432   0.927   4.965
 3661TIP3    H210941   4.494   0.833   4.864
 3662TIP3   OH210942   1.486   7.106   0.541
 3662TIP3    H110943   1.530   7.170   0.597
 3662TIP3    H210944   1.393   7.126   0.550
 3663TIP3   OH210945   5.610   6.172   1.276
 3663TIP3    H110946   5.536   6.215   1.318
 3663TIP3    H210947   5.606   6.081   1.306
 3664TIP3   OH210948   0.921   3.192   1.484
 3664TIP3    H110949   0.955   3.107   1.513
 3664TIP3    H210950   0.998   3.249   1.482
 3665TIP3   OH210951   6.816   2.255   6.292
 3665TIP3    H110952   6.737   2.245   6.240
 3665TIP3    H210953   6.887   2.254   6.227
 3666TIP3   OH210954   1.563   6.312   1.042
 3666TIP3    H110955   1.474   6.302   1.011
 3666TIP3    H210956   1.577   6.406   1.047
 3667TIP3   OH210957   5.511   4.007   5.646
 3667TIP3    H110958   5.602   3.976   5.642
 3667TIP3    H210959   5.458   3.929   5.633
 3668TIP3   OH210960   4.394   7.753   5.620
 3668TIP3    H110961   4.397   7.787   5.531
 3668TIP3    H210962   4.306   7.717   5.630
 3669TIP3   OH210963   7.545   5.922   3.226
 3669TIP3    H110964   7.588   5.863   3.164
 3669TIP3    H210965   7.460   5.941   3.186
 3670TIP3   OH210966   3.815   6.501   0.195
 3670TIP3    H110967   3.770   6.573   0.151
 3670TIP3    H210968   3.898   6.539   0.224
 3671TIP3   OH210969  -0.008   4.004   0.196
 3671TIP3    H110970  -0.039   4.093   0.212
 3671TIP3    H210971   0.037   3.980   0.277
 3672TIP3   OH210972   1.727   2.913   2.948
 3672TIP3    H110973   1.784   2.983   2.980
 3672TIP3    H210974   1.737   2.843   3.013
 3673TIP3   OH210975   6.684   7.798   6.537
 3673TIP3    H110976   6.607   7.784   6.482
 3673TIP3    H210977   6.673   7.737   6.610
 3674TIP3   OH210978   7.393   1.300   4.390
 3674TIP3    H110979   7.436   1.216   4.403
 3674TIP3    H210980   7.374   1.332   4.478
 3675TIP3   OH210981   3.785   0.440   0.782
 3675TIP3    H110982   3.774   0.423   0.875
 3675TIP3    H210983   3.845   0.514   0.778
 3676TIP3   OH210984   6.754   1.536   2.051
 3676TIP3    H110985   6.836   1.524   2.099
 3676TIP3    H210986   6.687   1.499   2.109
 3677TIP3   OH210987   5.425   3.932   0.051
 3677TIP3    H110988   5.404   3.847   0.090
 3677TIP3    H210989   5.341   3.976   0.042
 3678TIP3   OH210990   0.442   2.604   6.627
 3678TIP3    H110991   0.465   2.536   6.690
 3678TIP3    H210992   0.403   2.556   6.553
 3679TIP3   OH210993   6.128   3.499   5.599
 3679TIP3    H110994   6.061   3.467   5.540
 3679TIP3    H210995   6.171   3.570   5.551
 3680TIP3   OH210996   7.953   4.054   2.712
 3680TIP3    H110997   7.878   4.074   2.768
 3680TIP3    H210998   7.979   4.139   2.677
 3681TIP3   OH210999   6.355   4.537   4.704
 3681TIP3    H111000   6.385   4.448   4.716
 3681TIP3    H211001   6.261   4.534   4.723
 3682TIP3   OH211002   4.797   6.429   2.122
 3682TIP3    H111003   4.722   6.447   2.178
 3682TIP3    H211004   4.768   6.453   2.034
 3683TIP3   OH211005   7.678   4.802   0.018
 3683TIP3    H111006   7.669   4.880  -0.037
 3683TIP3    H211007   7.670   4.729  -0.044
 3684TIP3   OH211008   2.384   5.760   2.259
 3684TIP3    H111009   2.373   5.733   2.350
 3684TIP3    H211010   2.404   5.854   2.264
 3685TIP3   OH211011   0.716   3.879   4.953
 3685TIP3    H111012   0.652   3.912   5.017
 3685TIP3    H211013   0.797   3.924   4.975
 3686TIP3   OH211014   2.186   4.325   2.391
 3686TIP3    H111015   2.156   4.235   2.379
 3686TIP3    H211016   2.182   4.364   2.303
 3687TIP3   OH211017   3.345   1.200   4.398
 3687TIP3    H111018   3.436   1.170   4.396
 3687TIP3    H211019   3.330   1.236   4.311
 3688TIP3   OH211020   0.736   2.136   4.819
 3688TIP3    H111021   0.774   2.172   4.899
 3688TIP3    H211022   0.658   2.088   4.849
 3689TIP3   OH211023   4.790   4.103   0.205
 3689TIP3    H111024   4.709   4.144   0.233
 3689TIP3    H211025   4.851   4.176   0.190
 3690TIP3   OH211026   5.147   2.788   3.761
 3690TIP3    H111027   5.204   2.859   3.790
 3690TIP3    H211028   5.193   2.752   3.685
 3691TIP3   OH211029   8.248   5.830   2.282
 3691TIP3    H111030   8.291   5.801   2.363
 3691TIP3    H211031   8.309   5.806   2.212
 3692TIP3   OH211032   1.921   7.548   1.293
 3692TIP3    H111033   1.834   7.582   1.315
 3692TIP3    H211034   1.965   7.621   1.250
 3693TIP3   OH211035   1.581   3.219   5.164
 3693TIP3    H111036   1.628   3.164   5.227
 3693TIP3    H211037   1.633   3.212   5.083
 3694TIP3   OH211038   7.740   1.340   3.122
 3694TIP3    H111039   7.670   1.393   3.159
 3694TIP3    H211040   7.708   1.314   3.036
 3695TIP3   OH211041   7.972   4.058   1.209
 3695TIP3    H111042   7.942   4.098   1.127
 3695TIP3    H211043   7.893   4.051   1.262
 3696TIP3   OH211044   0.731   7.129   1.122
 3696TIP3    H111045   0.637   7.146   1.121
 3696TIP3    H211046   0.742   7.047   1.074
 3697TIP3   OH211047   7.299   3.417   3.584
 3697TIP3    H111048   7.374   3.477   3.584
 3697TIP3    H211049   7.331   3.340   3.537
 3698TIP3   OH211050   2.330   0.382   6.756
 3698TIP3    H111051   2.296   0.377   6.666
 3698TIP3    H211052   2.422   0.409   6.745
 3699TIP3   OH211053   6.768   5.066   5.292
 3699TIP3    H111054   6.846   5.099   5.247
 3699TIP3    H211055   6.713   5.031   5.221
 3700TIP3   OH211056   2.369   6.598   3.453
 3700TIP3    H111057   2.311   6.673   3.440
 3700TIP3    H211058   2.339   6.559   3.535
 3701TIP3   OH211059   1.431   1.617   2.674
 3701TIP3    H111060   1.345   1.601   2.713
 3701TIP3    H211061   1.412   1.639   2.583
 3702TIP3   OH211062   8.023   3.000   4.578
 3702TIP3    H111063   8.082   3.074   4.591
 3702TIP3    H211064   7.940   3.028   4.617
 3703TIP3   OH211065   3.490   6.509   3.498
 3703TIP3    H111066   3.580   6.540   3.505
 3703TIP3    H211067   3.471   6.511   3.404
 3704TIP3   OH211068   1.922   7.543   0.779
 3704TIP3    H111069   1.953   7.492   0.704
 3704TIP3    H211070   1.910   7.479   0.849
 3705TIP3   OH211071   1.483   2.057   4.175
 3705TIP3    H111072   1.433   2.017   4.103
 3705TIP3    H211073   1.520   1.983   4.223
 3706TIP3   OH211074   1.216   5.202   1.741
 3706TIP3    H111075   1.140   5.169   1.692
 3706TIP3    H211076   1.211   5.297   1.732
 3707TIP3   OH211077   7.551   7.302   2.660
 3707TIP3    H111078   7.560   7.268   2.572
 3707TIP3    H211079   7.635   7.343   2.680
 3708TIP3   OH211080   0.743   2.790   5.488
 3708TIP3    H111081   0.657   2.750   5.503
 3708TIP3    H211082   0.766   2.765   5.399
 3709TIP3   OH211083   5.343   2.177   5.725
 3709TIP3    H111084   5.370   2.114   5.659
 3709TIP3    H211085   5.294   2.125   5.789
 3710TIP3   OH211086   0.392   0.539   1.111
 3710TIP3    H111087   0.380   0.503   1.199
 3710TIP3    H211088   0.307   0.526   1.069
 3711TIP3   OH211089   6.161   4.467   5.517
 3711TIP3    H111090   6.070   4.470   5.488
 3711TIP3    H211091   6.156   4.480   5.611
 3712TIP3   OH211092   3.474   5.757   5.084
 3712TIP3    H111093   3.494   5.822   5.151
 3712TIP3    H211094   3.381   5.769   5.067
 3713TIP3   OH211095   3.089   0.303   0.830
 3713TIP3    H111096   3.037   0.375   0.865
 3713TIP3    H211097   3.164   0.345   0.788
 3714TIP3   OH211098   3.141   7.499   1.233
 3714TIP3    H111099   3.089   7.494   1.153
 3714TIP3    H211100   3.227   7.467   1.208
 3715TIP3   OH211101   0.429   6.280   0.042
 3715TIP3    H111102   0.377   6.249   0.116
 3715TIP3    H211103   0.415   6.213  -0.026
 3716TIP3   OH211104   7.567   0.819   6.120
 3716TIP3    H111105   7.562   0.895   6.179
 3716TIP3    H211106   7.533   0.852   6.037
 3717TIP3   OH211107   3.228   6.947   0.185
 3717TIP3    H111108   3.310   6.919   0.225
 3717TIP3    H211109   3.225   6.902   0.100
 3718TIP3   OH211110   0.219   0.434   0.892
 3718TIP3    H111111   0.294   0.376   0.882
 3718TIP3    H211112   0.146   0.376   0.910
 3719TIP3   OH211113   0.552   1.520   5.655
 3719TIP3    H111114   0.624   1.525   5.718
 3719TIP3    H211115   0.555   1.605   5.610
 3720TIP3   OH211116   1.227   7.159   1.522
 3720TIP3    H111117   1.156   7.095   1.516
 3720TIP3    H211118   1.184   7.242   1.541
 3721TIP3   OH211119   0.418   4.050   4.492
 3721TIP3    H111120   0.396   4.060   4.399
 3721TIP3    H211121   0.435   4.139   4.522
 3722TIP3   OH211122   4.472   3.363   4.790
 3722TIP3    H111123   4.522   3.384   4.869
 3722TIP3    H211124   4.396   3.315   4.821
 3723TIP3   OH211125   1.150   6.258   2.691
 3723TIP3    H111126   1.125   6.350   2.683
 3723TIP3    H211127   1.245   6.259   2.696
 3724TIP3   OH211128   6.369   1.914   6.522
 3724TIP3    H111129   6.425   1.937   6.448
 3724TIP3    H211130   6.410   1.955   6.597
 3725TIP3   OH211131   8.058   2.790   1.094
 3725TIP3    H111132   8.074   2.792   1.188
 3725TIP3    H211133   8.118   2.856   1.058
 3726TIP3   OH211134   7.204   4.395   5.869
 3726TIP3    H111135   7.252   4.446   5.934
 3726TIP3    H211136   7.164   4.461   5.812
 3727TIP3   OH211137   7.177   2.368   6.367
 3727TIP3    H111138   7.096   2.398   6.407
 3727TIP3    H211139   7.185   2.418   6.286
 3728TIP3   OH211140   2.716   3.315   3.171
 3728TIP3    H111141   2.740   3.355   3.088
 3728TIP3    H211142   2.745   3.224   3.163
 3729TIP3   OH211143   6.844   1.304   3.060
 3729TIP3    H111144   6.919   1.362   3.053
 3729TIP3    H211145   6.845   1.275   3.152
 3730TIP3   OH211146   2.716   0.133   4.257
 3730TIP3    H111147   2.810   0.139   4.275
 3730TIP3    H211148   2.705   0.048   4.216
 3731TIP3   OH211149   7.806   0.724   4.145
 3731TIP3    H111150   7.713   0.701   4.133
 3731TIP3    H211151   7.806   0.788   4.216
 3732TIP3   OH211152   2.022   2.986   4.891
 3732TIP3    H111153   1.946   2.974   4.835
 3732TIP3    H211154   1.990   2.972   4.980
 3733TIP3   OH211155   3.810   6.720   6.365
 3733TIP3    H111156   3.718   6.714   6.341
 3733TIP3    H211157   3.850   6.772   6.296
 3734TIP3   OH211158   4.906   7.601   5.506
 3734TIP3    H111159   4.918   7.656   5.428
 3734TIP3    H211160   4.862   7.523   5.472
 3735TIP3   OH211161   5.959   6.856   3.352
 3735TIP3    H111162   5.994   6.778   3.393
 3735TIP3    H211163   6.020   6.876   3.282
 3736TIP3   OH211164   0.791   4.546   6.677
 3736TIP3    H111165   0.700   4.564   6.651
 3736TIP3    H211166   0.829   4.632   6.694
 3737TIP3   OH211167   0.259   4.891   6.390
 3737TIP3    H111168   0.164   4.896   6.396
 3737TIP3    H211169   0.288   4.982   6.388
 3738TIP3   OH211170   0.220   6.868   4.791
 3738TIP3    H111171   0.165   6.852   4.714
 3738TIP3    H211172   0.157   6.879   4.863
 3739TIP3   OH211173   2.081   7.663   2.488
 3739TIP3    H111174   2.065   7.690   2.579
 3739TIP3    H211175   2.003   7.691   2.441
 3740TIP3   OH211176   7.522   1.016   3.232
 3740TIP3    H111177   7.470   0.946   3.271
 3740TIP3    H211178   7.463   1.091   3.228
 3741TIP3   OH211179   3.543   4.232   4.018
 3741TIP3    H111180   3.546   4.146   4.061
 3741TIP3    H211181   3.635   4.259   4.013
 3742TIP3   OH211182   1.181   1.193   1.337
 3742TIP3    H111183   1.166   1.231   1.423
 3742TIP3    H211184   1.158   1.262   1.275
 3743TIP3   OH211185   2.964   0.606   0.916
 3743TIP3    H111186   2.927   0.688   0.948
 3743TIP3    H211187   3.058   0.622   0.910
 3744TIP3   OH211188   8.144   3.418   2.441
 3744TIP3    H111189   8.138   3.326   2.413
 3744TIP3    H211190   8.236   3.441   2.425
 3745TIP3   OH211191   4.559   6.191   1.393
 3745TIP3    H111192   4.557   6.234   1.307
 3745TIP3    H211193   4.611   6.112   1.379
 3746TIP3   OH211194   3.551   5.376   4.187
 3746TIP3    H111195   3.582   5.394   4.276
 3746TIP3    H211196   3.475   5.319   4.199
 3747TIP3   OH211197   1.828   3.301   3.847
 3747TIP3    H111198   1.864   3.275   3.931
 3747TIP3    H211199   1.876   3.381   3.824
 3748TIP3   OH211200   1.922   7.380   1.013
 3748TIP3    H111201   1.836   7.340   1.024
 3748TIP3    H211202   1.952   7.399   1.102
 3749TIP3   OH211203   1.342   3.723   0.797
 3749TIP3    H111204   1.249   3.742   0.808
 3749TIP3    H211205   1.345   3.632   0.770
 3750TIP3   OH211206   0.419   7.795   0.414
 3750TIP3    H111207   0.420   7.888   0.393
 3750TIP3    H211208   0.329   7.767   0.399
 3751TIP3   OH211209   7.866   3.159   1.099
 3751TIP3    H111210   7.774   3.132   1.090
 3751TIP3    H211211   7.901   3.102   1.168
 3752TIP3   OH211212   5.777   5.060   3.451
 3752TIP3    H111213   5.721   5.087   3.379
 3752TIP3    H211214   5.776   5.135   3.512
 3753TIP3   OH211215   5.792   6.928   0.396
 3753TIP3    H111216   5.753   6.980   0.467
 3753TIP3    H211217   5.742   6.953   0.318
 3754TIP3   OH211218   1.450   4.146   1.676
 3754TIP3    H111219   1.488   4.233   1.677
 3754TIP3    H211220   1.447   4.120   1.768
 3755TIP3   OH211221   4.981   0.089   2.504
 3755TIP3    H111222   5.017   0.027   2.440
 3755TIP3    H211223   5.013   0.058   2.588
 3756TIP3   OH211224   3.920   4.581   3.063
 3756TIP3    H111225   3.927   4.528   3.143
 3756TIP3    H211226   4.009   4.612   3.046
 3757TIP3   OH211227   2.110   6.183   1.251
 3757TIP3    H111228   2.168   6.149   1.182
 3757TIP3    H211229   2.032   6.213   1.205
 3758TIP3   OH211230   0.624   4.984   1.017
 3758TIP3    H111231   0.616   5.070   1.060
 3758TIP3    H211232   0.544   4.975   0.966
 3759TIP3   OH211233   7.998   5.721   6.190
 3759TIP3    H111234   7.953   5.806   6.192
 3759TIP3    H211235   7.928   5.657   6.199
 3760TIP3   OH211236   7.104   5.904   3.131
 3760TIP3    H111237   7.174   5.965   3.153
 3760TIP3    H211238   7.023   5.954   3.145
 3761TIP3   OH211239   4.172   2.294   2.738
 3761TIP3    H111240   4.192   2.348   2.662
 3761TIP3    H211241   4.076   2.292   2.741
 3762TIP3   OH211242   0.679   1.675   4.310
 3762TIP3    H111243   0.670   1.639   4.222
 3762TIP3    H211244   0.633   1.759   4.306
 3763TIP3   OH211245   1.895   6.886   0.695
 3763TIP3    H111246   1.804   6.868   0.671
 3763TIP3    H211247   1.889   6.935   0.777
 3764TIP3   OH211248   7.106   1.682   1.870
 3764TIP3    H111249   7.057   1.718   1.944
 3764TIP3    H211250   7.179   1.742   1.858
 3765TIP3   OH211251   4.006   7.557   4.541
 3765TIP3    H111252   4.037   7.476   4.501
 3765TIP3    H211253   3.925   7.577   4.496
 3766TIP3   OH211254   6.777   4.028   2.528
 3766TIP3    H111255   6.740   4.002   2.612
 3766TIP3    H211256   6.857   4.074   2.550
 3767TIP3   OH211257   6.860   1.500   3.665
 3767TIP3    H111258   6.888   1.430   3.605
 3767TIP3    H211259   6.802   1.456   3.727
 3768TIP3   OH211260   5.132   1.482   1.363
 3768TIP3    H111261   5.196   1.543   1.400
 3768TIP3    H211262   5.132   1.408   1.422
 3769TIP3   OH211263   7.962   0.928   4.651
 3769TIP3    H111264   7.978   0.894   4.739
 3769TIP3    H211265   8.009   1.011   4.649
 3770TIP3   OH211266   1.261   2.045   4.463
 3770TIP3    H111267   1.317   2.040   4.541
 3770TIP3    H211268   1.318   2.016   4.391
 3771TIP3   OH211269   6.385   0.505   3.129
 3771TIP3    H111270   6.411   0.512   3.221
 3771TIP3    H211271   6.305   0.556   3.123
 3772TIP3   OH211272   2.405   1.346   3.858
 3772TIP3    H111273   2.467   1.296   3.912
 3772TIP3    H211274   2.325   1.350   3.911
 3773TIP3   OH211275   1.475   4.762   5.126
 3773TIP3    H111276   1.419   4.737   5.200
 3773TIP3    H211277   1.419   4.815   5.070
 3774TIP3   OH211278   0.741   7.747   6.026
 3774TIP3    H111279   0.786   7.816   6.074
 3774TIP3    H211280   0.807   7.678   6.014
 3775TIP3   OH211281   0.589   4.721   1.159
 3775TIP3    H111282   0.624   4.801   1.120
 3775TIP3    H211283   0.510   4.702   1.109
 3776TIP3   OH211284   1.380   7.102   5.794
 3776TIP3    H111285   1.289   7.129   5.783
 3776TIP3    H211286   1.385   7.017   5.751
 3777TIP3   OH211287   6.408   6.224   0.505
 3777TIP3    H111288   6.443   6.259   0.423
 3777TIP3    H211289   6.441   6.134   0.508
 3778TIP3   OH211290   5.386   6.931   1.207
 3778TIP3    H111291   5.356   7.010   1.163
 3778TIP3    H211292   5.306   6.894   1.246
 3779TIP3   OH211293   4.793   7.792   1.539
 3779TIP3    H111294   4.754   7.777   1.453
 3779TIP3    H211295   4.812   7.885   1.541
 3780TIP3   OH211296   0.911   1.313   5.899
 3780TIP3    H111297   0.878   1.360   5.976
 3780TIP3    H211298   0.875   1.225   5.906
 3781TIP3   OH211299   2.002   3.322   3.544
 3781TIP3    H111300   1.997   3.353   3.634
 3781TIP3    H211301   1.960   3.390   3.492
 3782TIP3   OH211302   3.867   0.319   4.726
 3782TIP3    H111303   3.916   0.397   4.751
 3782TIP3    H211304   3.868   0.264   4.805
 3783TIP3   OH211305   3.795   5.519   0.747
 3783TIP3    H111306   3.878   5.566   0.748
 3783TIP3    H211307   3.744   5.561   0.677
 3784TIP3   OH211308   0.049   2.580   6.151
 3784TIP3    H111309   0.041   2.516   6.222
 3784TIP3    H211310   0.086   2.530   6.078
 3785TIP3   OH211311   5.664   1.976   0.746
 3785TIP3    H111312   5.595   1.919   0.711
 3785TIP3    H211313   5.739   1.918   0.758
 3786TIP3   OH211314   0.689   1.377   6.122
 3786TIP3    H111315   0.607   1.423   6.141
 3786TIP3    H211316   0.757   1.434   6.158
 3787TIP3   OH211317   1.640   3.961   5.947
 3787TIP3    H111318   1.691   3.902   6.002
 3787TIP3    H211319   1.678   4.048   5.963
 3788TIP3   OH211320   1.947   7.534   0.174
 3788TIP3    H111321   1.902   7.618   0.164
 3788TIP3    H211322   1.885   7.479   0.223
 3789TIP3   OH211323   0.844   6.691   2.792
 3789TIP3    H111324   0.779   6.711   2.724
 3789TIP3    H211325   0.812   6.737   2.870
 3790TIP3   OH211326   6.007   1.547  -0.007
 3790TIP3    H111327   6.082   1.504  -0.047
 3790TIP3    H211328   5.957   1.476   0.033
 3791TIP3   OH211329   7.580   1.664   1.604
 3791TIP3    H111330   7.505   1.629   1.557
 3791TIP3    H211331   7.652   1.604   1.584
 3792TIP3   OH211332   1.224   7.344   2.076
 3792TIP3    H111333   1.279   7.313   2.148
 3792TIP3    H211334   1.162   7.404   2.119
 3793TIP3   OH211335   0.448   5.927   4.988
 3793TIP3    H111336   0.370   5.890   5.029
 3793TIP3    H211337   0.461   6.010   5.033
 3794TIP3   OH211338   2.787   4.429   4.033
 3794TIP3    H111339   2.766   4.473   4.116
 3794TIP3    H211340   2.827   4.498   3.980
 3795TIP3   OH211341   5.570   2.176   2.204
 3795TIP3    H111342   5.538   2.266   2.201
 3795TIP3    H211343   5.575   2.149   2.112
 3796TIP3   OH211344   2.831   5.018   1.023
 3796TIP3    H111345   2.867   5.009   1.111
 3796TIP3    H211346   2.811   5.111   1.014
 3797TIP3   OH211347   0.692   4.911   1.601
 3797TIP3    H111348   0.687   4.867   1.686
 3797TIP3    H211349   0.721   4.842   1.541
 3798TIP3   OH211350   3.468   2.575   6.523
 3798TIP3    H111351   3.552   2.533   6.503
 3798TIP3    H211352   3.404   2.504   6.520
 3799TIP3   OH211353   6.273   3.828   0.554
 3799TIP3    H111354   6.295   3.920   0.541
 3799TIP3    H211355   6.281   3.814   0.648
 3800TIP3   OH211356   5.179   7.380   2.536
 3800TIP3    H111357   5.207   7.411   2.622
 3800TIP3    H211358   5.260   7.376   2.484
 3801TIP3   OH211359   6.202   1.873   5.521
 3801TIP3    H111360   6.214   1.779   5.510
 3801TIP3    H211361   6.220   1.889   5.614
 3802TIP3   OH211362   2.258   5.692   3.216
 3802TIP3    H111363   2.198   5.624   3.248
 3802TIP3    H211364   2.337   5.645   3.191
 3803TIP3   OH211365   5.281   3.514   4.192
 3803TIP3    H111366   5.285   3.592   4.247
 3803TIP3    H211367   5.276   3.547   4.102
 3804TIP3   OH211368   6.109   4.751   1.648
 3804TIP3    H111369   6.042   4.819   1.658
 3804TIP3    H211370   6.115   4.737   1.553
 3805TIP3   OH211371   6.032   5.268   2.067
 3805TIP3    H111372   5.993   5.238   2.149
 3805TIP3    H211373   6.013   5.198   2.005
 3806TIP3   OH211374   7.601   6.638   0.750
 3806TIP3    H111375   7.672   6.580   0.722
 3806TIP3    H211376   7.538   6.636   0.678
 3807TIP3   OH211377   2.000   2.545   4.265
 3807TIP3    H111378   2.062   2.591   4.321
 3807TIP3    H211379   1.995   2.597   4.185
 3808TIP3   OH211380   3.368   7.430   0.044
 3808TIP3    H111381   3.288   7.482   0.054
 3808TIP3    H211382   3.336   7.343   0.019
 3809TIP3   OH211383   7.405   6.857   5.751
 3809TIP3    H111384   7.383   6.938   5.705
 3809TIP3    H211385   7.364   6.867   5.837
 3810TIP3   OH211386   2.762   1.419   2.855
 3810TIP3    H111387   2.696   1.466   2.805
 3810TIP3    H211388   2.714   1.346   2.895
 3811TIP3   OH211389   5.925   4.176   6.185
 3811TIP3    H111390   5.867   4.220   6.248
 3811TIP3    H211391   5.918   4.229   6.105
 3812TIP3   OH211392   6.172   6.288   3.851
 3812TIP3    H111393   6.165   6.366   3.905
 3812TIP3    H211394   6.257   6.296   3.807
 3813TIP3   OH211395   2.840   7.071   6.294
 3813TIP3    H111396   2.911   7.018   6.258
 3813TIP3    H211397   2.761   7.032   6.259
 3814TIP3   OH211398   5.036   6.525   1.895
 3814TIP3    H111399   4.947   6.549   1.869
 3814TIP3    H211400   5.090   6.598   1.864
 3815TIP3   OH211401   1.728   4.851   5.246
 3815TIP3    H111402   1.753   4.942   5.229
 3815TIP3    H211403   1.664   4.831   5.178
 3816TIP3   OH211404   1.069   3.966   1.476
 3816TIP3    H111405   0.984   3.991   1.440
 3816TIP3    H211406   1.053   3.881   1.518
 3817TIP3   OH211407   3.248   0.937   1.002
 3817TIP3    H111408   3.263   0.924   1.095
 3817TIP3    H211409   3.272   0.854   0.962
 3818TIP3   OH211410   6.551   3.965   6.721
 3818TIP3    H111411   6.612   3.891   6.722
 3818TIP3    H211412   6.540   3.988   6.813
 3819TIP3   OH211413   3.172   1.836   3.839
 3819TIP3    H111414   3.077   1.842   3.849
 3819TIP3    H211415   3.187   1.747   3.807
 3820TIP3   OH211416   0.126   6.421   1.380
 3820TIP3    H111417   0.040   6.457   1.362
 3820TIP3    H211418   0.110   6.354   1.447
 3821TIP3   OH211419   0.579   5.428   2.690
 3821TIP3    H111420   0.534   5.431   2.775
 3821TIP3    H211421   0.594   5.334   2.675
 3822TIP3   OH211422   7.851   0.225   1.796
 3822TIP3    H111423   7.846   0.250   1.888
 3822TIP3    H211424   7.876   0.306   1.751
 3823TIP3   OH211425   5.223   3.110   1.442
 3823TIP3    H111426   5.286   3.175   1.411
 3823TIP3    H211427   5.189   3.146   1.524
 3824TIP3   OH211428   7.491   1.070   4.494
 3824TIP3    H111429   7.521   1.011   4.563
 3824TIP3    H211430   7.507   1.022   4.413
 3825TIP3   OH211431   7.428   3.596   0.279
 3825TIP3    H111432   7.373   3.618   0.203
 3825TIP3    H211433   7.390   3.646   0.351
 3826TIP3   OH211434   3.004   3.998   3.832
 3826TIP3    H111435   2.970   3.969   3.747
 3826TIP3    H211436   2.974   4.089   3.839
 3827TIP3   OH211437   5.341   0.104   4.669
 3827TIP3    H111438   5.272   0.068   4.725
 3827TIP3    H211439   5.422   0.077   4.712
 3828TIP3   OH211440   2.196   0.913   0.083
 3828TIP3    H111441   2.264   0.900   0.016
 3828TIP3    H211442   2.124   0.858   0.054
 3829TIP3   OH211443   7.363   2.741   4.212
 3829TIP3    H111444   7.336   2.665   4.160
 3829TIP3    H211445   7.325   2.725   4.299
 3830TIP3   OH211446   2.282   4.652   6.186
 3830TIP3    H111447   2.349   4.693   6.241
 3830TIP3    H211448   2.254   4.722   6.128
 3831TIP3   OH211449   1.060   2.757   3.323
 3831TIP3    H111450   1.020   2.789   3.242
 3831TIP3    H211451   1.054   2.661   3.315
 3832TIP3   OH211452   7.760   2.283   6.162
 3832TIP3    H111453   7.824   2.350   6.183
 3832TIP3    H211454   7.713   2.317   6.086
 3833TIP3   OH211455   5.116   5.335   1.455
 3833TIP3    H111456   5.112   5.346   1.360
 3833TIP3    H211457   5.164   5.253   1.468
 3834TIP3   OH211458   3.542   2.291   6.361
 3834TIP3    H111459   3.603   2.360   6.390
 3834TIP3    H211460   3.472   2.293   6.426
 3835TIP3   OH211461   7.361   0.799   3.880
 3835TIP3    H111462   7.423   0.730   3.904
 3835TIP3    H211463   7.329   0.773   3.793
 3836TIP3   OH211464   8.240   6.039   3.852
 3836TIP3    H111465   8.247   5.952   3.813
 3836TIP3    H211466   8.251   6.099   3.778
 3837TIP3   OH211467   7.778   7.128   6.512
 3837TIP3    H111468   7.782   7.034   6.496
 3837TIP3    H211469   7.798   7.138   6.605
 3838TIP3   OH211470   7.928   6.776   3.911
 3838TIP3    H111471   7.860   6.724   3.955
 3838TIP3    H211472   7.952   6.723   3.835
 3839TIP3   OH211473   4.723   2.595   1.184
 3839TIP3    H111474   4.749   2.573   1.273
 3839TIP3    H211475   4.658   2.529   1.161
 3840TIP3   OH211476   2.641   6.593   2.569
 3840TIP3    H111477   2.632   6.507   2.611
 3840TIP3    H211478   2.568   6.644   2.604
 3841TIP3   OH211479   7.654   6.471   4.626
 3841TIP3    H111480   7.637   6.377   4.638
 3841TIP3    H211481   7.612   6.513   4.702
 3842TIP3   OH211482   3.229   5.817   5.276
 3842TIP3    H111483   3.203   5.895   5.325
 3842TIP3    H211484   3.185   5.825   5.192
 3843TIP3   OH211485   5.834   0.057   2.095
 3843TIP3    H111486   5.844   0.118   2.022
 3843TIP3    H211487   5.896   0.088   2.161
 3844TIP3   OH211488   2.738   1.353   0.918
 3844TIP3    H111489   2.696   1.291   0.859
 3844TIP3    H211490   2.666   1.404   0.954
 3845TIP3   OH211491   5.306   4.215   0.624
 3845TIP3    H111492   5.273   4.134   0.584
 3845TIP3    H211493   5.310   4.195   0.718
 3846TIP3   OH211494   7.335   3.357   5.268
 3846TIP3    H111495   7.394   3.299   5.317
 3846TIP3    H211496   7.251   3.350   5.314
 3847TIP3   OH211497   6.671   7.430   2.840
 3847TIP3    H111498   6.743   7.453   2.899
 3847TIP3    H211499   6.710   7.430   2.752
 3848TIP3   OH211500   0.963   2.815   0.745
 3848TIP3    H111501   0.874   2.812   0.710
 3848TIP3    H211502   0.957   2.874   0.820
 3849TIP3   OH211503   8.213   7.528   5.914
 3849TIP3    H111504   8.185   7.602   5.967
 3849TIP3    H211505   8.196   7.555   5.824
 3850TIP3   OH211506   5.429   1.442   3.732
 3850TIP3    H111507   5.410   1.535   3.719
 3850TIP3    H211508   5.359   1.411   3.790
 3851TIP3   OH211509   7.466   4.439   4.674
 3851TIP3    H111510   7.451   4.410   4.584
 3851TIP3    H211511   7.453   4.534   4.671
 3852TIP3   OH211512   4.429   6.119   2.678
 3852TIP3    H111513   4.367   6.047   2.663
 3852TIP3    H211514   4.375   6.192   2.708
 3853TIP3   OH211515   6.876   0.204   0.243
 3853TIP3    H111516   6.899   0.287   0.200
 3853TIP3    H211517   6.780   0.207   0.249
 3854TIP3   OH211518   2.137   1.214   2.200
 3854TIP3    H111519   2.203   1.154   2.166
 3854TIP3    H211520   2.160   1.225   2.292
 3855TIP3   OH211521   2.261   2.555   4.547
 3855TIP3    H111522   2.289   2.612   4.619
 3855TIP3    H211523   2.195   2.498   4.585
 3856TIP3   OH211524   6.371   3.341   1.800
 3856TIP3    H111525   6.353   3.247   1.797
 3856TIP3    H211526   6.288   3.380   1.828
 3857TIP3   OH211527   5.585   7.547   2.862
 3857TIP3    H111528   5.535   7.529   2.783
 3857TIP3    H211529   5.671   7.575   2.830
 3858TIP3   OH211530   3.419   4.873   3.297
 3858TIP3    H111531   3.390   4.871   3.205
 3858TIP3    H211532   3.338   4.877   3.347
 3859TIP3   OH211533   3.878   4.097   0.245
 3859TIP3    H111534   3.832   4.180   0.255
 3859TIP3    H211535   3.970   4.119   0.260
 3860TIP3   OH211536   2.917   7.238   0.807
 3860TIP3    H111537   2.956   7.191   0.881
 3860TIP3    H211538   2.972   7.214   0.732
 3861TIP3   OH211539   7.799   3.580   5.645
 3861TIP3    H111540   7.753   3.649   5.693
 3861TIP3    H211541   7.730   3.533   5.598
 3862TIP3   OH211542   6.666   5.627   1.361
 3862TIP3    H111543   6.653   5.694   1.294
 3862TIP3    H211544   6.596   5.563   1.346
 3863TIP3   OH211545   0.730   4.634   2.045
 3863TIP3    H111546   0.810   4.634   2.097
 3863TIP3    H211547   0.684   4.555   2.071
 3864TIP3   OH211548   2.757   4.437   5.087
 3864TIP3    H111549   2.674   4.411   5.127
 3864TIP3    H211550   2.816   4.364   5.104
 3865TIP3   OH211551   5.565   2.413   0.480
 3865TIP3    H111552   5.541   2.418   0.388
 3865TIP3    H211553   5.660   2.402   0.480
 3866TIP3   OH211554   1.536   2.458   6.060
 3866TIP3    H111555   1.525   2.534   6.117
 3866TIP3    H211556   1.462   2.464   5.999
 3867TIP3   OH211557   3.727   6.683   1.805
 3867TIP3    H111558   3.788   6.695   1.878
 3867TIP3    H211559   3.723   6.768   1.763
 3868TIP3   OH211560   0.030   3.676   1.495
 3868TIP3    H111561   0.023   3.669   1.400
 3868TIP3    H211562   0.077   3.757   1.510
 3869TIP3   OH211563   6.885   4.481   0.811
 3869TIP3    H111564   6.830   4.409   0.779
 3869TIP3    H211565   6.873   4.551   0.747
 3870TIP3   OH211566   7.580   1.963   2.333
 3870TIP3    H111567   7.611   2.054   2.335
 3870TIP3    H211568   7.564   1.945   2.240
 3871TIP3   OH211569   1.910   2.856   2.176
 3871TIP3    H111570   1.985   2.798   2.169
 3871TIP3    H211571   1.946   2.939   2.207
 3872TIP3   OH211572   4.201   0.059   2.262
 3872TIP3    H111573   4.121   0.042   2.212
 3872TIP3    H211574   4.254  -0.020   2.249
 3873TIP3   OH211575   0.521   3.998   5.169
 3873TIP3    H111576   0.451   3.952   5.123
 3873TIP3    H211577   0.486   4.085   5.186
 3874TIP3   OH211578   3.766   4.560   1.477
 3874TIP3    H111579   3.694   4.513   1.436
 3874TIP3    H211580   3.726   4.639   1.515
 3875TIP3   OH211581   0.101   4.042   5.064
 3875TIP3    H111582   0.038   3.980   5.100
 3875TIP3    H211583   0.060   4.074   4.983
 3876TIP3   OH211584   7.788   2.780   1.162
 3876TIP3    H111585   7.867   2.799   1.112
 3876TIP3    H211586   7.806   2.814   1.250
 3877TIP3   OH211587   3.193   4.436   0.820
 3877TIP3    H111588   3.266   4.396   0.867
 3877TIP3    H211589   3.198   4.529   0.843
 3878TIP3   OH211590   3.406   1.125   2.620
 3878TIP3    H111591   3.330   1.084   2.662
 3878TIP3    H211592   3.438   1.188   2.684
 3879TIP3   OH211593   3.154   7.102   6.450
 3879TIP3    H111594   3.241   7.119   6.486
 3879TIP3    H211595   3.131   7.184   6.405
 3880TIP3   OH211596   8.122   3.402   4.111
 3880TIP3    H111597   8.147   3.435   4.198
 3880TIP3    H211598   8.030   3.429   4.101
 3881TIP3   OH211599   6.552   3.409   2.741
 3881TIP3    H111600   6.600   3.492   2.744
 3881TIP3    H211601   6.534   3.395   2.648
 3882TIP3   OH211602   8.115   7.037   3.879
 3882TIP3    H111603   8.186   7.002   3.826
 3882TIP3    H211604   8.044   6.974   3.868
 3883TIP3   OH211605   8.198   4.733   2.529
 3883TIP3    H111606   8.139   4.677   2.580
 3883TIP3    H211607   8.248   4.673   2.475
 3884TIP3   OH211608   5.848   3.850   2.807
 3884TIP3    H111609   5.864   3.927   2.751
 3884TIP3    H211610   5.927   3.797   2.797
 3885TIP3   OH211611   2.896   7.480   5.846
 3885TIP3    H111612   2.853   7.395   5.834
 3885TIP3    H211613   2.839   7.543   5.802
 3886TIP3   OH211614   8.243   1.556   4.947
 3886TIP3    H111615   8.240   1.649   4.924
 3886TIP3    H211616   8.206   1.512   4.871
 3887TIP3   OH211617   2.619   0.992   5.800
 3887TIP3    H111618   2.579   1.064   5.848
 3887TIP3    H211619   2.560   0.976   5.726
 3888TIP3   OH211620   7.197   2.360   6.664
 3888TIP3    H111621   7.186   2.276   6.619
 3888TIP3    H211622   7.287   2.386   6.645
 3889TIP3   OH211623   8.194   1.592   1.060
 3889TIP3    H111624   8.284   1.566   1.078
 3889TIP3    H211625   8.155   1.515   1.018
 3890TIP3   OH211626   8.207   6.837   1.693
 3890TIP3    H111627   8.297   6.861   1.669
 3890TIP3    H211628   8.212   6.812   1.785
 3891TIP3   OH211629   1.912   7.749   5.274
 3891TIP3    H111630   1.896   7.796   5.192
 3891TIP3    H211631   1.885   7.810   5.343
 3892TIP3   OH211632   3.585   4.009   4.210
 3892TIP3    H111633   3.495   4.015   4.242
 3892TIP3    H211634   3.584   3.936   4.149
 3893TIP3   OH211635   7.219   1.438   0.618
 3893TIP3    H111636   7.207   1.515   0.562
 3893TIP3    H211637   7.175   1.367   0.571
 3894TIP3   OH211638   1.611   6.681   2.983
 3894TIP3    H111639   1.675   6.651   2.918
 3894TIP3    H211640   1.656   6.752   3.030
 3895TIP3   OH211641   0.555   4.033   2.380
 3895TIP3    H111642   0.563   4.031   2.475
 3895TIP3    H211643   0.582   3.946   2.351
 3896TIP3   OH211644   3.255   0.290   5.008
 3896TIP3    H111645   3.305   0.308   4.928
 3896TIP3    H211646   3.286   0.204   5.037
 3897TIP3   OH211647   2.630   2.459   5.503
 3897TIP3    H111648   2.556   2.518   5.488
 3897TIP3    H211649   2.645   2.417   5.418
 3898TIP3   OH211650   4.541   5.087   4.350
 3898TIP3    H111651   4.631   5.080   4.317
 3898TIP3    H211652   4.533   5.177   4.381
 3899TIP3   OH211653   0.656   4.253   4.370
 3899TIP3    H111654   0.572   4.218   4.338
 3899TIP3    H211655   0.635   4.293   4.454
 3900TIP3   OH211656   5.863   1.405   3.731
 3900TIP3    H111657   5.933   1.342   3.724
 3900TIP3    H211658   5.852   1.441   3.643
 3901TIP3   OH211659   3.730   4.199   0.929
 3901TIP3    H111660   3.763   4.284   0.957
 3901TIP3    H211661   3.674   4.169   1.001
 3902TIP3   OH211662   8.041   0.353   0.418
 3902TIP3    H111663   8.077   0.412   0.485
 3902TIP3    H211664   8.089   0.376   0.338
 3903TIP3   OH211665   7.662   3.391   4.914
 3903TIP3    H111666   7.690   3.463   4.970
 3903TIP3    H211667   7.723   3.320   4.935
 3904TIP3   OH211668   7.977   3.688   0.525
 3904TIP3    H111669   7.961   3.634   0.602
 3904TIP3    H211670   8.013   3.627   0.460
 3905TIP3   OH211671   5.929   4.989   6.245
 3905TIP3    H111672   5.987   4.971   6.319
 3905TIP3    H211673   5.945   5.080   6.223
 3906TIP3   OH211674   7.966   7.069   1.334
 3906TIP3    H111675   8.055   7.038   1.317
 3906TIP3    H211676   7.952   7.051   1.427
 3907TIP3   OH211677   4.657   6.174   0.352
 3907TIP3    H111678   4.585   6.122   0.316
 3907TIP3    H211679   4.680   6.235   0.283
 3908TIP3   OH211680   0.577   1.193   6.709
 3908TIP3    H111681   0.663   1.156   6.731
 3908TIP3    H211682   0.597   1.265   6.649
 3909TIP3   OH211683   5.583   4.477   6.278
 3909TIP3    H111684   5.607   4.450   6.189
 3909TIP3    H211685   5.508   4.422   6.300
 3910TIP3   OH211686   0.279   0.657   4.495
 3910TIP3    H111687   0.189   0.633   4.473
 3910TIP3    H211688   0.292   0.623   4.584
 3911TIP3   OH211689   4.157   3.649   3.939
 3911TIP3    H111690   4.162   3.620   3.848
 3911TIP3    H211691   4.211   3.728   3.942
 3912TIP3   OH211692   1.923   5.409   6.613
 3912TIP3    H111693   1.963   5.490   6.582
 3912TIP3    H211694   1.935   5.347   6.542
 3913TIP3   OH211695   4.923   4.408   1.857
 3913TIP3    H111696   5.014   4.397   1.831
 3913TIP3    H211697   4.876   4.422   1.775
 3914TIP3   OH211698   2.501   6.359   0.514
 3914TIP3    H111699   2.495   6.269   0.544
 3914TIP3    H211700   2.436   6.366   0.445
 3915TIP3   OH211701   8.136   1.927   2.091
 3915TIP3    H111702   8.161   2.017   2.114
 3915TIP3    H211703   8.137   1.880   2.174
 3916TIP3   OH211704   5.511   6.759   6.457
 3916TIP3    H111705   5.560   6.698   6.400
 3916TIP3    H211706   5.447   6.800   6.399
 3917TIP3   OH211707   7.394   6.042   5.309
 3917TIP3    H111708   7.303   6.022   5.328
 3917TIP3    H211709   7.434   5.957   5.288
 3918TIP3   OH211710   7.584   0.639   2.811
 3918TIP3    H111711   7.532   0.685   2.746
 3918TIP3    H211712   7.669   0.625   2.768
 3919TIP3   OH211713   2.858   2.752   4.192
 3919TIP3    H111714   2.912   2.680   4.157
 3919TIP3    H211715   2.826   2.719   4.276
 3920TIP3   OH211716   1.447   4.036   0.261
 3920TIP3    H111717   1.393   4.001   0.190
 3920TIP3    H211718   1.439   3.972   0.332
 3921TIP3   OH211719   3.802   2.435   6.150
 3921TIP3    H111720   3.717   2.480   6.152
 3921TIP3    H211721   3.864   2.502   6.179
 3922TIP3   OH211722   6.946   0.685   4.715
 3922TIP3    H111723   7.015   0.687   4.781
 3922TIP3    H211724   6.981   0.628   4.646
 3923TIP3   OH211725   4.341   4.179   2.524
 3923TIP3    H111726   4.369   4.151   2.436
 3923TIP3    H211727   4.247   4.164   2.525
 3924TIP3   OH211728   8.270   7.426   4.565
 3924TIP3    H111729   8.179   7.410   4.592
 3924TIP3    H211730   8.311   7.468   4.640
 3925TIP3   OH211731   3.503   4.353   0.763
 3925TIP3    H111732   3.500   4.445   0.790
 3925TIP3    H211733   3.570   4.314   0.820
 3926TIP3   OH211734   1.036   7.625   5.640
 3926TIP3    H111735   1.002   7.539   5.616
 3926TIP3    H211736   0.978   7.687   5.596
 3927TIP3   OH211737   2.076   2.054   6.701
 3927TIP3    H111738   1.991   2.053   6.657
 3927TIP3    H211739   2.126   2.121   6.654
 3928TIP3   OH211740   5.737   2.914   5.881
 3928TIP3    H111741   5.807   2.895   5.819
 3928TIP3    H211742   5.669   2.850   5.861
 3929TIP3   OH211743   5.980   7.271   4.944
 3929TIP3    H111744   5.969   7.302   5.034
 3929TIP3    H211745   6.063   7.224   4.944
 3930TIP3   OH211746   2.579   3.858   3.934
 3930TIP3    H111747   2.535   3.833   3.852
 3930TIP3    H211748   2.526   3.818   4.003
 3931TIP3   OH211749   5.681   5.385   1.476
 3931TIP3    H111750   5.766   5.426   1.497
 3931TIP3    H211751   5.642   5.365   1.562
 3932TIP3   OH211752   5.039   4.686   4.315
 3932TIP3    H111753   5.020   4.696   4.408
 3932TIP3    H211754   5.017   4.771   4.277
 3933TIP3   OH211755   1.628   2.954   3.490
 3933TIP3    H111756   1.548   2.997   3.460
 3933TIP3    H211757   1.658   3.007   3.564
 3934TIP3   OH211758   0.937   0.684   6.290
 3934TIP3    H111759   1.023   0.667   6.329
 3934TIP3    H211760   0.955   0.744   6.217
 3935TIP3   OH211761   7.485   2.744   3.795
 3935TIP3    H111762   7.410   2.704   3.837
 3935TIP3    H211763   7.559   2.726   3.854
 3936TIP3   OH211764   4.361   0.187   5.166
 3936TIP3    H111765   4.353   0.128   5.092
 3936TIP3    H211766   4.403   0.134   5.234
 3937TIP3   OH211767   5.424   7.789   5.301
 3937TIP3    H111768   5.418   7.765   5.209
 3937TIP3    H211769   5.432   7.705   5.347
 3938TIP3   OH211770   1.257   2.275   2.033
 3938TIP3    H111771   1.185   2.337   2.033
 3938TIP3    H211772   1.291   2.277   2.123
 3939TIP3   OH211773   7.313   0.912   4.923
 3939TIP3    H111774   7.363   0.839   4.959
 3939TIP3    H211775   7.287   0.882   4.835
 3940TIP3   OH211776   3.615   3.898   2.399
 3940TIP3    H111777   3.634   3.833   2.467
 3940TIP3    H211778   3.540   3.862   2.352
 3941TIP3   OH211779   4.669   6.912   0.516
 3941TIP3    H111780   4.756   6.875   0.532
 3941TIP3    H211781   4.611   6.837   0.512
 3942TIP3   OH211782   5.370   3.657   4.704
 3942TIP3    H111783   5.419   3.739   4.711
 3942TIP3    H211784   5.422   3.594   4.753
 3943TIP3   OH211785   6.574   2.334   3.067
 3943TIP3    H111786   6.670   2.341   3.059
 3943TIP3    H211787   6.560   2.254   3.117
 3944TIP3   OH211788   3.079   4.639   6.608
 3944TIP3    H111789   3.119   4.605   6.688
 3944TIP3    H211790   3.102   4.576   6.541
 3945TIP3   OH211791   1.087   0.560   5.384
 3945TIP3    H111792   1.078   0.647   5.346
 3945TIP3    H211793   1.052   0.568   5.473
 3946TIP3   OH211794   3.064   4.600   3.583
 3946TIP3    H111795   3.155   4.629   3.591
 3946TIP3    H211796   3.023   4.631   3.664
 3947TIP3   OH211797   5.983   0.313   0.895
 3947TIP3    H111798   5.888   0.307   0.905
 3947TIP3    H211799   6.017   0.320   0.984
 3948TIP3   OH211800   2.431   3.561   1.254
 3948TIP3    H111801   2.410   3.469   1.240
 3948TIP3    H211802   2.418   3.602   1.168
 3949TIP3   OH211803   3.234   4.253   3.548
 3949TIP3    H111804   3.294   4.300   3.606
 3949TIP3    H211805   3.247   4.161   3.570
 3950TIP3   OH211806   1.103   1.594   0.570
 3950TIP3    H111807   1.177   1.547   0.532
 3950TIP3    H211808   1.076   1.540   0.644
 3951TIP3   OH211809   8.095   0.907   1.306
 3951TIP3    H111810   8.085   0.923   1.400
 3951TIP3    H211811   8.024   0.846   1.285
 3952TIP3   OH211812   5.189   3.615   6.375
 3952TIP3    H111813   5.225   3.678   6.313
 3952TIP3    H211814   5.164   3.540   6.321
 3953TIP3   OH211815   8.024   0.473   6.296
 3953TIP3    H111816   8.049   0.465   6.204
 3953TIP3    H211817   8.092   0.425   6.344
 3954TIP3   OH211818   8.088   7.397   0.039
 3954TIP3    H111819   8.100   7.484   0.000
 3954TIP3    H211820   8.126   7.337  -0.024
 3955TIP3   OH211821   5.400   1.232   1.634
 3955TIP3    H111822   5.315   1.222   1.591
 3955TIP3    H211823   5.389   1.309   1.690
 3956TIP3   OH211824   3.007   1.439   4.680
 3956TIP3    H111825   2.961   1.505   4.628
 3956TIP3    H211826   2.997   1.469   4.771
 3957TIP3   OH211827   2.840   4.363   6.567
 3957TIP3    H111828   2.808   4.374   6.477
 3957TIP3    H211829   2.797   4.283   6.598
 3958TIP3   OH211830   2.067   4.259   1.282
 3958TIP3    H111831   1.993   4.315   1.305
 3958TIP3    H211832   2.035   4.205   1.210
 3959TIP3   OH211833   6.413   0.932   0.483
 3959TIP3    H111834   6.413   1.009   0.426
 3959TIP3    H211835   6.432   0.966   0.570
 3960TIP3   OH211836   0.082   5.271   6.046
 3960TIP3    H111837   0.021   5.286   5.974
 3960TIP3    H211838   0.166   5.304   6.015
 3961TIP3   OH211839   8.152   5.451   4.534
 3961TIP3    H111840   8.091   5.383   4.506
 3961TIP3    H211841   8.191   5.483   4.453
 3962TIP3   OH211842   7.721   5.787   2.013
 3962TIP3    H111843   7.751   5.877   2.004
 3962TIP3    H211844   7.684   5.783   2.102
 3963TIP3   OH211845   2.189   7.748   1.185
 3963TIP3    H111846   2.285   7.755   1.180
 3963TIP3    H211847   2.160   7.751   1.094
 3964TIP3   OH211848   7.475   5.574   6.065
 3964TIP3    H111849   7.482   5.585   6.160
 3964TIP3    H211850   7.566   5.569   6.035
 3965TIP3   OH211851   7.733   1.008   5.281
 3965TIP3    H111852   7.802   1.041   5.223
 3965TIP3    H211853   7.769   1.018   5.369
 3966TIP3   OH211854   5.685   6.629   3.742
 3966TIP3    H111855   5.658   6.716   3.773
 3966TIP3    H211856   5.757   6.647   3.681
 3967TIP3   OH211857   7.152   2.474   3.521
 3967TIP3    H111858   7.200   2.477   3.439
 3967TIP3    H211859   7.220   2.460   3.588
 3968TIP3   OH211860   1.941   1.008   0.325
 3968TIP3    H111861   1.847   1.024   0.313
 3968TIP3    H211862   1.983   1.058   0.255
 3969TIP3   OH211863   7.793   4.653   4.024
 3969TIP3    H111864   7.825   4.676   3.937
 3969TIP3    H211865   7.853   4.584   4.054
 3970TIP3   OH211866   2.926   4.064   6.512
 3970TIP3    H111867   2.929   3.969   6.525
 3970TIP3    H211868   2.862   4.095   6.576
 3971TIP3   OH211869   4.424   0.962   2.025
 3971TIP3    H111870   4.364   1.000   1.961
 3971TIP3    H211871   4.482   1.034   2.051
 3972TIP3   OH211872   1.790   0.111   6.030
 3972TIP3    H111873   1.775   0.112   6.125
 3972TIP3    H211874   1.861   0.048   6.018
 3973TIP3   OH211875   1.192   3.238   4.142
 3973TIP3    H111876   1.184   3.333   4.139
 3973TIP3    H211877   1.245   3.221   4.220
 3974TIP3   OH211878   7.323   7.740   5.450
 3974TIP3    H111879   7.416   7.753   5.432
 3974TIP3    H211880   7.279   7.774   5.372
 3975TIP3   OH211881   4.639   7.412   3.061
 3975TIP3    H111882   4.684   7.455   2.989
 3975TIP3    H211883   4.688   7.438   3.139
 3976TIP3   OH211884   3.359   4.705   3.967
 3976TIP3    H111885   3.450   4.726   3.946
 3976TIP3    H211886   3.344   4.743   4.053
 3977TIP3   OH211887   0.444   2.260   0.428
 3977TIP3    H111888   0.443   2.356   0.433
 3977TIP3    H211889   0.357   2.234   0.459
 3978TIP3   OH211890   4.846   1.536   2.287
 3978TIP3    H111891   4.799   1.582   2.218
 3978TIP3    H211892   4.914   1.485   2.242
 3979TIP3   OH211893   7.528   1.863   3.616
 3979TIP3    H111894   7.619   1.882   3.640
 3979TIP3    H211895   7.520   1.768   3.628
 3980TIP3   OH211896   4.349   3.270   1.982
 3980TIP3    H111897   4.419   3.326   1.949
 3980TIP3    H211898   4.293   3.329   2.031
 3981TIP3   OH211899   1.942   3.735   1.214
 3981TIP3    H111900   1.933   3.764   1.305
 3981TIP3    H211901   1.863   3.768   1.170
 3982TIP3   OH211902   2.200   1.639   2.975
 3982TIP3    H111903   2.259   1.655   3.049
 3982TIP3    H211904   2.133   1.707   2.983
 3983TIP3   OH211905   5.449   2.856   0.616
 3983TIP3    H111906   5.518   2.792   0.598
 3983TIP3    H211907   5.477   2.936   0.572
 3984TIP3   OH211908   4.628   2.937   4.568
 3984TIP3    H111909   4.595   3.011   4.518
 3984TIP3    H211910   4.620   2.964   4.660
 3985TIP3   OH211911   0.082   1.201   0.549
 3985TIP3    H111912  -0.010   1.230   0.554
 3985TIP3    H211913   0.096   1.153   0.630
 3986TIP3   OH211914   3.171   6.216   0.296
 3986TIP3    H111915   3.077   6.222   0.280
 3986TIP3    H211916   3.207   6.296   0.258
 3987TIP3   OH211917   6.438   2.532   4.878
 3987TIP3    H111918   6.508   2.491   4.929
 3987TIP3    H211919   6.456   2.505   4.787
 3988TIP3   OH211920   4.088   3.441   2.596
 3988TIP3    H111921   4.104   3.426   2.503
 3988TIP3    H211922   4.006   3.394   2.613
 3989TIP3   OH211923   7.042   6.424   3.360
 3989TIP3    H111924   7.053   6.456   3.449
 3989TIP3    H211925   7.096   6.483   3.307
 3990TIP3   OH211926   4.016   7.419   0.490
 3990TIP3    H111927   4.025   7.439   0.397
 3990TIP3    H211928   4.055   7.495   0.534
 3991TIP3   OH211929   6.480   6.984   4.126
 3991TIP3    H111930   6.546   7.007   4.192
 3991TIP3    H211931   6.531   6.968   4.046
 3992TIP3   OH211932   5.147   5.089   3.685
 3992TIP3    H111933   5.199   5.028   3.633
 3992TIP3    H211934   5.088   5.032   3.736
 3993TIP3   OH211935   0.634   6.115   1.532
 3993TIP3    H111936   0.689   6.065   1.472
 3993TIP3    H211937   0.658   6.084   1.619
 3994TIP3   OH211938   4.198   1.388   0.346
 3994TIP3    H111939   4.249   1.423   0.419
 3994TIP3    H211940   4.107   1.410   0.368
 3995TIP3   OH211941   6.952   0.865   2.243
 3995TIP3    H111942   6.861   0.878   2.267
 3995TIP3    H211943   6.951   0.790   2.184
 3996TIP3   OH211944   2.028   2.061   2.547
 3996TIP3    H111945   1.989   2.121   2.484
 3996TIP3    H211946   1.969   2.064   2.622
 3997TIP3   OH211947   7.575   4.533   5.390
 3997TIP3    H111948   7.513   4.605   5.391
 3997TIP3    H211949   7.564   4.493   5.303
 3998TIP3   OH211950   3.320   1.301   5.677
 3998TIP3    H111951   3.288   1.361   5.609
 3998TIP3    H211952   3.405   1.272   5.644
 3999TIP3   OH211953   2.108   4.779   6.433
 3999TIP3    H111954   2.101   4.856   6.376
 3999TIP3    H211955   2.167   4.720   6.386
 4000TIP3   OH211956   5.883   3.238   6.296
 4000TIP3    H111957   5.850   3.176   6.361
 4000TIP3    H211958   5.872   3.193   6.212
 4001TIP3   OH211959   3.300   4.346   0.332
 4001TIP3    H111960   3.230   4.296   0.292
 4001TIP3    H211961   3.380   4.315   0.288
 4002TIP3   OH211962   5.099   3.428   6.180
 4002TIP3    H111963   5.154   3.426   6.101
 4002TIP3    H211964   5.013   3.397   6.149
 4003TIP3   OH211965   2.861   7.074   0.271
 4003TIP3    H111966   2.871   7.074   0.175
 4003TIP3    H211967   2.894   6.988   0.298
 4004TIP3   OH211968   6.587   4.343   5.799
 4004TIP3    H111969   6.498   4.316   5.820
 4004TIP3    H211970   6.633   4.343   5.883
 4005TIP3   OH211971   3.219   1.416   1.824
 4005TIP3    H111972   3.311   1.415   1.851
 4005TIP3    H211973   3.187   1.502   1.852
 4006TIP3   OH211974   2.000   3.928   3.697
 4006TIP3    H111975   2.056   3.990   3.650
 4006TIP3    H211976   2.061   3.873   3.747
 4007TIP3   OH211977   4.511   6.646   1.971
 4007TIP3    H111978   4.528   6.727   2.019
 4007TIP3    H211979   4.441   6.603   2.021
 4008TIP3   OH211980   7.337   7.060   4.024
 4008TIP3    H111981   7.278   7.000   4.071
 4008TIP3    H211982   7.389   7.003   3.968
 4009TIP3   OH211983   6.456   1.083   5.310
 4009TIP3    H111984   6.450   1.174   5.340
 4009TIP3    H211985   6.533   1.082   5.253
 4010TIP3   OH211986   3.859   3.247   0.651
 4010TIP3    H111987   3.953   3.260   0.640
 4010TIP3    H211988   3.836   3.180   0.587
 4011TIP3   OH211989   2.240   4.691   2.023
 4011TIP3    H111990   2.190   4.768   1.994
 4011TIP3    H211991   2.325   4.701   1.982
 4012TIP3   OH211992   4.511   2.296   4.902
 4012TIP3    H111993   4.455   2.373   4.903
 4012TIP3    H211994   4.450   2.222   4.911
 4013TIP3   OH211995   2.849   2.842   6.181
 4013TIP3    H111996   2.764   2.835   6.224
 4013TIP3    H211997   2.847   2.776   6.112
 4014TIP3   OH211998   4.686   5.998   4.916
 4014TIP3    H111999   4.654   6.088   4.912
 4014TIP3    H212000   4.671   5.972   5.007
 4015TIP3   OH212001   7.601   0.937   3.951
 4015TIP3    H112002   7.507   0.944   3.939
 4015TIP3    H212003   7.632   0.894   3.871
 4016TIP3   OH212004   3.184   7.666   5.884
 4016TIP3    H112005   3.219   7.670   5.794
 4016TIP3    H212006   3.105   7.720   5.882
 4017TIP3   OH212007   4.292   2.758   0.925
 4017TIP3    H112008   4.311   2.664   0.926
 4017TIP3    H212009   4.358   2.795   0.984
 4018TIP3   OH212010   5.093   5.113   6.535
 4018TIP3    H112011   5.106   5.126   6.629
 4018TIP3    H212012   5.129   5.026   6.518
 4019TIP3   OH212013   4.870   2.339   1.631
 4019TIP3    H112014   4.834   2.311   1.715
 4019TIP3    H212015   4.800   2.321   1.567
 4020TIP3   OH212016   3.952   1.269   3.198
 4020TIP3    H112017   3.966   1.350   3.149
 4020TIP3    H212018   3.955   1.297   3.290
 4021TIP3   OH212019   3.904   5.298   0.599
 4021TIP3    H112020   3.818   5.335   0.622
 4021TIP3    H212021   3.927   5.342   0.517
 4022TIP3   OH212022   2.441   7.686   5.315
 4022TIP3    H112023   2.496   7.764   5.323
 4022TIP3    H212024   2.352   7.720   5.305
 4023TIP3   OH212025   3.214   3.122   1.736
 4023TIP3    H112026   3.307   3.130   1.756
 4023TIP3    H212027   3.209   3.052   1.671
 4024TIP3   OH212028   6.932   4.573   1.072
 4024TIP3    H112029   6.926   4.551   0.979
 4024TIP3    H212030   6.891   4.499   1.117
 4025TIP3   OH212031   2.961   7.179   2.608
 4025TIP3    H112032   3.032   7.142   2.557
 4025TIP3    H212033   2.931   7.254   2.557
 4026TIP3   OH212034   0.767   3.037   6.549
 4026TIP3    H112035   0.762   3.052   6.455
 4026TIP3    H212036   0.840   2.976   6.560
 4027TIP3   OH212037   1.291   1.429   4.074
 4027TIP3    H112038   1.291   1.370   4.150
 4027TIP3    H212039   1.332   1.377   4.005
 4028TIP3   OH212040   7.908   2.810   2.077
 4028TIP3    H112041   7.992   2.799   2.033
 4028TIP3    H212042   7.851   2.742   2.041
 4029TIP3   OH212043   5.143   7.511   4.676
 4029TIP3    H112044   5.145   7.530   4.582
 4029TIP3    H212045   5.224   7.549   4.710
 4030TIP3   OH212046   3.092   2.065   3.484
 4030TIP3    H112047   3.031   2.010   3.532
 4030TIP3    H212048   3.086   2.151   3.526
 4031TIP3   OH212049   7.779   6.174   4.912
 4031TIP3    H112050   7.873   6.190   4.899
 4031TIP3    H212051   7.750   6.247   4.966
 4032TIP3   OH212052   1.924   5.295   1.179
 4032TIP3    H112053   1.994   5.233   1.158
 4032TIP3    H212054   1.925   5.299   1.275
 4033TIP3   OH212055   1.869   4.264   5.565
 4033TIP3    H112056   1.931   4.212   5.514
 4033TIP3    H212057   1.918   4.291   5.642
 4034TIP3   OH212058   6.211   5.193   4.536
 4034TIP3    H112059   6.133   5.248   4.548
 4034TIP3    H212060   6.271   5.248   4.486
 4035TIP3   OH212061   5.275   5.130   1.575
 4035TIP3    H112062   5.208   5.098   1.636
 4035TIP3    H212063   5.342   5.168   1.631
 4036TIP3   OH212064   6.428   5.972   1.138
 4036TIP3    H112065   6.491   6.028   1.184
 4036TIP3    H212066   6.342   6.005   1.163
 4037TIP3   OH212067   2.013   7.762   2.745
 4037TIP3    H112068   1.936   7.720   2.784
 4037TIP3    H212069   2.026   7.841   2.797
 4038TIP3   OH212070   6.564   2.747   3.402
 4038TIP3    H112071   6.521   2.760   3.487
 4038TIP3    H212072   6.611   2.829   3.386
 4039TIP3   OH212073   7.351   6.387   0.990
 4039TIP3    H112074   7.430   6.340   0.962
 4039TIP3    H212075   7.280   6.323   0.979
 4040TIP3   OH212076   3.734   4.256   4.646
 4040TIP3    H112077   3.670   4.254   4.574
 4040TIP3    H212078   3.801   4.193   4.620
 4041TIP3   OH212079   3.335   1.276   6.516
 4041TIP3    H112080   3.394   1.262   6.442
 4041TIP3    H212081   3.393   1.280   6.592
 4042TIP3   OH212082   7.841   1.908   4.550
 4042TIP3    H112083   7.788   1.912   4.470
 4042TIP3    H212084   7.931   1.917   4.520
 4043TIP3   OH212085   7.633   6.076   6.767
 4043TIP3    H112086   7.649   6.164   6.732
 4043TIP3    H212087   7.661   6.018   6.696
 4044TIP3   OH212088   5.770   0.236   6.163
 4044TIP3    H112089   5.802   0.151   6.192
 4044TIP3    H212090   5.840   0.298   6.186
 4045TIP3   OH212091   1.600   3.180   0.980
 4045TIP3    H112092   1.611   3.188   1.075
 4045TIP3    H212093   1.639   3.096   0.958
 4046TIP3   OH212094   2.272   1.101   4.350
 4046TIP3    H112095   2.280   1.081   4.443
 4046TIP3    H212096   2.356   1.074   4.313
 4047TIP3   OH212097   5.587   5.721   5.277
 4047TIP3    H112098   5.625   5.649   5.326
 4047TIP3    H212099   5.503   5.739   5.320
 4048TIP3   OH212100   0.751   1.078   4.227
 4048TIP3    H112101   0.661   1.084   4.194
 4048TIP3    H212102   0.755   1.143   4.297
 4049TIP3   OH212103   1.053   7.789   5.111
 4049TIP3    H112104   1.041   7.856   5.178
 4049TIP3    H212105   1.147   7.789   5.093
 4050TIP3   OH212106   0.773   7.172   2.692
 4050TIP3    H112107   0.850   7.115   2.698
 4050TIP3    H212108   0.768   7.215   2.777
 4051TIP3   OH212109   0.129   2.017   1.984
 4051TIP3    H112110   0.182   1.944   1.952
 4051TIP3    H212111   0.041   1.979   1.993
 4052TIP3   OH212112   3.138   2.821   5.750
 4052TIP3    H112113   3.152   2.741   5.802
 4052TIP3    H212114   3.069   2.867   5.797
 4053TIP3   OH212115   5.974   5.861   1.980
 4053TIP3    H112116   5.980   5.954   1.960
 4053TIP3    H212117   5.921   5.825   1.909
 4054TIP3   OH212118   7.206   3.324   1.111
 4054TIP3    H112119   7.217   3.255   1.046
 4054TIP3    H212120   7.210   3.406   1.061
 4055TIP3   OH212121   6.890   0.856   5.183
 4055TIP3    H112122   6.940   0.935   5.205
 4055TIP3    H212123   6.799   0.884   5.184
 4056TIP3   OH212124   2.795   5.648   3.491
 4056TIP3    H112125   2.873   5.692   3.457
 4056TIP3    H212126   2.826   5.564   3.524
 4057TIP3   OH212127   7.425   3.024   3.262
 4057TIP3    H112128   7.477   2.988   3.333
 4057TIP3    H212129   7.374   3.095   3.303
 4058TIP3   OH212130   0.298   2.594   5.179
 4058TIP3    H112131   0.234   2.561   5.116
 4058TIP3    H212132   0.307   2.687   5.157
 4059TIP3   OH212133   2.206   4.077   6.418
 4059TIP3    H112134   2.198   4.103   6.326
 4059TIP3    H212135   2.124   4.030   6.436
 4060TIP3   OH212136   4.205   0.951   3.676
 4060TIP3    H112137   4.242   0.869   3.642
 4060TIP3    H212138   4.116   0.953   3.639
 4061TIP3   OH212139   3.129   1.067   0.521
 4061TIP3    H112140   3.107   1.136   0.583
 4061TIP3    H212141   3.047   1.049   0.474
 4062TIP3   OH212142   4.853   4.298   5.378
 4062TIP3    H112143   4.935   4.322   5.422
 4062TIP3    H212144   4.864   4.205   5.357
 4063TIP3   OH212145   0.786   1.173   2.510
 4063TIP3    H112146   0.819   1.119   2.581
 4063TIP3    H212147   0.691   1.164   2.514
 4064TIP3   OH212148   3.414   7.471   3.168
 4064TIP3    H112149   3.367   7.520   3.236
 4064TIP3    H212150   3.500   7.454   3.207
 4065TIP3   OH212151   6.978   2.347   4.385
 4065TIP3    H112152   6.946   2.356   4.475
 4065TIP3    H212153   7.070   2.323   4.396
 4066TIP3   OH212154   4.246   5.261   3.018
 4066TIP3    H112155   4.257   5.291   2.928
 4066TIP3    H212156   4.232   5.167   3.010
 4067TIP3   OH212157   4.944   5.743   2.235
 4067TIP3    H112158   5.004   5.815   2.254
 4067TIP3    H212159   4.858   5.784   2.226
 4068TIP3   OH212160   4.372   5.656   0.164
 4068TIP3    H112161   4.277   5.649   0.155
 4068TIP3    H212162   4.393   5.741   0.127
 4069TIP3   OH212163   4.212   5.772   4.864
 4069TIP3    H112164   4.254   5.711   4.925
 4069TIP3    H212165   4.219   5.728   4.779
 4070TIP3   OH212166   1.674   0.413   6.490
 4070TIP3    H112167   1.608   0.345   6.477
 4070TIP3    H212168   1.702   0.438   6.402
 4071TIP3   OH212169   2.965   3.753   0.559
 4071TIP3    H112170   3.010   3.811   0.497
 4071TIP3    H212171   2.956   3.670   0.513
 4072TIP3   OH212172   6.778   0.726   1.898
 4072TIP3    H112173   6.722   0.803   1.890
 4072TIP3    H212174   6.803   0.706   1.807
 4073TIP3   OH212175   5.739   4.747   5.485
 4073TIP3    H112176   5.712   4.661   5.515
 4073TIP3    H212177   5.737   4.741   5.389
 4074TIP3   OH212178   5.435   1.234   2.605
 4074TIP3    H112179   5.473   1.308   2.559
 4074TIP3    H212180   5.505   1.204   2.664
 4075TIP3   OH212181   1.579   5.946   1.509
 4075TIP3    H112182   1.593   5.990   1.593
 4075TIP3    H212183   1.483   5.941   1.501
 4076TIP3   OH212184   8.047   7.756   4.235
 4076TIP3    H112185   8.003   7.826   4.187
 4076TIP3    H212186   8.119   7.729   4.178
 4077TIP3   OH212187   3.516   3.114   4.934
 4077TIP3    H112188   3.604   3.083   4.955
 4077TIP3    H212189   3.505   3.193   4.987
 4078TIP3   OH212190   3.946   0.763   0.076
 4078TIP3    H112191   3.857   0.762   0.111
 4078TIP3    H212192   4.003   0.754   0.153
 4079TIP3   OH212193   7.370   1.149   0.330
 4079TIP3    H112194   7.384   1.219   0.267
 4079TIP3    H212195   7.430   1.169   0.402
 4080TIP3   OH212196   3.905   4.195   5.947
 4080TIP3    H112197   3.879   4.266   5.888
 4080TIP3    H212198   3.838   4.195   6.015
 4081TIP3   OH212199   6.527   7.729   5.063
 4081TIP3    H112200   6.502   7.685   4.981
 4081TIP3    H212201   6.444   7.750   5.105
 4082TIP3   OH212202   4.824   6.012   1.010
 4082TIP3    H112203   4.898   6.072   0.996
 4082TIP3    H212204   4.782   6.006   0.925
 4083TIP3   OH212205   7.389   0.103   0.795
 4083TIP3    H112206   7.372   0.119   0.888
 4083TIP3    H212207   7.449   0.173   0.769
 4084TIP3   OH212208   1.769   3.047   5.733
 4084TIP3    H112209   1.807   3.131   5.759
 4084TIP3    H212210   1.779   2.991   5.810
 4085TIP3   OH212211   0.904   1.784   5.151
 4085TIP3    H112212   0.895   1.868   5.197
 4085TIP3    H212213   0.987   1.748   5.182
 4086TIP3   OH212214   3.836   7.789   5.167
 4086TIP3    H112215   3.883   7.721   5.215
 4086TIP3    H212216   3.892   7.808   5.092
 4087TIP3   OH212217   2.338   5.419   5.084
 4087TIP3    H112218   2.376   5.342   5.042
 4087TIP3    H212219   2.357   5.407   5.177
 4088TIP3   OH212220   1.357   0.421   1.724
 4088TIP3    H112221   1.363   0.499   1.668
 4088TIP3    H212222   1.448   0.393   1.735
 4089TIP3   OH212223   3.893   4.792   1.285
 4089TIP3    H112224   3.874   4.733   1.358
 4089TIP3    H212225   3.931   4.870   1.327
 4090TIP3   OH212226   4.474   6.418   6.079
 4090TIP3    H112227   4.453   6.474   6.005
 4090TIP3    H212228   4.423   6.454   6.152
 4091TIP3   OH212229   2.373   2.947   6.580
 4091TIP3    H112230   2.337   3.027   6.618
 4091TIP3    H212231   2.466   2.951   6.598
 4092TIP3   OH212232   0.172   6.227   0.231
 4092TIP3    H112233   0.104   6.257   0.292
 4092TIP3    H212234   0.253   6.233   0.280
 4093TIP3   OH212235   6.190   6.287   0.678
 4093TIP3    H112236   6.225   6.270   0.766
 4093TIP3    H212237   6.263   6.267   0.619
 4094TIP3   OH212238   2.043   4.103   2.287
 4094TIP3    H112239   2.130   4.068   2.269
 4094TIP3    H212240   2.008   4.125   2.200
 4095TIP3   OH212241   0.896   2.687   0.426
 4095TIP3    H112242   0.913   2.603   0.470
 4095TIP3    H212243   0.978   2.707   0.381
 4096TIP3   OH212244   5.920   1.038   5.432
 4096TIP3    H112245   5.900   1.064   5.342
 4096TIP3    H212246   6.006   1.077   5.449
 4097TIP3   OH212247   4.865   3.920   1.728
 4097TIP3    H112248   4.883   3.974   1.805
 4097TIP3    H212249   4.950   3.909   1.687
 4098TIP3   OH212250   3.129   3.918   3.536
 4098TIP3    H112251   3.190   3.929   3.609
 4098TIP3    H212252   3.119   3.823   3.528
 4099TIP3   OH212253   5.773   4.508   4.514
 4099TIP3    H112254   5.694   4.554   4.485
 4099TIP3    H212255   5.834   4.515   4.441
 4100TIP3   OH212256   0.276   3.870   3.935
 4100TIP3    H112257   0.232   3.799   3.888
 4100TIP3    H212258   0.225   3.881   4.015
 4101TIP3   OH212259   1.092   1.179   0.779
 4101TIP3    H112260   1.091   1.268   0.814
 4101TIP3    H212261   1.104   1.191   0.685
 4102TIP3   OH212262   3.814   5.596   4.216
 4102TIP3    H112263   3.784   5.597   4.307
 4102TIP3    H212264   3.910   5.598   4.223
 4103TIP3   OH212265   7.418   3.391   1.309
 4103TIP3    H112266   7.324   3.377   1.316
 4103TIP3    H212267   7.448   3.322   1.250
 4104TIP3   OH212268   4.365   5.389   1.429
 4104TIP3    H112269   4.302   5.449   1.389
 4104TIP3    H212270   4.403   5.341   1.356
 4105TIP3   OH212271   6.128   5.479   0.067
 4105TIP3    H112272   6.086   5.460   0.151
 4105TIP3    H212273   6.180   5.557   0.084
 4106TIP3   OH212274   0.443   5.269   0.571
 4106TIP3    H112275   0.463   5.358   0.599
 4106TIP3    H212276   0.503   5.253   0.498
 4107TIP3   OH212277   6.775   3.009   5.817
 4107TIP3    H112278   6.744   2.939   5.875
 4107TIP3    H212279   6.697   3.038   5.771
 4108TIP3   OH212280   3.711   5.822   2.431
 4108TIP3    H112281   3.715   5.776   2.348
 4108TIP3    H212282   3.799   5.812   2.468
 4109TIP3   OH212283   6.211   4.221   2.577
 4109TIP3    H112284   6.283   4.273   2.614
 4109TIP3    H212285   6.138   4.283   2.572
 4110TIP3   OH212286   7.192   5.376   0.803
 4110TIP3    H112287   7.181   5.312   0.733
 4110TIP3    H212288   7.117   5.360   0.861
 4111TIP3   OH212289   5.605   7.062   3.517
 4111TIP3    H112290   5.618   7.026   3.429
 4111TIP3    H212291   5.689   7.102   3.539
 4112TIP3   OH212292   6.742   1.722   0.889
 4112TIP3    H112293   6.794   1.730   0.969
 4112TIP3    H212294   6.789   1.773   0.823
 4113TIP3   OH212295   4.076   4.389   0.478
 4113TIP3    H112296   4.155   4.396   0.532
 4113TIP3    H212297   4.101   4.328   0.408
 4114TIP3   OH212298   0.581   7.549   1.244
 4114TIP3    H112299   0.510   7.561   1.307
 4114TIP3    H212300   0.577   7.627   1.187
 4115TIP3   OH212301   7.985   2.985   4.063
 4115TIP3    H112302   7.896   2.973   4.029
 4115TIP3    H212303   8.042   2.965   3.990
 4116TIP3   OH212304   6.504   0.017   6.720
 4116TIP3    H112305   6.575  -0.033   6.761
 4116TIP3    H212306   6.470   0.073   6.790
 4117TIP3   OH212307   0.618   1.909   2.069
 4117TIP3    H112308   0.529   1.874   2.077
 4117TIP3    H212309   0.618   1.985   2.128
 4118TIP3   OH212310   7.718   1.115   5.930
 4118TIP3    H112311   7.776   1.175   5.977
 4118TIP3    H212312   7.715   1.148   5.841
 4119TIP3   OH212313   0.475   4.725   2.041
 4119TIP3    H112314   0.465   4.759   1.952
 4119TIP3    H212315   0.570   4.730   2.058
 4120TIP3   OH212316   4.288   3.722   2.104
 4120TIP3    H112317   4.243   3.745   2.185
 4120TIP3    H212318   4.353   3.657   2.130
 4121TIP3   OH212319   0.697   0.524   5.778
 4121TIP3    H112320   0.706   0.580   5.855
 4121TIP3    H212321   0.677   0.437   5.814
 4122TIP3   OH212322   5.259   3.421   1.249
 4122TIP3    H112323   5.236   3.476   1.174
 4122TIP3    H212324   5.337   3.374   1.221
 4123TIP3   OH212325   1.254   2.204   3.993
 4123TIP3    H112326   1.249   2.108   3.997
 4123TIP3    H212327   1.224   2.226   3.905
 4124TIP3   OH212328   3.905   2.702   4.962
 4124TIP3    H112329   3.966   2.651   4.909
 4124TIP3    H212330   3.956   2.778   4.990
 4125TIP3   OH212331   5.008   1.504   5.024
 4125TIP3    H112332   5.050   1.495   5.110
 4125TIP3    H212333   5.042   1.430   4.974
 4126TIP3   OH212334   2.903   3.523   2.555
 4126TIP3    H112335   2.860   3.584   2.616
 4126TIP3    H212336   2.996   3.532   2.575
 4127TIP3   OH212337   1.229   2.656   0.074
 4127TIP3    H112338   1.225   2.561   0.065
 4127TIP3    H212339   1.205   2.689  -0.013
 4128TIP3   OH212340   4.144   6.882   0.983
 4128TIP3    H112341   4.093   6.951   0.941
 4128TIP3    H212342   4.080   6.828   1.029
 4129TIP3   OH212343   1.140   3.115   2.969
 4129TIP3    H112344   1.192   3.041   2.937
 4129TIP3    H212345   1.147   3.110   3.065
 4130TIP3   OH212346   4.804   0.391   4.218
 4130TIP3    H112347   4.839   0.317   4.168
 4130TIP3    H212348   4.742   0.433   4.158
 4131TIP3   OH212349   5.671   1.037   0.360
 4131TIP3    H112350   5.665   1.054   0.266
 4131TIP3    H212351   5.659   0.943   0.368
 4132TIP3   OH212352   4.226   0.821   3.288
 4132TIP3    H112353   4.185   0.818   3.202
 4132TIP3    H212354   4.244   0.914   3.303
 4133TIP3   OH212355   0.309   5.012   4.972
 4133TIP3    H112356   0.259   5.072   4.916
 4133TIP3    H212357   0.317   4.932   4.919
 4134TIP3   OH212358   2.439   0.032   0.793
 4134TIP3    H112359   2.418   0.031   0.887
 4134TIP3    H212360   2.472   0.121   0.777
 4135TIP3   OH212361   7.579   2.462   0.514
 4135TIP3    H112362   7.628   2.399   0.567
 4135TIP3    H212363   7.586   2.427   0.425
 4136TIP3   OH212364   6.837   6.040   6.323
 4136TIP3    H112365   6.902   6.032   6.253
 4136TIP3    H212366   6.878   6.097   6.388
 4137TIP3   OH212367   1.622   4.092   0.554
 4137TIP3    H112368   1.664   4.029   0.496
 4137TIP3    H212369   1.543   4.049   0.585
 4138TIP3   OH212370   0.253   0.365   2.634
 4138TIP3    H112371   0.201   0.285   2.623
 4138TIP3    H212372   0.342   0.334   2.652
 4139TIP3   OH212373   2.927   4.215   2.673
 4139TIP3    H112374   2.957   4.269   2.745
 4139TIP3    H212375   2.956   4.261   2.594
 4140TIP3   OH212376   4.320   3.187   6.648
 4140TIP3    H112377   4.257   3.188   6.576
 4140TIP3    H212378   4.278   3.239   6.716
 4141TIP3   OH212379   8.098   0.169   3.480
 4141TIP3    H112380   8.078   0.208   3.565
 4141TIP3    H212381   8.162   0.228   3.441
 4142TIP3   OH212382   2.856   0.389   5.942
 4142TIP3    H112383   2.872   0.341   6.023
 4142TIP3    H212384   2.823   0.323   5.881
 4143TIP3   OH212385   7.169   3.250   6.514
 4143TIP3    H112386   7.200   3.280   6.428
 4143TIP3    H212387   7.168   3.155   6.507
 4144TIP3   OH212388   7.756   3.060   3.302
 4144TIP3    H112389   7.755   2.989   3.367
 4144TIP3    H212390   7.832   3.042   3.247
 4145TIP3   OH212391   0.583   3.397   3.802
 4145TIP3    H112392   0.562   3.481   3.761
 4145TIP3    H212393   0.669   3.374   3.767
 4146TIP3   OH212394  -0.008   1.562   0.456
 4146TIP3    H112395  -0.020   1.602   0.370
 4146TIP3    H212396   0.072   1.601   0.490
 4147TIP3   OH212397   6.384   1.191   3.753
 4147TIP3    H112398   6.389   1.121   3.687
 4147TIP3    H212399   6.426   1.153   3.830
 4148TIP3   OH212400   2.240   5.806   5.782
 4148TIP3    H112401   2.329   5.803   5.747
 4148TIP3    H212402   2.248   5.859   5.861
 4149TIP3   OH212403   3.516   7.484   6.715
 4149TIP3    H112404   3.508   7.456   6.806
 4149TIP3    H212405   3.572   7.419   6.674
 4150TIP3   OH212406   6.800   1.112   5.796
 4150TIP3    H112407   6.720   1.060   5.797
 4150TIP3    H212408   6.773   1.200   5.822
 4151TIP3   OH212409   1.016   5.403   6.142
 4151TIP3    H112410   0.982   5.476   6.090
 4151TIP3    H212411   1.109   5.421   6.149
 4152TIP3   OH212412   1.881   0.531   5.258
 4152TIP3    H112413   1.802   0.487   5.230
 4152TIP3    H212414   1.951   0.468   5.242
 4153TIP3   OH212415   3.032   4.436   6.251
 4153TIP3    H112416   2.999   4.346   6.255
 4153TIP3    H212417   3.066   4.452   6.339
 4154TIP3   OH212418   4.409   5.893   3.552
 4154TIP3    H112419   4.496   5.853   3.562
 4154TIP3    H212420   4.350   5.834   3.599
 4155TIP3   OH212421   3.491   2.021   0.119
 4155TIP3    H112422   3.473   1.982   0.204
 4155TIP3    H212423   3.433   2.098   0.116
 4156TIP3   OH212424   2.917   1.787   3.933
 4156TIP3    H112425   2.842   1.829   3.892
 4156TIP3    H212426   2.893   1.695   3.940
 4157TIP3   OH212427   0.976   0.940   6.649
 4157TIP3    H112428   1.003   0.986   6.729
 4157TIP3    H212429   1.005   0.996   6.578
 4158TIP3   OH212430   0.081   0.032   2.228
 4158TIP3    H112431   0.155   0.058   2.173
 4158TIP3    H212432   0.031   0.113   2.240
 4159TIP3   OH212433   6.027   1.126   3.698
 4159TIP3    H112434   6.069   1.061   3.753
 4159TIP3    H212435   5.938   1.093   3.685
 4160TIP3   OH212436   0.719   2.067   0.203
 4160TIP3    H112437   0.746   2.155   0.179
 4160TIP3    H212438   0.738   2.060   0.297
 4161TIP3   OH212439   1.358   4.343   2.328
 4161TIP3    H112440   1.264   4.325   2.321
 4161TIP3    H212441   1.381   4.380   2.243
 4162TIP3   OH212442   7.835   0.318   0.021
 4162TIP3    H112443   7.894   0.389  -0.006
 4162TIP3    H212444   7.881   0.275   0.094
 4163TIP3   OH212445   3.470   5.788   4.780
 4163TIP3    H112446   3.463   5.810   4.873
 4163TIP3    H212447   3.388   5.742   4.760
 4164TIP3   OH212448   0.319   4.155   4.826
 4164TIP3    H112449   0.342   4.198   4.908
 4164TIP3    H212450   0.328   4.224   4.760
 4165TIP3   OH212451   5.951   2.958   2.619
 4165TIP3    H112452   5.881   2.965   2.683
 4165TIP3    H212453   5.909   2.979   2.535
 4166TIP3   OH212454   3.840   5.170   2.086
 4166TIP3    H112455   3.925   5.213   2.079
 4166TIP3    H212456   3.859   5.077   2.079
 4167TIP3   OH212457   7.214   3.915   3.226
 4167TIP3    H112458   7.168   3.853   3.282
 4167TIP3    H212459   7.299   3.927   3.269
 4168TIP3   OH212460   5.225   2.092   0.834
 4168TIP3    H112461   5.201   2.155   0.902
 4168TIP3    H212462   5.163   2.108   0.763
 4169TIP3   OH212463   3.111   3.175   2.040
 4169TIP3    H112464   3.185   3.175   2.100
 4169TIP3    H212465   3.149   3.156   1.954
 4170TIP3   OH212466   5.836   7.699   5.974
 4170TIP3    H112467   5.831   7.636   6.046
 4170TIP3    H212468   5.872   7.649   5.901
 4171TIP3   OH212469   5.960   3.462   5.824
 4171TIP3    H112470   6.025   3.489   5.759
 4171TIP3    H212471   6.010   3.411   5.888
 4172TIP3   OH212472   5.180   6.586   3.305
 4172TIP3    H112473   5.142   6.663   3.263
 4172TIP3    H212474   5.137   6.512   3.262
 4173TIP3   OH212475   4.957   6.503   3.504
 4173TIP3    H112476   4.872   6.509   3.547
 4173TIP3    H212477   4.972   6.589   3.467
 4174TIP3   OH212478   3.001   2.975   5.989
 4174TIP3    H112479   2.962   2.927   6.062
 4174TIP3    H212480   2.929   2.987   5.927
 4175TIP3   OH212481   8.098   2.013   3.752
 4175TIP3    H112482   8.084   2.067   3.674
 4175TIP3    H212483   8.193   2.017   3.767
 4176TIP3   OH212484   6.595   7.630   0.432
 4176TIP3    H112485   6.505   7.628   0.464
 4176TIP3    H212486   6.589   7.598   0.342
 4177TIP3   OH212487   3.202   5.069   1.351
 4177TIP3    H112488   3.220   5.162   1.359
 4177TIP3    H212489   3.252   5.029   1.422
 4178TIP3   OH212490   0.266   2.257   3.295
 4178TIP3    H112491   0.292   2.292   3.380
 4178TIP3    H212492   0.323   2.302   3.232
 4179TIP3   OH212493   1.506   4.775   3.690
 4179TIP3    H112494   1.420   4.737   3.709
 4179TIP3    H212495   1.556   4.763   3.770
 4180TIP3   OH212496   5.610   5.615   6.592
 4180TIP3    H112497   5.616   5.519   6.594
 4180TIP3    H212498   5.523   5.633   6.557
 4181TIP3   OH212499   0.341   0.580   6.798
 4181TIP3    H112500   0.330   0.584   6.703
 4181TIP3    H212501   0.395   0.502   6.813
 4182TIP3   OH212502   7.676   5.118   0.210
 4182TIP3    H112503   7.612   5.185   0.230
 4182TIP3    H212504   7.678   5.062   0.287
 4183TIP3   OH212505   5.119   7.830   3.476
 4183TIP3    H112506   5.170   7.775   3.418
 4183TIP3    H212507   5.177   7.902   3.499
 4184TIP3   OH212508   6.324   0.201   6.555
 4184TIP3    H112509   6.244   0.232   6.598
 4184TIP3    H212510   6.343   0.268   6.489
 4185TIP3   OH212511   3.061   4.825   1.440
 4185TIP3    H112512   3.118   4.768   1.388
 4185TIP3    H212513   3.079   4.801   1.530
 4186TIP3   OH212514   3.338   7.420   1.738
 4186TIP3    H112515   3.364   7.342   1.690
 4186TIP3    H212516   3.254   7.444   1.699
 4187TIP3   OH212517   3.240   0.106   6.497
 4187TIP3    H112518   3.313   0.053   6.466
 4187TIP3    H212519   3.263   0.196   6.471
 4188TIP3   OH212520   2.514   0.409   1.388
 4188TIP3    H112521   2.584   0.469   1.366
 4188TIP3    H212522   2.443   0.431   1.327
 4189TIP3   OH212523   5.401   3.747   0.846
 4189TIP3    H112524   5.417   3.804   0.771
 4189TIP3    H212525   5.439   3.663   0.822
 4190TIP3   OH212526   7.757   4.081   2.090
 4190TIP3    H112527   7.757   4.124   2.004
 4190TIP3    H212528   7.807   4.139   2.146
 4191TIP3   OH212529   3.488   5.145   6.766
 4191TIP3    H112530   3.405   5.107   6.794
 4191TIP3    H212531   3.534   5.166   6.847
 4192TIP3   OH212532   2.996   4.182   2.180
 4192TIP3    H112533   2.953   4.114   2.233
 4192TIP3    H212534   3.060   4.134   2.127
 4193TIP3   OH212535   5.893   1.562   6.589
 4193TIP3    H112536   5.926   1.610   6.665
 4193TIP3    H212537   5.947   1.592   6.516
 4194TIP3   OH212538   4.651   3.664   2.604
 4194TIP3    H112539   4.728   3.611   2.580
 4194TIP3    H212540   4.688   3.740   2.649
 4195TIP3   OH212541   0.517   2.022   3.992
 4195TIP3    H112542   0.523   2.008   3.897
 4195TIP3    H212543   0.467   2.103   4.001
 4196TIP3   OH212544   3.807   2.148   3.390
 4196TIP3    H112545   3.839   2.218   3.333
 4196TIP3    H212546   3.713   2.147   3.377
 4197TIP3   OH212547   3.410   0.312   4.786
 4197TIP3    H112548   3.404   0.373   4.713
 4197TIP3    H212549   3.444   0.231   4.748
 4198TIP3   OH212550   7.311   0.355   0.287
 4198TIP3    H112551   7.376   0.321   0.226
 4198TIP3    H212552   7.247   0.400   0.232
 4199TIP3   OH212553   6.554   5.830   5.396
 4199TIP3    H112554   6.607   5.886   5.453
 4199TIP3    H212555   6.506   5.892   5.341
 4200TIP3   OH212556   7.735   5.855   6.278
 4200TIP3    H112557   7.670   5.790   6.306
 4200TIP3    H212558   7.723   5.862   6.183
 4201TIP3   OH212559   5.096   5.574   6.006
 4201TIP3    H112560   5.140   5.521   5.940
 4201TIP3    H212561   5.123   5.537   6.090
 4202TIP3   OH212562   5.486   6.719   6.038
 4202TIP3    H112563   5.473   6.727   5.944
 4202TIP3    H212564   5.568   6.766   6.055
 4203TIP3   OH212565   5.354   7.113   6.278
 4203TIP3    H112566   5.361   7.047   6.210
 4203TIP3    H212567   5.405   7.187   6.245
 4204TIP3   OH212568   6.174   0.911   6.035
 4204TIP3    H112569   6.117   0.925   6.111
 4204TIP3    H212570   6.160   0.819   6.011
 4205TIP3   OH212571   2.689   3.226   1.571
 4205TIP3    H112572   2.686   3.233   1.667
 4205TIP3    H212573   2.780   3.243   1.549
 4206TIP3   OH212574   7.404   5.458   6.516
 4206TIP3    H112575   7.320   5.420   6.492
 4206TIP3    H212576   7.383   5.548   6.541
 4207TIP3   OH212577   5.882   4.866   0.172
 4207TIP3    H112578   5.800   4.906   0.200
 4207TIP3    H212579   5.869   4.848   0.079
 4208TIP3   OH212580   7.249   7.604   3.627
 4208TIP3    H112581   7.218   7.542   3.693
 4208TIP3    H212582   7.295   7.671   3.676
 4209TIP3   OH212583   4.995   7.045   3.322
 4209TIP3    H112584   4.962   7.122   3.275
 4209TIP3    H212585   4.974   6.972   3.265
 4210TIP3   OH212586   2.170   1.675   2.320
 4210TIP3    H112587   2.119   1.686   2.400
 4210TIP3    H212588   2.125   1.604   2.273
 4211TIP3   OH212589   5.705   1.079   0.061
 4211TIP3    H112590   5.637   1.017   0.035
 4211TIP3    H212591   5.771   1.074  -0.008
 4212TIP3   OH212592   2.415   4.152   1.803
 4212TIP3    H112593   2.347   4.087   1.817
 4212TIP3    H212594   2.372   4.222   1.754
 4213TIP3   OH212595   4.943   6.811   3.460
 4213TIP3    H112596   4.897   6.800   3.377
 4213TIP3    H212597   5.010   6.877   3.443
 4214TIP3   OH212598   6.401   5.833   6.108
 4214TIP3    H112599   6.446   5.897   6.164
 4214TIP3    H212600   6.311   5.831   6.140
 4215TIP3   OH212601   1.844   5.605   1.643
 4215TIP3    H112602   1.897   5.641   1.713
 4215TIP3    H212603   1.762   5.580   1.685
 4216TIP3   OH212604   2.370   5.312   1.924
 4216TIP3    H112605   2.281   5.277   1.929
 4216TIP3    H212606   2.413   5.280   2.004
 4217TIP3   OH212607   5.674   2.771   2.673
 4217TIP3    H112608   5.683   2.682   2.707
 4217TIP3    H212609   5.692   2.764   2.580
 4218TIP3   OH212610   8.125   2.704   4.955
 4218TIP3    H112611   8.165   2.630   5.001
 4218TIP3    H212612   8.113   2.674   4.866
 4219TIP3   OH212613   6.915   4.551   2.028
 4219TIP3    H112614   6.863   4.493   2.083
 4219TIP3    H212615   7.006   4.529   2.048
 4220TIP3   OH212616   3.221   6.741   2.046
 4220TIP3    H112617   3.202   6.833   2.063
 4220TIP3    H212618   3.137   6.703   2.022
 4221TIP3   OH212619   3.221   4.859   5.548
 4221TIP3    H112620   3.316   4.854   5.549
 4221TIP3    H212621   3.197   4.833   5.459
 4222TIP3   OH212622   7.737   5.793   2.474
 4222TIP3    H112623   7.796   5.856   2.434
 4222TIP3    H212624   7.794   5.726   2.511
 4223TIP3   OH212625   2.929   7.257   0.441
 4223TIP3    H112626   2.893   7.320   0.379
 4223TIP3    H212627   2.915   7.172   0.400
 4224TIP3   OH212628   0.138   7.280   5.266
 4224TIP3    H112629   0.085   7.208   5.302
 4224TIP3    H212630   0.219   7.278   5.318
 4225TIP3   OH212631   6.165   2.890   6.542
 4225TIP3    H112632   6.094   2.852   6.593
 4225TIP3    H212633   6.219   2.815   6.516
 4226TIP3   OH212634   2.302   4.922   4.304
 4226TIP3    H112635   2.371   4.972   4.348
 4226TIP3    H212636   2.313   4.941   4.211
 4227TIP3   OH212637   4.731   2.414   0.913
 4227TIP3    H112638   4.726   2.510   0.904
 4227TIP3    H212639   4.734   2.398   1.007
 4228TIP3   OH212640   6.756   5.569   5.761
 4228TIP3    H112641   6.837   5.541   5.719
 4228TIP3    H212642   6.759   5.664   5.757
 4229TIP3   OH212643   5.872   3.950   3.061
 4229TIP3    H112644   5.931   3.901   3.118
 4229TIP3    H212645   5.878   3.905   2.977
 4230TIP3   OH212646   8.222   1.660   3.733
 4230TIP3    H112647   8.126   1.655   3.736
 4230TIP3    H212648   8.240   1.751   3.710
 4231TIP3   OH212649   8.238   7.596   3.399
 4231TIP3    H112650   8.322   7.643   3.393
 4231TIP3    H212651   8.216   7.598   3.492
 4232TIP3   OH212652   5.857   5.344   3.983
 4232TIP3    H112653   5.943   5.309   3.957
 4232TIP3    H212654   5.877   5.421   4.035
 4233TIP3   OH212655   2.920   2.829   0.177
 4233TIP3    H112656   2.947   2.778   0.254
 4233TIP3    H212657   2.828   2.804   0.164
 4234TIP3   OH212658   7.031   6.288   2.707
 4234TIP3    H112659   7.124   6.310   2.708
 4234TIP3    H212660   7.017   6.240   2.789
 4235TIP3   OH212661   1.669   5.625   1.179
 4235TIP3    H112662   1.581   5.630   1.140
 4235TIP3    H212663   1.665   5.682   1.256
 4236TIP3   OH212664   5.166   5.878   2.048
 4236TIP3    H112665   5.167   5.897   2.142
 4236TIP3    H212666   5.075   5.860   2.028
 4237TIP3   OH212667   4.198   1.958   6.446
 4237TIP3    H112668   4.279   1.947   6.397
 4237TIP3    H212669   4.226   1.969   6.537
 4238TIP3   OH212670   3.889   6.461   2.717
 4238TIP3    H112671   3.815   6.512   2.684
 4238TIP3    H212672   3.934   6.520   2.777
 4239TIP3   OH212673   7.159   0.778   4.445
 4239TIP3    H112674   7.128   0.699   4.401
 4239TIP3    H212675   7.081   0.815   4.486
 4240TIP3   OH212676   6.169   6.691   4.290
 4240TIP3    H112677   6.186   6.778   4.325
 4240TIP3    H212678   6.080   6.671   4.320
 4241TIP3   OH212679   1.974   1.095   6.805
 4241TIP3    H112680   1.968   1.049   6.721
 4241TIP3    H212681   1.886   1.127   6.821
 4242TIP3   OH212682   4.563   5.824   6.712
 4242TIP3    H112683   4.590   5.797   6.800
 4242TIP3    H212684   4.595   5.753   6.655
 4243TIP3   OH212685   5.441   0.028   6.139
 4243TIP3    H112686   5.477   0.068   6.060
 4243TIP3    H212687   5.369   0.086   6.164
 4244TIP3   OH212688   3.684   0.432   0.196
 4244TIP3    H112689   3.776   0.458   0.190
 4244TIP3    H212690   3.653   0.475   0.275
 4245TIP3   OH212691   1.085   0.891   4.276
 4245TIP3    H112692   1.016   0.913   4.214
 4245TIP3    H212693   1.159   0.865   4.221
 4246TIP3   OH212694   4.215   4.115   3.597
 4246TIP3    H112695   4.169   4.063   3.531
 4246TIP3    H212696   4.308   4.106   3.574
 4247TIP3   OH212697   6.130   3.800   2.487
 4247TIP3    H112698   6.104   3.720   2.442
 4247TIP3    H212699   6.223   3.787   2.507
 4248TIP3   OH212700   7.071   2.836   1.051
 4248TIP3    H112701   7.084   2.929   1.033
 4248TIP3    H212702   7.132   2.816   1.121
 4249TIP3   OH212703   4.580   3.323   1.513
 4249TIP3    H112704   4.520   3.396   1.529
 4249TIP3    H212705   4.527   3.245   1.530
 4250TIP3   OH212706   2.097   7.249   0.169
 4250TIP3    H112707   2.163   7.316   0.188
 4250TIP3    H212708   2.035   7.256   0.242
 4251TIP3   OH212709   1.473   0.792   4.640
 4251TIP3    H112710   1.481   0.884   4.614
 4251TIP3    H212711   1.415   0.753   4.575
 4252TIP3   OH212712   7.923   1.737   4.855
 4252TIP3    H112713   8.008   1.737   4.811
 4252TIP3    H212714   7.875   1.665   4.813
 4253TIP3   OH212715   5.336   6.993   0.383
 4253TIP3    H112716   5.262   7.048   0.408
 4253TIP3    H212717   5.371   6.960   0.466
 4254TIP3   OH212718   5.550   3.389   6.450
 4254TIP3    H112719   5.609   3.401   6.525
 4254TIP3    H212720   5.592   3.435   6.378
 4255TIP3   OH212721   5.666   4.911   4.867
 4255TIP3    H112722   5.601   4.888   4.932
 4255TIP3    H212723   5.704   4.994   4.898
 4256TIP3   OH212724   1.060   7.595   6.216
 4256TIP3    H112725   1.125   7.665   6.214
 4256TIP3    H212726   1.061   7.565   6.307
 4257TIP3   OH212727   5.942   3.900   0.564
 4257TIP3    H112728   6.038   3.904   0.555
 4257TIP3    H212729   5.909   3.903   0.474
 4258TIP3   OH212730   5.503   2.962   5.305
 4258TIP3    H112731   5.506   2.886   5.247
 4258TIP3    H212732   5.551   2.934   5.383
 4259TIP3   OH212733   3.931   0.078   2.114
 4259TIP3    H112734   3.969   0.166   2.123
 4259TIP3    H212735   3.844   0.087   2.152
 4260TIP3   OH212736   8.276   4.884   1.207
 4260TIP3    H112737   8.338   4.883   1.134
 4260TIP3    H212738   8.283   4.972   1.244
 4261TIP3   OH212739   0.018   3.602   4.919
 4261TIP3    H112740   0.108   3.612   4.950
 4261TIP3    H212741  -0.025   3.683   4.946
 4262TIP3   OH212742   0.993   3.682   3.476
 4262TIP3    H112743   0.994   3.593   3.441
 4262TIP3    H212744   0.918   3.723   3.433
 4263TIP3   OH212745   7.108   3.204   5.353
 4263TIP3    H112746   7.114   3.170   5.263
 4263TIP3    H212747   7.053   3.282   5.344
 4264TIP3   OH212748   3.586   0.308   5.287
 4264TIP3    H112749   3.509   0.260   5.316
 4264TIP3    H212750   3.570   0.326   5.195
 4265TIP3   OH212751   6.352   6.915   6.460
 4265TIP3    H112752   6.381   6.863   6.385
 4265TIP3    H212753   6.278   6.866   6.496
 4266TIP3   OH212754   7.897   5.577   1.425
 4266TIP3    H112755   7.816   5.628   1.423
 4266TIP3    H212756   7.891   5.519   1.348
 4267TIP3   OH212757   6.698   7.155   3.504
 4267TIP3    H112758   6.733   7.140   3.416
 4267TIP3    H212759   6.615   7.200   3.490
 4268TIP3   OH212760   4.563   2.261   3.421
 4268TIP3    H112761   4.566   2.295   3.331
 4268TIP3    H212762   4.642   2.296   3.463
 4269TIP3   OH212763   6.770   3.087   3.623
 4269TIP3    H112764   6.701   3.153   3.628
 4269TIP3    H212765   6.735   3.011   3.669
 4270TIP3   OH212766   2.991   2.369   3.652
 4270TIP3    H112767   2.905   2.390   3.686
 4270TIP3    H212768   3.039   2.332   3.726
 4271TIP3   OH212769   3.633   5.021   1.392
 4271TIP3    H112770   3.671   5.085   1.332
 4271TIP3    H212771   3.573   4.970   1.339
 4272TIP3   OH212772   2.795   6.231   0.911
 4272TIP3    H112773   2.752   6.192   0.835
 4272TIP3    H212774   2.795   6.325   0.894
 4273TIP3   OH212775   4.021   2.452   3.750
 4273TIP3    H112776   4.023   2.451   3.655
 4273TIP3    H212777   4.084   2.520   3.775
 4274TIP3   OH212778   0.544   7.414   6.268
 4274TIP3    H112779   0.510   7.432   6.356
 4274TIP3    H212780   0.510   7.327   6.246
 4275TIP3   OH212781   4.688   0.613   0.224
 4275TIP3    H112782   4.616   0.674   0.209
 4275TIP3    H212783   4.741   0.618   0.145
 4276TIP3   OH212784   7.679   1.299   5.141
 4276TIP3    H112785   7.751   1.340   5.093
 4276TIP3    H212786   7.610   1.287   5.077
 4277TIP3   OH212787   5.865   0.460   3.598
 4277TIP3    H112788   5.771   0.476   3.607
 4277TIP3    H212789   5.874   0.414   3.515
 4278TIP3   OH212790   1.736   2.628   1.662
 4278TIP3    H112791   1.794   2.661   1.593
 4278TIP3    H212792   1.710   2.706   1.711
 4279TIP3   OH212793   4.447   3.318   3.288
 4279TIP3    H112794   4.444   3.329   3.193
 4279TIP3    H212795   4.517   3.377   3.317
 4280TIP3   OH212796   3.636   1.582   4.999
 4280TIP3    H112797   3.556   1.634   4.998
 4280TIP3    H212798   3.610   1.500   5.043
 4281TIP3   OH212799   7.005   4.096   2.209
 4281TIP3    H112800   6.919   4.069   2.179
 4281TIP3    H212801   7.057   4.016   2.208
 4282TIP3   OH212802   6.222   5.923   0.268
 4282TIP3    H112803   6.260   6.010   0.254
 4282TIP3    H212804   6.138   5.927   0.223
 4283TIP3   OH212805   7.050   2.427   2.023
 4283TIP3    H112806   7.106   2.461   1.953
 4283TIP3    H212807   6.975   2.487   2.025
 4284TIP3   OH212808   1.918   3.136   4.529
 4284TIP3    H112809   1.938   3.227   4.508
 4284TIP3    H212810   1.823   3.133   4.536
 4285TIP3   OH212811   0.736   4.301   5.084
 4285TIP3    H112812   0.732   4.208   5.108
 4285TIP3    H212813   0.828   4.323   5.089
 4286TIP3   OH212814   4.120   5.448   0.424
 4286TIP3    H112815   4.215   5.454   0.417
 4286TIP3    H212816   4.095   5.377   0.364
 4287TIP3   OH212817   8.147   2.092   0.983
 4287TIP3    H112818   8.187   2.016   0.940
 4287TIP3    H212819   8.176   2.167   0.930
 4288TIP3   OH212820   8.100   0.444   2.259
 4288TIP3    H112821   8.043   0.464   2.185
 4288TIP3    H212822   8.178   0.498   2.244
 4289TIP3   OH212823   1.414   1.677   4.022
 4289TIP3    H112824   1.359   1.600   4.018
 4289TIP3    H212825   1.472   1.662   4.097
 4290TIP3   OH212826   3.709   4.694   6.440
 4290TIP3    H112827   3.697   4.789   6.443
 4290TIP3    H212828   3.683   4.664   6.526
 4291TIP3   OH212829   5.584   3.044   1.454
 4291TIP3    H112830   5.565   3.113   1.390
 4291TIP3    H212831   5.582   2.963   1.404
 4292TIP3   OH212832   7.276  -0.094   0.421
 4292TIP3    H112833   7.353  -0.044   0.397
 4292TIP3    H212834   7.202  -0.040   0.393
 4293TIP3   OH212835   0.815   6.985   6.015
 4293TIP3    H112836   0.867   6.950   5.943
 4293TIP3    H212837   0.798   6.909   6.071
 4294TIP3   OH212838   1.644   7.387   3.195
 4294TIP3    H112839   1.673   7.466   3.241
 4294TIP3    H212840   1.549   7.385   3.210
 4295TIP3   OH212841   4.681   5.116   1.027
 4295TIP3    H112842   4.687   5.103   1.121
 4295TIP3    H212843   4.590   5.140   1.011
 4296TIP3   OH212844   5.701   6.725   2.763
 4296TIP3    H112845   5.640   6.753   2.831
 4296TIP3    H212846   5.730   6.638   2.791
 4297TIP3   OH212847   3.297   7.862   6.210
 4297TIP3    H112848   3.201   7.862   6.208
 4297TIP3    H212849   3.320   7.769   6.207
 4298TIP3   OH212850   1.968   4.655   5.923
 4298TIP3    H112851   1.962   4.678   5.830
 4298TIP3    H212852   2.043   4.706   5.955
 4299TIP3   OH212853   2.779   0.202   5.265
 4299TIP3    H112854   2.860   0.161   5.295
 4299TIP3    H212855   2.806   0.262   5.196
 4300TIP3   OH212856   6.476   5.943   1.699
 4300TIP3    H112857   6.418   5.867   1.705
 4300TIP3    H212858   6.549   5.921   1.756
 4301TIP3   OH212859   7.882   2.828   4.373
 4301TIP3    H112860   7.934   2.893   4.421
 4301TIP3    H212861   7.812   2.879   4.332
 4302TIP3   OH212862   8.052   0.766   5.207
 4302TIP3    H112863   7.973   0.804   5.169
 4302TIP3    H212864   8.100   0.840   5.243
 4303TIP3   OH212865   7.129   7.429   1.330
 4303TIP3    H112866   7.209   7.393   1.368
 4303TIP3    H212867   7.059   7.373   1.364
 4304TIP3   OH212868   5.588   2.487   3.931
 4304TIP3    H112869   5.581   2.419   3.865
 4304TIP3    H212870   5.644   2.553   3.892
 4305TIP3   OH212871   5.962   2.848   5.713
 4305TIP3    H112872   5.990   2.796   5.638
 4305TIP3    H212873   6.032   2.838   5.777
 4306TIP3   OH212874   7.934   1.069   4.003
 4306TIP3    H112875   7.842   1.090   3.987
 4306TIP3    H212876   7.951   0.991   3.951
 4307TIP3   OH212877   5.647   5.055   6.290
 4307TIP3    H112878   5.737   5.046   6.259
 4307TIP3    H212879   5.626   5.147   6.277
 4308TIP3   OH212880   7.044   6.701   2.420
 4308TIP3    H112881   6.993   6.703   2.339
 4308TIP3    H212882   7.014   6.778   2.469
 4309TIP3   OH212883   0.620   2.972   0.419
 4309TIP3    H112884   0.604   3.066   0.430
 4309TIP3    H212885   0.536   2.930   0.437
 4310TIP3   OH212886   4.377   7.456   4.988
 4310TIP3    H112887   4.374   7.496   4.901
 4310TIP3    H212888   4.441   7.385   4.979
 4311TIP3   OH212889   6.157   0.380   4.620
 4311TIP3    H112890   6.224   0.312   4.612
 4311TIP3    H212891   6.153   0.398   4.714
 4312TIP3   OH212892   1.031   4.625   4.279
 4312TIP3    H112893   1.078   4.593   4.355
 4312TIP3    H212894   0.979   4.698   4.311
 4313TIP3   OH212895   5.937   5.581   2.217
 4313TIP3    H112896   5.939   5.556   2.309
 4313TIP3    H212897   6.015   5.634   2.205
 4314TIP3   OH212898   2.243   6.842   3.495
 4314TIP3    H112899   2.288   6.921   3.524
 4314TIP3    H212900   2.186   6.818   3.567
 4315TIP3   OH212901   4.474   1.433   5.431
 4315TIP3    H112902   4.564   1.420   5.402
 4315TIP3    H212903   4.430   1.473   5.356
 4316TIP3   OH212904   7.188   1.802   2.628
 4316TIP3    H112905   7.252   1.820   2.558
 4316TIP3    H212906   7.110   1.770   2.581
 4317TIP3   OH212907   6.905   1.636   6.161
 4317TIP3    H112908   6.827   1.644   6.216
 4317TIP3    H212909   6.907   1.543   6.136
 4318TIP3   OH212910   1.421   6.303   2.737
 4318TIP3    H112911   1.489   6.294   2.670
 4318TIP3    H212912   1.405   6.397   2.742
 4319TIP3   OH212913   7.799   2.114   5.873
 4319TIP3    H112914   7.836   2.197   5.904
 4319TIP3    H212915   7.749   2.081   5.947
 4320TIP3   OH212916   0.324   1.727  -0.011
 4320TIP3    H112917   0.404   1.722  -0.063
 4320TIP3    H212918   0.326   1.648   0.043
 4321TIP3   OH212919   4.453   1.587   6.422
 4321TIP3    H112920   4.445   1.605   6.516
 4321TIP3    H212921   4.502   1.661   6.387
 4322TIP3   OH212922   3.320   7.587   6.266
 4322TIP3    H112923   3.270   7.613   6.344
 4322TIP3    H212924   3.379   7.519   6.297
 4323TIP3   OH212925   5.652   6.483   0.618
 4323TIP3    H112926   5.711   6.520   0.552
 4323TIP3    H212927   5.689   6.397   0.637
 4324TIP3   OH212928   1.576   0.416   5.793
 4324TIP3    H112929   1.540   0.418   5.882
 4324TIP3    H212930   1.523   0.350   5.748
 4325TIP3   OH212931   3.695   5.068   0.889
 4325TIP3    H112932   3.682   5.144   0.832
 4325TIP3    H212933   3.721   5.105   0.973
 4326TIP3   OH212934   4.942   6.272   2.471
 4326TIP3    H112935   5.004   6.332   2.512
 4326TIP3    H212936   4.868   6.327   2.445
 4327TIP3   OH212937   8.032   2.561   3.940
 4327TIP3    H112938   7.958   2.569   4.000
 4327TIP3    H212939   8.071   2.476   3.962
 4328TIP3   OH212940   4.300   1.620   4.345
 4328TIP3    H112941   4.252   1.660   4.418
 4328TIP3    H212942   4.362   1.687   4.318
 4329TIP3   OH212943   3.812   2.400   0.074
 4329TIP3    H112944   3.727   2.364   0.049
 4329TIP3    H212945   3.875   2.347   0.026
 4330TIP3   OH212946   4.469   4.134   1.686
 4330TIP3    H112947   4.374   4.132   1.683
 4330TIP3    H212948   4.495   4.043   1.696
 4331TIP3   OH212949   3.082   4.786   2.571
 4331TIP3    H112950   3.012   4.727   2.546
 4331TIP3    H212951   3.161   4.748   2.533
 4332TIP3   OH212952   5.996   0.075   6.533
 4332TIP3    H112953   5.930   0.012   6.504
 4332TIP3    H212954   6.079   0.037   6.506
 4333TIP3   OH212955   3.799   7.217   5.794
 4333TIP3    H112956   3.817   7.290   5.734
 4333TIP3    H212957   3.723   7.246   5.844
 4334TIP3   OH212958   4.312   1.190   4.326
 4334TIP3    H112959   4.328   1.224   4.413
 4334TIP3    H212960   4.232   1.235   4.297
 4335TIP3   OH212961   5.687   3.458   1.874
 4335TIP3    H112962   5.624   3.394   1.841
 4335TIP3    H212963   5.768   3.409   1.883
 4336TIP3   OH212964   4.055   2.296   2.393
 4336TIP3    H112965   4.130   2.266   2.343
 4336TIP3    H212966   4.032   2.223   2.450
 4337TIP3   OH212967   3.808   2.246   6.633
 4337TIP3    H112968   3.744   2.193   6.681
 4337TIP3    H212969   3.841   2.188   6.565
 4338TIP3   OH212970   2.992   3.178   6.233
 4338TIP3    H112971   2.935   3.188   6.309
 4338TIP3    H212972   2.932   3.164   6.160
 4339TIP3   OH212973   3.935   5.586   3.017
 4339TIP3    H112974   3.916   5.498   2.986
 4339TIP3    H212975   3.910   5.585   3.109
 4340TIP3   OH212976   8.145   3.244   4.508
 4340TIP3    H112977   8.200   3.183   4.457
 4340TIP3    H212978   8.071   3.263   4.451
 4341TIP3   OH212979   7.976   2.737   6.061
 4341TIP3    H112980   7.905   2.794   6.089
 4341TIP3    H212981   8.055   2.778   6.097
 4342TIP3   OH212982   0.962   4.520  -0.027
 4342TIP3    H112983   0.992   4.590   0.031
 4342TIP3    H212984   1.015   4.445  -0.002
 4343TIP3   OH212985   0.505   2.840   5.818
 4343TIP3    H112986   0.418   2.859   5.853
 4343TIP3    H212987   0.564   2.895   5.869
 4344TIP3   OH212988   6.505   2.703   5.514
 4344TIP3    H112989   6.581   2.656   5.481
 4344TIP3    H212990   6.433   2.640   5.507
 4345TIP3   OH212991   3.529   2.254   1.322
 4345TIP3    H112992   3.470   2.323   1.351
 4345TIP3    H212993   3.521   2.254   1.226
 4346TIP3   OH212994   2.467   2.307   2.700
 4346TIP3    H112995   2.456   2.229   2.753
 4346TIP3    H212996   2.532   2.359   2.746
 4347TIP3   OH212997   4.434   3.920   1.218
 4347TIP3    H112998   4.414   3.879   1.134
 4347TIP3    H212999   4.526   3.943   1.213
 4348TIP3   OH213000   5.564   7.704   1.761
 4348TIP3    H113001   5.606   7.703   1.675
 4348TIP3    H213002   5.636   7.710   1.824
 4349TIP3   OH213003   2.502   7.726   4.423
 4349TIP3    H113004   2.594   7.722   4.447
 4349TIP3    H213005   2.466   7.642   4.450
 4350TIP3   OH213006   6.604   4.915   2.851
 4350TIP3    H113007   6.584   4.825   2.824
 4350TIP3    H213008   6.635   4.957   2.770
 4351TIP3   OH213009   6.742   1.330   4.278
 4351TIP3    H113010   6.812   1.354   4.339
 4351TIP3    H213011   6.710   1.413   4.244
 4352TIP3   OH213012   0.027   5.562  -0.016
 4352TIP3    H113013  -0.018   5.541   0.066
 4352TIP3    H213014   0.115   5.527  -0.005
 4353TIP3   OH213015   4.654   1.084   5.613
 4353TIP3    H113016   4.680   1.058   5.701
 4353TIP3    H213017   4.737   1.092   5.565
 4354TIP3   OH213018   5.109   5.122   0.215
 4354TIP3    H113019   5.196   5.113   0.253
 4354TIP3    H213020   5.088   5.215   0.225
 4355TIP3   OH213021   1.797   3.761   6.044
 4355TIP3    H113022   1.853   3.713   5.983
 4355TIP3    H213023   1.796   3.708   6.123
 4356TIP3   OH213024   2.794   4.808   3.624
 4356TIP3    H113025   2.855   4.850   3.563
 4356TIP3    H213026   2.850   4.751   3.677
 4357TIP3   OH213027   6.594   1.782   6.184
 4357TIP3    H113028   6.618   1.703   6.232
 4357TIP3    H213029   6.537   1.751   6.113
 4358TIP3   OH213030   7.201   6.533   4.334
 4358TIP3    H113031   7.261   6.466   4.301
 4358TIP3    H213032   7.154   6.490   4.406
 4359TIP3   OH213033   6.795   2.138   2.397
 4359TIP3    H113034   6.833   2.217   2.434
 4359TIP3    H213035   6.868   2.077   2.390
 4360TIP3   OH213036   5.846   6.457   0.023
 4360TIP3    H113037   5.797   6.469   0.104
 4360TIP3    H213038   5.920   6.518   0.030
 4361TIP3   OH213039   2.660   5.020   4.196
 4361TIP3    H113040   2.741   4.971   4.186
 4361TIP3    H213041   2.686   5.103   4.236
 4362TIP3   OH213042   6.771   6.755   0.347
 4362TIP3    H113043   6.828   6.822   0.383
 4362TIP3    H213044   6.718   6.801   0.281
 4363TIP3   OH213045   2.664   6.183   3.051
 4363TIP3    H113046   2.618   6.172   3.134
 4363TIP3    H213047   2.593   6.191   2.986
 4364TIP3   OH213048   2.779   1.684   4.527
 4364TIP3    H113049   2.808   1.676   4.618
 4364TIP3    H213050   2.844   1.741   4.486
 4365TIP3   OH213051   3.894   3.683   1.766
 4365TIP3    H113052   3.886   3.604   1.713
 4365TIP3    H213053   3.978   3.721   1.739
 4366TIP3   OH213054   7.990   6.442   5.969
 4366TIP3    H113055   8.013   6.473   6.057
 4366TIP3    H213056   7.899   6.413   5.977
 4367TIP3   OH213057   2.002   5.249   2.797
 4367TIP3    H113058   1.939   5.287   2.735
 4367TIP3    H213059   1.965   5.268   2.883
 4368TIP3   OH213060   0.368   4.626   3.615
 4368TIP3    H113061   0.427   4.623   3.690
 4368TIP3    H213062   0.418   4.585   3.544
 4369TIP3   OH213063   7.506   6.894   3.878
 4369TIP3    H113064   7.570   6.854   3.938
 4369TIP3    H213065   7.555   6.964   3.835
 4370TIP3   OH213066   0.959   6.366   3.583
 4370TIP3    H113067   0.901   6.338   3.654
 4370TIP3    H213068   1.045   6.331   3.606
 4371TIP3   OH213069   2.178   1.264   2.898
 4371TIP3    H113070   2.233   1.296   2.970
 4371TIP3    H213071   2.090   1.292   2.922
 4372TIP3   OH213072   7.826   7.102   3.347
 4372TIP3    H113073   7.732   7.120   3.345
 4372TIP3    H213074   7.860   7.142   3.267
 4373TIP3   OH213075   7.838   7.509   0.061
 4373TIP3    H113076   7.880   7.594   0.074
 4373TIP3    H213077   7.908   7.445   0.076
 4374TIP3   OH213078   1.014   3.855   6.335
 4374TIP3    H113079   1.098   3.874   6.294
 4374TIP3    H213080   0.982   3.777   6.290
 4375TIP3   OH213081   3.451   1.723   4.171
 4375TIP3    H113082   3.472   1.709   4.263
 4375TIP3    H213083   3.533   1.751   4.131
 4376TIP3   OH213084   3.232   0.576   3.674
 4376TIP3    H113085   3.150   0.550   3.718
 4376TIP3    H213086   3.297   0.577   3.743
 4377TIP3   OH213087   5.294   4.850   5.219
 4377TIP3    H113088   5.364   4.898   5.173
 4377TIP3    H213089   5.252   4.915   5.275
 4378TIP3   OH213090   0.662   0.807   4.445
 4378TIP3    H113091   0.663   0.863   4.367
 4378TIP3    H213092   0.660   0.867   4.518
 4379TIP3   OH213093   4.569   0.891   1.163
 4379TIP3    H113094   4.561   0.972   1.214
 4379TIP3    H213095   4.513   0.905   1.087
 4380TIP3   OH213096   7.211   6.571   0.799
 4380TIP3    H113097   7.251   6.524   0.872
 4380TIP3    H213098   7.182   6.503   0.739
 4381TIP3   OH213099   0.863   6.643   0.075
 4381TIP3    H113100   0.792   6.579   0.066
 4381TIP3    H213101   0.925   6.602   0.135
 4382TIP3   OH213102   7.063   5.643   4.405
 4382TIP3    H113103   7.150   5.604   4.406
 4382TIP3    H213104   7.079   5.736   4.390
 4383TIP3   OH213105   0.688   0.165   2.442
 4383TIP3    H113106   0.692   0.261   2.450
 4383TIP3    H213107   0.645   0.149   2.358
 4384TIP3   OH213108   3.922   1.757   1.277
 4384TIP3    H113109   3.942   1.847   1.252
 4384TIP3    H213110   4.003   1.709   1.262
 4385TIP3   OH213111   7.247   2.294   4.812
 4385TIP3    H113112   7.342   2.305   4.812
 4385TIP3    H213113   7.217   2.338   4.892
 4386TIP3   OH213114   0.209   0.663   3.818
 4386TIP3    H113115   0.302   0.687   3.824
 4386TIP3    H213116   0.164   0.747   3.806
 4387TIP3   OH213117   2.332   2.720   3.359
 4387TIP3    H113118   2.274   2.775   3.306
 4387TIP3    H213119   2.320   2.752   3.449
 4388TIP3   OH213120   7.038   1.088   5.163
 4388TIP3    H113121   7.123   1.122   5.135
 4388TIP3    H213122   6.975   1.136   5.110
 4389TIP3   OH213123   3.332   2.368   4.344
 4389TIP3    H113124   3.298   2.279   4.331
 4389TIP3    H213125   3.347   2.374   4.438
 4390TIP3   OH213126   3.612   4.595   4.874
 4390TIP3    H113127   3.606   4.499   4.876
 4390TIP3    H213128   3.560   4.624   4.949
 4391TIP3   OH213129   6.229   7.071   6.727
 4391TIP3    H113130   6.145   7.118   6.724
 4391TIP3    H213131   6.245   7.045   6.636
 4392TIP3   OH213132   1.588   3.902   3.838
 4392TIP3    H113133   1.596   3.991   3.804
 4392TIP3    H213134   1.579   3.847   3.760
 4393TIP3   OH213135   7.760   4.014   1.376
 4393TIP3    H113136   7.680   4.066   1.366
 4393TIP3    H213137   7.730   3.924   1.376
 4394TIP3   OH213138   3.902   5.138   3.196
 4394TIP3    H113139   3.820   5.088   3.191
 4394TIP3    H213140   3.931   5.126   3.286
 4395TIP3   OH213141   4.369   6.269   4.946
 4395TIP3    H113142   4.359   6.178   4.975
 4395TIP3    H213143   4.452   6.269   4.898
 4396TIP3   OH213144   4.866   0.477   5.992
 4396TIP3    H113145   4.954   0.491   5.957
 4396TIP3    H213146   4.843   0.561   6.033
 4397TIP3   OH213147   3.126   2.923   2.949
 4397TIP3    H113148   3.122   2.928   3.045
 4397TIP3    H213149   3.220   2.922   2.929
 4398TIP3   OH213150   3.055   1.771   0.722
 4398TIP3    H113151   3.087   1.766   0.812
 4398TIP3    H213152   3.130   1.800   0.671
 4399TIP3   OH213153   4.984   1.276   2.475
 4399TIP3    H113154   5.004   1.254   2.566
 4399TIP3    H213155   4.965   1.370   2.477
 4400TIP3   OH213156   1.367   5.471   5.074
 4400TIP3    H113157   1.423   5.531   5.024
 4400TIP3    H213158   1.397   5.479   5.164
 4401TIP3   OH213159   6.781   3.161   2.652
 4401TIP3    H113160   6.727   3.114   2.716
 4401TIP3    H213161   6.720   3.185   2.583
 4402TIP3   OH213162   1.358   6.856   6.333
 4402TIP3    H113163   1.348   6.909   6.254
 4402TIP3    H213164   1.327   6.769   6.308
 4403TIP3   OH213165   6.913   1.158   4.509
 4403TIP3    H113166   6.999   1.163   4.551
 4403TIP3    H213167   6.885   1.067   4.523
 4404TIP3   OH213168   6.243   2.839   1.077
 4404TIP3    H113169   6.239   2.843   0.982
 4404TIP3    H213170   6.168   2.891   1.106
 4405TIP3   OH213171   3.042   5.473   4.914
 4405TIP3    H113172   3.088   5.434   4.989
 4405TIP3    H213173   2.955   5.433   4.916
 4406TIP3   OH213174   3.297   2.216   0.319
 4406TIP3    H113175   3.380   2.230   0.366
 4406TIP3    H213176   3.308   2.263   0.237
 4407TIP3   OH213177   8.018   0.790   0.560
 4407TIP3    H113178   7.982   0.860   0.615
 4407TIP3    H213179   8.094   0.829   0.517
 4408TIP3   OH213180   3.148   1.496   6.647
 4408TIP3    H113181   3.084   1.456   6.705
 4408TIP3    H213182   3.124   1.589   6.645
 4409TIP3   OH213183   7.766   4.445   3.799
 4409TIP3    H113184   7.810   4.385   3.739
 4409TIP3    H213185   7.831   4.511   3.820
 4410TIP3   OH213186   3.026   3.718   2.225
 4410TIP3    H113187   2.958   3.651   2.222
 4410TIP3    H213188   3.024   3.752   2.314
 4411TIP3   OH213189   0.515   5.301   4.803
 4411TIP3    H113190   0.467   5.308   4.721
 4411TIP3    H213191   0.541   5.209   4.807
 4412TIP3   OH213192   2.698   2.610   4.921
 4412TIP3    H113193   2.723   2.681   4.861
 4412TIP3    H213194   2.625   2.567   4.877
 4413TIP3   OH213195   2.944   7.143   6.669
 4413TIP3    H113196   2.890   7.210   6.627
 4413TIP3    H213197   2.997   7.106   6.599
 4414TIP3   OH213198   8.160   2.150   0.219
 4414TIP3    H113199   8.139   2.177   0.130
 4414TIP3    H213200   8.243   2.192   0.238
 4415TIP3   OH213201   6.668   5.709   3.807
 4415TIP3    H113202   6.754   5.675   3.783
 4415TIP3    H213203   6.687   5.785   3.861
 4416TIP3   OH213204   4.806   6.517   1.351
 4416TIP3    H113205   4.842   6.429   1.362
 4416TIP3    H213206   4.719   6.503   1.314
 4417TIP3   OH213207   2.680   4.203   4.606
 4417TIP3    H113208   2.600   4.245   4.575
 4417TIP3    H213209   2.711   4.260   4.677
 4418TIP3   OH213210   2.625   2.537   1.621
 4418TIP3    H113211   2.691   2.586   1.571
 4418TIP3    H213212   2.567   2.604   1.657
 4419TIP3   OH213213   8.198   7.764   2.206
 4419TIP3    H113214   8.202   7.675   2.242
 4419TIP3    H213215   8.157   7.816   2.275
 4420TIP3   OH213216   1.335   6.207   6.331
 4420TIP3    H113217   1.266   6.143   6.350
 4420TIP3    H213218   1.375   6.175   6.250
 4421TIP3   OH213219   6.592   5.097   5.902
 4421TIP3    H113220   6.502   5.071   5.884
 4421TIP3    H213221   6.636   5.093   5.818
 4422TIP3   OH213222   2.477   7.195   4.794
 4422TIP3    H113223   2.524   7.112   4.801
 4422TIP3    H213224   2.389   7.170   4.767
 4423TIP3   OH213225   5.704   0.494   1.184
 4423TIP3    H113226   5.699   0.399   1.188
 4423TIP3    H213227   5.628   0.519   1.131
 4424TIP3   OH213228   0.089   0.266   0.607
 4424TIP3    H113229   0.022   0.330   0.634
 4424TIP3    H213230   0.162   0.320   0.575
 4425TIP3   OH213231   4.843   7.460   5.059
 4425TIP3    H113232   4.776   7.475   4.993
 4425TIP3    H213233   4.922   7.438   5.009
 4426TIP3   OH213234   3.841   2.090   5.912
 4426TIP3    H113235   3.876   2.001   5.901
 4426TIP3    H213236   3.916   2.147   5.897
 4427TIP3   OH213237   6.016   4.626   2.772
 4427TIP3    H113238   6.096   4.679   2.781
 4427TIP3    H213239   5.949   4.688   2.744
 4428TIP3   OH213240   4.923   2.833   1.503
 4428TIP3    H113241   4.909   2.925   1.526
 4428TIP3    H213242   4.998   2.835   1.443
 4429TIP3   OH213243   1.087   2.869   6.173
 4429TIP3    H113244   1.119   2.835   6.090
 4429TIP3    H213245   0.992   2.878   6.161
 4430TIP3   OH213246   6.076   2.617   5.564
 4430TIP3    H113247   6.159   2.584   5.528
 4430TIP3    H213248   6.040   2.543   5.612
 4431TIP3   OH213249   0.155   0.257   1.525
 4431TIP3    H113250   0.148   0.214   1.610
 4431TIP3    H213251   0.247   0.248   1.501
 4432TIP3   OH213252   4.663   2.975   5.406
 4432TIP3    H113253   4.602   2.902   5.412
 4432TIP3    H213254   4.739   2.947   5.457
 4433TIP3   OH213255   3.618   0.016   4.407
 4433TIP3    H113256   3.582   0.084   4.350
 4433TIP3    H213257   3.544  -0.043   4.423
 4434TIP3   OH213258   2.804   1.905   5.616
 4434TIP3    H113259   2.836   1.972   5.556
 4434TIP3    H213260   2.883   1.859   5.645
 4435TIP3   OH213261   0.468   0.707   3.819
 4435TIP3    H113262   0.539   0.720   3.882
 4435TIP3    H213263   0.495   0.758   3.743
 4436TIP3   OH213264   5.557   0.133   1.894
 4436TIP3    H113265   5.580   0.056   1.842
 4436TIP3    H213266   5.637   0.184   1.899
 4437TIP3   OH213267   3.604   3.721   0.365
 4437TIP3    H113268   3.549   3.750   0.438
 4437TIP3    H213269   3.693   3.747   0.390
 4438TIP3   OH213270   3.749   1.547   1.927
 4438TIP3    H113271   3.716   1.521   2.013
 4438TIP3    H213272   3.675   1.590   1.884
 4439TIP3   OH213273   6.589   5.202   4.761
 4439TIP3    H113274   6.659   5.147   4.795
 4439TIP3    H213275   6.510   5.148   4.767
 4440TIP3   OH213276   1.262   5.964   4.034
 4440TIP3    H113277   1.328   6.026   4.065
 4440TIP3    H213278   1.306   5.915   3.964
 4441TIP3   OH213279   5.413   5.183   6.596
 4441TIP3    H113280   5.457   5.179   6.681
 4441TIP3    H213281   5.381   5.094   6.581
 4442TIP3   OH213282   3.762   7.444   5.611
 4442TIP3    H113283   3.692   7.387   5.578
 4442TIP3    H213284   3.716   7.509   5.665
 4443TIP3   OH213285   8.279   7.514   1.731
 4443TIP3    H113286   8.206   7.481   1.783
 4443TIP3    H213287   8.249   7.508   1.640
 4444TIP3   OH213288   8.090   4.851   5.412
 4444TIP3    H113289   8.066   4.941   5.434
 4444TIP3    H213290   8.181   4.842   5.441
 4445TIP3   OH213291   6.885   1.527   5.426
 4445TIP3    H113292   6.841   1.607   5.454
 4445TIP3    H213293   6.943   1.505   5.499
 4446TIP3   OH213294   5.604   0.051   0.243
 4446TIP3    H113295   5.671   0.019   0.304
 4446TIP3    H213296   5.551   0.111   0.295
 4447TIP3   OH213297   6.166   5.156   3.571
 4447TIP3    H113298   6.188   5.150   3.478
 4447TIP3    H213299   6.107   5.231   3.578
 4448TIP3   OH213300   4.160   3.432   2.329
 4448TIP3    H113301   4.145   3.527   2.328
 4448TIP3    H213302   4.127   3.402   2.245
 4449TIP3   OH213303   4.862   0.243   4.850
 4449TIP3    H113304   4.880   0.152   4.871
 4449TIP3    H213305   4.944   0.276   4.814
 4450TIP3   OH213306   0.140   2.025   2.911
 4450TIP3    H113307   0.066   2.058   2.961
 4450TIP3    H213308   0.189   2.104   2.886
 4451TIP3   OH213309   8.029   4.736   0.736
 4451TIP3    H113310   8.043   4.830   0.734
 4451TIP3    H213311   7.959   4.723   0.800
 4452TIP3   OH213312   8.011   1.196   0.092
 4452TIP3    H113313   8.012   1.107   0.057
 4452TIP3    H213314   7.919   1.223   0.086
 4453TIP3   OH213315   1.589   7.338   3.957
 4453TIP3    H113316   1.663   7.397   3.941
 4453TIP3    H213317   1.600   7.268   3.892
 4454TIP3   OH213318   0.768   5.210   5.016
 4454TIP3    H113319   0.842   5.150   5.023
 4454TIP3    H213320   0.691   5.157   5.034
 4455TIP3   OH213321   1.504   5.629   6.288
 4455TIP3    H113322   1.501   5.718   6.253
 4455TIP3    H213323   1.582   5.626   6.342
 4456TIP3   OH213324   1.081   4.353   0.669
 4456TIP3    H113325   1.142   4.302   0.721
 4456TIP3    H213326   1.111   4.341   0.579
 4457TIP3   OH213327   4.185   0.454   4.560
 4457TIP3    H113328   4.238   0.505   4.621
 4457TIP3    H213329   4.111   0.424   4.613
 4458TIP3   OH213330   6.828   6.336   1.314
 4458TIP3    H113331   6.833   6.431   1.299
 4458TIP3    H213332   6.806   6.328   1.407
 4459TIP3   OH213333   5.922   7.145   1.946
 4459TIP3    H113334   5.859   7.164   2.015
 4459TIP3    H213335   6.005   7.129   1.993
 4460TIP3   OH213336   4.980   6.561   3.891
 4460TIP3    H113337   5.038   6.501   3.844
 4460TIP3    H213338   5.034   6.638   3.907
 4461TIP3   OH213339   5.904   0.979   2.852
 4461TIP3    H113340   5.842   0.977   2.926
 4461TIP3    H213341   5.921   0.887   2.833
 4462TIP3   OH213342   1.829   6.784   2.501
 4462TIP3    H113343   1.848   6.717   2.435
 4462TIP3    H213344   1.861   6.865   2.463
 4463TIP3   OH213345   0.730   0.670   6.017
 4463TIP3    H113346   0.684   0.643   6.097
 4463TIP3    H213347   0.823   0.671   6.042
 4464TIP3   OH213348   1.829   4.773   4.198
 4464TIP3    H113349   1.837   4.860   4.237
 4464TIP3    H213350   1.909   4.727   4.226
 4465TIP3   OH213351   7.537   4.785   3.475
 4465TIP3    H113352   7.510   4.793   3.383
 4465TIP3    H213353   7.625   4.747   3.471
 4466TIP3   OH213354   4.856   0.530   3.505
 4466TIP3    H113355   4.827   0.619   3.526
 4466TIP3    H213356   4.935   0.542   3.453
 4467TIP3   OH213357   3.567   7.535   4.008
 4467TIP3    H113358   3.623   7.469   3.966
 4467TIP3    H213359   3.544   7.497   4.092
 4468TIP3   OH213360   1.266   0.473   6.802
 4468TIP3    H113361   1.341   0.500   6.749
 4468TIP3    H213362   1.201   0.542   6.788
 4469TIP3   OH213363   5.818   7.598   2.734
 4469TIP3    H113364   5.885   7.642   2.787
 4469TIP3    H213365   5.867   7.557   2.664
 4470TIP3   OH213366   6.906   0.778   0.163
 4470TIP3    H113367   6.852   0.854   0.143
 4470TIP3    H213368   6.966   0.771   0.088
 4471TIP3   OH213369   4.872   4.988   3.449
 4471TIP3    H113370   4.848   4.924   3.516
 4471TIP3    H213371   4.795   5.042   3.437
 4472TIP3   OH213372   2.683   0.839   0.316
 4472TIP3    H113373   2.659   0.900   0.245
 4472TIP3    H213374   2.636   0.872   0.393
 4473TIP3   OH213375   1.685   5.146   5.251
 4473TIP3    H113376   1.612   5.171   5.195
 4473TIP3    H213377   1.728   5.229   5.273
 4474TIP3   OH213378   2.134   6.258   6.743
 4474TIP3    H113379   2.038   6.256   6.734
 4474TIP3    H213380   2.166   6.244   6.654
 4475TIP3   OH213381   1.909   3.860   2.774
 4475TIP3    H113382   1.957   3.904   2.704
 4475TIP3    H213383   1.896   3.928   2.841
 4476TIP3   OH213384   6.578   6.511   1.407
 4476TIP3    H113385   6.512   6.442   1.408
 4476TIP3    H213386   6.578   6.546   1.496
 4477TIP3   OH213387   0.851   5.955   2.618
 4477TIP3    H113388   0.756   5.940   2.613
 4477TIP3    H213389   0.859   6.038   2.666
 4478TIP3   OH213390   0.065   5.941   0.334
 4478TIP3    H113391   0.112   5.970   0.412
 4478TIP3    H213392   0.030   6.022   0.297
 4479TIP3   OH213393   3.305   7.429   5.375
 4479TIP3    H113394   3.329   7.358   5.316
 4479TIP3    H213395   3.211   7.441   5.361
 4480TIP3   OH213396   6.638   5.286   1.033
 4480TIP3    H113397   6.692   5.279   1.111
 4480TIP3    H213398   6.548   5.294   1.066
 4481TIP3   OH213399   4.599   1.213   4.877
 4481TIP3    H113400   4.617   1.142   4.816
 4481TIP3    H213401   4.615   1.293   4.826
 4482TIP3   OH213402   0.811   5.775   4.976
 4482TIP3    H113403   0.757   5.741   4.905
 4482TIP3    H213404   0.875   5.832   4.932
 4483TIP3   OH213405   2.048   6.227   4.174
 4483TIP3    H113406   2.106   6.181   4.235
 4483TIP3    H213407   2.049   6.173   4.095
 4484TIP3   OH213408   1.497   3.237   6.293
 4484TIP3    H113409   1.471   3.270   6.207
 4484TIP3    H213410   1.544   3.155   6.275
 4485TIP3   OH213411   5.309   1.914   5.231
 4485TIP3    H113412   5.236   1.967   5.199
 4485TIP3    H213413   5.279   1.880   5.315
 4486TIP3   OH213414   7.958   7.155   2.899
 4486TIP3    H113415   7.903   7.170   2.976
 4486TIP3    H213416   7.984   7.064   2.905
 4487TIP3   OH213417   5.848   6.815   3.597
 4487TIP3    H113418   5.884   6.868   3.668
 4487TIP3    H213419   5.879   6.859   3.517
 4488TIP3   OH213420   8.010   7.786   0.110
 4488TIP3    H113421   8.073   7.720   0.141
 4488TIP3    H213422   7.944   7.791   0.179
 4489TIP3   OH213423   4.544   4.443   2.971
 4489TIP3    H113424   4.551   4.519   3.028
 4489TIP3    H213425   4.450   4.428   2.961
 4490TIP3   OH213426   4.811   6.245   4.013
 4490TIP3    H113427   4.774   6.217   3.930
 4490TIP3    H213428   4.905   6.252   3.997
 4491TIP3   OH213429   6.976   1.510   1.020
 4491TIP3    H113430   6.992   1.532   0.928
 4491TIP3    H213431   6.972   1.594   1.065
 4492TIP3   OH213432   3.375   5.167   4.270
 4492TIP3    H113433   3.371   5.086   4.322
 4492TIP3    H213434   3.341   5.235   4.329
 4493TIP3   OH213435   1.228   2.224   5.440
 4493TIP3    H113436   1.170   2.296   5.466
 4493TIP3    H213437   1.176   2.145   5.456
 4494TIP3   OH213438   3.815   2.930   4.722
 4494TIP3    H113439   3.733   2.886   4.701
 4494TIP3    H213440   3.800   2.968   4.809
 4495TIP3   OH213441   1.802   4.148   5.147
 4495TIP3    H113442   1.773   4.217   5.087
 4495TIP3    H213443   1.733   4.081   5.141
 4496TIP3   OH213444   0.892   1.917   2.631
 4496TIP3    H113445   0.859   1.854   2.567
 4496TIP3    H213446   0.985   1.896   2.640
 4497TIP3   OH213447   0.146   6.717   3.140
 4497TIP3    H113448   0.172   6.764   3.061
 4497TIP3    H213449   0.057   6.688   3.123
 4498TIP3   OH213450   2.469   6.142   2.848
 4498TIP3    H113451   2.390   6.132   2.902
 4498TIP3    H213452   2.458   6.076   2.779
 4499TIP3   OH213453   3.077   2.295   4.081
 4499TIP3    H113454   3.094   2.216   4.030
 4499TIP3    H213455   3.083   2.267   4.172
 4500TIP3   OH213456   1.100   7.481   2.394
 4500TIP3    H113457   1.039   7.420   2.436
 4500TIP3    H213458   1.183   7.433   2.389
 4501TIP3   OH213459   1.213   7.097   2.417
 4501TIP3    H113460   1.151   7.049   2.362
 4501TIP3    H213461   1.251   7.162   2.358
 4502TIP3   OH213462   7.987   5.447   2.052
 4502TIP3    H113463   7.901   5.461   2.091
 4502TIP3    H213464   7.999   5.520   1.991
 4503TIP3   OH213465   5.736   3.357   3.945
 4503TIP3    H113466   5.674   3.287   3.964
 4503TIP3    H213467   5.686   3.438   3.955
 4504TIP3   OH213468   1.961   2.868   3.055
 4504TIP3    H113469   1.989   2.927   3.125
 4504TIP3    H213470   1.910   2.800   3.100
 4505TIP3   OH213471   4.263   4.317   3.280
 4505TIP3    H113472   4.323   4.288   3.349
 4505TIP3    H213473   4.295   4.404   3.256
 4506TIP3   OH213474   5.257   6.371   5.047
 4506TIP3    H113475   5.170   6.370   5.086
 4506TIP3    H213476   5.272   6.462   5.022
 4507TIP3   OH213477   6.769   0.740   1.620
 4507TIP3    H113478   6.741   0.831   1.623
 4507TIP3    H213479   6.719   0.701   1.548
 4508TIP3   OH213480   4.554   6.678   3.596
 4508TIP3    H113481   4.499   6.701   3.671
 4508TIP3    H213482   4.628   6.632   3.635
 4509TIP3   OH213483   5.906   0.207   1.654
 4509TIP3    H113484   5.873   0.134   1.601
 4509TIP3    H213485   5.856   0.283   1.624
 4510TIP3   OH213486   1.929   4.428   6.050
 4510TIP3    H113487   1.938   4.510   6.003
 4510TIP3    H213488   1.934   4.361   5.982
 4511TIP3   OH213489   4.543   2.524   4.676
 4511TIP3    H113490   4.493   2.491   4.750
 4511TIP3    H213491   4.629   2.545   4.712
 4512TIP3   OH213492   2.060   5.245   2.444
 4512TIP3    H113493   2.034   5.168   2.494
 4512TIP3    H213494   2.125   5.289   2.499
 4513TIP3   OH213495   3.373   0.208   2.053
 4513TIP3    H113496   3.343   0.298   2.067
 4513TIP3    H213497   3.386   0.172   2.140
 4514TIP3   OH213498   2.153   5.958   6.414
 4514TIP3    H113499   2.110   5.877   6.440
 4514TIP3    H213500   2.143   5.961   6.319
 4515TIP3   OH213501   6.866   7.571   5.664
 4515TIP3    H113502   6.883   7.478   5.680
 4515TIP3    H213503   6.950   7.606   5.633
 4516TIP3   OH213504   2.136   3.286   2.717
 4516TIP3    H113505   2.118   3.263   2.626
 4516TIP3    H213506   2.083   3.363   2.734
 4517TIP3   OH213507   6.862   7.501   4.259
 4517TIP3    H113508   6.937   7.534   4.209
 4517TIP3    H213509   6.899   7.476   4.343
 4518TIP3   OH213510   2.577   4.250   1.076
 4518TIP3    H113511   2.573   4.227   0.984
 4518TIP3    H213512   2.540   4.338   1.081
 4519TIP3   OH213513   3.191   0.761   5.444
 4519TIP3    H113514   3.210   0.838   5.498
 4519TIP3    H213515   3.096   0.748   5.453
 4520TIP3   OH213516   4.539   6.436   6.450
 4520TIP3    H113517   4.453   6.398   6.435
 4520TIP3    H213518   4.524   6.530   6.455
 4521TIP3   OH213519   2.499   1.593   6.271
 4521TIP3    H113520   2.500   1.511   6.321
 4521TIP3    H213521   2.564   1.580   6.202
 4522TIP3   OH213522   2.253   4.496   4.466
 4522TIP3    H113523   2.173   4.548   4.469
 4522TIP3    H213524   2.321   4.555   4.500
 4523TIP3   OH213525   8.225   5.828   1.647
 4523TIP3    H113526   8.155   5.787   1.699
 4523TIP3    H213527   8.181   5.898   1.599
 4524TIP3   OH213528   3.034   0.673   3.945
 4524TIP3    H113529   3.114   0.628   3.970
 4524TIP3    H213530   3.036   0.675   3.849
 4525TIP3   OH213531   6.798   7.056   6.354
 4525TIP3    H113532   6.819   6.969   6.320
 4525TIP3    H213533   6.793   7.112   6.276
 4526TIP3   OH213534   5.099   1.111   6.012
 4526TIP3    H113535   5.042   1.109   5.935
 4526TIP3    H213536   5.047   1.069   6.081
 4527TIP3   OH213537   6.608   6.129   2.388
 4527TIP3    H113538   6.670   6.068   2.348
 4527TIP3    H213539   6.597   6.098   2.478
 4528TIP3   OH213540   1.696   1.525   3.264
 4528TIP3    H113541   1.606   1.503   3.240
 4528TIP3    H213542   1.715   1.605   3.215
 4529TIP3   OH213543   0.599   3.295   6.619
 4529TIP3    H113544   0.650   3.250   6.552
 4529TIP3    H213545   0.652   3.289   6.698
 4530TIP3   OH213546   6.382   0.545   5.914
 4530TIP3    H113547   6.462   0.596   5.909
 4530TIP3    H213548   6.411   0.455   5.929
 4531TIP3   OH213549   2.511   2.685   0.627
 4531TIP3    H113550   2.430   2.725   0.595
 4531TIP3    H213551   2.505   2.692   0.722
 4532TIP3   OH213552   8.030   1.879   0.703
 4532TIP3    H113553   8.074   1.884   0.788
 4532TIP3    H213554   8.057   1.795   0.666
 4533TIP3   OH213555   2.800   6.075   0.070
 4533TIP3    H113556   2.769   6.067   0.160
 4533TIP3    H213557   2.857   6.000   0.058
 4534TIP3   OH213558   1.919   4.474   3.982
 4534TIP3    H113559   1.996   4.432   4.021
 4534TIP3    H213560   1.951   4.558   3.951
 4535TIP3   OH213561   6.503   4.524   1.388
 4535TIP3    H113562   6.416   4.510   1.352
 4535TIP3    H213563   6.541   4.594   1.334
 4536TIP3   OH213564   3.079   5.462   0.519
 4536TIP3    H113565   3.173   5.468   0.538
 4536TIP3    H213566   3.073   5.468   0.424
 4537TIP3   OH213567   6.129   3.196   2.604
 4537TIP3    H113568   6.060   3.131   2.614
 4537TIP3    H213569   6.208   3.153   2.636
 4538TIP3   OH213570   5.765   6.388   1.354
 4538TIP3    H113571   5.728   6.305   1.323
 4538TIP3    H213572   5.731   6.454   1.293
 4539TIP3   OH213573   7.543   2.706   1.316
 4539TIP3    H113574   7.619   2.720   1.259
 4539TIP3    H213575   7.537   2.786   1.368
 4540TIP3   OH213576   0.251   6.577   0.907
 4540TIP3    H113577   0.304   6.630   0.966
 4540TIP3    H213578   0.268   6.614   0.820
 4541TIP3   OH213579   6.130   3.129   5.726
 4541TIP3    H113580   6.084   3.052   5.693
 4541TIP3    H213581   6.064   3.199   5.724
 4542TIP3   OH213582   7.687   5.919   2.810
 4542TIP3    H113583   7.672   5.943   2.719
 4542TIP3    H213584   7.731   5.994   2.849
 4543TIP3   OH213585   3.604   4.027   2.085
 4543TIP3    H113586   3.615   3.961   2.154
 4543TIP3    H213587   3.689   4.071   2.081
 4544TIP3   OH213588   5.181   1.461   5.263
 4544TIP3    H113589   5.253   1.430   5.208
 4544TIP3    H213590   5.213   1.448   5.353
 4545TIP3   OH213591   5.976   7.178   0.407
 4545TIP3    H113592   5.958   7.263   0.447
 4545TIP3    H213593   5.908   7.120   0.440
 4546TIP3   OH213594   3.240   3.060   4.471
 4546TIP3    H113595   3.195   2.993   4.522
 4546TIP3    H213596   3.170   3.119   4.442
 4547TIP3   OH213597   2.959   7.031   3.613
 4547TIP3    H113598   2.865   7.047   3.623
 4547TIP3    H213599   2.967   6.996   3.524
 4548TIP3   OH213600   3.326   0.040   2.335
 4548TIP3    H113601   3.366   0.060   2.419
 4548TIP3    H213602   3.235   0.019   2.355
 4549TIP3   OH213603   5.848   2.907   1.279
 4549TIP3    H113604   5.758   2.876   1.268
 4549TIP3    H213605   5.889   2.843   1.338
 4550TIP3   OH213606   5.850   7.387   4.333
 4550TIP3    H113607   5.817   7.476   4.318
 4550TIP3    H213608   5.771   7.333   4.338
 4551TIP3   OH213609   3.044   0.427   6.597
 4551TIP3    H113610   3.006   0.510   6.626
 4551TIP3    H213611   3.115   0.410   6.658
 4552TIP3   OH213612   2.198   2.992   3.204
 4552TIP3    H113613   2.217   2.936   3.129
 4552TIP3    H213614   2.226   3.079   3.175
 4553TIP3   OH213615   5.923   2.388   0.183
 4553TIP3    H113616   5.935   2.294   0.193
 4553TIP3    H213617   6.002   2.418   0.138
 4554TIP3   OH213618   4.220   3.303   5.521
 4554TIP3    H113619   4.158   3.343   5.460
 4554TIP3    H213620   4.284   3.258   5.465
 4555TIP3   OH213621   8.041   4.651   5.230
 4555TIP3    H113622   8.122   4.643   5.180
 4555TIP3    H213623   8.059   4.722   5.292
 4556TIP3   OH213624   7.072   1.665   1.384
 4556TIP3    H113625   7.063   1.739   1.444
 4556TIP3    H213626   6.986   1.657   1.342
 4557TIP3   OH213627   1.759   5.052   4.252
 4557TIP3    H113628   1.707   5.129   4.230
 4557TIP3    H213629   1.850   5.080   4.243
 4558TIP3   OH213630   3.883   2.779   1.601
 4558TIP3    H113631   3.859   2.871   1.607
 4558TIP3    H213632   3.915   2.768   1.511
 4559TIP3   OH213633   2.177   3.668   2.100
 4559TIP3    H113634   2.249   3.703   2.047
 4559TIP3    H213635   2.200   3.576   2.112
 4560TIP3   OH213636   2.672   7.820   2.721
 4560TIP3    H113637   2.581   7.803   2.744
 4560TIP3    H213638   2.722   7.756   2.771
 4561TIP3   OH213639   3.384   4.457   5.812
 4561TIP3    H113640   3.306   4.440   5.866
 4561TIP3    H213641   3.444   4.386   5.833
 4562TIP3   OH213642   1.375   6.025   0.142
 4562TIP3    H113643   1.320   5.980   0.207
 4562TIP3    H213644   1.339   5.998   0.057
 4563TIP3   OH213645   6.095   3.420   6.259
 4563TIP3    H113646   6.123   3.485   6.323
 4563TIP3    H213647   6.049   3.353   6.311
 4564TIP3   OH213648   1.076  -0.001   2.758
 4564TIP3    H113649   1.030  -0.085   2.768
 4564TIP3    H213650   1.040   0.037   2.679
 4565TIP3   OH213651   7.805   6.843   0.187
 4565TIP3    H113652   7.789   6.937   0.181
 4565TIP3    H213653   7.899   6.833   0.173
 4566TIP3   OH213654   5.965   5.495   2.484
 4566TIP3    H113655   5.929   5.410   2.511
 4566TIP3    H213656   5.946   5.553   2.558
 4567TIP3   OH213657   7.920   3.018   6.224
 4567TIP3    H113658   7.869   2.978   6.153
 4567TIP3    H213659   7.879   3.104   6.238
 4568TIP3   OH213660   2.963   5.384   3.250
 4568TIP3    H113661   2.953   5.443   3.176
 4568TIP3    H213662   2.953   5.296   3.212
 4569TIP3   OH213663   1.245   3.596   2.374
 4569TIP3    H113664   1.273   3.505   2.365
 4569TIP3    H213665   1.325   3.642   2.400
 4570TIP3   OH213666   5.369   7.684   6.030
 4570TIP3    H113667   5.282   7.683   6.068
 4570TIP3    H213668   5.412   7.606   6.067
 4571TIP3   OH213669   3.021   3.168   3.456
 4571TIP3    H113670   2.994   3.081   3.427
 4571TIP3    H213671   2.961   3.189   3.528
 4572TIP3   OH213672   5.763   2.368   5.762
 4572TIP3    H113673   5.703   2.313   5.711
 4572TIP3    H213674   5.842   2.372   5.708
 4573TIP3   OH213675   6.534   5.099   0.867
 4573TIP3    H113676   6.471   5.153   0.819
 4573TIP3    H213677   6.576   5.159   0.928
 4574TIP3   OH213678   0.858   6.818   3.219
 4574TIP3    H113679   0.782   6.794   3.165
 4574TIP3    H213680   0.856   6.914   3.221
 4575TIP3   OH213681   4.350   5.419   4.095
 4575TIP3    H113682   4.367   5.480   4.023
 4575TIP3    H213683   4.433   5.411   4.140
 4576TIP3   OH213684   7.745   1.769   3.276
 4576TIP3    H113685   7.660   1.806   3.299
 4576TIP3    H213686   7.739   1.678   3.306
 4577TIP3   OH213687   1.531   2.554   2.136
 4577TIP3    H113688   1.588   2.631   2.143
 4577TIP3    H213689   1.480   2.569   2.056
 4578TIP3   OH213690   5.320   2.304   3.583
 4578TIP3    H113691   5.255   2.360   3.541
 4578TIP3    H213692   5.301   2.311   3.677
 4579TIP3   OH213693   6.550   3.146   6.573
 4579TIP3    H113694   6.463   3.149   6.533
 4579TIP3    H213695   6.549   3.067   6.627
 4580TIP3   OH213696   2.970   6.658   2.990
 4580TIP3    H113697   2.908   6.603   3.039
 4580TIP3    H213698   2.937   6.656   2.901
 4581TIP3   OH213699   8.166   1.345   1.891
 4581TIP3    H113700   8.101   1.277   1.905
 4581TIP3    H213701   8.240   1.301   1.848
 4582TIP3   OH213702   4.706   5.073   2.971
 4582TIP3    H113703   4.730   4.980   2.964
 4582TIP3    H213704   4.733   5.111   2.888
 4583TIP3   OH213705   1.761   4.500   4.225
 4583TIP3    H113706   1.794   4.577   4.180
 4583TIP3    H213707   1.789   4.426   4.170
 4584TIP3   OH213708   3.086   2.599   1.454
 4584TIP3    H113709   3.030   2.525   1.475
 4584TIP3    H213710   3.172   2.576   1.491
 4585TIP3   OH213711   1.682   4.554   0.547
 4585TIP3    H113712   1.609   4.513   0.595
 4585TIP3    H213713   1.761   4.520   0.590
 4586TIP3   OH213714   6.303   3.595   3.743
 4586TIP3    H113715   6.214   3.585   3.710
 4586TIP3    H213716   6.307   3.686   3.773
 4587TIP3   OH213717   1.493   7.128   6.139
 4587TIP3    H113718   1.508   7.123   6.233
 4587TIP3    H213719   1.556   7.068   6.100
 4588TIP3   OH213720   1.582   5.486   1.741
 4588TIP3    H113721   1.539   5.419   1.794
 4588TIP3    H213722   1.514   5.515   1.680
 4589TIP3   OH213723   3.618   6.289   1.919
 4589TIP3    H113724   3.704   6.325   1.896
 4589TIP3    H213725   3.634   6.195   1.931
 4590TIP3   OH213726   6.333   4.786   6.734
 4590TIP3    H113727   6.371   4.747   6.654
 4590TIP3    H213728   6.376   4.871   6.742
 4591TIP3   OH213729   4.416   4.337   4.037
 4591TIP3    H113730   4.398   4.333   3.942
 4591TIP3    H213731   4.355   4.274   4.075
 4592TIP3   OH213732   3.288   5.006   4.943
 4592TIP3    H113733   3.220   4.945   4.975
 4592TIP3    H213734   3.270   5.015   4.849
 4593TIP3   OH213735   7.020   5.738   5.188
 4593TIP3    H113736   6.949   5.728   5.252
 4593TIP3    H213737   6.984   5.794   5.120
 4594TIP3   OH213738   8.201   6.011   1.005
 4594TIP3    H113739   8.107   6.003   0.987
 4594TIP3    H213740   8.206   6.030   1.099
 4595TIP3   OH213741   0.341   5.003   4.437
 4595TIP3    H113742   0.346   5.055   4.357
 4595TIP3    H213743   0.290   5.056   4.498
 4596TIP3   OH213744   6.591   0.024   6.181
 4596TIP3    H113745   6.496   0.017   6.172
 4596TIP3    H213746   6.624   0.013   6.092
 4597TIP3   OH213747   1.686   5.879   3.790
 4597TIP3    H113748   1.770   5.855   3.831
 4597TIP3    H213749   1.620   5.840   3.848
 4598TIP3   OH213750   3.584   4.786   1.796
 4598TIP3    H113751   3.549   4.874   1.815
 4598TIP3    H213752   3.633   4.797   1.714
 4599TIP3   OH213753   7.304   3.769   1.266
 4599TIP3    H113754   7.375   3.738   1.323
 4599TIP3    H213755   7.228   3.775   1.324
 4600TIP3   OH213756   4.286   3.325   2.774
 4600TIP3    H113757   4.381   3.331   2.767
 4600TIP3    H213758   4.260   3.265   2.704
 4601TIP3   OH213759   7.226   1.684   3.983
 4601TIP3    H113760   7.290   1.616   4.003
 4601TIP3    H213761   7.156   1.637   3.936
 4602TIP3   OH213762   7.587   6.720   4.475
 4602TIP3    H113763   7.650   6.771   4.525
 4602TIP3    H213764   7.576   6.639   4.525
 4603TIP3   OH213765   3.731   1.368   2.507
 4603TIP3    H113766   3.773   1.282   2.514
 4603TIP3    H213767   3.775   1.421   2.573
 4604TIP3   OH213768   7.245   6.717   2.628
 4604TIP3    H113769   7.203   6.715   2.542
 4604TIP3    H213770   7.304   6.642   2.628
 4605TIP3   OH213771   6.769   4.877   3.881
 4605TIP3    H113772   6.861   4.891   3.903
 4605TIP3    H213773   6.764   4.895   3.787
 4606TIP3   OH213774   6.332   5.652   2.360
 4606TIP3    H113775   6.280   5.574   2.379
 4606TIP3    H213776   6.321   5.666   2.266
 4607TIP3   OH213777   6.605   1.244   1.473
 4607TIP3    H113778   6.557   1.307   1.418
 4607TIP3    H213779   6.669   1.298   1.520
 4608TIP3   OH213780   4.355   3.744   4.821
 4608TIP3    H113781   4.440   3.768   4.859
 4608TIP3    H213782   4.310   3.697   4.892
 4609TIP3   OH213783   6.464   2.755   5.006
 4609TIP3    H113784   6.396   2.729   5.069
 4609TIP3    H213785   6.463   2.686   4.940
 4610TIP3   OH213786   5.085   7.171   4.487
 4610TIP3    H113787   5.050   7.239   4.429
 4610TIP3    H213788   5.019   7.102   4.486
 4611TIP3   OH213789   7.573   4.425   6.773
 4611TIP3    H113790   7.557   4.339   6.734
 4611TIP3    H213791   7.668   4.433   6.774
 4612TIP3   OH213792   0.232   5.403   5.202
 4612TIP3    H113793   0.218   5.326   5.148
 4612TIP3    H213794   0.315   5.439   5.172
 4613TIP3   OH213795   8.208   5.490   1.360
 4613TIP3    H113796   8.114   5.505   1.347
 4613TIP3    H213797   8.229   5.416   1.303
 4614TIP3   OH213798   0.898   2.969   3.218
 4614TIP3    H113799   0.883   2.957   3.125
 4614TIP3    H213800   0.984   3.011   3.224
 4615TIP3   OH213801   5.296   1.853   4.628
 4615TIP3    H113802   5.348   1.782   4.591
 4615TIP3    H213803   5.250   1.891   4.552
 4616TIP3   OH213804   0.780   0.239   5.721
 4616TIP3    H113805   0.822   0.309   5.670
 4616TIP3    H213806   0.811   0.158   5.681
 4617TIP3   OH213807   5.336   1.254   5.587
 4617TIP3    H113808   5.241   1.243   5.586
 4617TIP3    H213809   5.358   1.271   5.679
 4618TIP3   OH213810   0.399   0.702   5.912
 4618TIP3    H113811   0.376   0.618   5.871
 4618TIP3    H213812   0.494   0.710   5.897
 4619TIP3   OH213813   3.744   7.481   1.465
 4619TIP3    H113814   3.695   7.429   1.402
 4619TIP3    H213815   3.685   7.491   1.539
 4620TIP3   OH213816   8.289   4.508   0.996
 4620TIP3    H113817   8.198   4.510   1.025
 4620TIP3    H213818   8.294   4.429   0.941
 4621TIP3   OH213819   7.294   6.589   2.308
 4621TIP3    H113820   7.269   6.547   2.226
 4621TIP3    H213821   7.211   6.618   2.347
 4622TIP3   OH213822   7.097   0.001   6.100
 4622TIP3    H113823   7.171  -0.005   6.161
 4622TIP3    H213824   7.114  -0.067   6.035
 4623TIP3   OH213825   7.548   5.460   1.852
 4623TIP3    H113826   7.608   5.399   1.809
 4623TIP3    H213827   7.570   5.546   1.814
 4624TIP3   OH213828   5.500   6.960   1.481
 4624TIP3    H113829   5.592   6.935   1.484
 4624TIP3    H213830   5.484   6.982   1.390
 4625TIP3   OH213831   1.059   5.343   1.500
 4625TIP3    H113832   0.966   5.327   1.482
 4625TIP3    H213833   1.105   5.279   1.445
 4626TIP3   OH213834   2.321   0.444   1.196
 4626TIP3    H113835   2.305   0.445   1.101
 4626TIP3    H213836   2.273   0.367   1.227
 4627TIP3   OH213837   5.562   7.248   5.448
 4627TIP3    H113838   5.582   7.292   5.531
 4627TIP3    H213839   5.486   7.193   5.468
 4628TIP3   OH213840   6.044   1.268   2.294
 4628TIP3    H113841   5.971   1.263   2.355
 4628TIP3    H213842   6.122   1.256   2.348
 4629TIP3   OH213843   0.763   7.403   3.321
 4629TIP3    H113844   0.779   7.318   3.362
 4629TIP3    H213845   0.671   7.398   3.293
 4630TIP3   OH213846   1.919   5.586   0.164
 4630TIP3    H113847   1.936   5.492   0.175
 4630TIP3    H213848   1.974   5.611   0.090
 4631TIP3   OH213849   7.925   4.422   0.259
 4631TIP3    H113850   8.010   4.443   0.297
 4631TIP3    H213851   7.902   4.337   0.296
 4632TIP3   OH213852   2.464   3.177   3.440
 4632TIP3    H113853   2.483   3.162   3.533
 4632TIP3    H213854   2.369   3.184   3.436
 4633TIP3   OH213855   7.460   3.085   2.783
 4633TIP3    H113856   7.516   3.014   2.815
 4633TIP3    H213857   7.500   3.112   2.700
 4634TIP3   OH213858   4.194   2.040   3.457
 4634TIP3    H113859   4.272   2.031   3.512
 4634TIP3    H213860   4.150   1.956   3.463
 4635TIP3   OH213861   2.979   6.279   3.697
 4635TIP3    H113862   2.958   6.185   3.703
 4635TIP3    H213863   3.041   6.295   3.768
 4636TIP3   OH213864   0.029   4.346   1.515
 4636TIP3    H113865  -0.024   4.269   1.495
 4636TIP3    H213866   0.087   4.317   1.586
 4637TIP3   OH213867   4.455   1.216   4.595
 4637TIP3    H113868   4.520   1.150   4.621
 4637TIP3    H213869   4.391   1.216   4.666
 4638TIP3   OH213870   4.904   1.565   6.587
 4638TIP3    H113871   4.854   1.559   6.506
 4638TIP3    H213872   4.902   1.658   6.610
 4639TIP3   OH213873   0.223   1.274   4.795
 4639TIP3    H113874   0.138   1.229   4.795
 4639TIP3    H213875   0.242   1.287   4.702
 4640TIP3   OH213876   2.844   5.546   3.896
 4640TIP3    H113877   2.921   5.491   3.890
 4640TIP3    H213878   2.864   5.623   3.843
 4641TIP3   OH213879   0.191   6.676   3.398
 4641TIP3    H113880   0.103   6.646   3.422
 4641TIP3    H213881   0.181   6.708   3.308
 4642TIP3   OH213882   6.673   2.657   1.492
 4642TIP3    H113883   6.628   2.577   1.521
 4642TIP3    H213884   6.728   2.681   1.566
 4643TIP3   OH213885   5.648   2.011   1.703
 4643TIP3    H113886   5.742   2.019   1.688
 4643TIP3    H213887   5.630   1.918   1.689
 4644TIP3   OH213888   0.203   4.747   3.428
 4644TIP3    H113889   0.160   4.818   3.475
 4644TIP3    H213890   0.258   4.705   3.494
 4645TIP3   OH213891   5.241   1.349   3.936
 4645TIP3    H113892   5.268   1.370   4.026
 4645TIP3    H213893   5.235   1.254   3.934
 4646TIP3   OH213894   3.023   3.321   1.774
 4646TIP3    H113895   3.067   3.242   1.803
 4646TIP3    H213896   2.933   3.312   1.805
 4647TIP3   OH213897   1.944   2.277   1.914
 4647TIP3    H113898   1.877   2.329   1.959
 4647TIP3    H213899   1.910   2.265   1.826
 4648TIP3   OH213900   4.630   2.221   6.628
 4648TIP3    H113901   4.540   2.251   6.613
 4648TIP3    H213902   4.661   2.274   6.701
 4649TIP3   OH213903   4.097   0.331   0.879
 4649TIP3    H113904   4.136   0.389   0.814
 4649TIP3    H213905   4.062   0.390   0.946
 4650TIP3   OH213906   7.203   5.158   4.004
 4650TIP3    H113907   7.254   5.157   3.922
 4650TIP3    H213908   7.138   5.088   3.993
 4651TIP3   OH213909   7.668   7.279   1.584
 4651TIP3    H113910   7.573   7.271   1.575
 4651TIP3    H213911   7.685   7.373   1.581
 4652TIP3   OH213912   2.210   3.977   1.846
 4652TIP3    H113913   2.179   3.917   1.778
 4652TIP3    H213914   2.273   3.925   1.896
 4653TIP3   OH213915   4.616   1.716   1.402
 4653TIP3    H113916   4.540   1.775   1.405
 4653TIP3    H213917   4.669   1.748   1.329
 4654TIP3   OH213918   0.087   0.780   2.953
 4654TIP3    H113919   0.166   0.737   2.988
 4654TIP3    H213920   0.032   0.795   3.030
 4655TIP3   OH213921   8.092   2.021   5.820
 4655TIP3    H113922   8.090   1.956   5.749
 4655TIP3    H213923   8.003   2.055   5.824
 4656TIP3   OH213924   1.514   0.621   5.432
 4656TIP3    H113925   1.459   0.653   5.360
 4656TIP3    H213926   1.552   0.539   5.398
 4657TIP3   OH213927   1.731   4.028   0.817
 4657TIP3    H113928   1.643   4.027   0.854
 4657TIP3    H213929   1.721   4.070   0.731
 4658TIP3   OH213930   3.376   4.643   1.506
 4658TIP3    H113931   3.386   4.619   1.414
 4658TIP3    H213932   3.433   4.582   1.553
 4659TIP3   OH213933   3.229   0.310   6.248
 4659TIP3    H113934   3.143   0.349   6.264
 4659TIP3    H213935   3.210   0.224   6.212
 4660TIP3   OH213936   7.987   2.914   6.464
 4660TIP3    H113937   7.951   2.825   6.465
 4660TIP3    H213938   7.975   2.942   6.373
 4661TIP3   OH213939   6.060   0.804   4.325
 4661TIP3    H113940   6.070   0.796   4.420
 4661TIP3    H213941   6.065   0.899   4.309
 4662TIP3   OH213942   5.397   2.173   6.314
 4662TIP3    H113943   5.481   2.127   6.315
 4662TIP3    H213944   5.397   2.226   6.394
 4663TIP3   OH213945   8.287   2.618   6.531
 4663TIP3    H113946   8.198   2.583   6.532
 4663TIP3    H213947   8.276   2.711   6.511
 4664TIP3   OH213948   4.992   7.203   2.984
 4664TIP3    H113949   4.899   7.183   2.969
 4664TIP3    H213950   4.997   7.221   3.078
 4665TIP3   OH213951   4.354   6.901   0.626
 4665TIP3    H113952   4.403   6.820   0.626
 4665TIP3    H213953   4.378   6.945   0.544
 4666TIP3   OH213954   6.178   2.060   4.394
 4666TIP3    H113955   6.162   2.047   4.300
 4666TIP3    H213956   6.125   2.137   4.417
 4667TIP3   OH213957   1.919   2.011   4.008
 4667TIP3    H113958   1.922   2.089   4.064
 4667TIP3    H213959   1.890   1.941   4.067
 4668TIP3   OH213960   7.269   7.072   0.983
 4668TIP3    H113961   7.317   6.998   1.022
 4668TIP3    H213962   7.333   7.143   0.981
 4669TIP3   OH213963   4.747   4.259   2.434
 4669TIP3    H113964   4.789   4.175   2.420
 4669TIP3    H213965   4.817   4.323   2.429
 4670TIP3   OH213966   3.016   4.383   5.469
 4670TIP3    H113967   2.972   4.468   5.457
 4670TIP3    H213968   3.106   4.406   5.491
 4671TIP3   OH213969   1.065   0.720   1.529
 4671TIP3    H113970   1.146   0.671   1.516
 4671TIP3    H213971   1.086   0.785   1.597
 4672TIP3   OH213972   5.778   3.100   0.662
 4672TIP3    H113973   5.830   3.023   0.637
 4672TIP3    H213974   5.832   3.175   0.637
 4673TIP3   OH213975   3.912   3.213   0.258
 4673TIP3    H113976   3.939   3.192   0.169
 4673TIP3    H213977   3.929   3.307   0.267
 4674TIP3   OH213978   2.282   4.421   3.402
 4674TIP3    H113979   2.242   4.421   3.489
 4674TIP3    H213980   2.375   4.404   3.419
 4675TIP3   OH213981   2.003   5.591   2.513
 4675TIP3    H113982   1.942   5.533   2.559
 4675TIP3    H213983   1.972   5.679   2.531
 4676TIP3   OH213984   7.838   4.650   1.455
 4676TIP3    H113985   7.927   4.672   1.426
 4676TIP3    H213986   7.845   4.560   1.486
 4677TIP3   OH213987   3.479   4.594   5.175
 4677TIP3    H113988   3.518   4.677   5.203
 4677TIP3    H213989   3.393   4.618   5.141
 4678TIP3   OH213990   2.967   1.892   5.347
 4678TIP3    H113991   3.002   1.902   5.258
 4678TIP3    H213992   2.959   1.797   5.358
 4679TIP3   OH213993   0.579   3.403   1.394
 4679TIP3    H113994   0.491   3.372   1.375
 4679TIP3    H213995   0.568   3.466   1.466
 4680TIP3   OH213996   7.818   4.026   5.860
 4680TIP3    H113997   7.883   3.981   5.806
 4680TIP3    H213998   7.735   4.010   5.815
 4681TIP3   OH213999   1.693   6.864   5.560
 4681TIP3    H114000   1.647   6.780   5.563
 4681TIP3    H214001   1.772   6.847   5.510
 4682TIP3   OH214002   2.162   2.780   5.868
 4682TIP3    H114003   2.175   2.871   5.894
 4682TIP3    H214004   2.072   2.760   5.895
 4683TIP3   OH214005   0.087   1.644   3.429
 4683TIP3    H114006   0.052   1.714   3.484
 4683TIP3    H214007   0.042   1.565   3.460
 4684TIP3   OH214008   6.564   1.494   0.782
 4684TIP3    H114009   6.584   1.583   0.810
 4684TIP3    H214010   6.468   1.489   0.784
 4685TIP3   OH214011   6.764   0.120   5.606
 4685TIP3    H114012   6.775   0.207   5.566
 4685TIP3    H214013   6.836   0.114   5.669
 4686TIP3   OH214014   0.479   4.347   1.802
 4686TIP3    H114015   0.574   4.345   1.786
 4686TIP3    H214016   0.440   4.364   1.717
 4687TIP3   OH214017   4.683   0.311   6.083
 4687TIP3    H114018   4.736   0.233   6.097
 4687TIP3    H214019   4.744   0.375   6.046
 4688TIP3   OH214020   2.068   1.453   0.066
 4688TIP3    H114021   2.144   1.463   0.124
 4688TIP3    H214022   2.017   1.382   0.105
 4689TIP3   OH214023   1.590   7.415   2.200
 4689TIP3    H114024   1.681   7.442   2.183
 4689TIP3    H214025   1.563   7.367   2.122
 4690TIP3   OH214026   4.267   3.769   6.131
 4690TIP3    H114027   4.248   3.723   6.213
 4690TIP3    H214028   4.181   3.792   6.096
 4691TIP3   OH214029   8.097   6.439   0.040
 4691TIP3    H114030   8.097   6.471  -0.050
 4691TIP3    H214031   8.155   6.363   0.038
 4692TIP3   OH214032   1.058   0.390   5.833
 4692TIP3    H114033   1.038   0.305   5.871
 4692TIP3    H214034   1.124   0.373   5.767
 4693TIP3   OH214035   3.671   3.432   0.719
 4693TIP3    H114036   3.714   3.516   0.703
 4693TIP3    H214037   3.734   3.367   0.687
 4694TIP3   OH214038   5.916   3.316   2.033
 4694TIP3    H114039   5.867   3.238   2.007
 4694TIP3    H214040   5.963   3.291   2.112
 4695TIP3   OH214041   4.331   1.184   5.905
 4695TIP3    H114042   4.297   1.264   5.946
 4695TIP3    H214043   4.419   1.174   5.941
 4696TIP3   OH214044   5.112   6.285   2.863
 4696TIP3    H114045   5.133   6.318   2.775
 4696TIP3    H214046   5.117   6.190   2.855
 4697TIP3   OH214047   8.332   3.690   5.931
 4697TIP3    H114048   8.263   3.738   5.977
 4697TIP3    H214049   8.304   3.690   5.839
 4698TIP3   OH214050   2.046   4.980   2.549
 4698TIP3    H114051   2.081   4.979   2.460
 4698TIP3    H214052   2.045   4.888   2.575
 4699TIP3   OH214053   1.336   7.158   5.342
 4699TIP3    H114054   1.430   7.157   5.359
 4699TIP3    H214055   1.297   7.126   5.424
 4700TIP3   OH214056   3.765   7.632   0.590
 4700TIP3    H114057   3.704   7.705   0.579
 4700TIP3    H214058   3.781   7.600   0.501
 4701TIP3   OH214059   3.904   3.574   6.687
 4701TIP3    H114060   3.945   3.658   6.705
 4701TIP3    H214061   3.956   3.537   6.615
 4702TIP3   OH214062   4.281   5.564   2.723
 4702TIP3    H114063   4.204   5.618   2.741
 4702TIP3    H214064   4.248   5.474   2.723
 4703TIP3   OH214065   4.618   2.823   6.264
 4703TIP3    H114066   4.557   2.786   6.200
 4703TIP3    H214067   4.685   2.756   6.275
 4704TIP3   OH214068   4.287   0.719   6.265
 4704TIP3    H114069   4.383   0.719   6.276
 4704TIP3    H214070   4.272   0.676   6.181
 4705TIP3   OH214071   8.172   3.238   1.747
 4705TIP3    H114072   8.146   3.317   1.699
 4705TIP3    H214073   8.178   3.267   1.838
 4706TIP3   OH214074   6.322   2.695   2.459
 4706TIP3    H114075   6.331   2.756   2.532
 4706TIP3    H214076   6.245   2.642   2.481
 4707TIP3   OH214077   0.737   1.114   6.398
 4707TIP3    H114078   0.708   1.111   6.306
 4707TIP3    H214079   0.701   1.034   6.437
 4708TIP3   OH214080   5.699   2.502   6.628
 4708TIP3    H114081   5.679   2.413   6.599
 4708TIP3    H214082   5.794   2.509   6.619
 4709TIP3   OH214083   6.376   7.317   2.998
 4709TIP3    H114084   6.441   7.365   3.050
 4709TIP3    H214085   6.306   7.380   2.983
 4710TIP3   OH214086   3.938   3.738   3.397
 4710TIP3    H114087   3.888   3.661   3.424
 4710TIP3    H214088   4.015   3.703   3.352
 4711TIP3   OH214089   5.814   7.293   3.414
 4711TIP3    H114090   5.753   7.321   3.482
 4711TIP3    H214091   5.888   7.255   3.462
 4712TIP3   OH214092   0.163   5.961   4.315
 4712TIP3    H114093   0.172   5.875   4.273
 4712TIP3    H214094   0.103   5.946   4.388
 4713TIP3   OH214095   7.194   5.899   3.558
 4713TIP3    H114096   7.288   5.883   3.550
 4713TIP3    H214097   7.186   5.994   3.566
 4714TIP3   OH214098   0.940   2.799   4.649
 4714TIP3    H114099   1.001   2.758   4.588
 4714TIP3    H214100   0.856   2.757   4.630
 4715TIP3   OH214101   5.277   5.504   4.909
 4715TIP3    H114102   5.328   5.572   4.953
 4715TIP3    H214103   5.301   5.512   4.816
 4716TIP3   OH214104   2.169   5.313   1.568
 4716TIP3    H114105   2.081   5.341   1.543
 4716TIP3    H214106   2.218   5.311   1.486
 4717TIP3   OH214107   7.196   3.265   0.518
 4717TIP3    H114108   7.123   3.320   0.544
 4717TIP3    H214109   7.161   3.208   0.450
 4718TIP3   OH214110   3.359   3.435   5.722
 4718TIP3    H114111   3.366   3.472   5.810
 4718TIP3    H214112   3.308   3.355   5.733
 4719TIP3   OH214113   2.941   2.781   6.688
 4719TIP3    H114114   3.002   2.845   6.653
 4719TIP3    H214115   2.994   2.704   6.708
 4720TIP3   OH214116   0.848   7.473   2.682
 4720TIP3    H114117   0.889   7.540   2.737
 4720TIP3    H214118   0.909   7.399   2.685
 4721TIP3   OH214119   7.457   1.733   4.145
 4721TIP3    H114120   7.380   1.716   4.199
 4721TIP3    H214121   7.457   1.663   4.080
 4722TIP3   OH214122   0.005   4.519   2.398
 4722TIP3    H114123   0.009   4.424   2.394
 4722TIP3    H214124   0.085   4.548   2.354
 4723TIP3   OH214125   6.586   6.198   4.428
 4723TIP3    H114126   6.616   6.150   4.352
 4723TIP3    H214127   6.612   6.289   4.412
 4724TIP3   OH214128   6.673   4.436   2.851
 4724TIP3    H114129   6.685   4.362   2.911
 4724TIP3    H214130   6.680   4.514   2.906
 4725TIP3   OH214131   4.032   7.435   1.793
 4725TIP3    H114132   3.979   7.508   1.825
 4725TIP3    H214133   4.052   7.458   1.702
 4726TIP3   OH214134   2.784   5.072   2.051
 4726TIP3    H114135   2.779   5.006   1.981
 4726TIP3    H214136   2.861   5.048   2.102
 4727TIP3   OH214137   0.480   7.379   5.930
 4727TIP3    H114138   0.397   7.364   5.976
 4727TIP3    H214139   0.534   7.303   5.952
 4728TIP3   OH214140   1.936   6.120   2.996
 4728TIP3    H114141   1.882   6.070   3.057
 4728TIP3    H214142   1.953   6.059   2.924
 4729TIP3   OH214143   0.334   2.725   4.016
 4729TIP3    H114144   0.245   2.757   4.023
 4729TIP3    H214145   0.328   2.648   3.959
 4730TIP3   OH214146   4.691   7.788   2.173
 4730TIP3    H114147   4.622   7.812   2.111
 4730TIP3    H214148   4.663   7.827   2.256
 4731TIP3   OH214149   3.452   6.758   6.135
 4731TIP3    H114150   3.482   6.706   6.060
 4731TIP3    H214151   3.425   6.842   6.097
 4732TIP3   OH214152   6.740   7.476   3.360
 4732TIP3    H114153   6.682   7.466   3.435
 4732TIP3    H214154   6.824   7.442   3.390
 4733TIP3   OH214155   1.350   6.658   0.364
 4733TIP3    H114156   1.298   6.699   0.433
 4733TIP3    H214157   1.371   6.729   0.303
 4734TIP3   OH214158   7.185   3.963   2.904
 4734TIP3    H114159   7.214   3.916   2.982
 4734TIP3    H214160   7.093   3.982   2.920
 4735TIP3   OH214161   3.173   4.752   5.305
 4735TIP3    H114162   3.079   4.745   5.322
 4735TIP3    H214163   3.193   4.676   5.251
 4736TIP3   OH214164   2.311   3.239   6.662
 4736TIP3    H114165   2.217   3.232   6.677
 4736TIP3    H214166   2.351   3.219   6.746
 4737TIP3   OH214167   1.306   2.211   4.823
 4737TIP3    H114168   1.264   2.126   4.806
 4737TIP3    H214169   1.360   2.196   4.900
 4738TIP3   OH214170   1.519   4.062   1.004
 4738TIP3    H114171   1.461   4.006   1.055
 4738TIP3    H214172   1.488   4.151   1.021
 4739TIP3   OH214173   5.141   1.475   3.460
 4739TIP3    H114174   5.097   1.461   3.376
 4739TIP3    H214175   5.116   1.400   3.513
 4740TIP3   OH214176   4.359   7.135   4.842
 4740TIP3    H114177   4.450   7.165   4.844
 4740TIP3    H214178   4.353   7.070   4.912
 4741TIP3   OH214179   0.601   7.514   2.566
 4741TIP3    H114180   0.691   7.523   2.599
 4741TIP3    H214181   0.590   7.420   2.551
 4742TIP3   OH214182   1.604   0.621   3.650
 4742TIP3    H114183   1.537   0.575   3.599
 4742TIP3    H214184   1.621   0.701   3.600
 4743TIP3   OH214185   0.742   2.482   2.030
 4743TIP3    H114186   0.789   2.529   1.960
 4743TIP3    H214187   0.650   2.491   2.006
 4744TIP3   OH214188   5.646   3.670   2.772
 4744TIP3    H114189   5.570   3.702   2.724
 4744TIP3    H214190   5.697   3.749   2.792
 4745TIP3   OH214191   1.928   3.110   5.494
 4745TIP3    H114192   1.923   3.073   5.582
 4745TIP3    H214193   1.902   3.202   5.504
 4746TIP3   OH214194   5.643   6.364   3.772
 4746TIP3    H114195   5.578   6.346   3.703
 4746TIP3    H214196   5.672   6.454   3.754
 4747TIP3   OH214197   2.355   7.769   2.712
 4747TIP3    H114198   2.381   7.822   2.788
 4747TIP3    H214199   2.277   7.722   2.742
 4748TIP3   OH214200   4.879   1.737   5.346
 4748TIP3    H114201   4.890   1.642   5.350
 4748TIP3    H214202   4.788   1.749   5.318
 4749TIP3   OH214203   0.156   7.065   3.115
 4749TIP3    H114204   0.241   7.063   3.158
 4749TIP3    H214205   0.094   7.039   3.183
 4750TIP3   OH214206   2.075   2.883   5.605
 4750TIP3    H114207   2.083   2.848   5.693
 4750TIP3    H214208   2.116   2.969   5.609
 4751TIP3   OH214209   7.069   3.252   4.125
 4751TIP3    H114210   7.058   3.158   4.141
 4751TIP3    H214211   7.022   3.269   4.043
 4752TIP3   OH214212   0.626   7.818   0.595
 4752TIP3    H114213   0.706   7.800   0.546
 4752TIP3    H214214   0.556   7.785   0.540
 4753TIP3   OH214215   2.536   7.176   0.353
 4753TIP3    H114216   2.594   7.100   0.362
 4753TIP3    H214217   2.538   7.217   0.440
 4754TIP3   OH214218   7.743   2.119   3.921
 4754TIP3    H114219   7.658   2.099   3.961
 4754TIP3    H214220   7.807   2.081   3.980
 4755TIP3   OH214221   1.439   1.634   2.401
 4755TIP3    H114222   1.417   1.719   2.364
 4755TIP3    H214223   1.441   1.575   2.326
 4756TIP3   OH214224   5.124   3.457   3.098
 4756TIP3    H114225   5.129   3.551   3.115
 4756TIP3    H214226   5.032   3.435   3.108
 4757TIP3   OH214227   8.223   4.613   3.700
 4757TIP3    H114228   8.299   4.605   3.758
 4757TIP3    H214229   8.229   4.701   3.663
 4758TIP3   OH214230   5.972   0.541   0.139
 4758TIP3    H114231   5.917   0.502   0.207
 4758TIP3    H214232   5.954   0.635   0.145
 4759TIP3   OH214233   2.099   5.959   0.144
 4759TIP3    H114234   2.124   6.045   0.109
 4759TIP3    H214235   2.164   5.941   0.212
 4760TIP3   OH214236   7.567   3.791   3.085
 4760TIP3    H114237   7.580   3.701   3.113
 4760TIP3    H214238   7.638   3.808   3.023
 4761TIP3   OH214239   3.199   0.853   6.019
 4761TIP3    H114240   3.192   0.762   6.049
 4761TIP3    H214241   3.241   0.847   5.933
 4762TIP3   OH214242   5.000   4.677   6.275
 4762TIP3    H114243   4.950   4.665   6.355
 4762TIP3    H214244   4.935   4.672   6.205
 4763TIP3   OH214245   6.598   1.784   0.582
 4763TIP3    H114246   6.668   1.808   0.642
 4763TIP3    H214247   6.609   1.842   0.507
 4764TIP3   OH214248   1.802   1.854   4.211
 4764TIP3    H114249   1.787   1.946   4.233
 4764TIP3    H214250   1.824   1.813   4.294
 4765TIP3   OH214251   1.073   4.489   3.329
 4765TIP3    H114252   1.152   4.519   3.373
 4765TIP3    H214253   1.016   4.566   3.325
 4766TIP3   OH214254   4.073   2.891   5.049
 4766TIP3    H114255   4.061   2.963   5.111
 4766TIP3    H214256   4.167   2.884   5.039
 4767TIP3   OH214257   7.658   6.529   5.758
 4767TIP3    H114258   7.660   6.587   5.834
 4767TIP3    H214259   7.701   6.449   5.788
 4768TIP3   OH214260   5.850   5.111   6.692
 4768TIP3    H114261   5.935   5.071   6.714
 4768TIP3    H214262   5.797   5.098   6.771
 4769TIP3   OH214263   5.805   1.967   3.421
 4769TIP3    H114264   5.882   2.024   3.428
 4769TIP3    H214265   5.798   1.948   3.327
 4770TIP3   OH214266   8.291   0.031   1.141
 4770TIP3    H114267   8.385   0.044   1.149
 4770TIP3    H214268   8.252   0.117   1.156
 4771TIP3   OH214269   2.413   3.900   2.599
 4771TIP3    H114270   2.458   3.933   2.677
 4771TIP3    H214271   2.399   3.807   2.616
 4772TIP3   OH214272   0.646   7.510   5.454
 4772TIP3    H114273   0.604   7.595   5.466
 4772TIP3    H214274   0.611   7.456   5.525
 4773TIP3   OH214275   3.844   3.824   1.302
 4773TIP3    H114276   3.923   3.776   1.277
 4773TIP3    H214277   3.856   3.911   1.264
 4774TIP3   OH214278   4.462   4.125   3.363
 4774TIP3    H114279   4.499   4.161   3.444
 4774TIP3    H214280   4.531   4.135   3.298
 4775TIP3   OH214281   4.574   5.186   6.579
 4775TIP3    H114282   4.661   5.174   6.541
 4775TIP3    H214283   4.574   5.276   6.612
 4776TIP3   OH214284   5.322   2.004   3.422
 4776TIP3    H114285   5.338   2.024   3.514
 4776TIP3    H214286   5.378   2.065   3.374
 4777TIP3   OH214287   6.538   0.114   2.630
 4777TIP3    H114288   6.541   0.063   2.711
 4777TIP3    H214289   6.589   0.193   2.650
 4778TIP3   OH214290   1.298   5.713   2.190
 4778TIP3    H114291   1.357   5.783   2.161
 4778TIP3    H214292   1.356   5.640   2.210
 4779TIP3   OH214293   1.508   2.362   5.221
 4779TIP3    H114294   1.429   2.350   5.169
 4779TIP3    H214295   1.551   2.439   5.183
 4780TIP3   OH214296   2.502   1.727   4.605
 4780TIP3    H114297   2.540   1.711   4.519
 4780TIP3    H214298   2.531   1.815   4.628
 4781TIP3   OH214299   3.512   2.408   4.989
 4781TIP3    H114300   3.423   2.443   4.980
 4781TIP3    H214301   3.547   2.451   5.068
 4782TIP3   OH214302   0.911   0.907   0.570
 4782TIP3    H114303   0.954   0.915   0.484
 4782TIP3    H214304   0.846   0.838   0.558
 4783TIP3   OH214305   1.551   1.138   4.111
 4783TIP3    H114306   1.491   1.078   4.155
 4783TIP3    H214307   1.611   1.167   4.179
 4784TIP3   OH214308   1.595   3.331   0.745
 4784TIP3    H114309   1.645   3.282   0.679
 4784TIP3    H214310   1.621   3.292   0.828
 4785TIP3   OH214311   0.299   7.476   2.227
 4785TIP3    H114312   0.321   7.479   2.133
 4785TIP3    H214313   0.373   7.518   2.270
 4786TIP3   OH214314   6.266   3.161   2.121
 4786TIP3    H114315   6.189   3.173   2.065
 4786TIP3    H214316   6.264   3.068   2.146
 4787TIP3   OH214317   3.554   6.709   4.281
 4787TIP3    H114318   3.531   6.640   4.343
 4787TIP3    H214319   3.638   6.681   4.244
 4788TIP3   OH214320   4.084   7.533   6.500
 4788TIP3    H114321   4.122   7.598   6.441
 4788TIP3    H214322   4.091   7.572   6.587
 4789TIP3   OH214323   7.889   6.858   0.804
 4789TIP3    H114324   7.925   6.770   0.792
 4789TIP3    H214325   7.807   6.844   0.852
 4790TIP3   OH214326   4.389   3.527   1.544
 4790TIP3    H114327   4.409   3.618   1.523
 4790TIP3    H214328   4.374   3.485   1.460
 4791TIP3   OH214329   4.415   6.051   0.689
 4791TIP3    H114330   4.322   6.038   0.669
 4791TIP3    H214331   4.461   5.984   0.640
 4792TIP3   OH214332   4.547   0.141   1.107
 4792TIP3    H114333   4.471   0.196   1.089
 4792TIP3    H214334   4.531   0.061   1.058
 4793TIP3   OH214335   7.477   3.497   0.970
 4793TIP3    H114336   7.491   3.469   1.061
 4793TIP3    H214337   7.392   3.540   0.971
 4794TIP3   OH214338   5.477   2.014   0.990
 4794TIP3    H114339   5.387   2.025   0.957
 4794TIP3    H214340   5.527   1.985   0.913
 4795TIP3   OH214341   3.097   6.595   1.392
 4795TIP3    H114342   3.028   6.623   1.332
 4795TIP3    H214343   3.052   6.578   1.475
 4796TIP3   OH214344   2.309   1.891   2.238
 4796TIP3    H114345   2.265   1.812   2.269
 4796TIP3    H214346   2.368   1.861   2.169
 4797TIP3   OH214347   5.967   6.239   2.358
 4797TIP3    H114348   5.912   6.169   2.324
 4797TIP3    H214349   5.979   6.217   2.450
 4798TIP3   OH214350   7.941   7.161   1.615
 4798TIP3    H114351   7.955   7.100   1.687
 4798TIP3    H214352   7.862   7.209   1.639
 4799TIP3   OH214353   3.824   4.972   6.639
 4799TIP3    H114354   3.732   4.972   6.610
 4799TIP3    H214355   3.873   5.001   6.562
 4800TIP3   OH214356   6.925   7.264   3.061
 4800TIP3    H114357   7.015   7.258   3.093
 4800TIP3    H214358   6.911   7.356   3.042
 4801TIP3   OH214359   1.237   2.539   5.017
 4801TIP3    H114360   1.309   2.573   5.070
 4801TIP3    H214361   1.223   2.450   5.050
 4802TIP3   OH214362   6.398   4.343   2.738
 4802TIP3    H114363   6.484   4.384   2.732
 4802TIP3    H214364   6.381   4.337   2.832
 4803TIP3   OH214365   6.223   6.898   6.030
 4803TIP3    H114366   6.146   6.863   6.075
 4803TIP3    H214367   6.187   6.959   5.965
 4804TIP3   OH214368   4.756   4.765   1.541
 4804TIP3    H114369   4.725   4.721   1.620
 4804TIP3    H214370   4.702   4.729   1.471
 4805TIP3   OH214371   0.591   5.193   5.287
 4805TIP3    H114372   0.637   5.265   5.244
 4805TIP3    H214373   0.498   5.212   5.273
 4806TIP3   OH214374   8.017   7.095   4.304
 4806TIP3    H114375   8.107   7.083   4.334
 4806TIP3    H214376   7.999   7.020   4.247
 4807TIP3   OH214377   3.571   2.784   5.591
 4807TIP3    H114378   3.630   2.851   5.556
 4807TIP3    H214379   3.623   2.704   5.592
 4808TIP3   OH214380   4.021   6.342   4.728
 4808TIP3    H114381   4.106   6.385   4.727
 4808TIP3    H214382   3.996   6.341   4.821
 4809TIP3   OH214383   3.960   2.356   4.238
 4809TIP3    H114384   3.955   2.451   4.238
 4809TIP3    H214385   3.873   2.327   4.211
 4810TIP3   OH214386   1.164   3.253   4.429
 4810TIP3    H114387   1.210   3.169   4.423
 4810TIP3    H214388   1.234   3.318   4.430
 4811TIP3   OH214389   2.049   4.325   4.911
 4811TIP3    H114390   1.966   4.372   4.914
 4811TIP3    H214391   2.082   4.340   4.822
 4812TIP3   OH214392   3.296   3.351   2.589
 4812TIP3    H114393   3.291   3.266   2.547
 4812TIP3    H214394   3.281   3.334   2.682
 4813TIP3   OH214395   6.765   6.338   1.601
 4813TIP3    H114396   6.670   6.334   1.587
 4813TIP3    H214397   6.775   6.389   1.682
 4814TIP3   OH214398   5.860   2.213   0.810
 4814TIP3    H114399   5.885   2.292   0.763
 4814TIP3    H214400   5.821   2.156   0.744
 4815TIP3   OH214401   6.206   3.140   3.264
 4815TIP3    H114402   6.200   3.100   3.350
 4815TIP3    H214403   6.115   3.153   3.236
 4816TIP3   OH214404   2.514   7.556   3.247
 4816TIP3    H114405   2.435   7.578   3.199
 4816TIP3    H214406   2.554   7.640   3.269
 4817TIP3   OH214407   0.474   0.739   2.147
 4817TIP3    H114408   0.401   0.773   2.095
 4817TIP3    H214409   0.457   0.645   2.152
 4818TIP3   OH214410   1.805   0.964   0.950
 4818TIP3    H114411   1.738   0.949   0.883
 4818TIP3    H214412   1.763   1.024   1.012
 4819TIP3   OH214413   6.871   5.565   6.078
 4819TIP3    H114414   6.937   5.630   6.055
 4819TIP3    H214415   6.825   5.548   5.996
 4820TIP3   OH214416   6.213   7.553   2.969
 4820TIP3    H114417   6.210   7.521   2.879
 4820TIP3    H214418   6.121   7.551   2.998
 4821TIP3   OH214419   7.464   6.647   3.167
 4821TIP3    H114420   7.529   6.689   3.223
 4821TIP3    H214421   7.400   6.715   3.149
 4822TIP3   OH214422   3.974   4.380   4.406
 4822TIP3    H114423   3.969   4.467   4.446
 4822TIP3    H214424   4.001   4.322   4.478
 4823TIP3   OH214425   6.412   2.975   5.390
 4823TIP3    H114426   6.408   2.901   5.451
 4823TIP3    H214427   6.496   2.965   5.346
 4824TIP3   OH214428   2.212   6.836   0.366
 4824TIP3    H114429   2.160   6.882   0.300
 4824TIP3    H214430   2.199   6.743   0.346
 4825TIP3   OH214431   4.698   5.928   2.643
 4825TIP3    H114432   4.645   5.855   2.674
 4825TIP3    H214433   4.678   6.000   2.704
 4826TIP3   OH214434   6.971   7.057   2.841
 4826TIP3    H114435   6.918   7.121   2.888
 4826TIP3    H214436   6.914   6.980   2.834
 4827TIP3   OH214437   7.235   1.488   6.132
 4827TIP3    H114438   7.170   1.542   6.086
 4827TIP3    H214439   7.223   1.400   6.097
 4828TIP3   OH214440   2.936   0.301   2.727
 4828TIP3    H114441   2.942   0.369   2.661
 4828TIP3    H214442   2.958   0.220   2.681
 4829TIP3   OH214443   7.339   6.969   4.364
 4829TIP3    H114444   7.270   6.904   4.363
 4829TIP3    H214445   7.383   6.960   4.279
 4830TIP3   OH214446   5.682   7.100   2.470
 4830TIP3    H114447   5.683   7.195   2.488
 4830TIP3    H214448   5.598   7.070   2.504
 4831TIP3   OH214449   4.801   0.780   4.576
 4831TIP3    H114450   4.846   0.756   4.495
 4831TIP3    H214451   4.723   0.724   4.577
 4832TIP3   OH214452   3.029   3.575   6.322
 4832TIP3    H114453   2.953   3.563   6.264
 4832TIP3    H214454   3.008   3.523   6.400
 4833TIP3   OH214455   0.675   7.329   1.569
 4833TIP3    H114456   0.591   7.338   1.614
 4833TIP3    H214457   0.675   7.239   1.536
 4834TIP3   OH214458   4.266   6.696   3.015
 4834TIP3    H114459   4.316   6.693   3.097
 4834TIP3    H214460   4.202   6.625   3.023
 4835TIP3   OH214461   3.071   6.910   5.402
 4835TIP3    H114462   3.022   6.938   5.479
 4835TIP3    H214463   3.136   6.979   5.388
 4836TIP3   OH214464   4.712   7.242   0.928
 4836TIP3    H114465   4.735   7.301   0.856
 4836TIP3    H214466   4.644   7.186   0.892
 4837TIP3   OH214467   3.065   1.715   1.016
 4837TIP3    H114468   3.116   1.714   1.097
 4837TIP3    H214469   3.049   1.622   0.998
 4838TIP3   OH214470   0.267   4.249   3.366
 4838TIP3    H114471   0.254   4.269   3.273
 4838TIP3    H214472   0.179   4.255   3.404
 4839TIP3   OH214473   2.444   0.551   3.880
 4839TIP3    H114474   2.535   0.572   3.861
 4839TIP3    H214475   2.397   0.634   3.869
 4840TIP3   OH214476   6.272   0.903   2.967
 4840TIP3    H114477   6.271   0.830   3.029
 4840TIP3    H214478   6.247   0.979   3.020
 4841TIP3   OH214479   4.730   5.816   1.786
 4841TIP3    H114480   4.716   5.763   1.707
 4841TIP3    H214481   4.694   5.764   1.857
 4842TIP3   OH214482   0.898   7.342   6.317
 4842TIP3    H114483   0.981   7.337   6.269
 4842TIP3    H214484   0.831   7.341   6.249
 4843TIP3   OH214485   2.561   2.026   1.212
 4843TIP3    H114486   2.482   1.972   1.209
 4843TIP3    H214487   2.594   2.017   1.301
 4844TIP3   OH214488   3.547   0.872   5.977
 4844TIP3    H114489   3.562   0.793   5.925
 4844TIP3    H214490   3.505   0.840   6.057
 4845TIP3   OH214491   1.287   0.383   4.964
 4845TIP3    H114492   1.305   0.399   5.056
 4845TIP3    H214493   1.245   0.297   4.962
 4846TIP3   OH214494   3.274   4.330   4.686
 4846TIP3    H114495   3.248   4.417   4.656
 4846TIP3    H214496   3.308   4.286   4.608
 4847TIP3   OH214497   5.050   7.526   4.062
 4847TIP3    H114498   5.052   7.595   3.997
 4847TIP3    H214499   4.976   7.548   4.119
 4848TIP3   OH214500   2.242   2.691   6.707
 4848TIP3    H114501   2.197   2.707   6.624
 4848TIP3    H214502   2.306   2.623   6.688
 4849TIP3   OH214503   4.156   6.488   3.437
 4849TIP3    H114504   4.072   6.456   3.469
 4849TIP3    H214505   4.222   6.438   3.485
 4850TIP3   OH214506   6.340   5.379   5.228
 4850TIP3    H114507   6.413   5.415   5.279
 4850TIP3    H214508   6.364   5.288   5.212
 4851TIP3   OH214509   1.152   1.516   2.235
 4851TIP3    H114510   1.089   1.491   2.168
 4851TIP3    H214511   1.214   1.574   2.189
 4852TIP3   OH214512   4.643   7.110   6.210
 4852TIP3    H114513   4.660   7.069   6.295
 4852TIP3    H214514   4.701   7.064   6.150
 4853TIP3   OH214515   6.291   0.621   6.425
 4853TIP3    H114516   6.275   0.555   6.492
 4853TIP3    H214517   6.297   0.573   6.343
 4854TIP3   OH214518   7.320   6.543   3.905
 4854TIP3    H114519   7.386   6.542   3.974
 4854TIP3    H214520   7.287   6.453   3.902
 4855TIP3   OH214521   5.198   5.823   2.666
 4855TIP3    H114522   5.251   5.799   2.590
 4855TIP3    H214523   5.145   5.897   2.636
 4856TIP3   OH214524   3.251   2.499   3.712
 4856TIP3    H114525   3.324   2.459   3.665
 4856TIP3    H214526   3.176   2.443   3.691
 4857TIP3   OH214527   4.904   2.679   5.762
 4857TIP3    H114528   4.909   2.707   5.853
 4857TIP3    H214529   4.939   2.590   5.761
 4858TIP3   OH214530   4.509   2.319   0.757
 4858TIP3    H114531   4.451   2.375   0.809
 4858TIP3    H214532   4.597   2.339   0.789
 4859TIP3   OH214533   0.818   5.464   1.630
 4859TIP3    H114534   0.816   5.371   1.653
 4859TIP3    H214535   0.743   5.476   1.572
 4860TIP3   OH214536   5.398   6.663   2.655
 4860TIP3    H114537   5.440   6.694   2.575
 4860TIP3    H214538   5.471   6.646   2.715
 4861TIP3   OH214539   0.008   1.949   5.382
 4861TIP3    H114540   0.016   2.039   5.413
 4861TIP3    H214541   0.068   1.943   5.308
 4862TIP3   OH214542   1.840   2.683   0.480
 4862TIP3    H114543   1.799   2.656   0.397
 4862TIP3    H214544   1.905   2.614   0.497
 4863TIP3   OH214545   5.161   7.557   4.393
 4863TIP3    H114546   5.126   7.502   4.322
 4863TIP3    H214547   5.187   7.638   4.350
 4864TIP3   OH214548   6.163   5.690   2.063
 4864TIP3    H114549   6.241   5.732   2.026
 4864TIP3    H214550   6.090   5.732   2.019
 4865TIP3   OH214551   0.406   4.772   5.446
 4865TIP3    H114552   0.480   4.823   5.477
 4865TIP3    H214553   0.330   4.815   5.486
 4866TIP3   OH214554   7.925   4.708   0.216
 4866TIP3    H114555   7.918   4.643   0.146
 4866TIP3    H214556   7.950   4.659   0.294
 4867TIP3   OH214557   1.423   6.959   6.604
 4867TIP3    H114558   1.516   6.957   6.584
 4867TIP3    H214559   1.386   6.886   6.554
 4868TIP3   OH214560   4.148   5.532   3.327
 4868TIP3    H114561   4.225   5.508   3.275
 4868TIP3    H214562   4.114   5.448   3.359
 4869TIP3   OH214563   4.176   0.660   5.879
 4869TIP3    H114564   4.189   0.591   5.944
 4869TIP3    H214565   4.180   0.742   5.929
 4870TIP3   OH214566   5.914   1.097   4.905
 4870TIP3    H114567   6.007   1.087   4.886
 4870TIP3    H214568   5.882   1.007   4.914
 4871TIP3   OH214569   5.722   4.636   0.785
 4871TIP3    H114570   5.782   4.656   0.713
 4871TIP3    H214571   5.686   4.722   0.810
 4872TIP3   OH214572   7.767   0.582   4.711
 4872TIP3    H114573   7.752   0.671   4.743
 4872TIP3    H214574   7.817   0.594   4.631
 4873TIP3   OH214575   2.684   0.127   1.503
 4873TIP3    H114576   2.683   0.043   1.458
 4873TIP3    H214577   2.687   0.192   1.433
 4874TIP3   OH214578   1.221   3.332   6.374
 4874TIP3    H114579   1.304   3.287   6.361
 4874TIP3    H214580   1.174   3.320   6.292
 4875TIP3   OH214581   8.140   6.091   5.145
 4875TIP3    H114582   8.081   6.015   5.152
 4875TIP3    H214583   8.205   6.065   5.080
 4876TIP3   OH214584   7.084   4.453   2.211
 4876TIP3    H114585   7.024   4.476   2.282
 4876TIP3    H214586   7.153   4.402   2.253
 4877TIP3   OH214587   5.473   3.251   1.846
 4877TIP3    H114588   5.474   3.156   1.843
 4877TIP3    H214589   5.423   3.272   1.925
 4878TIP3   OH214590   1.441   5.752   5.617
 4878TIP3    H114591   1.436   5.847   5.609
 4878TIP3    H214592   1.500   5.725   5.546
 4879TIP3   OH214593   1.996   5.743   6.547
 4879TIP3    H114594   2.087   5.718   6.535
 4879TIP3    H214595   1.994   5.790   6.630
 4880TIP3   OH214596   1.288   0.205   6.290
 4880TIP3    H114597   1.218   0.147   6.262
 4880TIP3    H214598   1.337   0.223   6.210
 4881TIP3   OH214599   7.968   4.790   2.180
 4881TIP3    H114600   7.918   4.870   2.197
 4881TIP3    H214601   7.906   4.734   2.132
 4882TIP3   OH214602   7.959   6.938   1.786
 4882TIP3    H114603   7.989   6.950   1.876
 4882TIP3    H214604   8.030   6.889   1.744
 4883TIP3   OH214605   4.283   1.514   0.034
 4883TIP3    H114606   4.310   1.447  -0.028
 4883TIP3    H214607   4.187   1.517   0.026
 4884TIP3   OH214608   6.094   3.676   1.960
 4884TIP3    H114609   6.041   3.742   2.004
 4884TIP3    H214610   6.174   3.670   2.012
 4885TIP3   OH214611   4.768   7.327   4.618
 4885TIP3    H114612   4.796   7.270   4.689
 4885TIP3    H214613   4.729   7.268   4.554
 4886TIP3   OH214614   3.527   6.800   2.475
 4886TIP3    H114615   3.573   6.828   2.396
 4886TIP3    H214616   3.436   6.827   2.461
 4887TIP3   OH214617   2.301   0.562   2.093
 4887TIP3    H114618   2.292   0.479   2.138
 4887TIP3    H214619   2.244   0.622   2.141
 4888TIP3   OH214620   1.204   1.214   5.070
 4888TIP3    H114621   1.122   1.249   5.033
 4888TIP3    H214622   1.223   1.271   5.144
 4889TIP3   OH214623   7.089   1.476   5.628
 4889TIP3    H114624   7.181   1.499   5.620
 4889TIP3    H214625   7.088   1.380   5.630
 4890TIP3   OH214626   6.238   1.732   3.069
 4890TIP3    H114627   6.290   1.651   3.072
 4890TIP3    H214628   6.200   1.739   3.156
 4891TIP3   OH214629   7.650   2.031   6.557
 4891TIP3    H114630   7.630   2.014   6.466
 4891TIP3    H214631   7.652   1.944   6.598
 4892TIP3   OH214632   4.871   1.486   2.639
 4892TIP3    H114633   4.791   1.477   2.691
 4892TIP3    H214634   4.937   1.518   2.701
 4893TIP3   OH214635   0.682   5.495   3.502
 4893TIP3    H114636   0.728   5.514   3.584
 4893TIP3    H214637   0.671   5.400   3.501
 4894TIP3   OH214638   1.477   1.248   6.693
 4894TIP3    H114639   1.434   1.180   6.641
 4894TIP3    H214640   1.444   1.330   6.655
 4895TIP3   OH214641   5.345   7.811   5.729
 4895TIP3    H114642   5.437   7.788   5.735
 4895TIP3    H214643   5.311   7.799   5.817
 4896TIP3   OH214644   2.361   6.503   1.300
 4896TIP3    H114645   2.415   6.444   1.247
 4896TIP3    H214646   2.371   6.589   1.259
 4897TIP3   OH214647   3.685   7.287   6.629
 4897TIP3    H114648   3.722   7.226   6.565
 4897TIP3    H214649   3.754   7.297   6.694
 4898TIP3   OH214650   4.806   0.505   2.395
 4898TIP3    H114651   4.739   0.511   2.327
 4898TIP3    H214652   4.760   0.469   2.471
 4899TIP3   OH214653   1.737   7.690   2.803
 4899TIP3    H114654   1.722   7.692   2.709
 4899TIP3    H214655   1.702   7.605   2.831
 4900TIP3   OH214656   0.292   2.820   1.342
 4900TIP3    H114657   0.302   2.900   1.291
 4900TIP3    H214658   0.333   2.752   1.289
 4901TIP3   OH214659   2.428   0.930   5.607
 4901TIP3    H114660   2.416   1.024   5.598
 4901TIP3    H214661   2.349   0.892   5.569
 4902TIP3   OH214662   5.646   3.743   6.386
 4902TIP3    H114663   5.559   3.742   6.426
 4902TIP3    H214664   5.696   3.805   6.438
 4903TIP3   OH214665   4.756   2.718   3.055
 4903TIP3    H114666   4.754   2.747   3.146
 4903TIP3    H214667   4.829   2.767   3.016
 4904TIP3   OH214668   3.352   7.344   1.180
 4904TIP3    H114669   3.327   7.252   1.167
 4904TIP3    H214670   3.370   7.377   1.093
 4905TIP3   OH214671   6.200   6.241   1.528
 4905TIP3    H114672   6.152   6.216   1.606
 4905TIP3    H214673   6.199   6.162   1.473
 4906TIP3   OH214674   6.735   7.717   5.234
 4906TIP3    H114675   6.801   7.747   5.171
 4906TIP3    H214676   6.652   7.721   5.185
 4907TIP3   OH214677   4.374   5.519   2.449
 4907TIP3    H114678   4.467   5.505   2.430
 4907TIP3    H214679   4.373   5.573   2.529
 4908TIP3   OH214680   0.383   0.304   5.431
 4908TIP3    H114681   0.382   0.396   5.457
 4908TIP3    H214682   0.294   0.273   5.450
 4909TIP3   OH214683   3.065   4.741   0.147
 4909TIP3    H114684   3.065   4.655   0.188
 4909TIP3    H214685   2.974   4.769   0.150
 4910TIP3   OH214686   2.942   4.987   3.480
 4910TIP3    H114687   3.034   4.963   3.475
 4910TIP3    H214688   2.902   4.946   3.403
 4911TIP3   OH214689   1.906   4.923   5.455
 4911TIP3    H114690   1.822   4.916   5.409
 4911TIP3    H214691   1.969   4.945   5.386
 4912TIP3   OH214692   6.165   0.442   4.316
 4912TIP3    H114693   6.186   0.531   4.288
 4912TIP3    H214694   6.149   0.450   4.410
 4913TIP3   OH214695   3.921   4.738   5.895
 4913TIP3    H114696   3.865   4.766   5.968
 4913TIP3    H214697   3.990   4.805   5.892
 4914TIP3   OH214698   5.003   4.945   2.864
 4914TIP3    H114699   4.949   5.009   2.910
 4914TIP3    H214700   5.085   4.943   2.914
 4915TIP3   OH214701   3.397   7.194   4.587
 4915TIP3    H114702   3.365   7.143   4.513
 4915TIP3    H214703   3.387   7.137   4.663
 4916TIP3   OH214704   3.337   5.165   3.545
 4916TIP3    H114705   3.427   5.133   3.546
 4916TIP3    H214706   3.333   5.222   3.468
 4917TIP3   OH214707   7.786   6.107   6.383
 4917TIP3    H114708   7.847   6.034   6.387
 4917TIP3    H214709   7.807   6.152   6.301
 4918TIP3   OH214710   7.421   5.840   2.846
 4918TIP3    H114711   7.516   5.853   2.842
 4918TIP3    H214712   7.389   5.911   2.901
 4919TIP3   OH214713   2.075   5.541   4.013
 4919TIP3    H114714   2.156   5.589   4.031
 4919TIP3    H214715   2.020   5.604   3.966
 4920TIP3   OH214716   6.225   5.732   6.730
 4920TIP3    H114717   6.245   5.823   6.752
 4920TIP3    H214718   6.147   5.711   6.780
 4921TIP3   OH214719   0.591   5.793   1.729
 4921TIP3    H114720   0.585   5.757   1.818
 4921TIP3    H214721   0.675   5.838   1.727
 4922TIP3   OH214722   4.919   4.729   3.198
 4922TIP3    H114723   4.956   4.810   3.232
 4922TIP3    H214724   4.850   4.756   3.137
 4923TIP3   OH214725   2.810   6.472   5.604
 4923TIP3    H114726   2.732   6.419   5.585
 4923TIP3    H214727   2.883   6.412   5.587
 4924TIP3   OH214728   0.478   6.293   4.659
 4924TIP3    H114729   0.544   6.224   4.668
 4924TIP3    H214730   0.442   6.280   4.571
 4925TIP3   OH214731   4.512   4.581   4.595
 4925TIP3    H114732   4.484   4.607   4.507
 4925TIP3    H214733   4.588   4.524   4.580
 4926TIP3   OH214734   2.490   4.400   6.667
 4926TIP3    H114735   2.420   4.387   6.603
 4926TIP3    H214736   2.560   4.341   6.638
 4927TIP3   OH214737   0.653   2.569   3.267
 4927TIP3    H114738   0.717   2.514   3.221
 4927TIP3    H214739   0.588   2.507   3.300
 4928TIP3   OH214740   0.141   5.261   2.638
 4928TIP3    H114741   0.090   5.293   2.564
 4928TIP3    H214742   0.215   5.215   2.598
 4929TIP3   OH214743   2.646   6.147   6.750
 4929TIP3    H114744   2.604   6.217   6.700
 4929TIP3    H214745   2.737   6.148   6.721
 4930TIP3   OH214746   4.803   7.700   6.620
 4930TIP3    H114747   4.886   7.728   6.581
 4930TIP3    H214748   4.827   7.633   6.683
 4931TIP3   OH214749   5.118   6.862   5.036
 4931TIP3    H114750   5.040   6.883   5.087
 4931TIP3    H214751   5.141   6.945   4.993
 4932TIP3   OH214752   4.056   5.959   4.242
 4932TIP3    H114753   3.971   5.928   4.211
 4932TIP3    H214754   4.056   5.941   4.336
 4933TIP3   OH214755   5.155   5.117   2.604
 4933TIP3    H114756   5.186   5.156   2.685
 4933TIP3    H214757   5.217   5.146   2.537
 4934TIP3   OH214758   2.177   7.154   5.877
 4934TIP3    H114759   2.263   7.191   5.900
 4934TIP3    H214760   2.161   7.186   5.788
 4935TIP3   OH214761   1.256   2.517   5.625
 4935TIP3    H114762   1.320   2.484   5.688
 4935TIP3    H214763   1.268   2.612   5.626
 4936TIP3   OH214764   7.188   2.448   2.975
 4936TIP3    H114765   7.219   2.359   2.990
 4936TIP3    H214766   7.262   2.504   3.000
 4937TIP3   OH214767   3.578   1.451   4.568
 4937TIP3    H114768   3.487   1.480   4.555
 4937TIP3    H214769   3.572   1.356   4.569
 4938TIP3   OH214770   7.133   1.088   2.355
 4938TIP3    H114771   7.080   1.129   2.423
 4938TIP3    H214772   7.086   1.007   2.333
 4939TIP3   OH214773   2.572   2.467   0.423
 4939TIP3    H114774   2.544   2.515   0.500
 4939TIP3    H214775   2.591   2.534   0.357
 4940TIP3   OH214776   3.459   5.198   1.538
 4940TIP3    H114777   3.528   5.259   1.512
 4940TIP3    H214778   3.484   5.115   1.498
 4941TIP3   OH214779   8.019   7.639   6.381
 4941TIP3    H114780   8.082   7.570   6.359
 4941TIP3    H214781   8.066   7.720   6.365
 4942TIP3   OH214782   1.899   0.354   5.533
 4942TIP3    H114783   1.951   0.411   5.590
 4942TIP3    H214784   1.933   0.372   5.445
 4943TIP3   OH214785   5.486   2.665   4.164
 4943TIP3    H114786   5.436   2.608   4.222
 4943TIP3    H214787   5.531   2.605   4.104
 4944TIP3   OH214788   1.770   4.818   6.584
 4944TIP3    H114789   1.816   4.735   6.593
 4944TIP3    H214790   1.759   4.829   6.489
 4945TIP3   OH214791   8.029   6.878   4.137
 4945TIP3    H114792   7.998   6.823   4.065
 4945TIP3    H214793   8.124   6.878   4.129
 4946TIP3   OH214794   7.126   6.054   2.599
 4946TIP3    H114795   7.191   6.044   2.668
 4946TIP3    H214796   7.082   6.137   2.620
 4947TIP3   OH214797   2.270   1.611   6.625
 4947TIP3    H114798   2.187   1.639   6.665
 4947TIP3    H214799   2.243   1.561   6.548
 4948TIP3   OH214800   6.452   0.458   0.045
 4948TIP3    H114801   6.400   0.445   0.125
 4948TIP3    H214802   6.397   0.513  -0.010
 4949TIP3   OH214803   2.046   0.758   6.471
 4949TIP3    H114804   2.010   0.791   6.553
 4949TIP3    H214805   1.993   0.799   6.403
 4950TIP3   OH214806   7.674   6.419   5.003
 4950TIP3    H114807   7.641   6.426   5.093
 4950TIP3    H214808   7.597   6.434   4.948
 4951TIP3   OH214809   7.784   6.013   1.724
 4951TIP3    H114810   7.802   6.027   1.817
 4951TIP3    H214811   7.705   6.065   1.707
 4952TIP3   OH214812   0.990   4.580   2.566
 4952TIP3    H114813   1.080   4.583   2.598
 4952TIP3    H214814   0.994   4.619   2.479
 4953TIP3   OH214815   5.360   2.990   3.829
 4953TIP3    H114816   5.424   2.963   3.895
 4953TIP3    H214817   5.398   2.962   3.745
 4954TIP3   OH214818   6.950   1.741   2.118
 4954TIP3    H114819   6.883   1.786   2.170
 4954TIP3    H214820   6.900   1.691   2.053
 4955TIP3   OH214821   3.492   0.143   2.581
 4955TIP3    H114822   3.496   0.070   2.642
 4955TIP3    H214823   3.548   0.210   2.621
 4956TIP3   OH214824   4.839   7.470   2.871
 4956TIP3    H114825   4.887   7.526   2.809
 4956TIP3    H214826   4.897   7.396   2.885
 4957TIP3   OH214827   4.308   6.013   4.990
 4957TIP3    H114828   4.268   5.931   4.962
 4957TIP3    H214829   4.323   6.002   5.084
 4958TIP3   OH214830   4.595   0.351   6.751
 4958TIP3    H114831   4.601   0.443   6.725
 4958TIP3    H214832   4.685   0.325   6.771
 4959TIP3   OH214833   3.735   3.201   6.372
 4959TIP3    H114834   3.828   3.178   6.369
 4959TIP3    H214835   3.734   3.296   6.385
 4960TIP3   OH214836   7.603   0.802   5.146
 4960TIP3    H114837   7.515   0.826   5.178
 4960TIP3    H214838   7.660   0.869   5.184
 4961TIP3   OH214839   6.205   4.761   6.080
 4961TIP3    H114840   6.239   4.732   5.995
 4961TIP3    H214841   6.282   4.763   6.137
 4962TIP3   OH214842   4.037   4.961   4.160
 4962TIP3    H114843   4.098   5.035   4.154
 4962TIP3    H214844   4.003   4.966   4.250
 4963TIP3   OH214845   6.322   4.851   0.542
 4963TIP3    H114846   6.368   4.934   0.556
 4963TIP3    H214847   6.230   4.876   0.535
 4964TIP3   OH214848   5.294   5.812   1.547
 4964TIP3    H114849   5.303   5.718   1.558
 4964TIP3    H214850   5.237   5.822   1.470
 4965TIP3   OH214851   2.372   5.487   0.791
 4965TIP3    H114852   2.357   5.507   0.884
 4965TIP3    H214853   2.461   5.452   0.788
 4966TIP3   OH214854   3.385   7.591   3.454
 4966TIP3    H114855   3.475   7.625   3.458
 4966TIP3    H214856   3.376   7.539   3.533
 4967TIP3   OH214857   0.144   0.566   1.616
 4967TIP3    H114858   0.080   0.505   1.580
 4967TIP3    H214859   0.217   0.510   1.645
 4968TIP3   OH214860   3.715   6.332   1.393
 4968TIP3    H114861   3.687   6.392   1.463
 4968TIP3    H214862   3.681   6.247   1.420
 4969TIP3   OH214863   5.221   6.478   4.090
 4969TIP3    H114864   5.283   6.534   4.045
 4969TIP3    H214865   5.270   6.443   4.165
 4970TIP3   OH214866  -0.016   1.575   4.473
 4970TIP3    H114867   0.067   1.533   4.452
 4970TIP3    H214868   0.009   1.665   4.495
 4971TIP3   OH214869   7.408   5.716   4.034
 4971TIP3    H114870   7.321   5.717   4.074
 4971TIP3    H214871   7.407   5.786   3.969
 4972TIP3   OH214872   0.304   5.020   2.833
 4972TIP3    H114873   0.259   5.088   2.783
 4972TIP3    H214874   0.286   4.939   2.785
 4973TIP3   OH214875   3.877   3.549   0.463
 4973TIP3    H114876   3.921   3.485   0.519
 4973TIP3    H214877   3.856   3.622   0.521
 4974TIP3   OH214878   3.217   2.829   0.953
 4974TIP3    H114879   3.182   2.842   1.041
 4974TIP3    H214880   3.240   2.917   0.923
 4975TIP3   OH214881   4.337   2.694   4.549
 4975TIP3    H114882   4.268   2.628   4.541
 4975TIP3    H214883   4.414   2.645   4.577
 4976TIP3   OH214884   8.040   6.888   2.922
 4976TIP3    H114885   8.017   6.866   3.013
 4976TIP3    H214886   7.981   6.835   2.869
 4977TIP3   OH214887   1.806   3.411   4.813
 4977TIP3    H114888   1.894   3.380   4.792
 4977TIP3    H214889   1.818   3.469   4.888
 4978TIP3   OH214890   3.847   1.841   0.860
 4978TIP3    H114891   3.907   1.863   0.789
 4978TIP3    H214892   3.833   1.746   0.850
 4979TIP3   OH214893   7.961   6.488   5.036
 4979TIP3    H114894   8.002   6.560   4.988
 4979TIP3    H214895   7.872   6.483   5.001
 4980TIP3   OH214896   7.978   7.188   6.192
 4980TIP3    H114897   8.055   7.132   6.204
 4980TIP3    H214898   7.936   7.154   6.113
 4981TIP3   OH214899   5.916   0.528   6.444
 4981TIP3    H114900   5.839   0.535   6.387
 4981TIP3    H214901   5.902   0.447   6.493
 4982TIP3   OH214902   5.661   5.455   0.547
 4982TIP3    H114903   5.708   5.496   0.619
 4982TIP3    H214904   5.591   5.405   0.589
 4983TIP3   OH214905   1.165   4.791   2.866
 4983TIP3    H114906   1.166   4.701   2.836
 4983TIP3    H214907   1.251   4.826   2.842
 4984TIP3   OH214908   7.724   5.167   4.060
 4984TIP3    H114909   7.795   5.203   4.111
 4984TIP3    H214910   7.767   5.110   3.995
 4985TIP3   OH214911   5.639   1.387   5.202
 4985TIP3    H114912   5.624   1.475   5.166
 4985TIP3    H214913   5.588   1.386   5.283
 4986TIP3   OH214914   1.397   3.441   1.815
 4986TIP3    H114915   1.356   3.442   1.902
 4986TIP3    H214916   1.335   3.487   1.759
 4987TIP3   OH214917   8.349   2.843   5.548
 4987TIP3    H114918   8.278   2.832   5.484
 4987TIP3    H214919   8.306   2.882   5.624
 4988TIP3   OH214920   8.167   1.528   3.293
 4988TIP3    H114921   8.237   1.545   3.231
 4988TIP3    H214922   8.135   1.615   3.318
 4989TIP3   OH214923   3.932   1.023   4.727
 4989TIP3    H114924   3.930   1.084   4.654
 4989TIP3    H214925   3.959   0.940   4.689
 4990TIP3   OH214926   0.191   4.740   2.672
 4990TIP3    H114927   0.283   4.734   2.647
 4990TIP3    H214928   0.145   4.765   2.592
 4991TIP3   OH214929   0.479   6.004   4.444
 4991TIP3    H114930   0.441   5.924   4.410
 4991TIP3    H214931   0.516   5.979   4.529
 4992TIP3   OH214932   2.860   3.010   2.107
 4992TIP3    H114933   2.867   3.102   2.134
 4992TIP3    H214934   2.860   2.960   2.189
 4993TIP3   OH214935   5.132   4.790   5.862
 4993TIP3    H114936   5.106   4.751   5.778
 4993TIP3    H214937   5.213   4.837   5.844
 4994TIP3   OH214938   3.914   5.309   6.551
 4994TIP3    H114939   3.973   5.369   6.506
 4994TIP3    H214940   3.962   5.226   6.553
 4995TIP3   OH214941   2.875   4.217   3.900
 4995TIP3    H114942   2.833   4.248   3.821
 4995TIP3    H214943   2.845   4.277   3.969
 4996TIP3   OH214944   1.859   1.837   3.247
 4996TIP3    H114945   1.828   1.893   3.318
 4996TIP3    H214946   1.955   1.842   3.253
 4997TIP3   OH214947   2.457   4.156   2.988
 4997TIP3    H114948   2.392   4.215   3.026
 4997TIP3    H214949   2.540   4.201   2.997
 4998TIP3   OH214950   2.331   4.221   3.740
 4998TIP3    H114951   2.273   4.297   3.735
 4998TIP3    H214952   2.409   4.254   3.785
 4999TIP3   OH214953   4.857   6.554   0.936
 4999TIP3    H114954   4.945   6.531   0.967
 4999TIP3    H214955   4.827   6.620   0.998
 5000TIP3   OH214956   4.052   5.930   6.054
 5000TIP3    H114957   4.095   5.993   5.996
 5000TIP3    H214958   3.979   5.979   6.093
 5001TIP3   OH214959   6.055   0.080   5.159
 5001TIP3    H114960   6.086  -0.010   5.167
 5001TIP3    H214961   6.123   0.133   5.199
 5002TIP3   OH214962   2.961   1.568   6.035
 5002TIP3    H114963   3.055   1.573   6.051
 5002TIP3    H214964   2.921   1.596   6.117
 5003TIP3   OH214965   3.330   2.726   2.459
 5003TIP3    H114966   3.279   2.656   2.418
 5003TIP3    H214967   3.267   2.773   2.513
 5004TIP3   OH214968   0.975   5.631   5.958
 5004TIP3    H114969   1.000   5.630   5.866
 5004TIP3    H214970   0.892   5.679   5.960
 5005TIP3   OH214971   0.308   1.517   5.918
 5005TIP3    H114972   0.307   1.485   5.828
 5005TIP3    H214973   0.334   1.441   5.970
 5006TIP3   OH214974   4.624   1.684   6.655
 5006TIP3    H114975   4.664   1.637   6.728
 5006TIP3    H214976   4.650   1.775   6.668
 5007TIP3   OH214977   0.195   6.036   0.570
 5007TIP3    H114978   0.259   6.098   0.606
 5007TIP3    H214979   0.141   6.011   0.645
 5008TIP3   OH214980   1.750   6.439   2.151
 5008TIP3    H114981   1.689   6.368   2.129
 5008TIP3    H214982   1.741   6.449   2.246
 5009TIP3   OH214983   7.471   2.830   3.548
 5009TIP3    H114984   7.504   2.824   3.637
 5009TIP3    H214985   7.381   2.861   3.557
 5010TIP3   OH214986   5.499   7.527   5.823
 5010TIP3    H114987   5.429   7.571   5.872
 5010TIP3    H214988   5.453   7.473   5.759
 5011TIP3   OH214989   5.471   3.253   4.613
 5011TIP3    H114990   5.400   3.263   4.550
 5011TIP3    H214991   5.437   3.192   4.679
 5012TIP3   OH214992   6.943   4.953   2.469
 5012TIP3    H114993   6.944   5.042   2.503
 5012TIP3    H214994   7.029   4.942   2.429
 5013TIP3   OH214995   1.991   1.386   3.245
 5013TIP3    H114996   2.052   1.444   3.289
 5013TIP3    H214997   1.990   1.415   3.154
 5014TIP3   OH214998   5.087   7.859   5.189
 5014TIP3    H114999   5.010   7.834   5.139
 5014TIP3    H215000   5.054   7.918   5.257
 5015TIP3   OH215001   1.593   2.736   5.581
 5015TIP3    H115002   1.621   2.697   5.498
 5015TIP3    H215003   1.536   2.808   5.555
 5016TIP3   OH215004   1.971   2.996   0.998
 5016TIP3    H115005   1.926   3.080   0.986
 5016TIP3    H215006   1.931   2.938   0.933
 5017TIP3   OH215007   8.145   6.671   1.946
 5017TIP3    H115008   8.104   6.695   2.028
 5017TIP3    H215009   8.107   6.586   1.924
 5018TIP3   OH215010   2.079   3.072   5.889
 5018TIP3    H115011   2.129   3.140   5.843
 5018TIP3    H215012   2.030   3.119   5.956
 5019TIP3   OH215013   7.781   2.666   5.463
 5019TIP3    H115014   7.804   2.743   5.514
 5019TIP3    H215015   7.780   2.697   5.372
 5020TIP3   OH215016   5.791   2.585   5.126
 5020TIP3    H115017   5.699   2.607   5.108
 5020TIP3    H215018   5.805   2.502   5.081
 5021TIP3   OH215019   8.024   5.074   5.146
 5021TIP3    H115020   8.028   5.055   5.239
 5021TIP3    H215021   7.963   5.147   5.139
 5022TIP3   OH215022   3.545   2.896   1.151
 5022TIP3    H115023   3.553   2.814   1.198
 5022TIP3    H215024   3.559   2.873   1.059
 5023TIP3   OH215025   3.506   2.752   5.012
 5023TIP3    H115026   3.415   2.724   4.997
 5023TIP3    H215027   3.500   2.816   5.082
 5024TIP3   OH215028   3.200   1.978   1.295
 5024TIP3    H115029   3.289   1.963   1.261
 5024TIP3    H215030   3.200   1.935   1.380
 5025TIP3   OH215031   2.560   4.318   3.848
 5025TIP3    H115032   2.608   4.395   3.818
 5025TIP3    H215033   2.559   4.327   3.943
 5026TIP3   OH215034   7.627   7.355   6.451
 5026TIP3    H115035   7.704   7.300   6.466
 5026TIP3    H215036   7.583   7.358   6.535
 5027TIP3   OH215037   5.735   0.041   4.048
 5027TIP3    H115038   5.775  -0.020   4.110
 5027TIP3    H215039   5.801   0.054   3.980
 5028TIP3   OH215040   5.475   6.041   5.222
 5028TIP3    H115041   5.499   6.130   5.250
 5028TIP3    H215042   5.555   5.990   5.232
 5029TIP3   OH215043   7.987   5.670   2.620
 5029TIP3    H115044   7.920   5.674   2.688
 5029TIP3    H215045   8.019   5.759   2.612
 5030TIP3   OH215046   4.820   2.141   3.947
 5030TIP3    H115047   4.751   2.123   4.011
 5030TIP3    H215048   4.902   2.135   3.996
 5031TIP3   OH215049   1.057   0.601   4.866
 5031TIP3    H115050   1.089   0.651   4.792
 5031TIP3    H215051   1.135   0.584   4.919
 5032TIP3   OH215052   4.542   1.404   3.772
 5032TIP3    H115053   4.548   1.457   3.851
 5032TIP3    H215054   4.541   1.314   3.803
 5033TIP3   OH215055   0.827   2.667   6.620
 5033TIP3    H115056   0.793   2.605   6.684
 5033TIP3    H215057   0.884   2.615   6.563
 5034TIP3   OH215058   6.456   3.463   2.495
 5034TIP3    H115059   6.417   3.393   2.443
 5034TIP3    H215060   6.516   3.507   2.435
 5035TIP3   OH215061   4.147   6.695   2.520
 5035TIP3    H115062   4.175   6.737   2.438
 5035TIP3    H215063   4.196   6.741   2.588
 5036TIP3   OH215064   0.989   2.468   5.822
 5036TIP3    H115065   1.003   2.547   5.874
 5036TIP3    H215066   1.076   2.429   5.812
 5037TIP3   OH215067   7.530   7.737   6.105
 5037TIP3    H115068   7.600   7.802   6.101
 5037TIP3    H215069   7.524   7.713   6.197
 5038TIP3   OH215070   2.146   0.170   2.968
 5038TIP3    H115071   2.166   0.249   2.918
 5038TIP3    H215072   2.227   0.119   2.965
 5039TIP3   OH215073   2.197   4.836   3.883
 5039TIP3    H115074   2.277   4.889   3.882
 5039TIP3    H215075   2.166   4.842   3.973
 5040TIP3   OH215076   2.772   4.553   5.563
 5040TIP3    H115077   2.744   4.468   5.530
 5040TIP3    H215078   2.737   4.617   5.501
 5041TIP3   OH215079   1.396   2.511   3.511
 5041TIP3    H115080   1.311   2.468   3.509
 5041TIP3    H215081   1.459   2.440   3.523
 5042TIP3   OH215082   4.971   6.140   1.391
 5042TIP3    H115083   4.921   6.181   1.320
 5042TIP3    H215084   4.918   6.065   1.418
 5043TIP3   OH215085   7.538   0.814   6.700
 5043TIP3    H115086   7.519   0.809   6.606
 5043TIP3    H215087   7.616   0.759   6.711
 5044TIP3   OH215088   3.845   1.517   0.791
 5044TIP3    H115089   3.777   1.489   0.852
 5044TIP3    H215090   3.912   1.449   0.797
 5045TIP3   OH215091   7.267   7.005   2.604
 5045TIP3    H115092   7.276   6.916   2.639
 5045TIP3    H215093   7.178   7.031   2.628
 5046TIP3   OH215094   0.433   1.074   6.505
 5046TIP3    H115095   0.499   1.004   6.503
 5046TIP3    H215096   0.458   1.129   6.579
 5047TIP3   OH215097   0.271   7.274   5.751
 5047TIP3    H115098   0.214   7.346   5.779
 5047TIP3    H215099   0.243   7.256   5.661
 5048TIP3   OH215100   3.149   2.123   2.167
 5048TIP3    H115101   3.211   2.097   2.235
 5048TIP3    H215102   3.203   2.155   2.096
 5049TIP3   OH215103   0.659   6.495   5.759
 5049TIP3    H115104   0.574   6.533   5.738
 5049TIP3    H215105   0.721   6.544   5.705
 5050TIP3   OH215106   6.818   1.730   4.033
 5050TIP3    H115107   6.881   1.698   3.969
 5050TIP3    H215108   6.794   1.818   4.002
 5051TIP3   OH215109   3.410   6.573   4.068
 5051TIP3    H115110   3.429   6.634   3.997
 5051TIP3    H215111   3.450   6.613   4.145
 5052TIP3   OH215112   7.076   4.679   2.981
 5052TIP3    H115113   7.057   4.669   3.074
 5052TIP3    H215114   7.170   4.661   2.974
 5053TIP3   OH215115   3.117   1.505  -0.031
 5053TIP3    H115116   3.059   1.455  -0.089
 5053TIP3    H215117   3.175   1.439   0.007
 5054TIP3   OH215118   0.514   0.106   5.615
 5054TIP3    H115119   0.510   0.167   5.542
 5054TIP3    H215120   0.563   0.152   5.683
 5055TIP3   OH215121   1.193   6.449   6.483
 5055TIP3    H115122   1.275   6.403   6.465
 5055TIP3    H215123   1.203   6.482   6.572
 5056TIP3   OH215124   7.997   1.051   3.153
 5056TIP3    H115125   7.999   1.146   3.138
 5056TIP3    H215126   7.935   1.018   3.088
 5057TIP3   OH215127   7.648   6.207   2.161
 5057TIP3    H115128   7.658   6.196   2.256
 5057TIP3    H215129   7.621   6.299   2.151
 5058TIP3   OH215130   3.341   4.865   6.167
 5058TIP3    H115131   3.257   4.826   6.141
 5058TIP3    H215132   3.335   4.871   6.263
 5059TIP3   OH215133   1.841   0.932   1.251
 5059TIP3    H115134   1.764   0.981   1.223
 5059TIP3    H215135   1.849   0.861   1.188
 5060TIP3   OH215136   4.300   5.261   6.606
 5060TIP3    H115137   4.384   5.221   6.586
 5060TIP3    H215138   4.303   5.347   6.564
 5061TIP3   OH215139   6.214   6.800   3.596
 5061TIP3    H115140   6.247   6.889   3.584
 5061TIP3    H215141   6.287   6.751   3.632
 5062TIP3   OH215142   7.973   2.252   3.089
 5062TIP3    H115143   7.881   2.225   3.086
 5062TIP3    H215144   7.972   2.337   3.133
 5063TIP3   OH215145   4.041   3.511   4.760
 5063TIP3    H115146   4.109   3.555   4.709
 5063TIP3    H215147   3.971   3.576   4.768
 5064TIP3   OH215148   6.672   2.988   3.365
 5064TIP3    H115149   6.643   3.075   3.339
 5064TIP3    H215150   6.750   3.004   3.418
 5065TIP3   OH215151   6.148   5.116   1.191
 5065TIP3    H115152   6.146   5.100   1.285
 5065TIP3    H215153   6.072   5.171   1.174
 5066TIP3   OH215154   8.064   6.775   2.215
 5066TIP3    H115155   8.056   6.867   2.242
 5066TIP3    H215156   7.976   6.739   2.228
 5067TIP3   OH215157   1.458   4.577   5.450
 5067TIP3    H115158   1.432   4.489   5.476
 5067TIP3    H215159   1.376   4.622   5.429
 5068TIP3   OH215160   0.420   4.911   4.021
 5068TIP3    H115161   0.510   4.939   4.002
 5068TIP3    H215162   0.430   4.845   4.090
 5069TIP3   OH215163   1.017   6.315   2.321
 5069TIP3    H115164   0.950   6.257   2.357
 5069TIP3    H215165   1.034   6.281   2.233
 5070TIP3   OH215166   6.261   1.807   4.202
 5070TIP3    H115167   6.228   1.742   4.264
 5070TIP3    H215168   6.286   1.881   4.256
 5071TIP3   OH215169   0.262   1.007   2.339
 5071TIP3    H115170   0.340   1.040   2.294
 5071TIP3    H215171   0.218   1.086   2.370
 5072TIP3   OH215172   5.911   6.689   4.695
 5072TIP3    H115173   6.001   6.661   4.682
 5072TIP3    H215174   5.918   6.771   4.745
 5073TIP3   OH215175   1.911   0.146   4.370
 5073TIP3    H115176   2.003   0.118   4.373
 5073TIP3    H215177   1.874   0.096   4.297
 5074TIP3   OH215178   6.296   5.585   0.433
 5074TIP3    H115179   6.211   5.548   0.453
 5074TIP3    H215180   6.354   5.550   0.501
 5075TIP3   OH215181   1.222   2.689   6.328
 5075TIP3    H115182   1.208   2.685   6.423
 5075TIP3    H215183   1.176   2.768   6.300
 5076TIP3   OH215184   1.237   5.593   5.529
 5076TIP3    H115185   1.265   5.510   5.570
 5076TIP3    H215186   1.289   5.660   5.573
 5077TIP3   OH215187   2.325   1.912   1.240
 5077TIP3    H115188   2.279   1.830   1.220
 5077TIP3    H215189   2.256   1.976   1.252
 5078TIP3   OH215190   3.131   5.570   3.614
 5078TIP3    H115191   3.118   5.535   3.702
 5078TIP3    H215192   3.068   5.524   3.559
 5079TIP3   OH215193   0.699   1.750   1.045
 5079TIP3    H115194   0.711   1.721   1.135
 5079TIP3    H215195   0.606   1.734   1.027
 5080TIP3   OH215196   1.230   4.875   0.081
 5080TIP3    H115197   1.198   4.787   0.062
 5080TIP3    H215198   1.187   4.899   0.163
 5081TIP3   OH215199   7.763   5.587   6.037
 5081TIP3    H115200   7.803   5.671   6.014
 5081TIP3    H215201   7.812   5.522   5.987
 5082TIP3   OH215202   4.290   4.158   5.682
 5082TIP3    H115203   4.381   4.167   5.653
 5082TIP3    H215204   4.282   4.218   5.756
 5083TIP3   OH215205   1.768   6.538   2.808
 5083TIP3    H115206   1.775   6.444   2.825
 5083TIP3    H215207   1.848   6.560   2.760
 5084TIP3   OH215208   4.901   1.984   1.374
 5084TIP3    H115209   4.884   2.078   1.380
 5084TIP3    H215210   4.935   1.972   1.285
 5085TIP3   OH215211   3.226   4.032   1.456
 5085TIP3    H115212   3.164   3.995   1.394
 5085TIP3    H215213   3.261   3.956   1.503
 5086TIP3   OH215214   0.371   1.701   1.402
 5086TIP3    H115215   0.284   1.730   1.372
 5086TIP3    H215216   0.402   1.642   1.334
 5087TIP3   OH215217   0.023   4.171   6.456
 5087TIP3    H115218   0.101   4.141   6.502
 5087TIP3    H215219   0.037   4.265   6.444
 5088TIP3   OH215220   4.067   3.152   1.820
 5088TIP3    H115221   4.090   3.110   1.737
 5088TIP3    H215222   4.116   3.234   1.820
 5089TIP3   OH215223   1.473   7.446   1.540
 5089TIP3    H115224   1.401   7.397   1.580
 5089TIP3    H215225   1.549   7.389   1.550
 5090TIP3   OH215226   3.969   5.664   5.480
 5090TIP3    H115227   3.874   5.677   5.475
 5090TIP3    H215228   3.979   5.580   5.526
 5091TIP3   OH215229   0.471   3.927   3.014
 5091TIP3    H115230   0.490   3.871   2.939
 5091TIP3    H215231   0.473   4.016   2.978
 5092TIP3   OH215232   5.701   3.181   5.414
 5092TIP3    H115233   5.691   3.270   5.382
 5092TIP3    H215234   5.615   3.158   5.450
 5093TIP3   OH215235   6.346   5.300   1.082
 5093TIP3    H115236   6.327   5.299   0.988
 5093TIP3    H215237   6.296   5.227   1.118
 5094TIP3   OH215238   4.085   5.560   3.919
 5094TIP3    H115239   4.155   5.605   3.966
 5094TIP3    H215240   4.095   5.588   3.828
 5095TIP3   OH215241   0.508   2.776   3.132
 5095TIP3    H115242   0.575   2.797   3.067
 5095TIP3    H215243   0.546   2.705   3.183
 5096TIP3   OH215244   6.360   4.457   1.129
 5096TIP3    H115245   6.265   4.460   1.130
 5096TIP3    H215246   6.385   4.499   1.047
 5097TIP3   OH215247   2.166   4.650   3.272
 5097TIP3    H115248   2.219   4.571   3.287
 5097TIP3    H215249   2.225   4.723   3.290
 5098TIP3   OH215250   1.619   7.370   6.622
 5098TIP3    H115251   1.599   7.343   6.532
 5098TIP3    H215252   1.707   7.407   6.617
 5099TIP3   OH215253   3.848   1.653   1.511
 5099TIP3    H115254   3.849   1.708   1.433
 5099TIP3    H215255   3.769   1.678   1.558
 5100TIP3   OH215256   2.103   4.944   0.758
 5100TIP3    H115257   2.143   4.887   0.692
 5100TIP3    H215258   2.055   5.009   0.707
 5101TIP3   OH215259   2.069   6.376   2.138
 5101TIP3    H115260   1.974   6.365   2.144
 5101TIP3    H215261   2.104   6.310   2.197
 5102TIP3   OH215262   4.562  -0.011   3.566
 5102TIP3    H115263   4.492   0.019   3.509
 5102TIP3    H215264   4.528  -0.091   3.607
 5103TIP3   OH215265   2.362   1.883   5.842
 5103TIP3    H115266   2.348   1.975   5.864
 5103TIP3    H215267   2.431   1.884   5.776
 5104TIP3   OH215268   4.638   5.668   0.371
 5104TIP3    H115269   4.572   5.732   0.397
 5104TIP3    H215270   4.638   5.603   0.441
 5105TIP3   OH215271   7.268   2.437   5.217
 5105TIP3    H115272   7.236   2.468   5.302
 5105TIP3    H215273   7.361   2.421   5.230
 5106TIP3   OH215274   5.557   0.046   5.469
 5106TIP3    H115275   5.494   0.091   5.413
 5106TIP3    H215276   5.527   0.065   5.558
 5107TIP3   OH215277   2.016   5.285   0.175
 5107TIP3    H115278   2.107   5.261   0.189
 5107TIP3    H215279   1.980   5.214   0.123
 5108TIP3   OH215280   8.104   2.310   4.009
 5108TIP3    H115281   8.160   2.304   4.086
 5108TIP3    H215282   8.065   2.223   3.999
 5109TIP3   OH215283   2.804   2.377   4.645
 5109TIP3    H115284   2.890   2.406   4.676
 5109TIP3    H215285   2.763   2.457   4.611
 5110TIP3   OH215286   2.954   6.875   2.602
 5110TIP3    H115287   3.048   6.880   2.619
 5110TIP3    H215288   2.913   6.892   2.687
 5111TIP3   OH215289   4.955   7.330   1.554
 5111TIP3    H115290   4.884   7.391   1.576
 5111TIP3    H215291   5.010   7.328   1.633
 5112TIP3   OH215292   3.906   0.532   5.807
 5112TIP3    H115293   3.978   0.584   5.771
 5112TIP3    H215294   3.900   0.559   5.899
 5113TIP3   OH215295   7.428   4.413   1.382
 5113TIP3    H115296   7.395   4.503   1.376
 5113TIP3    H215297   7.481   4.402   1.303
 5114TIP3   OH215298   5.854   4.641   3.848
 5114TIP3    H115299   5.819   4.699   3.780
 5114TIP3    H215300   5.949   4.654   3.843
 5115TIP3   OH215301   4.004   2.216   2.009
 5115TIP3    H115302   3.980   2.175   1.926
 5115TIP3    H215303   3.944   2.177   2.073
 5116TIP3   OH215304   2.971   5.303   1.747
 5116TIP3    H115305   3.035   5.287   1.678
 5116TIP3    H215306   2.912   5.227   1.743
 5117TIP3   OH215307   4.317   7.552   1.018
 5117TIP3    H115308   4.375   7.482   0.988
 5117TIP3    H215309   4.376   7.623   1.044
 5118TIP3   OH215310   5.275   5.308   0.819
 5118TIP3    H115311   5.212   5.297   0.748
 5118TIP3    H215312   5.223   5.332   0.895
 5119TIP3   OH215313   6.248   5.225   0.361
 5119TIP3    H115314   6.157   5.206   0.384
 5119TIP3    H215315   6.259   5.188   0.274
 5120TIP3   OH215316   1.329   6.240   1.955
 5120TIP3    H115317   1.312   6.146   1.955
 5120TIP3    H215318   1.296   6.270   1.871
 5121TIP3   OH215319   2.750   1.835   1.786
 5121TIP3    H115320   2.669   1.787   1.802
 5121TIP3    H215321   2.819   1.769   1.794
 5122TIP3   OH215322   4.848   7.799   5.062
 5122TIP3    H115323   4.841   7.727   5.000
 5122TIP3    H215324   4.787   7.776   5.133
 5123TIP3   OH215325   1.755   1.252   4.318
 5123TIP3    H115326   1.821   1.188   4.292
 5123TIP3    H215327   1.762   1.322   4.252
 5124TIP3   OH215328   5.053   5.938   3.438
 5124TIP3    H115329   5.069   5.853   3.478
 5124TIP3    H215330   5.002   5.918   3.360
 5125TIP3   OH215331   8.248   6.142   1.781
 5125TIP3    H115332   8.276   6.109   1.866
 5125TIP3    H215333   8.173   6.199   1.802
 5126TIP3   OH215334   5.004   6.723   4.649
 5126TIP3    H115335   5.026   6.746   4.559
 5126TIP3    H215336   4.992   6.628   4.648
 5127TIP3   OH215337   0.026   0.602   2.210
 5127TIP3    H115338   0.052   0.622   2.120
 5127TIP3    H215339   0.108   0.577   2.253
 5128TIP3   OH215340   1.268   3.006   6.321
 5128TIP3    H115341   1.337   3.018   6.256
 5128TIP3    H215342   1.195   2.970   6.272
 5129TIP3   OH215343   4.630   5.429   6.672
 5129TIP3    H115344   4.708   5.421   6.728
 5129TIP3    H215345   4.642   5.512   6.626
 5130TIP3   OH215346   3.380   5.179   5.809
 5130TIP3    H115347   3.311   5.160   5.745
 5130TIP3    H215348   3.462   5.159   5.762
 5131TIP3   OH215349   7.924   3.816   2.561
 5131TIP3    H115350   7.962   3.882   2.620
 5131TIP3    H215351   7.970   3.830   2.478
 5132TIP3   OH215352   4.193   1.504   6.189
 5132TIP3    H115353   4.245   1.536   6.263
 5132TIP3    H215354   4.103   1.533   6.209
 5133TIP3   OH215355   5.894   4.786   4.719
 5133TIP3    H115356   5.815   4.796   4.774
 5133TIP3    H215357   5.868   4.723   4.652
 5134TIP3   OH215358   4.154   1.655   0.671
 5134TIP3    H115359   4.217   1.602   0.622
 5134TIP3    H215360   4.094   1.591   0.710
 5135TIP3   OH215361   2.119   2.045   0.433
 5135TIP3    H115362   2.035   1.999   0.429
 5135TIP3    H215363   2.108   2.120   0.375
 5136TIP3   OH215364   8.140   0.480   3.532
 5136TIP3    H115365   8.053   0.518   3.546
 5136TIP3    H215366   8.200   0.555   3.534
 5137TIP3   OH215367   0.103   4.033   3.707
 5137TIP3    H115368   0.197   4.031   3.689
 5137TIP3    H215369   0.066   4.085   3.636
 5138TIP3   OH215370   6.346   6.946   4.985
 5138TIP3    H115371   6.305   6.863   5.010
 5138TIP3    H215372   6.437   6.924   4.966
 5139TIP3   OH215373   6.671   6.746   3.434
 5139TIP3    H115374   6.712   6.669   3.396
 5139TIP3    H215375   6.744   6.796   3.471
 5140TIP3   OH215376   0.793   0.713   3.612
 5140TIP3    H115377   0.783   0.618   3.627
 5140TIP3    H215378   0.876   0.721   3.567
 5141TIP3   OH215379   5.363   5.622   6.474
 5141TIP3    H115380   5.347   5.549   6.415
 5141TIP3    H215381   5.282   5.631   6.524
 5142TIP3   OH215382   4.319   0.458   2.058
 5142TIP3    H115383   4.307   0.412   2.140
 5142TIP3    H215384   4.411   0.442   2.035
 5143TIP3   OH215385   3.742   7.484   0.325
 5143TIP3    H115386   3.658   7.516   0.292
 5143TIP3    H215387   3.805   7.507   0.257
 5144TIP3   OH215388   0.994   1.540   1.944
 5144TIP3    H115389   1.039   1.590   1.875
 5144TIP3    H215390   0.906   1.578   1.947
 5145TIP3   OH215391   5.792   2.713   5.407
 5145TIP3    H115392   5.768   2.688   5.317
 5145TIP3    H215393   5.882   2.683   5.417
 5146TIP3   OH215394   4.244   3.116   0.517
 5146TIP3    H115395   4.336   3.090   0.523
 5146TIP3    H215396   4.204   3.052   0.458
 5147TIP3   OH215397   4.447   6.666   5.078
 5147TIP3    H115398   4.486   6.632   5.158
 5147TIP3    H215399   4.412   6.588   5.034
 5148TIP3   OH215400   1.081   3.934   2.418
 5148TIP3    H115401   1.083   3.964   2.327
 5148TIP3    H215402   1.151   3.868   2.423
 5149TIP3   OH215403   6.373   5.286   3.255
 5149TIP3    H115404   6.420   5.247   3.329
 5149TIP3    H215405   6.294   5.232   3.247
 5150TIP3   OH215406   1.468   6.418   0.663
 5150TIP3    H115407   1.503   6.426   0.574
 5150TIP3    H215408   1.415   6.338   0.661
 5151TIP3   OH215409   7.072   0.620   2.731
 5151TIP3    H115410   7.113   0.616   2.817
 5151TIP3    H215411   6.980   0.600   2.747
 5152TIP3   OH215412   7.015   6.157   1.219
 5152TIP3    H115413   6.952   6.226   1.239
 5152TIP3    H215414   6.971   6.101   1.155
 5153TIP3   OH215415   1.837   4.102   4.764
 5153TIP3    H115416   1.741   4.108   4.760
 5153TIP3    H215417   1.867   4.192   4.774
 5154TIP3   OH215418   1.114   1.470   0.799
 5154TIP3    H115419   1.196   1.486   0.846
 5154TIP3    H215420   1.047   1.504   0.858
 5155TIP3   OH215421   1.691   5.669   6.674
 5155TIP3    H115422   1.602   5.678   6.641
 5155TIP3    H215423   1.733   5.607   6.614
 5156TIP3   OH215424   1.617   0.147   2.814
 5156TIP3    H115425   1.670   0.217   2.775
 5156TIP3    H215426   1.625   0.161   2.908
 5157TIP3   OH215427   5.949   5.365   3.251
 5157TIP3    H115428   5.999   5.370   3.332
 5157TIP3    H215429   6.006   5.317   3.190
 5158TIP3   OH215430   6.997   1.213   5.611
 5158TIP3    H115431   6.969   1.181   5.696
 5158TIP3    H215432   6.937   1.171   5.549
 5159TIP3   OH215433   2.340   7.919   4.818
 5159TIP3    H115434   2.315   7.918   4.910
 5159TIP3    H215435   2.291   7.847   4.779
 5160TIP3   OH215436   1.954   5.253   6.819
 5160TIP3    H115437   1.934   5.179   6.762
 5160TIP3    H215438   1.948   5.330   6.762
 5161TIP3   OH215439   1.894   6.171   2.618
 5161TIP3    H115440   1.944   6.093   2.595
 5161TIP3    H215441   1.955   6.225   2.668
 5162TIP3   OH215442   1.423   4.057   2.707
 5162TIP3    H115443   1.406   3.977   2.758
 5162TIP3    H215444   1.489   4.031   2.643
 5163TIP3   OH215445   3.260   5.997   0.829
 5163TIP3    H115446   3.241   5.905   0.811
 5163TIP3    H215447   3.296   5.997   0.918
 5164TIP3   OH215448   4.025   6.568   2.270
 5164TIP3    H115449   3.952   6.508   2.280
 5164TIP3    H215450   4.098   6.526   2.316
 5165TIP3   OH215451   6.981   0.447   0.141
 5165TIP3    H115452   7.057   0.464   0.085
 5165TIP3    H215453   6.911   0.501   0.103
 5166TIP3   OH215454   3.633   0.180   3.508
 5166TIP3    H115455   3.552   0.223   3.481
 5166TIP3    H215456   3.627   0.176   3.604
 5167TIP3   OH215457   2.406   6.592   2.170
 5167TIP3    H115458   2.418   6.527   2.240
 5167TIP3    H215459   2.485   6.585   2.117
 5168TIP3   OH215460   1.384   7.477   3.830
 5168TIP3    H115461   1.454   7.433   3.878
 5168TIP3    H215462   1.391   7.569   3.855
 5169TIP3   OH215463   6.462   7.012   0.020
 5169TIP3    H115464   6.367   7.016   0.033
 5169TIP3    H215465   6.476   6.932  -0.031
 5170TIP3   OH215466   3.965   2.433   5.213
 5170TIP3    H115467   4.033   2.369   5.233
 5170TIP3    H215468   3.905   2.387   5.155
 5171TIP3   OH215469   7.353   1.801   4.600
 5171TIP3    H115470   7.432   1.855   4.612
 5171TIP3    H215471   7.387   1.714   4.582
 5172TIP3   OH215472   3.527   0.505   2.668
 5172TIP3    H115473   3.591   0.571   2.642
 5172TIP3    H215474   3.579   0.427   2.686
 5173TIP3   OH215475   2.077   6.423   6.296
 5173TIP3    H115476   2.006   6.460   6.347
 5173TIP3    H215477   2.081   6.476   6.217
 5174TIP3   OH215478   5.941   6.068   4.794
 5174TIP3    H115479   6.001   6.073   4.868
 5174TIP3    H215480   5.861   6.111   4.824
 5175TIP3   OH215481   1.914   5.004   3.765
 5175TIP3    H115482   1.962   5.013   3.847
 5175TIP3    H215483   1.981   4.984   3.699
 5176TIP3   OH215484   0.204   3.383   5.615
 5176TIP3    H115485   0.277   3.438   5.645
 5176TIP3    H215486   0.156   3.361   5.694
 5177TIP3   OH215487   1.693   2.655   4.419
 5177TIP3    H115488   1.703   2.695   4.333
 5177TIP3    H215489   1.782   2.631   4.444
 5178TIP3   OH215490   5.351  -0.020   3.324
 5178TIP3    H115491   5.397  -0.007   3.407
 5178TIP3    H215492   5.282   0.046   3.324
 5179TIP3   OH215493   0.909   7.041   4.253
 5179TIP3    H115494   0.839   7.102   4.275
 5179TIP3    H215495   0.925   7.055   4.160
 5180TIP3   OH215496   0.242   1.470   2.759
 5180TIP3    H115497   0.156   1.479   2.719
 5180TIP3    H215498   0.235   1.392   2.813
 5181TIP3   OH215499   2.746   3.234   5.837
 5181TIP3    H115500   2.747   3.140   5.823
 5181TIP3    H215501   2.669   3.250   5.891
 5182TIP3   OH215502   6.549   3.605   4.144
 5182TIP3    H115503   6.499   3.545   4.088
 5182TIP3    H215504   6.491   3.621   4.219
 5183TIP3   OH215505   3.091   3.071   0.091
 5183TIP3    H115506   3.135   3.057   0.175
 5183TIP3    H215507   2.999   3.050   0.108
 5184TIP3   OH215508   3.324   5.227   0.734
 5184TIP3    H115509   3.415   5.215   0.707
 5184TIP3    H215510   3.328   5.287   0.808
 5185TIP3   OH215511   7.712   1.962   5.651
 5185TIP3    H115512   7.776   1.891   5.650
 5185TIP3    H215513   7.741   2.019   5.723
 5186TIP3   OH215514   3.898   3.680   4.024
 5186TIP3    H115515   3.992   3.665   4.016
 5186TIP3    H215516   3.868   3.691   3.933
 5187TIP3   OH215517   3.604   3.604   6.028
 5187TIP3    H115518   3.659   3.553   5.968
 5187TIP3    H215519   3.515   3.591   5.994
 5188TIP3   OH215520   0.182   5.641   5.015
 5188TIP3    H115521   0.212   5.705   5.080
 5188TIP3    H215522   0.157   5.565   5.067
 5189TIP3   OH215523   6.975   2.645   3.343
 5189TIP3    H115524   6.917   2.622   3.271
 5189TIP3    H215525   6.962   2.576   3.407
 5190TIP3   OH215526   8.120   5.140   4.698
 5190TIP3    H115527   8.076   5.224   4.714
 5190TIP3    H215528   8.085   5.111   4.614
 5191TIP3   OH215529   1.918   2.844   3.844
 5191TIP3    H115530   1.825   2.850   3.865
 5191TIP3    H215531   1.952   2.778   3.905
 5192TIP3   OH215532   6.554   7.572   2.090
 5192TIP3    H115533   6.572   7.624   2.168
 5192TIP3    H215534   6.561   7.481   2.119
 5193TIP3   OH215535   3.837   0.766   3.209
 5193TIP3    H115536   3.901   0.749   3.278
 5193TIP3    H215537   3.829   0.861   3.206
 5194TIP3   OH215538   8.003   2.080   5.424
 5194TIP3    H115539   7.914   2.066   5.392
 5194TIP3    H215540   7.992   2.130   5.505
 5195TIP3   OH215541   2.299   1.271   2.430
 5195TIP3    H115542   2.392   1.253   2.440
 5195TIP3    H215543   2.257   1.222   2.500
 5196TIP3   OH215544   3.738   7.588   4.489
 5196TIP3    H115545   3.676   7.531   4.534
 5196TIP3    H215546   3.732   7.672   4.536
 5197TIP3   OH215547   0.102   6.514   2.569
 5197TIP3    H115548   0.074   6.537   2.658
 5197TIP3    H215549   0.140   6.595   2.535
 5198TIP3   OH215550   1.029   4.991   1.630
 5198TIP3    H115551   1.058   5.021   1.544
 5198TIP3    H215552   0.945   5.035   1.643
 5199TIP3   OH215553   3.346   1.115   1.456
 5199TIP3    H115554   3.349   1.187   1.393
 5199TIP3    H215555   3.435   1.080   1.456
 5200TIP3   OH215556   3.668   5.006   3.290
 5200TIP3    H115557   3.585   4.960   3.300
 5200TIP3    H215558   3.644   5.099   3.293
 5201TIP3   OH215559   5.343   0.866   1.680
 5201TIP3    H115560   5.328   0.887   1.588
 5201TIP3    H215561   5.280   0.797   1.699
 5202TIP3   OH215562   4.680   3.375   6.667
 5202TIP3    H115563   4.695   3.461   6.707
 5202TIP3    H215564   4.728   3.378   6.584
 5203TIP3   OH215565   0.271   7.597   6.670
 5203TIP3    H115566   0.197   7.592   6.610
 5203TIP3    H215567   0.303   7.687   6.662
 5204TIP3   OH215568   1.554   3.355   3.921
 5204TIP3    H115569   1.476   3.303   3.901
 5204TIP3    H215570   1.624   3.312   3.873
 5205TIP3   OH215571   7.543   3.321   3.368
 5205TIP3    H115572   7.636   3.329   3.352
 5205TIP3    H215573   7.537   3.283   3.456
 5206TIP3   OH215574   8.052   3.004   3.609
 5206TIP3    H115575   8.004   2.938   3.560
 5206TIP3    H215576   8.064   3.076   3.548
 5207TIP3   OH215577   5.050   6.366   3.185
 5207TIP3    H115578   5.069   6.297   3.122
 5207TIP3    H215579   4.988   6.327   3.246
 5208TIP3   OH215580   1.899   2.714   4.661
 5208TIP3    H115581   1.974   2.671   4.701
 5208TIP3    H215582   1.829   2.649   4.665
 5209TIP3   OH215583   5.778   3.981   0.794
 5209TIP3    H115584   5.844   3.973   0.725
 5209TIP3    H215585   5.700   4.011   0.748
 5210TIP3   OH215586   7.818   5.472   1.705
 5210TIP3    H115587   7.812   5.558   1.746
 5210TIP3    H215588   7.855   5.488   1.619
 5211TIP3   OH215589   7.919   0.142   1.254
 5211TIP3    H115590   7.911   0.083   1.180
 5211TIP3    H215591   7.942   0.085   1.328
 5212TIP3   OH215592   6.391   4.301   1.730
 5212TIP3    H115593   6.330   4.374   1.718
 5212TIP3    H215594   6.399   4.292   1.825
 5213TIP3   OH215595   1.349   6.028   3.665
 5213TIP3    H115596   1.366   6.116   3.699
 5213TIP3    H215597   1.406   6.020   3.588
 5214TIP3   OH215598   6.763   5.797   6.435
 5214TIP3    H115599   6.769   5.883   6.394
 5214TIP3    H215600   6.698   5.750   6.383
 5215TIP3   OH215601   3.606   5.168   5.152
 5215TIP3    H115602   3.631   5.120   5.073
 5215TIP3    H215603   3.541   5.112   5.194
 5216TIP3   OH215604   8.186   3.656   2.533
 5216TIP3    H115605   8.224   3.610   2.608
 5216TIP3    H215606   8.124   3.593   2.495
 5217TIP3   OH215607   1.950   3.336   0.958
 5217TIP3    H115608   1.881   3.400   0.937
 5217TIP3    H215609   2.003   3.380   1.025
 5218TIP3   OH215610   1.331   4.601   6.121
 5218TIP3    H115611   1.397   4.645   6.068
 5218TIP3    H215612   1.357   4.617   6.211
 5219TIP3   OH215613   1.715   2.264   4.929
 5219TIP3    H115614   1.785   2.221   4.978
 5219TIP3    H215615   1.638   2.210   4.945
 5220TIP3   OH215616   4.214   0.440   3.848
 5220TIP3    H115617   4.239   0.403   3.763
 5220TIP3    H215618   4.277   0.403   3.910
 5221TIP3   OH215619   4.774   1.351   6.685
 5221TIP3    H115620   4.727   1.388   6.759
 5221TIP3    H215621   4.839   1.418   6.662
 5222TIP3   OH215622   3.901   3.916   1.562
 5222TIP3    H115623   3.981   3.864   1.557
 5222TIP3    H215624   3.882   3.939   1.471
 5223TIP3   OH215625   4.017   1.910   2.825
 5223TIP3    H115626   4.095   1.869   2.789
 5223TIP3    H215627   3.970   1.839   2.869
 5224TIP3   OH215628   7.772   6.848   6.527
 5224TIP3    H115629   7.854   6.827   6.571
 5224TIP3    H215630   7.705   6.806   6.581
 5225TIP3   OH215631   7.140   4.702   1.809
 5225TIP3    H115632   7.045   4.707   1.819
 5225TIP3    H215633   7.154   4.642   1.736
 5226TIP3   OH215634   1.419   0.791   1.337
 5226TIP3    H115635   1.323   0.785   1.332
 5226TIP3    H215636   1.447   0.816   1.249
 5227TIP3   OH215637   1.995   0.676   3.598
 5227TIP3    H115638   2.032   0.645   3.680
 5227TIP3    H215639   1.984   0.770   3.611
 5228TIP3   OH215640   6.142   3.509   3.497
 5228TIP3    H115641   6.051   3.488   3.519
 5228TIP3    H215642   6.137   3.595   3.455
 5229TIP3   OH215643   0.533   4.693   4.524
 5229TIP3    H115644   0.518   4.723   4.434
 5229TIP3    H215645   0.556   4.601   4.514
 5230TIP3   OH215646   5.629   0.076   6.494
 5230TIP3    H115647   5.578   0.156   6.498
 5230TIP3    H215648   5.595   0.023   6.567
 5231TIP3   OH215649   5.683   0.230   3.139
 5231TIP3    H115650   5.755   0.216   3.200
 5231TIP3    H215651   5.615   0.274   3.190
 5232TIP3   OH215652   2.054   0.812   4.578
 5232TIP3    H115653   2.107   0.747   4.624
 5232TIP3    H215654   2.117   0.876   4.545
 5233TIP3   OH215655   2.750   5.486   1.228
 5233TIP3    H115656   2.783   5.564   1.184
 5233TIP3    H215657   2.718   5.518   1.313
 5234TIP3   OH215658   3.605   2.828   2.768
 5234TIP3    H115659   3.585   2.811   2.676
 5234TIP3    H215660   3.698   2.803   2.777
 5235TIP3   OH215661   7.259   5.552   1.954
 5235TIP3    H115662   7.243   5.624   2.015
 5235TIP3    H215663   7.257   5.593   1.867
 5236TIP3   OH215664   4.519   6.935   3.260
 5236TIP3    H115665   4.564   6.972   3.336
 5236TIP3    H215666   4.446   6.886   3.298
 5237TIP3   OH215667   5.856   7.279   0.132
 5237TIP3    H115668   5.827   7.289   0.222
 5237TIP3    H215669   5.944   7.317   0.131
 5238TIP3   OH215670   5.135   5.661   5.122
 5238TIP3    H115671   5.208   5.615   5.082
 5238TIP3    H215672   5.158   5.754   5.114
 5239TIP3   OH215673   7.483   6.316   6.585
 5239TIP3    H115674   7.476   6.393   6.529
 5239TIP3    H215675   7.568   6.325   6.629
 5240TIP3   OH215676   7.823   4.690   5.787
 5240TIP3    H115677   7.814   4.625   5.717
 5240TIP3    H215678   7.910   4.672   5.824
 5241TIP3   OH215679   5.667   0.435   0.348
 5241TIP3    H115680   5.758   0.456   0.370
 5241TIP3    H215681   5.672   0.398   0.260
 5242TIP3   OH215682   6.278   0.369   1.856
 5242TIP3    H115683   6.351   0.314   1.885
 5242TIP3    H215684   6.256   0.334   1.769
 5243TIP3   OH215685   5.060   6.867   2.054
 5243TIP3    H115686   5.142   6.909   2.082
 5243TIP3    H215687   5.022   6.834   2.135
 5244TIP3   OH215688   3.756   5.410   6.348
 5244TIP3    H115689   3.803   5.467   6.287
 5244TIP3    H215690   3.822   5.386   6.414
 5245TIP3   OH215691   2.295   2.068   3.531
 5245TIP3    H115692   2.276   2.145   3.585
 5245TIP3    H215693   2.286   1.994   3.592
 5246TIP3   OH215694   5.843   1.182   5.208
 5246TIP3    H115695   5.771   1.243   5.226
 5246TIP3    H215696   5.831   1.155   5.117
 5247TIP3   OH215697   4.768   6.879   4.748
 5247TIP3    H115698   4.777   6.929   4.668
 5247TIP3    H215699   4.844   6.821   4.749
 5248TIP3   OH215700   1.138   3.538   4.105
 5248TIP3    H115701   1.099   3.601   4.166
 5248TIP3    H215702   1.146   3.587   4.023
 5249TIP3   OH215703   3.529   3.946   3.073
 5249TIP3    H115704   3.545   3.859   3.110
 5249TIP3    H215705   3.448   3.935   3.022
 5250TIP3   OH215706   0.941   3.728   5.622
 5250TIP3    H115707   1.001   3.799   5.596
 5250TIP3    H215708   0.854   3.768   5.619
 5251TIP3   OH215709   7.751   0.842   2.206
 5251TIP3    H115710   7.697   0.921   2.202
 5251TIP3    H215711   7.736   0.807   2.293
 5252TIP3   OH215712   4.172   6.391   1.770
 5252TIP3    H115713   4.173   6.370   1.676
 5252TIP3    H215714   4.114   6.466   1.776
 5253TIP3   OH215715   4.498   5.807   5.702
 5253TIP3    H115716   4.416   5.857   5.702
 5253TIP3    H215717   4.539   5.828   5.785
 5254TIP3   OH215718   7.192   4.981   5.413
 5254TIP3    H115719   7.211   5.069   5.445
 5254TIP3    H215720   7.123   4.949   5.471
 5255TIP3   OH215721   4.233   2.346   1.896
 5255TIP3    H115722   4.185   2.318   1.819
 5255TIP3    H215723   4.169   2.339   1.968
 5256TIP3   OH215724   1.845   7.298   4.146
 5256TIP3    H115725   1.832   7.318   4.053
 5256TIP3    H215726   1.815   7.376   4.192
 5257TIP3   OH215727   2.193   5.044   6.317
 5257TIP3    H115728   2.273   5.008   6.354
 5257TIP3    H215729   2.221   5.090   6.238
 5258TIP3   OH215730  -0.003   0.470   4.922
 5258TIP3    H115731  -0.050   0.522   4.987
 5258TIP3    H215732   0.028   0.533   4.857
 5259TIP3   OH215733   1.946   0.496   4.894
 5259TIP3    H115734   1.853   0.503   4.871
 5259TIP3    H215735   1.976   0.587   4.898
 5260TIP3   OH215736   4.567   7.501   3.573
 5260TIP3    H115737   4.552   7.521   3.665
 5260TIP3    H215738   4.635   7.434   3.574
 5261TIP3   OH215739   3.491   4.841   5.053
 5261TIP3    H115740   3.577   4.873   5.025
 5261TIP3    H215741   3.429   4.900   5.010
 5262TIP3   OH215742   2.551   2.942   5.311
 5262TIP3    H115743   2.629   2.917   5.261
 5262TIP3    H215744   2.518   3.020   5.265
 5263TIP3   OH215745   6.637   0.418   1.715
 5263TIP3    H115746   6.570   0.449   1.654
 5263TIP3    H215747   6.718   0.460   1.686
 5264TIP3   OH215748   4.432   1.569   5.176
 5264TIP3    H115749   4.470   1.633   5.117
 5264TIP3    H215750   4.345   1.603   5.196
 5265TIP3   OH215751   0.645   2.357   6.192
 5265TIP3    H115752   0.589   2.419   6.145
 5265TIP3    H215753   0.588   2.282   6.210
 5266TIP3   OH215754   5.792   6.264   0.566
 5266TIP3    H115755   5.878   6.237   0.535
 5266TIP3    H215756   5.744   6.182   0.579
 5267TIP3   OH215757   6.604   2.755   4.658
 5267TIP3    H115758   6.606   2.681   4.597
 5267TIP3    H215759   6.667   2.732   4.726
 5268TIP3   OH215760   6.059   1.831   5.149
 5268TIP3    H115761   6.014   1.912   5.172
 5268TIP3    H215762   6.063   1.782   5.232
 5269TIP3   OH215763   4.551   5.027   5.644
 5269TIP3    H115764   4.508   4.944   5.626
 5269TIP3    H215765   4.478   5.089   5.658
 5270TIP3   OH215766   8.088   4.495   6.596
 5270TIP3    H115767   8.099   4.505   6.502
 5270TIP3    H215768   8.028   4.421   6.606
 5271TIP3   OH215769   7.530   4.574   3.239
 5271TIP3    H115770   7.622   4.596   3.248
 5271TIP3    H215771   7.529   4.480   3.223
 5272TIP3   OH215772   6.368   2.255   1.472
 5272TIP3    H115773   6.371   2.292   1.383
 5272TIP3    H215774   6.406   2.324   1.527
 5273TIP3   OH215775   0.726   7.350   6.563
 5273TIP3    H115776   0.635   7.364   6.537
 5273TIP3    H215777   0.765   7.302   6.490
 5274TIP3   OH215778   7.789   5.890   0.677
 5274TIP3    H115779   7.852   5.819   0.683
 5274TIP3    H215780   7.707   5.847   0.652
 5275TIP3   OH215781   7.508   7.390   3.072
 5275TIP3    H115782   7.466   7.419   3.153
 5275TIP3    H215783   7.541   7.470   3.032
 5276TIP3   OH215784   0.069   2.437   5.888
 5276TIP3    H115785   0.093   2.348   5.862
 5276TIP3    H215786  -0.002   2.461   5.828
 5277TIP3   OH215787   6.505   1.431   1.739
 5277TIP3    H115788   6.586   1.422   1.789
 5277TIP3    H215789   6.443   1.372   1.782
 5278TIP3   OH215790   1.243   2.523   3.195
 5278TIP3    H115791   1.156   2.501   3.228
 5278TIP3    H215792   1.303   2.475   3.252
 5279TIP3   OH215793   2.247   0.859   4.889
 5279TIP3    H115794   2.237   0.925   4.820
 5279TIP3    H215795   2.266   0.910   4.968
 5280TIP3   OH215796   4.777   4.446   5.581
 5280TIP3    H115797   4.811   4.359   5.599
 5280TIP3    H215798   4.782   4.455   5.486
 5281TIP3   OH215799   5.430   3.495   6.082
 5281TIP3    H115800   5.491   3.425   6.103
 5281TIP3    H215801   5.353   3.451   6.045
 5282TIP3   OH215802   1.868   6.298   6.744
 5282TIP3    H115803   1.835   6.290   6.833
 5282TIP3    H215804   1.791   6.323   6.692
 5283TIP3   OH215805   5.174   4.092   4.023
 5283TIP3    H115806   5.089   4.049   4.025
 5283TIP3    H215807   5.159   4.175   4.069
 5284TIP3   OH215808   6.166   7.591   0.256
 5284TIP3    H115809   6.136   7.530   0.189
 5284TIP3    H215810   6.250   7.623   0.223
 5285TIP3   OH215811   4.937   3.100   2.811
 5285TIP3    H115812   4.986   3.177   2.838
 5285TIP3    H215813   4.845   3.126   2.818
 5286TIP3   OH215814   5.551   4.049   1.586
 5286TIP3    H115815   5.637   4.008   1.573
 5286TIP3    H215816   5.569   4.127   1.638
 5287TIP3   OH215817   2.019   4.111   2.000
 5287TIP3    H115818   2.088   4.066   1.952
 5287TIP3    H215819   2.021   4.201   1.966
 5288TIP3   OH215820   3.915   5.467   6.138
 5288TIP3    H115821   3.918   5.460   6.043
 5288TIP3    H215822   3.934   5.378   6.169
 5289TIP3   OH215823   2.635   6.859   4.496
 5289TIP3    H115824   2.665   6.942   4.534
 5289TIP3    H215825   2.713   6.823   4.453
 5290TIP3   OH215826   5.598   3.688   3.252
 5290TIP3    H115827   5.594   3.775   3.212
 5290TIP3    H215828   5.677   3.689   3.305
 5291TIP3   OH215829   6.539   6.133   5.136
 5291TIP3    H115830   6.565   6.089   5.056
 5291TIP3    H215831   6.446   6.113   5.147
 5292TIP3   OH215832   1.298   4.444   0.836
 5292TIP3    H115833   1.304   4.524   0.784
 5292TIP3    H215834   1.328   4.469   0.923
 5293TIP3   OH215835   1.514   0.481   6.077
 5293TIP3    H115836   1.451   0.544   6.041
 5293TIP3    H215837   1.467   0.398   6.078
 5294TIP3   OH215838   0.490   1.080   4.175
 5294TIP3    H115839   0.497   1.043   4.088
 5294TIP3    H215840   0.422   1.028   4.218
 5295TIP3   OH215841   0.028   0.688   5.126
 5295TIP3    H115842   0.090   0.701   5.197
 5295TIP3    H215843   0.082   0.662   5.051
 5296TIP3   OH215844   6.619   4.869   1.982
 5296TIP3    H115845   6.596   4.776   1.979
 5296TIP3    H215846   6.573   4.908   1.908
 5297TIP3   OH215847   1.364   6.638   5.602
 5297TIP3    H115848   1.292   6.591   5.560
 5297TIP3    H215849   1.440   6.621   5.546
 5298TIP3   OH215850   2.954   7.252   1.298
 5298TIP3    H115851   2.914   7.313   1.237
 5298TIP3    H215852   2.930   7.285   1.385
 5299TIP3   OH215853   7.907   5.948   3.229
 5299TIP3    H115854   7.850   6.022   3.207
 5299TIP3    H215855   7.994   5.978   3.203
 5300TIP3   OH215856   4.304   3.605   5.044
 5300TIP3    H115857   4.392   3.567   5.050
 5300TIP3    H215858   4.284   3.633   5.133
 5301TIP3   OH215859   4.161   7.652   6.736
 5301TIP3    H115860   4.249   7.691   6.744
 5301TIP3    H215861   4.104   7.712   6.784
 5302TIP3   OH215862   1.290   2.773   3.651
 5302TIP3    H115863   1.307   2.683   3.679
 5302TIP3    H215864   1.342   2.827   3.709
 5303TIP3   OH215865   6.990   5.184   5.213
 5303TIP3    H115866   7.028   5.266   5.242
 5303TIP3    H215867   7.061   5.120   5.223
 5304TIP3   OH215868   0.292   1.709   0.442
 5304TIP3    H115869   0.362   1.653   0.409
 5304TIP3    H215870   0.257   1.751   0.363
 5305TIP3   OH215871   0.434   5.866   6.776
 5305TIP3    H115872   0.399   5.931   6.716
 5305TIP3    H215873   0.371   5.794   6.771
 5306TIP3   OH215874   1.217   3.356   5.386
 5306TIP3    H115875   1.293   3.395   5.341
 5306TIP3    H215876   1.170   3.431   5.422
 5307TIP3   OH215877   2.767   6.590   3.846
 5307TIP3    H115878   2.844   6.610   3.900
 5307TIP3    H215879   2.800   6.589   3.756
 5308TIP3   OH215880   4.060   2.224   0.959
 5308TIP3    H115881   4.135   2.277   0.930
 5308TIP3    H215882   4.009   2.284   1.014
 5309TIP3   OH215883   2.421   2.942   0.915
 5309TIP3    H115884   2.432   2.847   0.907
 5309TIP3    H215885   2.488   2.978   0.856
 5310TIP3   OH215886   0.422   6.388   6.537
 5310TIP3    H115887   0.410   6.467   6.589
 5310TIP3    H215888   0.350   6.388   6.475
 5311TIP3   OH215889   8.187   6.968   1.987
 5311TIP3    H115890   8.257   6.904   1.995
 5311TIP3    H215891   8.204   7.031   2.057
 5312TIP3   OH215892   2.934   2.370   1.606
 5312TIP3    H115893   2.894   2.316   1.538
 5312TIP3    H215894   3.028   2.352   1.599
 5313TIP3   OH215895   3.307   3.231   0.263
 5313TIP3    H115896   3.383   3.176   0.243
 5313TIP3    H215897   3.337   3.320   0.244
 5314TIP3   OH215898   0.773   1.638   3.456
 5314TIP3    H115899   0.681   1.644   3.429
 5314TIP3    H215900   0.815   1.714   3.415
 5315TIP3   OH215901   2.980   2.406   1.960
 5315TIP3    H115902   2.993   2.317   1.926
 5315TIP3    H215903   2.966   2.459   1.882
 5316TIP3   OH215904   5.314   0.803   2.513
 5316TIP3    H115905   5.401   0.796   2.553
 5316TIP3    H215906   5.283   0.890   2.539
 5317TIP3   OH215907   8.164   0.477   5.197
 5317TIP3    H115908   8.234   0.413   5.201
 5317TIP3    H215909   8.207   0.560   5.177
 5318TIP3   OH215910   2.286   4.842   0.576
 5318TIP3    H115911   2.372   4.854   0.617
 5318TIP3    H215912   2.305   4.831   0.483
 5319TIP3   OH215913   8.272   5.198   2.828
 5319TIP3    H115914   8.326   5.227   2.754
 5319TIP3    H215915   8.277   5.269   2.891
 5320TIP3   OH215916   0.730   2.402   0.794
 5320TIP3    H115917   0.714   2.343   0.721
 5320TIP3    H215918   0.776   2.349   0.859
 5321TIP3   OH215919   3.539   3.048   0.192
 5321TIP3    H115920   3.634   3.041   0.191
 5321TIP3    H215921   3.517   3.087   0.107
 5322TIP3   OH215922   6.770   3.338   1.459
 5322TIP3    H115923   6.787   3.431   1.449
 5322TIP3    H215924   6.684   3.324   1.419
 5323TIP3   OH215925   6.827   4.061   0.875
 5323TIP3    H115926   6.739   4.074   0.910
 5323TIP3    H215927   6.816   4.065   0.780
 5324TIP3   OH215928   2.705   2.073   3.854
 5324TIP3    H115929   2.724   2.127   3.931
 5324TIP3    H215930   2.683   2.135   3.786
 5325TIP3   OH215931   0.041   6.858   6.741
 5325TIP3    H115932   0.051   6.789   6.806
 5325TIP3    H215933   0.124   6.859   6.693
 5326TIP3   OH215934   7.784   1.765   1.801
 5326TIP3    H115935   7.834   1.707   1.743
 5326TIP3    H215936   7.747   1.706   1.867
 5327TIP3   OH215937   7.371   2.047   1.353
 5327TIP3    H115938   7.344   2.134   1.383
 5327TIP3    H215939   7.404   2.061   1.264
 5328TIP3   OH215940   7.426   1.089   0.850
 5328TIP3    H115941   7.384   1.074   0.935
 5328TIP3    H215942   7.479   1.168   0.862
 5329TIP3   OH215943   7.406   1.721   1.340
 5329TIP3    H115944   7.338   1.784   1.365
 5329TIP3    H215945   7.362   1.636   1.344
 5330TIP3   OH215946   3.681   6.205   5.375
 5330TIP3    H115947   3.689   6.136   5.441
 5330TIP3    H215948   3.731   6.172   5.300
 5331TIP3   OH215949   4.823   3.632   1.450
 5331TIP3    H115950   4.879   3.606   1.523
 5331TIP3    H215951   4.868   3.600   1.372
 5332TIP3   OH215952   3.518   5.570   3.992
 5332TIP3    H115953   3.460   5.622   4.046
 5332TIP3    H215954   3.534   5.491   4.044
 5333TIP3   OH215955   8.278   6.453   6.277
 5333TIP3    H115956   8.352   6.486   6.328
 5333TIP3    H215957   8.317   6.419   6.197
 5334TIP3   OH215958   7.899   4.984   0.085
 5334TIP3    H115959   7.890   4.898   0.125
 5334TIP3    H215960   7.879   5.046   0.155
 5335TIP3   OH215961   7.566   1.642   5.314
 5335TIP3    H115962   7.500   1.710   5.319
 5335TIP3    H215963   7.623   1.669   5.242
 5336TIP3   OH215964   7.636   3.090   0.975
 5336TIP3    H115965   7.635   3.170   0.922
 5336TIP3    H215966   7.579   3.029   0.927
 5337TIP3   OH215967   8.199   6.050   3.343
 5337TIP3    H115968   8.167   5.960   3.335
 5337TIP3    H215969   8.294   6.042   3.328
 5338TIP3   OH215970   0.108   4.458   6.445
 5338TIP3    H115971   0.182   4.448   6.506
 5338TIP3    H215972   0.148   4.490   6.364
 5339TIP3   OH215973   6.257   1.032   2.343
 5339TIP3    H115974   6.241   1.042   2.437
 5339TIP3    H215975   6.175   0.995   2.309
 5340TIP3   OH215976   1.079   1.605   5.996
 5340TIP3    H115977   1.168   1.570   6.002
 5340TIP3    H215978   1.066   1.623   5.903
 5341TIP3   OH215979   4.316   0.952   0.772
 5341TIP3    H115980   4.352   0.879   0.723
 5341TIP3    H215981   4.320   0.924   0.863
 5342TIP3   OH215982   8.250   0.990   0.214
 5342TIP3    H115983   8.291   1.077   0.219
 5342TIP3    H215984   8.181   1.000   0.149
 5343TIP3   OH215985   5.280   5.188   0.479
 5343TIP3    H115986   5.248   5.108   0.521
 5343TIP3    H215987   5.219   5.256   0.507
 5344TIP3   OH215988   3.747   4.438   1.086
 5344TIP3    H115989   3.825   4.456   1.139
 5344TIP3    H215990   3.678   4.420   1.149
 5345TIP3   OH215991   6.554   7.135   0.671
 5345TIP3    H115992   6.517   7.199   0.733
 5345TIP3    H215993   6.481   7.113   0.613
 5346TIP3   OH215994   4.694   2.732   0.048
 5346TIP3    H115995   4.664   2.807  -0.004
 5346TIP3    H215996   4.689   2.761   0.139
 5347TIP3   OH215997   5.648   7.142   4.293
 5347TIP3    H115998   5.626   7.054   4.262
 5347TIP3    H215999   5.640   7.197   4.215
 5348TIP3   OH216000   3.019   6.311   4.527
 5348TIP3    H116001   3.006   6.312   4.622
 5348TIP3    H216002   2.974   6.390   4.496
 5349TIP3   OH216003   5.756   5.669   4.755
 5349TIP3    H116004   5.790   5.691   4.842
 5349TIP3    H216005   5.695   5.740   4.734
 5350TIP3   OH216006   5.458   7.752   5.034
 5350TIP3    H116007   5.485   7.831   4.988
 5350TIP3    H216008   5.538   7.700   5.041
 5351TIP3   OH216009   2.240   5.124   2.766
 5351TIP3    H116010   2.155   5.162   2.749
 5351TIP3    H216011   2.293   5.145   2.689
 5352TIP3   OH216012   3.615   3.551   0.072
 5352TIP3    H116013   3.541   3.609   0.060
 5352TIP3    H216014   3.605   3.517   0.161
 5353TIP3   OH216015   4.815   7.100   4.233
 5353TIP3    H116016   4.886   7.058   4.186
 5353TIP3    H216017   4.751   7.122   4.165
 5354TIP3   OH216018   2.588   7.446   6.396
 5354TIP3    H116019   2.646   7.518   6.371
 5354TIP3    H216020   2.646   7.369   6.397
 5355TIP3   OH216021   2.697   0.587   1.327
 5355TIP3    H116022   2.791   0.592   1.306
 5355TIP3    H216023   2.682   0.662   1.385
 5356TIP3   OH216024   5.011   0.832   0.132
 5356TIP3    H116025   5.058   0.786   0.201
 5356TIP3    H216026   5.062   0.817   0.053
 5357TIP3   OH216027   2.856   2.760   2.233
 5357TIP3    H116028   2.923   2.718   2.287
 5357TIP3    H216029   2.777   2.710   2.248
 5358TIP3   OH216030   0.154   5.496   6.530
 5358TIP3    H116031   0.070   5.458   6.555
 5358TIP3    H216032   0.177   5.454   6.448
 5359TIP3   OH216033   1.905   2.284   1.451
 5359TIP3    H116034   1.979   2.329   1.409
 5359TIP3    H216035   1.913   2.307   1.544
 5360TIP3   OH216036   1.159   0.861   5.050
 5360TIP3    H116037   1.238   0.831   5.006
 5360TIP3    H216038   1.154   0.955   5.030
 5361TIP3   OH216039   1.658   1.524   5.988
 5361TIP3    H116040   1.713   1.510   6.065
 5361TIP3    H216041   1.659   1.619   5.975
 5362TIP3   OH216042   6.564   1.178   0.678
 5362TIP3    H116043   6.602   1.266   0.682
 5362TIP3    H216044   6.474   1.189   0.708
 5363TIP3   OH216045   2.996   0.967   4.507
 5363TIP3    H116046   3.025   1.045   4.555
 5363TIP3    H216047   2.921   0.997   4.455
 5364TIP3   OH216048   6.707   2.106   1.783
 5364TIP3    H116049   6.757   2.152   1.851
 5364TIP3    H216050   6.667   2.177   1.731
 5365TIP3   OH216051   5.722   5.103   3.988
 5365TIP3    H116052   5.764   5.185   4.013
 5365TIP3    H216053   5.630   5.116   4.009
 5366TIP3   OH216054   1.556   5.364   4.407
 5366TIP3    H116055   1.584   5.378   4.316
 5366TIP3    H216056   1.636   5.367   4.458
 5367TIP3   OH216057   4.405   4.350   5.324
 5367TIP3    H116058   4.389   4.303   5.242
 5367TIP3    H216059   4.477   4.410   5.303
 5368TIP3   OH216060   4.868   0.105   6.149
 5368TIP3    H116061   4.845   0.012   6.155
 5368TIP3    H216062   4.922   0.111   6.069
 5369TIP3   OH216063   0.273   6.361   3.017
 5369TIP3    H116064   0.332   6.432   2.992
 5369TIP3    H216065   0.252   6.317   2.935
 5370TIP3   OH216066   5.074   7.239   3.729
 5370TIP3    H116067   5.109   7.325   3.750
 5370TIP3    H216068   4.999   7.256   3.674
 5371TIP3   OH216069   7.499   7.297   3.520
 5371TIP3    H116070   7.550   7.318   3.598
 5371TIP3    H216071   7.534   7.354   3.452
 5372TIP3   OH216072   8.213   3.373   0.118
 5372TIP3    H116073   8.176   3.379   0.030
 5372TIP3    H216074   8.243   3.282   0.125
 5373TIP3   OH216075   0.422   3.999   1.777
 5373TIP3    H116076   0.377   4.010   1.861
 5373TIP3    H216077   0.515   4.007   1.798
 5374TIP3   OH216078   6.090   2.972   4.358
 5374TIP3    H116079   6.136   2.991   4.440
 5374TIP3    H216080   6.083   2.877   4.356
 5375TIP3   OH216081   4.140   1.435   5.534
 5375TIP3    H116082   4.219   1.490   5.530
 5375TIP3    H216083   4.103   1.440   5.446
 5376TIP3   OH216084   8.012   0.278   3.697
 5376TIP3    H116085   8.048   0.363   3.719
 5376TIP3    H216086   7.924   0.278   3.734
 5377TIP3   OH216087   3.716   3.295   1.492
 5377TIP3    H116088   3.795   3.244   1.474
 5377TIP3    H216089   3.724   3.374   1.439
 5378TIP3   OH216090   3.060   7.772  -0.017
 5378TIP3    H116091   3.077   7.798   0.073
 5378TIP3    H216092   3.027   7.682  -0.011
 5379TIP3   OH216093   7.233   4.194   2.349
 5379TIP3    H116094   7.302   4.178   2.286
 5379TIP3    H216095   7.152   4.165   2.306
 5380TIP3   OH216096   0.380   5.293   3.503
 5380TIP3    H116097   0.389   5.217   3.561
 5380TIP3    H216098   0.315   5.266   3.438
 5381TIP3   OH216099   0.850   3.271   6.776
 5381TIP3    H116100   0.873   3.263   6.868
 5381TIP3    H216101   0.854   3.181   6.742
 5382TIP3   OH216102   2.994   6.695   3.980
 5382TIP3    H116103   3.053   6.765   3.951
 5382TIP3    H216104   2.947   6.732   4.055
 5383TIP3   OH216105   3.596   1.939   6.457
 5383TIP3    H116106   3.615   1.960   6.365
 5383TIP3    H216107   3.623   1.848   6.466
 5384TIP3   OH216108   2.513   0.472   4.929
 5384TIP3    H116109   2.425   0.436   4.915
 5384TIP3    H216110   2.571   0.416   4.878
 5385TIP3   OH216111   2.269   2.899   6.304
 5385TIP3    H116112   2.327   2.921   6.376
 5385TIP3    H216113   2.259   2.981   6.255
 5386TIP3   OH216114   3.373   4.288   6.785
 5386TIP3    H116115   3.429   4.245   6.721
 5386TIP3    H216116   3.371   4.228   6.860
 5387TIP3   OH216117  -0.001   2.249   0.806
 5387TIP3    H116118   0.085   2.208   0.806
 5387TIP3    H216119  -0.016   2.277   0.716
 5388TIP3   OH216120   1.766   5.662   1.987
 5388TIP3    H116121   1.732   5.738   1.941
 5388TIP3    H216122   1.858   5.657   1.962
 5389TIP3   OH216123   1.727   2.572   3.621
 5389TIP3    H116124   1.735   2.611   3.708
 5389TIP3    H216125   1.702   2.481   3.638
 5390TIP3   OH216126   7.755   5.827   5.616
 5390TIP3    H116127   7.677   5.812   5.563
 5390TIP3    H216128   7.784   5.740   5.642
 5391TIP3   OH216129   0.604   6.995   1.650
 5391TIP3    H116130   0.691   7.017   1.683
 5391TIP3    H216131   0.603   7.030   1.561
 5392TIP3   OH216132   1.707   1.341   0.275
 5392TIP3    H116133   1.790   1.369   0.314
 5392TIP3    H216134   1.715   1.246   0.267
 5393TIP3   OH216135   6.058   7.844   1.661
 5393TIP3    H116136   5.969   7.809   1.652
 5393TIP3    H216137   6.114   7.779   1.619
 5394TIP3   OH216138   0.320   6.608   0.473
 5394TIP3    H116139   0.392   6.558   0.510
 5394TIP3    H216140   0.244   6.550   0.479
 5395TIP3   OH216141   2.516   3.447   5.199
 5395TIP3    H116142   2.478   3.535   5.201
 5395TIP3    H216143   2.586   3.452   5.134
 5396TIP3   OH216144   4.786   0.673   0.519
 5396TIP3    H116145   4.819   0.741   0.460
 5396TIP3    H216146   4.712   0.634   0.472
 5397TIP3   OH216147   1.312   3.558   0.447
 5397TIP3    H116148   1.219   3.580   0.455
 5397TIP3    H216149   1.331   3.505   0.525
 5398TIP3   OH216150   4.631   6.795   0.781
 5398TIP3    H116151   4.587   6.742   0.715
 5398TIP3    H216152   4.563   6.815   0.845
 5399TIP3   OH216153   6.191   1.060   5.195
 5399TIP3    H116154   6.250   1.013   5.254
 5399TIP3    H216155   6.133   0.992   5.159
 5400TIP3   OH216156   8.227   3.982   0.904
 5400TIP3    H116157   8.206   3.962   0.995
 5400TIP3    H216158   8.259   3.900   0.867
 5401TIP3   OH216159   3.017   4.237   5.730
 5401TIP3    H116160   2.929   4.271   5.715
 5401TIP3    H216161   3.073   4.292   5.676
 5402TIP3   OH216162   5.042   1.069   1.125
 5402TIP3    H116163   5.018   0.980   1.153
 5402TIP3    H216164   4.976   1.092   1.060
 5403TIP3   OH216165   0.214   5.900   4.782
 5403TIP3    H116166   0.246   5.921   4.870
 5403TIP3    H216167   0.180   5.982   4.748
 5404TIP3   OH216168   6.350   6.559   0.815
 5404TIP3    H116169   6.315   6.648   0.822
 5404TIP3    H216170   6.304   6.522   0.739
 5405TIP3   OH216171   2.284   3.893   1.259
 5405TIP3    H116172   2.335   3.899   1.179
 5405TIP3    H216173   2.344   3.855   1.323
 5406TIP3   OH216174   2.057   3.757   6.204
 5406TIP3    H116175   2.053   3.692   6.274
 5406TIP3    H216176   2.007   3.831   6.238
 5407TIP3   OH216177   4.519   3.337   4.200
 5407TIP3    H116178   4.440   3.291   4.230
 5407TIP3    H216179   4.552   3.283   4.128
 5408TIP3   OH216180   8.047   3.390   1.356
 5408TIP3    H116181   8.107   3.338   1.303
 5408TIP3    H216182   7.960   3.359   1.332
 5409TIP3   OH216183   5.595   1.402   3.133
 5409TIP3    H116184   5.649   1.476   3.160
 5409TIP3    H216185   5.627   1.380   3.045
 5410TIP3   OH216186   1.931   3.553   3.753
 5410TIP3    H116187   1.993   3.604   3.701
 5410TIP3    H216188   1.847   3.597   3.742
 5411TIP3   OH216189   0.646   3.983   0.080
 5411TIP3    H116190   0.585   4.051   0.106
 5411TIP3    H216191   0.644   3.983  -0.016
 5412TIP3   OH216192   5.243   0.390   3.514
 5412TIP3    H116193   5.287   0.474   3.503
 5412TIP3    H216194   5.285   0.350   3.590
 5413TIP3   OH216195   1.256   4.760   5.319
 5413TIP3    H116196   1.324   4.806   5.369
 5413TIP3    H216197   1.176   4.810   5.335
 5414TIP3   OH216198   3.593   6.715   5.404
 5414TIP3    H116199   3.599   6.802   5.366
 5414TIP3    H216200   3.606   6.655   5.331
 5415TIP3   OH216201   3.572   6.065   1.136
 5415TIP3    H116202   3.620   6.049   1.217
 5415TIP3    H216203   3.490   6.104   1.164
 5416TIP3   OH216204   3.198   3.398   3.555
 5416TIP3    H116205   3.160   3.349   3.628
 5416TIP3    H216206   3.126   3.408   3.493
 5417TIP3   OH216207   5.336   0.995   1.060
 5417TIP3    H116208   5.350   1.051   0.983
 5417TIP3    H216209   5.320   1.056   1.132
 5418TIP3   OH216210   6.170   2.031   3.870
 5418TIP3    H116211   6.233   2.027   3.797
 5418TIP3    H216212   6.141   1.940   3.881
 5419TIP3   OH216213   3.735   1.038   0.286
 5419TIP3    H116214   3.801   1.045   0.354
 5419TIP3    H216215   3.716   0.945   0.281
 5420TIP3   OH216216   7.827   1.255   1.428
 5420TIP3    H116217   7.857   1.249   1.338
 5420TIP3    H216218   7.907   1.261   1.480
 5421TIP3   OH216219   7.063   5.952   2.092
 5421TIP3    H116220   7.044   5.969   2.000
 5421TIP3    H216221   7.145   5.902   2.090
 5422TIP3   OH216222   4.802   5.633   1.284
 5422TIP3    H116223   4.849   5.673   1.211
 5422TIP3    H216224   4.710   5.639   1.259
 5423TIP3   OH216225   8.175   1.363   3.759
 5423TIP3    H116226   8.189   1.277   3.719
 5423TIP3    H216227   8.126   1.345   3.838
 5424TIP3   OH216228   7.749   3.303   1.401
 5424TIP3    H116229   7.738   3.357   1.479
 5424TIP3    H216230   7.664   3.307   1.357
 5425TIP3   OH216231   5.480   1.478   2.817
 5425TIP3    H116232   5.466   1.571   2.835
 5425TIP3    H216233   5.394   1.446   2.789
 5426TIP3   OH216234   7.955   0.382   4.785
 5426TIP3    H116235   7.942   0.311   4.847
 5426TIP3    H216236   7.881   0.441   4.798
 5427TIP3   OH216237   1.035   6.294   6.301
 5427TIP3    H116238   1.121   6.292   6.344
 5427TIP3    H216239   0.972   6.296   6.373
 5428TIP3   OH216240   0.291   6.275   5.942
 5428TIP3    H116241   0.295   6.370   5.928
 5428TIP3    H216242   0.334   6.238   5.865
 5429TIP3   OH216243   4.885   2.401   2.341
 5429TIP3    H116244   4.873   2.307   2.327
 5429TIP3    H216245   4.909   2.435   2.255
 5430TIP3   OH216246   4.086   7.335   4.441
 5430TIP3    H116247   4.045   7.261   4.485
 5430TIP3    H216248   4.120   7.299   4.359
 5431TIP3   OH216249   1.695   7.124   4.308
 5431TIP3    H116250   1.614   7.141   4.260
 5431TIP3    H216251   1.760   7.182   4.268
 5432TIP3   OH216252   6.866   3.471   4.118
 5432TIP3    H116253   6.820   3.543   4.075
 5432TIP3    H216254   6.914   3.428   4.047
 5433TIP3   OH216255   6.615   5.998   2.933
 5433TIP3    H116256   6.558   5.960   2.866
 5433TIP3    H216257   6.697   6.015   2.886
 5434TIP3   OH216258   0.206   5.629   3.333
 5434TIP3    H116259   0.300   5.610   3.342
 5434TIP3    H216260   0.185   5.683   3.410
 5435TIP3   OH216261   0.608   0.190   0.205
 5435TIP3    H116262   0.657   0.117   0.244
 5435TIP3    H216263   0.527   0.193   0.256
 5436TIP3   OH216264   3.747   5.205   1.140
 5436TIP3    H116265   3.834   5.198   1.100
 5436TIP3    H216266   3.741   5.296   1.169
 5437TIP3   OH216267   8.196   4.888   2.757
 5437TIP3    H116268   8.226   4.810   2.802
 5437TIP3    H216269   8.190   4.862   2.665
 5438TIP3   OH216270   7.610   5.592   3.602
 5438TIP3    H116271   7.657   5.511   3.625
 5438TIP3    H216272   7.678   5.652   3.573
 5439TIP3   OH216273   0.095   4.198   6.007
 5439TIP3    H116274   0.187   4.221   6.021
 5439TIP3    H216275   0.046   4.258   6.062
 5440TIP3   OH216276   2.475   5.119   3.099
 5440TIP3    H116277   2.382   5.114   3.079
 5440TIP3    H216278   2.480   5.166   3.182
 5441TIP3   OH216279   3.490   7.323   0.887
 5441TIP3    H116280   3.503   7.382   0.813
 5441TIP3    H216281   3.493   7.235   0.848
 5442TIP3   OH216282   6.123   1.005   1.544
 5442TIP3    H116283   6.215   1.030   1.553
 5442TIP3    H216284   6.123   0.939   1.475
 5443TIP3   OH216285   7.949   4.944   4.861
 5443TIP3    H116286   7.984   5.007   4.799
 5443TIP3    H216287   7.997   4.961   4.942
 5444TIP3   OH216288   2.326   6.291   4.046
 5444TIP3    H116289   2.393   6.358   4.035
 5444TIP3    H216290   2.252   6.323   3.994
 5445TIP3   OH216291   8.166   5.052   1.929
 5445TIP3    H116292   8.146   4.977   1.986
 5445TIP3    H216293   8.092   5.055   1.868
 5446TIP3   OH216294   3.916   4.074   6.609
 5446TIP3    H116295   3.872   4.139   6.554
 5446TIP3    H216296   3.945   4.124   6.685
 5447TIP3   OH216297   6.384   3.443   4.855
 5447TIP3    H116298   6.357   3.499   4.928
 5447TIP3    H216299   6.376   3.498   4.778
 5448TIP3   OH216300   1.303   4.254   4.078
 5448TIP3    H116301   1.340   4.225   3.995
 5448TIP3    H216302   1.244   4.326   4.055
 5449TIP3   OH216303   0.457   0.607   0.023
 5449TIP3    H116304   0.512   0.529   0.013
 5449TIP3    H216305   0.472   0.636   0.113
 5450TIP3   OH216306   7.209   4.342   4.087
 5450TIP3    H116307   7.241   4.395   4.014
 5450TIP3    H216308   7.266   4.366   4.160
 5451TIP3   OH216309   7.214   4.213   4.803
 5451TIP3    H116310   7.274   4.156   4.755
 5451TIP3    H216311   7.239   4.202   4.895
 5452TIP3   OH216312   1.588   1.839   5.096
 5452TIP3    H116313   1.528   1.865   5.165
 5452TIP3    H216314   1.632   1.761   5.131
 5453TIP3   OH216315   8.228   2.234   1.512
 5453TIP3    H116316   8.158   2.190   1.559
 5453TIP3    H216317   8.271   2.164   1.462
 5454TIP3   OH216318   5.448   6.076   6.060
 5454TIP3    H116319   5.399   5.993   6.063
 5454TIP3    H216320   5.382   6.140   6.033
 5455TIP3   OH216321   6.997   1.270   2.478
 5455TIP3    H116322   7.078   1.320   2.469
 5455TIP3    H216323   6.936   1.329   2.522
 5456TIP3   OH216324   7.411   1.495   4.020
 5456TIP3    H116325   7.375   1.429   3.960
 5456TIP3    H216326   7.473   1.447   4.075
 5457TIP3   OH216327   7.961   1.245   5.360
 5457TIP3    H116328   7.948   1.287   5.276
 5457TIP3    H216329   8.052   1.265   5.383
 5458TIP3   OH216330   4.877   7.463   6.778
 5458TIP3    H116331   4.799   7.409   6.762
 5458TIP3    H216332   4.861   7.501   6.865
 5459TIP3   OH216333   4.444   1.757   0.036
 5459TIP3    H116334   4.407   1.669   0.030
 5459TIP3    H216335   4.368   1.815   0.037
 5460TIP3   OH216336   2.117   6.416   5.382
 5460TIP3    H116337   2.096   6.348   5.445
 5460TIP3    H216338   2.175   6.374   5.319
 5461TIP3   OH216339   0.947   3.551   0.813
 5461TIP3    H116340   0.956   3.511   0.899
 5461TIP3    H216341   0.995   3.633   0.819
 5462TIP3   OH216342   2.366   4.753   4.565
 5462TIP3    H116343   2.311   4.775   4.639
 5462TIP3    H216344   2.343   4.817   4.497
 5463TIP3   OH216345   6.063   4.800   3.709
 5463TIP3    H116346   6.130   4.734   3.725
 5463TIP3    H216347   6.098   4.880   3.746
 5464TIP3   OH216348   1.163   2.707   1.143
 5464TIP3    H116349   1.089   2.760   1.112
 5464TIP3    H216350   1.241   2.753   1.110
 5465TIP3   OH216351   5.792   7.108   4.540
 5465TIP3    H116352   5.746   7.027   4.562
 5465TIP3    H216353   5.774   7.121   4.447
 5466TIP3   OH216354   7.656   4.941   3.729
 5466TIP3    H116355   7.608   4.992   3.794
 5466TIP3    H216356   7.600   4.941   3.652
 5467TIP3   OH216357   5.495   7.395   1.047
 5467TIP3    H116358   5.554   7.469   1.057
 5467TIP3    H216359   5.490   7.381   0.952
 5468TIP3   OH216360   1.070   0.697   3.761
 5468TIP3    H116361   1.057   0.617   3.710
 5468TIP3    H216362   1.159   0.726   3.739
 5469TIP3   OH216363   5.567   0.752   6.341
 5469TIP3    H116364   5.615   0.828   6.308
 5469TIP3    H216365   5.484   0.753   6.293
 5470TIP3   OH216366   5.962   5.271   1.101
 5470TIP3    H116367   5.898   5.332   1.136
 5470TIP3    H216368   5.997   5.315   1.024
 5471TIP3   OH216369   2.614   1.706   2.916
 5471TIP3    H116370   2.568   1.629   2.882
 5471TIP3    H216371   2.561   1.734   2.991
 5472TIP3   OH216372   5.443   3.921   1.049
 5472TIP3    H116373   5.430   3.853   0.983
 5472TIP3    H216374   5.498   3.880   1.115
 5473TIP3   OH216375   8.249   4.911   3.932
 5473TIP3    H116376   8.208   4.984   3.978
 5473TIP3    H216377   8.311   4.875   3.996
 5474TIP3   OH216378   5.677   0.561   2.068
 5474TIP3    H116379   5.687   0.644   2.114
 5474TIP3    H216380   5.764   0.521   2.071
 5475TIP3   OH216381   4.283   4.936   5.075
 5475TIP3    H116382   4.230   4.964   5.150
 5475TIP3    H216383   4.373   4.958   5.100
 5476TIP3   OH216384   6.100   0.642   4.115
 5476TIP3    H116385   6.092   0.711   4.180
 5476TIP3    H216386   6.011   0.627   4.084
 5477TIP3   OH216387   2.235   7.341   2.665
 5477TIP3    H116388   2.268   7.259   2.628
 5477TIP3    H216389   2.308   7.402   2.655
 5478TIP3   OH216390   7.636   7.143   4.631
 5478TIP3    H116391   7.541   7.150   4.638
 5478TIP3    H216392   7.660   7.204   4.562
 5479TIP3   OH216393   5.787   3.462   0.864
 5479TIP3    H116394   5.834   3.395   0.915
 5479TIP3    H216395   5.695   3.449   0.886
 5480TIP3   OH216396   0.068   0.504   6.272
 5480TIP3    H116397   0.078   0.420   6.316
 5480TIP3    H216398   0.158   0.530   6.251
 5481TIP3   OH216399   3.487   4.454   6.383
 5481TIP3    H116400   3.540   4.450   6.303
 5481TIP3    H216401   3.512   4.536   6.425
 5482TIP3   OH216402   4.542   2.243   5.909
 5482TIP3    H116403   4.489   2.286   5.976
 5482TIP3    H216404   4.513   2.282   5.827
 5483TIP3   OH216405   1.304   6.946   1.863
 5483TIP3    H116406   1.370   7.014   1.849
 5483TIP3    H216407   1.326   6.907   1.947
 5484TIP3   OH216408   3.699   1.323   5.780
 5484TIP3    H116409   3.740   1.250   5.734
 5484TIP3    H216410   3.619   1.340   5.732
 5485TIP3   OH216411   0.977   7.329   4.814
 5485TIP3    H116412   0.959   7.255   4.755
 5485TIP3    H216413   1.065   7.314   4.846
 5486TIP3   OH216414   3.660   7.227   0.251
 5486TIP3    H116415   3.726   7.160   0.267
 5486TIP3    H216416   3.697   7.306   0.291
 5487TIP3   OH216417   1.331   0.915   5.560
 5487TIP3    H116418   1.375   0.999   5.575
 5487TIP3    H216419   1.397   0.860   5.518
 5488TIP3   OH216420   0.587   6.499   5.168
 5488TIP3    H116421   0.578   6.445   5.247
 5488TIP3    H216422   0.517   6.468   5.110
 5489TIP3   OH216423   3.555   1.010   6.635
 5489TIP3    H116424   3.567   0.956   6.557
 5489TIP3    H216425   3.631   1.067   6.638
 5490TIP3   OH216426   5.182   1.394   6.569
 5490TIP3    H116427   5.272   1.427   6.562
 5490TIP3    H216428   5.132   1.450   6.509
 5491TIP3   OH216429   6.325   3.496   6.096
 5491TIP3    H116430   6.379   3.421   6.120
 5491TIP3    H216431   6.239   3.477   6.134
 5492TIP3   OH216432   1.217   1.027   3.881
 5492TIP3    H116433   1.176   1.039   3.966
 5492TIP3    H216434   1.264   0.944   3.888
 5493TIP3   OH216435   6.985   4.188   4.158
 5493TIP3    H116436   7.067   4.227   4.126
 5493TIP3    H216437   6.916   4.243   4.120
 5494TIP3   OH216438   1.890   0.160   1.953
 5494TIP3    H116439   1.956   0.160   1.883
 5494TIP3    H216440   1.934   0.205   2.026
 5495TIP3   OH216441   2.146   5.992   2.570
 5495TIP3    H116442   2.135   5.897   2.569
 5495TIP3    H216443   2.205   6.010   2.496
 5496TIP3   OH216444   3.391   7.680   1.600
 5496TIP3    H116445   3.469   7.729   1.573
 5496TIP3    H216446   3.405   7.592   1.567
 5497TIP3   OH216447   2.299   5.135   6.076
 5497TIP3    H116448   2.289   5.126   5.982
 5497TIP3    H216449   2.319   5.228   6.090
 5498TIP3   OH216450   1.155   6.114   4.303
 5498TIP3    H116451   1.167   6.161   4.386
 5498TIP3    H216452   1.221   6.151   4.244
 5499TIP3   OH216453   6.040   1.995   6.352
 5499TIP3    H116454   5.990   1.979   6.432
 5499TIP3    H216455   5.985   1.959   6.282
 5500TIP3   OH216456   0.163   4.770   4.513
 5500TIP3    H116457   0.125   4.852   4.480
 5500TIP3    H216458   0.232   4.799   4.573
 5501TIP3   OH216459   2.485   6.724   5.641
 5501TIP3    H116460   2.563   6.754   5.594
 5501TIP3    H216461   2.454   6.802   5.687
 5502TIP3   OH216462   7.279   4.987   6.752
 5502TIP3    H116463   7.203   4.965   6.806
 5502TIP3    H216464   7.289   4.911   6.694
 5503TIP3   OH216465   3.969   0.598   6.267
 5503TIP3    H116466   3.890   0.601   6.321
 5503TIP3    H216467   3.952   0.529   6.203
 5504TIP3   OH216468   3.637   6.574   2.702
 5504TIP3    H116469   3.629   6.617   2.617
 5504TIP3    H216470   3.659   6.644   2.763
 5505TIP3   OH216471   1.108   0.477   0.522
 5505TIP3    H116472   1.018   0.457   0.548
 5505TIP3    H216473   1.146   0.519   0.600
 5506TIP3   OH216474   2.755   4.755   1.843
 5506TIP3    H116475   2.792   4.667   1.841
 5506TIP3    H216476   2.660   4.742   1.850
 5507TIP3   OH216477   1.288   0.586   1.073
 5507TIP3    H116478   1.380   0.611   1.087
 5507TIP3    H216479   1.242   0.625   1.148
 5508TIP3   OH216480   8.061   4.339   5.394
 5508TIP3    H116481   7.966   4.328   5.402
 5508TIP3    H216482   8.080   4.419   5.443
 5509TIP3   OH216483  -0.006   5.122   2.267
 5509TIP3    H116484  -0.076   5.184   2.249
 5509TIP3    H216485   0.066   5.150   2.210
 5510TIP3   OH216486   5.650   6.371   0.983
 5510TIP3    H116487   5.632   6.458   0.946
 5510TIP3    H216488   5.736   6.348   0.949
 5511TIP3   OH216489   1.930   6.293   1.077
 5511TIP3    H116490   1.917   6.350   1.001
 5511TIP3    H216491   1.842   6.271   1.106
 5512TIP3   OH216492   2.581   0.429   3.514
 5512TIP3    H116493   2.646   0.421   3.444
 5512TIP3    H216494   2.576   0.523   3.531
 5513TIP3   OH216495   3.744   6.936   3.473
 5513TIP3    H116496   3.704   6.855   3.503
 5513TIP3    H216497   3.723   7.001   3.540
 5514TIP3   OH216498   3.538   6.528   4.486
 5514TIP3    H116499   3.461   6.487   4.526
 5514TIP3    H216500   3.612   6.478   4.521
 5515TIP3   OH216501   5.320   5.262   3.466
 5515TIP3    H116502   5.254   5.241   3.533
 5515TIP3    H216503   5.279   5.236   3.384
 5516TIP3   OH216504   4.354   7.820   0.943
 5516TIP3    H116505   4.339   7.896   0.888
 5516TIP3    H216506   4.302   7.750   0.902
 5517TIP3   OH216507   3.638   0.918   4.567
 5517TIP3    H116508   3.572   0.859   4.530
 5517TIP3    H216509   3.663   0.877   4.650
 5518TIP3   OH216510   4.822   6.999   1.135
 5518TIP3    H116511   4.812   7.020   1.227
 5518TIP3    H216512   4.739   7.027   1.095
 5519TIP3   OH216513   0.694   5.075   1.890
 5519TIP3    H116514   0.612   5.116   1.865
 5519TIP3    H216515   0.669   4.988   1.920
 5520TIP3   OH216516   0.491   6.409   0.585
 5520TIP3    H116517   0.426   6.359   0.635
 5520TIP3    H216518   0.574   6.392   0.630
 5521TIP3   OH216519   1.419   5.487   2.254
 5521TIP3    H116520   1.376   5.410   2.290
 5521TIP3    H216521   1.484   5.453   2.194
 5522TIP3   OH216522   7.115   1.995   0.781
 5522TIP3    H116523   7.068   1.965   0.858
 5522TIP3    H216524   7.130   2.089   0.796
 5523TIP3   OH216525   5.994   2.790   0.086
 5523TIP3    H116526   5.906   2.792   0.122
 5523TIP3    H216527   6.006   2.876   0.046
 5524TIP3   OH216528   0.807   3.400   5.185
 5524TIP3    H116529   0.771   3.436   5.266
 5524TIP3    H216530   0.731   3.392   5.127
 5525TIP3   OH216531   6.703   6.792   5.871
 5525TIP3    H116532   6.734   6.728   5.807
 5525TIP3    H216533   6.617   6.818   5.838
 5526TIP3   OH216534   8.149   6.430   2.153
 5526TIP3    H116535   8.206   6.506   2.162
 5526TIP3    H216536   8.199   6.367   2.101
 5527TIP3   OH216537   8.106   6.503   5.499
 5527TIP3    H116538   8.052   6.472   5.572
 5527TIP3    H216539   8.138   6.424   5.457
 5528TIP3   OH216540   4.686   4.335   2.181
 5528TIP3    H116541   4.724   4.299   2.261
 5528TIP3    H216542   4.593   4.313   2.187
 5529TIP3   OH216543   7.513   7.526   1.357
 5529TIP3    H116544   7.495   7.582   1.432
 5529TIP3    H216545   7.515   7.585   1.282
 5530TIP3   OH216546   3.781   3.049   4.979
 5530TIP3    H116547   3.768   2.985   5.048
 5530TIP3    H216548   3.863   3.093   5.002
 5531TIP3   OH216549   8.165   5.005   2.474
 5531TIP3    H116550   8.189   4.912   2.475
 5531TIP3    H216551   8.216   5.042   2.403
 5532TIP3   OH216552   4.266   3.634   3.242
 5532TIP3    H116553   4.349   3.610   3.201
 5532TIP3    H216554   4.199   3.614   3.176
 5533TIP3   OH216555   8.291   5.355   0.976
 5533TIP3    H116556   8.323   5.305   1.052
 5533TIP3    H216557   8.296   5.446   1.004
 5534TIP3   OH216558   4.184   7.477   5.708
 5534TIP3    H116559   4.239   7.449   5.634
 5534TIP3    H216560   4.145   7.395   5.740
 5535TIP3   OH216561   7.368   0.938   1.699
 5535TIP3    H116562   7.376   0.888   1.618
 5535TIP3    H216563   7.303   0.890   1.750
 5536TIP3   OH216564   7.918   6.173   1.512
 5536TIP3    H116565   7.847   6.144   1.568
 5536TIP3    H216566   7.907   6.268   1.506
 5537TIP3   OH216567   2.016   1.159   4.761
 5537TIP3    H116568   2.006   1.185   4.670
 5537TIP3    H216569   2.108   1.176   4.781
 5538TIP3   OH216570   0.225   5.504   0.155
 5538TIP3    H116571   0.295   5.442   0.135
 5538TIP3    H216572   0.227   5.512   0.250
 5539TIP3   OH216573   6.938   3.000   4.188
 5539TIP3    H116574   7.000   2.986   4.259
 5539TIP3    H216575   6.870   3.055   4.226
 5540TIP3   OH216576   8.127   1.907   2.868
 5540TIP3    H116577   8.129   1.997   2.835
 5540TIP3    H216578   8.060   1.908   2.936
 5541TIP3   OH216579   7.995   3.290   5.729
 5541TIP3    H116580   8.012   3.375   5.769
 5541TIP3    H216581   7.956   3.312   5.644
 5542TIP3   OH216582   3.168   5.727   0.876
 5542TIP3    H116583   3.135   5.650   0.923
 5542TIP3    H216584   3.188   5.790   0.944
 5543TIP3   OH216585   2.843   7.666   5.281
 5543TIP3    H116586   2.851   7.740   5.221
 5543TIP3    H216587   2.849   7.706   5.368
 5544TIP3   OH216588   7.899   4.843   6.126
 5544TIP3    H116589   7.850   4.924   6.113
 5544TIP3    H216590   7.970   4.847   6.061
 5545TIP3   OH216591   4.011   3.071   4.138
 5545TIP3    H116592   3.925   3.031   4.129
 5545TIP3    H216593   3.993   3.155   4.180
 5546TIP3   OH216594   1.431   4.752   2.292
 5546TIP3    H116595   1.516   4.714   2.271
 5546TIP3    H216596   1.419   4.736   2.385
 5547TIP3   OH216597   3.198   2.642   5.972
 5547TIP3    H116598   3.226   2.660   6.062
 5547TIP3    H216599   3.280   2.629   5.924
 5548TIP3   OH216600   4.080   7.269   5.844
 5548TIP3    H116601   3.985   7.273   5.838
 5548TIP3    H216602   4.101   7.175   5.842
 5549TIP3   OH216603   4.818   0.670   4.280
 5549TIP3    H116604   4.876   0.652   4.206
 5549TIP3    H216605   4.794   0.584   4.313
 5550TIP3   OH216606   7.209   7.861   1.650
 5550TIP3    H116607   7.266   7.803   1.701
 5550TIP3    H216608   7.184   7.809   1.574
 5551TIP3   OH216609   0.307   4.501   1.974
 5551TIP3    H116610   0.363   4.558   2.027
 5551TIP3    H216611   0.368   4.448   1.922
 5552TIP3   OH216612   3.300   2.983   0.716
 5552TIP3    H116613   3.262   2.900   0.687
 5552TIP3    H216614   3.389   2.981   0.682
 5553TIP3   OH216615   1.973   7.220   3.362
 5553TIP3    H116616   2.024   7.280   3.308
 5553TIP3    H216617   2.014   7.224   3.448
 5554TIP3   OH216618   1.942   1.540   4.625
 5554TIP3    H116619   1.931   1.581   4.711
 5554TIP3    H216620   1.992   1.460   4.643
 5555TIP3   OH216621   1.969   4.152   3.857
 5555TIP3    H116622   1.879   4.183   3.849
 5555TIP3    H216623   1.974   4.077   3.798
 5556TIP3   OH216624   3.795   3.044   0.824
 5556TIP3    H116625   3.723   3.093   0.864
 5556TIP3    H216626   3.846   3.110   0.777
 5557TIP3   OH216627   7.072   1.822   6.245
 5557TIP3    H116628   7.087   1.805   6.338
 5557TIP3    H216629   7.010   1.754   6.219
 5558TIP3   OH216630   5.969   1.810   3.622
 5558TIP3    H116631   5.946   1.795   3.713
 5558TIP3    H216632   5.922   1.890   3.598
 5559TIP3   OH216633   7.196   5.922   6.370
 5559TIP3    H116634   7.198   5.940   6.464
 5559TIP3    H216635   7.142   5.843   6.362
 5560TIP3   OH216636   5.412   4.989   5.020
 5560TIP3    H116637   5.362   5.013   4.942
 5560TIP3    H216638   5.445   5.072   5.054
 5561TIP3   OH216639   5.427   0.106   1.189
 5561TIP3    H116640   5.443   0.086   1.097
 5561TIP3    H216641   5.348   0.160   1.188
 5562TIP3   OH216642   0.680   1.123   3.177
 5562TIP3    H116643   0.600   1.162   3.212
 5562TIP3    H216644   0.654   1.090   3.090
 5563TIP3   OH216645   4.237   7.496   4.244
 5563TIP3    H116646   4.251   7.411   4.204
 5563TIP3    H216647   4.212   7.477   4.334
 5564TIP3   OH216648   0.501   2.324   6.640
 5564TIP3    H116649   0.562   2.284   6.703
 5564TIP3    H216650   0.557   2.366   6.575
 5565TIP3   OH216651   0.970   5.823   3.214
 5565TIP3    H116652   0.921   5.842   3.134
 5565TIP3    H216653   0.929   5.743   3.249
 5566TIP3   OH216654   2.015   5.774   4.199
 5566TIP3    H116655   1.986   5.684   4.211
 5566TIP3    H216656   2.103   5.777   4.238
 5567TIP3   OH216657   6.634   5.757   1.858
 5567TIP3    H116658   6.723   5.729   1.839
 5567TIP3    H216659   6.579   5.687   1.823
 5568TIP3   OH216660   8.187   2.238   4.712
 5568TIP3    H116661   8.108   2.231   4.659
 5568TIP3    H216662   8.251   2.279   4.654
 5569TIP3   OH216663   2.233   1.470   3.651
 5569TIP3    H116664   2.229   1.475   3.555
 5569TIP3    H216665   2.153   1.425   3.676
 5570TIP3   OH216666   5.110   0.320   4.655
 5570TIP3    H116667   5.144   0.250   4.712
 5570TIP3    H216668   5.141   0.297   4.567
 5571TIP3   OH216669   7.115   6.221   5.856
 5571TIP3    H116670   7.072   6.194   5.937
 5571TIP3    H216671   7.125   6.316   5.865
 5572TIP3   OH216672   0.891   3.865   5.930
 5572TIP3    H116673   0.944   3.866   5.850
 5572TIP3    H216674   0.917   3.783   5.974
 5573TIP3   OH216675   5.295   4.457   0.845
 5573TIP3    H116676   5.268   4.382   0.792
 5573TIP3    H216677   5.380   4.482   0.809
 5574TIP3   OH216678   4.455   2.856   3.612
 5574TIP3    H116679   4.363   2.866   3.637
 5574TIP3    H216680   4.452   2.823   3.522
 5575TIP3   OH216681   2.910   5.583   6.567
 5575TIP3    H116682   2.951   5.574   6.653
 5575TIP3    H216683   2.873   5.671   6.567
 5576TIP3   OH216684   1.909   1.817   0.430
 5576TIP3    H116685   1.826   1.807   0.476
 5576TIP3    H216686   1.966   1.751   0.471
 5577TIP3   OH216687   4.082   6.647   1.165
 5577TIP3    H116688   4.040   6.692   1.238
 5577TIP3    H216689   4.009   6.604   1.119
 5578TIP3   OH216690   7.594   2.831   2.918
 5578TIP3    H116691   7.507   2.790   2.925
 5578TIP3    H216692   7.605   2.876   3.002
 5579TIP3   OH216693   3.872   2.684   3.966
 5579TIP3    H116694   3.935   2.678   3.894
 5579TIP3    H216695   3.799   2.629   3.938
 5580TIP3   OH216696   1.818   2.004   5.147
 5580TIP3    H116697   1.730   1.967   5.152
 5580TIP3    H216698   1.875   1.937   5.183
 5581TIP3   OH216699   3.418   0.686   1.370
 5581TIP3    H116700   3.376   0.765   1.336
 5581TIP3    H216701   3.425   0.628   1.295
 5582TIP3   OH216702   7.356   2.213   1.983
 5582TIP3    H116703   7.389   2.134   1.940
 5582TIP3    H216704   7.280   2.239   1.930
 5583TIP3   OH216705   7.319   0.096   5.759
 5583TIP3    H116706   7.405   0.063   5.733
 5583TIP3    H216707   7.257   0.038   5.715
 5584TIP3   OH216708   4.871   1.277   4.659
 5584TIP3    H116709   4.923   1.287   4.738
 5584TIP3    H216710   4.792   1.328   4.675
 5585TIP3   OH216711   3.542   0.660   2.068
 5585TIP3    H116712   3.451   0.685   2.085
 5585TIP3    H216713   3.535   0.579   2.018
 5586TIP3   OH216714   0.625   7.811   1.136
 5586TIP3    H116715   0.652   7.757   1.062
 5586TIP3    H216716   0.628   7.901   1.103
 5587TIP3   OH216717   5.050   1.359   4.279
 5587TIP3    H116718   5.056   1.310   4.197
 5587TIP3    H216719   5.100   1.439   4.262
 5588TIP3   OH216720   8.132   0.791   4.244
 5588TIP3    H116721   8.133   0.709   4.194
 5588TIP3    H216722   8.111   0.765   4.333
 5589TIP3   OH216723   3.873   0.090   5.983
 5589TIP3    H116724   3.880   0.137   5.901
 5589TIP3    H216725   3.866  -0.002   5.958
 5590TIP3   OH216726   2.836   2.255   6.605
 5590TIP3    H116727   2.797   2.266   6.692
 5590TIP3    H216728   2.761   2.243   6.547
 5591TIP3   OH216729   5.588   3.163   0.144
 5591TIP3    H116730   5.591   3.076   0.102
 5591TIP3    H216731   5.495   3.184   0.148
 5592TIP3   OH216732   2.031   6.091   0.889
 5592TIP3    H116733   1.996   6.027   0.952
 5592TIP3    H216734   2.000   6.176   0.921
 5593TIP3   OH216735   2.782   5.974   5.879
 5593TIP3    H116736   2.812   5.955   5.790
 5593TIP3    H216737   2.719   6.045   5.868
 5594TIP3   OH216738   6.628   1.921   4.746
 5594TIP3    H116739   6.538   1.919   4.713
 5594TIP3    H216740   6.646   1.832   4.774
 5595TIP3   OH216741   4.017   5.863   6.483
 5595TIP3    H116742   3.938   5.815   6.460
 5595TIP3    H216743   4.003   5.951   6.448
 5596TIP3   OH216744   7.049   6.370   4.532
 5596TIP3    H116745   7.043   6.366   4.628
 5596TIP3    H216746   6.998   6.295   4.502
 5597TIP3   OH216747   2.349   7.117   2.515
 5597TIP3    H116748   2.385   7.183   2.457
 5597TIP3    H216749   2.423   7.059   2.535
 5598TIP3   OH216750   1.394   6.131   6.074
 5598TIP3    H116751   1.416   6.138   5.981
 5598TIP3    H216752   1.301   6.107   6.075
 5599TIP3   OH216753   0.278   6.444   3.762
 5599TIP3    H116754   0.367   6.409   3.760
 5599TIP3    H216755   0.232   6.397   3.693
 5600TIP3   OH216756   1.765   5.065   2.675
 5600TIP3    H116757   1.859   5.046   2.675
 5600TIP3    H216758   1.747   5.099   2.762
 5601TIP3   OH216759   1.007   6.490   0.887
 5601TIP3    H116760   1.074   6.423   0.871
 5601TIP3    H216761   1.038   6.535   0.966
 5602TIP3   OH216762   2.966   1.725   1.420
 5602TIP3    H116763   2.902   1.680   1.366
 5602TIP3    H216764   3.035   1.660   1.435
 5603TIP3   OH216765   5.261   1.730   1.469
 5603TIP3    H116766   5.314   1.790   1.417
 5603TIP3    H216767   5.180   1.777   1.487
 5604TIP3   OH216768   6.481   3.080   0.473
 5604TIP3    H116769   6.551   3.087   0.538
 5604TIP3    H216770   6.527   3.078   0.389
 5605TIP3   OH216771   0.845   6.351   4.733
 5605TIP3    H116772   0.776   6.407   4.768
 5605TIP3    H216773   0.921   6.368   4.789
 5606TIP3   OH216774   4.959   5.490   3.943
 5606TIP3    H116775   4.864   5.505   3.942
 5606TIP3    H216776   4.968   5.400   3.975
 5607TIP3   OH216777   4.548   4.980   6.757
 5607TIP3    H116778   4.544   4.887   6.732
 5607TIP3    H216779   4.543   5.027   6.674
 5608TIP3   OH216780   2.962   0.585   5.312
 5608TIP3    H116781   2.984   0.535   5.391
 5608TIP3    H216782   2.921   0.665   5.345
 5609TIP3   OH216783   6.887   4.135   3.650
 5609TIP3    H116784   6.843   4.202   3.598
 5609TIP3    H216785   6.931   4.080   3.585
 5610TIP3   OH216786   5.794   6.605   1.158
 5610TIP3    H116787   5.744   6.563   1.088
 5610TIP3    H216788   5.754   6.690   1.169
 5611TIP3   OH216789   3.251   7.456   3.660
 5611TIP3    H116790   3.278   7.376   3.706
 5611TIP3    H216791   3.177   7.430   3.606
 5612TIP3   OH216792   1.223   6.876   4.204
 5612TIP3    H116793   1.222   6.871   4.109
 5612TIP3    H216794   1.215   6.969   4.224
 5613TIP3   OH216795   3.028   6.656   0.970
 5613TIP3    H116796   3.025   6.678   1.063
 5613TIP3    H216797   3.083   6.577   0.966
 5614TIP3   OH216798   6.464   1.333   3.182
 5614TIP3    H116799   6.500   1.266   3.241
 5614TIP3    H216800   6.372   1.341   3.209
 5615TIP3   OH216801   8.275   2.589   3.817
 5615TIP3    H116802   8.251   2.663   3.762
 5615TIP3    H216803   8.201   2.578   3.876
 5616TIP3   OH216804   0.234   6.734   3.750
 5616TIP3    H116805   0.228   6.641   3.728
 5616TIP3    H216806   0.307   6.739   3.812
 5617TIP3   OH216807   2.906   4.629   5.306
 5617TIP3    H116808   2.846   4.699   5.282
 5617TIP3    H216809   2.895   4.563   5.236
 5618TIP3   OH216810   5.467   3.780   2.578
 5618TIP3    H116811   5.488   3.827   2.497
 5618TIP3    H216812   5.408   3.710   2.550
 5619TIP3   OH216813   2.397   7.696   1.864
 5619TIP3    H116814   2.332   7.665   1.926
 5619TIP3    H216815   2.455   7.752   1.916
 5620TIP3   OH216816   5.385   0.405   3.960
 5620TIP3    H116817   5.365   0.471   4.027
 5620TIP3    H216818   5.459   0.356   3.997
 5621TIP3   OH216819   3.055   5.739   4.220
 5621TIP3    H116820   3.084   5.776   4.303
 5621TIP3    H216821   3.028   5.814   4.168
 5622TIP3   OH216822   7.708   5.979   5.089
 5622TIP3    H116823   7.726   6.032   5.011
 5622TIP3    H216824   7.621   5.942   5.073
 5623TIP3   OH216825   0.378   1.503   0.744
 5623TIP3    H116826   0.472   1.514   0.759
 5623TIP3    H216827   0.357   1.419   0.787
 5624TIP3   OH216828   7.772   3.247   4.040
 5624TIP3    H116829   7.717   3.182   4.084
 5624TIP3    H216830   7.783   3.214   3.952
 5625TIP3   OH216831   5.880   1.082   1.387
 5625TIP3    H116832   5.952   1.061   1.447
 5625TIP3    H216833   5.801   1.062   1.436
 5626TIP3   OH216834   8.176   3.492   4.377
 5626TIP3    H116835   8.129   3.559   4.427
 5626TIP3    H216836   8.179   3.417   4.437
 5627TIP3   OH216837   6.786   3.822   3.549
 5627TIP3    H116838   6.767   3.788   3.462
 5627TIP3    H216839   6.762   3.915   3.544
 5628TIP3   OH216840   5.557   2.173   1.283
 5628TIP3    H116841   5.517   2.214   1.207
 5628TIP3    H216842   5.516   2.217   1.358
 5629TIP3   OH216843   2.888   7.698   2.379
 5629TIP3    H116844   2.843   7.756   2.441
 5629TIP3    H216845   2.861   7.730   2.293
 5630TIP3   OH216846   2.695   4.316   5.418
 5630TIP3    H116847   2.757   4.245   5.402
 5630TIP3    H216848   2.648   4.326   5.335
 5631TIP3   OH216849   2.054   6.851   0.127
 5631TIP3    H116850   2.085   6.782   0.068
 5631TIP3    H216851   1.961   6.832   0.138
 5632TIP3   OH216852   2.834   3.035   3.100
 5632TIP3    H116853   2.741   3.037   3.076
 5632TIP3    H216854   2.855   2.941   3.104
 5633TIP3   OH216855   1.200   6.932   3.930
 5633TIP3    H116856   1.173   6.990   3.859
 5633TIP3    H216857   1.233   6.853   3.886
 5634TIP3   OH216858   1.796   4.461   4.898
 5634TIP3    H116859   1.845   4.541   4.882
 5634TIP3    H216860   1.704   4.486   4.890
 5635TIP3   OH216861   4.246   2.307   6.321
 5635TIP3    H116862   4.191   2.329   6.397
 5635TIP3    H216863   4.187   2.262   6.261
 5636TIP3   OH216864   4.511   0.891   3.430
 5636TIP3    H116865   4.461   0.972   3.439
 5636TIP3    H216866   4.496   0.864   3.339
 5637TIP3   OH216867   6.567   4.048   4.412
 5637TIP3    H116868   6.630   4.117   4.393
 5637TIP3    H216869   6.590   3.977   4.352
 5638TIP3   OH216870   7.553   0.857   6.428
 5638TIP3    H116871   7.603   0.783   6.394
 5638TIP3    H216872   7.612   0.932   6.419
 5639TIP3   OH216873   1.663   1.738   1.036
 5639TIP3    H116874   1.714   1.774   0.963
 5639TIP3    H216875   1.596   1.684   0.995
 5640TIP3   OH216876   0.054   2.380   3.664
 5640TIP3    H116877   0.030   2.385   3.571
 5640TIP3    H216878   0.030   2.466   3.699
 5641TIP3   OH216879   6.216   4.632   2.465
 5641TIP3    H116880   6.307   4.603   2.457
 5641TIP3    H216881   6.222   4.722   2.495
 5642TIP3   OH216882   0.188   1.393   3.256
 5642TIP3    H116883   0.160   1.479   3.225
 5642TIP3    H216884   0.156   1.388   3.346
 5643TIP3   OH216885   2.937   2.228   5.116
 5643TIP3    H116886   2.914   2.261   5.202
 5643TIP3    H216887   2.927   2.304   5.058
 5644TIP3   OH216888   4.034   2.651   4.258
 5644TIP3    H116889   4.032   2.724   4.196
 5644TIP3    H216890   3.959   2.665   4.315
 5645TIP3   OH216891   2.510   4.909   1.604
 5645TIP3    H116892   2.477   4.826   1.570
 5645TIP3    H216893   2.437   4.970   1.597
 5646TIP3   OH216894   3.221   0.573   4.265
 5646TIP3    H116895   3.227   0.512   4.191
 5646TIP3    H216896   3.163   0.530   4.327
 5647TIP3   OH216897   8.147   2.277   6.014
 5647TIP3    H116898   8.054   2.299   6.005
 5647TIP3    H216899   8.193   2.354   5.980
 5648TIP3   OH216900   3.884   6.120   5.860
 5648TIP3    H116901   3.836   6.125   5.943
 5648TIP3    H216902   3.867   6.031   5.829
 5649TIP3   OH216903   3.068   4.702   3.025
 5649TIP3    H116904   3.043   4.677   3.114
 5649TIP3    H216905   3.144   4.648   3.006
 5650TIP3   OH216906   1.214   6.594   1.475
 5650TIP3    H116907   1.294   6.643   1.494
 5650TIP3    H216908   1.151   6.662   1.450
 5651TIP3   OH216909   2.250   1.705   1.891
 5651TIP3    H116910   2.246   1.609   1.898
 5651TIP3    H216911   2.340   1.727   1.914
 5652TIP3   OH216912   0.817   3.132   3.537
 5652TIP3    H116913   0.806   3.069   3.608
 5652TIP3    H216914   0.790   3.085   3.459
 5653TIP3   OH216915   1.186   1.945   4.802
 5653TIP3    H116916   1.212   1.892   4.878
 5653TIP3    H216917   1.096   1.918   4.784
 5654TIP3   OH216918   3.497   3.456   2.100
 5654TIP3    H116919   3.531   3.394   2.166
 5654TIP3    H216920   3.402   3.452   2.110
 5655TIP3   OH216921   4.638   7.213   2.011
 5655TIP3    H116922   4.620   7.175   2.097
 5655TIP3    H216923   4.729   7.244   2.017
 5656TIP3   OH216924   4.592   1.730   4.684
 5656TIP3    H116925   4.598   1.823   4.707
 5656TIP3    H216926   4.677   1.708   4.647
 5657TIP3   OH216927   0.105   4.153   4.535
 5657TIP3    H116928   0.140   4.240   4.514
 5657TIP3    H216929   0.145   4.130   4.619
 5658TIP3   OH216930   3.140   5.932   0.424
 5658TIP3    H116931   3.098   6.015   0.402
 5658TIP3    H216932   3.100   5.906   0.507
 5659TIP3   OH216933   7.301   1.629   3.330
 5659TIP3    H116934   7.246   1.661   3.258
 5659TIP3    H216935   7.361   1.567   3.289
 5660TIP3   OH216936   0.950   6.016   0.880
 5660TIP3    H116937   0.943   6.108   0.906
 5660TIP3    H216938   1.032   5.986   0.920
 5661TIP3   OH216939   8.267   4.212   2.353
 5661TIP3    H116940   8.200   4.209   2.421
 5661TIP3    H216941   8.343   4.168   2.393
 5662TIP3   OH216942   2.570   1.978   3.534
 5662TIP3    H116943   2.483   2.017   3.528
 5662TIP3    H216944   2.627   2.050   3.560
 5663TIP3   OH216945   2.097   7.748   0.931
 5663TIP3    H116946   2.067   7.828   0.889
 5663TIP3    H216947   2.055   7.677   0.881
 5664TIP3   OH216948   2.614   0.261   5.456
 5664TIP3    H116949   2.650   0.312   5.528
 5664TIP3    H216950   2.676   0.273   5.384
 5665TIP3   OH216951   5.455   1.690   0.386
 5665TIP3    H116952   5.521   1.623   0.407
 5665TIP3    H216953   5.499   1.749   0.325
 5666TIP3   OH216954   4.460   7.288   2.292
 5666TIP3    H116955   4.452   7.345   2.215
 5666TIP3    H216956   4.552   7.265   2.296
 5667TIP3   OH216957   1.055   1.997   2.948
 5667TIP3    H116958   1.082   1.973   2.859
 5667TIP3    H216959   1.102   1.936   3.004
 5668TIP3   OH216960   3.567   2.662   0.617
 5668TIP3    H116961   3.494   2.724   0.625
 5668TIP3    H216962   3.590   2.665   0.524
 5669TIP3   OH216963   6.784   0.885   2.638
 5669TIP3    H116964   6.782   0.800   2.683
 5669TIP3    H216965   6.776   0.950   2.707
 5670TIP3   OH216966   6.931   6.130   4.474
 5670TIP3    H116967   6.982   6.099   4.399
 5670TIP3    H216968   6.874   6.056   4.496
 5671TIP3   OH216969   0.914   4.714   3.373
 5671TIP3    H116970   0.925   4.722   3.468
 5671TIP3    H216971   0.907   4.804   3.342
 5672TIP3   OH216972   5.678   3.400   6.200
 5672TIP3    H116973   5.753   3.351   6.234
 5672TIP3    H216974   5.695   3.409   6.107
 5673TIP3   OH216975   1.056   4.197   5.034
 5673TIP3    H116976   1.095   4.251   5.102
 5673TIP3    H216977   1.068   4.246   4.953
 5674TIP3   OH216978   6.747   4.022   4.091
 5674TIP3    H116979   6.776   3.937   4.058
 5674TIP3    H216980   6.828   4.074   4.097
 5675TIP3   OH216981   4.617   0.629   6.674
 5675TIP3    H116982   4.659   0.618   6.588
 5675TIP3    H216983   4.572   0.713   6.668
 5676TIP3   OH216984   2.466   6.266   6.603
 5676TIP3    H116985   2.375   6.279   6.574
 5676TIP3    H216986   2.484   6.174   6.586
 5677TIP3   OH216987   6.251   1.461   4.539
 5677TIP3    H116988   6.214   1.396   4.599
 5677TIP3    H216989   6.342   1.434   4.527
 5678TIP3   OH216990   2.540   4.054   2.258
 5678TIP3    H116991   2.583   4.136   2.234
 5678TIP3    H216992   2.611   3.996   2.284
 5679TIP3   OH216993   5.748   2.100   1.033
 5679TIP3    H116994   5.656   2.083   1.013
 5679TIP3    H216995   5.779   2.152   0.958
 5680TIP3   OH216996   6.915   2.377   4.650
 5680TIP3    H116997   6.973   2.401   4.722
 5680TIP3    H216998   6.869   2.299   4.680
 5681TIP3   OH216999   1.372   7.002  -0.021
 5681TIP3    H117000   1.443   7.022   0.039
 5681TIP3    H217001   1.299   6.977   0.035
 5682TIP3   OH217002   1.196   6.464   5.952
 5682TIP3    H117003   1.164   6.504   5.871
 5682TIP3    H217004   1.269   6.408   5.924
 5683TIP3   OH217005   7.058   6.532   5.969
 5683TIP3    H117006   6.975   6.487   5.984
 5683TIP3    H217007   7.042   6.623   5.992
 5684TIP3   OH217008   5.797   0.018   2.949
 5684TIP3    H117009   5.784   0.104   2.988
 5684TIP3    H217010   5.794   0.034   2.854
 5685TIP3   OH217011   2.362   5.120   0.595
 5685TIP3    H117012   2.336   5.211   0.606
 5685TIP3    H217013   2.397   5.095   0.680
 5686TIP3   OH217014   7.083   0.896   1.779
 5686TIP3    H117015   7.122   0.929   1.859
 5686TIP3    H217016   7.092   0.801   1.785
 5687TIP3   OH217017   8.016   0.324   3.182
 5687TIP3    H117018   8.102   0.341   3.221
 5687TIP3    H217019   7.962   0.297   3.255
 5688TIP3   OH217020   7.621   6.417   0.279
 5688TIP3    H117021   7.715   6.428   0.295
 5688TIP3    H217022   7.604   6.468   0.200
 5689TIP3   OH217023   4.677   1.960   6.588
 5689TIP3    H117024   4.670   2.055   6.593
 5689TIP3    H217025   4.770   1.944   6.572
 5690TIP3   OH217026   6.934   6.209   6.516
 5690TIP3    H117027   6.880   6.186   6.592
 5690TIP3    H217028   7.024   6.210   6.550
 5691TIP3   OH217029   1.542   4.621   2.791
 5691TIP3    H117030   1.559   4.688   2.858
 5691TIP3    H217031   1.595   4.546   2.819
 5692TIP3   OH217032   8.096   1.822   0.957
 5692TIP3    H117033   8.118   1.730   0.962
 5692TIP3    H217034   8.057   1.842   1.043
 5693TIP3   OH217035   5.996   0.096   4.360
 5693TIP3    H117036   6.013   0.133   4.273
 5693TIP3    H217037   6.070   0.037   4.375
 5694TIP3   OH217038   3.250   1.941   2.972
 5694TIP3    H117039   3.338   1.970   2.999
 5694TIP3    H217040   3.208   2.019   2.937
 5695TIP3   OH217041   5.546   3.971   2.779
 5695TIP3    H117042   5.621   4.028   2.764
 5695TIP3    H217043   5.537   3.920   2.698
 5696TIP3   OH217044   3.264   5.764   6.397
 5696TIP3    H117045   3.179   5.739   6.361
 5696TIP3    H217046   3.301   5.682   6.429
 5697TIP3   OH217047   7.816   2.395   5.156
 5697TIP3    H117048   7.864   2.420   5.078
 5697TIP3    H217049   7.744   2.341   5.123
 5698TIP3   OH217050   6.315   7.531   1.950
 5698TIP3    H117051   6.244   7.591   1.973
 5698TIP3    H217052   6.393   7.568   1.992
 5699TIP3   OH217053   4.916   7.567   2.603
 5699TIP3    H117054   4.962   7.564   2.519
 5699TIP3    H217055   4.949   7.647   2.645
 5700TIP3   OH217056   1.126   2.593   2.430
 5700TIP3    H117057   1.054   2.650   2.456
 5700TIP3    H217058   1.199   2.653   2.414
 5701TIP3   OH217059   1.198   4.997   3.347
 5701TIP3    H117060   1.185   4.925   3.286
 5701TIP3    H217061   1.282   5.036   3.321
 5702TIP3   OH217062   6.046   7.843   1.085
 5702TIP3    H117063   6.092   7.783   1.143
 5702TIP3    H217064   6.115   7.896   1.044
 5703TIP3   OH217065   0.619   7.085   4.261
 5703TIP3    H117066   0.573   7.167   4.241
 5703TIP3    H217067   0.649   7.053   4.176
 5704TIP3   OH217068   0.178   6.910   2.898
 5704TIP3    H117069   0.104   6.959   2.861
 5704TIP3    H217070   0.206   6.961   2.973
 5705TIP3   OH217071   1.101  -0.006   1.959
 5705TIP3    H117072   1.185   0.029   1.988
 5705TIP3    H217073   1.121  -0.095   1.929
 5706TIP3   OH217074   3.466   4.625   0.682
 5706TIP3    H117075   3.449   4.614   0.776
 5706TIP3    H217076   3.392   4.677   0.650
 5707TIP3   OH217077   1.757   7.714   0.645
 5707TIP3    H117078   1.821   7.666   0.699
 5707TIP3    H217079   1.679   7.659   0.646
 5708TIP3   OH217080   7.410   7.352   1.815
 5708TIP3    H117081   7.378   7.341   1.725
 5708TIP3    H217082   7.444   7.265   1.839
 5709TIP3   OH217083   6.982   6.146   2.916
 5709TIP3    H117084   6.903   6.189   2.948
 5709TIP3    H217085   7.013   6.095   2.991
 5710TIP3   OH217086   6.908   6.077   2.270
 5710TIP3    H117087   6.985   6.119   2.309
 5710TIP3    H217088   6.944   6.015   2.206
 5711TIP3   OH217089   4.935   2.477   2.084
 5711TIP3    H117090   4.933   2.572   2.074
 5711TIP3    H217091   4.848   2.447   2.058
 5712TIP3   OH217092   8.165   1.756   5.948
 5712TIP3    H117093   8.172   1.799   5.863
 5712TIP3    H217094   8.255   1.730   5.969
 5713TIP3   OH217095   2.913   4.152   6.230
 5713TIP3    H117096   2.869   4.074   6.198
 5713TIP3    H217097   2.935   4.131   6.321
 5714TIP3   OH217098   2.712   7.066   3.041
 5714TIP3    H117099   2.655   7.140   3.019
 5714TIP3    H217100   2.737   7.081   3.132
 5715TIP3   OH217101   0.120   0.931   6.243
 5715TIP3    H117102   0.076   0.855   6.206
 5715TIP3    H217103   0.204   0.898   6.276
 5716TIP3   OH217104   5.005   7.606   0.025
 5716TIP3    H117105   4.935   7.664   0.055
 5716TIP3    H217106   5.031   7.558   0.104
 5717TIP3   OH217107   3.738   1.522   0.302
 5717TIP3    H117108   3.788   1.446   0.330
 5717TIP3    H217109   3.802   1.593   0.300
 5718TIP3   OH217110   2.467   5.958   2.650
 5718TIP3    H117111   2.458   6.005   2.567
 5718TIP3    H217112   2.424   5.874   2.634
 5719TIP3   OH217113   5.033   3.623   0.718
 5719TIP3    H117114   5.031   3.699   0.776
 5719TIP3    H217115   5.090   3.650   0.645
 5720TIP3   OH217116   0.106   1.191   2.534
 5720TIP3    H117117   0.041   1.140   2.581
 5720TIP3    H217118   0.055   1.248   2.477
 5721TIP3   OH217119   0.429   3.159   3.718
 5721TIP3    H117120   0.474   3.171   3.634
 5721TIP3    H217121   0.441   3.242   3.764
 5722TIP3   OH217122   4.607   4.704   0.883
 5722TIP3    H117123   4.667   4.778   0.879
 5722TIP3    H217124   4.663   4.627   0.874
 5723TIP3   OH217125   0.199   4.788   0.154
 5723TIP3    H117126   0.242   4.709   0.121
 5723TIP3    H217127   0.105   4.769   0.146
 5724TIP3   OH217128   8.262   6.121   4.131
 5724TIP3    H117129   8.253   6.109   4.036
 5724TIP3    H217130   8.336   6.066   4.155
 5725TIP3   OH217131   6.800   2.439   0.977
 5725TIP3    H117132   6.786   2.435   0.883
 5725TIP3    H217133   6.875   2.498   0.987
 5726TIP3   OH217134   6.328   0.895   6.327
 5726TIP3    H117135   6.370   0.875   6.243
 5726TIP3    H217136   6.329   0.812   6.375
 5727TIP3   OH217137   2.767   7.521   4.318
 5727TIP3    H117138   2.803   7.524   4.407
 5727TIP3    H217139   2.829   7.466   4.269
 5728TIP3   OH217140   0.512   6.809   6.464
 5728TIP3    H117141   0.546   6.867   6.533
 5728TIP3    H217142   0.557   6.726   6.479
 5729TIP3   OH217143   1.589   6.212   4.593
 5729TIP3    H117144   1.638   6.153   4.535
 5729TIP3    H217145   1.656   6.265   4.637
 5730TIP3   OH217146   7.241   3.572   5.013
 5730TIP3    H117147   7.250   3.658   5.054
 5730TIP3    H217148   7.280   3.582   4.927
 5731TIP3   OH217149   3.520   5.060   1.827
 5731TIP3    H117150   3.475   5.112   1.893
 5731TIP3    H217151   3.586   5.120   1.791
 5732TIP3   OH217152   5.532   3.025   2.704
 5732TIP3    H117153   5.532   2.930   2.701
 5732TIP3    H217154   5.555   3.046   2.795
 5733TIP3   OH217155   4.635   5.790   0.691
 5733TIP3    H117156   4.700   5.733   0.647
 5733TIP3    H217157   4.561   5.791   0.630
 5734TIP3   OH217158   6.753   0.570   4.126
 5734TIP3    H117159   6.839   0.592   4.160
 5734TIP3    H217160   6.766   0.490   4.075
 5735TIP3   OH217161   2.531   4.856   6.793
 5735TIP3    H117162   2.546   4.761   6.800
 5735TIP3    H217163   2.515   4.871   6.700
 5736TIP3   OH217164   2.257   1.447   5.651
 5736TIP3    H117165   2.204   1.375   5.616
 5736TIP3    H217166   2.238   1.520   5.592
 5737TIP3   OH217167   2.015   7.612   4.361
 5737TIP3    H117168   1.935   7.634   4.313
 5737TIP3    H217169   2.086   7.642   4.304
 5738TIP3   OH217170   0.981   1.307   2.724
 5738TIP3    H117171   0.966   1.356   2.643
 5738TIP3    H217172   0.902   1.323   2.776
 5739TIP3   OH217173   1.310   4.507   2.531
 5739TIP3    H117174   1.368   4.487   2.457
 5739TIP3    H217175   1.283   4.422   2.565
 5740TIP3   OH217176   5.343   1.003   0.042
 5740TIP3    H117177   5.398   0.925   0.055
 5740TIP3    H217178   5.271   0.972  -0.012
 5741TIP3   OH217179   3.578   6.240   6.208
 5741TIP3    H117180   3.587   6.166   6.267
 5741TIP3    H217181   3.533   6.205   6.131
 5742TIP3   OH217182   6.424   4.901   3.644
 5742TIP3    H117183   6.499   4.861   3.687
 5742TIP3    H217184   6.444   4.994   3.643
 5743TIP3   OH217185   0.078   5.022   5.302
 5743TIP3    H117186   0.042   5.046   5.387
 5743TIP3    H217187   0.035   5.082   5.240
 5744TIP3   OH217188   1.922   0.976   5.011
 5744TIP3    H117189   2.013   1.007   5.009
 5744TIP3    H217190   1.870   1.054   4.992
 5745TIP3   OH217191   1.610   1.014   2.680
 5745TIP3    H117192   1.628   1.104   2.709
 5745TIP3    H217193   1.627   1.015   2.586
 5746TIP3   OH217194   4.015   1.510   5.793
 5746TIP3    H117195   3.973   1.471   5.716
 5746TIP3    H217196   3.964   1.589   5.811
 5747TIP3   OH217197   1.384   5.047   0.510
 5747TIP3    H117198   1.399   5.055   0.604
 5747TIP3    H217199   1.438   4.973   0.483
 5748TIP3   OH217200   2.454   7.789   1.292
 5748TIP3    H117201   2.538   7.825   1.264
 5748TIP3    H217202   2.476   7.703   1.330
 5749TIP3   OH217203   2.710   4.250   2.132
 5749TIP3    H117204   2.794   4.217   2.163
 5749TIP3    H217205   2.727   4.343   2.113
 5750TIP3   OH217206   5.502   5.224   4.420
 5750TIP3    H117207   5.559   5.173   4.478
 5750TIP3    H217208   5.433   5.163   4.395
 5751TIP3   OH217209   3.735   4.136   3.727
 5751TIP3    H117210   3.780   4.064   3.771
 5751TIP3    H217211   3.739   4.208   3.789
 5752TIP3   OH217212   4.674   2.954   0.621
 5752TIP3    H117213   4.765   2.930   0.638
 5752TIP3    H217214   4.667   3.045   0.649
 5753TIP3   OH217215   1.010   5.137   2.496
 5753TIP3    H117216   1.060   5.056   2.488
 5753TIP3    H217217   1.076   5.207   2.497
 5754TIP3   OH217218   3.611   6.988   2.712
 5754TIP3    H117219   3.622   6.915   2.651
 5754TIP3    H217220   3.556   6.952   2.782
 5755TIP3   OH217221   6.673   3.036   0.687
 5755TIP3    H117222   6.768   3.024   0.688
 5755TIP3    H217223   6.638   2.947   0.685
 5756TIP3   OH217224   7.285   5.180   0.533
 5756TIP3    H117225   7.375   5.195   0.563
 5756TIP3    H217226   7.295   5.142   0.446
 5757TIP3   OH217227   5.722   5.829   5.560
 5757TIP3    H117228   5.716   5.925   5.566
 5757TIP3    H217229   5.731   5.800   5.651
 5758TIP3   OH217230   6.460   5.425   1.312
 5758TIP3    H117231   6.505   5.341   1.327
 5758TIP3    H217232   6.413   5.412   1.230
 5759TIP3   OH217233   2.532   5.810   1.124
 5759TIP3    H117234   2.574   5.896   1.131
 5759TIP3    H217235   2.548   5.783   1.033
 5760TIP3   OH217236   6.195   2.208   6.438
 5760TIP3    H117237   6.200   2.238   6.348
 5760TIP3    H217238   6.149   2.124   6.433
 5761TIP3   OH217239   3.299   6.854   0.963
 5761TIP3    H117240   3.272   6.822   0.877
 5761TIP3    H217241   3.233   6.820   1.023
 5762TIP3   OH217242   1.292   1.538   0.982
 5762TIP3    H117243   1.367   1.526   0.925
 5762TIP3    H217244   1.318   1.606   1.044
 5763TIP3   OH217245   1.994   2.180   0.632
 5763TIP3    H117246   2.047   2.166   0.553
 5763TIP3    H217247   2.024   2.114   0.693
 5764TIP3   OH217248   2.151   4.427   3.699
 5764TIP3    H117249   2.114   4.515   3.689
 5764TIP3    H217250   2.074   4.370   3.707
 5765TIP3   OH217251   6.580   0.769   3.132
 5765TIP3    H117252   6.662   0.723   3.116
 5765TIP3    H217253   6.537   0.719   3.201
 5766TIP3   OH217254   7.633   1.127   2.151
 5766TIP3    H117255   7.665   1.217   2.157
 5766TIP3    H217256   7.539   1.136   2.135
 5767TIP3   OH217257   4.777   2.815   3.917
 5767TIP3    H117258   4.804   2.815   4.009
 5767TIP3    H217259   4.699   2.870   3.915
 5768TIP3   OH217260   4.671   4.452   5.241
 5768TIP3    H117261   4.734   4.384   5.266
 5768TIP3    H217262   4.705   4.486   5.158
 5769TIP3   OH217263   5.254   4.089   1.715
 5769TIP3    H117264   5.284   3.998   1.709
 5769TIP3    H217265   5.278   4.117   1.803
 5770TIP3   OH217266   5.299   1.175   0.319
 5770TIP3    H117267   5.239   1.192   0.246
 5770TIP3    H217268   5.263   1.225   0.392
 5771TIP3   OH217269   1.553   0.154   4.955
 5771TIP3    H117270   1.542   0.245   4.925
 5771TIP3    H217271   1.498   0.148   5.033
 5772TIP3   OH217272   2.900   5.207   3.913
 5772TIP3    H117273   2.832   5.170   3.857
 5772TIP3    H217274   2.981   5.169   3.880
 5773TIP3   OH217275   3.986   4.406   3.268
 5773TIP3    H117276   4.075   4.374   3.286
 5773TIP3    H217277   3.930   4.332   3.290
 5774TIP3   OH217278   5.064   0.841   2.971
 5774TIP3    H117279   4.985   0.787   2.970
 5774TIP3    H217280   5.044   0.913   2.910
 5775TIP3   OH217281   0.319   5.327   5.472
 5775TIP3    H117282   0.234   5.334   5.515
 5775TIP3    H217283   0.299   5.307   5.380
 5776TIP3   OH217284   2.079   3.297   0.693
 5776TIP3    H117285   2.035   3.307   0.777
 5776TIP3    H217286   2.103   3.204   0.690
 5777TIP3   OH217287   7.390   3.545   4.328
 5777TIP3    H117288   7.401   3.461   4.372
 5777TIP3    H217289   7.311   3.536   4.275
 5778TIP3   OH217290   4.052   3.970   3.756
 5778TIP3    H117291   4.007   3.986   3.673
 5778TIP3    H217292   4.134   4.019   3.748
 5779TIP3   OH217293   3.836   6.654   4.630
 5779TIP3    H117294   3.779   6.578   4.641
 5779TIP3    H217295   3.910   6.636   4.689
 5780TIP3   OH217296   3.234   5.555   6.132
 5780TIP3    H117297   3.279   5.494   6.073
 5780TIP3    H217298   3.273   5.539   6.217
 5781TIP3   OH217299   1.499   1.968   6.505
 5781TIP3    H117300   1.544   1.932   6.429
 5781TIP3    H217301   1.566   1.971   6.574
 5782TIP3   OH217302   2.694   0.837   3.602
 5782TIP3    H117303   2.710   0.925   3.568
 5782TIP3    H217304   2.612   0.810   3.560
 5783TIP3   OH217305   6.798   6.190   2.039
 5783TIP3    H117306   6.800   6.284   2.057
 5783TIP3    H217307   6.839   6.150   2.116
 5784TIP3   OH217308   0.712   6.410   2.790
 5784TIP3    H117309   0.784   6.467   2.765
 5784TIP3    H217310   0.674   6.381   2.707
 5785TIP3   OH217311   0.219   3.647   0.596
 5785TIP3    H117312   0.286   3.610   0.653
 5785TIP3    H217313   0.192   3.574   0.540
 5786TIP3   OH217314   4.652  -0.036   2.332
 5786TIP3    H117315   4.594  -0.019   2.258
 5786TIP3    H217316   4.652   0.046   2.382
 5787TIP3   OH217317   1.328   4.672   6.385
 5787TIP3    H117318   1.408   4.691   6.434
 5787TIP3    H217319   1.257   4.699   6.443
 5788TIP3   OH217320   5.570   6.590   6.675
 5788TIP3    H117321   5.505   6.636   6.621
 5788TIP3    H217322   5.551   6.619   6.764
 5789TIP3   OH217323   4.391   6.684   3.370
 5789TIP3    H117324   4.479   6.674   3.405
 5789TIP3    H217325   4.337   6.624   3.423
 5790TIP3   OH217326   5.992   3.191   5.010
 5790TIP3    H117327   5.902   3.189   4.978
 5790TIP3    H217328   5.999   3.113   5.065
 5791TIP3   OH217329   8.168   4.738   4.804
 5791TIP3    H117330   8.077   4.767   4.813
 5791TIP3    H217331   8.219   4.801   4.855
 5792TIP3   OH217332   1.569   6.469   0.378
 5792TIP3    H117333   1.496   6.530   0.383
 5792TIP3    H217334   1.546   6.409   0.307
 5793TIP3   OH217335   7.588   0.207   4.968
 5793TIP3    H117336   7.500   0.187   4.936
 5793TIP3    H217337   7.616   0.128   5.013
 5794TIP3   OH217338   1.446   5.385   3.024
 5794TIP3    H117339   1.526   5.355   2.981
 5794TIP3    H217340   1.380   5.384   2.955
 5795TIP3   OH217341   7.919   1.574   0.124
 5795TIP3    H117342   7.868   1.521   0.063
 5795TIP3    H217343   7.910   1.663   0.091
 5796TIP3   OH217344   6.384   2.314  -0.018
 5796TIP3    H117345   6.423   2.238   0.024
 5796TIP3    H217346   6.452   2.380  -0.018
 5797TIP3   OH217347   0.612   2.081   5.550
 5797TIP3    H117348   0.586   2.114   5.636
 5797TIP3    H217349   0.574   2.143   5.488
 5798TIP3   OH217350   6.153   6.741   2.890
 5798TIP3    H117351   6.213   6.717   2.960
 5798TIP3    H217352   6.206   6.739   2.810
 5799TIP3   OH217353   1.459   0.593   3.138
 5799TIP3    H117354   1.553   0.608   3.128
 5799TIP3    H217355   1.450   0.498   3.143
 5800TIP3   OH217356   4.563   1.297   6.515
 5800TIP3    H117357   4.561   1.390   6.492
 5800TIP3    H217358   4.622   1.293   6.591
 5801TIP3   OH217359   2.633   2.669   5.184
 5801TIP3    H117360   2.626   2.658   5.089
 5801TIP3    H217361   2.626   2.580   5.219
 5802TIP3   OH217362   2.913   2.020   2.218
 5802TIP3    H117363   2.999   2.063   2.215
 5802TIP3    H217364   2.916   1.967   2.297
 5803TIP3   OH217365   8.112   1.153   4.666
 5803TIP3    H117366   8.165   1.133   4.743
 5803TIP3    H217367   8.085   1.244   4.679
 5804TIP3   OH217368   7.870   6.686   3.432
 5804TIP3    H117369   7.934   6.623   3.399
 5804TIP3    H217370   7.850   6.655   3.521
 5805TIP3   OH217371   0.505   5.548   5.511
 5805TIP3    H117372   0.584   5.496   5.526
 5805TIP3    H217373   0.434   5.485   5.506
 5806TIP3   OH217374   7.275   3.665   0.078
 5806TIP3    H117375   7.195   3.615   0.096
 5806TIP3    H217376   7.268   3.743   0.134
 5807TIP3   OH217377   5.366   7.041   4.000
 5807TIP3    H117378   5.416   7.072   3.925
 5807TIP3    H217379   5.298   7.107   4.012
 5808TIP3   OH217380   3.384   1.659   1.179
 5808TIP3    H117381   3.476   1.676   1.199
 5808TIP3    H217382   3.381   1.567   1.154
 5809TIP3   OH217383   2.728   1.256   0.080
 5809TIP3    H117384   2.691   1.342   0.095
 5809TIP3    H217385   2.667   1.196   0.123
 5810TIP3   OH217386   0.337   7.638   0.192
 5810TIP3    H117387   0.406   7.677   0.138
 5810TIP3    H217388   0.262   7.697   0.182
 5811TIP3   OH217389   7.694   3.618   4.303
 5811TIP3    H117390   7.604   3.586   4.298
 5811TIP3    H217391   7.699   3.685   4.235
 5812TIP3   OH217392   8.243   5.055   0.920
 5812TIP3    H117393   8.309   5.013   0.865
 5812TIP3    H217394   8.280   5.142   0.938
 5813TIP3   OH217395   6.557   0.348   2.977
 5813TIP3    H117396   6.566   0.279   3.043
 5813TIP3    H217397   6.525   0.424   3.026
 5814TIP3   OH217398   2.117   7.374   3.679
 5814TIP3    H117399   2.208   7.391   3.704
 5814TIP3    H217400   2.123   7.308   3.610
 5815TIP3   OH217401   5.905   0.919   1.126
 5815TIP3    H117402   5.897   0.834   1.084
 5815TIP3    H217403   5.828   0.925   1.183
 5816TIP3   OH217404   3.164   2.220   1.403
 5816TIP3    H117405   3.170   2.133   1.365
 5816TIP3    H217406   3.237   2.269   1.365
 5817TIP3   OH217407   1.681   0.647   5.645
 5817TIP3    H117408   1.615   0.646   5.577
 5817TIP3    H217409   1.668   0.565   5.693
 5818TIP3   OH217410   7.235   5.521   0.553
 5818TIP3    H117411   7.220   5.567   0.636
 5818TIP3    H217412   7.175   5.447   0.556
 5819TIP3   OH217413   7.501   3.476   2.063
 5819TIP3    H117414   7.483   3.401   2.120
 5819TIP3    H217415   7.591   3.463   2.033
 5820TIP3   OH217416   7.089   0.145   0.430
 5820TIP3    H117417   7.132   0.226   0.402
 5820TIP3    H217418   7.017   0.133   0.369
 5821TIP3   OH217419   6.909   7.314   5.133
 5821TIP3    H117420   6.902   7.297   5.227
 5821TIP3    H217421   6.821   7.297   5.099
 5822TIP3   OH217422   7.729   0.260   2.669
 5822TIP3    H117423   7.725   0.246   2.764
 5822TIP3    H217424   7.718   0.354   2.658
 5823TIP3   OH217425   5.566   7.357   6.857
 5823TIP3    H117426   5.621   7.359   6.778
 5823TIP3    H217427   5.496   7.420   6.838
 5824TIP3   OH217428   0.485   0.804   6.713
 5824TIP3    H117429   0.409   0.766   6.757
 5824TIP3    H217430   0.481   0.770   6.624
 5825TIP3   OH217431   1.273   5.240   2.483
 5825TIP3    H117432   1.294   5.275   2.569
 5825TIP3    H217433   1.338   5.171   2.469
 5826TIP3   OH217434   6.334   7.750   6.622
 5826TIP3    H117435   6.322   7.832   6.669
 5826TIP3    H217436   6.266   7.692   6.655
 5827TIP3   OH217437   7.167   4.315   6.348
 5827TIP3    H117438   7.249   4.265   6.350
 5827TIP3    H217439   7.190   4.398   6.305
 5828TIP3   OH217440   2.484   5.747   2.879
 5828TIP3    H117441   2.471   5.658   2.846
 5828TIP3    H217442   2.533   5.791   2.810
 5829TIP3   OH217443   4.441   3.188   5.407
 5829TIP3    H117444   4.446   3.180   5.312
 5829TIP3    H217445   4.450   3.098   5.439
 5830TIP3   OH217446   0.161   3.340   2.064
 5830TIP3    H117447   0.180   3.315   2.155
 5830TIP3    H217448   0.200   3.271   2.011
 5831TIP3   OH217449   7.352   5.710   4.843
 5831TIP3    H117450   7.437   5.667   4.854
 5831TIP3    H217451   7.292   5.658   4.896
 5832TIP3   OH217452   6.584   6.621   0.986
 5832TIP3    H117453   6.565   6.706   1.026
 5832TIP3    H217454   6.502   6.596   0.943
 5833TIP3   OH217455   2.464   6.779   0.502
 5833TIP3    H117456   2.385   6.829   0.484
 5833TIP3    H217457   2.532   6.845   0.513
 5834TIP3   OH217458   0.979   6.449   4.952
 5834TIP3    H117459   0.978   6.364   4.996
 5834TIP3    H217460   0.898   6.491   4.980
 5835TIP3   OH217461   3.446   1.635   0.474
 5835TIP3    H117462   3.503   1.583   0.531
 5835TIP3    H217463   3.505   1.681   0.414
 5836TIP3   OH217464   4.469   3.067   4.376
 5836TIP3    H117465   4.432   2.981   4.357
 5836TIP3    H217466   4.394   3.122   4.396
 5837TIP3   OH217467   1.925   7.219   1.500
 5837TIP3    H117468   1.975   7.140   1.521
 5837TIP3    H217469   1.965   7.252   1.420
 5838TIP3   OH217470   4.007   0.811   4.010
 5838TIP3    H117471   4.000   0.798   4.105
 5838TIP3    H217472   4.093   0.777   3.988
 5839TIP3   OH217473   0.283   3.274   0.722
 5839TIP3    H117474   0.284   3.179   0.712
 5839TIP3    H217475   0.204   3.291   0.775
 5840TIP3   OH217476   4.728   6.054   2.183
 5840TIP3    H117477   4.646   6.050   2.135
 5840TIP3    H217478   4.755   6.146   2.177
 5841TIP3   OH217479   7.305   5.512   1.021
 5841TIP3    H117480   7.245   5.437   1.026
 5841TIP3    H217481   7.297   5.542   0.930
 5842TIP3   OH217482   7.598   5.477   5.765
 5842TIP3    H117483   7.638   5.508   5.684
 5842TIP3    H217484   7.666   5.422   5.805
 5843TIP3   OH217485   0.840   5.977   4.416
 5843TIP3    H117486   0.833   6.008   4.506
 5843TIP3    H217487   0.864   6.055   4.365
 5844TIP3   OH217488   7.669   3.046   1.918
 5844TIP3    H117489   7.759   3.064   1.944
 5844TIP3    H217490   7.617   3.112   1.964
 5845TIP3   OH217491   0.508   6.026   2.903
 5845TIP3    H117492   0.518   6.117   2.931
 5845TIP3    H217493   0.414   6.010   2.906
 5846TIP3   OH217494   3.956   6.013   1.397
 5846TIP3    H117495   3.954   6.032   1.491
 5846TIP3    H217496   3.913   6.089   1.357
 5847TIP3   OH217497   2.155   6.848   0.654
 5847TIP3    H117498   2.159   6.836   0.560
 5847TIP3    H217499   2.062   6.862   0.673
 5848TIP3   OH217500   6.477   5.560   5.430
 5848TIP3    H117501   6.567   5.528   5.428
 5848TIP3    H217502   6.486   5.655   5.424
 5849TIP3   OH217503   0.246   2.487   0.601
 5849TIP3    H117504   0.200   2.553   0.549
 5849TIP3    H217505   0.339   2.507   0.587
 5850TIP3   OH217506   1.653   6.195   5.574
 5850TIP3    H117507   1.640   6.101   5.561
 5850TIP3    H217508   1.580   6.236   5.527
 5851TIP3   OH217509   3.101   4.138   4.373
 5851TIP3    H117510   3.114   4.103   4.461
 5851TIP3    H217511   3.169   4.096   4.320
 5852TIP3   OH217512   0.418   0.218   0.887
 5852TIP3    H117513   0.488   0.165   0.848
 5852TIP3    H217514   0.358   0.154   0.925
 5853TIP3   OH217515   2.369   1.069   2.842
 5853TIP3    H117516   2.317   0.991   2.818
 5853TIP3    H217517   2.304   1.130   2.878
 5854TIP3   OH217518   5.679   5.490   5.421
 5854TIP3    H117519   5.771   5.469   5.433
 5854TIP3    H217520   5.641   5.483   5.509
 5855TIP3   OH217521   6.409   1.004   3.994
 5855TIP3    H117522   6.379   0.945   4.063
 5855TIP3    H217523   6.328   1.033   3.950
 5856TIP3   OH217524   5.969   4.691   6.488
 5856TIP3    H117525   5.891   4.737   6.519
 5856TIP3    H217526   6.029   4.760   6.462
 5857TIP3   OH217527   0.643   7.343   0.626
 5857TIP3    H117528   0.580   7.392   0.573
 5857TIP3    H217529   0.709   7.407   0.652
 5858TIP3   OH217530   7.929   6.546   4.639
 5858TIP3    H117531   7.835   6.538   4.656
 5858TIP3    H217532   7.960   6.455   4.633
 5859TIP3   OH217533   6.649   1.860   3.289
 5859TIP3    H117534   6.728   1.904   3.320
 5859TIP3    H217535   6.652   1.774   3.330
 5860TIP3   OH217536   3.162   7.072   5.005
 5860TIP3    H117537   3.156   7.122   4.924
 5860TIP3    H217538   3.074   7.078   5.043
 5861TIP3   OH217539   5.226   2.498   6.116
 5861TIP3    H117540   5.291   2.512   6.046
 5861TIP3    H217541   5.206   2.404   6.112
 5862TIP3   OH217542   5.113   7.343   1.769
 5862TIP3    H117543   5.093   7.322   1.860
 5862TIP3    H217544   5.179   7.412   1.774
 5863TIP3   OH217545   5.903   7.143   1.278
 5863TIP3    H117546   5.949   7.075   1.328
 5863TIP3    H217547   5.813   7.139   1.309
 5864TIP3   OH217548   8.167   0.406   6.700
 5864TIP3    H117549   8.247   0.429   6.749
 5864TIP3    H217550   8.198   0.348   6.630
 5865TIP3   OH217551   0.081   0.770   6.582
 5865TIP3    H117552   0.008   0.758   6.522
 5865TIP3    H217553   0.139   0.696   6.564
 5866TIP3   OH217554   3.625   6.520   4.765
 5866TIP3    H117555   3.615   6.580   4.839
 5866TIP3    H217556   3.552   6.459   4.773
 5867TIP3   OH217557   7.481   6.207   6.092
 5867TIP3    H117558   7.468   6.114   6.113
 5867TIP3    H217559   7.393   6.245   6.100
 5868TIP3   OH217560   1.112   4.434   6.218
 5868TIP3    H117561   1.171   4.510   6.217
 5868TIP3    H217562   1.165   4.362   6.186
 5869TIP3   OH217563   8.261   1.347   1.273
 5869TIP3    H117564   8.309   1.330   1.354
 5869TIP3    H217565   8.328   1.349   1.205
 5870TIP3   OH217566   7.663   5.688   4.667
 5870TIP3    H117567   7.636   5.610   4.716
 5870TIP3    H217568   7.591   5.703   4.606
 5871TIP3   OH217569   7.613   6.341   3.852
 5871TIP3    H117570   7.593   6.363   3.761
 5871TIP3    H217571   7.595   6.247   3.858
 5872TIP3   OH217572   1.364   5.276   3.717
 5872TIP3    H117573   1.372   5.328   3.637
 5872TIP3    H217574   1.445   5.294   3.764
 5873TIP3   OH217575   1.521   4.145   6.566
 5873TIP3    H117576   1.428   4.143   6.544
 5873TIP3    H217577   1.525   4.118   6.657
 5874TIP3   OH217578   0.062   0.510   3.982
 5874TIP3    H117579   0.086   0.419   3.962
 5874TIP3    H217580   0.125   0.563   3.933
 5875TIP3   OH217581   7.103   4.928   3.319
 5875TIP3    H117582   7.196   4.943   3.305
 5875TIP3    H217583   7.080   4.859   3.257
 5876TIP3   OH217584   5.097   2.714   1.062
 5876TIP3    H117585   5.027   2.690   1.122
 5876TIP3    H217586   5.071   2.676   0.978
 5877TIP3   OH217587   1.851   5.804   5.205
 5877TIP3    H117588   1.850   5.896   5.179
 5877TIP3    H217589   1.782   5.764   5.152
 5878TIP3   OH217590   7.001   6.121   4.091
 5878TIP3    H117591   7.010   6.033   4.054
 5878TIP3    H217592   7.087   6.161   4.080
 5879TIP3   OH217593   0.206   1.969   6.213
 5879TIP3    H117594   0.257   1.952   6.134
 5879TIP3    H217595   0.117   1.985   6.182
 5880TIP3   OH217596   7.969   5.856   5.092
 5880TIP3    H117597   7.883   5.892   5.112
 5880TIP3    H217598   7.969   5.845   4.997
 5881TIP3   OH217599   2.451   7.802   0.789
 5881TIP3    H117600   2.448   7.713   0.823
 5881TIP3    H217601   2.394   7.801   0.712
 5882TIP3   OH217602   4.604   2.642   2.804
 5882TIP3    H117603   4.634   2.716   2.856
 5882TIP3    H217604   4.641   2.565   2.847
 5883TIP3   OH217605   5.219   5.235   3.183
 5883TIP3    H117606   5.182   5.323   3.185
 5883TIP3    H217607   5.170   5.187   3.250
 5884TIP3   OH217608   1.357   0.404   3.547
 5884TIP3    H117609   1.436   0.376   3.499
 5884TIP3    H217610   1.360   0.353   3.628
 5885TIP3   OH217611   2.564   6.337   0.123
 5885TIP3    H117612   2.548   6.295   0.039
 5885TIP3    H217613   2.627   6.279   0.167
 5886TIP3   OH217614   2.255   5.760   4.004
 5886TIP3    H117615   2.333   5.705   4.014
 5886TIP3    H217616   2.289   5.846   3.979
 5887TIP3   OH217617   4.677   3.565   2.941
 5887TIP3    H117618   4.751   3.591   2.886
 5887TIP3    H217619   4.614   3.636   2.933
 5888TIP3   OH217620   4.908   1.564   3.967
 5888TIP3    H117621   4.850   1.641   3.971
 5888TIP3    H217622   4.979   1.591   3.909
 5889TIP3   OH217623   7.042   2.639   2.842
 5889TIP3    H117624   7.100   2.577   2.887
 5889TIP3    H217625   7.101   2.694   2.790
 5890TIP3   OH217626   8.099   5.706   4.648
 5890TIP3    H117627   8.118   5.638   4.583
 5890TIP3    H217628   8.172   5.701   4.709
 5891TIP3   OH217629   4.024   6.030   5.157
 5891TIP3    H117630   4.079   5.992   5.226
 5891TIP3    H217631   4.017   5.961   5.092
 5892TIP3   OH217632   1.125   3.110   3.804
 5892TIP3    H117633   1.218   3.122   3.822
 5892TIP3    H217634   1.094   3.198   3.780
 5893TIP3   OH217635   2.024   3.832   3.401
 5893TIP3    H117636   2.063   3.852   3.316
 5893TIP3    H217637   1.980   3.913   3.427
 5894TIP3   OH217638   2.957   1.943   1.938
 5894TIP3    H117639   2.971   1.946   2.033
 5894TIP3    H217640   2.870   1.905   1.927
 5895TIP3   OH217641   6.224   2.377   5.199
 5895TIP3    H117642   6.201   2.306   5.139
 5895TIP3    H217643   6.161   2.446   5.181
 5896TIP3   OH217644   2.090   1.923   0.090
 5896TIP3    H117645   2.043   1.975   0.154
 5896TIP3    H217646   2.182   1.939   0.108
 5897TIP3   OH217647   4.339   7.291   2.773
 5897TIP3    H117648   4.411   7.346   2.803
 5897TIP3    H217649   4.318   7.325   2.686
 5898TIP3   OH217650   3.292   6.432   4.576
 5898TIP3    H117651   3.273   6.525   4.576
 5898TIP3    H217652   3.222   6.392   4.524
 5899TIP3   OH217653   6.714   1.102   3.704
 5899TIP3    H117654   6.756   1.029   3.660
 5899TIP3    H217655   6.711   1.076   3.796
 5900TIP3   OH217656   5.433   6.491   3.225
 5900TIP3    H117657   5.401   6.484   3.135
 5900TIP3    H217658   5.357   6.522   3.275
 5901TIP3   OH217659   0.459   5.088   0.788
 5901TIP3    H117660   0.399   5.018   0.761
 5901TIP3    H217661   0.487   5.129   0.706
 5902TIP3   OH217662   8.233   6.231   0.329
 5902TIP3    H117663   8.140   6.212   0.323
 5902TIP3    H217664   8.241   6.321   0.298
 5903TIP3   OH217665   3.195   0.486   5.169
 5903TIP3    H117666   3.185   0.413   5.109
 5903TIP3    H217667   3.113   0.489   5.218
 5904TIP3   OH217668   0.421   4.945   2.331
 5904TIP3    H117669   0.368   4.934   2.253
 5904TIP3    H217670   0.510   4.924   2.303
 5905TIP3   OH217671   2.165   5.169   1.132
 5905TIP3    H117672   2.123   5.095   1.177
 5905TIP3    H217673   2.249   5.180   1.179
 5906TIP3   OH217674   5.324   0.106   4.228
 5906TIP3    H117675   5.245   0.125   4.178
 5906TIP3    H217676   5.303   0.026   4.277
 5907TIP3   OH217677   8.231   1.823   1.274
 5907TIP3    H117678   8.200   1.736   1.252
 5907TIP3    H217679   8.152   1.878   1.275
 5908TIP3   OH217680   4.218   0.505   6.095
 5908TIP3    H117681   4.281   0.434   6.082
 5908TIP3    H217682   4.145   0.465   6.141
 5909TIP3   OH217683   4.142   6.810   1.955
 5909TIP3    H117684   4.191   6.743   2.003
 5909TIP3    H217685   4.139   6.884   2.015
 5910TIP3   OH217686   0.674   4.941   4.245
 5910TIP3    H117687   0.743   4.895   4.293
 5910TIP3    H217688   0.710   5.028   4.230
 5911TIP3   OH217689   7.120   3.738   2.515
 5911TIP3    H117690   7.167   3.654   2.518
 5911TIP3    H217691   7.183   3.801   2.550
 5912TIP3   OH217692   3.953   5.961   1.705
 5912TIP3    H117693   3.858   5.955   1.718
 5912TIP3    H217694   3.986   6.003   1.784
 5913TIP3   OH217695   2.112   4.689   2.610
 5913TIP3    H117696   2.029   4.640   2.611
 5913TIP3    H217697   2.179   4.621   2.610
 5914TIP3   OH217698   3.507   6.845   1.983
 5914TIP3    H117699   3.555   6.826   1.902
 5914TIP3    H217700   3.425   6.796   1.974
 5915TIP3   OH217701   4.255   6.469   0.101
 5915TIP3    H117702   4.337   6.492   0.144
 5915TIP3    H217703   4.197   6.443   0.173
 5916TIP3   OH217704   7.795   7.278   0.726
 5916TIP3    H117705   7.718   7.241   0.770
 5916TIP3    H217706   7.823   7.209   0.665
 5917TIP3   OH217707   7.116   1.888   4.477
 5917TIP3    H117708   7.103   1.828   4.404
 5917TIP3    H217709   7.185   1.848   4.529
 5918TIP3   OH217710   1.362   3.285   2.075
 5918TIP3    H117711   1.341   3.352   2.140
 5918TIP3    H217712   1.448   3.252   2.102
 5919TIP3   OH217713   8.064   7.469   3.236
 5919TIP3    H117714   8.134   7.527   3.267
 5919TIP3    H217715   7.986   7.501   3.281
 5920TIP3   OH217716   8.003   1.939   0.280
 5920TIP3    H117717   8.059   2.007   0.244
 5920TIP3    H217718   7.998   1.958   0.373
 5921TIP3   OH217719   3.509   6.775   1.152
 5921TIP3    H117720   3.428   6.816   1.120
 5921TIP3    H217721   3.510   6.689   1.110
 5922TIP3   OH217722   6.284   2.878   5.858
 5922TIP3    H117723   6.257   2.924   5.938
 5922TIP3    H217724   6.342   2.940   5.814
 5923TIP3   OH217725   6.923   4.245   6.159
 5923TIP3    H117726   6.952   4.210   6.075
 5923TIP3    H217727   6.963   4.188   6.224
 5924TIP3   OH217728   4.781   0.572   5.122
 5924TIP3    H117729   4.807   0.635   5.055
 5924TIP3    H217730   4.686   0.576   5.124
 5925TIP3   OH217731   3.551   7.251   3.328
 5925TIP3    H117732   3.595   7.223   3.247
 5925TIP3    H217733   3.610   7.224   3.398
 5926TIP3   OH217734   4.987   2.063   0.244
 5926TIP3    H117735   5.032   1.987   0.208
 5926TIP3    H217736   4.918   2.082   0.180
 5927TIP3   OH217737   1.680   7.215   3.732
 5927TIP3    H117738   1.678   7.135   3.680
 5927TIP3    H217739   1.680   7.285   3.667
 5928TIP3   OH217740   4.035   3.182   3.652
 5928TIP3    H117741   3.959   3.207   3.706
 5928TIP3    H217742   4.040   3.250   3.585
 5929TIP3   OH217743   8.156   3.867   4.112
 5929TIP3    H117744   8.145   3.882   4.018
 5929TIP3    H217745   8.090   3.801   4.133
 5930TIP3   OH217746   3.818   3.066   4.478
 5930TIP3    H117747   3.822   3.021   4.562
 5930TIP3    H217748   3.726   3.089   4.467
 5931TIP3   OH217749   0.462   4.687   2.585
 5931TIP3    H117750   0.544   4.638   2.589
 5931TIP3    H217751   0.484   4.775   2.614
 5932TIP3   OH217752   2.663   7.772   5.751
 5932TIP3    H117753   2.670   7.744   5.842
 5932TIP3    H217754   2.655   7.690   5.702
 5933TIP3   OH217755   1.027   2.826   2.720
 5933TIP3    H117756   0.994   2.822   2.631
 5933TIP3    H217757   1.068   2.740   2.734
 5934TIP3   OH217758   0.219   1.944   1.661
 5934TIP3    H117759   0.242   2.023   1.612
 5934TIP3    H217760   0.272   1.948   1.741
 5935TIP3   OH217761   3.307   0.683   5.713
 5935TIP3    H117762   3.220   0.723   5.722
 5935TIP3    H217763   3.292   0.590   5.730
 5936TIP3   OH217764   6.572   2.502   0.021
 5936TIP3    H117765   6.557   2.597   0.018
 5936TIP3    H217766   6.662   2.492  -0.009
 5937TIP3   OH217767   8.110   4.481   3.439
 5937TIP3    H117768   8.072   4.569   3.447
 5937TIP3    H217769   8.170   4.475   3.514
 5938TIP3   OH217770   6.228   6.162   0.943
 5938TIP3    H117771   6.283   6.235   0.973
 5938TIP3    H217772   6.226   6.101   1.017
 5939TIP3   OH217773   3.831   5.471   3.950
 5939TIP3    H117774   3.788   5.511   4.026
 5939TIP3    H217775   3.922   5.498   3.958
 5940TIP3   OH217776   5.364   7.440   0.059
 5940TIP3    H117777   5.305   7.422  -0.014
 5940TIP3    H217778   5.437   7.488   0.019
 5941TIP3   OH217779   5.702   4.903   0.697
 5941TIP3    H117780   5.729   4.986   0.736
 5941TIP3    H217781   5.618   4.922   0.656
 5942TIP3   OH217782   3.881   5.840   2.009
 5942TIP3    H117783   3.886   5.763   1.953
 5942TIP3    H217784   3.886   5.806   2.099
 5943TIP3   OH217785   6.375   4.357   6.713
 5943TIP3    H117786   6.431   4.327   6.785
 5943TIP3    H217787   6.326   4.430   6.749
 5944TIP3   OH217788   1.880   4.722   4.553
 5944TIP3    H117789   1.820   4.649   4.542
 5944TIP3    H217790   1.925   4.729   4.469
 5945TIP3   OH217791   7.170   2.590   1.847
 5945TIP3    H117792   7.125   2.573   1.764
 5945TIP3    H217793   7.195   2.683   1.842
 5946TIP3   OH217794   3.143   3.607   2.523
 5946TIP3    H117795   3.172   3.686   2.477
 5946TIP3    H217796   3.222   3.552   2.528
 5947TIP3   OH217797   0.723   2.622   2.291
 5947TIP3    H117798   0.737   2.571   2.211
 5947TIP3    H217799   0.743   2.712   2.266
 5948TIP3   OH217800   4.943   1.103   5.140
 5948TIP3    H117801   4.983   1.145   5.064
 5948TIP3    H217802   4.878   1.044   5.103
 5949TIP3   OH217803   1.765   7.733   1.005
 5949TIP3    H117804   1.695   7.674   1.031
 5949TIP3    H217805   1.797   7.697   0.922
 5950TIP3   OH217806   6.605   6.872   4.982
 5950TIP3    H117807   6.659   6.933   4.931
 5950TIP3    H217808   6.619   6.898   5.073
 5951TIP3   OH217809   2.850   1.516   3.106
 5951TIP3    H117810   2.809   1.526   3.020
 5951TIP3    H217811   2.845   1.603   3.145
 5952TIP3   OH217812   6.254   1.771   6.234
 5952TIP3    H117813   6.177   1.817   6.199
 5952TIP3    H217814   6.219   1.710   6.298
 5953TIP3   OH217815   0.040   2.669   3.413
 5953TIP3    H117816   0.019   2.580   3.383
 5953TIP3    H217817   0.113   2.696   3.358
 5954TIP3   OH217818   2.166   6.196   0.468
 5954TIP3    H117819   2.212   6.255   0.407
 5954TIP3    H217820   2.101   6.252   0.510
 5955TIP3   OH217821   0.689   5.385   1.974
 5955TIP3    H117822   0.617   5.332   1.942
 5955TIP3    H217823   0.691   5.462   1.916
 5956TIP3   OH217824   3.154   5.055   5.982
 5956TIP3    H117825   3.236   5.099   5.963
 5956TIP3    H217826   3.179   4.968   6.012
 5957TIP3   OH217827   7.752   2.516   1.126
 5957TIP3    H117828   7.754   2.611   1.136
 5957TIP3    H217829   7.816   2.484   1.189
 5958TIP3   OH217830   0.151   5.481   0.797
 5958TIP3    H117831   0.241   5.448   0.796
 5958TIP3    H217832   0.110   5.436   0.871
 5959TIP3   OH217833   2.146   0.911   2.911
 5959TIP3    H117834   2.108   0.926   2.998
 5959TIP3    H217835   2.070   0.896   2.854
 5960TIP3   OH217836   5.963   7.691   0.864
 5960TIP3    H117837   6.001   7.647   0.940
 5960TIP3    H217838   6.034   7.746   0.830
 5961TIP3   OH217839   5.779   1.061   2.147
 5961TIP3    H117840   5.734   1.112   2.214
 5961TIP3    H217841   5.766   1.110   2.066
 5962TIP3   OH217842   3.363   6.010   4.275
 5962TIP3    H117843   3.277   6.051   4.286
 5962TIP3    H217844   3.388   5.981   4.362
 5963TIP3   OH217845   2.457   3.110   0.497
 5963TIP3    H117846   2.541   3.106   0.451
 5963TIP3    H217847   2.430   3.201   0.490
 5964TIP3   OH217848   7.469   1.414   0.293
 5964TIP3    H117849   7.462   1.419   0.197
 5964TIP3    H217850   7.435   1.498   0.324
 5965TIP3   OH217851   5.421   1.888   1.323
 5965TIP3    H117852   5.505   1.931   1.335
 5965TIP3    H217853   5.372   1.947   1.265
 5966TIP3   OH217854   1.152   7.722   4.245
 5966TIP3    H117855   1.092   7.795   4.261
 5966TIP3    H217856   1.214   7.755   4.179
 5967TIP3   OH217857   4.847   0.374   0.353
 5967TIP3    H117858   4.885   0.330   0.277
 5967TIP3    H217859   4.807   0.453   0.317
 5968TIP3   OH217860   2.149   3.442   1.627
 5968TIP3    H117861   2.145   3.491   1.544
 5968TIP3    H217862   2.214   3.375   1.611
 5969TIP3   OH217863   4.206   0.900   1.440
 5969TIP3    H117864   4.246   0.876   1.524
 5969TIP3    H217865   4.273   0.879   1.375
 5970TIP3   OH217866   4.500   3.021   1.422
 5970TIP3    H117867   4.483   2.927   1.415
 5970TIP3    H217868   4.518   3.035   1.514
 5971TIP3   OH217869   2.718   2.494   3.533
 5971TIP3    H117870   2.794   2.547   3.554
 5971TIP3    H217871   2.647   2.557   3.519
 5972TIP3   OH217872   7.651   0.646   1.549
 5972TIP3    H117873   7.721   0.704   1.519
 5972TIP3    H217874   7.571   0.685   1.513
 5973TIP3   OH217875   6.707   0.004   1.572
 5973TIP3    H117876   6.691   0.060   1.648
 5973TIP3    H217877   6.726   0.065   1.501
 5974TIP3   OH217878   4.064   2.950   4.393
 5974TIP3    H117879   4.040   2.981   4.305
 5974TIP3    H217880   3.980   2.947   4.440
 5975TIP3   OH217881   5.777   4.654   1.248
 5975TIP3    H117882   5.751   4.701   1.169
 5975TIP3    H217883   5.721   4.577   1.250
 5976TIP3   OH217884   6.638   5.836   2.289
 5976TIP3    H117885   6.583   5.838   2.211
 5976TIP3    H217886   6.717   5.789   2.262
 5977TIP3   OH217887   1.503   1.814   1.414
 5977TIP3    H117888   1.499   1.843   1.505
 5977TIP3    H217889   1.596   1.822   1.391
 5978TIP3   OH217890   4.141   7.222   4.200
 5978TIP3    H117891   4.089   7.147   4.230
 5978TIP3    H217892   4.090   7.258   4.127
 5979TIP3   OH217893   0.938   6.607   0.614
 5979TIP3    H117894   0.949   6.561   0.697
 5979TIP3    H217895   0.858   6.658   0.625
 5980TIP3   OH217896   0.388   4.119   2.712
 5980TIP3    H117897   0.421   4.065   2.639
 5980TIP3    H217898   0.372   4.205   2.672
 5981TIP3   OH217899   2.515   7.341   6.673
 5981TIP3    H117900   2.421   7.354   6.665
 5981TIP3    H217901   2.553   7.396   6.604
 5982TIP3   OH217902   4.217   4.062   1.702
 5982TIP3    H117903   4.160   4.139   1.705
 5982TIP3    H217904   4.223   4.033   1.793
 5983TIP3   OH217905   0.786   0.280   4.145
 5983TIP3    H117906   0.702   0.238   4.124
 5983TIP3    H217907   0.774   0.371   4.120
 5984TIP3   OH217908   6.569   2.055   6.320
 5984TIP3    H117909   6.603   1.996   6.253
 5984TIP3    H217910   6.622   2.038   6.397
 5985TIP3   OH217911   4.136   0.379   4.969
 5985TIP3    H117912   4.190   0.311   4.928
 5985TIP3    H217913   4.132   0.354   5.061
 5986TIP3   OH217914   5.760   6.152   5.849
 5986TIP3    H117915   5.719   6.126   5.767
 5986TIP3    H217916   5.745   6.078   5.908
 5987TIP3   OH217917   6.164   3.444   1.574
 5987TIP3    H117918   6.124   3.514   1.523
 5987TIP3    H217919   6.124   3.451   1.661
 5988TIP3   OH217920   6.339   2.499   3.700
 5988TIP3    H117921   6.347   2.572   3.762
 5988TIP3    H217922   6.278   2.439   3.743
 5989TIP3   OH217923   6.308   5.496   1.523
 5989TIP3    H117924   6.354   5.451   1.453
 5989TIP3    H217925   6.371   5.502   1.594
 5990TIP3   OH217926   6.465   3.771   1.834
 5990TIP3    H117927   6.512   3.744   1.754
 5990TIP3    H217928   6.404   3.838   1.804
 5991TIP3   OH217929   0.539   5.807   5.549
 5991TIP3    H117930   0.525   5.714   5.532
 5991TIP3    H217931   0.461   5.850   5.514
 5992TIP3   OH217932   7.913   3.453   0.762
 5992TIP3    H117933   7.854   3.450   0.687
 5992TIP3    H217934   7.940   3.363   0.776
 5993TIP3   OH217935   3.799   2.518   0.701
 5993TIP3    H117936   3.809   2.542   0.793
 5993TIP3    H217937   3.737   2.582   0.666
 5994TIP3   OH217938   3.020   4.558   1.330
 5994TIP3    H117939   3.012   4.482   1.387
 5994TIP3    H217940   3.010   4.523   1.242
 5995TIP3   OH217941   1.498   3.441   3.505
 5995TIP3    H117942   1.460   3.506   3.445
 5995TIP3    H217943   1.586   3.425   3.469
 5996TIP3   OH217944   6.765   2.692   4.858
 5996TIP3    H117945   6.820   2.614   4.852
 5996TIP3    H217946   6.779   2.724   4.947
 5997TIP3   OH217947   1.460   2.241   1.831
 5997TIP3    H117948   1.507   2.325   1.832
 5997TIP3    H217949   1.379   2.259   1.878
 5998TIP3   OH217950   7.520   4.597   4.157
 5998TIP3    H117951   7.591   4.652   4.124
 5998TIP3    H217952   7.490   4.548   4.081
 5999TIP3   OH217953   5.887   6.984   1.734
 5999TIP3    H117954   5.887   7.051   1.803
 5999TIP3    H217955   5.953   7.012   1.672
 6000TIP3   OH217956   3.582   2.689   3.344
 6000TIP3    H117957   3.641   2.734   3.405
 6000TIP3    H217958   3.495   2.699   3.384
 6001TIP3   OH217959   6.479   5.399   0.209
 6001TIP3    H117960   6.505   5.311   0.180
 6001TIP3    H217961   6.390   5.387   0.243
 6002TIP3   OH217962   7.439   2.861   1.072
 6002TIP3    H117963   7.499   2.862   0.997
 6002TIP3    H217964   7.394   2.777   1.066
 6003TIP3   OH217965   2.610   3.711   1.836
 6003TIP3    H117966   2.664   3.786   1.813
 6003TIP3    H217967   2.601   3.662   1.754
 6004TIP3   OH217968   6.696   1.615   4.231
 6004TIP3    H117969   6.614   1.643   4.189
 6004TIP3    H217970   6.764   1.635   4.166
 6005TIP3   OH217971   7.169   3.140   6.056
 6005TIP3    H117972   7.263   3.149   6.044
 6005TIP3    H217973   7.133   3.153   5.968
 6006TIP3   OH217974   5.419   0.989   4.167
 6006TIP3    H117975   5.451   1.036   4.091
 6006TIP3    H217976   5.496   0.941   4.200
 6007TIP3   OH217977   5.862   6.268   0.853
 6007TIP3    H117978   5.947   6.223   0.852
 6007TIP3    H217979   5.846   6.290   0.761
 6008TIP3   OH217980   6.840   1.863   0.686
 6008TIP3    H117981   6.821   1.948   0.646
 6008TIP3    H217982   6.933   1.849   0.669
 6009TIP3   OH217983   7.040   0.093   5.137
 6009TIP3    H117984   7.054   0.000   5.155
 6009TIP3    H217985   7.041   0.100   5.041
 6010TIP3   OH217986   0.516   2.505   2.525
 6010TIP3    H117987   0.501   2.412   2.540
 6010TIP3    H217988   0.587   2.507   2.461
 6011TIP3   OH217989   2.003   0.003   4.660
 6011TIP3    H117990   2.018   0.009   4.754
 6011TIP3    H217991   1.926   0.057   4.645
 6012TIP3   OH217992   5.904   0.721   2.410
 6012TIP3    H117993   5.845   0.650   2.437
 6012TIP3    H217994   5.956   0.740   2.489
 6013TIP3   OH217995   5.751   7.693   4.676
 6013TIP3    H117996   5.816   7.665   4.611
 6013TIP3    H217997   5.786   7.662   4.759
 6014TIP3   OH217998   6.731   3.378   2.232
 6014TIP3    H117999   6.647   3.424   2.235
 6014TIP3    H218000   6.719   3.308   2.168
 6015TIP3   OH218001   0.395   0.157   2.935
 6015TIP3    H118002   0.394   0.164   2.839
 6015TIP3    H218003   0.303   0.144   2.958
 6016TIP3   OH218004   1.331   7.413   0.202
 6016TIP3    H118005   1.422   7.386   0.215
 6016TIP3    H218006   1.280   7.337   0.227
 6017TIP3   OH218007   1.221   3.461   4.830
 6017TIP3    H118008   1.268   3.484   4.750
 6017TIP3    H218009   1.129   3.461   4.805
 6018TIP3   OH218010   7.515   5.671   5.256
 6018TIP3    H118011   7.590   5.712   5.213
 6018TIP3    H218012   7.516   5.580   5.225
 6019TIP3   OH218013   8.182   6.118   1.263
 6019TIP3    H118014   8.191   6.075   1.348
 6019TIP3    H218015   8.125   6.193   1.280
 6020TIP3   OH218016   1.705   4.019   2.635
 6020TIP3    H118017   1.703   3.955   2.564
 6020TIP3    H218018   1.698   4.104   2.592
 6021TIP3   OH218019   3.820   5.403   0.336
 6021TIP3    H118020   3.800   5.488   0.377
 6021TIP3    H218021   3.741   5.351   0.350
 6022TIP3   OH218022   6.377   4.061   0.579
 6022TIP3    H118023   6.471   4.046   0.592
 6022TIP3    H218024   6.368   4.156   0.579
 6023TIP3   OH218025   4.305   0.062   6.041
 6023TIP3    H118026   4.284   0.079   6.133
 6023TIP3    H218027   4.326  -0.031   6.038
 6024TIP3   OH218028   2.555   1.648   1.838
 6024TIP3    H118029   2.588   1.566   1.875
 6024TIP3    H218030   2.514   1.622   1.756
 6025TIP3   OH218031   0.258   3.455   4.498
 6025TIP3    H118032   0.237   3.511   4.423
 6025TIP3    H218033   0.263   3.367   4.462
 6026TIP3   OH218034   2.385   5.775   1.634
 6026TIP3    H118035   2.327   5.703   1.611
 6026TIP3    H218036   2.397   5.824   1.552
 6027TIP3   OH218037   2.790   5.364   4.881
 6027TIP3    H118038   2.754   5.296   4.938
 6027TIP3    H218039   2.814   5.318   4.800
 6028TIP3   OH218040   6.592   3.806   0.806
 6028TIP3    H118041   6.568   3.727   0.855
 6028TIP3    H218042   6.688   3.804   0.803
 6029TIP3   OH218043   5.135   3.101   1.978
 6029TIP3    H118044   5.074   3.167   1.948
 6029TIP3    H218045   5.114   3.023   1.927
 6030TIP3   OH218046   3.102   6.272   5.126
 6030TIP3    H118047   3.086   6.366   5.133
 6030TIP3    H218048   3.030   6.232   5.173
 6031TIP3   OH218049   3.163   6.306   1.628
 6031TIP3    H118050   3.097   6.374   1.617
 6031TIP3    H218051   3.244   6.346   1.596
 6032TIP3   OH218052   3.344   3.915   2.874
 6032TIP3    H118053   3.328   3.901   2.781
 6032TIP3    H218054   3.285   3.854   2.919
 6033TIP3   OH218055   2.144   1.157   3.772
 6033TIP3    H118056   2.229   1.166   3.816
 6033TIP3    H218057   2.166   1.161   3.679
 6034TIP3   OH218058   5.607   1.039   6.307
 6034TIP3    H118059   5.519   1.042   6.269
 6034TIP3    H218060   5.661   1.089   6.245
 6035TIP3   OH218061   5.086   3.165   3.412
 6035TIP3    H118062   5.136   3.246   3.422
 6035TIP3    H218063   5.050   3.148   3.499
 6036TIP3   OH218064   0.860   6.079   4.665
 6036TIP3    H118065   0.858   6.173   4.680
 6036TIP3    H218066   0.930   6.047   4.722
 6037TIP3   OH218067   5.083   1.232   5.552
 6037TIP3    H118068   5.027   1.309   5.565
 6037TIP3    H218069   5.075   1.213   5.459
 6038TIP3   OH218070   2.630   4.477   0.635
 6038TIP3    H118071   2.683   4.406   0.598
 6038TIP3    H218072   2.603   4.529   0.559
 6039TIP3   OH218073   7.013   2.116   3.726
 6039TIP3    H118074   7.096   2.083   3.693
 6039TIP3    H218075   7.029   2.132   3.819
 6040TIP3   OH218076   5.413   2.340   2.620
 6040TIP3    H118077   5.362   2.296   2.687
 6040TIP3    H218078   5.378   2.430   2.618
 6041TIP3   OH218079   7.063   5.190   2.667
 6041TIP3    H118080   7.125   5.153   2.729
 6041TIP3    H218081   7.117   5.238   2.604
 6042TIP3   OH218082   2.943   5.286   1.352
 6042TIP3    H118083   2.887   5.350   1.308
 6042TIP3    H218084   3.032   5.320   1.341
 6043TIP3   OH218085   7.755   3.398   2.892
 6043TIP3    H118086   7.663   3.406   2.916
 6043TIP3    H218087   7.801   3.461   2.948
 6044TIP3   OH218088   3.199   5.559   1.131
 6044TIP3    H118089   3.139   5.531   1.063
 6044TIP3    H218090   3.178   5.504   1.207
 6045TIP3   OH218091   3.429   4.693   2.022
 6045TIP3    H118092   3.337   4.700   1.997
 6045TIP3    H218093   3.476   4.736   1.951
 6046TIP3   OH218094   3.958   2.906   3.022
 6046TIP3    H118095   4.006   2.979   2.984
 6046TIP3    H218096   4.012   2.878   3.096
 6047TIP3   OH218097   6.417   2.400   3.428
 6047TIP3    H118098   6.496   2.431   3.384
 6047TIP3    H218099   6.394   2.470   3.489
 6048TIP3   OH218100   4.384   4.767   1.021
 6048TIP3    H118101   4.473   4.757   0.987
 6048TIP3    H218102   4.395   4.777   1.116
 6049TIP3   OH218103   4.987   4.711   2.383
 6049TIP3    H118104   5.030   4.780   2.434
 6049TIP3    H218105   4.963   4.754   2.301
 6050TIP3   OH218106   7.940   7.317   6.418
 6050TIP3    H118107   7.919   7.241   6.472
 6050TIP3    H218108   7.957   7.281   6.331
 6051TIP3   OH218109   7.123   6.503   3.635
 6051TIP3    H118110   7.054   6.478   3.696
 6051TIP3    H218111   7.170   6.574   3.679
 6052TIP3   OH218112   8.222   0.574   2.482
 6052TIP3    H118113   8.171   0.540   2.409
 6052TIP3    H218114   8.313   0.574   2.450
 6053TIP3   OH218115   7.234   4.682   4.837
 6053TIP3    H118116   7.321   4.713   4.809
 6053TIP3    H218117   7.218   4.605   4.782
 6054TIP3   OH218118   3.524   7.346   5.542
 6054TIP3    H118119   3.522   7.257   5.509
 6054TIP3    H218120   3.452   7.390   5.496
 6055TIP3   OH218121   4.845   3.264   6.151
 6055TIP3    H118122   4.821   3.241   6.061
 6055TIP3    H218123   4.891   3.187   6.184
 6056TIP3   OH218124   3.647   6.871   4.707
 6056TIP3    H118125   3.682   6.783   4.701
 6056TIP3    H218126   3.710   6.920   4.760
 6057TIP3   OH218127   0.717   4.777   5.433
 6057TIP3    H118128   0.671   4.838   5.491
 6057TIP3    H218129   0.672   4.788   5.348
 6058TIP3   OH218130   1.026   2.920   1.891
 6058TIP3    H118131   1.104   2.934   1.837
 6058TIP3    H218132   0.956   2.962   1.842
 6059TIP3   OH218133   1.878   7.693   1.892
 6059TIP3    H118134   1.885   7.786   1.870
 6059TIP3    H218135   1.868   7.649   1.808
 6060TIP3   OH218136   4.348   7.135   4.000
 6060TIP3    H118137   4.313   7.147   4.088
 6060TIP3    H218138   4.275   7.099   3.950
 6061TIP3   OH218139   3.546   3.487   1.691
 6061TIP3    H118140   3.500   3.482   1.607
 6061TIP3    H218141   3.599   3.407   1.694
 6062TIP3   OH218142   6.326   2.315   5.670
 6062TIP3    H118143   6.367   2.229   5.674
 6062TIP3    H218144   6.390   2.370   5.625
 6063TIP3   OH218145   5.337   3.196   2.643
 6063TIP3    H118146   5.313   3.245   2.722
 6063TIP3    H218147   5.397   3.128   2.675
 6064TIP3   OH218148   2.768   7.690   0.079
 6064TIP3    H118149   2.792   7.723  -0.008
 6064TIP3    H218150   2.783   7.764   0.138
 6065TIP3   OH218151   3.062   3.249   3.771
 6065TIP3    H118152   3.121   3.176   3.789
 6065TIP3    H218153   2.977   3.220   3.801
 6066TIP3   OH218154   0.700   3.708   4.019
 6066TIP3    H118155   0.756   3.733   3.946
 6066TIP3    H218156   0.702   3.783   4.078
 6067TIP3   OH218157   3.820   2.559   2.542
 6067TIP3    H118158   3.853   2.562   2.452
 6067TIP3    H218159   3.740   2.506   2.536
 6068TIP3   OH218160   6.038   7.233   2.939
 6068TIP3    H118161   6.035   7.244   3.034
 6068TIP3    H218162   6.008   7.143   2.924
 6069TIP3   OH218163   2.442   2.522   0.116
 6069TIP3    H118164   2.350   2.497   0.107
 6069TIP3    H218165   2.484   2.488   0.037
 6070TIP3   OH218166   0.211   1.140   1.305
 6070TIP3    H118167   0.262   1.215   1.334
 6070TIP3    H218168   0.171   1.105   1.384
 6071TIP3   OH218169   0.521   2.494   0.965
 6071TIP3    H118170   0.602   2.466   0.923
 6071TIP3    H218171   0.472   2.539   0.896
 6072TIP3   OH218172   6.071   0.725   4.860
 6072TIP3    H118173   6.164   0.737   4.878
 6072TIP3    H218174   6.027   0.785   4.920
 6073TIP3   OH218175   5.728   2.142   4.175
 6073TIP3    H118176   5.704   2.223   4.220
 6073TIP3    H218177   5.689   2.072   4.227
 6074TIP3   OH218178   0.751   0.681   0.477
 6074TIP3    H118179   0.780   0.633   0.400
 6074TIP3    H218180   0.672   0.636   0.506
 6075TIP3   OH218181   2.933   0.124   3.989
 6075TIP3    H118182   2.915   0.218   3.985
 6075TIP3    H218183   2.954   0.107   4.081
 6076TIP3   OH218184   7.710   2.474   2.429
 6076TIP3    H118185   7.754   2.398   2.466
 6076TIP3    H218186   7.754   2.490   2.346
 6077TIP3   OH218187   6.922   3.161   3.247
 6077TIP3    H118188   6.866   3.128   3.176
 6077TIP3    H218189   6.930   3.087   3.307
 6078TIP3   OH218190   4.389   0.572   5.722
 6078TIP3    H118191   4.370   0.485   5.757
 6078TIP3    H218192   4.336   0.631   5.776
 6079TIP3   OH218193   4.757   0.107   1.824
 6079TIP3    H118194   4.840   0.083   1.865
 6079TIP3    H218195   4.780   0.128   1.733
 6080TIP3   OH218196   6.882   7.629   2.044
 6080TIP3    H118197   6.872   7.558   2.108
 6080TIP3    H218198   6.889   7.584   1.960
 6081TIP3   OH218199   3.960   5.502   1.465
 6081TIP3    H118200   3.977   5.579   1.520
 6081TIP3    H218201   4.006   5.431   1.510
 6082TIP3   OH218202   0.412   4.543   2.976
 6082TIP3    H118203   0.376   4.523   2.890
 6082TIP3    H218204   0.337   4.575   3.026
 6083TIP3   OH218205   5.156   3.141   3.957
 6083TIP3    H118206   5.074   3.113   3.918
 6083TIP3    H218207   5.224   3.092   3.910
 6084TIP3   OH218208   6.430   4.272   4.746
 6084TIP3    H118209   6.521   4.271   4.718
 6084TIP3    H218210   6.401   4.182   4.737
 6085TIP3   OH218211   1.334   4.599   0.114
 6085TIP3    H118212   1.428   4.593   0.128
 6085TIP3    H218213   1.298   4.520   0.155
 6086TIP3   OH218214   4.919   4.117   6.256
 6086TIP3    H118215   4.959   4.042   6.300
 6086TIP3    H218216   4.985   4.147   6.194
 6087TIP3   OH218217   0.099   4.378   5.531
 6087TIP3    H118218   0.161   4.347   5.464
 6087TIP3    H218219   0.108   4.316   5.603
 6088TIP3   OH218220   5.758   4.533   2.173
 6088TIP3    H118221   5.850   4.563   2.174
 6088TIP3    H218222   5.734   4.534   2.081
 6089TIP3   OH218223   7.160   2.398   1.101
 6089TIP3    H118224   7.226   2.388   1.032
 6089TIP3    H218225   7.118   2.312   1.107
 6090TIP3   OH218226   8.242   0.744   6.176
 6090TIP3    H118227   8.192   0.720   6.099
 6090TIP3    H218228   8.277   0.662   6.209
 6091TIP3   OH218229   7.830   5.436   4.448
 6091TIP3    H118230   7.775   5.445   4.527
 6091TIP3    H218231   7.844   5.526   4.419
 6092TIP3   OH218232   2.644   6.095   1.105
 6092TIP3    H118233   2.669   6.149   1.179
 6092TIP3    H218234   2.690   6.133   1.030
 6093TIP3   OH218235   5.272   6.922   2.224
 6093TIP3    H118236   5.219   6.870   2.285
 6093TIP3    H218237   5.283   7.006   2.268
 6094TIP3   OH218238   5.076   3.860   0.893
 6094TIP3    H118239   5.023   3.836   0.969
 6094TIP3    H218240   5.055   3.953   0.878
 6095TIP3   OH218241   6.645   5.468   0.403
 6095TIP3    H118242   6.729   5.437   0.370
 6095TIP3    H218243   6.583   5.449   0.333
 6096TIP3   OH218244   4.851   1.647   0.728
 6096TIP3    H118245   4.852   1.556   0.699
 6096TIP3    H218246   4.943   1.671   0.735
 6097TIP3   OH218247   6.430   7.189   4.406
 6097TIP3    H118248   6.499   7.239   4.364
 6097TIP3    H218249   6.472   7.106   4.431
 6098TIP3   OH218250   2.684   0.240   3.701
 6098TIP3    H118251   2.670   0.309   3.636
 6098TIP3    H218252   2.689   0.159   3.649
 6099TIP3   OH218253   2.418   6.434   4.631
 6099TIP3    H118254   2.421   6.412   4.724
 6099TIP3    H218255   2.410   6.529   4.630
 6100TIP3   OH218256   8.069   4.561   5.836
 6100TIP3    H118257   8.145   4.572   5.894
 6100TIP3    H218258   8.106   4.534   5.752
 6101TIP3   OH218259   2.050   1.491   1.769
 6101TIP3    H118260   1.991   1.493   1.845
 6101TIP3    H218261   2.055   1.399   1.745
 6102TIP3   OH218262   4.832   6.267   2.808
 6102TIP3    H118263   4.806   6.305   2.724
 6102TIP3    H218264   4.911   6.315   2.833
 6103TIP3   OH218265   5.877   5.954   1.497
 6103TIP3    H118266   5.816   6.024   1.518
 6103TIP3    H218267   5.845   5.918   1.414
 6104TIP3   OH218268   1.729   1.550   1.982
 6104TIP3    H118269   1.709   1.493   1.908
 6104TIP3    H218270   1.766   1.491   2.048
 6105TIP3   OH218271   3.508   3.006   5.803
 6105TIP3    H118272   3.468   2.985   5.718
 6105TIP3    H218273   3.436   3.000   5.866
 6106TIP3   OH218274   2.019   3.613   0.822
 6106TIP3    H118275   1.930   3.589   0.848
 6106TIP3    H218276   2.051   3.668   0.894
 6107TIP3   OH218277   5.542   3.312   5.697
 6107TIP3    H118278   5.504   3.225   5.682
 6107TIP3    H218279   5.486   3.371   5.647
 6108TIP3   OH218280   1.172   1.670   1.722
 6108TIP3    H118281   1.191   1.593   1.667
 6108TIP3    H218282   1.224   1.657   1.801
 6109TIP3   OH218283   4.147   7.576   1.260
 6109TIP3    H118284   4.102   7.609   1.182
 6109TIP3    H218285   4.077   7.567   1.326
 6110TIP3   OH218286   4.478   2.747   5.453
 6110TIP3    H118287   4.547   2.719   5.513
 6110TIP3    H218288   4.400   2.701   5.485
 6111TIP3   OH218289   6.782   4.645   0.604
 6111TIP3    H118290   6.837   4.649   0.525
 6111TIP3    H218291   6.756   4.736   0.619
 6112TIP3   OH218292   4.800   5.048   6.515
 6112TIP3    H118293   4.888   5.077   6.540
 6112TIP3    H218294   4.808   4.953   6.506
 6113TIP3   OH218295   0.642   4.884   3.658
 6113TIP3    H118296   0.577   4.908   3.592
 6113TIP3    H218297   0.617   4.932   3.736
 6114TIP3   OH218298   3.523   1.522   2.436
 6114TIP3    H118299   3.441   1.475   2.454
 6114TIP3    H218300   3.591   1.465   2.471
 6115TIP3   OH218301   8.243   0.398   1.453
 6115TIP3    H118302   8.321   0.346   1.470
 6115TIP3    H218303   8.209   0.364   1.371
 6116TIP3   OH218304   5.092   0.812   6.481
 6116TIP3    H118305   5.070   0.742   6.543
 6116TIP3    H218306   5.012   0.863   6.473
 6117TIP3   OH218307   5.640   5.757   0.950
 6117TIP3    H118308   5.620   5.766   1.043
 6117TIP3    H218309   5.642   5.847   0.918
 6118TIP3   OH218310   4.718   6.980   5.025
 6118TIP3    H118311   4.730   6.990   4.931
 6118TIP3    H218312   4.656   7.049   5.049
 6119TIP3   OH218313   5.640   4.400   1.230
 6119TIP3    H118314   5.610   4.314   1.202
 6119TIP3    H218315   5.563   4.456   1.220
 6120TIP3   OH218316   4.643   0.557   4.608
 6120TIP3    H118317   4.633   0.538   4.701
 6120TIP3    H218318   4.643   0.471   4.566
 6121TIP3   OH218319   6.493   1.632   5.413
 6121TIP3    H118320   6.588   1.626   5.403
 6121TIP3    H218321   6.475   1.725   5.421
 6122TIP3   OH218322   7.380   3.681   2.336
 6122TIP3    H118323   7.353   3.592   2.313
 6122TIP3    H218324   7.464   3.693   2.293
 6123TIP3   OH218325   5.257   7.415   5.338
 6123TIP3    H118326   5.240   7.324   5.314
 6123TIP3    H218327   5.226   7.466   5.263
 6124TIP3   OH218328   5.610   0.445   0.643
 6124TIP3    H118329   5.541   0.455   0.577
 6124TIP3    H218330   5.644   0.534   0.655
 6125TIP3   OH218331   3.455   4.230   5.973
 6125TIP3    H118332   3.496   4.294   6.033
 6125TIP3    H218333   3.385   4.191   6.025
 6126TIP3   OH218334   1.368   4.998   6.575
 6126TIP3    H118335   1.409   5.053   6.642
 6126TIP3    H218336   1.371   4.910   6.611
 6127TIP3   OH218337   7.500   0.104   4.215
 6127TIP3    H118338   7.517   0.191   4.179
 6127TIP3    H218339   7.417   0.112   4.260
 6128TIP3   OH218340   2.689   3.257   1.837
 6128TIP3    H118341   2.609   3.308   1.845
 6128TIP3    H218342   2.744   3.286   1.910
 6129TIP3   OH218343   5.237   4.619   3.011
 6129TIP3    H118344   5.146   4.645   3.026
 6129TIP3    H218345   5.271   4.598   3.098
 6130TIP3   OH218346   5.342   7.694   2.116
 6130TIP3    H118347   5.430   7.727   2.130
 6130TIP3    H218348   5.311   7.742   2.039
 6131TIP3   OH218349   8.186   2.398   4.955
 6131TIP3    H118350   8.192   2.329   4.888
 6131TIP3    H218351   8.178   2.351   5.038
 6132TIP3   OH218352   0.188   2.143   3.645
 6132TIP3    H118353   0.279   2.172   3.633
 6132TIP3    H218354   0.137   2.223   3.643
 6133TIP3   OH218355   5.863   1.712   2.923
 6133TIP3    H118356   5.889   1.620   2.934
 6133TIP3    H218357   5.770   1.713   2.948
 6134TIP3   OH218358   8.077   3.241   3.478
 6134TIP3    H118359   8.118   3.290   3.549
 6134TIP3    H218360   8.014   3.302   3.440
 6135TIP3   OH218361   7.992   6.740   4.443
 6135TIP3    H118362   7.942   6.821   4.456
 6135TIP3    H218363   7.944   6.674   4.494
 6136TIP3   OH218364   7.724   7.384   5.331
 6136TIP3    H118365   7.754   7.326   5.261
 6136TIP3    H218366   7.801   7.396   5.387
 6137TIP3   OH218367   0.921   0.287   3.236
 6137TIP3    H118368   0.959   0.286   3.148
 6137TIP3    H218369   0.989   0.248   3.291
 6138TIP3   OH218370   7.636   4.822   1.526
 6138TIP3    H118371   7.693   4.746   1.530
 6138TIP3    H218372   7.547   4.786   1.532
 6139TIP3   OH218373   3.350   2.418   4.618
 6139TIP3    H118374   3.403   2.493   4.645
 6139TIP3    H218375   3.293   2.401   4.694
 6140TIP3   OH218376   0.877   4.507   2.827
 6140TIP3    H118377   0.895   4.413   2.817
 6140TIP3    H218378   0.940   4.550   2.769
 6141TIP3   OH218379   1.977   3.640   0.227
 6141TIP3    H118380   2.029   3.683   0.294
 6141TIP3    H218381   1.887   3.656   0.252
 6142TIP3   OH218382   2.689   7.343   4.674
 6142TIP3    H118383   2.736   7.263   4.648
 6142TIP3    H218384   2.604   7.311   4.705
 6143TIP3   OH218385   4.046   2.935   0.141
 6143TIP3    H118386   4.044   2.847   0.104
 6143TIP3    H218387   4.084   2.924   0.228
 6144TIP3   OH218388   2.029   1.553   0.770
 6144TIP3    H118389   1.964   1.487   0.797
 6144TIP3    H218390   2.113   1.514   0.795
 6145TIP3   OH218391   1.476   7.198   4.150
 6145TIP3    H118392   1.508   7.264   4.089
 6145TIP3    H218393   1.381   7.211   4.150
 6146TIP3   OH218394   6.878   7.026   5.529
 6146TIP3    H118395   6.888   6.999   5.620
 6146TIP3    H218396   6.965   7.014   5.490
 6147TIP3   OH218397   0.451   6.818   4.931
 6147TIP3    H118398   0.390   6.873   4.882
 6147TIP3    H218399   0.535   6.864   4.925
 6148TIP3   OH218400   5.163   0.359   3.136
 6148TIP3    H118401   5.233   0.422   3.124
 6148TIP3    H218402   5.195   0.299   3.204
 6149TIP3   OH218403   5.587   2.225   3.531
 6149TIP3    H118404   5.585   2.171   3.452
 6149TIP3    H218405   5.503   2.272   3.529
 6150TIP3   OH218406   2.563   4.910   2.204
 6150TIP3    H118407   2.543   4.821   2.174
 6150TIP3    H218408   2.549   4.965   2.128
 6151TIP3   OH218409   2.293   1.558   4.683
 6151TIP3    H118410   2.230   1.629   4.684
 6151TIP3    H218411   2.369   1.592   4.635
 6152TIP3   OH218412   1.577   6.617   2.566
 6152TIP3    H118413   1.632   6.565   2.625
 6152TIP3    H218414   1.632   6.693   2.544
 6153TIP3   OH218415   3.509   5.967   5.274
 6153TIP3    H118416   3.587   6.023   5.268
 6153TIP3    H218417   3.436   6.028   5.283
 6154TIP3   OH218418   4.867   0.546   3.197
 6154TIP3    H118419   4.948   0.513   3.234
 6154TIP3    H218420   4.814   0.468   3.180
 6155TIP3   OH218421   5.236   1.154   1.293
 6155TIP3    H118422   5.164   1.155   1.230
 6155TIP3    H218423   5.201   1.199   1.370
 6156TIP3   OH218424   1.001   6.399   1.354
 6156TIP3    H118425   0.916   6.413   1.395
 6156TIP3    H218426   1.063   6.443   1.412
 6157TIP3   OH218427   3.637   7.086   5.471
 6157TIP3    H118428   3.599   7.052   5.390
 6157TIP3    H218429   3.713   7.030   5.487
 6158TIP3   OH218430   4.988   7.773   5.939
 6158TIP3    H118431   5.021   7.833   5.872
 6158TIP3    H218432   5.034   7.691   5.922
 6159TIP3   OH218433   3.004   6.796   5.114
 6159TIP3    H118434   3.000   6.815   5.208
 6159TIP3    H218435   2.958   6.869   5.073
 6160TIP3   OH218436   2.025   3.331   1.371
 6160TIP3    H118437   2.083   3.255   1.383
 6160TIP3    H218438   1.967   3.329   1.448
 6161TIP3   OH218439   0.322   2.227   4.519
 6161TIP3    H118440   0.377   2.195   4.447
 6161TIP3    H218441   0.384   2.253   4.587
 6162TIP3   OH218442   4.634   4.653   1.273
 6162TIP3    H118443   4.542   4.676   1.288
 6162TIP3    H218444   4.632   4.567   1.231
 6163TIP3   OH218445   5.590   3.432   4.802
 6163TIP3    H118446   5.527   3.449   4.871
 6163TIP3    H218447   5.537   3.416   4.724
 6164TIP3   OH218448   6.583   5.190   2.579
 6164TIP3    H118449   6.655   5.128   2.588
 6164TIP3    H218450   6.595   5.227   2.492
 6165TIP3   OH218451   6.028   0.379   6.239
 6165TIP3    H118452   6.008   0.413   6.326
 6165TIP3    H218453   6.111   0.421   6.215
 6166TIP3   OH218454   2.158   6.629   2.411
 6166TIP3    H118455   2.213   6.706   2.398
 6166TIP3    H218456   2.077   6.648   2.363
 6167TIP3   OH218457   1.200   3.946   6.734
 6167TIP3    H118458   1.206   3.944   6.638
 6167TIP3    H218459   1.154   4.027   6.753
 6168TIP3   OH218460   5.674   5.054   1.939
 6168TIP3    H118461   5.698   4.968   1.974
 6168TIP3    H218462   5.617   5.093   2.005
 6169TIP3   OH218463   0.034   1.105   2.206
 6169TIP3    H118464  -0.014   1.088   2.126
 6169TIP3    H218465   0.081   1.023   2.223
 6170TIP3   OH218466   2.460   1.413   5.413
 6170TIP3    H118467   2.455   1.433   5.506
 6170TIP3    H218468   2.449   1.498   5.369
 6171TIP3   OH218469   2.602   5.405   5.892
 6171TIP3    H118470   2.586   5.499   5.902
 6171TIP3    H218471   2.682   5.389   5.943
 6172TIP3   OH218472   3.463   2.627   5.865
 6172TIP3    H118473   3.427   2.629   5.777
 6172TIP3    H218474   3.552   2.593   5.854
 6173TIP3   OH218475   7.118   0.096   0.693
 6173TIP3    H118476   7.213   0.087   0.705
 6173TIP3    H218477   7.107   0.101   0.598
 6174TIP3   OH218478   1.110   2.011   0.916
 6174TIP3    H118479   1.098   2.089   0.971
 6174TIP3    H218480   1.026   1.964   0.924
 6175TIP3   OH218481   6.484   4.027   4.016
 6175TIP3    H118482   6.568   4.057   4.052
 6175TIP3    H218483   6.419   4.059   4.078
 6176TIP3   OH218484   0.499   5.328   4.366
 6176TIP3    H118485   0.448   5.276   4.304
 6176TIP3    H218486   0.533   5.401   4.314
 6177TIP3   OH218487   4.836   6.251   3.333
 6177TIP3    H118488   4.761   6.269   3.276
 6177TIP3    H218489   4.804   6.271   3.421
 6178TIP3   OH218490   2.552   0.065   6.301
 6178TIP3    H118491   2.456   0.065   6.298
 6178TIP3    H218492   2.574   0.107   6.383
 6179TIP3   OH218493   4.642   3.037   2.155
 6179TIP3    H118494   4.600   3.025   2.240
 6179TIP3    H218495   4.661   3.131   2.151
 6180TIP3   OH218496   1.061   3.848   4.672
 6180TIP3    H118497   0.987   3.789   4.676
 6180TIP3    H218498   1.055   3.900   4.752
 6181TIP3   OH218499   1.294   0.216   2.071
 6181TIP3    H118500   1.280   0.262   2.154
 6181TIP3    H218501   1.353   0.273   2.022
 6182TIP3   OH218502   2.649   4.502   0.913
 6182TIP3    H118503   2.668   4.497   0.819
 6182TIP3    H218504   2.736   4.509   0.954
 6183TIP3   OH218505   5.466   3.557   2.013
 6183TIP3    H118506   5.545   3.543   1.960
 6183TIP3    H218507   5.495   3.544   2.103
 6184TIP3   OH218508   3.007   5.903   3.047
 6184TIP3    H118509   3.074   5.923   3.113
 6184TIP3    H218510   3.050   5.844   2.986
 6185TIP3   OH218511   6.543   2.885   6.652
 6185TIP3    H118512   6.607   2.827   6.610
 6185TIP3    H218513   6.479   2.825   6.690
 6186TIP3   OH218514   4.255   2.612   3.826
 6186TIP3    H118515   4.346   2.594   3.802
 6186TIP3    H218516   4.261   2.682   3.892
 6187TIP3   OH218517   0.679   1.509   4.553
 6187TIP3    H118518   0.673   1.567   4.477
 6187TIP3    H218519   0.589   1.498   4.583
 6188TIP3   OH218520   0.764   1.408   0.828
 6188TIP3    H118521   0.747   1.492   0.784
 6188TIP3    H218522   0.797   1.351   0.759
 6189TIP3   OH218523   5.648   6.218   2.969
 6189TIP3    H118524   5.564   6.221   2.922
 6189TIP3    H218525   5.714   6.236   2.902
 6190TIP3   OH218526   4.758   1.773   1.179
 6190TIP3    H118527   4.850   1.750   1.165
 6190TIP3    H218528   4.710   1.704   1.133
 6191TIP3   OH218529   0.874   0.711   2.516
 6191TIP3    H118530   0.876   0.656   2.595
 6191TIP3    H218531   0.792   0.688   2.472
 6192TIP3   OH218532   4.494   5.508   6.179
 6192TIP3    H118533   4.556   5.492   6.250
 6192TIP3    H218534   4.543   5.558   6.114
 6193TIP3   OH218535   2.932   2.491   0.580
 6193TIP3    H118536   2.945   2.580   0.612
 6193TIP3    H218537   2.870   2.452   0.643
 6194TIP3   OH218538   5.246   3.584   2.506
 6194TIP3    H118539   5.312   3.520   2.531
 6194TIP3    H218540   5.235   3.572   2.412
 6195TIP3   OH218541   2.174   7.450   5.062
 6195TIP3    H118542   2.251   7.397   5.082
 6195TIP3    H218543   2.111   7.426   5.130
 6196TIP3   OH218544   3.480   1.113   2.998
 6196TIP3    H118545   3.534   1.192   2.996
 6196TIP3    H218546   3.418   1.128   3.069
 6197TIP3   OH218547   8.180   2.810   2.026
 6197TIP3    H118548   8.204   2.830   2.117
 6197TIP3    H218549   8.258   2.829   1.975
 6198TIP3   OH218550   6.960   4.051   5.214
 6198TIP3    H118551   6.932   4.007   5.294
 6198TIP3    H218552   6.942   4.143   5.230
 6199TIP3   OH218553   5.319   4.481   5.676
 6199TIP3    H118554   5.227   4.485   5.652
 6199TIP3    H218555   5.345   4.572   5.688
 6200TIP3   OH218556   3.943   0.336   6.116
 6200TIP3    H118557   3.923   0.264   6.055
 6200TIP3    H218558   3.928   0.298   6.203
 6201TIP3   OH218559   5.543   0.824   5.634
 6201TIP3    H118560   5.551   0.821   5.729
 6201TIP3    H218561   5.609   0.889   5.606
 6202TIP3   OH218562   7.665   4.164   6.592
 6202TIP3    H118563   7.619   4.189   6.512
 6202TIP3    H218564   7.670   4.068   6.588
 6203TIP3   OH218565   2.911   1.627   1.896
 6203TIP3    H118566   2.985   1.678   1.930
 6203TIP3    H218567   2.871   1.588   1.974
 6204TIP3   OH218568   3.278   3.592   6.250
 6204TIP3    H118569   3.187   3.577   6.277
 6204TIP3    H218570   3.330   3.563   6.324
 6205TIP3   OH218571   6.148   4.020   3.213
 6205TIP3    H118572   6.122   3.994   3.125
 6205TIP3    H218573   6.238   3.989   3.222
 6206TIP3   OH218574   1.733   3.050   4.003
 6206TIP3    H118575   1.805   3.109   4.025
 6206TIP3    H218576   1.665   3.071   4.067
 6207TIP3   OH218577   6.826   3.422   5.072
 6207TIP3    H118578   6.756   3.455   5.017
 6207TIP3    H218579   6.852   3.339   5.031
 6208TIP3   OH218580   1.883   2.465   4.495
 6208TIP3    H118581   1.929   2.484   4.414
 6208TIP3    H218582   1.802   2.422   4.467
 6209TIP3   OH218583   6.954   2.543   0.389
 6209TIP3    H118584   6.918   2.584   0.310
 6209TIP3    H218585   7.046   2.571   0.391
 6210TIP3   OH218586   6.628   2.420   5.091
 6210TIP3    H118587   6.705   2.365   5.075
 6210TIP3    H218588   6.559   2.358   5.116
 6211TIP3   OH218589   6.646   5.840   3.206
 6211TIP3    H118590   6.589   5.881   3.141
 6211TIP3    H218591   6.685   5.766   3.160
 6212TIP3   OH218592   7.721   4.051   3.755
 6212TIP3    H118593   7.674   4.095   3.685
 6212TIP3    H218594   7.678   4.080   3.836
 6213TIP3   OH218595   2.115   2.619   1.622
 6213TIP3    H118596   2.036   2.657   1.585
 6213TIP3    H218597   2.150   2.564   1.551
 6214TIP3   OH218598   6.186   4.599   3.415
 6214TIP3    H118599   6.112   4.596   3.353
 6214TIP3    H218600   6.201   4.692   3.431
 6215TIP3   OH218601   3.777   5.851   5.781
 6215TIP3    H118602   3.750   5.880   5.868
 6215TIP3    H218603   3.710   5.789   5.754
 6216TIP3   OH218604   3.048   0.429   3.324
 6216TIP3    H118605   3.105   0.415   3.400
 6216TIP3    H218606   3.098   0.394   3.250
 6217TIP3   OH218607   7.921   6.291   5.198
 6217TIP3    H118608   7.921   6.373   5.148
 6217TIP3    H218609   7.990   6.238   5.158
 6218TIP3   OH218610   6.970   5.533   5.431
 6218TIP3    H118611   6.980   5.530   5.526
 6218TIP3    H218612   6.939   5.622   5.413
 6219TIP3   OH218613   0.831   5.539   6.506
 6219TIP3    H118614   0.768   5.495   6.449
 6219TIP3    H218615   0.871   5.469   6.557
 6220TIP3   OH218616   0.118   2.457   2.061
 6220TIP3    H118617   0.067   2.521   2.012
 6220TIP3    H218618   0.101   2.374   2.016
 6221TIP3   OH218619   5.046   3.422   1.876
 6221TIP3    H118620   5.130   3.401   1.915
 6221TIP3    H218621   5.012   3.496   1.927
 6222TIP3   OH218622   2.615   2.754   2.932
 6222TIP3    H118623   2.559   2.708   2.870
 6222TIP3    H218624   2.670   2.811   2.878
 6223TIP3   OH218625   8.158   2.735   1.340
 6223TIP3    H118626   8.100   2.726   1.416
 6223TIP3    H218627   8.169   2.646   1.308
 6224TIP3   OH218628   3.155   3.851   4.351
 6224TIP3    H118629   3.106   3.837   4.270
 6224TIP3    H218630   3.126   3.781   4.409
 6225TIP3   OH218631   2.659   2.016   2.117
 6225TIP3    H118632   2.634   2.108   2.109
 6225TIP3    H218633   2.742   2.018   2.164
 6226TIP3   OH218634   5.671   7.574   2.233
 6226TIP3    H118635   5.659   7.663   2.265
 6226TIP3    H218636   5.764   7.568   2.214
 6227TIP3   OH218637   7.807   4.695   0.924
 6227TIP3    H118638   7.799   4.619   0.982
 6227TIP3    H218639   7.828   4.768   0.983
 6228TIP3   OH218640   3.981   6.662   5.708
 6228TIP3    H118641   4.067   6.688   5.741
 6228TIP3    H218642   3.975   6.569   5.731
 6229TIP3   OH218643   8.280   5.229   0.243
 6229TIP3    H118644   8.297   5.192   0.156
 6229TIP3    H218645   8.272   5.323   0.228
 6230TIP3   OH218646   6.546   4.712   3.219
 6230TIP3    H118647   6.618   4.759   3.261
 6230TIP3    H218648   6.471   4.771   3.225
 6231TIP3   OH218649   0.680   1.846   0.787
 6231TIP3    H118650   0.693   1.813   0.876
 6231TIP3    H218651   0.677   1.768   0.733
 6232TIP3   OH218652   5.269   0.347   1.164
 6232TIP3    H118653   5.184   0.390   1.163
 6232TIP3    H218654   5.300   0.356   1.254
 6233TIP3   OH218655   3.203   6.453   5.424
 6233TIP3    H118656   3.267   6.408   5.480
 6233TIP3    H218657   3.223   6.546   5.435
 6234TIP3   OH218658   7.833   3.669   3.907
 6234TIP3    H118659   7.783   3.732   3.959
 6234TIP3    H218660   7.854   3.599   3.967
 6235TIP3   OH218661   6.974   6.042   0.758
 6235TIP3    H118662   7.060   6.023   0.720
 6235TIP3    H218663   6.952   6.128   0.724
 6236TIP3   OH218664   3.686   2.608   0.343
 6236TIP3    H118665   3.728   2.523   0.327
 6236TIP3    H218666   3.647   2.632   0.259
 6237TIP3   OH218667   1.061   6.534   0.242
 6237TIP3    H118668   1.075   6.440   0.230
 6237TIP3    H218669   1.102   6.554   0.326
 6238TIP3   OH218670   3.626   5.880   3.291
 6238TIP3    H118671   3.558   5.941   3.261
 6238TIP3    H218672   3.686   5.873   3.216
 6239TIP3   OH218673   4.834   7.786   6.160
 6239TIP3    H118674   4.817   7.692   6.154
 6239TIP3    H218675   4.893   7.805   6.087
 6240TIP3   OH218676   7.040   7.146   4.939
 6240TIP3    H118677   7.004   7.173   5.023
 6240TIP3    H218678   7.134   7.143   4.953
 6241TIP3   OH218679   3.964   1.576   6.362
 6241TIP3    H118680   3.929   1.648   6.309
 6241TIP3    H218681   4.018   1.619   6.428
 6242TIP3   OH218682   5.599   1.989   6.325
 6242TIP3    H118683   5.532   1.920   6.322
 6242TIP3    H218684   5.669   1.957   6.269
 6243TIP3   OH218685   3.082   7.548   0.489
 6243TIP3    H118686   3.107   7.476   0.546
 6243TIP3    H218687   2.991   7.530   0.466
 6244TIP3   OH218688   3.940   0.859   5.777
 6244TIP3    H118689   3.953   0.888   5.867
 6244TIP3    H218690   4.012   0.899   5.728
 6245TIP3   OH218691   3.981   6.374   5.845
 6245TIP3    H118692   3.949   6.284   5.843
 6245TIP3    H218693   4.064   6.372   5.797
 6246TIP3   OH218694   3.981   1.041   3.850
 6246TIP3    H118695   3.980   0.980   3.923
 6246TIP3    H218696   4.067   1.029   3.809
 6247TIP3   OH218697   5.763   0.750   3.364
 6247TIP3    H118698   5.748   0.844   3.378
 6247TIP3    H218699   5.841   0.731   3.417
 6248TIP3   OH218700   4.080   3.668   0.737
 6248TIP3    H118701   4.138   3.706   0.672
 6248TIP3    H218702   4.138   3.622   0.797
 6249TIP3   OH218703   2.767   5.932   3.195
 6249TIP3    H118704   2.725   6.010   3.160
 6249TIP3    H218705   2.844   5.918   3.140
 6250TIP3   OH218706   0.801   2.268   3.396
 6250TIP3    H118707   0.842   2.242   3.314
 6250TIP3    H218708   0.708   2.248   3.383
 6251TIP3   OH218709   1.822   0.102   1.395
 6251TIP3    H118710   1.784   0.104   1.483
 6251TIP3    H218711   1.915   0.087   1.409
 6252TIP3   OH218712   7.273   5.764   2.127
 6252TIP3    H118713   7.259   5.783   2.220
 6252TIP3    H218714   7.360   5.800   2.108
 6253TIP3   OH218715   1.643   4.114   3.685
 6253TIP3    H118716   1.718   4.167   3.660
 6253TIP3    H218717   1.659   4.028   3.647
 6254TIP3   OH218718   6.442   1.201   0.350
 6254TIP3    H118719   6.418   1.254   0.426
 6254TIP3    H218720   6.434   1.260   0.275
 6255TIP3   OH218721   1.302   5.558   1.183
 6255TIP3    H118722   1.270   5.643   1.213
 6255TIP3    H218723   1.270   5.551   1.093
 6256TIP3   OH218724   2.554   0.618   1.938
 6256TIP3    H118725   2.476   0.620   1.994
 6256TIP3    H218726   2.542   0.693   1.879
 6257TIP3   OH218727   0.571   7.259   5.665
 6257TIP3    H118728   0.518   7.181   5.681
 6257TIP3    H218729   0.521   7.331   5.705
 6258TIP3   OH218730   6.264   1.835   0.459
 6258TIP3    H118731   6.327   1.854   0.528
 6258TIP3    H218732   6.181   1.824   0.505
 6259TIP3   OH218733   4.297   4.086   6.054
 6259TIP3    H118734   4.235   4.029   6.100
 6259TIP3    H218735   4.243   4.137   5.993
 6260TIP3   OH218736   3.276   5.360   3.352
 6260TIP3    H118737   3.265   5.328   3.263
 6260TIP3    H218738   3.187   5.385   3.380
 6261TIP3   OH218739   3.075   4.540   4.232
 6261TIP3    H118740   2.995   4.517   4.279
 6261TIP3    H218741   3.077   4.482   4.156
 6262TIP3   OH218742   7.550   6.690   1.742
 6262TIP3    H118743   7.476   6.632   1.729
 6262TIP3    H218744   7.514   6.765   1.790
 6263TIP3   OH218745   0.383   3.858   0.616
 6263TIP3    H118746   0.407   3.881   0.526
 6263TIP3    H218747   0.312   3.794   0.606
 6264TIP3   OH218748   7.260   7.313   5.184
 6264TIP3    H118749   7.342   7.328   5.137
 6264TIP3    H218750   7.280   7.333   5.276
 6265TIP3   OH218751   7.438   4.200   2.168
 6265TIP3    H118752   7.461   4.194   2.075
 6265TIP3    H218753   7.486   4.128   2.209
 6266TIP3   OH218754   4.401   4.086   4.227
 6266TIP3    H118755   4.366   4.008   4.270
 6266TIP3    H218756   4.475   4.112   4.281
 6267TIP3   OH218757   6.838   0.509   1.161
 6267TIP3    H118758   6.932   0.523   1.147
 6267TIP3    H218759   6.821   0.424   1.119
 6268TIP3   OH218760   2.332   5.732   6.747
 6268TIP3    H118761   2.253   5.783   6.732
 6268TIP3    H218762   2.403   5.795   6.741
 6269TIP3   OH218763   7.015   7.815   0.767
 6269TIP3    H118764   7.023   7.840   0.859
 6269TIP3    H218765   6.921   7.817   0.749
 6270TIP3   OH218766   2.132   7.259   0.879
 6270TIP3    H118767   2.109   7.167   0.888
 6270TIP3    H218768   2.065   7.306   0.929
 6271TIP3   OH218769   8.245   4.761   0.530
 6271TIP3    H118770   8.186   4.766   0.605
 6271TIP3    H218771   8.222   4.836   0.475
 6272TIP3   OH218772   6.363   0.766   4.870
 6272TIP3    H118773   6.421   0.833   4.833
 6272TIP3    H218774   6.407   0.736   4.949
 6273TIP3   OH218775   5.693   7.441   5.985
 6273TIP3    H118776   5.631   7.451   6.057
 6273TIP3    H218777   5.644   7.466   5.907
 6274TIP3   OH218778   1.337   0.637   5.874
 6274TIP3    H118779   1.376   0.723   5.859
 6274TIP3    H218780   1.259   0.637   5.818
 6275TIP3   OH218781   7.568   5.663   3.150
 6275TIP3    H118782   7.575   5.585   3.094
 6275TIP3    H218783   7.474   5.683   3.150
 6276TIP3   OH218784   5.639   6.489   5.893
 6276TIP3    H118785   5.648   6.506   5.987
 6276TIP3    H218786   5.729   6.495   5.860
 6277TIP3   OH218787   5.140   3.441   3.392
 6277TIP3    H118788   5.214   3.498   3.369
 6277TIP3    H218789   5.080   3.450   3.318
 6278TIP3   OH218790   3.221   4.490   3.915
 6278TIP3    H118791   3.134   4.513   3.884
 6278TIP3    H218792   3.262   4.574   3.936
 6279TIP3   OH218793   5.044   5.798   0.850
 6279TIP3    H118794   5.045   5.739   0.774
 6279TIP3    H218795   5.057   5.885   0.812
 6280TIP3   OH218796   4.268   4.200   1.404
 6280TIP3    H118797   4.249   4.110   1.430
 6280TIP3    H218798   4.196   4.251   1.442
 6281TIP3   OH218799   0.199   1.882   5.157
 6281TIP3    H118800   0.212   1.904   5.065
 6281TIP3    H218801   0.281   1.908   5.199
 6282TIP3   OH218802   7.081   4.086   5.676
 6282TIP3    H118803   7.033   4.004   5.690
 6282TIP3    H218804   7.120   4.075   5.589
 6283TIP3   OH218805   7.309   7.516   2.443
 6283TIP3    H118806   7.214   7.526   2.442
 6283TIP3    H218807   7.336   7.562   2.522
 6284TIP3   OH218808   8.258   0.372   3.287
 6284TIP3    H118809   8.336   0.324   3.315
 6284TIP3    H218810   8.253   0.446   3.347
 6285TIP3   OH218811   3.150   4.359   4.957
 6285TIP3    H118812   3.085   4.342   5.025
 6285TIP3    H218813   3.192   4.274   4.943
 6286TIP3   OH218814   7.117   1.256   2.148
 6286TIP3    H118815   7.119   1.204   2.229
 6286TIP3    H218816   7.033   1.301   2.150
 6287TIP3   OH218817   7.890   5.995   6.682
 6287TIP3    H118818   7.954   5.998   6.754
 6287TIP3    H218819   7.907   6.075   6.632
 6288TIP3   OH218820   2.406   2.412   6.459
 6288TIP3    H118821   2.451   2.436   6.378
 6288TIP3    H218822   2.449   2.465   6.526
 6289TIP3   OH218823   2.365   6.550   0.120
 6289TIP3    H118824   2.428   6.479   0.105
 6289TIP3    H218825   2.406   6.627   0.082
 6290TIP3   OH218826   7.979   2.519   3.133
 6290TIP3    H118827   8.035   2.570   3.075
 6290TIP3    H218828   7.917   2.582   3.169
 6291TIP3   OH218829   4.355   7.287   5.215
 6291TIP3    H118830   4.393   7.366   5.177
 6291TIP3    H218831   4.283   7.265   5.156
 6292TIP3   OH218832   3.640   0.690   5.788
 6292TIP3    H118833   3.718   0.635   5.786
 6292TIP3    H218834   3.597   0.673   5.704
 6293TIP3   OH218835   2.349   5.246   1.317
 6293TIP3    H118836   2.394   5.330   1.312
 6293TIP3    H218837   2.418   5.182   1.335
 6294TIP3   OH218838   4.607   2.208   2.290
 6294TIP3    H118839   4.700   2.191   2.308
 6294TIP3    H218840   4.561   2.149   2.350
 6295TIP3   OH218841   8.064   4.499   2.259
 6295TIP3    H118842   8.155   4.526   2.269
 6295TIP3    H218843   8.028   4.505   2.348
 6296TIP3   OH218844   4.058   7.488   4.951
 6296TIP3    H118845   3.980   7.503   4.898
 6296TIP3    H218846   4.109   7.425   4.901
 6297TIP3   OH218847   7.714   2.563   5.960
 6297TIP3    H118848   7.745   2.653   5.947
 6297TIP3    H218849   7.620   2.571   5.973
 6298TIP3   OH218850   4.380   5.974   1.273
 6298TIP3    H118851   4.322   6.012   1.208
 6298TIP3    H218852   4.460   5.953   1.224
 6299TIP3   OH218853   5.731   2.332   1.534
 6299TIP3    H118854   5.660   2.273   1.559
 6299TIP3    H218855   5.799   2.318   1.601
 6300TIP3   OH218856   5.226   0.802   5.006
 6300TIP3    H118857   5.215   0.889   5.046
 6300TIP3    H218858   5.201   0.814   4.915
 6301TIP3   OH218859   3.010   0.521   1.237
 6301TIP3    H118860   3.095   0.476   1.237
 6301TIP3    H218861   2.947   0.454   1.264
 6302TIP3   OH218862   4.377   2.879   5.020
 6302TIP3    H118863   4.344   2.894   4.931
 6302TIP3    H218864   4.428   2.798   5.013
 6303TIP3   OH218865   8.321   3.899   4.791
 6303TIP3    H118866   8.414   3.888   4.807
 6303TIP3    H218867   8.312   3.895   4.696
 6304TIP3   OH218868   0.560   3.169   1.601
 6304TIP3    H118869   0.495   3.116   1.555
 6304TIP3    H218870   0.600   3.224   1.533
 6305TIP3   OH218871   5.398   0.593   1.519
 6305TIP3    H118872   5.338   0.664   1.494
 6305TIP3    H218873   5.484   0.624   1.490
 6306TIP3   OH218874   6.792   1.149   4.874
 6306TIP3    H118875   6.865   1.210   4.864
 6306TIP3    H218876   6.809   1.082   4.808
 6307TIP3   OH218877   5.896   5.826   5.295
 6307TIP3    H118878   5.808   5.814   5.331
 6307TIP3    H218879   5.939   5.885   5.357
 6308TIP3   OH218880   4.679   2.694   0.787
 6308TIP3    H118881   4.588   2.671   0.770
 6308TIP3    H218882   4.719   2.699   0.700
 6309TIP3   OH218883   1.956   1.440   5.989
 6309TIP3    H118884   1.953   1.535   5.986
 6309TIP3    H218885   1.931   1.412   5.901
 6310TIP3   OH218886   7.786   5.410   0.277
 6310TIP3    H118887   7.788   5.336   0.217
 6310TIP3    H218888   7.722   5.471   0.238
 6311TIP3   OH218889   2.704   3.437   3.674
 6311TIP3    H118890   2.767   3.507   3.691
 6311TIP3    H218891   2.685   3.444   3.581
 6312TIP3   OH218892   4.403   3.619   5.900
 6312TIP3    H118893   4.368   3.660   5.979
 6312TIP3    H218894   4.329   3.616   5.839
 6313TIP3   OH218895   1.289   0.435   5.230
 6313TIP3    H118896   1.205   0.456   5.269
 6313TIP3    H218897   1.343   0.403   5.302
 6314TIP3   OH218898   6.079   4.556   5.137
 6314TIP3    H118899   6.088   4.625   5.202
 6314TIP3    H218900   5.994   4.573   5.095
 6315TIP3   OH218901   2.782   5.179   3.591
 6315TIP3    H118902   2.722   5.128   3.645
 6315TIP3    H218903   2.831   5.113   3.540
 6316TIP3   OH218904   7.826   4.746   5.089
 6316TIP3    H118905   7.890   4.780   5.026
 6316TIP3    H218906   7.880   4.706   5.157
 6317TIP3   OH218907   7.480   4.290   4.914
 6317TIP3    H118908   7.540   4.230   4.869
 6317TIP3    H218909   7.470   4.364   4.855
 6318TIP3   OH218910   4.880   6.485   0.432
 6318TIP3    H118911   4.807   6.493   0.493
 6318TIP3    H218912   4.956   6.470   0.488
 6319TIP3   OH218913   1.986   2.919   5.168
 6319TIP3    H118914   1.948   2.859   5.232
 6319TIP3    H218915   2.077   2.892   5.160
 6320TIP3   OH218916   0.076   4.238   2.094
 6320TIP3    H118917   0.011   4.302   2.069
 6320TIP3    H218918   0.072   4.235   2.190
 6321TIP3   OH218919   2.753   1.798   2.666
 6321TIP3    H118920   2.711   1.723   2.624
 6321TIP3    H218921   2.758   1.774   2.759
 6322TIP3   OH218922   7.280   6.122   0.767
 6322TIP3    H118923   7.337   6.061   0.816
 6322TIP3    H218924   7.204   6.134   0.824
 6323TIP3   OH218925   4.542   1.761   2.007
 6323TIP3    H118926   4.535   1.851   1.975
 6323TIP3    H218927   4.524   1.707   1.931
 6324TIP3   OH218928   3.749   1.925   5.584
 6324TIP3    H118929   3.655   1.926   5.603
 6324TIP3    H218930   3.787   1.873   5.655
 6325TIP3   OH218931   8.278   2.203   5.114
 6325TIP3    H118932   8.325   2.229   5.035
 6325TIP3    H218933   8.340   2.219   5.185
 6326TIP3   OH218934   7.110   2.916   2.787
 6326TIP3    H118935   7.040   2.938   2.725
 6326TIP3    H218936   7.184   2.972   2.760
 6327TIP3   OH218937   4.512   1.685   0.401
 6327TIP3    H118938   4.542   1.749   0.336
 6327TIP3    H218939   4.582   1.619   0.403
 6328TIP3   OH218940   0.120   4.475   0.384
 6328TIP3    H118941   0.127   4.404   0.449
 6328TIP3    H218942   0.176   4.544   0.418
 6329TIP3   OH218943   5.795   0.273   1.904
 6329TIP3    H118944   5.826   0.231   1.824
 6329TIP3    H218945   5.802   0.367   1.886
 6330TIP3   OH218946   0.670   0.551   4.839
 6330TIP3    H118947   0.709   0.638   4.834
 6330TIP3    H218948   0.742   0.493   4.866
 6331TIP3   OH218949   8.214   7.551   5.597
 6331TIP3    H118950   8.231   7.645   5.599
 6331TIP3    H218951   8.288   7.511   5.641
 6332TIP3   OH218952   4.218   3.138   1.276
 6332TIP3    H118953   4.234   3.115   1.184
 6332TIP3    H218954   4.211   3.053   1.320
 6333TIP3   OH218955   5.657   5.788   3.953
 6333TIP3    H118956   5.624   5.877   3.948
 6333TIP3    H218957   5.592   5.735   3.907
 6334TIP3   OH218958   0.305   0.376   3.213
 6334TIP3    H118959   0.388   0.395   3.258
 6334TIP3    H218960   0.276   0.293   3.250
 6335TIP3   OH218961   7.265   2.179   0.180
 6335TIP3    H118962   7.330   2.170   0.250
 6335TIP3    H218963   7.289   2.111   0.117
 6336TIP3   OH218964   0.403   1.109   3.450
 6336TIP3    H118965   0.428   1.155   3.370
 6336TIP3    H218966   0.478   1.053   3.470
 6337TIP3   OH218967   2.639   5.971   2.193
 6337TIP3    H118968   2.699   6.006   2.259
 6337TIP3    H218969   2.552   5.981   2.233
 6338TIP3   OH218970   3.293   1.060   0.271
 6338TIP3    H118971   3.223   1.041   0.334
 6338TIP3    H218972   3.350   1.121   0.318
 6339TIP3   OH218973   7.774   5.391   3.635
 6339TIP3    H118974   7.826   5.343   3.571
 6339TIP3    H218975   7.824   5.388   3.716
 6340TIP3   OH218976   1.423   0.423   0.526
 6340TIP3    H118977   1.350   0.395   0.470
 6340TIP3    H218978   1.461   0.342   0.558
 6341TIP3   OH218979   1.801   3.088   1.244
 6341TIP3    H118980   1.808   3.099   1.338
 6341TIP3    H218981   1.892   3.087   1.213
 6342TIP3   OH218982   2.677   5.022   0.474
 6342TIP3    H118983   2.737   4.950   0.493
 6342TIP3    H218984   2.734   5.095   0.451
 6343TIP3   OH218985   3.274   2.020   1.689
 6343TIP3    H118986   3.339   2.005   1.620
 6343TIP3    H218987   3.191   1.996   1.649
 6344TIP3   OH218988   4.953   2.433   5.928
 6344TIP3    H118989   5.047   2.423   5.940
 6344TIP3    H218990   4.915   2.403   6.011
 6345TIP3   OH218991   5.303   5.051   5.949
 6345TIP3    H118992   5.223   5.070   5.998
 6345TIP3    H218993   5.359   5.004   6.012
 6346TIP3   OH218994   4.906   4.835   4.108
 6346TIP3    H118995   4.988   4.872   4.075
 6346TIP3    H218996   4.841   4.857   4.042
 6347TIP3   OH218997   1.633   0.882   5.087
 6347TIP3    H118998   1.613   0.958   5.033
 6347TIP3    H218999   1.645   0.917   5.175
 6348TIP3   OH219000   1.126   0.932   0.902
 6348TIP3    H119001   1.127   1.025   0.879
 6348TIP3    H219002   1.182   0.926   0.980
 6349TIP3   OH219003   8.182   2.893   2.331
 6349TIP3    H119004   8.217   2.880   2.419
 6349TIP3    H219005   8.103   2.839   2.329
 6350TIP3   OH219006   0.508   4.578   6.658
 6350TIP3    H119007   0.443   4.559   6.726
 6350TIP3    H219008   0.497   4.509   6.593
 6351TIP3   OH219009   2.209   6.561   3.915
 6351TIP3    H119010   2.136   6.511   3.951
 6351TIP3    H219011   2.236   6.620   3.985
 6352TIP3   OH219012   1.436   4.050   3.497
 6352TIP3    H119013   1.396   4.137   3.499
 6352TIP3    H219014   1.367   3.991   3.527
 6353TIP3   OH219015   7.449   0.909   5.899
 6353TIP3    H119016   7.464   0.927   5.806
 6353TIP3    H219017   7.354   0.901   5.907
 6354TIP3   OH219018   6.219   6.707   4.986
 6354TIP3    H119019   6.249   6.630   5.034
 6354TIP3    H219020   6.178   6.672   4.907
 6355TIP3   OH219021   5.234   7.724   0.777
 6355TIP3    H119022   5.329   7.729   0.784
 6355TIP3    H219023   5.209   7.801   0.726
 6356TIP3   OH219024   3.989   3.217   5.753
 6356TIP3    H119025   3.995   3.215   5.658
 6356TIP3    H219026   3.911   3.165   5.773
 6357TIP3   OH219027   1.128   4.987   0.561
 6357TIP3    H119028   1.205   5.037   0.533
 6357TIP3    H219029   1.063   5.054   0.583
 6358TIP3   OH219030   1.749   0.480   6.230
 6358TIP3    H119031   1.670   0.466   6.177
 6358TIP3    H219032   1.820   0.476   6.166
 6359TIP3   OH219033   4.319   7.205   5.977
 6359TIP3    H119034   4.308   7.182   5.885
 6359TIP3    H219035   4.388   7.146   6.008
 6360TIP3   OH219036   6.255   7.347   5.351
 6360TIP3    H119037   6.264   7.414   5.418
 6360TIP3    H219038   6.333   7.358   5.296
 6361TIP3   OH219039   4.438   0.681   4.144
 6361TIP3    H119040   4.480   0.735   4.212
 6361TIP3    H219041   4.511   0.634   4.104
 6362TIP3   OH219042   1.156   4.525   4.745
 6362TIP3    H119043   1.080   4.546   4.691
 6362TIP3    H219044   1.222   4.590   4.722
 6363TIP3   OH219045   3.101   5.015   6.378
 6363TIP3    H119046   3.134   4.926   6.376
 6363TIP3    H219047   3.007   5.006   6.362
 6364TIP3   OH219048   2.421   3.209   6.379
 6364TIP3    H119049   2.439   3.246   6.465
 6364TIP3    H219050   2.358   3.268   6.339
 6365TIP3   OH219051   7.669   2.093   1.416
 6365TIP3    H119052   7.632   2.017   1.372
 6365TIP3    H219053   7.673   2.067   1.509
 6366TIP3   OH219054   7.905   1.767   5.649
 6366TIP3    H119055   7.985   1.805   5.612
 6366TIP3    H219056   7.920   1.672   5.646
 6367TIP3   OH219057   5.233   2.541   2.671
 6367TIP3    H119058   5.163   2.596   2.637
 6367TIP3    H219059   5.272   2.592   2.742
 6368TIP3   OH219060   5.448   5.452   2.841
 6368TIP3    H119061   5.401   5.521   2.888
 6368TIP3    H219062   5.393   5.433   2.765
 6369TIP3   OH219063   5.385   6.152   2.165
 6369TIP3    H119064   5.301   6.188   2.193
 6369TIP3    H219065   5.364   6.098   2.089
 6370TIP3   OH219066   2.040   6.567   6.064
 6370TIP3    H119067   2.086   6.649   6.079
 6370TIP3    H219068   2.017   6.569   5.971
 6371TIP3   OH219069   1.909   4.591   6.532
 6371TIP3    H119070   1.983   4.650   6.518
 6371TIP3    H219071   1.932   4.543   6.612
 6372TIP3   OH219072   2.721   2.363   2.801
 6372TIP3    H119073   2.761   2.280   2.776
 6372TIP3    H219074   2.794   2.425   2.803
 6373TIP3   OH219075   7.630   3.684   5.258
 6373TIP3    H119076   7.713   3.701   5.212
 6373TIP3    H219077   7.566   3.671   5.188
 6374TIP3   OH219078   4.249   0.707   3.937
 6374TIP3    H119079   4.224   0.628   3.889
 6374TIP3    H219080   4.334   0.685   3.976
 6375TIP3   OH219081   4.036   4.187   4.591
 6375TIP3    H119082   4.024   4.212   4.683
 6375TIP3    H219083   4.117   4.136   4.591
 6376TIP3   OH219084   6.129   6.583   6.108
 6376TIP3    H119085   6.081   6.502   6.127
 6376TIP3    H219086   6.146   6.579   6.014
 6377TIP3   OH219087   3.477   6.407   5.460
 6377TIP3    H119088   3.526   6.337   5.417
 6377TIP3    H219089   3.540   6.450   5.517
 6378TIP3   OH219090   0.416   3.519   0.763
 6378TIP3    H119091   0.428   3.520   0.858
 6378TIP3    H219092   0.362   3.442   0.745
 6379TIP3   OH219093   2.395   7.748   1.602
 6379TIP3    H119094   2.387   7.719   1.693
 6379TIP3    H219095   2.379   7.842   1.606
 6380TIP3   OH219096   5.576   1.909   3.601
 6380TIP3    H119097   5.659   1.940   3.564
 6380TIP3    H219098   5.526   1.989   3.615
 6381TIP3   OH219099   7.112   4.795   1.325
 6381TIP3    H119100   7.125   4.864   1.390
 6381TIP3    H219101   7.152   4.829   1.245
 6382TIP3   OH219102   0.283   2.797   4.842
 6382TIP3    H119103   0.350   2.730   4.833
 6382TIP3    H219104   0.202   2.754   4.816
 6383TIP3   OH219105   2.188   3.035   2.482
 6383TIP3    H119106   2.206   3.040   2.576
 6383TIP3    H219107   2.143   2.952   2.471
 6384TIP3   OH219108   6.022   5.033   4.764
 6384TIP3    H119109   5.978   4.949   4.755
 6384TIP3    H219110   5.968   5.095   4.715
 6385TIP3   OH219111   3.574   5.971   6.612
 6385TIP3    H119112   3.479   5.972   6.598
 6385TIP3    H219113   3.607   6.038   6.553
 6386TIP3   OH219114   6.838   5.972   2.761
 6386TIP3    H119115   6.847   5.927   2.677
 6386TIP3    H219116   6.921   6.018   2.773
 6387TIP3   OH219117   1.392   0.351   4.165
 6387TIP3    H119118   1.438   0.302   4.234
 6387TIP3    H219119   1.317   0.390   4.210
 6388TIP3   OH219120   6.572   3.249   3.366
 6388TIP3    H119121   6.481   3.280   3.361
 6388TIP3    H219122   6.608   3.295   3.442
 6389TIP3   OH219123   5.786   7.827   1.176
 6389TIP3    H119124   5.874   7.846   1.142
 6389TIP3    H219125   5.802   7.778   1.257
 6390TIP3   OH219126   7.979   4.491   4.083
 6390TIP3    H119127   7.989   4.444   4.166
 6390TIP3    H219128   8.055   4.463   4.031
 6391TIP3   OH219129   0.674   0.329   2.850
 6391TIP3    H119130   0.693   0.314   2.942
 6391TIP3    H219131   0.621   0.409   2.849
 6392TIP3   OH219132   0.805   1.907   6.702
 6392TIP3    H119133   0.827   1.997   6.728
 6392TIP3    H219134   0.806   1.908   6.607
 6393TIP3   OH219135   3.420   6.472   3.241
 6393TIP3    H119136   3.328   6.473   3.265
 6393TIP3    H219137   3.424   6.417   3.162
 6394TIP3   OH219138   5.099   0.682   1.743
 6394TIP3    H119139   5.026   0.744   1.751
 6394TIP3    H219140   5.084   0.639   1.659
 6395TIP3   OH219141   7.229   0.658   5.714
 6395TIP3    H119142   7.249   0.745   5.750
 6395TIP3    H219143   7.231   0.670   5.619
 6396TIP3   OH219144   6.187   1.455   1.929
 6396TIP3    H119145   6.115   1.406   1.968
 6396TIP3    H219146   6.223   1.396   1.863
 6397TIP3   OH219147   6.815   3.310   1.915
 6397TIP3    H119148   6.898   3.291   1.959
 6397TIP3    H219149   6.781   3.224   1.889
 6398TIP3   OH219150   5.495   2.487   5.551
 6398TIP3    H119151   5.575   2.517   5.509
 6398TIP3    H219152   5.506   2.392   5.559
 6399TIP3   OH219153   2.774   6.498   0.895
 6399TIP3    H119154   2.818   6.576   0.860
 6399TIP3    H219155   2.767   6.516   0.989
 6400TIP3   OH219156   3.702   4.803   0.207
 6400TIP3    H119157   3.658   4.730   0.163
 6400TIP3    H219158   3.636   4.871   0.213
 6401TIP3   OH219159   6.339   5.264   0.784
 6401TIP3    H119160   6.253   5.243   0.748
 6401TIP3    H219161   6.367   5.342   0.737
 6402TIP3   OH219162   6.964   4.042   4.400
 6402TIP3    H119163   7.010   3.969   4.360
 6402TIP3    H219164   6.944   4.101   4.327
 6403TIP3   OH219165   3.362   7.489   1.432
 6403TIP3    H119166   3.271   7.479   1.461
 6403TIP3    H219167   3.379   7.412   1.378
 6404TIP3   OH219168   7.051   6.402   4.802
 6404TIP3    H119169   7.126   6.397   4.861
 6404TIP3    H219170   6.975   6.403   4.860
 6405TIP3   OH219171   3.734   5.459   5.886
 6405TIP3    H119172   3.691   5.544   5.892
 6405TIP3    H219173   3.728   5.422   5.974
 6406TIP3   OH219174   1.631   1.029   5.301
 6406TIP3    H119175   1.673   1.091   5.361
 6406TIP3    H219176   1.539   1.056   5.300
 6407TIP3   OH219177   4.619   3.722   0.328
 6407TIP3    H119178   4.698   3.721   0.382
 6407TIP3    H219179   4.648   3.753   0.243
 6408TIP3   OH219180   4.347   0.060   4.428
 6408TIP3    H119181   4.348   0.019   4.515
 6408TIP3    H219182   4.281   0.129   4.435
 6409TIP3   OH219183   6.492   1.717   3.782
 6409TIP3    H119184   6.438   1.793   3.766
 6409TIP3    H219185   6.582   1.748   3.767
 6410TIP3   OH219186   5.231   0.156   6.495
 6410TIP3    H119187   5.213   0.138   6.587
 6410TIP3    H219188   5.146   0.175   6.457
 6411TIP3   OH219189   7.037   3.532   1.285
 6411TIP3    H119190   7.092   3.455   1.294
 6411TIP3    H219191   7.060   3.568   1.199
 6412TIP3   OH219192   6.331   3.311   0.745
 6412TIP3    H119193   6.390   3.268   0.806
 6412TIP3    H219194   6.311   3.245   0.678
 6413TIP3   OH219195   5.442   0.435   5.213
 6413TIP3    H119196   5.366   0.445   5.271
 6413TIP3    H219197   5.496   0.511   5.231
 6414TIP3   OH219198   7.342   6.504   0.192
 6414TIP3    H119199   7.352   6.516   0.098
 6414TIP3    H219200   7.284   6.427   0.200
 6415TIP3   OH219201   7.388   7.789   3.790
 6415TIP3    H119202   7.467   7.837   3.767
 6415TIP3    H219203   7.419   7.704   3.819
 6416TIP3   OH219204   2.042   5.602   5.750
 6416TIP3    H119205   2.101   5.678   5.747
 6416TIP3    H219206   2.100   5.528   5.770
 6417TIP3   OH219207   2.933   3.345   1.528
 6417TIP3    H119208   2.974   3.334   1.614
 6417TIP3    H219209   2.976   3.279   1.473
 6418TIP3   OH219210   7.123   4.528   1.361
 6418TIP3    H119211   7.176   4.494   1.289
 6418TIP3    H219212   7.123   4.622   1.349
 6419TIP3   OH219213   2.726   5.993   2.716
 6419TIP3    H119214   2.715   6.059   2.785
 6419TIP3    H219215   2.637   5.962   2.699
 6420TIP3   OH219216   5.487   7.421   4.255
 6420TIP3    H119217   5.419   7.474   4.214
 6420TIP3    H219218   5.557   7.483   4.276
 6421TIP3   OH219219   3.431   1.091   5.116
 6421TIP3    H119220   3.520   1.075   5.085
 6421TIP3    H219221   3.375   1.042   5.056
 6422TIP3   OH219222   6.643   4.642   0.959
 6422TIP3    H119223   6.722   4.682   0.922
 6422TIP3    H219224   6.579   4.713   0.962
 6423TIP3   OH219225   5.313   4.062   5.453
 6423TIP3    H119226   5.371   4.085   5.525
 6423TIP3    H219227   5.359   4.092   5.374
 6424TIP3   OH219228   1.459   2.978   6.519
 6424TIP3    H119229   1.497   2.909   6.466
 6424TIP3    H219230   1.377   3.001   6.474
 6425TIP3   OH219231   6.408   7.012   0.989
 6425TIP3    H119232   6.351   6.951   0.943
 6425TIP3    H219233   6.350   7.082   1.018
 6426TIP3   OH219234   4.672   6.030   4.125
 6426TIP3    H119235   4.708   6.117   4.106
 6426TIP3    H219236   4.582   6.047   4.152
 6427TIP3   OH219237   2.460   6.185   4.293
 6427TIP3    H119238   2.491   6.097   4.272
 6427TIP3    H219239   2.435   6.222   4.209
 6428TIP3   OH219240   0.322   7.460   1.901
 6428TIP3    H119241   0.413   7.484   1.920
 6428TIP3    H219242   0.329   7.377   1.854
 6429TIP3   OH219243   3.359   4.169   2.812
 6429TIP3    H119244   3.300   4.236   2.845
 6429TIP3    H219245   3.320   4.086   2.842
 6430TIP3   OH219246   6.426   3.317   5.463
 6430TIP3    H119247   6.432   3.233   5.509
 6430TIP3    H219248   6.347   3.310   5.409
 6431TIP3   OH219249   6.968   1.030   6.511
 6431TIP3    H119250   6.991   1.056   6.422
 6431TIP3    H219251   6.912   0.953   6.500
 6432TIP3   OH219252   0.472   7.224   4.051
 6432TIP3    H119253   0.453   7.284   4.124
 6432TIP3    H219254   0.407   7.246   3.985
 6433TIP3   OH219255   0.819   5.694   0.675
 6433TIP3    H119256   0.784   5.650   0.752
 6433TIP3    H219257   0.856   5.624   0.621
 6434TIP3   OH219258   6.847   5.587   2.837
 6434TIP3    H119259   6.788   5.587   2.912
 6434TIP3    H219260   6.804   5.532   2.773
 6435TIP3   OH219261   5.677   7.132   2.137
 6435TIP3    H119262   5.714   7.179   2.212
 6435TIP3    H219263   5.674   7.041   2.166
 6436TIP3   OH219264   7.863   3.904   6.226
 6436TIP3    H119265   7.774   3.939   6.228
 6436TIP3    H219266   7.891   3.904   6.317
 6437TIP3   OH219267   8.128   1.873   5.565
 6437TIP3    H119268   8.102   1.950   5.514
 6437TIP3    H219269   8.184   1.823   5.506
 6438TIP3   OH219270   2.396   1.235   1.883
 6438TIP3    H119271   2.440   1.313   1.917
 6438TIP3    H219272   2.303   1.255   1.893
 6439TIP3   OH219273   1.223   0.277   0.059
 6439TIP3    H119274   1.174   0.335   0.117
 6439TIP3    H219275   1.267   0.215   0.118
 6440TIP3   OH219276   3.372   3.902   1.917
 6440TIP3    H119277   3.319   3.830   1.951
 6440TIP3    H219278   3.462   3.875   1.933
 6441TIP3   OH219279   6.381   4.571   5.085
 6441TIP3    H119280   6.377   4.662   5.114
 6441TIP3    H219281   6.445   4.571   5.014
 6442TIP3   OH219282   2.955   3.521   0.428
 6442TIP3    H119283   2.978   3.499   0.337
 6442TIP3    H219284   2.994   3.451   0.480
 6443TIP3   OH219285   7.866   0.168   0.228
 6443TIP3    H119286   7.908   0.088   0.260
 6443TIP3    H219287   7.885   0.233   0.296
 6444TIP3   OH219288   0.443   3.062   5.115
 6444TIP3    H119289   0.464   3.095   5.202
 6444TIP3    H219290   0.447   3.139   5.058
 6445TIP3   OH219291   6.798   3.286   6.568
 6445TIP3    H119292   6.712   3.244   6.576
 6445TIP3    H219293   6.857   3.229   6.617
 6446TIP3   OH219294   5.233   2.301   6.596
 6446TIP3    H119295   5.185   2.321   6.515
 6446TIP3    H219296   5.315   2.349   6.588
 6447TIP3   OH219297   4.445   4.334   4.732
 6447TIP3    H119298   4.470   4.417   4.692
 6447TIP3    H219299   4.368   4.354   4.785
 6448TIP3   OH219300   4.251   1.452   5.919
 6448TIP3    H119301   4.224   1.478   6.008
 6448TIP3    H219302   4.171   1.460   5.867
 6449TIP3   OH219303   7.684   3.149  -0.002
 6449TIP3    H119304   7.620   3.092   0.040
 6449TIP3    H219305   7.640   3.234  -0.006
 6450TIP3   OH219306   4.398   6.236   4.568
 6450TIP3    H119307   4.418   6.225   4.475
 6450TIP3    H219308   4.346   6.159   4.590
 6451TIP3   OH219309   7.026   5.297   1.493
 6451TIP3    H119310   7.082   5.339   1.558
 6451TIP3    H219311   6.942   5.285   1.538
 6452TIP3   OH219312   4.276   3.090   2.639
 6452TIP3    H119313   4.268   3.096   2.544
 6452TIP3    H219314   4.187   3.104   2.672
 6453TIP3   OH219315   3.876   5.122   5.910
 6453TIP3    H119316   3.941   5.052   5.920
 6453TIP3    H219317   3.869   5.160   5.998
 6454TIP3   OH219318   6.649   1.193  -0.003
 6454TIP3    H119319   6.709   1.135   0.045
 6454TIP3    H219320   6.659   1.167  -0.094
 6455TIP3   OH219321   8.003   3.667   4.563
 6455TIP3    H119322   7.974   3.733   4.626
 6455TIP3    H219323   8.065   3.613   4.612
 6456TIP3   OH219324   7.942   2.651   2.436
 6456TIP3    H119325   7.885   2.608   2.500
 6456TIP3    H219326   8.016   2.591   2.425
 6457TIP3   OH219327   1.729   4.469   0.970
 6457TIP3    H119328   1.665   4.462   0.899
 6457TIP3    H219329   1.786   4.393   0.959
 6458TIP3   OH219330   5.654   3.513   0.629
 6458TIP3    H119331   5.714   3.466   0.688
 6458TIP3    H219332   5.668   3.473   0.543
 6459TIP3   OH219333   4.209   3.939   1.932
 6459TIP3    H119334   4.119   3.929   1.962
 6459TIP3    H219335   4.260   3.879   1.986
 6460TIP3   OH219336   1.124   6.799   2.830
 6460TIP3    H119337   1.147   6.719   2.878
 6460TIP3    H219338   1.090   6.768   2.747
 6461TIP3   OH219339   3.491   4.161   1.075
 6461TIP3    H119340   3.463   4.071   1.090
 6461TIP3    H219341   3.412   4.207   1.048
 6462TIP3   OH219342   6.241   1.133   6.229
 6462TIP3    H119343   6.332   1.158   6.212
 6462TIP3    H219344   6.247   1.045   6.266
 6463TIP3   OH219345   7.178   3.877   2.244
 6463TIP3    H119346   7.185   3.840   2.156
 6463TIP3    H219347   7.248   3.835   2.293
 6464TIP3   OH219348   5.048   6.979   5.599
 6464TIP3    H119349   5.130   6.938   5.625
 6464TIP3    H219350   5.054   7.069   5.633
 6465TIP3   OH219351   0.509   0.628   0.287
 6465TIP3    H119352   0.509   0.721   0.311
 6465TIP3    H219353   0.441   0.589   0.341
 6466TIP3   OH219354   6.795   0.633   3.845
 6466TIP3    H119355   6.758   0.694   3.910
 6466TIP3    H219356   6.830   0.690   3.776
 6467TIP3   OH219357   4.455   6.964   6.052
 6467TIP3    H119358   4.450   6.899   5.982
 6467TIP3    H219359   4.548   6.966   6.076
 6468TIP3   OH219360   6.526   0.704   6.514
 6468TIP3    H119361   6.442   0.674   6.480
 6468TIP3    H219362   6.535   0.660   6.599
 6469TIP3   OH219363   3.520   6.294   0.436
 6469TIP3    H119364   3.498   6.228   0.501
 6469TIP3    H219365   3.446   6.355   0.437
 6470TIP3   OH219366   3.546   5.436   6.142
 6470TIP3    H119367   3.570   5.438   6.235
 6470TIP3    H219368   3.547   5.343   6.120
 6471TIP3   OH219369   4.256   5.238   3.899
 6471TIP3    H119370   4.272   5.305   3.965
 6471TIP3    H219371   4.162   5.224   3.902
 6472TIP3   OH219372   0.684   4.036   5.974
 6472TIP3    H119373   0.714   4.119   5.937
 6472TIP3    H219374   0.755   3.975   5.955
 6473TIP3   OH219375   2.216   4.936   2.328
 6473TIP3    H119376   2.258   4.988   2.260
 6473TIP3    H219377   2.276   4.864   2.345
 6474TIP3   OH219378   4.338   6.568   6.260
 6474TIP3    H119379   4.354   6.660   6.281
 6474TIP3    H219380   4.244   6.557   6.267
 6475TIP3   OH219381   4.343   2.075   5.694
 6475TIP3    H119382   4.391   2.158   5.688
 6475TIP3    H219383   4.354   2.035   5.608
 6476TIP3   OH219384   6.455   4.855   2.318
 6476TIP3    H119385   6.540   4.834   2.280
 6476TIP3    H219386   6.393   4.847   2.245
 6477TIP3   OH219387   1.768   1.135   3.580
 6477TIP3    H119388   1.734   1.221   3.606
 6477TIP3    H219389   1.792   1.145   3.488
 6478TIP3   OH219390   5.013   0.988   1.521
 6478TIP3    H119391   4.956   0.938   1.580
 6478TIP3    H219392   4.976   0.972   1.434
 6479TIP3   OH219393   3.829   4.548   5.365
 6479TIP3    H119394   3.790   4.587   5.444
 6479TIP3    H219395   3.812   4.613   5.296
 6480TIP3   OH219396   8.031   5.211   2.557
 6480TIP3    H119397   7.958   5.228   2.498
 6480TIP3    H219398   8.071   5.131   2.524
 6481TIP3   OH219399   4.021   1.286   0.729
 6481TIP3    H119400   4.095   1.276   0.669
 6481TIP3    H219401   4.054   1.255   0.813
 6482TIP3   OH219402   2.338   4.421   6.054
 6482TIP3    H119403   2.324   4.499   6.109
 6482TIP3    H219404   2.331   4.454   5.965
 6483TIP3   OH219405   3.063   0.918   5.079
 6483TIP3    H119406   3.124   0.844   5.083
 6483TIP3    H219407   3.075   0.963   5.163
 6484TIP3   OH219408   0.271   0.962   4.033
 6484TIP3    H119409   0.209   0.901   4.074
 6484TIP3    H219410   0.220   1.005   3.964
 6485TIP3   OH219411   1.924   0.801   1.465
 6485TIP3    H119412   1.862   0.861   1.425
 6485TIP3    H219413   1.976   0.767   1.392
 6486TIP3   OH219414   0.643   1.872   3.224
 6486TIP3    H119415   0.697   1.892   3.300
 6486TIP3    H219416   0.553   1.884   3.255
 6487TIP3   OH219417   2.053   4.409   6.722
 6487TIP3    H119418   2.139   4.425   6.683
 6487TIP3    H219419   2.021   4.330   6.679
 6488TIP3   OH219420   0.035   6.957   1.023
 6488TIP3    H119421   0.024   6.912   1.107
 6488TIP3    H219422  -0.024   7.033   1.030
 6489TIP3   OH219423   4.109   5.385   4.496
 6489TIP3    H119424   4.181   5.331   4.528
 6489TIP3    H219425   4.132   5.402   4.404
 6490TIP3   OH219426   3.132   2.905   2.035
 6490TIP3    H119427   3.046   2.879   2.071
 6490TIP3    H219428   3.136   3.000   2.050
 6491TIP3   OH219429   3.610   3.778   1.679
 6491TIP3    H119430   3.704   3.796   1.683
 6491TIP3    H219431   3.603   3.686   1.705
 6492TIP3   OH219432   0.059   3.255   4.196
 6492TIP3    H119433   0.132   3.230   4.140
 6492TIP3    H219434  -0.013   3.273   4.134
 6493TIP3   OH219435   7.593   7.764   0.547
 6493TIP3    H119436   7.609   7.676   0.581
 6493TIP3    H219437   7.497   7.773   0.552
 6494TIP3   OH219438   0.405   5.243   0.175
 6494TIP3    H119439   0.334   5.192   0.136
 6494TIP3    H219440   0.485   5.196   0.151
 6495TIP3   OH219441   2.298   2.116   1.538
 6495TIP3    H119442   2.294   2.050   1.469
 6495TIP3    H219443   2.354   2.078   1.605
 6496TIP3   OH219444   0.233   5.871   3.560
 6496TIP3    H119445   0.307   5.817   3.587
 6496TIP3    H219446   0.266   5.922   3.486
 6497TIP3   OH219447   1.692   6.177   1.239
 6497TIP3    H119448   1.688   6.221   1.324
 6497TIP3    H219449   1.638   6.231   1.182
 6498TIP3   OH219450   4.963   4.583   4.045
 6498TIP3    H119451   4.980   4.642   3.971
 6498TIP3    H219452   4.962   4.640   4.122
 6499TIP3   OH219453   1.861   6.922   4.881
 6499TIP3    H119454   1.841   6.882   4.965
 6499TIP3    H219455   1.855   6.851   4.817
 6500TIP3   OH219456   7.551   4.279   3.225
 6500TIP3    H119457   7.608   4.209   3.257
 6500TIP3    H219458   7.503   4.240   3.152
 6501TIP3   OH219459   7.562   7.101   5.502
 6501TIP3    H119460   7.648   7.108   5.545
 6501TIP3    H219461   7.547   7.188   5.464
 6502TIP3   OH219462   4.638   7.667   5.875
 6502TIP3    H119463   4.659   7.742   5.819
 6502TIP3    H219464   4.705   7.602   5.855
 6503TIP3   OH219465   1.849   5.100   6.611
 6503TIP3    H119466   1.893   5.118   6.528
 6503TIP3    H219467   1.831   5.006   6.609
 6504TIP3   OH219468   4.448   7.012   2.838
 6504TIP3    H119469   4.434   7.101   2.805
 6504TIP3    H219470   4.401   7.010   2.922
 6505TIP3   OH219471   0.653   1.852   6.290
 6505TIP3    H119472   0.616   1.792   6.226
 6505TIP3    H219473   0.578   1.902   6.322
 6506TIP3   OH219474   4.733   6.242   0.611
 6506TIP3    H119475   4.710   6.235   0.518
 6506TIP3    H219476   4.736   6.336   0.628
 6507TIP3   OH219477   7.614   7.590   2.930
 6507TIP3    H119478   7.626   7.674   2.886
 6507TIP3    H219479   7.677   7.593   3.002
 6508TIP3   OH219480   4.067   3.049   6.593
 6508TIP3    H119481   4.031   3.125   6.638
 6508TIP3    H219482   4.101   3.082   6.511
 6509TIP3   OH219483   2.452   2.048   2.932
 6509TIP3    H119484   2.368   2.067   2.891
 6509TIP3    H219485   2.476   2.130   2.975
 6510TIP3   OH219486   5.071   3.319   2.566
 6510TIP3    H119487   5.156   3.274   2.569
 6510TIP3    H219488   5.070   3.372   2.645
 6511TIP3   OH219489   4.085   7.763   1.915
 6511TIP3    H119490   4.112   7.820   1.842
 6511TIP3    H219491   4.015   7.709   1.878
 6512TIP3   OH219492   2.010   2.952   6.703
 6512TIP3    H119493   2.065   2.878   6.676
 6512TIP3    H219494   1.927   2.912   6.726
 6513TIP3   OH219495   8.230   4.366   6.171
 6513TIP3    H119496   8.242   4.437   6.108
 6513TIP3    H219497   8.185   4.407   6.245
 6514TIP3   OH219498   5.300   0.598   1.952
 6514TIP3    H119499   5.307   0.504   1.937
 6514TIP3    H219500   5.235   0.627   1.888
 6515TIP3   OH219501   1.479   3.287   0.085
 6515TIP3    H119502   1.521   3.369   0.057
 6515TIP3    H219503   1.516   3.268   0.171
 6516TIP3   OH219504   2.325   6.926   2.957
 6516TIP3    H119505   2.370   6.843   2.970
 6516TIP3    H219506   2.244   6.903   2.912
 6517TIP3   OH219507   3.553   3.138   0.958
 6517TIP3    H119508   3.510   3.166   1.039
 6517TIP3    H219509   3.481   3.124   0.897
 6518TIP3   OH219510   2.572   3.032   1.278
 6518TIP3    H119511   2.562   2.945   1.317
 6518TIP3    H219512   2.619   3.082   1.345
 6519TIP3   OH219513   7.476   3.483   1.671
 6519TIP3    H119514   7.457   3.550   1.737
 6519TIP3    H219515   7.565   3.454   1.692
 6520TIP3   OH219516   1.054   2.140   0.545
 6520TIP3    H119517   1.039   2.186   0.462
 6520TIP3    H219518   0.976   2.086   0.557
 6521TIP3   OH219519   2.232   6.855   2.602
 6521TIP3    H119520   2.255   6.923   2.539
 6521TIP3    H219521   2.201   6.903   2.679
 6522TIP3   OH219522   5.693   0.911   6.583
 6522TIP3    H119523   5.651   0.922   6.497
 6522TIP3    H219524   5.672   0.822   6.609
 6523TIP3   OH219525   0.613   6.717   0.320
 6523TIP3    H119526   0.579   6.800   0.286
 6523TIP3    H219527   0.583   6.714   0.410
 6524TIP3   OH219528   0.172   1.292   3.869
 6524TIP3    H119529   0.109   1.364   3.860
 6524TIP3    H219530   0.250   1.333   3.907
 6525TIP3   OH219531   0.966   3.088   4.054
 6525TIP3    H119532   1.050   3.134   4.065
 6525TIP3    H219533   0.927   3.127   3.976
 6526TIP3   OH219534   2.204   2.892   0.282
 6526TIP3    H119535   2.162   2.807   0.295
 6526TIP3    H219536   2.134   2.949   0.251
 6527TIP3   OH219537   5.542   2.733   5.140
 6527TIP3    H119538   5.558   2.753   5.048
 6527TIP3    H219539   5.450   2.705   5.143
 6528TIP3   OH219540   4.998   0.857   3.591
 6528TIP3    H119541   5.067   0.800   3.557
 6528TIP3    H219542   5.020   0.944   3.556
 6529TIP3   OH219543   3.147   5.494   5.434
 6529TIP3    H119544   3.101   5.513   5.353
 6529TIP3    H219545   3.231   5.458   5.406
 6530TIP3   OH219546   7.772   4.271   1.753
 6530TIP3    H119547   7.719   4.333   1.803
 6530TIP3    H219548   7.710   4.232   1.691
 6531TIP3   OH219549   4.126   6.287   6.386
 6531TIP3    H119550   4.108   6.381   6.378
 6531TIP3    H219551   4.094   6.264   6.473
 6532TIP3   OH219552   8.239   7.493   6.609
 6532TIP3    H119553   8.309   7.530   6.556
 6532TIP3    H219554   8.247   7.399   6.596
 6533TIP3   OH219555   1.388   5.999   2.724
 6533TIP3    H119556   1.388   6.094   2.710
 6533TIP3    H219557   1.354   5.963   2.643
 6534TIP3   OH219558   7.931   2.577   4.210
 6534TIP3    H119559   7.939   2.636   4.285
 6534TIP3    H219560   7.837   2.576   4.191
 6535TIP3   OH219561   2.818   2.331   1.017
 6535TIP3    H119562   2.906   2.347   1.050
 6535TIP3    H219563   2.760   2.352   1.090
 6536TIP3   OH219564   4.857   7.389   5.350
 6536TIP3    H119565   4.919   7.317   5.338
 6536TIP3    H219566   4.857   7.434   5.265
 6537TIP3   OH219567   7.356   4.502   6.507
 6537TIP3    H119568   7.375   4.594   6.487
 6537TIP3    H219569   7.306   4.504   6.588
 6538TIP3   OH219570   7.881   2.366   3.531
 6538TIP3    H119571   7.842   2.395   3.448
 6538TIP3    H219572   7.840   2.282   3.549
 6539TIP3   OH219573   6.363   6.439   5.355
 6539TIP3    H119574   6.385   6.531   5.369
 6539TIP3    H219575   6.408   6.393   5.426
 6540TIP3   OH219576   6.401   1.928   4.513
 6540TIP3    H119577   6.350   1.986   4.457
 6540TIP3    H219578   6.481   1.911   4.463
 6541TIP3   OH219579   3.098   1.342   0.344
 6541TIP3    H119580   3.132   1.269   0.395
 6541TIP3    H219581   3.046   1.302   0.275
 6542TIP3   OH219582   0.330   1.778   4.421
 6542TIP3    H119583   0.363   1.717   4.355
 6542TIP3    H219584   0.346   1.864   4.384
 6543TIP3   OH219585   5.553   4.824   1.082
 6543TIP3    H119586   5.640   4.861   1.063
 6543TIP3    H219587   5.492   4.885   1.039
 6544TIP3   OH219588   5.512   7.324   0.769
 6544TIP3    H119589   5.495   7.392   0.705
 6544TIP3    H219590   5.564   7.259   0.722
 6545TIP3   OH219591   6.210   3.975   1.462
 6545TIP3    H119592   6.291   3.967   1.412
 6545TIP3    H219593   6.159   4.041   1.414
 6546TIP3   OH219594   5.549   4.452   0.740
 6546TIP3    H119595   5.612   4.515   0.776
 6546TIP3    H219596   5.602   4.375   0.718
 6547TIP3   OH219597   7.980   0.318   4.389
 6547TIP3    H119598   7.906   0.257   4.388
 6547TIP3    H219599   8.021   0.309   4.303
 6548TIP3   OH219600   4.087   4.971   6.244
 6548TIP3    H119601   4.174   4.933   6.232
 6548TIP3    H219602   4.095   5.021   6.326
 6549TIP3   OH219603   0.495   1.072   5.498
 6549TIP3    H119604   0.400   1.075   5.488
 6549TIP3    H219605   0.522   1.164   5.504
 6550TIP3   OH219606   7.950   4.508   2.006
 6550TIP3    H119607   7.866   4.464   2.020
 6550TIP3    H219608   7.987   4.518   2.093
 6551TIP3   OH219609   3.768   0.227   3.123
 6551TIP3    H119610   3.775   0.314   3.085
 6551TIP3    H219611   3.729   0.173   3.054
 6552TIP3   OH219612   4.312   5.741   2.264
 6552TIP3    H119613   4.267   5.666   2.305
 6552TIP3    H219614   4.405   5.721   2.274
 6553TIP3   OH219615   7.991   4.393   4.858
 6553TIP3    H119616   7.986   4.299   4.840
 6553TIP3    H219617   7.980   4.400   4.953
 6554TIP3   OH219618   7.529   6.338   1.842
 6554TIP3    H119619   7.519   6.250   1.806
 6554TIP3    H219620   7.453   6.386   1.808
 6555TIP3   OH219621   3.895   5.788   4.624
 6555TIP3    H119622   3.964   5.843   4.588
 6555TIP3    H219623   3.911   5.702   4.586
 6556TIP3   OH219624   1.002   4.902   5.387
 6556TIP3    H119625   0.991   4.904   5.292
 6556TIP3    H219626   0.921   4.862   5.419
 6557TIP3   OH219627   8.070   2.431   6.505
 6557TIP3    H119628   8.098   2.362   6.446
 6557TIP3    H219629   8.076   2.392   6.592
 6558TIP3   OH219630   1.772   2.146   4.672
 6558TIP3    H119631   1.790   2.082   4.740
 6558TIP3    H219632   1.778   2.231   4.716
 6559TIP3   OH219633   6.002   6.085   3.990
 6559TIP3    H119634   5.915   6.086   3.951
 6559TIP3    H219635   6.047   6.161   3.952
 6560TIP3   OH219636   6.631   4.154   1.738
 6560TIP3    H119637   6.568   4.118   1.800
 6560TIP3    H219638   6.583   4.222   1.691
 6561TIP3   OH219639   4.197   6.716   1.687
 6561TIP3    H119640   4.292   6.724   1.693
 6561TIP3    H219641   4.166   6.728   1.777
 6562TIP3   OH219642   0.737   1.009   4.639
 6562TIP3    H119643   0.812   1.027   4.582
 6562TIP3    H219644   0.751   1.065   4.715
 6563TIP3   OH219645   3.268   7.103   5.458
 6563TIP3    H119646   3.229   7.188   5.476
 6563TIP3    H219647   3.341   7.122   5.400
 6564TIP3   OH219648   0.421   3.858   6.231
 6564TIP3    H119649   0.338   3.867   6.185
 6564TIP3    H219650   0.483   3.829   6.165
 6565TIP3   OH219651   6.736   6.858   6.146
 6565TIP3    H119652   6.700   6.828   6.063
 6565TIP3    H219653   6.708   6.793   6.210
 6566TIP3   OH219654   0.594   2.667   4.214
 6566TIP3    H119655   0.673   2.721   4.212
 6566TIP3    H219656   0.547   2.691   4.134
 6567TIP3   OH219657   2.097   6.378   3.436
 6567TIP3    H119658   2.147   6.453   3.403
 6567TIP3    H219659   2.047   6.347   3.361
 6568TIP3   OH219660   0.991   2.008   5.375
 6568TIP3    H119661   0.956   2.097   5.376
 6568TIP3    H219662   1.041   2.003   5.294
 6569TIP3   OH219663   4.660   1.888   5.637
 6569TIP3    H119664   4.625   1.884   5.726
 6569TIP3    H219665   4.746   1.847   5.643
 6570TIP3   OH219666   1.241   0.989   4.595
 6570TIP3    H119667   1.223   1.059   4.532
 6570TIP3    H219668   1.276   1.035   4.672
 6571TIP3   OH219669   3.070   0.526   1.898
 6571TIP3    H119670   3.154   0.486   1.877
 6571TIP3    H219671   3.036   0.557   1.814
 6572TIP3   OH219672   2.195   4.082   4.951
 6572TIP3    H119673   2.191   4.171   4.917
 6572TIP3    H219674   2.162   4.089   5.041
 6573TIP3   OH219675   0.577   2.625   3.933
 6573TIP3    H119676   0.560   2.672   3.851
 6573TIP3    H219677   0.519   2.666   3.997
 6574TIP3   OH219678   0.674   5.456   5.227
 6574TIP3    H119679   0.764   5.467   5.195
 6574TIP3    H219680   0.673   5.502   5.311
 6575TIP3   OH219681   2.081   7.364   2.070
 6575TIP3    H119682   2.074   7.325   2.157
 6575TIP3    H219683   2.130   7.300   2.019
 6576TIP3   OH219684   2.605   2.471   6.131
 6576TIP3    H119685   2.679   2.448   6.188
 6576TIP3    H219686   2.639   2.461   6.042
 6577TIP3   OH219687   6.413   4.076   1.914
 6577TIP3    H119688   6.370   4.026   1.983
 6577TIP3    H219689   6.374   4.044   1.832
 6578TIP3   OH219690   0.569   1.168   1.964
 6578TIP3    H119691   0.527   1.132   1.885
 6578TIP3    H219692   0.580   1.092   2.021
 6579TIP3   OH219693   7.896   2.668   6.499
 6579TIP3    H119694   7.969   2.606   6.497
 6579TIP3    H219695   7.823   2.618   6.535
 6580TIP3   OH219696   2.273   1.316   6.733
 6580TIP3    H119697   2.296   1.403   6.766
 6580TIP3    H219698   2.319   1.255   6.790
 6581TIP3   OH219699   5.904   7.071   2.324
 6581TIP3    H119700   5.954   6.993   2.349
 6581TIP3    H219701   5.834   7.077   2.389
 6582TIP3   OH219702   1.642   2.921   4.546
 6582TIP3    H119703   1.581   2.848   4.558
 6582TIP3    H219704   1.712   2.885   4.492
 6583TIP3   OH219705   2.416   2.737   2.717
 6583TIP3    H119706   2.435   2.709   2.628
 6583TIP3    H219707   2.403   2.832   2.710
 6584TIP3   OH219708   3.482   3.763   0.592
 6584TIP3    H119709   3.487   3.846   0.545
 6584TIP3    H219710   3.544   3.772   0.665
 6585TIP3   OH219711   3.799   5.277   5.367
 6585TIP3    H119712   3.736   5.254   5.298
 6585TIP3    H219713   3.744   5.300   5.442
 6586TIP3   OH219714   3.748   0.373   1.048
 6586TIP3    H119715   3.669   0.345   1.096
 6586TIP3    H219716   3.794   0.430   1.110
 6587TIP3   OH219717   2.183   7.691   5.235
 6587TIP3    H119718   2.092   7.709   5.258
 6587TIP3    H219719   2.178   7.620   5.170
 6588TIP3   OH219720   5.191   6.086   1.521
 6588TIP3    H119721   5.120   6.080   1.457
 6588TIP3    H219722   5.228   5.998   1.524
 6589TIP3   OH219723   1.493   3.265   1.550
 6589TIP3    H119724   1.417   3.241   1.604
 6589TIP3    H219725   1.527   3.344   1.591
 6590TIP3   OH219726   1.760   5.867   0.716
 6590TIP3    H119727   1.791   5.957   0.713
 6590TIP3    H219728   1.821   5.823   0.775
 6591TIP3   OH219729   5.646   6.179   3.240
 6591TIP3    H119730   5.555   6.152   3.245
 6591TIP3    H219731   5.657   6.211   3.150
 6592TIP3   OH219732   8.165   3.274   3.854
 6592TIP3    H119733   8.084   3.231   3.829
 6592TIP3    H219734   8.148   3.308   3.942
 6593TIP3   OH219735   2.372   2.556   3.814
 6593TIP3    H119736   2.441   2.491   3.801
 6593TIP3    H219737   2.295   2.505   3.840
 6594TIP3   OH219738   2.720   5.628   1.487
 6594TIP3    H119739   2.699   5.717   1.460
 6594TIP3    H219740   2.740   5.635   1.580
 6595TIP3   OH219741   7.157   6.449   2.116
 6595TIP3    H119742   7.188   6.363   2.085
 6595TIP3    H219743   7.105   6.483   2.043
 6596TIP3   OH219744   4.211   4.650   6.531
 6596TIP3    H119745   4.261   4.592   6.474
 6596TIP3    H219746   4.124   4.612   6.533
 6597TIP3   OH219747   4.998   1.681   6.030
 6597TIP3    H119748   4.974   1.638   6.113
 6597TIP3    H219749   4.950   1.764   6.031
 6598TIP3   OH219750   8.155   2.764   4.138
 6598TIP3    H119751   8.127   2.681   4.101
 6598TIP3    H219752   8.085   2.825   4.117
 6599TIP3   OH219753   7.557   3.403   0.058
 6599TIP3    H119754   7.519   3.366   0.138
 6599TIP3    H219755   7.536   3.496   0.061
 6600TIP3   OH219756   4.588   2.589   5.840
 6600TIP3    H119757   4.630   2.509   5.809
 6600TIP3    H219758   4.652   2.630   5.898
 6601TIP3   OH219759   4.272   6.208   0.430
 6601TIP3    H119760   4.305   6.241   0.513
 6601TIP3    H219761   4.196   6.263   0.410
 6602TIP3   OH219762   5.034   5.913   6.227
 6602TIP3    H119763   4.941   5.898   6.209
 6602TIP3    H219764   5.048   5.878   6.315
 6603TIP3   OH219765   4.483   5.450   5.822
 6603TIP3    H119766   4.438   5.391   5.761
 6603TIP3    H219767   4.435   5.532   5.816
 6604TIP3   OH219768   6.019   1.059   4.470
 6604TIP3    H119769   5.972   1.138   4.444
 6604TIP3    H219770   5.977   1.031   4.551
 6605TIP3   OH219771   2.839   4.939   6.317
 6605TIP3    H119772   2.828   4.847   6.293
 6605TIP3    H219773   2.816   4.988   6.238
 6606TIP3   OH219774   8.196   6.941   2.499
 6606TIP3    H119775   8.127   6.968   2.437
 6606TIP3    H219776   8.276   6.981   2.463
 6607TIP3   OH219777   2.464   0.898   1.010
 6607TIP3    H119778   2.417   0.835   1.065
 6607TIP3    H219779   2.540   0.923   1.062
 6608TIP3   OH219780   5.625   6.284   2.185
 6608TIP3    H119781   5.695   6.222   2.205
 6608TIP3    H219782   5.546   6.242   2.220
 6609TIP3   OH219783  -0.005   0.979   5.775
 6609TIP3    H119784  -0.001   1.028   5.857
 6609TIP3    H219785   0.033   0.893   5.797
 6610TIP3   OH219786   5.775   1.461   5.465
 6610TIP3    H119787   5.734   1.425   5.544
 6610TIP3    H219788   5.758   1.395   5.398
 6611TIP3   OH219789   6.364   1.384   4.849
 6611TIP3    H119790   6.359   1.317   4.782
 6611TIP3    H219791   6.349   1.337   4.931
 6612TIP3   OH219792   6.589   2.696   0.305
 6612TIP3    H119793   6.574   2.679   0.398
 6612TIP3    H219794   6.511   2.744   0.276
 6613TIP3   OH219795   1.987   6.938   3.390
 6613TIP3    H119796   1.989   7.017   3.445
 6613TIP3    H219797   2.048   6.957   3.319
 6614TIP3   OH219798   8.195   7.649   0.254
 6614TIP3    H119799   8.236   7.569   0.286
 6614TIP3    H219800   8.220   7.715   0.319
 6615TIP3   OH219801   5.401   7.213   1.235
 6615TIP3    H119802   5.318   7.229   1.280
 6615TIP3    H219803   5.417   7.294   1.186
 6616TIP3   OH219804   6.145   6.012   4.416
 6616TIP3    H119805   6.204   6.007   4.492
 6616TIP3    H219806   6.061   5.981   4.449
 6617TIP3   OH219807   4.731   4.850   5.290
 6617TIP3    H119808   4.773   4.851   5.376
 6617TIP3    H219809   4.772   4.776   5.245
 6618TIP3   OH219810   2.476   1.149   5.956
 6618TIP3    H119811   2.414   1.155   5.884
 6618TIP3    H219812   2.434   1.198   6.028
 6619TIP3   OH219813   1.318   4.136   3.134
 6619TIP3    H119814   1.388   4.072   3.145
 6619TIP3    H219815   1.266   4.128   3.214
 6620TIP3   OH219816   0.139   7.783   4.583
 6620TIP3    H119817   0.061   7.731   4.565
 6620TIP3    H219818   0.134   7.802   4.677
 6621TIP3   OH219819   4.271   6.336   6.662
 6621TIP3    H119820   4.346   6.309   6.715
 6621TIP3    H219821   4.255   6.427   6.687
 6622TIP3   OH219822   5.544   3.431   0.134
 6622TIP3    H119823   5.586   3.345   0.142
 6622TIP3    H219824   5.585   3.471   0.058
 6623TIP3   OH219825   1.829   3.674   5.295
 6623TIP3    H119826   1.875   3.682   5.211
 6623TIP3    H219827   1.801   3.583   5.298
 6624TIP3   OH219828   5.908   0.791   0.190
 6624TIP3    H119829   5.953   0.855   0.245
 6624TIP3    H219830   5.816   0.812   0.200
 6625TIP3   OH219831   2.025   4.682   3.731
 6625TIP3    H119832   2.063   4.737   3.800
 6625TIP3    H219833   2.056   4.721   3.649
 6626TIP3   OH219834   2.163   7.641   4.601
 6626TIP3    H119835   2.239   7.583   4.599
 6626TIP3    H219836   2.108   7.611   4.528
 6627TIP3   OH219837   6.350   1.648   6.591
 6627TIP3    H119838   6.348   1.740   6.565
 6627TIP3    H219839   6.263   1.615   6.569
 6628TIP3   OH219840   1.760   7.036   1.290
 6628TIP3    H119841   1.730   7.118   1.250
 6628TIP3    H219842   1.851   7.055   1.316
 6629TIP3   OH219843   0.591   1.792   5.540
 6629TIP3    H119844   0.563   1.883   5.542
 6629TIP3    H219845   0.686   1.795   5.551
 6630TIP3   OH219846   0.452   4.657   3.882
 6630TIP3    H119847   0.539   4.677   3.914
 6630TIP3    H219848   0.397   4.729   3.914
 6631TIP3   OH219849   1.382   4.767   2.593
 6631TIP3    H119850   1.428   4.745   2.674
 6631TIP3    H219851   1.375   4.684   2.547
 6632TIP3   OH219852   3.453   1.046   0.846
 6632TIP3    H119853   3.423   1.022   0.759
 6632TIP3    H219854   3.381   1.023   0.904
 6633TIP3   OH219855   6.710   3.044   5.439
 6633TIP3    H119856   6.717   3.059   5.344
 6633TIP3    H219857   6.760   2.964   5.453
 6634TIP3   OH219858   3.668   4.796   1.542
 6634TIP3    H119859   3.611   4.855   1.493
 6634TIP3    H219860   3.752   4.843   1.548
 6635TIP3   OH219861   6.522   0.998   2.574
 6635TIP3    H119862   6.505   0.933   2.507
 6635TIP3    H219863   6.613   0.983   2.600
 6636TIP3   OH219864   4.785   3.181   5.863
 6636TIP3    H119865   4.727   3.118   5.820
 6636TIP3    H219866   4.760   3.265   5.824
 6637TIP3   OH219867   4.287   5.802   4.175
 6637TIP3    H119868   4.346   5.855   4.121
 6637TIP3    H219869   4.203   5.847   4.170
 6638TIP3   OH219870   0.116   2.163   2.260
 6638TIP3    H119871   0.117   2.101   2.187
 6638TIP3    H219872   0.188   2.223   2.240
 6639TIP3   OH219873   2.396   0.453   4.486
 6639TIP3    H119874   2.459   0.425   4.419
 6639TIP3    H219875   2.383   0.375   4.540
 6640TIP3   OH219876   3.246   4.849   1.147
 6640TIP3    H119877   3.188   4.910   1.193
 6640TIP3    H219878   3.228   4.864   1.054
 6641TIP3   OH219879   1.604   1.481   1.114
 6641TIP3    H119880   1.630   1.407   1.169
 6641TIP3    H219881   1.633   1.558   1.162
 6642TIP3   OH219882   4.097   6.674   0.659
 6642TIP3    H119883   4.128   6.739   0.722
 6642TIP3    H219884   4.156   6.599   0.671
 6643TIP3   OH219885   1.546   6.758   4.878
 6643TIP3    H119886   1.552   6.706   4.958
 6643TIP3    H219887   1.499   6.701   4.816
 6644TIP3   OH219888   8.281   6.772   1.223
 6644TIP3    H119889   8.267   6.774   1.318
 6644TIP3    H219890   8.193   6.774   1.186
 6645TIP3   OH219891   8.205   6.155   6.174
 6645TIP3    H119892   8.206   6.077   6.118
 6645TIP3    H219893   8.210   6.121   6.263
 6646TIP3   OH219894   2.596   6.344   2.710
 6646TIP3    H119895   2.545   6.306   2.781
 6646TIP3    H219896   2.542   6.330   2.632
 6647TIP3   OH219897   4.217   2.827   0.673
 6647TIP3    H119898   4.257   2.796   0.754
 6647TIP3    H219899   4.288   2.829   0.610
 6648TIP3   OH219900   7.047   4.252   0.853
 6648TIP3    H119901   7.022   4.344   0.850
 6648TIP3    H219902   6.964   4.205   0.854
 6649TIP3   OH219903   2.922   1.847   4.322
 6649TIP3    H119904   2.913   1.939   4.347
 6649TIP3    H219905   3.014   1.826   4.340
 6650TIP3   OH219906   2.536   1.200   2.646
 6650TIP3    H119907   2.512   1.115   2.681
 6650TIP3    H219908   2.513   1.262   2.715
 6651TIP3   OH219909   4.129   5.872   4.512
 6651TIP3    H119910   4.166   5.945   4.563
 6651TIP3    H219911   4.158   5.794   4.558
 6652TIP3   OH219912   8.238   0.062   6.751
 6652TIP3    H119913   8.150   0.063   6.788
 6652TIP3    H219914   8.282   0.137   6.791
 6653TIP3   OH219915   7.701   1.051   4.868
 6653TIP3    H119916   7.633   1.090   4.922
 6653TIP3    H219917   7.719   1.117   4.801
 6654TIP3   OH219918   1.215   5.041   5.536
 6654TIP3    H119919   1.153   4.986   5.489
 6654TIP3    H219920   1.239   4.989   5.613
 6655TIP3   OH219921   6.160   7.764   2.090
 6655TIP3    H119922   6.105   7.841   2.076
 6655TIP3    H219923   6.247   7.800   2.109
 6656TIP3   OH219924   2.678   5.754   3.867
 6656TIP3    H119925   2.674   5.669   3.911
 6656TIP3    H219926   2.720   5.812   3.930
 6657TIP3   OH219927   4.051   6.275   5.445
 6657TIP3    H119928   4.131   6.304   5.489
 6657TIP3    H219929   4.033   6.189   5.482
 6658TIP3   OH219930   1.075   1.619   3.986
 6658TIP3    H119931   1.117   1.550   4.038
 6658TIP3    H219932   1.049   1.684   4.051
 6659TIP3   OH219933   5.074   0.182   0.865
 6659TIP3    H119934   5.142   0.248   0.851
 6659TIP3    H219935   5.111   0.101   0.831
 6660TIP3   OH219936   3.444   0.799   6.236
 6660TIP3    H119937   3.360   0.770   6.272
 6660TIP3    H219938   3.433   0.894   6.224
 6661TIP3   OH219939   1.779   6.789   6.688
 6661TIP3    H119940   1.805   6.820   6.602
 6661TIP3    H219941   1.697   6.742   6.673
 6662TIP3   OH219942   8.051   7.311   3.821
 6662TIP3    H119943   8.074   7.222   3.847
 6662TIP3    H219944   7.992   7.300   3.746
 6663TIP3   OH219945   1.754   1.445   0.858
 6663TIP3    H119946   1.742   1.440   0.953
 6663TIP3    H219947   1.667   1.466   0.824
 6664TIP3   OH219948   0.381   7.692   4.458
 6664TIP3    H119949   0.312   7.756   4.475
 6664TIP3    H219950   0.342   7.607   4.482
 6665TIP3   OH219951   7.323   4.984   4.469
 6665TIP3    H119952   7.363   5.034   4.539
 6665TIP3    H219953   7.356   5.024   4.388
 6666TIP3   OH219954   4.859   2.338   6.163
 6666TIP3    H119955   4.786   2.298   6.210
 6666TIP3    H219956   4.936   2.316   6.215
 6667TIP3   OH219957   5.315   0.720   2.903
 6667TIP3    H119958   5.275   0.695   2.820
 6667TIP3    H219959   5.242   0.748   2.958
 6668TIP3   OH219960   1.272   4.817   4.399
 6668TIP3    H119961   1.278   4.724   4.424
 6668TIP3    H219962   1.360   4.839   4.368
 6669TIP3   OH219963   0.976   5.587   1.072
 6669TIP3    H119964   1.051   5.529   1.060
 6669TIP3    H219965   1.008   5.654   1.133
 6670TIP3   OH219966   2.698   0.736   5.758
 6670TIP3    H119967   2.767   0.730   5.824
 6670TIP3    H219968   2.675   0.828   5.756
 6671TIP3   OH219969   4.496   1.751   3.455
 6671TIP3    H119970   4.522   1.839   3.427
 6671TIP3    H219971   4.568   1.695   3.427
 6672TIP3   OH219972   6.077   1.957   2.293
 6672TIP3    H119973   6.066   1.863   2.277
 6672TIP3    H219974   5.988   1.990   2.301
 6673TIP3   OH219975   5.990   1.554   0.781
 6673TIP3    H119976   6.006   1.641   0.816
 6673TIP3    H219977   5.979   1.499   0.859
 6674TIP3   OH219978   4.794   2.720   4.586
 6674TIP3    H119979   4.830   2.769   4.512
 6674TIP3    H219980   4.708   2.759   4.601
 6675TIP3   OH219981   7.483   3.483   3.154
 6675TIP3    H119982   7.447   3.461   3.068
 6675TIP3    H219983   7.474   3.402   3.205
 6676TIP3   OH219984   7.704   1.552   5.819
 6676TIP3    H119985   7.774   1.527   5.758
 6676TIP3    H219986   7.750   1.581   5.898
 6677TIP3   OH219987   0.530   4.405   3.858
 6677TIP3    H119988   0.482   4.485   3.880
 6677TIP3    H219989   0.591   4.432   3.790
 6678TIP3   OH219990   0.720   4.392   0.136
 6678TIP3    H119991   0.787   4.454   0.166
 6678TIP3    H219992   0.661   4.444   0.083
 6679TIP3   OH219993   3.065   2.869   2.530
 6679TIP3    H119994   3.064   2.794   2.471
 6679TIP3    H219995   3.015   2.841   2.607
 6680TIP3   OH219996   5.578   4.886   3.202
 6680TIP3    H119997   5.512   4.852   3.141
 6680TIP3    H219998   5.652   4.911   3.147
 6681TIP3   OH219999   4.818   6.271   1.191
 6681TIP3    H120000   4.863   6.228   1.118
 6681TIP3    H220001   4.747   6.319   1.150
 6682TIP3   OH220002   3.296   6.124   5.695
 6682TIP3    H120003   3.386   6.156   5.695
 6682TIP3    H220004   3.294   6.057   5.764
 6683TIP3   OH220005   7.175   0.381   1.375
 6683TIP3    H120006   7.133   0.465   1.395
 6683TIP3    H220007   7.164   0.371   1.280
 6684TIP3   OH220008   8.237   3.436   5.418
 6684TIP3    H120009   8.192   3.443   5.502
 6684TIP3    H220010   8.295   3.360   5.428
 6685TIP3   OH220011   1.418   6.341   1.372
 6685TIP3    H120012   1.414   6.428   1.334
 6685TIP3    H220013   1.425   6.357   1.467
 6686TIP3   OH220014   4.762   1.943   2.690
 6686TIP3    H120015   4.721   2.025   2.720
 6686TIP3    H220016   4.705   1.874   2.725
 6687TIP3   OH220017   2.243   4.920   3.312
 6687TIP3    H120018   2.206   4.993   3.262
 6687TIP3    H220019   2.331   4.948   3.335
 6688TIP3   OH220020   2.942   4.070   3.419
 6688TIP3    H120021   3.022   4.060   3.471
 6688TIP3    H220022   2.937   4.164   3.402
 6689TIP3   OH220023   6.073   6.761   0.403
 6689TIP3    H120024   6.016   6.806   0.340
 6689TIP3    H220025   6.159   6.762   0.362
 6690TIP3   OH220026   5.795   0.548   1.795
 6690TIP3    H120027   5.759   0.623   1.843
 6690TIP3    H220028   5.861   0.586   1.737
 6691TIP3   OH220029   5.858   2.238   2.054
 6691TIP3    H120030   5.842   2.147   2.076
 6691TIP3    H220031   5.946   2.239   2.015
 6692TIP3   OH220032   0.046   3.983   1.211
 6692TIP3    H120033   0.120   3.940   1.169
 6692TIP3    H220034   0.072   4.075   1.215
 6693TIP3   OH220035   5.098   6.576   6.531
 6693TIP3    H120036   5.120   6.528   6.451
 6693TIP3    H220037   5.117   6.514   6.602
 6694TIP3   OH220038   1.115   0.602   6.493
 6694TIP3    H120039   1.082   0.595   6.583
 6694TIP3    H220040   1.076   0.529   6.446
 6695TIP3   OH220041   0.095   5.393   3.672
 6695TIP3    H120042   0.020   5.426   3.624
 6695TIP3    H220043   0.167   5.451   3.648
 6696TIP3   OH220044   5.114   6.712   2.321
 6696TIP3    H120045   5.023   6.685   2.332
 6696TIP3    H220046   5.160   6.631   2.298
 6697TIP3   OH220047   4.751   2.774   0.322
 6697TIP3    H120048   4.781   2.683   0.332
 6697TIP3    H220049   4.764   2.814   0.407
 6698TIP3   OH220050   6.263   2.434   5.967
 6698TIP3    H120051   6.309   2.486   5.902
 6698TIP3    H220052   6.246   2.496   6.039
 6699TIP3   OH220053   4.959   3.214   6.602
 6699TIP3    H120054   5.026   3.177   6.545
 6699TIP3    H220055   4.979   3.307   6.608
 6700TIP3   OH220056   5.683   4.127   6.702
 6700TIP3    H120057   5.745   4.196   6.723
 6700TIP3    H220058   5.602   4.173   6.678
 6701TIP3   OH220059   5.012   3.449   0.935
 6701TIP3    H120060   5.076   3.495   0.990
 6701TIP3    H220061   4.994   3.510   0.864
 6702TIP3   OH220062   8.020   2.059   4.025
 6702TIP3    H120063   8.092   2.006   4.059
 6702TIP3    H220064   8.015   2.035   3.932
 6703TIP3   OH220065   8.299   4.266   4.873
 6703TIP3    H120066   8.274   4.319   4.797
 6703TIP3    H220067   8.345   4.326   4.931
 6704TIP3   OH220068   0.620   4.365   5.967
 6704TIP3    H120069   0.676   4.395   6.038
 6704TIP3    H220070   0.669   4.383   5.888
 6705TIP3   OH220071   3.581   1.882   0.899
 6705TIP3    H120072   3.541   1.962   0.864
 6705TIP3    H220073   3.672   1.885   0.867
 6706TIP3   OH220074   8.300   5.183   5.092
 6706TIP3    H120075   8.209   5.181   5.063
 6706TIP3    H220076   8.324   5.276   5.090
 6707TIP3   OH220077   8.069   1.828   2.355
 6707TIP3    H120078   7.975   1.808   2.355
 6707TIP3    H220079   8.077   1.905   2.411
 6708TIP3   OH220080   0.650   5.586   5.868
 6708TIP3    H120081   0.727   5.591   5.812
 6708TIP3    H220082   0.612   5.673   5.864
 6709TIP3   OH220083   5.464   4.937   0.543
 6709TIP3    H120084   5.454   4.868   0.477
 6709TIP3    H220085   5.376   4.948   0.580
 6710TIP3   OH220086   0.548   1.110   5.213
 6710TIP3    H120087   0.541   1.085   5.305
 6710TIP3    H220088   0.531   1.204   5.212
 6711TIP3   OH220089   3.532   3.261   5.989
 6711TIP3    H120090   3.503   3.269   6.079
 6711TIP3    H220091   3.576   3.177   5.985
 6712TIP3   OH220092   2.146   2.213   4.433
 6712TIP3    H120093   2.170   2.122   4.455
 6712TIP3    H220094   2.057   2.207   4.399
 6713TIP3   OH220095   4.583   0.756   2.446
 6713TIP3    H120096   4.499   0.780   2.406
 6713TIP3    H220097   4.559   0.720   2.532
 6714TIP3   OH220098   0.440   2.006   3.379
 6714TIP3    H120099   0.372   1.949   3.342
 6714TIP3    H220100   0.454   1.971   3.467
 6715TIP3   OH220101   3.256   4.039   3.915
 6715TIP3    H120102   3.168   4.017   3.885
 6715TIP3    H220103   3.244   4.116   3.970
 6716TIP3   OH220104   3.053   7.722   4.252
 6716TIP3    H120105   3.095   7.776   4.318
 6716TIP3    H220106   3.063   7.632   4.285
 6717TIP3   OH220107   1.672   5.323   4.120
 6717TIP3    H120108   1.643   5.300   4.031
 6717TIP3    H220109   1.768   5.323   4.114
 6718TIP3   OH220110   3.377   6.438   6.527
 6718TIP3    H120111   3.463   6.410   6.557
 6718TIP3    H220112   3.381   6.430   6.431
 6719TIP3   OH220113   2.357   2.208   2.106
 6719TIP3    H120114   2.418   2.271   2.145
 6719TIP3    H220115   2.367   2.221   2.011
 6720TIP3   OH220116   5.939   1.330   4.409
 6720TIP3    H120117   5.935   1.401   4.345
 6720TIP3    H220118   5.854   1.287   4.401
 6721TIP3   OH220119   7.656   0.091   0.956
 6721TIP3    H120120   7.650   0.041   0.874
 6721TIP3    H220121   7.583   0.060   1.008
 6722TIP3   OH220122   7.200   7.609   0.133
 6722TIP3    H120123   7.179   7.518   0.111
 6722TIP3    H220124   7.209   7.608   0.229
 6723TIP3   OH220125   3.107   5.562   2.128
 6723TIP3    H120126   3.013   5.550   2.114
 6723TIP3    H220127   3.147   5.484   2.090
 6724TIP3   OH220128   7.106   7.530   5.328
 6724TIP3    H120129   7.012   7.548   5.326
 6724TIP3    H220130   7.120   7.488   5.413
 6725TIP3   OH220131   0.423   2.601   1.218
 6725TIP3    H120132   0.348   2.541   1.223
 6725TIP3    H220133   0.470   2.574   1.139
 6726TIP3   OH220134   1.364   6.196   4.154
 6726TIP3    H120135   1.449   6.155   4.168
 6726TIP3    H220136   1.383   6.289   4.143
 6727TIP3   OH220137   2.541   6.707   3.990
 6727TIP3    H120138   2.621   6.714   3.937
 6727TIP3    H220139   2.527   6.613   4.000
 6728TIP3   OH220140   6.501   5.171   3.456
 6728TIP3    H120141   6.526   5.080   3.442
 6728TIP3    H220142   6.528   5.191   3.545
 6729TIP3   OH220143   2.275   0.552   3.435
 6729TIP3    H120144   2.186   0.572   3.464
 6729TIP3    H220145   2.297   0.471   3.480
 6730TIP3   OH220146   8.184   6.732   6.366
 6730TIP3    H120147   8.162   6.702   6.278
 6730TIP3    H220148   8.266   6.689   6.387
 6731TIP3   OH220149   6.435   4.321   0.508
 6731TIP3    H120150   6.496   4.284   0.444
 6731TIP3    H220151   6.488   4.381   0.560
 6732TIP3   OH220152   4.195   5.726   5.324
 6732TIP3    H120153   4.109   5.748   5.361
 6732TIP3    H220154   4.221   5.646   5.371
 6733TIP3   OH220155   0.977   7.156   5.470
 6733TIP3    H120156   0.955   7.248   5.452
 6733TIP3    H220157   0.956   7.145   5.563
 6734TIP3   OH220158   3.346   4.567   1.200
 6734TIP3    H120159   3.300   4.490   1.167
 6734TIP3    H220160   3.285   4.639   1.185
 6735TIP3   OH220161   7.700   5.308   2.600
 6735TIP3    H120162   7.667   5.245   2.536
 6735TIP3    H220163   7.657   5.390   2.578
 6736TIP3   OH220164   5.373   3.848   1.639
 6736TIP3    H120165   5.446   3.907   1.617
 6736TIP3    H220166   5.405   3.761   1.617
 6737TIP3   OH220167   5.948   4.927   5.305
 6737TIP3    H120168   6.021   4.867   5.320
 6737TIP3    H220169   5.909   4.939   5.391
 6738TIP3   OH220170   2.808   4.778   0.057
 6738TIP3    H120171   2.722   4.819   0.048
 6738TIP3    H220172   2.835   4.758  -0.033
 6739TIP3   OH220173   2.293   4.458   2.612
 6739TIP3    H120174   2.343   4.379   2.630
 6739TIP3    H220175   2.242   4.437   2.534
 6740TIP3   OH220176   0.743   4.725   1.408
 6740TIP3    H120177   0.687   4.743   1.332
 6740TIP3    H220178   0.832   4.734   1.373
 6741TIP3   OH220179   2.785   6.701   6.291
 6741TIP3    H120180   2.880   6.694   6.291
 6741TIP3    H220181   2.760   6.693   6.383
 6742TIP3   OH220182   2.801   2.700   1.459
 6742TIP3    H120183   2.800   2.767   1.391
 6742TIP3    H220184   2.871   2.726   1.519
 6743TIP3   OH220185   2.516   4.691   4.847
 6743TIP3    H120186   2.430   4.711   4.885
 6743TIP3    H220187   2.498   4.626   4.779
 6744TIP3   OH220188   7.544   2.311   4.649
 6744TIP3    H120189   7.580   2.396   4.625
 6744TIP3    H220190   7.559   2.304   4.743
 6745TIP3   OH220191   2.267   1.118   1.185
 6745TIP3    H120192   2.223   1.062   1.122
 6745TIP3    H220193   2.218   1.105   1.267
 6746TIP3   OH220194   0.877   3.040   2.754
 6746TIP3    H120195   0.786   3.028   2.781
 6746TIP3    H220196   0.913   2.952   2.749
 6747TIP3   OH220197   6.917   7.151   3.346
 6747TIP3    H120198   6.983   7.221   3.342
 6747TIP3    H220199   6.896   7.132   3.255
 6748TIP3   OH220200   2.156   2.369   6.135
 6748TIP3    H120201   2.219   2.373   6.063
 6748TIP3    H220202   2.167   2.453   6.181
 6749TIP3   OH220203   0.257   2.806   6.314
 6749TIP3    H120204   0.275   2.827   6.222
 6749TIP3    H220205   0.281   2.713   6.322
 6750TIP3   OH220206   4.265   0.512   5.263
 6750TIP3    H120207   4.292   0.509   5.355
 6750TIP3    H220208   4.343   0.485   5.215
 6751TIP3   OH220209   0.822   4.506   3.988
 6751TIP3    H120210   0.820   4.483   3.896
 6751TIP3    H220211   0.914   4.526   4.006
 6752TIP3   OH220212   1.093   1.431   0.307
 6752TIP3    H120213   1.038   1.501   0.273
 6752TIP3    H220214   1.182   1.457   0.284
 6753TIP3   OH220215   7.543   5.178   2.419
 6753TIP3    H120216   7.498   5.122   2.482
 6753TIP3    H220217   7.495   5.166   2.337
 6754TIP3   OH220218   3.714   7.028   0.575
 6754TIP3    H120219   3.700   6.974   0.497
 6754TIP3    H220220   3.674   6.977   0.646
 6755TIP3   OH220221   4.420   5.430   4.648
 6755TIP3    H120222   4.417   5.470   4.735
 6755TIP3    H220223   4.362   5.354   4.655
 6756TIP3   OH220224   3.721   1.874   4.553
 6756TIP3    H120225   3.792   1.925   4.590
 6756TIP3    H220226   3.662   1.857   4.627
 6757TIP3   OH220227   8.043   5.566   5.091
 6757TIP3    H120228   7.983   5.504   5.134
 6757TIP3    H220229   8.014   5.652   5.122
 6758TIP3   OH220230   3.000   2.637   0.353
 6758TIP3    H120231   3.018   2.592   0.435
 6758TIP3    H220232   3.028   2.576   0.285
 6759TIP3   OH220233   5.111   0.143   4.073
 6759TIP3    H120234   5.033   0.184   4.036
 6759TIP3    H220235   5.126   0.065   4.019
 6760TIP3   OH220236   5.561   5.826   4.632
 6760TIP3    H120237   5.602   5.813   4.547
 6760TIP3    H220238   5.480   5.873   4.613
 6761TIP3   OH220239   1.943   3.618   1.979
 6761TIP3    H120240   1.940   3.662   1.894
 6761TIP3    H220241   2.028   3.643   2.016
 6762TIP3   OH220242   2.180   2.388   3.951
 6762TIP3    H120243   2.100   2.337   3.941
 6762TIP3    H220244   2.220   2.355   4.031
 6763TIP3   OH220245   7.913   3.391   1.945
 6763TIP3    H120246   8.007   3.383   1.957
 6763TIP3    H220247   7.876   3.320   1.998
 6764TIP3   OH220248   2.939   2.909   3.441
 6764TIP3    H120249   2.844   2.916   3.432
 6764TIP3    H220250   2.953   2.826   3.487
 6765TIP3   OH220251   2.018   5.108   4.321
 6765TIP3    H120252   2.021   5.196   4.360
 6765TIP3    H220253   2.043   5.050   4.393
 6766TIP3   OH220254   6.508   1.493   5.666
 6766TIP3    H120255   6.461   1.567   5.703
 6766TIP3    H220256   6.521   1.515   5.574
 6767TIP3   OH220257   1.994   4.786   0.310
 6767TIP3    H120258   2.026   4.860   0.258
 6767TIP3    H220259   1.976   4.824   0.397
 6768TIP3   OH220260   0.161   6.470   4.685
 6768TIP3    H120261   0.223   6.460   4.758
 6768TIP3    H220262   0.208   6.524   4.622
 6769TIP3   OH220263   1.846   6.506   0.390
 6769TIP3    H120264   1.853   6.601   0.385
 6769TIP3    H220265   1.751   6.489   0.393
 6770TIP3   OH220266   1.068   4.072   6.064
 6770TIP3    H120267   1.039   3.993   6.019
 6770TIP3    H220268   1.157   4.052   6.094
 6771TIP3   OH220269   3.831   3.752   5.315
 6771TIP3    H120270   3.756   3.810   5.330
 6771TIP3    H220271   3.898   3.785   5.375
 6772TIP3   OH220272   3.097   6.970   2.112
 6772TIP3    H120273   3.031   7.024   2.155
 6772TIP3    H220274   3.046   6.907   2.061
 6773TIP3   OH220275   3.663   5.050   4.300
 6773TIP3    H120276   3.666   5.086   4.212
 6773TIP3    H220277   3.754   5.055   4.332
 6774TIP3   OH220278   4.121   3.944   0.141
 6774TIP3    H120279   4.031   3.913   0.140
 6774TIP3    H220280   4.122   4.015   0.205
 6775TIP3   OH220281   7.420   7.556   2.693
 6775TIP3    H120282   7.436   7.463   2.711
 6775TIP3    H220283   7.503   7.599   2.711
 6776TIP3   OH220284   6.244   0.351   0.320
 6776TIP3    H120285   6.223   0.298   0.397
 6776TIP3    H220286   6.261   0.287   0.251
 6777TIP3   OH220287   3.636   5.359   3.036
 6777TIP3    H120288   3.699   5.288   3.029
 6777TIP3    H220289   3.570   5.327   3.098
 6778TIP3   OH220290   5.632   2.521   2.503
 6778TIP3    H120291   5.556   2.545   2.451
 6778TIP3    H220292   5.693   2.483   2.440
 6779TIP3   OH220293   3.909   2.402   1.120
 6779TIP3    H120294   3.967   2.409   1.196
 6779TIP3    H220295   3.944   2.465   1.057
 6780TIP3   OH220296   2.815   7.570   2.774
 6780TIP3    H120297   2.899   7.569   2.820
 6780TIP3    H220298   2.765   7.498   2.813
 6781TIP3   OH220299   0.632   6.517   4.716
 6781TIP3    H120300   0.694   6.533   4.644
 6781TIP3    H220301   0.570   6.454   4.680
 6782TIP3   OH220302   7.824   2.778   5.218
 6782TIP3    H120303   7.739   2.758   5.178
 6782TIP3    H220304   7.820   2.872   5.236
 6783TIP3   OH220305   7.682   5.287   6.511
 6783TIP3    H120306   7.601   5.298   6.561
 6783TIP3    H220307   7.748   5.333   6.563
 6784TIP3   OH220308   5.492   5.266   0.656
 6784TIP3    H120309   5.419   5.273   0.717
 6784TIP3    H220310   5.452   5.237   0.574
 6785TIP3   OH220311   3.714   6.801   0.403
 6785TIP3    H120312   3.703   6.720   0.452
 6785TIP3    H220313   3.793   6.786   0.350
 6786TIP3   OH220314   0.824   3.627   1.837
 6786TIP3    H120315   0.865   3.587   1.913
 6786TIP3    H220316   0.758   3.563   1.809
 6787TIP3   OH220317   1.927   0.554   2.911
 6787TIP3    H120318   2.004   0.515   2.954
 6787TIP3    H220319   1.882   0.480   2.872
 6788TIP3   OH220320   1.320   5.336   6.432
 6788TIP3    H120321   1.414   5.353   6.430
 6788TIP3    H220322   1.295   5.353   6.524
 6789TIP3   OH220323   7.132   5.379   3.336
 6789TIP3    H120324   7.188   5.455   3.355
 6789TIP3    H220325   7.069   5.411   3.272
 6790TIP3   OH220326   7.174   3.746   3.560
 6790TIP3    H120327   7.136   3.726   3.474
 6790TIP3    H220328   7.258   3.699   3.560
 6791TIP3   OH220329   5.353   2.000   3.041
 6791TIP3    H120330   5.349   2.096   3.047
 6791TIP3    H220331   5.267   1.971   3.070
 6792TIP3   OH220332   8.026   1.508   0.376
 6792TIP3    H120333   8.110   1.524   0.332
 6792TIP3    H220334   7.964   1.495   0.304
 6793TIP3   OH220335   6.279   5.603   0.755
 6793TIP3    H120336   6.363   5.571   0.721
 6793TIP3    H220337   6.293   5.697   0.769
 6794TIP3   OH220338   6.525   6.084   6.309
 6794TIP3    H120339   6.512   6.164   6.259
 6794TIP3    H220340   6.618   6.084   6.332
 6795TIP3   OH220341   8.036   2.471   0.109
 6795TIP3    H120342   7.976   2.403   0.138
 6795TIP3    H220343   8.092   2.428   0.044
 6796TIP3   OH220344   3.283   4.491   2.991
 6796TIP3    H120345   3.262   4.407   3.033
 6796TIP3    H220346   3.360   4.523   3.038
 6797TIP3   OH220347   3.719   2.554   5.070
 6797TIP3    H120348   3.798   2.599   5.041
 6797TIP3    H220349   3.649   2.618   5.059
 6798TIP3   OH220350   7.217   1.300   3.183
 6798TIP3    H120351   7.169   1.229   3.141
 6798TIP3    H220352   7.289   1.256   3.228
 6799TIP3   OH220353   1.269   0.119   1.699
 6799TIP3    H120354   1.270   0.212   1.675
 6799TIP3    H220355   1.202   0.113   1.766
 6800TIP3   OH220356   3.245   3.248   5.851
 6800TIP3    H120357   3.289   3.163   5.858
 6800TIP3    H220358   3.231   3.275   5.942
 6801TIP3   OH220359   7.305   0.138   5.033
 6801TIP3    H120360   7.339   0.177   5.114
 6801TIP3    H220361   7.237   0.200   5.004
 6802TIP3   OH220362   1.942   4.667   5.513
 6802TIP3    H120363   1.948   4.763   5.513
 6802TIP3    H220364   1.887   4.647   5.437
 6803TIP3   OH220365   7.994   3.186   5.008
 6803TIP3    H120366   7.965   3.198   4.918
 6803TIP3    H220367   8.066   3.248   5.018
 6804TIP3   OH220368   2.197   6.226   5.817
 6804TIP3    H120369   2.133   6.218   5.887
 6804TIP3    H220370   2.241   6.309   5.833
 6805TIP3   OH220371   3.379   0.017   1.857
 6805TIP3    H120372   3.404   0.057   1.940
 6805TIP3    H220373   3.388   0.087   1.792
 6806TIP3   OH220374   5.902   3.168   1.770
 6806TIP3    H120375   5.929   3.132   1.685
 6806TIP3    H220376   5.813   3.135   1.783
 6807TIP3   OH220377   1.469   5.273   1.916
 6807TIP3    H120378   1.401   5.257   1.982
 6807TIP3    H220379   1.513   5.189   1.907
 6808TIP3   OH220380   4.319   0.911   4.350
 6808TIP3    H120381   4.309   1.006   4.340
 6808TIP3    H220382   4.412   0.895   4.333
 6809TIP3   OH220383   3.956   1.221   1.282
 6809TIP3    H120384   4.046   1.228   1.315
 6809TIP3    H220385   3.906   1.279   1.339
 6810TIP3   OH220386   7.354   5.807   0.461
 6810TIP3    H120387   7.434   5.755   0.469
 6810TIP3    H220388   7.324   5.790   0.372
 6811TIP3   OH220389   6.616   1.358   6.066
 6811TIP3    H120390   6.532   1.397   6.091
 6811TIP3    H220391   6.632   1.390   5.977
 6812TIP3   OH220392   7.174   6.943   3.004
 6812TIP3    H120393   7.186   6.855   2.970
 6812TIP3    H220394   7.106   6.981   2.949
 6813TIP3   OH220395   3.441   7.794   0.790
 6813TIP3    H120396   3.401   7.752   0.866
 6813TIP3    H220397   3.371   7.846   0.751
 6814TIP3   OH220398   5.495   0.797   4.676
 6814TIP3    H120399   5.425   0.760   4.730
 6814TIP3    H220400   5.546   0.721   4.647
 6815TIP3   OH220401   5.686   7.274   3.176
 6815TIP3    H120402   5.614   7.321   3.134
 6815TIP3    H220403   5.689   7.309   3.265
 6816TIP3   OH220404   1.587   2.427   6.662
 6816TIP3    H120405   1.550   2.468   6.740
 6816TIP3    H220406   1.556   2.482   6.590
 6817TIP3   OH220407   4.118   7.669   0.606
 6817TIP3    H120408   4.120   7.696   0.514
 6817TIP3    H220409   4.070   7.740   0.650
 6818TIP3   OH220410   3.536   1.524   5.980
 6818TIP3    H120411   3.607   1.521   6.045
 6818TIP3    H220412   3.554   1.602   5.928
 6819TIP3   OH220413   1.396   4.703   0.705
 6819TIP3    H120414   1.464   4.741   0.761
 6819TIP3    H220415   1.414   4.739   0.618
 6820TIP3   OH220416   5.229   0.530   0.715
 6820TIP3    H120417   5.235   0.621   0.745
 6820TIP3    H220418   5.146   0.526   0.667
 6821TIP3   OH220419   2.073   1.253   0.555
 6821TIP3    H120420   1.978   1.250   0.567
 6821TIP3    H220421   2.105   1.177   0.603
 6822TIP3   OH220422   0.334   2.593   2.805
 6822TIP3    H120423   0.278   2.606   2.729
 6822TIP3    H220424   0.381   2.511   2.787
 6823TIP3   OH220425   4.398   0.878   4.680
 6823TIP3    H120426   4.373   0.787   4.695
 6823TIP3    H220427   4.322   0.917   4.635
 6824TIP3   OH220428   0.106   0.235   3.851
 6824TIP3    H120429   0.125   0.187   3.770
 6824TIP3    H220430   0.027   0.194   3.885
 6825TIP3   OH220431   0.218   0.007   4.395
 6825TIP3    H120432   0.133   0.037   4.363
 6825TIP3    H220433   0.214   0.020   4.489
 6826TIP3   OH220434   2.329   3.045   1.751
 6826TIP3    H120435   2.408   3.092   1.776
 6826TIP3    H220436   2.313   2.985   1.824
 6827TIP3   OH220437   7.041   2.098   4.705
 6827TIP3    H120438   7.052   2.093   4.610
 6827TIP3    H220439   7.109   2.158   4.735
 6828TIP3   OH220440   7.390   6.360   3.232
 6828TIP3    H120441   7.454   6.307   3.280
 6828TIP3    H220442   7.405   6.449   3.263
 6829TIP3   OH220443   4.935   1.898   1.877
 6829TIP3    H120444   4.939   1.966   1.810
 6829TIP3    H220445   5.013   1.913   1.930
 6830TIP3   OH220446   0.317   5.231   1.101
 6830TIP3    H120447   0.383   5.285   1.146
 6830TIP3    H220448   0.301   5.276   1.019
 6831TIP3   OH220449   5.657   5.070   2.804
 6831TIP3    H120450   5.664   5.022   2.721
 6831TIP3    H220451   5.566   5.055   2.832
 6832TIP3   OH220452   1.885   0.118   3.534
 6832TIP3    H120453   1.803   0.070   3.530
 6832TIP3    H220454   1.861   0.203   3.571
 6833TIP3   OH220455   7.141   7.022   6.007
 6833TIP3    H120456   7.115   7.114   6.010
 6833TIP3    H220457   7.227   7.020   6.048
 6834TIP3   OH220458   7.545   6.783   5.005
 6834TIP3    H120459   7.585   6.792   5.092
 6834TIP3    H220460   7.460   6.825   5.014
 6835TIP3   OH220461   3.395   1.087   6.194
 6835TIP3    H120462   3.419   1.157   6.256
 6835TIP3    H220463   3.419   1.122   6.108
 6836TIP3   OH220464   7.110   5.902   0.538
 6836TIP3    H120465   7.195   5.864   0.518
 6836TIP3    H220466   7.047   5.843   0.497
 6837TIP3   OH220467   6.069   3.697   2.768
 6837TIP3    H120468   6.149   3.680   2.720
 6837TIP3    H220469   6.021   3.614   2.764
 6838TIP3   OH220470   7.715   7.335   4.426
 6838TIP3    H120471   7.795   7.335   4.374
 6838TIP3    H220472   7.714   7.421   4.469
 6839TIP3   OH220473   6.783   0.378   5.107
 6839TIP3    H120474   6.867   0.417   5.130
 6839TIP3    H220475   6.792   0.350   5.016
 6840TIP3   OH220476   1.220   3.012   2.634
 6840TIP3    H120477   1.241   2.920   2.618
 6840TIP3    H220478   1.142   3.010   2.689
 6841TIP3   OH220479   7.963   5.865   1.104
 6841TIP3    H120480   8.023   5.841   1.174
 6841TIP3    H220481   7.893   5.799   1.108
 6842TIP3   OH220482   3.166   6.079   1.265
 6842TIP3    H120483   3.078   6.116   1.272
 6842TIP3    H220484   3.184   6.045   1.352
 6843TIP3   OH220485   0.257   1.132   1.922
 6843TIP3    H120486   0.262   1.166   2.011
 6843TIP3    H220487   0.326   1.179   1.875
 6844TIP3   OH220488   6.629   6.148   4.146
 6844TIP3    H120489   6.550   6.201   4.154
 6844TIP3    H220490   6.698   6.211   4.124
 6845TIP3   OH220491   2.728   6.559   0.071
 6845TIP3    H120492   2.794   6.516   0.017
 6845TIP3    H220493   2.666   6.489   0.094
 6846TIP3   OH220494   1.673   2.777   1.193
 6846TIP3    H120495   1.715   2.717   1.254
 6846TIP3    H220496   1.703   2.864   1.221
 6847TIP3   OH220497   5.749   1.228   0.531
 6847TIP3    H120498   5.710   1.146   0.498
 6847TIP3    H220499   5.836   1.231   0.491
 6848TIP3   OH220500   2.467   6.928   3.853
 6848TIP3    H120501   2.408   6.952   3.924
 6848TIP3    H220502   2.492   6.838   3.871
 6849TIP3   OH220503   7.014   3.546   0.676
 6849TIP3    H120504   7.086   3.609   0.676
 6849TIP3    H220505   6.997   3.528   0.584
 6850TIP3   OH220506   6.325   3.221   1.148
 6850TIP3    H120507   6.258   3.169   1.103
 6850TIP3    H220508   6.285   3.244   1.232
 6851TIP3   OH220509   4.751   2.686   5.196
 6851TIP3    H120510   4.721   2.620   5.133
 6851TIP3    H220511   4.816   2.640   5.249
 6852TIP3   OH220512   1.087   4.971   0.291
 6852TIP3    H120513   1.100   4.970   0.386
 6852TIP3    H220514   1.045   5.055   0.273
 6853TIP3   OH220515   4.122   2.210   5.403
 6853TIP3    H120516   4.053   2.167   5.452
 6853TIP3    H220517   4.203   2.170   5.436
 6854TIP3   OH220518   6.221   0.651   1.864
 6854TIP3    H120519   6.311   0.636   1.835
 6854TIP3    H220520   6.194   0.567   1.903
 6855TIP3   OH220521   5.037   1.743   4.868
 6855TIP3    H120522   5.126   1.767   4.893
 6855TIP3    H220523   5.017   1.665   4.921
 6856TIP3   OH220524   6.184   2.237   0.294
 6856TIP3    H120525   6.234   2.298   0.240
 6856TIP3    H220526   6.250   2.186   0.340
 6857TIP3   OH220527   0.068   0.888   4.306
 6857TIP3    H120528   0.041   0.907   4.396
 6857TIP3    H220529  -0.013   0.873   4.258
 6858TIP3   OH220530   1.283   3.303   2.348
 6858TIP3    H120531   1.191   3.278   2.343
 6858TIP3    H220532   1.326   3.229   2.391
 6859TIP3   OH220533   7.361   4.239   5.713
 6859TIP3    H120534   7.300   4.186   5.662
 6859TIP3    H220535   7.306   4.302   5.759
 6860TIP3   OH220536   6.710   4.126   5.615
 6860TIP3    H120537   6.637   4.118   5.677
 6860TIP3    H220538   6.751   4.210   5.636
 6861TIP3   OH220539   4.871   1.096   3.233
 6861TIP3    H120540   4.824   1.113   3.315
 6861TIP3    H220541   4.879   1.001   3.229
 6862TIP3   OH220542   4.955   5.670   2.673
 6862TIP3    H120543   5.041   5.710   2.683
 6862TIP3    H220544   4.900   5.712   2.739
 6863TIP3   OH220545   1.310   4.650   3.834
 6863TIP3    H120546   1.227   4.623   3.794
 6863TIP3    H220547   1.284   4.696   3.914
 6864TIP3   OH220548   2.806   7.583   0.910
 6864TIP3    H120549   2.826   7.513   0.848
 6864TIP3    H220550   2.846   7.555   0.992
 6865TIP3   OH220551   3.940   4.506   6.557
 6865TIP3    H120552   3.900   4.498   6.470
 6865TIP3    H220553   3.866   4.503   6.618
 6866TIP3   OH220554   4.989   2.530   5.336
 6866TIP3    H120555   5.043   2.593   5.384
 6866TIP3    H220556   5.010   2.446   5.376
 6867TIP3   OH220557   6.926   3.623   2.741
 6867TIP3    H120558   6.976   3.700   2.768
 6867TIP3    H220559   6.965   3.598   2.656
 6868TIP3   OH220560   6.424   3.872   5.262
 6868TIP3    H120561   6.422   3.952   5.314
 6868TIP3    H220562   6.514   3.841   5.269
 6869TIP3   OH220563   2.088   2.181   3.191
 6869TIP3    H120564   2.067   2.253   3.251
 6869TIP3    H220565   2.011   2.173   3.135
 6870TIP3   OH220566   0.308   0.487   0.460
 6870TIP3    H120567   0.249   0.502   0.386
 6870TIP3    H220568   0.279   0.549   0.527
 6871TIP3   OH220569   6.430   4.323   0.884
 6871TIP3    H120570   6.466   4.238   0.859
 6871TIP3    H220571   6.466   4.384   0.820
 6872TIP3   OH220572   4.784   7.413   6.404
 6872TIP3    H120573   4.764   7.338   6.349
 6872TIP3    H220574   4.847   7.465   6.354
 6873TIP3   OH220575   2.836   7.121   4.306
 6873TIP3    H120576   2.906   7.155   4.250
 6873TIP3    H220577   2.846   7.026   4.301
 6874TIP3   OH220578   7.923   4.285   0.776
 6874TIP3    H120579   7.948   4.238   0.696
 6874TIP3    H220580   7.888   4.369   0.745
 6875TIP3   OH220581   5.283   4.899   3.508
 6875TIP3    H120582   5.377   4.906   3.492
 6875TIP3    H220583   5.266   4.805   3.512
 6876TIP3   OH220584   0.292   2.001   0.881
 6876TIP3    H120585   0.241   1.987   0.802
 6876TIP3    H220586   0.377   2.033   0.849
 6877TIP3   OH220587   1.087   5.458   1.796
 6877TIP3    H120588   0.996   5.432   1.804
 6877TIP3    H220589   1.121   5.458   1.885
 6878TIP3   OH220590   7.389   1.731   0.932
 6878TIP3    H120591   7.410   1.693   0.847
 6878TIP3    H220592   7.400   1.659   0.994
 6879TIP3   OH220593   7.879   3.451   2.640
 6879TIP3    H120594   7.952   3.389   2.638
 6879TIP3    H220595   7.819   3.415   2.706
 6880TIP3   OH220596   2.211   6.403   1.057
 6880TIP3    H120597   2.136   6.382   1.111
 6880TIP3    H220598   2.214   6.498   1.054
 6881TIP3   OH220599   6.767   5.674   6.707
 6881TIP3    H120600   6.674   5.651   6.719
 6881TIP3    H220601   6.772   5.706   6.617
 6882TIP3   OH220602   4.171   3.877   0.524
 6882TIP3    H120603   4.257   3.845   0.499
 6882TIP3    H220604   4.111   3.841   0.459
 6883TIP3   OH220605   1.249   3.576   1.634
 6883TIP3    H120606   1.227   3.664   1.663
 6883TIP3    H220607   1.277   3.587   1.543
 6884TIP3   OH220608   1.358   4.324   3.550
 6884TIP3    H120609   1.308   4.403   3.534
 6884TIP3    H220610   1.437   4.354   3.595
 6885TIP3   OH220611   4.047   7.463   2.229
 6885TIP3    H120612   4.116   7.438   2.167
 6885TIP3    H220613   3.973   7.407   2.206
 6886TIP3   OH220614   0.731   6.066   5.082
 6886TIP3    H120615   0.704   5.981   5.047
 6886TIP3    H220616   0.649   6.110   5.103
 6887TIP3   OH220617   2.603   2.336   1.308
 6887TIP3    H120618   2.556   2.261   1.345
 6887TIP3    H220619   2.694   2.309   1.304
 6888TIP3   OH220620   1.381   5.156   4.478
 6888TIP3    H120621   1.430   5.224   4.432
 6888TIP3    H220622   1.407   5.074   4.434
 6889TIP3   OH220623   5.465   1.395   5.403
 6889TIP3    H120624   5.457   1.482   5.442
 6889TIP3    H220625   5.418   1.337   5.463
 6890TIP3   OH220626   5.690   0.973   2.441
 6890TIP3    H120627   5.753   1.027   2.489
 6890TIP3    H220628   5.682   0.893   2.492
 6891TIP3   OH220629   7.257   5.856   2.383
 6891TIP3    H120630   7.193   5.886   2.447
 6891TIP3    H220631   7.335   5.836   2.434
 6892TIP3   OH220632   7.533   0.664   0.406
 6892TIP3    H120633   7.441   0.682   0.424
 6892TIP3    H220634   7.580   0.735   0.449
 6893TIP3   OH220635   5.804   0.374   3.985
 6893TIP3    H120636   5.826   0.428   4.061
 6893TIP3    H220637   5.715   0.343   4.002
 6894TIP3   OH220638   2.388   5.443   5.553
 6894TIP3    H120639   2.365   5.435   5.646
 6894TIP3    H220640   2.380   5.537   5.534
 6895TIP3   OH220641   6.959   1.986   0.294
 6895TIP3    H120642   6.954   1.940   0.210
 6895TIP3    H220643   7.044   2.030   0.292
 6896TIP3   OH220644   0.588   7.751   2.746
 6896TIP3    H120645   0.532   7.731   2.671
 6896TIP3    H220646   0.560   7.689   2.814
 6897TIP3   OH220647   4.028   3.937   5.944
 6897TIP3    H120648   3.981   4.018   5.923
 6897TIP3    H220649   4.050   3.946   6.037
 6898TIP3   OH220650   4.633   6.451   6.713
 6898TIP3    H120651   4.623   6.401   6.632
 6898TIP3    H220652   4.609   6.540   6.689
 6899TIP3   OH220653   1.923   2.221   0.037
 6899TIP3    H120654   1.886   2.158   0.099
 6899TIP3    H220655   1.861   2.294   0.037
 6900TIP3   OH220656   0.364   5.509   1.841
 6900TIP3    H120657   0.271   5.513   1.823
 6900TIP3    H220658   0.394   5.600   1.840
 6901TIP3   OH220659   5.695   4.536   5.653
 6901TIP3    H120660   5.666   4.564   5.740
 6901TIP3    H220661   5.706   4.441   5.661
 6902TIP3   OH220662   4.517   1.373   3.504
 6902TIP3    H120663   4.534   1.396   3.596
 6902TIP3    H220664   4.423   1.354   3.501
 6903TIP3   OH220665   3.653   1.192   2.153
 6903TIP3    H120666   3.582   1.219   2.211
 6903TIP3    H220667   3.632   1.232   2.069
 6904TIP3   OH220668   6.306   4.318   6.241
 6904TIP3    H120669   6.365   4.338   6.313
 6904TIP3    H220670   6.245   4.253   6.277
 6905TIP3   OH220671   4.109   0.205   6.691
 6905TIP3    H120672   4.191   0.190   6.644
 6905TIP3    H220673   4.042   0.168   6.634
 6906TIP3   OH220674   4.154   3.602   5.766
 6906TIP3    H120675   4.080   3.638   5.717
 6906TIP3    H220676   4.133   3.510   5.780
 6907TIP3   OH220677   0.362   1.874   1.888
 6907TIP3    H120678   0.432   1.838   1.834
 6907TIP3    H220679   0.333   1.800   1.942
 6908TIP3   OH220680   5.342   6.442   2.937
 6908TIP3    H120681   5.308   6.526   2.906
 6908TIP3    H220682   5.268   6.382   2.931
 6909TIP3   OH220683   8.185   3.344   1.986
 6909TIP3    H120684   8.280   3.358   1.991
 6909TIP3    H220685   8.163   3.306   2.071
 6910TIP3   OH220686   3.595   7.054   6.009
 6910TIP3    H120687   3.661   7.018   5.950
 6910TIP3    H220688   3.638   7.128   6.051
 6911TIP3   OH220689   8.181   6.133   0.742
 6911TIP3    H120690   8.160   6.099   0.829
 6911TIP3    H220691   8.195   6.055   0.688
 6912TIP3   OH220692   4.386   6.786   0.949
 6912TIP3    H120693   4.373   6.697   0.980
 6912TIP3    H220694   4.306   6.833   0.973
 6913TIP3   OH220695   3.119   6.125   4.344
 6913TIP3    H120696   3.085   6.147   4.257
 6913TIP3    H220697   3.110   6.206   4.395
 6914TIP3   OH220698   3.788   5.888   3.628
 6914TIP3    H120699   3.744   5.865   3.710
 6914TIP3    H220700   3.766   5.816   3.569
 6915TIP3   OH220701   2.423   6.576   0.682
 6915TIP3    H120702   2.479   6.510   0.641
 6915TIP3    H220703   2.418   6.647   0.617
 6916TIP3   OH220704   7.293   2.897   0.302
 6916TIP3    H120705   7.299   2.947   0.221
 6916TIP3    H220706   7.214   2.931   0.345
 6917TIP3   OH220707   2.169   0.401   0.435
 6917TIP3    H120708   2.253   0.388   0.481
 6917TIP3    H220709   2.146   0.491   0.455
 6918TIP3   OH220710   6.802   3.817   6.052
 6918TIP3    H120711   6.763   3.749   6.107
 6918TIP3    H220712   6.747   3.818   5.973
 6919TIP3   OH220713   5.510   5.742   1.195
 6919TIP3    H120714   5.459   5.676   1.244
 6919TIP3    H220715   5.483   5.825   1.233
 6920TIP3   OH220716   1.742   7.276   4.846
 6920TIP3    H120717   1.744   7.240   4.757
 6920TIP3    H220718   1.688   7.215   4.895
 6921TIP3   OH220719   0.949   7.558   4.385
 6921TIP3    H120720   1.001   7.619   4.333
 6921TIP3    H220721   0.894   7.613   4.440
 6922TIP3   OH220722   0.319   1.497   0.185
 6922TIP3    H120723   0.239   1.452   0.212
 6922TIP3    H220724   0.390   1.443   0.218
 6923TIP3   OH220725   6.728   5.552   3.085
 6923TIP3    H120726   6.638   5.536   3.112
 6923TIP3    H220727   6.781   5.504   3.149
 6924TIP3   OH220728   5.760   4.938   5.892
 6924TIP3    H120729   5.853   4.944   5.912
 6924TIP3    H220730   5.722   5.017   5.931
 6925TIP3   OH220731   0.452   5.763   3.701
 6925TIP3    H120732   0.431   5.826   3.770
 6925TIP3    H220733   0.528   5.802   3.656
 6926TIP3   OH220734   4.375   2.022   5.428
 6926TIP3    H120735   4.447   2.053   5.374
 6926TIP3    H220736   4.380   1.926   5.422
 6927TIP3   OH220737   2.557   3.478   6.259
 6927TIP3    H120738   2.553   3.574   6.259
 6927TIP3    H220739   2.470   3.450   6.229
 6928TIP3   OH220740   4.376   2.119   4.355
 6928TIP3    H120741   4.334   2.156   4.278
 6928TIP3    H220742   4.312   2.132   4.425
 6929TIP3   OH220743   7.185   4.225   1.174
 6929TIP3    H120744   7.098   4.216   1.136
 6929TIP3    H220745   7.213   4.313   1.152
 6930TIP3   OH220746   3.374   0.465   1.569
 6930TIP3    H120747   3.440   0.395   1.560
 6930TIP3    H220748   3.397   0.528   1.501
 6931TIP3   OH220749   1.977   7.548   3.359
 6931TIP3    H120750   2.043   7.556   3.428
 6931TIP3    H220751   2.027   7.535   3.279
 6932TIP3   OH220752   8.069   3.527   0.324
 6932TIP3    H120753   8.161   3.530   0.298
 6932TIP3    H220754   8.026   3.481   0.252
 6933TIP3   OH220755   5.003   2.697   2.598
 6933TIP3    H120756   5.013   2.791   2.582
 6933TIP3    H220757   4.913   2.678   2.572
 6934TIP3   OH220758   2.244   2.405   3.401
 6934TIP3    H120759   2.297   2.466   3.350
 6934TIP3    H220760   2.296   2.386   3.479
 6935TIP3   OH220761   5.251   6.482   3.560
 6935TIP3    H120762   5.329   6.489   3.503
 6935TIP3    H220763   5.179   6.509   3.504
 6936TIP3   OH220764   6.218   6.156   4.186
 6936TIP3    H120765   6.135   6.189   4.151
 6936TIP3    H220766   6.197   6.127   4.275
 6937TIP3   OH220767   2.815   6.698   5.769
 6937TIP3    H120768   2.759   6.652   5.831
 6937TIP3    H220769   2.840   6.632   5.705
 6938TIP3   OH220770   3.028   7.816   0.437
 6938TIP3    H120771   3.017   7.868   0.517
 6938TIP3    H220772   3.036   7.726   0.469
 6939TIP3   OH220773   1.878   6.560   6.460
 6939TIP3    H120774   1.800   6.555   6.515
 6939TIP3    H220775   1.951   6.553   6.522
 6940TIP3   OH220776   2.086   6.960   2.813
 6940TIP3    H120777   2.073   7.054   2.827
 6940TIP3    H220778   2.017   6.919   2.865
 6941TIP3   OH220779   0.124   2.398   0.057
 6941TIP3    H120780   0.093   2.458   0.125
 6941TIP3    H220781   0.089   2.435  -0.024
 6942TIP3   OH220782   3.876   4.602   3.738
 6942TIP3    H120783   3.893   4.630   3.648
 6942TIP3    H220784   3.856   4.509   3.731
 6943TIP3   OH220785   5.375   2.133   0.479
 6943TIP3    H120786   5.343   2.190   0.408
 6943TIP3    H220787   5.414   2.194   0.542
 6944TIP3   OH220788   4.345   6.249   1.531
 6944TIP3    H120789   4.373   6.224   1.619
 6944TIP3    H220790   4.423   6.235   1.477
 6945TIP3   OH220791   5.986   1.837   1.869
 6945TIP3    H120792   6.009   1.897   1.940
 6945TIP3    H220793   6.047   1.859   1.799
 6946TIP3   OH220794   1.289   5.305   1.267
 6946TIP3    H120795   1.306   5.388   1.222
 6946TIP3    H220796   1.361   5.297   1.330
 6947TIP3   OH220797   5.855   2.390   6.021
 6947TIP3    H120798   5.943   2.372   5.989
 6947TIP3    H220799   5.801   2.391   5.942
 6948TIP3   OH220800   6.631   3.951   4.788
 6948TIP3    H120801   6.659   3.975   4.876
 6948TIP3    H220802   6.713   3.943   4.738
 6949TIP3   OH220803   2.783   2.693   5.782
 6949TIP3    H120804   2.831   2.654   5.855
 6949TIP3    H220805   2.692   2.694   5.811
 6950TIP3   OH220806   4.167   5.233   1.240
 6950TIP3    H120807   4.231   5.170   1.207
 6950TIP3    H220808   4.180   5.234   1.335
 6951TIP3   OH220809   1.034   6.980   1.529
 6951TIP3    H120810   1.031   6.890   1.498
 6951TIP3    H220811   0.969   7.026   1.475
 6952TIP3   OH220812   4.597   1.363   0.476
 6952TIP3    H120813   4.530   1.361   0.408
 6952TIP3    H220814   4.677   1.390   0.430
 6953TIP3   OH220815   3.917   6.773   1.365
 6953TIP3    H120816   3.904   6.722   1.445
 6953TIP3    H220817   3.992   6.830   1.386
 6954TIP3   OH220818   6.200   3.136   0.552
 6954TIP3    H120819   6.248   3.132   0.469
 6954TIP3    H220820   6.108   3.142   0.526
 6955TIP3   OH220821   4.181   3.385   1.704
 6955TIP3    H120822   4.251   3.389   1.639
 6955TIP3    H220823   4.213   3.438   1.778
 6956TIP3   OH220824   2.804   2.972   5.784
 6956TIP3    H120825   2.764   2.995   5.700
 6956TIP3    H220826   2.809   2.877   5.783
 6957TIP3   OH220827   2.144   3.348   3.207
 6957TIP3    H120828   2.223   3.387   3.169
 6957TIP3    H220829   2.176   3.302   3.284
 6958TIP3   OH220830   3.842   4.736   1.891
 6958TIP3    H120831   3.841   4.641   1.874
 6958TIP3    H220832   3.754   4.765   1.865
 6959TIP3   OH220833   4.753   6.553   1.867
 6959TIP3    H120834   4.745   6.607   1.788
 6959TIP3    H220835   4.665   6.556   1.906
 6960TIP3   OH220836   7.258   2.880   2.508
 6960TIP3    H120837   7.277   2.966   2.470
 6960TIP3    H220838   7.162   2.875   2.509
 6961TIP3   OH220839   4.413   3.054   0.928
 6961TIP3    H120840   4.446   2.982   0.981
 6961TIP3    H220841   4.318   3.049   0.937
 6962TIP3   OH220842   3.118   2.048   4.560
 6962TIP3    H120843   3.053   2.103   4.516
 6962TIP3    H220844   3.131   1.974   4.500
 6963TIP3   OH220845   7.848   5.697   3.181
 6963TIP3    H120846   7.753   5.690   3.175
 6963TIP3    H220847   7.865   5.791   3.184
 6964TIP3   OH220848   4.970   1.871   4.593
 6964TIP3    H120849   4.916   1.928   4.647
 6964TIP3    H220850   5.040   1.842   4.651
 6965TIP3   OH220851   5.536   4.766   3.760
 6965TIP3    H120852   5.481   4.844   3.770
 6965TIP3    H220853   5.596   4.788   3.689
 6966TIP3   OH220854   6.437   5.953   0.473
 6966TIP3    H120855   6.496   5.939   0.548
 6966TIP3    H220856   6.442   5.871   0.424
 6967TIP3   OH220857   8.245   4.818   0.172
 6967TIP3    H120858   8.199   4.881   0.227
 6967TIP3    H220859   8.189   4.809   0.095
 6968TIP3   OH220860   2.474   6.659   4.352
 6968TIP3    H120861   2.535   6.718   4.397
 6968TIP3    H220862   2.514   6.573   4.361
 6969TIP3   OH220863   1.412   3.853   2.199
 6969TIP3    H120864   1.381   3.943   2.200
 6969TIP3    H220865   1.435   3.835   2.290
 6970TIP3   OH220866   1.759   5.728   3.274
 6970TIP3    H120867   1.852   5.751   3.282
 6970TIP3    H220868   1.722   5.800   3.223
 6971TIP3   OH220869   2.907   0.656   5.960
 6971TIP3    H120870   2.874   0.572   5.927
 6971TIP3    H220871   2.987   0.632   6.007
 6972TIP3   OH220872   5.327   1.286   6.014
 6972TIP3    H120873   5.381   1.243   6.080
 6972TIP3    H220874   5.250   1.230   6.005
 6973TIP3   OH220875   3.839   0.632   4.990
 6973TIP3    H120876   3.899   0.613   5.062
 6973TIP3    H220877   3.752   0.619   5.027
 6974TIP3   OH220878   5.453   2.955   2.410
 6974TIP3    H120879   5.393   3.004   2.353
 6974TIP3    H220880   5.435   2.988   2.498
 6975TIP3   OH220881   6.747   6.856   1.652
 6975TIP3    H120882   6.675   6.907   1.615
 6975TIP3    H220883   6.826   6.903   1.626
 6976TIP3   OH220884   0.376   1.355   1.394
 6976TIP3    H120885   0.352   1.377   1.485
 6976TIP3    H220886   0.461   1.396   1.381
 6977TIP3   OH220887   0.806   3.610   5.841
 6977TIP3    H120888   0.891   3.646   5.818
 6977TIP3    H220889   0.754   3.618   5.761
 6978TIP3   OH220890   0.656   7.572   0.940
 6978TIP3    H120891   0.597   7.500   0.916
 6978TIP3    H220892   0.728   7.565   0.878
 6979TIP3   OH220893   2.924   4.289   3.191
 6979TIP3    H120894   2.920   4.339   3.272
 6979TIP3    H220895   2.846   4.233   3.193
 6980TIP3   OH220896   5.174   2.088   1.700
 6980TIP3    H120897   5.145   2.093   1.609
 6980TIP3    H220898   5.178   2.179   1.729
 6981TIP3   OH220899   1.086   0.442   3.668
 6981TIP3    H120900   1.142   0.375   3.629
 6981TIP3    H220901   1.079   0.416   3.760
 6982TIP3   OH220902   5.820   3.041   4.361
 6982TIP3    H120903   5.798   2.977   4.428
 6982TIP3    H220904   5.914   3.031   4.347
 6983TIP3   OH220905   5.532   0.646   5.414
 6983TIP3    H120906   5.561   0.705   5.344
 6983TIP3    H220907   5.544   0.696   5.495
 6984TIP3   OH220908   0.409   7.296   3.612
 6984TIP3    H120909   0.377   7.386   3.602
 6984TIP3    H220910   0.475   7.302   3.681
 6985TIP3   OH220911   0.294   1.331   4.523
 6985TIP3    H120912   0.368   1.273   4.502
 6985TIP3    H220913   0.233   1.320   4.450
 6986TIP3   OH220914   3.412   5.779   2.542
 6986TIP3    H120915   3.375   5.736   2.619
 6986TIP3    H220916   3.402   5.715   2.472
 6987TIP3   OH220917   0.786   7.376   1.281
 6987TIP3    H120918   0.800   7.324   1.202
 6987TIP3    H220919   0.714   7.435   1.259
 6988TIP3   OH220920   4.068   2.580   6.105
 6988TIP3    H120921   4.112   2.528   6.038
 6988TIP3    H220922   4.138   2.630   6.147
 6989TIP3   OH220923   7.935   2.241   5.639
 6989TIP3    H120924   7.907   2.269   5.726
 6989TIP3    H220925   7.902   2.309   5.580
 6990TIP3   OH220926   1.368   1.243   0.993
 6990TIP3    H120927   1.346   1.329   1.030
 6990TIP3    H220928   1.405   1.194   1.067
 6991TIP3   OH220929   5.188   5.385   6.185
 6991TIP3    H120930   5.131   5.309   6.199
 6991TIP3    H220931   5.256   5.376   6.252
 6992TIP3   OH220932   8.005   0.861   6.515
 6992TIP3    H120933   8.050   0.781   6.544
 6992TIP3    H220934   8.025   0.868   6.422
 6993TIP3   OH220935   5.099   7.025   0.571
 6993TIP3    H120936   5.109   6.936   0.604
 6993TIP3    H220937   5.028   7.062   0.624
 6994TIP3   OH220938   2.918   3.049   1.405
 6994TIP3    H120939   2.907   2.986   1.334
 6994TIP3    H220940   2.958   2.999   1.476
 6995TIP3   OH220941   2.358   3.961   6.668
 6995TIP3    H120942   2.305   3.882   6.676
 6995TIP3    H220943   2.295   4.033   6.673
 6996TIP3   OH220944   1.216   1.974   6.281
 6996TIP3    H120945   1.230   1.906   6.216
 6996TIP3    H220946   1.288   2.036   6.268
 6997TIP3   OH220947   6.681   2.478   3.345
 6997TIP3    H120948   6.684   2.450   3.254
 6997TIP3    H220949   6.649   2.568   3.342
 6998TIP3   OH220950   0.456   3.681   3.696
 6998TIP3    H120951   0.409   3.738   3.634
 6998TIP3    H220952   0.387   3.642   3.749
 6999TIP3   OH220953   7.521   2.704   3.322
 6999TIP3    H120954   7.483   2.742   3.401
 6999TIP3    H220955   7.458   2.721   3.253
 7000TIP3   OH220956   3.983   6.417   1.545
 7000TIP3    H120957   3.931   6.380   1.473
 7000TIP3    H220958   4.058   6.458   1.501
 7001TIP3   OH220959   0.146   7.546   5.183
 7001TIP3    H120960   0.123   7.454   5.196
 7001TIP3    H220961   0.076   7.580   5.127
 7002TIP3   OH220962   3.391   1.689   0.830
 7002TIP3    H120963   3.474   1.733   0.849
 7002TIP3    H220964   3.408   1.596   0.846
 7003TIP3   OH220965   4.298   0.205   4.790
 7003TIP3    H120966   4.242   0.217   4.713
 7003TIP3    H220967   4.387   0.218   4.756
 7004TIP3   OH220968   0.944   4.570   2.288
 7004TIP3    H120969   0.974   4.489   2.328
 7004TIP3    H220970   0.870   4.598   2.343
 7005TIP3   OH220971   5.994   0.104   2.295
 7005TIP3    H120972   6.081   0.102   2.257
 7005TIP3    H220973   5.988   0.022   2.345
 7006TIP3   OH220974   2.346   1.988   6.759
 7006TIP3    H120975   2.251   1.986   6.759
 7006TIP3    H220976   2.370   1.999   6.667
 7007TIP3   OH220977   4.250   4.389   4.931
 7007TIP3    H120978   4.176   4.328   4.929
 7007TIP3    H220979   4.209   4.476   4.931
 7008TIP3   OH220980   4.749   6.769   6.184
 7008TIP3    H120981   4.773   6.680   6.156
 7008TIP3    H220982   4.823   6.823   6.157
 7009TIP3   OH220983   3.163   3.731   1.981
 7009TIP3    H120984   3.099   3.742   2.051
 7009TIP3    H220985   3.146   3.643   1.946
 7010TIP3   OH220986   0.325   2.208   3.033
 7010TIP3    H120987   0.404   2.163   3.062
 7010TIP3    H220988   0.260   2.187   3.100
 7011TIP3   OH220989   0.537   0.083   3.951
 7011TIP3    H120990   0.483   0.118   3.880
 7011TIP3    H220991   0.481   0.018   3.994
 7012TIP3   OH220992   0.154   0.251   3.424
 7012TIP3    H120993   0.196   0.327   3.465
 7012TIP3    H220994   0.157   0.183   3.490
 7013TIP3   OH220995   2.167   6.911   2.220
 7013TIP3    H120996   2.147   6.840   2.159
 7013TIP3    H220997   2.252   6.889   2.257
 7014TIP3   OH220998   7.045   7.587   2.429
 7014TIP3    H120999   6.980   7.613   2.495
 7014TIP3    H221000   7.013   7.626   2.348
 7015TIP3   OH221001   4.476   2.406   3.172
 7015TIP3    H121002   4.552   2.414   3.115
 7015TIP3    H221003   4.405   2.377   3.114
 7016TIP3   OH221004   4.845   1.327   0.135
 7016TIP3    H121005   4.778   1.325   0.067
 7016TIP3    H221006   4.866   1.420   0.146
 7017TIP3   OH221007   2.821   3.468   6.144
 7017TIP3    H121008   2.741   3.437   6.185
 7017TIP3    H221009   2.794   3.546   6.095
 7018TIP3   OH221010   6.041   4.871   0.423
 7018TIP3    H121011   5.982   4.938   0.386
 7018TIP3    H221012   6.095   4.844   0.349
 7019TIP3   OH221013   0.886   5.261   4.492
 7019TIP3    H121014   0.973   5.229   4.466
 7019TIP3    H221015   0.837   5.182   4.513
 7020TIP3   OH221016   8.075   5.941   2.619
 7020TIP3    H121017   8.147   5.943   2.556
 7020TIP3    H221018   8.056   6.033   2.637
 7021TIP3   OH221019   7.554   6.853   6.298
 7021TIP3    H121020   7.516   6.911   6.364
 7021TIP3    H221021   7.498   6.776   6.299
 7022TIP3   OH221022   1.908   4.577   5.237
 7022TIP3    H121023   1.826   4.550   5.279
 7022TIP3    H221024   1.913   4.524   5.157
 7023TIP3   OH221025   5.809   6.750   3.146
 7023TIP3    H121026   5.751   6.799   3.089
 7023TIP3    H221027   5.863   6.816   3.189
 7024TIP3   OH221028   5.018   2.332   2.748
 7024TIP3    H121029   5.094   2.379   2.714
 7024TIP3    H221030   4.943   2.373   2.705
 7025TIP3   OH221031   5.857   7.464   1.719
 7025TIP3    H121032   5.802   7.492   1.792
 7025TIP3    H221033   5.809   7.391   1.679
 7026TIP3   OH221034   6.247   0.627   0.259
 7026TIP3    H121035   6.254   0.650   0.352
 7026TIP3    H221036   6.158   0.595   0.249
 7027TIP3   OH221037   7.312   1.949   6.636
 7027TIP3    H121038   7.228   1.905   6.624
 7027TIP3    H221039   7.340   1.971   6.547
 7028TIP3   OH221040   2.257   5.496   2.163
 7028TIP3    H121041   2.290   5.415   2.201
 7028TIP3    H221042   2.165   5.478   2.143
 7029TIP3   OH221043  -0.037   7.309   4.847
 7029TIP3    H121044   0.028   7.278   4.909
 7029TIP3    H221045  -0.004   7.394   4.817
 7030TIP3   OH221046   0.178   1.257   4.253
 7030TIP3    H121047   0.094   1.212   4.264
 7030TIP3    H221048   0.236   1.189   4.217
 7031TIP3   OH221049   6.922   3.345   6.306
 7031TIP3    H121050   6.965   3.262   6.290
 7031TIP3    H221051   6.855   3.325   6.371
 7032TIP3   OH221052   1.272   6.895   5.658
 7032TIP3    H121053   1.311   6.811   5.636
 7032TIP3    H221054   1.195   6.902   5.602
 7033TIP3   OH221055   5.448   3.404   2.841
 7033TIP3    H121056   5.473   3.437   2.927
 7033TIP3    H221057   5.530   3.401   2.791
 7034TIP3   OH221058   5.595   4.915   0.177
 7034TIP3    H121059   5.603   4.965   0.096
 7034TIP3    H221060   5.527   4.850   0.158
 7035TIP3   OH221061   7.907   6.468   0.241
 7035TIP3    H121062   7.947   6.420   0.313
 7035TIP3    H221063   7.973   6.467   0.172
 7036TIP3   OH221064   2.298   3.517   0.714
 7036TIP3    H121065   2.256   3.430   0.708
 7036TIP3    H221066   2.292   3.540   0.806
 7037TIP3   OH221067   4.472   6.002   2.134
 7037TIP3    H121068   4.406   5.997   2.204
 7037TIP3    H221069   4.422   6.027   2.056
 7038TIP3   OH221070   6.036   4.456   2.561
 7038TIP3    H121071   6.093   4.498   2.497
 7038TIP3    H221072   6.048   4.507   2.641
 7039TIP3   OH221073   7.510   4.408   3.905
 7039TIP3    H121074   7.596   4.421   3.865
 7039TIP3    H221075   7.449   4.407   3.832
 7040TIP3   OH221076   1.438   0.446   0.024
 7040TIP3    H121077   1.478   0.406  -0.053
 7040TIP3    H221078   1.362   0.391   0.042
 7041TIP3   OH221079   2.865   0.422   5.102
 7041TIP3    H121080   2.906   0.452   5.021
 7041TIP3    H221081   2.878   0.494   5.164
 7042TIP3   OH221082   5.990   1.528   4.900
 7042TIP3    H121083   6.019   1.479   4.977
 7042TIP3    H221084   5.988   1.463   4.829
 7043TIP3   OH221085   4.648   7.272   1.429
 7043TIP3    H121086   4.564   7.296   1.392
 7043TIP3    H221087   4.678   7.350   1.475
 7044TIP3   OH221088   6.414   1.992   3.723
 7044TIP3    H121089   6.418   1.949   3.637
 7044TIP3    H221090   6.484   2.056   3.721
 7045TIP3   OH221091   5.073   2.467   3.582
 7045TIP3    H121092   5.031   2.434   3.504
 7045TIP3    H221093   5.012   2.533   3.616
 7046TIP3   OH221094   6.688   0.317   2.283
 7046TIP3    H121095   6.690   0.227   2.248
 7046TIP3    H221096   6.758   0.362   2.236
 7047TIP3   OH221097   2.815   6.040   4.706
 7047TIP3    H121098   2.910   6.049   4.710
 7047TIP3    H221099   2.781   6.111   4.761
 7048TIP3   OH221100   1.985   5.846   1.688
 7048TIP3    H121101   1.989   5.937   1.659
 7048TIP3    H221102   2.020   5.796   1.615
 7049TIP3   OH221103   1.406   6.862   2.086
 7049TIP3    H121104   1.490   6.823   2.063
 7049TIP3    H221105   1.363   6.796   2.140
 7050TIP3   OH221106   5.284   2.102   2.190
 7050TIP3    H121107   5.279   2.179   2.246
 7050TIP3    H221108   5.329   2.132   2.111
 7051TIP3   OH221109   0.720   0.240   1.999
 7051TIP3    H121110   0.774   0.320   1.998
 7051TIP3    H221111   0.778   0.173   2.034
 7052TIP3   OH221112   4.545   3.799   2.938
 7052TIP3    H121113   4.535   3.837   2.850
 7052TIP3    H221114   4.489   3.853   2.994
 7053TIP3   OH221115   4.078   0.907   0.625
 7053TIP3    H121116   4.130   0.874   0.552
 7053TIP3    H221117   4.141   0.953   0.681
 7054TIP3   OH221118   4.300   6.289   1.234
 7054TIP3    H121119   4.320   6.252   1.320
 7054TIP3    H221120   4.254   6.218   1.189
 7055TIP3   OH221121   0.933   5.201   1.862
 7055TIP3    H121122   0.915   5.187   1.769
 7055TIP3    H221123   0.855   5.170   1.907
 7056TIP3   OH221124   6.283   1.005   2.704
 7056TIP3    H121125   6.372   1.015   2.671
 7056TIP3    H221126   6.292   0.954   2.785
 7057TIP3   OH221127   6.367   6.256   6.147
 7057TIP3    H121128   6.405   6.276   6.062
 7057TIP3    H221129   6.356   6.341   6.189
 7058TIP3   OH221130   5.091   7.203   6.184
 7058TIP3    H121131   5.095   7.271   6.252
 7058TIP3    H221132   5.085   7.121   6.233
 7059TIP3   OH221133   0.129   1.725   5.946
 7059TIP3    H121134   0.148   1.807   5.901
 7059TIP3    H221135   0.210   1.674   5.936
 7060TIP3   OH221136   1.756   7.626   1.631
 7060TIP3    H121137   1.752   7.615   1.536
 7060TIP3    H221138   1.725   7.715   1.646
 7061TIP3   OH221139   7.319   1.496   1.948
 7061TIP3    H121140   7.246   1.544   1.909
 7061TIP3    H221141   7.397   1.547   1.924
 7062TIP3   OH221142   3.396   6.062   2.688
 7062TIP3    H121143   3.414   6.154   2.664
 7062TIP3    H221144   3.312   6.066   2.734
 7063TIP3   OH221145   1.071   4.047   5.455
 7063TIP3    H121146   1.072   4.125   5.511
 7063TIP3    H221147   0.999   4.062   5.394
 7064TIP3   OH221148   7.017   3.743   3.298
 7064TIP3    H121149   7.052   3.682   3.233
 7064TIP3    H221150   6.952   3.794   3.251
 7065TIP3   OH221151   6.274   3.240   6.805
 7065TIP3    H121152   6.267   3.144   6.810
 7065TIP3    H221153   6.184   3.270   6.791
 7066TIP3   OH221154   1.357   3.160   3.933
 7066TIP3    H121155   1.409   3.113   3.998
 7066TIP3    H221156   1.279   3.189   3.981
 7067TIP3   OH221157   1.889   1.954   4.859
 7067TIP3    H121158   1.969   1.928   4.813
 7067TIP3    H221159   1.918   1.978   4.947
 7068TIP3   OH221160   7.715   2.586   2.974
 7068TIP3    H121161   7.690   2.674   2.944
 7068TIP3    H221162   7.766   2.601   3.053
 7069TIP3   OH221163   8.127   4.772   3.149
 7069TIP3    H121164   8.208   4.721   3.157
 7069TIP3    H221165   8.106   4.797   3.238
 7070TIP3   OH221166   1.808   5.887   6.801
 7070TIP3    H121167   1.794   5.940   6.723
 7070TIP3    H221168   1.784   5.799   6.775
 7071TIP3   OH221169   1.736   2.941   0.489
 7071TIP3    H121170   1.659   2.942   0.545
 7071TIP3    H221171   1.769   2.851   0.495
 7072TIP3   OH221172   0.497   1.935   0.512
 7072TIP3    H121173   0.408   1.898   0.515
 7072TIP3    H221174   0.502   1.992   0.589
 7073TIP3   OH221175   1.497   0.481   2.651
 7073TIP3    H121176   1.556   0.407   2.634
 7073TIP3    H221177   1.430   0.444   2.708
 7074TIP3   OH221178   5.183   7.346   3.382
 7074TIP3    H121179   5.243   7.276   3.356
 7074TIP3    H221180   5.240   7.420   3.402
 7075TIP3   OH221181   5.167   0.066   5.705
 7075TIP3    H121182   5.225  -0.010   5.709
 7075TIP3    H221183   5.227   0.141   5.703
 7076TIP3   OH221184   0.763   0.123   3.726
 7076TIP3    H121185   0.726   0.200   3.770
 7076TIP3    H221186   0.690   0.085   3.677
 7077TIP3   OH221187   7.842   4.640   2.947
 7077TIP3    H121188   7.816   4.683   2.866
 7077TIP3    H221189   7.840   4.710   3.013
 7078TIP3   OH221190   6.417   4.854   0.971
 7078TIP3    H121191   6.427   4.852   1.066
 7078TIP3    H221192   6.468   4.930   0.943
 7079TIP3   OH221193   6.900   2.420   6.480
 7079TIP3    H121194   6.829   2.416   6.545
 7079TIP3    H221195   6.865   2.374   6.404
 7080TIP3   OH221196   2.607   1.573   0.155
 7080TIP3    H121197   2.567   1.561   0.069
 7080TIP3    H221198   2.567   1.653   0.189
 7081TIP3   OH221199   8.234   4.863   6.216
 7081TIP3    H121200   8.195   4.950   6.212
 7081TIP3    H221201   8.260   4.852   6.307
 7082TIP3   OH221202   5.582   0.877   1.270
 7082TIP3    H121203   5.551   0.864   1.180
 7082TIP3    H221204   5.579   0.971   1.284
 7083TIP3   OH221205   7.287   2.282   1.435
 7083TIP3    H121206   7.340   2.338   1.379
 7083TIP3    H221207   7.206   2.332   1.449
 7084TIP3   OH221208   3.288   0.467   2.778
 7084TIP3    H121209   3.298   0.372   2.783
 7084TIP3    H221210   3.360   0.496   2.721
 7085TIP3   OH221211   8.136   3.210   1.152
 7085TIP3    H121212   8.176   3.133   1.113
 7085TIP3    H221213   8.063   3.231   1.094
 7086TIP3   OH221214   3.349   7.417   2.041
 7086TIP3    H121215   3.352   7.417   1.945
 7086TIP3    H221216   3.256   7.419   2.062
 7087TIP3   OH221217   7.768   1.520   1.490
 7087TIP3    H121218   7.796   1.429   1.479
 7087TIP3    H221219   7.766   1.555   1.401
 7088TIP3   OH221220   6.092   0.807   1.373
 7088TIP3    H121221   6.063   0.840   1.287
 7088TIP3    H221222   6.133   0.723   1.353
 7089TIP3   OH221223   7.936   3.312   5.478
 7089TIP3    H121224   7.885   3.381   5.435
 7089TIP3    H221225   7.956   3.250   5.408
 7090TIP3   OH221226   1.731   6.855   3.494
 7090TIP3    H121227   1.694   6.930   3.448
 7090TIP3    H221228   1.825   6.863   3.481
 7091TIP3   OH221229   0.269   5.942   5.811
 7091TIP3    H121230   0.181   5.953   5.847
 7091TIP3    H221231   0.293   5.851   5.832
 7092TIP3   OH221232   2.203   6.128   1.701
 7092TIP3    H121233   2.179   6.201   1.645
 7092TIP3    H221234   2.247   6.066   1.643
 7093TIP3   OH221235   3.041   7.109   1.030
 7093TIP3    H121236   3.133   7.118   1.056
 7093TIP3    H221237   2.995   7.091   1.112
 7094TIP3   OH221238   0.590   0.342   3.897
 7094TIP3    H121239   0.580   0.261   3.947
 7094TIP3    H221240   0.524   0.400   3.932
 7095TIP3   OH221241   2.562   1.185   1.295
 7095TIP3    H121242   2.486   1.199   1.239
 7095TIP3    H221243   2.561   1.260   1.355
 7096TIP3   OH221244   5.700   3.760   0.175
 7096TIP3    H121245   5.716   3.795   0.088
 7096TIP3    H221246   5.784   3.721   0.201
 7097TIP3   OH221247   1.809   2.235   6.691
 7097TIP3    H121248   1.795   2.166   6.626
 7097TIP3    H221249   1.755   2.308   6.661
 7098TIP3   OH221250   0.537   2.049   3.063
 7098TIP3    H121251   0.591   2.056   2.985
 7098TIP3    H221252   0.570   1.971   3.108
 7099TIP3   OH221253   7.410   7.501   3.315
 7099TIP3    H121254   7.473   7.571   3.333
 7099TIP3    H221255   7.365   7.488   3.399
 7100TIP3   OH221256   8.222   5.900   0.579
 7100TIP3    H121257   8.259   5.902   0.491
 7100TIP3    H221258   8.184   5.813   0.587
 7101TIP3   OH221259   5.993   6.535   0.534
 7101TIP3    H121260   6.005   6.608   0.474
 7101TIP3    H221261   6.065   6.475   0.512
 7102TIP3   OH221262   1.257   3.437   1.236
 7102TIP3    H121263   1.297   3.516   1.272
 7102TIP3    H221264   1.292   3.431   1.147
 7103TIP3   OH221265   0.474   3.115   0.980
 7103TIP3    H121266   0.567   3.132   0.968
 7103TIP3    H221267   0.456   3.041   0.922
 7104TIP3   OH221268   3.479   4.982   0.251
 7104TIP3    H121269   3.426   4.903   0.259
 7104TIP3    H221270   3.431   5.049   0.298
 7105TIP3   OH221271   6.453   7.283   6.318
 7105TIP3    H121272   6.442   7.232   6.399
 7105TIP3    H221273   6.411   7.230   6.251
 7106TIP3   OH221274   4.496   0.705   1.786
 7106TIP3    H121275   4.586   0.721   1.813
 7106TIP3    H221276   4.477   0.616   1.814
 7107TIP3   OH221277   7.694   3.964   0.820
 7107TIP3    H121278   7.743   3.919   0.751
 7107TIP3    H221279   7.636   3.898   0.856
 7108TIP3   OH221280   4.051   1.908   4.856
 7108TIP3    H121281   3.970   1.955   4.874
 7108TIP3    H221282   4.069   1.858   4.936
 7109TIP3   OH221283   2.761   5.207   6.435
 7109TIP3    H121284   2.780   5.115   6.453
 7109TIP3    H221285   2.845   5.244   6.408
 7110TIP3   OH221286   5.050   6.628   4.312
 7110TIP3    H121287   5.137   6.589   4.309
 7110TIP3    H221288   4.996   6.571   4.257
 7111TIP3   OH221289   7.083   2.999   0.753
 7111TIP3    H121290   7.056   3.071   0.810
 7111TIP3    H221291   7.139   3.041   0.687
 7112TIP3   OH221292   3.505   5.854   2.077
 7112TIP3    H121293   3.479   5.881   2.166
 7112TIP3    H221294   3.560   5.926   2.046
 7113TIP3   OH221295   2.365   7.074   6.202
 7113TIP3    H121296   2.361   7.073   6.298
 7113TIP3    H221297   2.358   7.166   6.179
 7114TIP3   OH221298   5.910   1.963   4.068
 7114TIP3    H121299   5.846   2.024   4.106
 7114TIP3    H221300   5.995   2.004   4.084
 7115TIP3   OH221301   2.947   0.153   0.449
 7115TIP3    H121302   3.024   0.162   0.392
 7115TIP3    H221303   2.951   0.229   0.507
 7116TIP3   OH221304   3.492   3.492   5.039
 7116TIP3    H121305   3.533   3.512   5.124
 7116TIP3    H221306   3.564   3.464   4.983
 7117TIP3   OH221307   7.801   0.240   3.331
 7117TIP3    H121308   7.714   0.211   3.303
 7117TIP3    H221309   7.841   0.162   3.369
 7118TIP3   OH221310   7.329   6.035   4.003
 7118TIP3    H121311   7.332   6.016   4.097
 7118TIP3    H221312   7.249   5.992   3.973
 7119TIP3   OH221313   3.083   2.745   4.750
 7119TIP3    H121314   3.114   2.780   4.834
 7119TIP3    H221315   3.088   2.819   4.690
 7120TIP3   OH221316   1.643   5.370   0.847
 7120TIP3    H121317   1.713   5.420   0.805
 7120TIP3    H221318   1.684   5.289   0.875
 7121TIP3   OH221319   7.674   7.835   2.420
 7121TIP3    H121320   7.599   7.791   2.379
 7121TIP3    H221321   7.717   7.879   2.347
 7122TIP3   OH221322   8.039   6.694   1.089
 7122TIP3    H121323   8.000   6.618   1.046
 7122TIP3    H221324   7.965   6.752   1.107
 7123TIP3   OH221325   3.007   6.970   3.347
 7123TIP3    H121326   3.044   7.035   3.287
 7123TIP3    H221327   2.952   6.915   3.292
 7124TIP3   OH221328   7.728   3.284   2.123
 7124TIP3    H121329   7.648   3.247   2.160
 7124TIP3    H221330   7.760   3.345   2.189
 7125TIP3   OH221331   8.148   4.522   5.564
 7125TIP3    H121332   8.230   4.473   5.560
 7125TIP3    H221333   8.175   4.614   5.562
 7126TIP3   OH221334   0.744   4.680   0.797
 7126TIP3    H121335   0.811   4.614   0.817
 7126TIP3    H221336   0.669   4.655   0.851
 7127TIP3   OH221337   0.898   2.956   5.897
 7127TIP3    H121338   0.989   2.946   5.871
 7127TIP3    H221339   0.865   2.867   5.904
 7128TIP3   OH221340   7.186   1.884   2.891
 7128TIP3    H121341   7.162   1.844   2.808
 7128TIP3    H221342   7.110   1.936   2.916
 7129TIP3   OH221343   6.601   4.447   3.424
 7129TIP3    H121344   6.618   4.528   3.375
 7129TIP3    H221345   6.518   4.415   3.389
 7130TIP3   OH221346   1.058   7.378   4.114
 7130TIP3    H121347   1.043   7.449   4.176
 7130TIP3    H221348   1.080   7.422   4.032
 7131TIP3   OH221349   5.633   1.091   2.740
 7131TIP3    H121350   5.573   1.038   2.792
 7131TIP3    H221351   5.689   1.026   2.695
 7132TIP3   OH221352   0.985   1.052   4.029
 7132TIP3    H121353   0.931   1.078   4.103
 7132TIP3    H221354   0.983   1.127   3.970
 7133TIP3   OH221355   2.731   7.201   4.984
 7133TIP3    H121356   2.653   7.221   5.036
 7133TIP3    H221357   2.700   7.203   4.893
 7134TIP3   OH221358   1.711   3.652   4.311
 7134TIP3    H121359   1.628   3.687   4.344
 7134TIP3    H221360   1.694   3.637   4.218
 7135TIP3   OH221361   7.688   1.541   2.712
 7135TIP3    H121362   7.747   1.575   2.645
 7135TIP3    H221363   7.641   1.470   2.669
 7136TIP3   OH221364   3.133   6.913   6.265
 7136TIP3    H121365   3.204   6.933   6.204
 7136TIP3    H221366   3.128   6.991   6.321
 7137TIP3   OH221367   3.964   1.281   4.533
 7137TIP3    H121368   3.887   1.325   4.497
 7137TIP3    H221369   4.008   1.348   4.585
 7138TIP3   OH221370   4.525   3.393   2.631
 7138TIP3    H121371   4.560   3.480   2.646
 7138TIP3    H221372   4.495   3.394   2.540
 7139TIP3   OH221373   5.872   3.449   3.598
 7139TIP3    H121374   5.792   3.496   3.621
 7139TIP3    H221375   5.919   3.439   3.680
 7140TIP3   OH221376   1.507   2.315   4.596
 7140TIP3    H121377   1.571   2.246   4.580
 7140TIP3    H221378   1.451   2.280   4.667
 7141TIP3   OH221379   5.813   2.410   2.293
 7141TIP3    H121380   5.849   2.366   2.217
 7141TIP3    H221381   5.831   2.352   2.367
 7142TIP3   OH221382   4.979   1.862   4.328
 7142TIP3    H121383   4.991   1.873   4.422
 7142TIP3    H221384   5.065   1.833   4.297
 7143TIP3   OH221385   0.598   1.449   1.051
 7143TIP3    H121386   0.660   1.452   1.124
 7143TIP3    H221387   0.650   1.421   0.976
 7144TIP3   OH221388   2.163   3.710   5.068
 7144TIP3    H121389   2.189   3.787   5.119
 7144TIP3    H221390   2.226   3.706   4.996
 7145TIP3   OH221391   5.679   1.216   3.502
 7145TIP3    H121392   5.612   1.253   3.446
 7145TIP3    H221393   5.742   1.287   3.516
 7146TIP3   OH221394   6.942   6.523   2.946
 7146TIP3    H121395   6.871   6.587   2.951
 7146TIP3    H221396   6.898   6.439   2.935
 7147TIP3   OH221397   6.664   3.750   3.792
 7147TIP3    H121398   6.695   3.788   3.709
 7147TIP3    H221399   6.577   3.716   3.771
 7148TIP3   OH221400   0.958   0.024   5.391
 7148TIP3    H121401   0.941  -0.019   5.475
 7148TIP3    H221402   0.875   0.017   5.344
 7149TIP3   OH221403   1.533   7.119   2.248
 7149TIP3    H121404   1.509   7.057   2.180
 7149TIP3    H221405   1.520   7.071   2.330
 7150TIP3   OH221406   6.584   0.699   0.393
 7150TIP3    H121407   6.528   0.624   0.374
 7150TIP3    H221408   6.526   0.775   0.386
 7151TIP3   OH221409   8.090   1.938   4.477
 7151TIP3    H121410   8.162   1.892   4.521
 7151TIP3    H221411   8.127   2.022   4.451
 7152TIP3   OH221412   4.856   5.114   4.556
 7152TIP3    H121413   4.836   5.042   4.496
 7152TIP3    H221414   4.813   5.090   4.638
 7153TIP3   OH221415   7.079   2.020   1.378
 7153TIP3    H121416   7.065   2.079   1.303
 7153TIP3    H221417   7.171   1.995   1.371
 7154TIP3   OH221418   4.722   5.214   4.056
 7154TIP3    H121419   4.809   5.205   4.094
 7154TIP3    H221420   4.687   5.294   4.096
 7155TIP3   OH221421   5.124   0.342   6.793
 7155TIP3    H121422   5.202   0.322   6.741
 7155TIP3    H221423   5.153   0.407   6.856
 7156TIP3   OH221424   5.857   1.812   4.585
 7156TIP3    H121425   5.945   1.818   4.623
 7156TIP3    H221426   5.872   1.799   4.491
 7157TIP3   OH221427   4.255   4.307   4.347
 7157TIP3    H121428   4.163   4.325   4.325
 7157TIP3    H221429   4.283   4.241   4.285
 7158TIP3   OH221430   6.845   5.315   1.280
 7158TIP3    H121431   6.904   5.299   1.353
 7158TIP3    H221432   6.757   5.306   1.318
 7159TIP3   OH221433   3.924   3.820   6.423
 7159TIP3    H121434   3.868   3.894   6.446
 7159TIP3    H221435   3.967   3.796   6.505
 7160TIP3   OH221436   5.906   3.294   2.891
 7160TIP3    H121437   5.957   3.353   2.946
 7160TIP3    H221438   5.931   3.206   2.920
 7161TIP3   OH221439   7.348   3.991   6.283
 7161TIP3    H121440   7.256   3.988   6.258
 7161TIP3    H221441   7.348   3.977   6.378
 7162TIP3   OH221442   7.842   5.676   6.734
 7162TIP3    H121443   7.877   5.752   6.780
 7162TIP3    H221444   7.776   5.712   6.675
 7163TIP3   OH221445   2.726   5.703   2.212
 7163TIP3    H121446   2.791   5.669   2.150
 7163TIP3    H221447   2.704   5.789   2.178
 7164TIP3   OH221448   3.274   2.173   1.923
 7164TIP3    H121449   3.192   2.222   1.919
 7164TIP3    H221450   3.267   2.110   1.851
 7165TIP3   OH221451   6.479   1.651   2.225
 7165TIP3    H121452   6.533   1.716   2.270
 7165TIP3    H221453   6.462   1.690   2.139
 7166TIP3   OH221454   3.733   2.841   6.676
 7166TIP3    H121455   3.755   2.752   6.705
 7166TIP3    H221456   3.642   2.835   6.646
 7167TIP3   OH221457   5.798   4.821   3.627
 7167TIP3    H121458   5.892   4.805   3.622
 7167TIP3    H221459   5.782   4.889   3.562
 7168TIP3   OH221460   7.312   7.618   5.105
 7168TIP3    H121461   7.399   7.608   5.144
 7168TIP3    H221462   7.313   7.704   5.064
 7169TIP3   OH221463   5.576   1.535   1.441
 7169TIP3    H121464   5.529   1.568   1.518
 7169TIP3    H221465   5.606   1.448   1.468
 7170TIP3   OH221466   5.467   4.301   5.501
 7170TIP3    H121467   5.550   4.280   5.545
 7170TIP3    H221468   5.420   4.354   5.565
 7171TIP3   OH221469   3.047   2.752   5.491
 7171TIP3    H121470   3.092   2.762   5.575
 7171TIP3    H221471   2.956   2.732   5.515
 7172TIP3   OH221472   2.336   1.058   6.230
 7172TIP3    H121473   2.307   0.978   6.187
 7172TIP3    H221474   2.431   1.049   6.236
 7173TIP3   OH221475   1.707   0.578   3.136
 7173TIP3    H121476   1.737   0.560   3.225
 7173TIP3    H221477   1.764   0.526   3.080
 7174TIP3   OH221478   3.392   0.310   3.510
 7174TIP3    H121479   3.359   0.292   3.422
 7174TIP3    H221480   3.441   0.392   3.502
 7175TIP3   OH221481   6.794   4.094   6.800
 7175TIP3    H121482   6.758   4.018   6.755
 7175TIP3    H221483   6.797   4.162   6.733
 7176TIP3   OH221484   2.341   2.051   6.495
 7176TIP3    H121485   2.284   2.123   6.470
 7176TIP3    H221486   2.340   1.992   6.419
 7177TIP3   OH221487   7.847   0.378   1.416
 7177TIP3    H121488   7.906   0.434   1.466
 7177TIP3    H221489   7.904   0.314   1.374
 7178TIP3   OH221490   2.918   5.984   6.330
 7178TIP3    H121491   2.843   5.992   6.272
 7178TIP3    H221492   2.953   5.896   6.312
 7179TIP3   OH221493   3.501   4.480   5.421
 7179TIP3    H121494   3.494   4.539   5.346
 7179TIP3    H221495   3.560   4.411   5.392
 7180TIP3   OH221496   5.741   0.882   3.047
 7180TIP3    H121497   5.727   0.897   3.141
 7180TIP3    H221498   5.655   0.897   3.008
 7181TIP3   OH221499   0.761   6.860   0.606
 7181TIP3    H121500   0.677   6.905   0.602
 7181TIP3    H221501   0.803   6.882   0.522
 7182TIP3   OH221502   8.006   0.803   2.101
 7182TIP3    H121503   7.914   0.824   2.116
 7182TIP3    H221504   8.008   0.708   2.092
 7183TIP3   OH221505   1.404   2.114   0.185
 7183TIP3    H121506   1.469   2.047   0.165
 7183TIP3    H221507   1.339   2.069   0.238
 7184TIP3   OH221508   5.410   1.058   5.396
 7184TIP3    H121509   5.349   1.029   5.464
 7184TIP3    H221510   5.393   1.152   5.387
 7185TIP3   OH221511   0.090   3.054   2.693
 7185TIP3    H121512   0.145   2.991   2.739
 7185TIP3    H221513   0.006   3.052   2.740
 7186TIP3   OH221514   3.493   5.833   0.944
 7186TIP3    H121515   3.523   5.901   1.005
 7186TIP3    H221516   3.428   5.784   0.994
 7187TIP3   OH221517   4.050   1.145   4.935
 7187TIP3    H121518   4.014   1.094   4.862
 7187TIP3    H221519   3.975   1.192   4.971
 7188TIP3   OH221520   2.683   6.436   1.519
 7188TIP3    H121521   2.612   6.377   1.545
 7188TIP3    H221522   2.640   6.518   1.496
 7189TIP3   OH221523   5.066   5.827   6.476
 7189TIP3    H121524   5.122   5.825   6.553
 7189TIP3    H221525   4.983   5.864   6.506
 7190TIP3   OH221526   4.849   1.567   1.446
 7190TIP3    H121527   4.826   1.654   1.478
 7190TIP3    H221528   4.940   1.574   1.418
 7191TIP3   OH221529   6.039   0.818   5.107
 7191TIP3    H121530   5.958   0.784   5.144
 7191TIP3    H221531   6.097   0.742   5.100
 7192TIP3   OH221532   2.432   7.523   0.424
 7192TIP3    H121533   2.458   7.433   0.443
 7192TIP3    H221534   2.387   7.553   0.503
 7193TIP3   OH221535   4.185   5.813   1.005
 7193TIP3    H121536   4.132   5.758   0.947
 7193TIP3    H221537   4.164   5.781   1.093
 7194TIP3   OH221538   5.723   5.253   5.699
 7194TIP3    H121539   5.650   5.226   5.756
 7194TIP3    H221540   5.761   5.328   5.744
 7195TIP3   OH221541   3.859   5.900   0.787
 7195TIP3    H121542   3.842   5.981   0.835
 7195TIP3    H221543   3.796   5.901   0.715
 7196TIP3   OH221544   5.172   7.611   5.122
 7196TIP3    H121545   5.129   7.696   5.125
 7196TIP3    H221546   5.263   7.632   5.100
 7197TIP3   OH221547   6.810   3.198   4.486
 7197TIP3    H121548   6.807   3.221   4.393
 7197TIP3    H221549   6.781   3.107   4.489
 7198TIP3   OH221550   6.752   0.762   0.738
 7198TIP3    H121551   6.775   0.744   0.829
 7198TIP3    H221552   6.660   0.789   0.741
 7199TIP3   OH221553   3.506   2.298   5.614
 7199TIP3    H121554   3.542   2.256   5.693
 7199TIP3    H221555   3.577   2.293   5.550
 7200TIP3   OH221556   5.544   2.688   3.645
 7200TIP3    H121557   5.456   2.675   3.612
 7200TIP3    H221558   5.596   2.620   3.604
 7201TIP3   OH221559   2.598   7.194   4.210
 7201TIP3    H121560   2.599   7.098   4.206
 7201TIP3    H221561   2.684   7.218   4.244
 7202TIP3   OH221562   4.781   5.681   6.038
 7202TIP3    H121563   4.779   5.770   6.072
 7202TIP3    H221564   4.864   5.675   5.991
 7203TIP3   OH221565   6.357   7.809   5.646
 7203TIP3    H121566   6.270   7.784   5.614
 7203TIP3    H221567   6.376   7.745   5.715
 7204TIP3   OH221568   1.041   0.792   2.839
 7204TIP3    H121569   1.049   0.736   2.762
 7204TIP3    H221570   1.116   0.852   2.833
 7205TIP3   OH221571   5.668   1.136   5.827
 7205TIP3    H121572   5.583   1.095   5.844
 7205TIP3    H221573   5.707   1.083   5.758
 7206TIP3   OH221574   4.868   2.134   2.313
 7206TIP3    H121575   4.926   2.099   2.380
 7206TIP3    H221576   4.851   2.060   2.255
 7207TIP3   OH221577   6.781   6.504   2.133
 7207TIP3    H121578   6.766   6.463   2.218
 7207TIP3    H221579   6.818   6.590   2.154
 7208TIP3   OH221580   1.573   2.574   0.971
 7208TIP3    H121581   1.585   2.626   1.050
 7208TIP3    H221582   1.655   2.582   0.923
 7209TIP3   OH221583   3.437   2.859   6.610
 7209TIP3    H121584   3.461   2.922   6.542
 7209TIP3    H221585   3.430   2.776   6.563
 7210TIP3   OH221586   1.297   6.570   2.584
 7210TIP3    H121587   1.242   6.644   2.557
 7210TIP3    H221588   1.385   6.595   2.555
 7211TIP3   OH221589   5.233   2.147   1.406
 7211TIP3    H121590   5.177   2.223   1.419
 7211TIP3    H221591   5.310   2.165   1.460
 7212TIP3   OH221592   5.105   4.002   3.059
 7212TIP3    H121593   5.076   3.995   3.150
 7212TIP3    H221594   5.069   4.085   3.028
 7213TIP3   OH221595   3.891   2.789   0.451
 7213TIP3    H121596   3.946   2.737   0.510
 7213TIP3    H221597   3.832   2.725   0.411
 7214TIP3   OH221598   2.879   3.214   2.314
 7214TIP3    H121599   2.890   3.172   2.400
 7214TIP3    H221600   2.785   3.232   2.309
 7215TIP3   OH221601   4.681   0.025   5.730
 7215TIP3    H121602   4.657   0.110   5.693
 7215TIP3    H221603   4.601  -0.028   5.724
 7216TIP3   OH221604   2.507   1.142   0.260
 7216TIP3    H121605   2.415   1.169   0.260
 7216TIP3    H221606   2.513   1.077   0.191
 7217TIP3   OH221607   2.709   3.576   1.239
 7217TIP3    H121608   2.613   3.575   1.244
 7217TIP3    H221609   2.728   3.568   1.146
 7218TIP3   OH221610   6.099   6.289   1.835
 7218TIP3    H121611   6.062   6.371   1.802
 7218TIP3    H221612   6.138   6.312   1.919
 7219TIP3   OH221613   4.725   2.938   5.158
 7219TIP3    H121614   4.764   2.851   5.156
 7219TIP3    H221615   4.715   2.958   5.251
 7220TIP3   OH221616   6.153   7.215   5.977
 7220TIP3    H121617   6.109   7.200   6.061
 7220TIP3    H221618   6.091   7.266   5.926
 7221TIP3   OH221619   4.477   5.778   0.957
 7221TIP3    H121620   4.385   5.804   0.964
 7221TIP3    H221621   4.484   5.734   0.872
 7222TIP3   OH221622   8.091   7.334   2.749
 7222TIP3    H121623   8.070   7.245   2.778
 7222TIP3    H221624   8.007   7.373   2.727
 7223TIP3   OH221625   0.993   4.146   6.402
 7223TIP3    H121626   0.912   4.154   6.352
 7223TIP3    H221627   1.018   4.054   6.392
 7224TIP3   OH221628   3.422   6.456   3.779
 7224TIP3    H121629   3.431   6.471   3.685
 7224TIP3    H221630   3.401   6.542   3.815
 7225TIP3   OH221631   1.358   0.821   4.154
 7225TIP3    H121632   1.289   0.765   4.120
 7225TIP3    H221633   1.418   0.833   4.081
 7226TIP3   OH221634   5.224   7.761   3.193
 7226TIP3    H121635   5.234   7.693   3.126
 7226TIP3    H221636   5.167   7.826   3.153
 7227TIP3   OH221637   3.243   1.381   2.353
 7227TIP3    H121638   3.221   1.329   2.431
 7227TIP3    H221639   3.174   1.448   2.349
 7228TIP3   OH221640   5.316   2.147   3.960
 7228TIP3    H121641   5.406   2.132   3.931
 7228TIP3    H221642   5.291   2.229   3.919
 7229TIP3   OH221643   5.204   3.637   1.072
 7229TIP3    H121644   5.247   3.686   1.002
 7229TIP3    H221645   5.238   3.676   1.153
 7230TIP3   OH221646   5.930   6.972   6.419
 7230TIP3    H121647   6.003   6.969   6.481
 7230TIP3    H221648   5.854   6.992   6.474
 7231TIP3   OH221649   1.153   4.898   2.558
 7231TIP3    H121650   1.246   4.879   2.569
 7231TIP3    H221651   1.111   4.862   2.636
 7232TIP3   OH221652   1.633   6.200   0.493
 7232TIP3    H121653   1.625   6.113   0.452
 7232TIP3    H221654   1.678   6.253   0.428
 7233TIP3   OH221655   3.070   7.303   3.500
 7233TIP3    H121656   3.027   7.243   3.561
 7233TIP3    H221657   3.147   7.255   3.469
 7234TIP3   OH221658   4.431   7.517   2.084
 7234TIP3    H121659   4.428   7.589   2.147
 7234TIP3    H221660   4.350   7.526   2.034
 7235TIP3   OH221661   2.197   7.308   0.616
 7235TIP3    H121662   2.204   7.268   0.703
 7235TIP3    H221663   2.251   7.252   0.560
 7236TIP3   OH221664   1.899   2.858   4.441
 7236TIP3    H121665   1.916   2.950   4.464
 7236TIP3    H221666   1.923   2.810   4.520
 7237TIP3   OH221667   7.540   4.453   5.130
 7237TIP3    H121668   7.537   4.376   5.073
 7237TIP3    H221669   7.560   4.526   5.071
 7238TIP3   OH221670   1.145   5.483   3.329
 7238TIP3    H121671   1.174   5.546   3.264
 7238TIP3    H221672   1.068   5.442   3.290
 7239TIP3   OH221673   3.543   3.094   2.793
 7239TIP3    H121674   3.587   3.009   2.798
 7239TIP3    H221675   3.490   3.088   2.713
 7240TIP3   OH221676   3.592   2.126   6.139
 7240TIP3    H121677   3.686   2.110   6.145
 7240TIP3    H221678   3.572   2.182   6.214
 7241TIP3   OH221679   6.045   5.496   0.472
 7241TIP3    H121680   6.022   5.565   0.410
 7241TIP3    H221681   6.032   5.414   0.423
 7242TIP3   OH221682   5.719   5.275   1.744
 7242TIP3    H121683   5.806   5.245   1.719
 7242TIP3    H221684   5.687   5.208   1.805
 7243TIP3   OH221685   3.255   4.707   0.851
 7243TIP3    H121686   3.330   4.764   0.870
 7243TIP3    H221687   3.182   4.768   0.838
 7244TIP3   OH221688   7.999   3.784   3.197
 7244TIP3    H121689   7.933   3.804   3.130
 7244TIP3    H221690   8.034   3.870   3.222
 7245TIP3   OH221691   5.910   2.308   1.740
 7245TIP3    H121692   5.969   2.371   1.783
 7245TIP3    H221693   5.925   2.226   1.786
 7246TIP3   OH221694   3.155   3.327   2.320
 7246TIP3    H121695   3.073   3.312   2.272
 7246TIP3    H221696   3.128   3.350   2.408
 7247TIP3   OH221697   3.617   5.880   1.750
 7247TIP3    H121698   3.653   5.846   1.668
 7247TIP3    H221699   3.522   5.881   1.737
 7248TIP3   OH221700   8.177   6.772   6.099
 7248TIP3    H121701   8.256   6.746   6.053
 7248TIP3    H221702   8.107   6.762   6.034
 7249TIP3   OH221703   5.309   6.397   4.332
 7249TIP3    H121704   5.234   6.356   4.373
 7249TIP3    H221705   5.381   6.383   4.393
 7250TIP3   OH221706   7.670   1.939   0.506
 7250TIP3    H121707   7.702   2.029   0.520
 7250TIP3    H221708   7.645   1.908   0.593
 7251TIP3   OH221709   7.219   1.034   0.543
 7251TIP3    H121710   7.156   1.104   0.531
 7251TIP3    H221711   7.287   1.050   0.478
 7252TIP3   OH221712   5.088   6.889   6.790
 7252TIP3    H121713   5.023   6.821   6.806
 7252TIP3    H221714   5.130   6.864   6.708
 7253TIP3   OH221715   3.792   2.395   3.263
 7253TIP3    H121716   3.824   2.484   3.256
 7253TIP3    H221717   3.731   2.396   3.337
 7254TIP3   OH221718   6.539   0.876   5.734
 7254TIP3    H121719   6.502   0.901   5.819
 7254TIP3    H221720   6.474   0.905   5.670
 7255TIP3   OH221721   6.496   4.754   0.306
 7255TIP3    H121722   6.561   4.684   0.310
 7255TIP3    H221723   6.456   4.755   0.393
 7256TIP3   OH221724   5.365   3.646   6.611
 7256TIP3    H121725   5.355   3.609   6.523
 7256TIP3    H221726   5.306   3.722   6.612
 7257TIP3   OH221727   7.710   1.440   0.404
 7257TIP3    H121728   7.717   1.535   0.393
 7257TIP3    H221729   7.625   1.418   0.366
 7258TIP3   OH221730   2.077   7.391   2.382
 7258TIP3    H121731   1.985   7.373   2.402
 7258TIP3    H221732   2.096   7.472   2.430
 7259TIP3   OH221733   1.247   0.449   1.325
 7259TIP3    H121734   1.224   0.411   1.240
 7259TIP3    H221735   1.319   0.394   1.357
 7260TIP3   OH221736   4.460   3.877   1.498
 7260TIP3    H121737   4.387   3.861   1.438
 7260TIP3    H221738   4.531   3.910   1.442
 7261TIP3   OH221739   2.383   3.400   4.058
 7261TIP3    H121740   2.411   3.451   4.134
 7261TIP3    H221741   2.427   3.441   3.984
 7262TIP3   OH221742   2.701   6.410   6.654
 7262TIP3    H121743   2.751   6.450   6.583
 7262TIP3    H221744   2.613   6.398   6.618
 7263TIP3   OH221745   5.802   7.249   2.762
 7263TIP3    H121746   5.804   7.260   2.667
 7263TIP3    H221747   5.860   7.318   2.796
 7264TIP3   OH221748   1.622   1.919   3.000
 7264TIP3    H121749   1.574   1.875   3.070
 7264TIP3    H221750   1.645   1.849   2.939
 7265TIP3   OH221751   7.633   1.961  -0.014
 7265TIP3    H121752   7.681   1.980   0.067
 7265TIP3    H221753   7.546   2.000   0.001
 7266TIP3   OH221754   1.270   2.773   5.597
 7266TIP3    H121755   1.251   2.807   5.510
 7266TIP3    H221756   1.217   2.826   5.656
 7267TIP3   OH221757   6.182   3.231   3.641
 7267TIP3    H121758   6.136   3.218   3.724
 7267TIP3    H221759   6.166   3.323   3.620
 7268TIP3   OH221760   7.572   1.883   4.890
 7268TIP3    H121761   7.614   1.942   4.952
 7268TIP3    H221762   7.564   1.934   4.809
 7269TIP3   OH221763   7.547   3.519   5.509
 7269TIP3    H121764   7.476   3.508   5.573
 7269TIP3    H221765   7.505   3.566   5.436
 7270TIP3   OH221766   2.106   4.942   0.105
 7270TIP3    H121767   2.053   4.895   0.040
 7270TIP3    H221768   2.130   5.024   0.062
 7271TIP3   OH221769   1.612   7.139   3.436
 7271TIP3    H121770   1.545   7.147   3.368
 7271TIP3    H221771   1.641   7.229   3.452
 7272TIP3   OH221772   3.030   2.278   5.935
 7272TIP3    H121773   3.109   2.250   5.980
 7272TIP3    H221774   2.996   2.199   5.893
 7273TIP3   OH221775   6.824   1.068   2.833
 7273TIP3    H121776   6.841   1.153   2.874
 7273TIP3    H221777   6.733   1.049   2.856
 7274TIP3   OH221778   4.457   5.060   6.119
 7274TIP3    H121779   4.434   5.001   6.048
 7274TIP3    H221780   4.472   5.002   6.194
 7275TIP3   OH221781   1.815   3.096   0.280
 7275TIP3    H121782   1.835   3.021   0.336
 7275TIP3    H221783   1.901   3.127   0.250
 7276TIP3   OH221784   3.979   3.481   6.107
 7276TIP3    H121785   4.069   3.503   6.131
 7276TIP3    H221786   3.975   3.498   6.013
 7277TIP3   OH221787   5.902   3.243   0.972
 7277TIP3    H121788   5.964   3.205   0.911
 7277TIP3    H221789   5.821   3.194   0.959
 7278TIP3   OH221790   0.734   3.889   4.374
 7278TIP3    H121791   0.686   3.922   4.298
 7278TIP3    H221792   0.703   3.942   4.447
 7279TIP3   OH221793   1.964   2.244   2.322
 7279TIP3    H121794   1.896   2.182   2.295
 7279TIP3    H221795   1.978   2.299   2.245
 7280TIP3   OH221796   0.773   0.865   5.749
 7280TIP3    H121797   0.858   0.906   5.737
 7280TIP3    H221798   0.790   0.788   5.803
 7281TIP3   OH221799   4.167   7.614   2.416
 7281TIP3    H121800   4.086   7.660   2.438
 7281TIP3    H221801   4.142   7.554   2.345
 7282TIP3   OH221802   3.153   2.840   0.479
 7282TIP3    H121803   3.104   2.771   0.434
 7282TIP3    H221804   3.227   2.859   0.420
 7283TIP3   OH221805   2.800   4.001   4.120
 7283TIP3    H121806   2.752   3.939   4.066
 7283TIP3    H221807   2.777   4.087   4.086
 7284TIP3   OH221808   8.020   6.631   0.712
 7284TIP3    H121809   8.058   6.548   0.743
 7284TIP3    H221810   8.088   6.668   0.656
 7285TIP3   OH221811   1.173   7.803   3.736
 7285TIP3    H121812   1.097   7.760   3.696
 7285TIP3    H221813   1.214   7.851   3.665
 7286TIP3   OH221814   3.152   4.754   6.026
 7286TIP3    H121815   3.058   4.740   6.032
 7286TIP3    H221816   3.177   4.718   5.941
 7287TIP3   OH221817   7.979   7.623   5.456
 7287TIP3    H121818   8.046   7.605   5.522
 7287TIP3    H221819   7.905   7.657   5.505
 7288TIP3   OH221820   3.830   7.000   2.373
 7288TIP3    H121821   3.887   7.069   2.407
 7288TIP3    H221822   3.842   6.927   2.434
 7289TIP3   OH221823   7.828   6.076   1.990
 7289TIP3    H121824   7.906   6.087   2.044
 7289TIP3    H221825   7.759   6.120   2.040
 7290TIP3   OH221826   8.101   5.163   6.716
 7290TIP3    H121827   8.109   5.104   6.641
 7290TIP3    H221828   8.103   5.104   6.792
 7291TIP3   OH221829   1.394   7.698   1.677
 7291TIP3    H121830   1.470   7.679   1.733
 7291TIP3    H221831   1.390   7.625   1.616
 7292TIP3   OH221832   6.623   7.540   1.802
 7292TIP3    H121833   6.543   7.565   1.756
 7292TIP3    H221834   6.593   7.519   1.891
 7293TIP3   OH221835   4.207   2.256   4.133
 7293TIP3    H121836   4.202   2.238   4.039
 7293TIP3    H221837   4.117   2.277   4.158
 7294TIP3   OH221838   2.154   0.025   4.050
 7294TIP3    H121839   2.093   0.089   4.087
 7294TIP3    H221840   2.240   0.063   4.066
 7295TIP3   OH221841   6.818   4.656   6.412
 7295TIP3    H121842   6.766   4.724   6.369
 7295TIP3    H221843   6.833   4.591   6.344
 7296TIP3   OH221844   3.409   6.429   2.007
 7296TIP3    H121845   3.443   6.483   2.079
 7296TIP3    H221846   3.486   6.384   1.973
 7297TIP3   OH221847   2.186   4.073   4.475
 7297TIP3    H121848   2.172   4.031   4.560
 7297TIP3    H221849   2.099   4.097   4.445
 7298TIP3   OH221850   6.810   7.854   4.178
 7298TIP3    H121851   6.735   7.871   4.234
 7298TIP3    H221852   6.885   7.852   4.238
 7299TIP3   OH221853   4.372   4.005   2.273
 7299TIP3    H121854   4.382   3.920   2.231
 7299TIP3    H221855   4.452   4.016   2.324
 7300TIP3   OH221856   2.954   2.626   3.857
 7300TIP3    H121857   2.906   2.707   3.845
 7300TIP3    H221858   2.978   2.625   3.950
 7301TIP3   OH221859   1.570   3.446   6.650
 7301TIP3    H121860   1.497   3.497   6.684
 7301TIP3    H221861   1.537   3.356   6.645
 7302TIP3   OH221862   3.592   0.370   5.025
 7302TIP3    H121863   3.525   0.341   4.964
 7302TIP3    H221864   3.672   0.324   4.996
 7303TIP3   OH221865   0.322   5.146   4.189
 7303TIP3    H121866   0.366   5.074   4.144
 7303TIP3    H221867   0.231   5.142   4.159
 7304TIP3   OH221868   7.453   5.348   2.776
 7304TIP3    H121869   7.469   5.376   2.686
 7304TIP3    H221870   7.409   5.422   2.817
 7305TIP3   OH221871   2.531   4.161   3.472
 7305TIP3    H121872   2.574   4.246   3.460
 7305TIP3    H221873   2.551   4.138   3.563
 7306TIP3   OH221874   7.372   5.504   3.353
 7306TIP3    H121875   7.361   5.589   3.311
 7306TIP3    H221876   7.381   5.524   3.446
 7307TIP3   OH221877   3.268   2.424   5.396
 7307TIP3    H121878   3.294   2.490   5.461
 7307TIP3    H221879   3.338   2.358   5.399
 7308TIP3   OH221880   3.772   1.741   3.237
 7308TIP3    H121881   3.845   1.803   3.231
 7308TIP3    H221882   3.720   1.772   3.311
 7309TIP3   OH221883   4.581   3.835   4.936
 7309TIP3    H121884   4.579   3.914   4.990
 7309TIP3    H221885   4.650   3.781   4.974
 7310TIP3   OH221886   1.620   2.756   6.453
 7310TIP3    H121887   1.661   2.745   6.539
 7310TIP3    H221888   1.694   2.760   6.392
 7311TIP3   OH221889   2.396   0.225   2.835
 7311TIP3    H121890   2.406   0.149   2.892
 7311TIP3    H221891   2.483   0.266   2.836
 7312TIP3   OH221892   6.453   6.574   6.041
 7312TIP3    H121893   6.425   6.578   5.949
 7312TIP3    H221894   6.501   6.491   6.048
 7313TIP3   OH221895   3.720   2.074   1.371
 7313TIP3    H121896   3.731   2.041   1.282
 7313TIP3    H221897   3.641   2.128   1.367
 7314TIP3   OH221898   3.613   5.545   5.030
 7314TIP3    H121899   3.704   5.552   5.059
 7314TIP3    H221900   3.573   5.629   5.054
 7315TIP3   OH221901   3.934   1.813   6.197
 7315TIP3    H121902   3.968   1.805   6.108
 7315TIP3    H221903   3.856   1.868   6.188
 7316TIP3   OH221904   5.815   4.625   5.053
 7316TIP3    H121905   5.749   4.675   5.102
 7316TIP3    H221906   5.772   4.603   4.971
 7317TIP3   OH221907   1.990   4.454   2.913
 7317TIP3    H121908   2.027   4.542   2.915
 7317TIP3    H221909   2.046   4.404   2.854
 7318TIP3   OH221910   4.422   6.903   2.155
 7318TIP3    H121911   4.411   6.980   2.100
 7318TIP3    H221912   4.355   6.911   2.222
 7319TIP3   OH221913   2.120   1.121   2.639
 7319TIP3    H121914   2.128   1.168   2.722
 7319TIP3    H221915   2.025   1.112   2.626
 7320TIP3   OH221916   5.237   5.917   3.108
 7320TIP3    H121917   5.319   5.877   3.080
 7320TIP3    H221918   5.263   5.998   3.152
 7321TIP3   OH221919   0.260   4.363   4.656
 7321TIP3    H121920   0.257   4.401   4.569
 7321TIP3    H221921   0.207   4.421   4.710
 7322TIP3   OH221922   4.655   6.410   1.033
 7322TIP3    H121923   4.720   6.468   0.993
 7322TIP3    H221924   4.636   6.346   0.965
 7323TIP3   OH221925   4.614   4.007   2.377
 7323TIP3    H121926   4.649   3.953   2.448
 7323TIP3    H221927   4.638   4.096   2.402
 7324TIP3   OH221928   6.403   6.244   2.213
 7324TIP3    H121929   6.445   6.227   2.129
 7324TIP3    H221930   6.467   6.216   2.278
 7325TIP3   OH221931   6.197   0.675   3.146
 7325TIP3    H121932   6.207   0.750   3.204
 7325TIP3    H221933   6.102   0.662   3.138
 7326TIP3   OH221934   6.122   1.768   0.127
 7326TIP3    H121935   6.084   1.841   0.077
 7326TIP3    H221936   6.070   1.692   0.101
 7327TIP3   OH221937   7.451   2.391   6.396
 7327TIP3    H121938   7.471   2.478   6.363
 7327TIP3    H221939   7.359   2.376   6.371
 7328TIP3   OH221940   2.723   5.636   4.146
 7328TIP3    H121941   2.795   5.654   4.084
 7328TIP3    H221942   2.726   5.710   4.207
 7329TIP3   OH221943   5.189   2.950   3.056
 7329TIP3    H121944   5.185   3.045   3.067
 7329TIP3    H221945   5.282   2.931   3.041
 7330TIP3   OH221946   0.960   5.207   5.967
 7330TIP3    H121947   0.964   5.266   6.042
 7330TIP3    H221948   0.872   5.221   5.931
 7331TIP3   OH221949   5.488   1.330   0.181
 7331TIP3    H121950   5.441   1.259   0.224
 7331TIP3    H221951   5.502   1.299   0.091
 7332TIP3   OH221952   4.310   1.119   2.416
 7332TIP3    H121953   4.393   1.165   2.423
 7332TIP3    H221954   4.273   1.146   2.332
 7333TIP3   OH221955   0.872   5.147   3.987
 7333TIP3    H121956   0.823   5.179   4.063
 7333TIP3    H221957   0.956   5.119   4.023
 7334TIP3   OH221958   1.777   3.872   4.076
 7334TIP3    H121959   1.756   3.957   4.114
 7334TIP3    H221960   1.723   3.867   3.997
 7335TIP3   OH221961   2.696   3.317   0.667
 7335TIP3    H121962   2.731   3.310   0.577
 7335TIP3    H221963   2.666   3.407   0.674
 7336TIP3   OH221964   2.822   0.139   2.420
 7336TIP3    H121965   2.746   0.196   2.430
 7336TIP3    H221966   2.893   0.198   2.393
 7337TIP3   OH221967   5.618   0.073   5.141
 7337TIP3    H121968   5.690   0.090   5.201
 7337TIP3    H221969   5.645   0.113   5.058
 7338TIP3   OH221970   3.020   7.549   6.127
 7338TIP3    H121971   2.990   7.562   6.037
 7338TIP3    H221972   3.115   7.551   6.121
 7339TIP3   OH221973   7.146   0.607   4.948
 7339TIP3    H121974   7.172   0.535   5.007
 7339TIP3    H221975   7.225   0.660   4.938
 7340TIP3   OH221976   5.988   1.587   1.633
 7340TIP3    H121977   6.054   1.655   1.622
 7340TIP3    H221978   5.946   1.580   1.548
 7341TIP3   OH221979   1.905   5.831   5.912
 7341TIP3    H121980   1.871   5.919   5.927
 7341TIP3    H221981   1.916   5.826   5.817
 7342TIP3   OH221982   7.796   6.524   1.044
 7342TIP3    H121983   7.709   6.502   1.076
 7342TIP3    H221984   7.818   6.452   0.984
 7343TIP3   OH221985   7.929   2.272   0.905
 7343TIP3    H121986   7.965   2.199   0.956
 7343TIP3    H221987   7.909   2.233   0.819
 7344TIP3   OH221988   1.262   2.438   5.947
 7344TIP3    H121989   1.271   2.352   5.906
 7344TIP3    H221990   1.226   2.419   6.034
 7345TIP3   OH221991   4.782   4.999   4.286
 7345TIP3    H121992   4.790   4.915   4.241
 7345TIP3    H221993   4.873   5.025   4.305
 7346TIP3   OH221994   2.064   2.636   0.244
 7346TIP3    H121995   1.990   2.581   0.219
 7346TIP3    H221996   2.129   2.575   0.279
 7347TIP3   OH221997   3.205   5.939   0.146
 7347TIP3    H121998   3.184   5.947   0.239
 7347TIP3    H221999   3.126   5.904   0.105
 7348TIP3   OH222000   2.660   3.341   5.600
 7348TIP3    H122001   2.717   3.318   5.526
 7348TIP3    H222002   2.706   3.309   5.677
 7349TIP3   OH222003   3.719   3.513   6.257
 7349TIP3    H122004   3.659   3.519   6.183
 7349TIP3    H222005   3.805   3.531   6.220
 7350TIP3   OH222006   1.986   4.968   4.606
 7350TIP3    H122007   1.941   4.884   4.590
 7350TIP3    H222008   1.917   5.027   4.636
 7351TIP3   OH222009   6.148   1.587   4.330
 7351TIP3    H122010   6.184   1.551   4.411
 7351TIP3    H222011   6.064   1.543   4.319
 7352TIP3   OH222012   1.233   5.846   2.932
 7352TIP3    H122013   1.200   5.931   2.960
 7352TIP3    H222014   1.207   5.838   2.841
 7353TIP3   OH222015   2.306   5.758   5.490
 7353TIP3    H122016   2.235   5.788   5.434
 7353TIP3    H222017   2.275   5.772   5.579
 7354TIP3   OH222018   4.868   3.862   5.601
 7354TIP3    H122019   4.956   3.870   5.638
 7354TIP3    H222020   4.818   3.815   5.668
 7355TIP3   OH222021   6.370   2.687   1.691
 7355TIP3    H122022   6.419   2.750   1.744
 7355TIP3    H222023   6.434   2.618   1.671
 7356TIP3   OH222024   2.676   7.021   6.063
 7356TIP3    H122025   2.591   6.979   6.071
 7356TIP3    H222026   2.710   6.991   5.979
 7357TIP3   OH222027   2.748   6.726   1.784
 7357TIP3    H122028   2.721   6.736   1.692
 7357TIP3    H222029   2.671   6.687   1.826
 7358TIP3   OH222030   4.197   0.160   2.541
 7358TIP3    H122031   4.193   0.155   2.446
 7358TIP3    H222032   4.203   0.069   2.570
 7359TIP3   OH222033   3.127   6.101   2.875
 7359TIP3    H122034   3.070   6.124   2.801
 7359TIP3    H222035   3.071   6.049   2.932
 7360TIP3   OH222036   1.815   3.493   5.944
 7360TIP3    H122037   1.751   3.513   6.013
 7360TIP3    H222038   1.884   3.446   5.989
 7361TIP3   OH222039   3.527   4.437   2.046
 7361TIP3    H122040   3.457   4.371   2.042
 7361TIP3    H222041   3.481   4.521   2.043
 7362TIP3   OH222042   1.688   2.926   1.568
 7362TIP3    H122043   1.692   2.922   1.663
 7362TIP3    H222044   1.774   2.958   1.541
 7363TIP3   OH222045   4.575   3.791   2.215
 7363TIP3    H122046   4.608   3.849   2.283
 7363TIP3    H222047   4.594   3.836   2.133
 7364TIP3   OH222048   4.946   6.258   0.957
 7364TIP3    H122049   5.020   6.313   0.982
 7364TIP3    H222050   4.888   6.317   0.909
 7365TIP3   OH222051   1.571   7.085   4.916
 7365TIP3    H122052   1.624   7.019   4.871
 7365TIP3    H222053   1.572   7.058   5.008
 7366TIP3   OH222054   2.856   3.989   2.375
 7366TIP3    H122055   2.951   3.992   2.391
 7366TIP3    H222056   2.831   3.899   2.398
 7367TIP3   OH222057   3.748   3.524   3.509
 7367TIP3    H122058   3.666   3.482   3.535
 7367TIP3    H222059   3.775   3.478   3.429
 7368TIP3   OH222060   7.780   0.260   3.867
 7368TIP3    H122061   7.712   0.193   3.878
 7368TIP3    H222062   7.803   0.286   3.956
 7369TIP3   OH222063   7.562   4.360   2.622
 7369TIP3    H122064   7.504   4.285   2.638
 7369TIP3    H222065   7.561   4.371   2.527
 7370TIP3   OH222066   3.418   7.055   5.676
 7370TIP3    H122067   3.364   7.058   5.598
 7370TIP3    H222068   3.508   7.049   5.643
 7371TIP3   OH222069   7.817   6.188   2.830
 7371TIP3    H122070   7.897   6.238   2.847
 7371TIP3    H222071   7.795   6.208   2.739
 7372TIP3   OH222072   0.211   0.976   0.769
 7372TIP3    H122073   0.120   0.963   0.794
 7372TIP3    H222074   0.256   0.998   0.851
 7373TIP3   OH222075   1.917   0.331   3.988
 7373TIP3    H122076   1.842   0.376   3.949
 7373TIP3    H222077   1.923   0.368   4.077
 7374TIP3   OH222078   5.290   2.350   2.370
 7374TIP3    H122079   5.234   2.428   2.372
 7374TIP3    H222080   5.350   2.362   2.443
 7375TIP3   OH222081   6.658   2.576   5.310
 7375TIP3    H122082   6.647   2.532   5.225
 7375TIP3    H222083   6.723   2.644   5.294
 7376TIP3   OH222084   1.356   0.655   4.437
 7376TIP3    H122085   1.351   0.716   4.363
 7376TIP3    H222086   1.435   0.604   4.421
 7377TIP3   OH222087   0.411   3.191   0.419
 7377TIP3    H122088   0.372   3.138   0.350
 7377TIP3    H222089   0.381   3.280   0.401
 7378TIP3   OH222090   1.598   5.299   6.648
 7378TIP3    H122091   1.613   5.373   6.591
 7378TIP3    H222092   1.674   5.242   6.635
 7379TIP3   OH222093   7.603   5.790   6.624
 7379TIP3    H122094   7.549   5.819   6.698
 7379TIP3    H222095   7.598   5.863   6.562
 7380TIP3   OH222096   0.593   4.965   5.604
 7380TIP3    H122097   0.640   4.931   5.681
 7380TIP3    H222098   0.602   5.060   5.611
 7381TIP3   OH222099   3.589   3.813   1.408
 7381TIP3    H122100   3.681   3.813   1.380
 7381TIP3    H222101   3.592   3.793   1.501
 7382TIP3   OH222102   2.216   7.460   3.994
 7382TIP3    H122103   2.289   7.464   3.932
 7382TIP3    H222104   2.217   7.370   4.027
 7383TIP3   OH222105   0.980   1.253   6.294
 7383TIP3    H122106   0.897   1.206   6.280
 7383TIP3    H222107   0.958   1.344   6.275
 7384TIP3   OH222108   7.488   4.177   5.373
 7384TIP3    H122109   7.487   4.108   5.307
 7384TIP3    H222110   7.560   4.154   5.431
 7385TIP3   OH222111   1.101   5.605   4.529
 7385TIP3    H122112   1.104   5.580   4.621
 7385TIP3    H222113   1.008   5.609   4.508
 7386TIP3   OH222114   7.412   1.613   5.582
 7386TIP3    H122115   7.488   1.651   5.538
 7386TIP3    H222116   7.420   1.641   5.673
 7387TIP3   OH222117   5.741   7.022   3.279
 7387TIP3    H122118   5.766   7.115   3.277
 7387TIP3    H222119   5.821   6.976   3.302
 7388TIP3   OH222120   7.374   6.507   5.880
 7388TIP3    H122121   7.282   6.531   5.863
 7388TIP3    H222122   7.418   6.523   5.796
 7389TIP3   OH222123   0.781   7.618   0.236
 7389TIP3    H122124   0.711   7.599   0.299
 7389TIP3    H222125   0.824   7.534   0.221
 7390TIP3   OH222126   3.427   2.649   0.192
 7390TIP3    H122127   3.404   2.608   0.276
 7390TIP3    H222128   3.366   2.611   0.129
 7391TIP3   OH222129   1.373   5.048   1.261
 7391TIP3    H122130   1.442   5.072   1.200
 7391TIP3    H222131   1.330   5.131   1.283
 7392TIP3   OH222132   0.691   1.896   1.320
 7392TIP3    H122133   0.672   1.853   1.403
 7392TIP3    H222134   0.730   1.980   1.343
 7393TIP3   OH222135   3.277   0.390   1.814
 7393TIP3    H122136   3.328   0.406   1.735
 7393TIP3    H222137   3.259   0.296   1.813
 7394TIP3   OH222138   8.221   7.499   6.253
 7394TIP3    H122139   8.257   7.480   6.166
 7394TIP3    H222140   8.156   7.429   6.267
 7395TIP3   OH222141   0.270   1.881   3.731
 7395TIP3    H122142   0.244   1.970   3.707
 7395TIP3    H222143   0.365   1.883   3.733
 7396TIP3   OH222144   4.040   2.061   1.368
 7396TIP3    H122145   4.038   2.043   1.274
 7396TIP3    H222146   4.109   2.004   1.402
 7397TIP3   OH222147   3.897   0.505   5.450
 7397TIP3    H122148   3.949   0.449   5.392
 7397TIP3    H222149   3.961   0.563   5.491
 7398TIP3   OH222150   2.431   1.228   5.682
 7398TIP3    H122151   2.370   1.294   5.649
 7398TIP3    H222152   2.516   1.273   5.683
 7399TIP3   OH222153   4.017   2.444   3.469
 7399TIP3    H122154   4.108   2.470   3.453
 7399TIP3    H222155   3.996   2.385   3.396
 7400TIP3   OH222156   2.249   0.728   6.257
 7400TIP3    H122157   2.332   0.721   6.305
 7400TIP3    H222158   2.188   0.765   6.320
 7401TIP3   OH222159   4.181   2.940   3.680
 7401TIP3    H122160   4.131   3.021   3.667
 7401TIP3    H222161   4.218   2.949   3.768
 7402TIP3   OH222162   3.391   6.222   4.027
 7402TIP3    H122163   3.450   6.161   4.072
 7402TIP3    H222164   3.405   6.306   4.071
 7403TIP3   OH222165   2.211   0.604   6.005
 7403TIP3    H122166   2.219   0.658   6.084
 7403TIP3    H222167   2.234   0.663   5.933
 7404TIP3   OH222168   3.505   2.332   1.656
 7404TIP3    H122169   3.513   2.240   1.628
 7404TIP3    H222170   3.594   2.366   1.649
 7405TIP3   OH222171   0.830   5.658   2.421
 7405TIP3    H122172   0.876   5.730   2.378
 7405TIP3    H222173   0.901   5.606   2.461
 7406TIP3   OH222174   6.860   0.685   0.423
 7406TIP3    H122175   6.768   0.705   0.440
 7406TIP3    H222176   6.868   0.689   0.328
 7407TIP3   OH222177   7.135   6.222   1.489
 7407TIP3    H122178   7.213   6.166   1.481
 7407TIP3    H222179   7.098   6.223   1.401
 7408TIP3   OH222180   8.255   0.883   0.501
 7408TIP3    H122181   8.349   0.889   0.513
 7408TIP3    H222182   8.234   0.945   0.431
 7409TIP3   OH222183   5.451   5.852   1.968
 7409TIP3    H122184   5.506   5.882   2.040
 7409TIP3    H222185   5.362   5.858   2.002
 7410TIP3   OH222186   4.335   2.576   2.774
 7410TIP3    H122187   4.294   2.605   2.855
 7410TIP3    H222188   4.429   2.573   2.795
 7411TIP3   OH222189   4.279   2.210   2.297
 7411TIP3    H122190   4.273   2.116   2.314
 7411TIP3    H222191   4.348   2.217   2.231
 7412TIP3   OH222192   2.435   3.736   6.336
 7412TIP3    H122193   2.485   3.759   6.414
 7412TIP3    H222194   2.455   3.806   6.273
 7413TIP3   OH222195   2.444   4.419   1.884
 7413TIP3    H122196   2.428   4.387   1.795
 7413TIP3    H222197   2.433   4.341   1.940
 7414TIP3   OH222198   3.511   4.131   6.588
 7414TIP3    H122199   3.455   4.054   6.588
 7414TIP3    H222200   3.545   4.137   6.499
 7415TIP3   OH222201   0.787   5.451   4.886
 7415TIP3    H122202   0.747   5.364   4.897
 7415TIP3    H222203   0.712   5.510   4.880
 7416TIP3   OH222204   5.379   2.506   0.657
 7416TIP3    H122205   5.435   2.463   0.592
 7416TIP3    H222206   5.429   2.581   0.687
 7417TIP3   OH222207   5.830   3.104   0.287
 7417TIP3    H122208   5.811   3.015   0.259
 7417TIP3    H222209   5.768   3.159   0.239
 7418TIP3   OH222210   8.031   1.378   2.481
 7418TIP3    H122211   8.126   1.365   2.478
 7418TIP3    H222212   7.995   1.303   2.434
 7419TIP3   OH222213   6.490   0.391   5.666
 7419TIP3    H122214   6.450   0.338   5.735
 7419TIP3    H222215   6.420   0.450   5.638
 7420TIP3   OH222216   7.969   4.810   6.383
 7420TIP3    H122217   7.940   4.813   6.292
 7420TIP3    H222218   7.913   4.872   6.428
 7421TIP3   OH222219  -0.002   5.611   2.069
 7421TIP3    H122220   0.040   5.594   1.984
 7421TIP3    H222221   0.024   5.537   2.123
 7422TIP3   OH222222   3.798   7.521   6.190
 7422TIP3    H122223   3.870   7.584   6.185
 7422TIP3    H222224   3.781   7.511   6.283
 7423TIP3   OH222225   4.377   1.901   4.015
 7423TIP3    H122226   4.406   1.836   3.950
 7423TIP3    H222227   4.283   1.907   4.002
 7424TIP3   OH222228   7.898   7.176   1.100
 7424TIP3    H122229   7.873   7.266   1.122
 7424TIP3    H222230   7.905   7.133   1.185
 7425TIP3   OH222231   6.060   7.016   1.519
 7425TIP3    H122232   6.150   7.044   1.537
 7425TIP3    H222233   6.069   6.952   1.448
 7426TIP3   OH222234   2.673   0.025   2.639
 7426TIP3    H122235   2.738   0.043   2.572
 7426TIP3    H222236   2.721   0.031   2.722
 7427TIP3   OH222237   7.779   1.395   1.720
 7427TIP3    H122238   7.699   1.405   1.772
 7427TIP3    H222239   7.769   1.458   1.649
 7428TIP3   OH222240   3.234   0.937   3.271
 7428TIP3    H122241   3.221   0.878   3.346
 7428TIP3    H222242   3.156   0.925   3.217
 7429TIP3   OH222243   7.023   3.601   0.246
 7429TIP3    H122244   7.099   3.598   0.303
 7429TIP3    H222245   6.951   3.630   0.302
 7430TIP3   OH222246   7.211   5.743   1.450
 7430TIP3    H122247   7.147   5.712   1.386
 7430TIP3    H222248   7.290   5.693   1.430
 7431TIP3   OH222249   4.158   0.462   6.778
 7431TIP3    H122250   4.096   0.518   6.824
 7431TIP3    H222251   4.109   0.384   6.756
 7432TIP3   OH222252   6.596   0.969   2.935
 7432TIP3    H122253   6.604   0.886   2.983
 7432TIP3    H222254   6.504   0.972   2.908
 7433TIP3   OH222255   8.117   2.043   2.542
 7433TIP3    H122256   8.113   2.066   2.635
 7433TIP3    H222257   8.205   2.069   2.515
 7434TIP3   OH222258   0.060   0.798   1.740
 7434TIP3    H122259   0.022   0.759   1.819
 7434TIP3    H222260   0.080   0.724   1.684
 7435TIP3   OH222261   7.513   2.025   3.122
 7435TIP3    H122262   7.510   1.971   3.201
 7435TIP3    H222263   7.529   1.963   3.051
 7436TIP3   OH222264   4.980   1.980   2.517
 7436TIP3    H122265   4.989   1.902   2.462
 7436TIP3    H222266   4.904   1.961   2.573
 7437TIP3   OH222267   2.076   2.732   6.490
 7437TIP3    H122268   1.992   2.744   6.446
 7437TIP3    H222269   2.141   2.739   6.420
 7438TIP3   OH222270   1.491   4.848   1.450
 7438TIP3    H122271   1.464   4.934   1.482
 7438TIP3    H222272   1.424   4.789   1.483
 7439TIP3   OH222273   6.634   3.861   5.796
 7439TIP3    H122274   6.636   3.818   5.710
 7439TIP3    H222275   6.567   3.813   5.845
 7440TIP3   OH222276   4.876   7.777   3.615
 7440TIP3    H122277   4.963   7.789   3.578
 7440TIP3    H222278   4.820   7.759   3.540
 7441TIP3   OH222279   0.364   5.665   1.266
 7441TIP3    H122280   0.380   5.752   1.302
 7441TIP3    H222281   0.395   5.605   1.334
 7442TIP3   OH222282   5.659   6.588   1.619
 7442TIP3    H122283   5.711   6.668   1.614
 7442TIP3    H222284   5.620   6.579   1.532
 7443TIP3   OH222285   3.234   6.494   0.862
 7443TIP3    H122286   3.317   6.529   0.830
 7443TIP3    H222287   3.252   6.402   0.882
 7444TIP3   OH222288   3.726   4.019   1.773
 7444TIP3    H122289   3.772   4.000   1.691
 7444TIP3    H222290   3.713   3.933   1.814
 7445TIP3   OH222291   0.718   2.229   2.161
 7445TIP3    H122292   0.783   2.198   2.097
 7445TIP3    H222293   0.713   2.323   2.147
 7446TIP3   OH222294   0.328   3.372   3.391
 7446TIP3    H122295   0.296   3.379   3.300
 7446TIP3    H222296   0.307   3.282   3.416
 7447TIP3   OH222297   4.410   0.597   0.456
 7447TIP3    H122298   4.452   0.582   0.371
 7447TIP3    H222299   4.345   0.527   0.463
 7448TIP3   OH222300   2.031   7.508   6.344
 7448TIP3    H122301   2.125   7.513   6.364
 7448TIP3    H222302   2.017   7.419   6.313
 7449TIP3   OH222303   2.218   6.698   4.740
 7449TIP3    H122304   2.201   6.765   4.674
 7449TIP3    H222305   2.310   6.711   4.764
 7450TIP3   OH222306   7.022   1.540   3.863
 7450TIP3    H122307   6.961   1.526   3.791
 7450TIP3    H222308   7.047   1.452   3.890
 7451TIP3   OH222309   0.767   1.124   0.447
 7451TIP3    H122310   0.689   1.155   0.494
 7451TIP3    H222311   0.807   1.060   0.507
 7452TIP3   OH222312   7.885   2.884   2.346
 7452TIP3    H122313   7.895   2.793   2.376
 7452TIP3    H222314   7.874   2.877   2.251
 7453TIP3   OH222315   4.730   1.787   1.710
 7453TIP3    H122316   4.748   1.847   1.783
 7453TIP3    H222317   4.715   1.703   1.752
 7454TIP3   OH222318   2.786   7.265   6.491
 7454TIP3    H122319   2.800   7.182   6.446
 7454TIP3    H222320   2.859   7.320   6.463
 7455TIP3   OH222321   6.554   3.378   6.751
 7455TIP3    H122322   6.468   3.341   6.771
 7455TIP3    H222323   6.589   3.321   6.682
 7456TIP3   OH222324   3.797   4.061   4.867
 7456TIP3    H122325   3.759   4.068   4.955
 7456TIP3    H222326   3.724   4.033   4.812
 7457TIP3   OH222327   0.733   2.975   3.751
 7457TIP3    H122328   0.799   2.920   3.793
 7457TIP3    H222329   0.656   2.919   3.742
 7458TIP3   OH222330   6.891   1.576   6.578
 7458TIP3    H122331   6.801   1.592   6.550
 7458TIP3    H222332   6.899   1.481   6.583
 7459TIP3   OH222333   0.970   6.986   0.876
 7459TIP3    H122334   1.019   6.923   0.823
 7459TIP3    H222335   0.940   7.052   0.814
 7460TIP3   OH222336   4.765   6.500   6.017
 7460TIP3    H122337   4.694   6.440   6.041
 7460TIP3    H222338   4.834   6.481   6.080
 7461TIP3   OH222339   4.599   0.837   4.303
 7461TIP3    H122340   4.662   0.765   4.298
 7461TIP3    H222341   4.654   0.914   4.320
 7462TIP3   OH222342   0.780   0.963   0.120
 7462TIP3    H122343   0.834   1.037   0.094
 7462TIP3    H222344   0.691   0.988   0.095
 7463TIP3   OH222345   5.279   7.580   1.763
 7463TIP3    H122346   5.373   7.594   1.750
 7463TIP3    H222347   5.237   7.660   1.732
 7464TIP3   OH222348   3.865   2.137   4.625
 7464TIP3    H122349   3.835   2.073   4.689
 7464TIP3    H222350   3.792   2.199   4.618
 7465TIP3   OH222351   0.471   4.648   1.677
 7465TIP3    H122352   0.383   4.634   1.710
 7465TIP3    H222353   0.459   4.671   1.585
 7466TIP3   OH222354   3.873   2.568   2.027
 7466TIP3    H122355   3.926   2.578   1.948
 7466TIP3    H222356   3.803   2.508   2.003
 7467TIP3   OH222357   7.953   5.554   0.937
 7467TIP3    H122358   7.868   5.585   0.967
 7467TIP3    H222359   7.948   5.558   0.841
 7468TIP3   OH222360   0.177   5.613   6.175
 7468TIP3    H122361   0.111   5.561   6.220
 7468TIP3    H222362   0.197   5.684   6.236
 7469TIP3   OH222363   7.890   0.433   2.431
 7469TIP3    H122364   7.856   0.344   2.421
 7469TIP3    H222365   7.976   0.431   2.387
 7470TIP3   OH222366   6.573   0.020   5.851
 7470TIP3    H122367   6.598   0.059   5.767
 7470TIP3    H222368   6.622  -0.062   5.856
 7471TIP3   OH222369   5.611   6.031   0.122
 7471TIP3    H122370   5.543   5.965   0.112
 7471TIP3    H222371   5.577   6.091   0.188
 7472TIP3   OH222372   7.361   2.141   2.276
 7472TIP3    H122373   7.359   2.223   2.226
 7472TIP3    H222374   7.454   2.128   2.296
 7473TIP3   OH222375   6.431   3.351   6.341
 7473TIP3    H122376   6.345   3.312   6.325
 7473TIP3    H222377   6.491   3.299   6.287
 7474TIP3   OH222378   8.062   6.318   2.747
 7474TIP3    H122379   8.115   6.395   2.770
 7474TIP3    H222380   8.038   6.332   2.655
 7475TIP3   OH222381   1.305   3.063   1.661
 7475TIP3    H122382   1.362   3.012   1.603
 7475TIP3    H222383   1.220   3.063   1.615
 7476TIP3   OH222384   7.628   0.415   0.456
 7476TIP3    H122385   7.570   0.490   0.460
 7476TIP3    H222386   7.633   0.393   0.363
 7477TIP3   OH222387   1.204   0.117   4.959
 7477TIP3    H122388   1.173   0.116   4.868
 7477TIP3    H222389   1.125   0.125   5.011
 7478TIP3   OH222390   5.912   4.746   2.468
 7478TIP3    H122391   5.894   4.835   2.497
 7478TIP3    H222392   5.849   4.691   2.515
 7479TIP3   OH222393   3.237   1.040   5.565
 7479TIP3    H122394   3.251   1.128   5.600
 7479TIP3    H222395   3.274   0.982   5.632
 7480TIP3   OH222396   4.408   0.715   0.170
 7480TIP3    H122397   4.357   0.791   0.144
 7480TIP3    H222398   4.474   0.705   0.101
 7481TIP3   OH222399   6.890   0.290   2.547
 7481TIP3    H122400   6.815   0.312   2.492
 7481TIP3    H222401   6.862   0.311   2.636
 7482TIP3   OH222402   1.865   6.339   0.173
 7482TIP3    H122403   1.868   6.411   0.235
 7482TIP3    H222404   1.773   6.312   0.172
 7483TIP3   OH222405   1.126   7.103   4.448
 7483TIP3    H122406   1.192   7.153   4.399
 7483TIP3    H222407   1.053   7.094   4.387
 7484TIP3   OH222408   7.548   1.936   2.674
 7484TIP3    H122409   7.634   1.936   2.633
 7484TIP3    H222410   7.488   1.904   2.606
 7485TIP3   OH222411   7.083   0.287   4.899
 7485TIP3    H122412   6.990   0.306   4.887
 7485TIP3    H222413   7.125   0.327   4.823
 7486TIP3   OH222414   5.367   7.657   1.246
 7486TIP3    H122415   5.278   7.671   1.214
 7486TIP3    H222416   5.416   7.733   1.215
 7487TIP3   OH222417   1.932   4.548   0.687
 7487TIP3    H122418   1.911   4.473   0.743
 7487TIP3    H222419   2.023   4.568   0.707
 7488TIP3   OH222420   7.837   2.869   4.899
 7488TIP3    H122421   7.920   2.820   4.906
 7488TIP3    H222422   7.832   2.918   4.981
 7489TIP3   OH222423   3.911   0.942   0.893
 7489TIP3    H122424   3.885   1.011   0.954
 7489TIP3    H222425   4.006   0.947   0.889
 7490TIP3   OH222426   5.437   1.705   3.711
 7490TIP3    H122427   5.517   1.747   3.681
 7490TIP3    H222428   5.370   1.735   3.650
 7491TIP3   OH222429   7.734   4.183   4.020
 7491TIP3    H122430   7.813   4.131   4.036
 7491TIP3    H222431   7.766   4.266   3.986
 7492TIP3   OH222432   5.509   4.315   2.248
 7492TIP3    H122433   5.554   4.235   2.222
 7492TIP3    H222434   5.485   4.357   2.166
 7493TIP3   OH222435   4.172   0.171   6.256
 7493TIP3    H122436   4.187   0.265   6.265
 7493TIP3    H222437   4.170   0.138   6.346
 7494TIP3   OH222438   3.082   6.211   0.969
 7494TIP3    H122439   3.122   6.139   0.921
 7494TIP3    H222440   2.997   6.225   0.926
 7495TIP3   OH222441   1.101   6.364   5.246
 7495TIP3    H122442   1.043   6.317   5.186
 7495TIP3    H222443   1.189   6.353   5.208
 7496TIP3   OH222444   4.132   0.024   1.107
 7496TIP3    H122445   4.111   0.042   1.015
 7496TIP3    H222446   4.108  -0.067   1.120
 7497TIP3   OH222447   0.330   5.735   2.076
 7497TIP3    H122448   0.262   5.786   2.032
 7497TIP3    H222449   0.335   5.771   2.164
 7498TIP3   OH222450   0.507   5.649  -0.017
 7498TIP3    H122451   0.460   5.700   0.049
 7498TIP3    H222452   0.572   5.600   0.033
 7499TIP3   OH222453   2.815   5.603   6.263
 7499TIP3    H122454   2.770   5.644   6.337
 7499TIP3    H222455   2.899   5.648   6.258
 7500TIP3   OH222456   1.957   1.261   5.115
 7500TIP3    H122457   2.018   1.325   5.153
 7500TIP3    H222458   1.970   1.182   5.167
 7501TIP3   OH222459   5.474   5.522   5.595
 7501TIP3    H122460   5.422   5.461   5.647
 7501TIP3    H222461   5.411   5.561   5.534
 7502TIP3   OH222462   7.750   3.497   0.538
 7502TIP3    H122463   7.759   3.542   0.453
 7502TIP3    H222464   7.656   3.490   0.552
 7503TIP3   OH222465   5.725   7.248   4.760
 7503TIP3    H122466   5.804   7.242   4.814
 7503TIP3    H222467   5.750   7.209   4.676
 7504TIP3   OH222468   2.359   7.596   4.870
 7504TIP3    H122469   2.423   7.619   4.937
 7504TIP3    H222470   2.287   7.556   4.919
 7505TIP3   OH222471   2.870   5.405   2.187
 7505TIP3    H122472   2.914   5.348   2.124
 7505TIP3    H222473   2.777   5.398   2.167
 7506TIP3   OH222474   2.692   4.385   2.509
 7506TIP3    H122475   2.670   4.294   2.489
 7506TIP3    H222476   2.663   4.398   2.599
 7507TIP3   OH222477   8.215   2.768   3.629
 7507TIP3    H122478   8.129   2.750   3.593
 7507TIP3    H222479   8.277   2.742   3.561
 7508TIP3   OH222480   7.533   3.527   3.640
 7508TIP3    H122481   7.590   3.601   3.663
 7508TIP3    H222482   7.594   3.456   3.622
 7509TIP3   OH222483   4.867   3.734   6.075
 7509TIP3    H122484   4.844   3.735   6.168
 7509TIP3    H222485   4.807   3.670   6.036
 7510TIP3   OH222486   0.552   5.036   4.776
 7510TIP3    H122487   0.480   4.972   4.778
 7510TIP3    H222488   0.631   4.984   4.785
 7511TIP3   OH222489   1.372   2.957   0.323
 7511TIP3    H122490   1.409   3.043   0.306
 7511TIP3    H222491   1.416   2.927   0.403
 7512TIP3   OH222492   3.282   2.070   4.776
 7512TIP3    H122493   3.214   2.070   4.842
 7512TIP3    H222494   3.237   2.051   4.694
 7513TIP3   OH222495   3.781   1.124   6.485
 7513TIP3    H122496   3.865   1.170   6.476
 7513TIP3    H222497   3.787   1.052   6.422
 7514TIP3   OH222498   0.519   5.710   0.972
 7514TIP3    H122499   0.548   5.797   1.001
 7514TIP3    H222500   0.595   5.673   0.926
 7515TIP3   OH222501   3.792   7.562   5.346
 7515TIP3    H122502   3.779   7.490   5.285
 7515TIP3    H222503   3.818   7.520   5.428
 7516TIP3   OH222504   0.700   6.844   2.978
 7516TIP3    H122505   0.699   6.940   2.972
 7516TIP3    H222506   0.625   6.824   3.034
 7517TIP3   OH222507   1.245   6.604   3.027
 7517TIP3    H122508   1.195   6.597   3.108
 7517TIP3    H222509   1.292   6.521   3.021
 7518TIP3   OH222510   2.923   4.342   4.377
 7518TIP3    H122511   2.979   4.264   4.373
 7518TIP3    H222512   2.956   4.392   4.452
 7519TIP3   OH222513   3.856   7.633   0.107
 7519TIP3    H122514   3.888   7.707   0.055
 7519TIP3    H222515   3.779   7.602   0.059
 7520TIP3   OH222516   4.719   4.796   4.904
 7520TIP3    H122517   4.625   4.788   4.890
 7520TIP3    H222518   4.739   4.733   4.973
 7521TIP3   OH222519   3.462   6.349   2.663
 7521TIP3    H122520   3.532   6.406   2.693
 7521TIP3    H222521   3.423   6.396   2.589
 7522TIP3   OH222522   7.166   2.701   4.440
 7522TIP3    H122523   7.187   2.614   4.473
 7522TIP3    H222524   7.098   2.734   4.499
 7523TIP3   OH222525   7.465   3.812   0.913
 7523TIP3    H122526   7.416   3.846   0.988
 7523TIP3    H222527   7.519   3.742   0.949
 7524TIP3   OH222528   1.937   5.441   1.449
 7524TIP3    H122529   1.908   5.497   1.521
 7524TIP3    H222530   1.921   5.494   1.371
 7525TIP3   OH222531   8.211   0.283   2.626
 7525TIP3    H122532   8.269   0.213   2.654
 7525TIP3    H222533   8.188   0.329   2.707
 7526TIP3   OH222534   5.075   6.543   5.453
 7526TIP3    H122535   5.150   6.539   5.395
 7526TIP3    H222536   5.022   6.616   5.421
 7527TIP3   OH222537   4.640   4.064   5.215
 7527TIP3    H122538   4.557   4.020   5.194
 7527TIP3    H222539   4.630   4.152   5.178
 7528TIP3   OH222540   4.895   4.142   5.044
 7528TIP3    H122541   4.986   4.118   5.059
 7528TIP3    H222542   4.848   4.103   5.118
 7529TIP3   OH222543   7.579   2.233   5.140
 7529TIP3    H122544   7.586   2.140   5.120
 7529TIP3    H222545   7.542   2.237   5.228
 7530TIP3   OH222546   5.341   2.364   2.051
 7530TIP3    H122547   5.305   2.345   2.137
 7530TIP3    H222548   5.333   2.459   2.041
 7531TIP3   OH222549   3.346   7.076   4.263
 7531TIP3    H122550   3.255   7.069   4.237
 7531TIP3    H222551   3.372   6.986   4.285
 7532TIP3   OH222552   4.782   2.822   1.050
 7532TIP3    H122553   4.778   2.735   1.090
 7532TIP3    H222554   4.784   2.805   0.956
 7533TIP3   OH222555   7.683   4.893   5.274
 7533TIP3    H122556   7.722   4.828   5.216
 7533TIP3    H222557   7.740   4.892   5.352
 7534TIP3   OH222558   6.933   2.318   2.569
 7534TIP3    H122559   7.020   2.279   2.572
 7534TIP3    H222560   6.950   2.412   2.556
 7535TIP3   OH222561   4.372   3.820   2.553
 7535TIP3    H122562   4.387   3.890   2.616
 7535TIP3    H222563   4.449   3.763   2.562
 7536TIP3   OH222564   6.573   7.088   5.906
 7536TIP3    H122565   6.656   7.041   5.922
 7536TIP3    H222566   6.534   7.098   5.993
 7537TIP3   OH222567   1.523   4.966   4.353
 7537TIP3    H122568   1.490   4.944   4.266
 7537TIP3    H222569   1.617   4.978   4.341
 7538TIP3   OH222570   2.575   4.884   5.038
 7538TIP3    H122571   2.581   4.821   4.967
 7538TIP3    H222572   2.599   4.968   4.998
 7539TIP3   OH222573   6.943   4.029   2.976
 7539TIP3    H122574   6.908   3.942   2.993
 7539TIP3    H222575   6.866   4.085   2.969
 7540TIP3   OH222576   5.670   3.006   1.703
 7540TIP3    H122577   5.701   2.916   1.706
 7540TIP3    H222578   5.635   3.017   1.615
 7541TIP3   OH222579   4.898   0.647   3.806
 7541TIP3    H122580   4.930   0.571   3.759
 7541TIP3    H222581   4.808   0.657   3.777
 7542TIP3   OH222582   1.743   3.570   1.497
 7542TIP3    H122583   1.778   3.652   1.463
 7542TIP3    H222584   1.692   3.534   1.424
 7543TIP3   OH222585   3.997   5.067   2.454
 7543TIP3    H122586   3.921   5.120   2.430
 7543TIP3    H222587   3.966   4.977   2.452
 7544TIP3   OH222588   4.089   4.377   3.974
 7544TIP3    H122589   4.106   4.283   3.978
 7544TIP3    H222590   4.172   4.415   3.945
 7545TIP3   OH222591   2.492   4.431   2.322
 7545TIP3    H122592   2.435   4.502   2.353
 7545TIP3    H222593   2.549   4.411   2.396
 7546TIP3   OH222594   4.470   0.742   3.163
 7546TIP3    H122595   4.454   0.657   3.124
 7546TIP3    H222596   4.426   0.804   3.105
 7547TIP3   OH222597   6.951   2.195   3.449
 7547TIP3    H122598   7.026   2.236   3.405
 7547TIP3    H222599   6.985   2.169   3.534
 7548TIP3   OH222600   4.443   5.154   2.170
 7548TIP3    H122601   4.377   5.216   2.203
 7548TIP3    H222602   4.394   5.074   2.152
 7549TIP3   OH222603   7.954   4.147   4.719
 7549TIP3    H122604   7.886   4.169   4.655
 7549TIP3    H222605   7.960   4.052   4.717
 7550TIP3   OH222606   3.745   1.778   5.331
 7550TIP3    H122607   3.716   1.812   5.416
 7550TIP3    H222608   3.700   1.694   5.323
 7551TIP3   OH222609   6.179   4.027   5.135
 7551TIP3    H122610   6.106   3.989   5.086
 7551TIP3    H222611   6.244   3.957   5.140
 7552TIP3   OH222612   3.887   5.277   2.977
 7552TIP3    H122613   3.881   5.205   2.914
 7552TIP3    H222614   3.918   5.236   3.058
 7553TIP3   OH222615   1.271   4.532   4.420
 7553TIP3    H122616   1.258   4.440   4.441
 7553TIP3    H222617   1.311   4.531   4.333
 7554TIP3   OH222618   1.901   0.766   5.786
 7554TIP3    H122619   1.940   0.686   5.822
 7554TIP3    H222620   1.821   0.736   5.743
 7555TIP3   OH222621   2.317   1.177   0.840
 7555TIP3    H122622   2.318   1.139   0.928
 7555TIP3    H222623   2.317   1.102   0.781
 7556TIP3   OH222624   5.446   3.569   3.056
 7556TIP3    H122625   5.372   3.565   3.117
 7556TIP3    H222626   5.508   3.630   3.097
 7557TIP3   OH222627   3.645   3.094   2.447
 7557TIP3    H122628   3.721   3.080   2.390
 7557TIP3    H222629   3.623   3.006   2.479
 7558TIP3   OH222630   5.728   1.331   4.914
 7558TIP3    H122631   5.810   1.282   4.910
 7558TIP3    H222632   5.712   1.344   5.008
 7559TIP3   OH222633   5.517   2.342   4.184
 7559TIP3    H122634   5.422   2.339   4.199
 7559TIP3    H222635   5.526   2.358   4.090
 7560TIP3   OH222636   4.735   3.037   4.266
 7560TIP3    H122637   4.655   3.066   4.311
 7560TIP3    H222638   4.791   3.114   4.266
 7561TIP3   OH222639   6.226   0.444   4.862
 7561TIP3    H122640   6.241   0.535   4.887
 7561TIP3    H222641   6.311   0.402   4.872
 7562TIP3   OH222642   0.159   6.131   3.143
 7562TIP3    H122643   0.068   6.160   3.136
 7562TIP3    H222644   0.180   6.098   3.055
 7563TIP3   OH222645   5.860   6.007   3.130
 7563TIP3    H122646   5.828   5.966   3.049
 7563TIP3    H222647   5.789   6.065   3.157
 7564TIP3   OH222648   6.675   2.561   0.550
 7564TIP3    H122649   6.683   2.479   0.599
 7564TIP3    H222650   6.740   2.554   0.481
 7565TIP3   OH222651   2.787   3.735   2.762
 7565TIP3    H122652   2.840   3.811   2.786
 7565TIP3    H222653   2.698   3.770   2.751
 7566TIP3   OH222654   3.409   5.751   0.143
 7566TIP3    H122655   3.327   5.801   0.138
 7566TIP3    H222656   3.448   5.762   0.057
 7567TIP3   OH222657   3.353   5.691   5.756
 7567TIP3    H122658   3.405   5.735   5.688
 7567TIP3    H222659   3.273   5.664   5.711
 7568TIP3   OH222660   6.951   7.483   4.573
 7568TIP3    H122661   6.965   7.577   4.573
 7568TIP3    H222662   7.040   7.446   4.573
 7569TIP3   OH222663   7.040   4.902   3.875
 7569TIP3    H122664   7.049   4.843   3.800
 7569TIP3    H222665   7.107   4.872   3.936
 7570TIP3   OH222666   5.734   2.155   4.851
 7570TIP3    H122667   5.830   2.151   4.850
 7570TIP3    H222668   5.707   2.108   4.772
 7571TIP3   OH222669   4.462   5.294   2.820
 7571TIP3    H122670   4.479   5.376   2.866
 7571TIP3    H222671   4.382   5.311   2.770
 7572TIP3   OH222672   6.764   5.653   2.533
 7572TIP3    H122673   6.814   5.734   2.520
 7572TIP3    H222674   6.676   5.675   2.504
 7573TIP3   OH222675   4.805   7.024   1.394
 7573TIP3    H122676   4.819   7.014   1.489
 7573TIP3    H222677   4.761   7.109   1.385
 7574TIP3   OH222678   7.141   4.682   2.548
 7574TIP3    H122679   7.230   4.701   2.579
 7574TIP3    H222680   7.107   4.618   2.610
 7575TIP3   OH222681   7.195   3.722   0.413
 7575TIP3    H122682   7.178   3.791   0.349
 7575TIP3    H222683   7.223   3.770   0.492
 7576TIP3   OH222684   3.400   5.482   2.498
 7576TIP3    H122685   3.449   5.429   2.560
 7576TIP3    H222686   3.310   5.449   2.504
 7577TIP3   OH222687   2.581   1.076   4.560
 7577TIP3    H122688   2.624   0.991   4.553
 7577TIP3    H222689   2.650   1.134   4.592
 7578TIP3   OH222690   3.352   2.508   0.407
 7578TIP3    H122691   3.269   2.464   0.424
 7578TIP3    H222692   3.418   2.452   0.446
 7579TIP3   OH222693   3.998   0.373   4.195
 7579TIP3    H122694   4.000   0.409   4.106
 7579TIP3    H222695   4.087   0.383   4.227
 7580TIP3   OH222696   3.075   0.199   5.306
 7580TIP3    H122697   3.054   0.122   5.359
 7580TIP3    H222698   3.157   0.232   5.343
 7581TIP3   OH222699   6.372   3.713   2.573
 7581TIP3    H122700   6.449   3.727   2.628
 7581TIP3    H222701   6.375   3.620   2.551
 7582TIP3   OH222702   6.620   5.431   2.804
 7582TIP3    H122703   6.558   5.477   2.747
 7582TIP3    H222704   6.614   5.339   2.776
 7583TIP3   OH222705   2.238   2.885   1.538
 7583TIP3    H122706   2.242   2.808   1.595
 7583TIP3    H222707   2.251   2.959   1.597
 7584TIP3   OH222708   1.323   7.492   5.365
 7584TIP3    H122709   1.315   7.448   5.449
 7584TIP3    H222710   1.236   7.485   5.326
 7585TIP3   OH222711   5.279   3.890   2.902
 7585TIP3    H122712   5.212   3.905   2.970
 7585TIP3    H222713   5.258   3.803   2.868
 7586TIP3   OH222714   2.110   4.713   2.978
 7586TIP3    H122715   2.179   4.774   2.952
 7586TIP3    H222716   2.104   4.723   3.073
 7587TIP3   OH222717   3.635   0.480   5.524
 7587TIP3    H122718   3.611   0.424   5.451
 7587TIP3    H222719   3.727   0.503   5.507
 7588TIP3   OH222720   6.143   0.682   4.567
 7588TIP3    H122721   6.098   0.708   4.648
 7588TIP3    H222722   6.188   0.600   4.589
 7589TIP3   OH222723   1.674   2.367   4.315
 7589TIP3    H122724   1.671   2.436   4.248
 7589TIP3    H222725   1.607   2.304   4.288
 7590TIP3   OH222726   5.996   1.253   6.395
 7590TIP3    H122727   5.941   1.176   6.405
 7590TIP3    H222728   6.071   1.223   6.345
 7591TIP3   OH222729   5.608   4.603   3.989
 7591TIP3    H122730   5.580   4.664   3.921
 7591TIP3    H222731   5.695   4.575   3.961
 7592TIP3   OH222732   2.003   4.979   6.142
 7592TIP3    H122733   1.944   5.051   6.121
 7592TIP3    H222734   2.061   5.015   6.209
 7593TIP3   OH222735   7.184   4.989   5.117
 7593TIP3    H122736   7.120   4.923   5.145
 7593TIP3    H222737   7.268   4.945   5.124
 7594TIP3   OH222738   1.853   5.449   3.437
 7594TIP3    H122739   1.819   5.505   3.507
 7594TIP3    H222740   1.782   5.389   3.417
 7595TIP3   OH222741   2.592   2.144   3.282
 7595TIP3    H122742   2.648   2.098   3.220
 7595TIP3    H222743   2.507   2.101   3.274
 7596TIP3   OH222744   3.998   0.560   2.019
 7596TIP3    H122745   3.922   0.553   1.962
 7596TIP3    H222746   4.072   0.570   1.959
 7597TIP3   OH222747   1.526   2.024   0.490
 7597TIP3    H122748   1.612   2.060   0.465
 7597TIP3    H222749   1.503   2.071   0.570
 7598TIP3   OH222750   6.676   6.817   5.494
 7598TIP3    H122751   6.720   6.901   5.507
 7598TIP3    H222752   6.737   6.752   5.530
 7599TIP3   OH222753   0.933   3.992   2.648
 7599TIP3    H122754   0.977   3.992   2.563
 7599TIP3    H222755   0.981   3.926   2.699
 7600TIP3   OH222756   6.193   5.733   3.446
 7600TIP3    H122757   6.205   5.796   3.517
 7600TIP3    H222758   6.179   5.787   3.368
 7601TIP3   OH222759   0.036   1.049   3.878
 7601TIP3    H122760   0.087   1.130   3.876
 7601TIP3    H222761  -0.028   1.059   3.808
 7602TIP3   OH222762   8.142   4.323   3.889
 7602TIP3    H122763   8.094   4.266   3.829
 7602TIP3    H222764   8.182   4.389   3.832
 7603TIP3   OH222765   1.298   1.588   1.963
 7603TIP3    H122766   1.313   1.683   1.956
 7603TIP3    H222767   1.352   1.562   2.038
 7604TIP3   OH222768   5.469   6.573   4.921
 7604TIP3    H122769   5.529   6.647   4.920
 7604TIP3    H222770   5.390   6.604   4.877
 7605TIP3   OH222771   4.544   3.829   3.450
 7605TIP3    H122772   4.529   3.796   3.361
 7605TIP3    H222773   4.459   3.862   3.478
 7606TIP3   OH222774   2.964   6.956   1.272
 7606TIP3    H122775   2.968   7.048   1.297
 7606TIP3    H222776   2.951   6.909   1.354
 7607TIP3   OH222777   3.742   3.403   4.501
 7607TIP3    H122778   3.717   3.380   4.412
 7607TIP3    H222779   3.660   3.431   4.542
 7608TIP3   OH222780   6.908   4.140   1.748
 7608TIP3    H122781   6.920   4.045   1.747
 7608TIP3    H222782   6.821   4.152   1.785
 7609TIP3   OH222783   6.923   4.488   3.802
 7609TIP3    H122784   6.912   4.431   3.726
 7609TIP3    H222785   7.017   4.488   3.819
 7610TIP3   OH222786   2.722   4.995   5.672
 7610TIP3    H122787   2.762   4.910   5.691
 7610TIP3    H222788   2.733   5.006   5.578
 7611TIP3   OH222789   6.475   2.142   4.050
 7611TIP3    H122790   6.405   2.126   3.986
 7611TIP3    H222791   6.492   2.236   4.044
 7612TIP3   OH222792   4.743   7.186   2.846
 7612TIP3    H122793   4.720   7.196   2.754
 7612TIP3    H222794   4.714   7.267   2.888
 7613TIP3   OH222795   2.584   4.648   5.866
 7613TIP3    H122796   2.516   4.602   5.818
 7613TIP3    H222797   2.663   4.596   5.852
 7614TIP3   OH222798   1.360   0.153   5.187
 7614TIP3    H122799   1.285   0.146   5.127
 7614TIP3    H222800   1.349   0.238   5.230
 7615TIP3   OH222801   3.343   3.543   0.535
 7615TIP3    H122802   3.401   3.606   0.578
 7615TIP3    H222803   3.375   3.457   0.563
 7616TIP3   OH222804   1.136   6.523   4.246
 7616TIP3    H122805   1.218   6.487   4.212
 7616TIP3    H222806   1.076   6.521   4.172
 7617TIP3   OH222807   2.582   2.216   0.498
 7617TIP3    H122808   2.622   2.301   0.480
 7617TIP3    H222809   2.656   2.160   0.523
 7618TIP3   OH222810   0.719   2.410   4.237
 7618TIP3    H122811   0.748   2.390   4.148
 7618TIP3    H222812   0.668   2.491   4.228
 7619TIP3   OH222813   6.964   6.955   2.514
 7619TIP3    H122814   6.930   6.992   2.433
 7619TIP3    H222815   6.905   6.987   2.582
 7620TIP3   OH222816   2.185   0.885   0.367
 7620TIP3    H122817   2.229   0.886   0.282
 7620TIP3    H222818   2.102   0.931   0.351
 7621TIP3   OH222819   2.606   7.196   0.075
 7621TIP3    H122820   2.556   7.198   0.156
 7621TIP3    H222821   2.573   7.119   0.028
 7622TIP3   OH222822   7.645   2.274   0.998
 7622TIP3    H122823   7.693   2.267   0.916
 7622TIP3    H222824   7.678   2.354   1.039
 7623TIP3   OH222825   4.164   5.741   3.102
 7623TIP3    H122826   4.194   5.684   3.172
 7623TIP3    H222827   4.120   5.683   3.041
 7624TIP3   OH222828   4.892   2.877   5.523
 7624TIP3    H122829   4.937   2.818   5.584
 7624TIP3    H222830   4.963   2.922   5.477
 7625TIP3   OH222831   6.327   6.425   2.823
 7625TIP3    H122832   6.409   6.380   2.807
 7625TIP3    H222833   6.312   6.415   2.917
 7626TIP3   OH222834   4.349   5.968   5.287
 7626TIP3    H122835   4.310   5.883   5.305
 7626TIP3    H222836   4.332   6.020   5.366
 7627TIP3   OH222837   1.178   7.850   1.712
 7627TIP3    H122838   1.265   7.809   1.709
 7627TIP3    H222839   1.196   7.944   1.712
 7628TIP3   OH222840   7.954   6.038   5.560
 7628TIP3    H122841   7.912   5.974   5.618
 7628TIP3    H222842   7.891   6.051   5.489
 7629TIP3   OH222843   4.024   4.312   1.447
 7629TIP3    H122844   4.057   4.354   1.527
 7629TIP3    H222845   3.936   4.283   1.470
 7630TIP3   OH222846   2.979   1.151   6.504
 7630TIP3    H122847   3.011   1.241   6.499
 7630TIP3    H222848   3.047   1.098   6.463
 7631TIP3   OH222849   2.201   6.769   6.208
 7631TIP3    H122850   2.283   6.720   6.209
 7631TIP3    H222851   2.174   6.773   6.300
 7632TIP3   OH222852   1.516   3.327   4.360
 7632TIP3    H122853   1.605   3.327   4.325
 7632TIP3    H222854   1.466   3.381   4.299
 7633TIP3   OH222855   5.389   7.118   5.954
 7633TIP3    H122856   5.432   7.073   5.882
 7633TIP3    H222857   5.340   7.189   5.911
 7634TIP3   OH222858   3.030   2.436   6.562
 7634TIP3    H122859   3.030   2.478   6.647
 7634TIP3    H222860   2.960   2.370   6.568
 7635TIP3   OH222861   5.260   0.446   2.202
 7635TIP3    H122862   5.303   0.418   2.121
 7635TIP3    H222863   5.318   0.514   2.237
 7636TIP3   OH222864   7.858   1.347   3.607
 7636TIP3    H122865   7.943   1.339   3.563
 7636TIP3    H222866   7.823   1.258   3.607
 7637TIP3   OH222867   3.134   5.808   1.855
 7637TIP3    H122868   3.052   5.846   1.824
 7637TIP3    H222869   3.132   5.718   1.824
 7638TIP3   OH222870   4.994   4.251   2.991
 7638TIP3    H122871   4.925   4.300   3.036
 7638TIP3    H222872   5.030   4.313   2.928
 7639TIP3   OH222873   6.451   6.505   0.337
 7639TIP3    H122874   6.448   6.600   0.347
 7639TIP3    H222875   6.364   6.482   0.303
 7640TIP3   OH222876   7.865   5.755   1.753
 7640TIP3    H122877   7.951   5.764   1.796
 7640TIP3    H222878   7.840   5.845   1.732
 7641TIP3   OH222879   1.003   4.155   5.778
 7641TIP3    H122880   1.038   4.218   5.715
 7641TIP3    H222881   1.080   4.112   5.815
 7642TIP3   OH222882   0.184   2.272   5.343
 7642TIP3    H122883   0.243   2.340   5.375
 7642TIP3    H222884   0.111   2.272   5.406
 7643TIP3   OH222885   3.894   1.823   5.104
 7643TIP3    H122886   3.949   1.872   5.165
 7643TIP3    H222887   3.824   1.787   5.158
 7644TIP3   OH222888   4.455   1.277   2.948
 7644TIP3    H122889   4.493   1.262   3.034
 7644TIP3    H222890   4.427   1.191   2.918
 7645TIP3   OH222891   7.276   4.953   1.172
 7645TIP3    H122892   7.366   4.976   1.192
 7645TIP3    H222893   7.227   5.034   1.188
 7646TIP3   OH222894   0.033   2.305   6.272
 7646TIP3    H122895  -0.023   2.233   6.242
 7646TIP3    H222896   0.061   2.279   6.360
 7647TIP3   OH222897   3.016   3.291   4.936
 7647TIP3    H122898   3.086   3.241   4.979
 7647TIP3    H222899   3.031   3.381   4.963
 7648TIP3   OH222900   5.136   6.144   0.522
 7648TIP3    H122901   5.213   6.200   0.533
 7648TIP3    H222902   5.068   6.203   0.488
 7649TIP3   OH222903   5.962   5.129   4.293
 7649TIP3    H122904   5.880   5.170   4.265
 7649TIP3    H222905   5.983   5.067   4.222
 7650TIP3   OH222906   6.765   1.019   0.176
 7650TIP3    H122907   6.719   1.011   0.260
 7650TIP3    H222908   6.828   1.090   0.189
 7651TIP3   OH222909   6.500   2.034   6.706
 7651TIP3    H122910   6.538   1.991   6.782
 7651TIP3    H222911   6.481   2.123   6.735
 7652TIP3   OH222912   6.679   1.517   6.293
 7652TIP3    H122913   6.590   1.513   6.258
 7652TIP3    H222914   6.708   1.426   6.294
 7653TIP3   OH222915   2.924   3.241   4.681
 7653TIP3    H122916   2.847   3.299   4.687
 7653TIP3    H222917   2.975   3.261   4.759
 7654TIP3   OH222918   0.568   7.536   0.389
 7654TIP3    H122919   0.550   7.478   0.314
 7654TIP3    H222920   0.494   7.596   0.391
 7655TIP3   OH222921   1.293   0.337   2.314
 7655TIP3    H122922   1.378   0.379   2.325
 7655TIP3    H222923   1.303   0.253   2.359
 7656TIP3   OH222924   2.305   5.927   6.014
 7656TIP3    H122925   2.229   5.968   6.057
 7656TIP3    H222926   2.380   5.978   6.045
 7657TIP3   OH222927   0.359   4.139   0.673
 7657TIP3    H122928   0.453   4.126   0.689
 7657TIP3    H222929   0.318   4.114   0.756
 7658TIP3   OH222930   0.268   3.144   4.077
 7658TIP3    H122931   0.316   3.220   4.044
 7658TIP3    H222932   0.327   3.104   4.140
 7659TIP3   OH222933   1.669   3.852   1.680
 7659TIP3    H122934   1.600   3.902   1.725
 7659TIP3    H222935   1.673   3.769   1.728
 7660TIP3   OH222936   4.879   5.122   0.479
 7660TIP3    H122937   4.911   5.087   0.396
 7660TIP3    H222938   4.837   5.048   0.522
 7661TIP3   OH222939   6.811   3.814   3.116
 7661TIP3    H122940   6.732   3.808   3.170
 7661TIP3    H222941   6.836   3.723   3.100
 7662TIP3   OH222942   4.449   0.487   2.955
 7662TIP3    H122943   4.415   0.423   2.892
 7662TIP3    H222944   4.528   0.522   2.914
 7663TIP3   OH222945   5.121   7.227   4.034
 7663TIP3    H122946   5.120   7.306   4.088
 7663TIP3    H222947   5.110   7.260   3.945
 7664TIP3   OH222948   0.368   0.204   4.625
 7664TIP3    H122949   0.369   0.142   4.697
 7664TIP3    H222950   0.288   0.256   4.639
 7665TIP3   OH222951   4.346   5.023   1.230
 7665TIP3    H122952   4.336   4.968   1.152
 7665TIP3    H222953   4.318   4.967   1.303
 7666TIP3   OH222954   1.941   3.207   5.165
 7666TIP3    H122955   1.962   3.114   5.155
 7666TIP3    H222956   1.994   3.251   5.099
 7667TIP3   OH222957   0.981   5.913   0.228
 7667TIP3    H122958   1.035   5.836   0.242
 7667TIP3    H222959   0.898   5.892   0.270
 7668TIP3   OH222960   1.050   6.838   1.831
 7668TIP3    H122961   1.044   6.778   1.906
 7668TIP3    H222962   1.142   6.867   1.831
 7669TIP3   OH222963   6.296   5.531   3.894
 7669TIP3    H122964   6.319   5.603   3.835
 7669TIP3    H222965   6.333   5.557   3.979
 7670TIP3   OH222966   3.073   0.450   1.515
 7670TIP3    H122967   3.016   0.501   1.572
 7670TIP3    H222968   3.161   0.478   1.538
 7671TIP3   OH222969   5.450   0.378   2.027
 7671TIP3    H122970   5.520   0.439   2.049
 7671TIP3    H222971   5.494   0.306   1.983
 7672TIP3   OH222972   1.482   4.531   4.210
 7672TIP3    H122973   1.572   4.524   4.243
 7672TIP3    H222974   1.490   4.512   4.117
 7673TIP3   OH222975   5.755   2.674   3.833
 7673TIP3    H122976   5.835   2.666   3.782
 7673TIP3    H222977   5.693   2.717   3.775
 7674TIP3   OH222978   7.368   0.394   2.530
 7674TIP3    H122979   7.391   0.326   2.592
 7674TIP3    H222980   7.272   0.397   2.531
 7675TIP3   OH222981   7.675   2.377   1.399
 7675TIP3    H122982   7.598   2.426   1.372
 7675TIP3    H222983   7.656   2.287   1.373
 7676TIP3   OH222984   6.290   5.246   4.058
 7676TIP3    H122985   6.351   5.315   4.032
 7676TIP3    H222986   6.330   5.165   4.025
 7677TIP3   OH222987   2.199   3.255   4.229
 7677TIP3    H122988   2.143   3.292   4.297
 7677TIP3    H222989   2.230   3.331   4.179
 7678TIP3   OH222990   5.387   7.132   3.352
 7678TIP3    H122991   5.352   7.044   3.364
 7678TIP3    H222992   5.481   7.120   3.338
 7679TIP3   OH222993   4.832   2.835   6.591
 7679TIP3    H122994   4.765   2.817   6.657
 7679TIP3    H222995   4.802   2.914   6.547
 7680TIP3   OH222996   2.108   3.808   1.001
 7680TIP3    H122997   2.178   3.865   1.033
 7680TIP3    H222998   2.068   3.774   1.081
 7681TIP3   OH222999   2.047   2.017   1.630
 7681TIP3    H123000   2.096   2.093   1.597
 7681TIP3    H223001   2.109   1.944   1.621
 7682TIP3   OH223002   7.757   5.632   5.070
 7682TIP3    H123003   7.795   5.682   5.142
 7682TIP3    H223004   7.809   5.552   5.066
 7683TIP3   OH223005   0.470   0.157   1.874
 7683TIP3    H123006   0.491   0.092   1.807
 7683TIP3    H223007   0.553   0.172   1.920
 7684TIP3   OH223008   5.141   6.442   0.539
 7684TIP3    H123009   5.155   6.537   0.543
 7684TIP3    H223010   5.228   6.406   0.520
 7685TIP3   OH223011   7.123   2.265   3.240
 7685TIP3    H123012   7.159   2.212   3.168
 7685TIP3    H223013   7.187   2.335   3.253
 7686TIP3   OH223014   4.547   4.143   0.342
 7686TIP3    H123015   4.489   4.191   0.283
 7686TIP3    H223016   4.499   4.140   0.425
 7687TIP3   OH223017   4.628   5.863   3.067
 7687TIP3    H123018   4.538   5.885   3.089
 7687TIP3    H223019   4.657   5.936   3.013
 7688TIP3   OH223020   5.257   6.587   4.610
 7688TIP3    H123021   5.211   6.513   4.648
 7688TIP3    H223022   5.245   6.658   4.672
 7689TIP3   OH223023   5.452   1.467   6.515
 7689TIP3    H123024   5.508   1.530   6.560
 7689TIP3    H223025   5.430   1.509   6.432
 7690TIP3   OH223026   7.457   3.388   0.508
 7690TIP3    H123027   7.362   3.380   0.509
 7690TIP3    H223028   7.478   3.406   0.416
 7691TIP3   OH223029   3.930   5.952   0.441
 7691TIP3    H123030   3.845   5.945   0.485
 7691TIP3    H223031   3.932   5.877   0.382
 7692TIP3   OH223032   4.392   2.186   1.264
 7692TIP3    H123033   4.471   2.145   1.228
 7692TIP3    H223034   4.372   2.134   1.341
 7693TIP3   OH223035   4.473   3.816   0.959
 7693TIP3    H123036   4.488   3.754   0.887
 7693TIP3    H223037   4.379   3.831   0.959
 7694TIP3   OH223038   5.891   5.583   1.604
 7694TIP3    H123039   5.871   5.651   1.668
 7694TIP3    H223040   5.927   5.511   1.656
 7695TIP3   OH223041   0.786   1.706   2.489
 7695TIP3    H123042   0.717   1.750   2.538
 7695TIP3    H223043   0.746   1.687   2.403
 7696TIP3   OH223044   8.010   7.051   5.392
 7696TIP3    H123045   7.962   7.133   5.404
 7696TIP3    H223046   7.948   6.982   5.414
 7697TIP3   OH223047   6.745   4.826   2.303
 7697TIP3    H123048   6.766   4.733   2.303
 7697TIP3    H223049   6.821   4.867   2.344
 7698TIP3   OH223050   3.070   5.297   2.001
 7698TIP3    H123051   3.121   5.217   2.008
 7698TIP3    H223052   3.031   5.293   1.913
 7699TIP3   OH223053   7.635   0.653   5.360
 7699TIP3    H123054   7.551   0.677   5.400
 7699TIP3    H223055   7.633   0.694   5.274
 7700TIP3   OH223056   0.390   0.445   2.144
 7700TIP3    H123057   0.342   0.482   2.219
 7700TIP3    H223058   0.328   0.451   2.071
 7701TIP3   OH223059   4.659   7.693   3.421
 7701TIP3    H123060   4.612   7.776   3.433
 7701TIP3    H223061   4.617   7.633   3.483
 7702TIP3   OH223062   6.688   2.648   6.518
 7702TIP3    H123063   6.781   2.667   6.515
 7702TIP3    H223064   6.683   2.561   6.560
 7703TIP3   OH223065   1.148   0.760   1.256
 7703TIP3    H123066   1.106   0.765   1.342
 7703TIP3    H223067   1.120   0.840   1.211
 7704TIP3   OH223068   1.679   5.203   0.291
 7704TIP3    H123069   1.652   5.254   0.368
 7704TIP3    H223070   1.677   5.112   0.320
 7705TIP3   OH223071   2.211   5.693   2.717
 7705TIP3    H123072   2.289   5.682   2.662
 7705TIP3    H223073   2.238   5.758   2.782
 7706TIP3   OH223074   4.119   4.935   3.693
 7706TIP3    H123075   4.144   5.026   3.711
 7706TIP3    H223076   4.194   4.883   3.723
 7707TIP3   OH223077   6.691   1.509   3.892
 7707TIP3    H123078   6.606   1.470   3.871
 7707TIP3    H223079   6.669   1.598   3.921
 7708TIP3   OH223080   6.681   2.232   4.547
 7708TIP3    H123081   6.685   2.227   4.643
 7708TIP3    H223082   6.711   2.146   4.518
 7709TIP3   OH223083   6.965   5.007   4.224
 7709TIP3    H123084   6.890   5.066   4.230
 7709TIP3    H223085   6.991   4.991   4.315
 7710TIP3   OH223086   7.487   2.381   3.926
 7710TIP3    H123087   7.562   2.391   3.867
 7710TIP3    H223088   7.416   2.351   3.871
 7711TIP3   OH223089   7.638   1.601   2.978
 7711TIP3    H123090   7.567   1.665   2.968
 7711TIP3    H223091   7.642   1.557   2.893
 7712TIP3   OH223092   6.776   6.442   5.178
 7712TIP3    H123093   6.738   6.511   5.123
 7712TIP3    H223094   6.814   6.380   5.116
 7713TIP3   OH223095   5.343   2.610   4.382
 7713TIP3    H123096   5.267   2.562   4.416
 7713TIP3    H223097   5.338   2.696   4.424
 7714TIP3   OH223098   5.019   2.327   6.747
 7714TIP3    H123099   5.098   2.329   6.693
 7714TIP3    H223100   5.001   2.234   6.760
 7715TIP3   OH223101   3.942   1.974   1.872
 7715TIP3    H123102   3.911   1.983   1.962
 7715TIP3    H223103   3.897   1.897   1.838
 7716TIP3   OH223104   2.577   0.477   6.727
 7716TIP3    H123105   2.650   0.448   6.782
 7716TIP3    H223106   2.555   0.564   6.761
 7717TIP3   OH223107   6.968   0.237   0.865
 7717TIP3    H123108   6.971   0.332   0.853
 7717TIP3    H223109   7.022   0.202   0.794
 7718TIP3   OH223110   6.824   2.258   1.965
 7718TIP3    H123111   6.788   2.286   2.049
 7718TIP3    H223112   6.918   2.272   1.974
 7719TIP3   OH223113   4.803   3.272   1.351
 7719TIP3    H123114   4.815   3.360   1.317
 7719TIP3    H223115   4.744   3.283   1.426
 7720TIP3   OH223116   1.308   7.459   6.019
 7720TIP3    H123117   1.348   7.487   6.102
 7720TIP3    H223118   1.264   7.537   5.986
 7721TIP3   OH223119   4.898   2.457  -0.009
 7721TIP3    H123120   4.857   2.449   0.077
 7721TIP3    H223121   4.954   2.534  -0.001
 7722TIP3   OH223122   5.578   4.375   2.640
 7722TIP3    H123123   5.627   4.436   2.586
 7722TIP3    H223124   5.510   4.341   2.582
 7723TIP3   OH223125   0.420   5.732   4.542
 7723TIP3    H123126   0.344   5.691   4.582
 7723TIP3    H223127   0.492   5.716   4.604
 7724TIP3   OH223128   6.242   4.029   5.558
 7724TIP3    H123129   6.313   4.032   5.622
 7724TIP3    H223130   6.275   4.078   5.483
 7725TIP3   OH223131   2.382   4.178   4.135
 7725TIP3    H123132   2.326   4.132   4.073
 7725TIP3    H223133   2.420   4.108   4.189
 7726TIP3   OH223134   6.847   4.776   4.698
 7726TIP3    H123135   6.881   4.735   4.618
 7726TIP3    H223136   6.754   4.753   4.699
 7727TIP3   OH223137   6.175   0.013   1.844
 7727TIP3    H123138   6.149   0.084   1.785
 7727TIP3    H223139   6.161  -0.067   1.793
 7728TIP3   OH223140   1.729   5.162   3.638
 7728TIP3    H123141   1.689   5.095   3.583
 7728TIP3    H223142   1.797   5.115   3.687
 7729TIP3   OH223143   7.445   3.224   2.174
 7729TIP3    H123144   7.434   3.193   2.084
 7729TIP3    H223145   7.463   3.145   2.224
 7730TIP3   OH223146   6.119   7.459   4.111
 7730TIP3    H123147   6.119   7.418   4.198
 7730TIP3    H223148   6.040   7.425   4.068
 7731TIP3   OH223149   5.452   0.210   1.581
 7731TIP3    H123150   5.525   0.149   1.568
 7731TIP3    H223151   5.492   0.286   1.622
 7732TIP3   OH223152   0.356   3.804   1.616
 7732TIP3    H123153   0.389   3.883   1.659
 7732TIP3    H223154   0.323   3.750   1.688
 7733TIP3   OH223155   0.658   2.431   6.447
 7733TIP3    H123156   0.751   2.446   6.463
 7733TIP3    H223157   0.656   2.388   6.361
 7734TIP3   OH223158   4.404   6.357   0.612
 7734TIP3    H123159   4.439   6.427   0.558
 7734TIP3    H223160   4.477   6.328   0.666
 7735TIP3   OH223161   0.814   4.537   1.126
 7735TIP3    H123162   0.765   4.458   1.146
 7735TIP3    H223163   0.749   4.608   1.134
 7736TIP3   OH223164   6.555   5.723   0.332
 7736TIP3    H123165   6.605   5.646   0.359
 7736TIP3    H223166   6.503   5.694   0.257
 7737TIP3   OH223167   0.446   1.749   0.962
 7737TIP3    H123168   0.407   1.709   0.884
 7737TIP3    H223169   0.391   1.824   0.980
 7738TIP3   OH223170   8.111   0.540   4.078
 7738TIP3    H123171   8.097   0.533   3.984
 7738TIP3    H223172   8.206   0.537   4.089
 7739TIP3   OH223173   4.248   2.058   2.609
 7739TIP3    H123174   4.245   2.117   2.684
 7739TIP3    H223175   4.157   2.047   2.583
 7740TIP3   OH223176   2.176   2.330   5.348
 7740TIP3    H123177   2.168   2.244   5.306
 7740TIP3    H223178   2.186   2.310   5.441
 7741TIP3   OH223179   2.784   7.425   2.070
 7741TIP3    H123180   2.715   7.446   2.133
 7741TIP3    H223181   2.753   7.462   1.987
 7742TIP3   OH223182   5.737   3.027   4.756
 7742TIP3    H123183   5.826   3.004   4.731
 7742TIP3    H223184   5.747   3.108   4.807
 7743TIP3   OH223185   7.250   0.357   0.883
 7743TIP3    H123186   7.257   0.354   0.788
 7743TIP3    H223187   7.287   0.441   0.908
 7744TIP3   OH223188   6.037   0.926   0.853
 7744TIP3    H123189   6.055   0.832   0.843
 7744TIP3    H223190   5.942   0.933   0.848
 7745TIP3   OH223191   0.458   5.234   1.889
 7745TIP3    H123192   0.422   5.315   1.853
 7745TIP3    H223193   0.421   5.165   1.835
 7746TIP3   OH223194   5.437   3.038   3.549
 7746TIP3    H123195   5.362   3.003   3.500
 7746TIP3    H223196   5.502   3.058   3.481
 7747TIP3   OH223197   1.834   6.171   2.285
 7747TIP3    H123198   1.917   6.131   2.311
 7747TIP3    H223199   1.810   6.125   2.205
 7748TIP3   OH223200   1.547   1.489   5.663
 7748TIP3    H123201   1.610   1.561   5.662
 7748TIP3    H223202   1.571   1.436   5.739
 7749TIP3   OH223203   0.213   7.191   6.413
 7749TIP3    H123204   0.129   7.148   6.394
 7749TIP3    H223205   0.237   7.233   6.331
 7750TIP3   OH223206   0.767   1.667   1.960
 7750TIP3    H123207   0.760   1.763   1.955
 7750TIP3    H223208   0.679   1.636   1.938
 7751TIP3   OH223209   2.478   0.728   3.455
 7751TIP3    H123210   2.400   0.674   3.444
 7751TIP3    H223211   2.511   0.742   3.366
 7752TIP3   OH223212   7.464   6.984   1.355
 7752TIP3    H123213   7.438   7.076   1.354
 7752TIP3    H223214   7.430   6.950   1.437
 7753TIP3   OH223215   4.582   0.603   5.493
 7753TIP3    H123216   4.553   0.602   5.584
 7753TIP3    H223217   4.568   0.693   5.464
 7754TIP3   OH223218   5.420   1.033   5.872
 7754TIP3    H123219   5.469   0.951   5.880
 7754TIP3    H223220   5.362   1.019   5.797
 7755TIP3   OH223221   2.347   2.033   0.134
 7755TIP3    H123222   2.351   2.115   0.084
 7755TIP3    H223223   2.405   2.047   0.209
 7756TIP3   OH223224   1.519   2.602   0.408
 7756TIP3    H123225   1.428   2.573   0.412
 7756TIP3    H223226   1.571   2.522   0.413
 7757TIP3   OH223227   1.448   3.489   2.656
 7757TIP3    H123228   1.496   3.459   2.733
 7757TIP3    H223229   1.467   3.582   2.650
 7758TIP3   OH223230   7.171   3.220   3.109
 7758TIP3    H123231   7.185   3.181   3.196
 7758TIP3    H223232   7.085   3.261   3.115
 7759TIP3   OH223233   1.213   3.318   2.783
 7759TIP3    H123234   1.257   3.273   2.711
 7759TIP3    H223235   1.189   3.249   2.844
 7760TIP3   OH223236   0.147   1.611   5.226
 7760TIP3    H123237   0.148   1.581   5.135
 7760TIP3    H223238   0.144   1.707   5.219
 7761TIP3   OH223239   5.020   5.154   4.884
 7761TIP3    H123240   4.939   5.108   4.863
 7761TIP3    H223241   5.001   5.246   4.864
 7762TIP3   OH223242   4.907   4.083   4.401
 7762TIP3    H123243   4.948   4.156   4.448
 7762TIP3    H223244   4.976   4.017   4.395
 7763TIP3   OH223245   5.681   4.286   1.742
 7763TIP3    H123246   5.725   4.346   1.681
 7763TIP3    H223247   5.718   4.308   1.828
 7764TIP3   OH223248   2.315   1.035   4.636
 7764TIP3    H123249   2.404   1.020   4.605
 7764TIP3    H223250   2.315   1.126   4.666
 7765TIP3   OH223251   7.587   0.184   2.886
 7765TIP3    H123252   7.592   0.100   2.840
 7765TIP3    H223253   7.499   0.186   2.923
 7766TIP3   OH223254   4.834   1.311   1.861
 7766TIP3    H123255   4.896   1.359   1.806
 7766TIP3    H223256   4.870   1.222   1.866
 7767TIP3   OH223257   7.489   7.330   5.074
 7767TIP3    H123258   7.557   7.263   5.068
 7767TIP3    H223259   7.536   7.413   5.062
 7768TIP3   OH223260   1.180   5.886   6.693
 7768TIP3    H123261   1.125   5.945   6.642
 7768TIP3    H223262   1.148   5.799   6.672
 7769TIP3   OH223263   1.024   4.173   6.673
 7769TIP3    H123264   0.982   4.246   6.718
 7769TIP3    H223265   0.972   4.160   6.594
 7770TIP3   OH223266   4.463   0.854   5.938
 7770TIP3    H123267   4.473   0.767   5.974
 7770TIP3    H223268   4.385   0.890   5.980
 7771TIP3   OH223269   2.307   1.278   0.023
 7771TIP3    H123270   2.305   1.261   0.117
 7771TIP3    H223271   2.216   1.292  -0.001
 7772TIP3   OH223272   6.188   6.518   1.576
 7772TIP3    H123273   6.198   6.425   1.597
 7772TIP3    H223274   6.098   6.526   1.543
 7773TIP3   OH223275   3.751   1.004   4.950
 7773TIP3    H123276   3.777   0.997   4.858
 7773TIP3    H223277   3.722   0.916   4.973
 7774TIP3   OH223278   1.592   7.362   0.197
 7774TIP3    H123279   1.569   7.275   0.229
 7774TIP3    H223280   1.612   7.349   0.104
 7775TIP3   OH223281   0.696   3.596   6.494
 7775TIP3    H123282   0.645   3.590   6.413
 7775TIP3    H223283   0.724   3.687   6.498
 7776TIP3   OH223284   3.661   3.718   4.205
 7776TIP3    H123285   3.589   3.677   4.158
 7776TIP3    H223286   3.735   3.712   4.144
 7777TIP3   OH223287   2.956   4.992   5.157
 7777TIP3    H123288   2.985   4.914   5.109
 7777TIP3    H223289   3.035   5.046   5.164
 7778TIP3   OH223290   5.591   1.689   5.458
 7778TIP3    H123291   5.515   1.671   5.513
 7778TIP3    H223292   5.652   1.618   5.478
 7779TIP3   OH223293   3.424   1.998   2.375
 7779TIP3    H123294   3.433   1.916   2.327
 7779TIP3    H223295   3.397   1.972   2.463
 7780TIP3   OH223296   3.981   1.835   3.626
 7780TIP3    H123297   4.060   1.802   3.668
 7780TIP3    H223298   3.989   1.930   3.632
 7781TIP3   OH223299   6.165   7.300   4.362
 7781TIP3    H123300   6.116   7.338   4.435
 7781TIP3    H223301   6.254   7.286   4.397
 7782TIP3   OH223302   5.524   6.182   0.766
 7782TIP3    H123303   5.592   6.240   0.802
 7782TIP3    H223304   5.472   6.156   0.842
 7783TIP3   OH223305   5.185   3.711   0.513
 7783TIP3    H123306   5.278   3.729   0.523
 7783TIP3    H223307   5.181   3.633   0.458
 7784TIP3   OH223308   6.269   7.086   1.690
 7784TIP3    H123309   6.334   7.082   1.760
 7784TIP3    H223310   6.206   7.152   1.719
 7785TIP3   OH223311   0.323   5.152   6.368
 7785TIP3    H123312   0.314   5.199   6.285
 7785TIP3    H223313   0.243   5.174   6.417
 7786TIP3   OH223314   6.935   0.108   4.277
 7786TIP3    H123315   6.899   0.034   4.228
 7786TIP3    H223316   6.903   0.095   4.367
 7787TIP3   OH223317   6.195   7.802   1.374
 7787TIP3    H123318   6.264   7.799   1.307
 7787TIP3    H223319   6.144   7.723   1.359
 7788TIP3   OH223320   5.178   1.921   0.586
 7788TIP3    H123321   5.231   1.975   0.644
 7788TIP3    H223322   5.240   1.884   0.523
 7789TIP3   OH223323   1.232   1.855   3.124
 7789TIP3    H123324   1.312   1.827   3.168
 7789TIP3    H223325   1.211   1.783   3.065
 7790TIP3   OH223326   6.463   7.157   1.918
 7790TIP3    H123327   6.552   7.189   1.924
 7790TIP3    H223328   6.410   7.221   1.965
 7791TIP3   OH223329   5.337   0.855   6.664
 7791TIP3    H123330   5.334   0.949   6.679
 7791TIP3    H223331   5.271   0.839   6.596
 7792TIP3   OH223332   5.336   7.155   3.020
 7792TIP3    H123333   5.337   7.110   3.104
 7792TIP3    H223334   5.408   7.217   3.025
 7793TIP3   OH223335   2.466   5.039   3.413
 7793TIP3    H123336   2.498   4.960   3.456
 7793TIP3    H223337   2.545   5.080   3.376
 7794TIP3   OH223338   6.442   5.862   4.721
 7794TIP3    H123339   6.468   5.792   4.662
 7794TIP3    H223340   6.361   5.830   4.761
 7795TIP3   OH223341   8.033   1.359   0.955
 7795TIP3    H123342   8.032   1.421   0.882
 7795TIP3    H223343   8.056   1.275   0.915
 7796TIP3   OH223344   7.422   3.110   0.641
 7796TIP3    H123345   7.406   3.183   0.581
 7796TIP3    H223346   7.440   3.151   0.725
 7797TIP3   OH223347   4.265   0.296   1.832
 7797TIP3    H123348   4.177   0.264   1.812
 7797TIP3    H223349   4.264   0.312   1.926
 7798TIP3   OH223350   1.433   5.634   6.613
 7798TIP3    H123351   1.409   5.686   6.537
 7798TIP3    H223352   1.349   5.606   6.650
 7799TIP3   OH223353   7.234   5.291   2.479
 7799TIP3    H123354   7.262   5.279   2.388
 7799TIP3    H223355   7.299   5.350   2.516
 7800TIP3   OH223356   3.761   3.782   1.978
 7800TIP3    H123357   3.674   3.748   1.958
 7800TIP3    H223358   3.817   3.748   1.908
 7801TIP3   OH223359   1.075   7.122   3.765
 7801TIP3    H123360   1.043   7.038   3.733
 7801TIP3    H223361   1.094   7.172   3.686
 7802TIP3   OH223362   2.400   6.882   6.004
 7802TIP3    H123363   2.367   6.938   6.075
 7802TIP3    H223364   2.409   6.796   6.044
 7803TIP3   OH223365   6.769   5.223   1.609
 7803TIP3    H123366   6.730   5.141   1.579
 7803TIP3    H223367   6.752   5.225   1.703
 7804TIP3   OH223368   2.073   5.693   5.308
 7804TIP3    H123369   1.999   5.712   5.251
 7804TIP3    H223370   2.038   5.632   5.374
 7805TIP3   OH223371   0.976   2.465   4.284
 7805TIP3    H123372   0.884   2.437   4.280
 7805TIP3    H223373   1.025   2.392   4.245
 7806TIP3   OH223374   3.456   0.064   4.673
 7806TIP3    H123375   3.448  -0.007   4.609
 7806TIP3    H223376   3.455   0.020   4.758
 7807TIP3   OH223377   1.954   5.258   5.724
 7807TIP3    H123378   1.898   5.180   5.727
 7807TIP3    H223379   2.028   5.233   5.669
 7808TIP3   OH223380   4.319   0.364   3.584
 7808TIP3    H123381   4.265   0.425   3.532
 7808TIP3    H223382   4.406   0.372   3.545
 7809TIP3   OH223383   0.861   7.017   1.767
 7809TIP3    H123384   0.929   7.084   1.760
 7809TIP3    H223385   0.908   6.937   1.787
 7810TIP3   OH223386   1.555   4.624   1.818
 7810TIP3    H123387   1.614   4.656   1.886
 7810TIP3    H223388   1.475   4.674   1.829
 7811TIP3   OH223389   6.547   2.885   1.756
 7811TIP3    H123390   6.604   2.933   1.696
 7811TIP3    H223391   6.568   2.922   1.842
 7812TIP3   OH223392   4.592   3.648   3.223
 7812TIP3    H123393   4.605   3.674   3.131
 7812TIP3    H223394   4.675   3.670   3.265
 7813TIP3   OH223395   0.253   6.902   6.586
 7813TIP3    H123396   0.309   6.877   6.513
 7813TIP3    H223397   0.188   6.960   6.547
 7814TIP3   OH223398   6.608   6.755   0.641
 7814TIP3    H123399   6.672   6.695   0.680
 7814TIP3    H223400   6.531   6.747   0.696
 7815TIP3   OH223401   2.960   3.136   2.844
 7815TIP3    H123402   3.042   3.094   2.817
 7815TIP3    H223403   2.925   3.079   2.912
 7816TIP3   OH223404   2.073   0.325   2.567
 7816TIP3    H123405   2.036   0.237   2.575
 7816TIP3    H223406   2.006   0.374   2.519
 7817TIP3   OH223407   0.847  -0.023   3.272
 7817TIP3    H123408   0.801   0.027   3.205
 7817TIP3    H223409   0.850   0.035   3.348
 7818TIP3   OH223410   1.581   7.493   0.757
 7818TIP3    H123411   1.576   7.505   0.852
 7818TIP3    H223412   1.496   7.523   0.726
 7819TIP3   OH223413   1.641   6.634   4.136
 7819TIP3    H123414   1.597   6.719   4.127
 7819TIP3    H223415   1.733   6.653   4.121
 7820TIP3   OH223416   1.839   7.111   5.250
 7820TIP3    H123417   1.813   7.169   5.322
 7820TIP3    H223418   1.916   7.153   5.212
 7821TIP3   OH223419   2.332   7.009   3.264
 7821TIP3    H123420   2.391   7.031   3.193
 7821TIP3    H223421   2.352   6.918   3.286
 7822TIP3   OH223422   2.184   5.750   0.975
 7822TIP3    H123423   2.161   5.804   0.900
 7822TIP3    H223424   2.100   5.724   1.013
 7823TIP3   OH223425   4.934   0.647   6.661
 7823TIP3    H123426   4.861   0.626   6.719
 7823TIP3    H223427   4.920   0.592   6.584
 7824TIP3   OH223428   0.760   0.446   4.562
 7824TIP3    H123429   0.795   0.521   4.608
 7824TIP3    H223430   0.724   0.482   4.481
 7825TIP3   OH223431   2.832   6.576   2.135
 7825TIP3    H123432   2.807   6.601   2.224
 7825TIP3    H223433   2.904   6.514   2.148
 7826TIP3   OH223434  -0.007   5.159   3.573
 7826TIP3    H123435   0.042   5.225   3.621
 7826TIP3    H223436   0.021   5.169   3.482
 7827TIP3   OH223437   7.777   5.047   0.704
 7827TIP3    H123438   7.872   5.033   0.706
 7827TIP3    H223439   7.765   5.135   0.738
 7828TIP3   OH223440   4.012   3.790   5.067
 7828TIP3    H123441   3.965   3.764   5.146
 7828TIP3    H223442   4.059   3.870   5.093
 7829TIP3   OH223443   0.716   1.998   2.846
 7829TIP3    H123444   0.798   1.954   2.869
 7829TIP3    H223445   0.707   1.986   2.752
 7830TIP3   OH223446   2.502   7.297   0.615
 7830TIP3    H123447   2.462   7.216   0.647
 7830TIP3    H223448   2.479   7.363   0.681
 7831TIP3   OH223449   4.631   4.037   0.950
 7831TIP3    H123450   4.720   4.041   0.985
 7831TIP3    H223451   4.600   3.950   0.974
 7832TIP3   OH223452   6.063   6.498   5.307
 7832TIP3    H123453   6.005   6.434   5.265
 7832TIP3    H223454   6.105   6.449   5.378
 7833TIP3   OH223455   4.784   1.338   3.901
 7833TIP3    H123456   4.729   1.362   3.976
 7833TIP3    H223457   4.863   1.390   3.912
 7834TIP3   OH223458   1.912   3.652   2.588
 7834TIP3    H123459   1.930   3.714   2.659
 7834TIP3    H223460   1.886   3.707   2.514
 7835TIP3   OH223461   1.962   3.984   6.307
 7835TIP3    H123462   1.874   4.008   6.334
 7835TIP3    H223463   1.972   4.025   6.221
 7836TIP3   OH223464   6.016   0.604   2.162
 7836TIP3    H123465   5.994   0.634   2.250
 7836TIP3    H223466   6.070   0.526   2.176
 7837TIP3   OH223467   3.158   4.047   1.952
 7837TIP3    H123468   3.116   4.041   1.866
 7837TIP3    H223469   3.196   3.960   1.966
 7838TIP3   OH223470   0.351   0.359   1.734
 7838TIP3    H123471   0.398   0.298   1.792
 7838TIP3    H223472   0.409   0.369   1.659
 7839TIP3   OH223473   5.946   7.431   6.135
 7839TIP3    H123474   5.948   7.340   6.163
 7839TIP3    H223475   5.869   7.438   6.079
 7840TIP3   OH223476   3.574   2.571   6.209
 7840TIP3    H123477   3.635   2.641   6.236
 7840TIP3    H223478   3.493   2.591   6.256
 7841TIP3   OH223479   7.510   6.812   3.574
 7841TIP3    H123480   7.587   6.853   3.613
 7841TIP3    H223481   7.517   6.719   3.598
 7842TIP3   OH223482   1.640   2.826   0.157
 7842TIP3    H123483   1.632   2.842   0.251
 7842TIP3    H223484   1.721   2.869   0.132
 7843TIP3   OH223485   0.197   4.654   1.784
 7843TIP3    H123486   0.221   4.596   1.857
 7843TIP3    H223487   0.116   4.695   1.811
 7844TIP3   OH223488   3.636   1.532   5.307
 7844TIP3    H123489   3.677   1.488   5.382
 7844TIP3    H223490   3.553   1.564   5.340
 7845TIP3   OH223491   2.413   1.571   4.240
 7845TIP3    H123492   2.429   1.648   4.295
 7845TIP3    H223493   2.500   1.531   4.229
 7846TIP3   OH223494   1.620   3.201   4.838
 7846TIP3    H123495   1.607   3.187   4.744
 7846TIP3    H223496   1.658   3.288   4.844
 7847TIP3   OH223497   2.514   4.004   5.825
 7847TIP3    H123498   2.568   4.054   5.887
 7847TIP3    H223499   2.467   4.071   5.776
 7848TIP3   OH223500   1.203   2.339   2.305
 7848TIP3    H123501   1.171   2.429   2.318
 7848TIP3    H223502   1.294   2.342   2.333
 7849TIP3   OH223503   6.320   6.003   5.230
 7849TIP3    H123504   6.267   5.925   5.217
 7849TIP3    H223505   6.280   6.047   5.305
 7850TIP3   OH223506   0.819   5.826   6.572
 7850TIP3    H123507   0.735   5.868   6.589
 7850TIP3    H223508   0.797   5.737   6.543
 7851TIP3   OH223509   0.050   6.008   2.542
 7851TIP3    H123510   0.050   6.104   2.551
 7851TIP3    H223511   0.137   5.988   2.507
 7852TIP3   OH223512   0.732   4.912   0.645
 7852TIP3    H123513   0.640   4.935   0.642
 7852TIP3    H223514   0.734   4.826   0.688
 7853TIP3   OH223515   1.152   4.718   2.184
 7853TIP3    H123516   1.090   4.664   2.234
 7853TIP3    H223517   1.237   4.678   2.201
 7854TIP3   OH223518   2.717   2.716   0.456
 7854TIP3    H123519   2.778   2.650   0.488
 7854TIP3    H223520   2.648   2.719   0.523
 7855TIP3   OH223521   0.692   4.273   2.805
 7855TIP3    H123522   0.667   4.356   2.763
 7855TIP3    H223523   0.786   4.266   2.788
 7856TIP3   OH223524   4.388   5.485   0.750
 7856TIP3    H123525   4.360   5.446   0.667
 7856TIP3    H223526   4.477   5.515   0.734
 7857TIP3   OH223527   4.146   5.955   0.631
 7857TIP3    H123528   4.094   6.031   0.657
 7857TIP3    H223529   4.082   5.888   0.609
 7858TIP3   OH223530   2.759   3.873   6.283
 7858TIP3    H123531   2.740   3.847   6.373
 7858TIP3    H223532   2.675   3.902   6.248
 7859TIP3   OH223533   7.543   6.468   5.256
 7859TIP3    H123534   7.474   6.533   5.268
 7859TIP3    H223535   7.582   6.458   5.342
 7860TIP3   OH223536   7.784   5.265   2.281
 7860TIP3    H123537   7.776   5.358   2.263
 7860TIP3    H223538   7.719   5.247   2.349
 7861TIP3   OH223539   5.689   2.252   3.808
 7861TIP3    H123540   5.652   2.242   3.720
 7861TIP3    H223541   5.662   2.173   3.855
 7862TIP3   OH223542   2.373   2.691   2.453
 7862TIP3    H123543   2.422   2.642   2.387
 7862TIP3    H223544   2.306   2.738   2.403
 7863TIP3   OH223545   6.792   3.828   6.688
 7863TIP3    H123546   6.766   3.867   6.605
 7863TIP3    H223547   6.779   3.734   6.675
 7864TIP3   OH223548   8.181   0.125   1.670
 7864TIP3    H123549   8.166   0.037   1.706
 7864TIP3    H223550   8.213   0.109   1.581
 7865TIP3   OH223551   0.023   4.819   5.545
 7865TIP3    H123552   0.046   4.743   5.600
 7865TIP3    H223553   0.102   4.873   5.544
 7866TIP3   OH223554   3.124   7.756   4.952
 7866TIP3    H123555   3.143   7.754   5.045
 7866TIP3    H223556   3.144   7.846   4.925
 7867TIP3   OH223557   2.857   0.086   0.932
 7867TIP3    H123558   2.864   0.010   0.874
 7867TIP3    H223559   2.827   0.157   0.875
 7868TIP3   OH223560   3.566   0.435   2.979
 7868TIP3    H123561   3.658   0.461   2.988
 7868TIP3    H223562   3.528   0.502   2.921
 7869TIP3   OH223563   3.973   6.560   3.026
 7869TIP3    H123564   3.908   6.511   2.976
 7869TIP3    H223565   3.922   6.620   3.080
 7870TIP3   OH223566   0.671   2.555   4.880
 7870TIP3    H123567   0.756   2.550   4.836
 7870TIP3    H223568   0.687   2.613   4.955
 7871TIP3   OH223569   0.990   6.090   0.445
 7871TIP3    H123570   1.042   6.041   0.381
 7871TIP3    H223571   0.955   6.023   0.503
 7872TIP3   OH223572   6.954   1.991   2.992
 7872TIP3    H123573   6.916   1.903   2.999
 7872TIP3    H223574   6.937   2.031   3.077
 7873TIP3   OH223575   1.448   5.806   1.815
 7873TIP3    H123576   1.400   5.743   1.761
 7873TIP3    H223577   1.540   5.786   1.799
 7874TIP3   OH223578   7.961   4.653   0.477
 7874TIP3    H123579   7.981   4.690   0.563
 7874TIP3    H223580   7.866   4.657   0.471
 7875TIP3   OH223581   2.021   2.538   5.085
 7875TIP3    H123582   1.988   2.467   5.140
 7875TIP3    H223583   1.943   2.587   5.060
 7876TIP3   OH223584   7.261   5.767   5.332
 7876TIP3    H123585   7.342   5.735   5.292
 7876TIP3    H223586   7.192   5.720   5.286
 7877TIP3   OH223587   4.292   6.036   3.329
 7877TIP3    H123588   4.330   5.974   3.392
 7877TIP3    H223589   4.204   6.053   3.363
 7878TIP3   OH223590   7.096   7.455   2.864
 7878TIP3    H123591   7.168   7.427   2.807
 7878TIP3    H223592   7.117   7.417   2.949
 7879TIP3   OH223593   5.409   6.784   3.585
 7879TIP3    H123594   5.483   6.759   3.528
 7879TIP3    H223595   5.415   6.879   3.592
 7880TIP3   OH223596   6.845   6.281   4.974
 7880TIP3    H123597   6.913   6.215   4.983
 7880TIP3    H223598   6.790   6.248   4.902
 7881TIP3   OH223599   3.691   2.941   5.996
 7881TIP3    H123600   3.608   2.945   5.948
 7881TIP3    H223601   3.686   2.860   6.046
 7882TIP3   OH223602   4.516   6.481   1.250
 7882TIP3    H123603   4.429   6.442   1.238
 7882TIP3    H223604   4.564   6.458   1.171
 7883TIP3   OH223605   4.330   7.528   3.442
 7883TIP3    H123606   4.411   7.534   3.493
 7883TIP3    H223607   4.325   7.436   3.416
 7884TIP3   OH223608   1.155   1.830   2.448
 7884TIP3    H123609   1.094   1.873   2.388
 7884TIP3    H223610   1.238   1.828   2.399
 7885TIP3   OH223611   0.120   6.641   6.459
 7885TIP3    H123612   0.180   6.635   6.533
 7885TIP3    H223613   0.170   6.686   6.391
 7886TIP3   OH223614   4.771   2.157   0.738
 7886TIP3    H123615   4.796   2.215   0.810
 7886TIP3    H223616   4.808   2.072   0.762
 7887TIP3   OH223617   7.220   6.480   6.775
 7887TIP3    H123618   7.303   6.522   6.797
 7887TIP3    H223619   7.174   6.545   6.722
 7888TIP3   OH223620   6.588   6.343   3.773
 7888TIP3    H123621   6.588   6.390   3.690
 7888TIP3    H223622   6.547   6.402   3.835
 7889TIP3   OH223623   0.355   6.613   1.532
 7889TIP3    H123624   0.394   6.528   1.514
 7889TIP3    H223625   0.295   6.628   1.459
 7890TIP3   OH223626   2.302   5.189   0.189
 7890TIP3    H123627   2.319   5.259   0.125
 7890TIP3    H223628   2.388   5.150   0.205
 7891TIP3   OH223629   3.257   2.515   4.937
 7891TIP3    H123630   3.242   2.606   4.966
 7891TIP3    H223631   3.182   2.496   4.881
 7892TIP3   OH223632   5.290   2.605   1.870
 7892TIP3    H123633   5.229   2.665   1.914
 7892TIP3    H223634   5.260   2.603   1.779
 7893TIP3   OH223635   4.470   2.381   1.774
 7893TIP3    H123636   4.380   2.381   1.807
 7893TIP3    H223637   4.514   2.313   1.825
 7894TIP3   OH223638   5.036   2.411   1.237
 7894TIP3    H123639   4.956   2.361   1.249
 7894TIP3    H223640   5.061   2.439   1.325
 7895TIP3   OH223641   2.365   0.404   6.110
 7895TIP3    H123642   2.324   0.482   6.072
 7895TIP3    H223643   2.398   0.355   6.034
 7896TIP3   OH223644   6.522   4.044   0.936
 7896TIP3    H123645   6.430   4.043   0.962
 7896TIP3    H223646   6.537   3.958   0.897
 7897TIP3   OH223647   4.615   0.335   4.471
 7897TIP3    H123648   4.613   0.320   4.376
 7897TIP3    H223649   4.635   0.249   4.508
 7898TIP3   OH223650   3.501   0.732   5.552
 7898TIP3    H123651   3.426   0.720   5.610
 7898TIP3    H223652   3.513   0.647   5.510
 7899TIP3   OH223653   7.645   5.296   6.249
 7899TIP3    H123654   7.663   5.284   6.342
 7899TIP3    H223655   7.607   5.384   6.242
 7900TIP3   OH223656   1.159   6.472   5.497
 7900TIP3    H123657   1.100   6.426   5.556
 7900TIP3    H223658   1.135   6.441   5.410
 7901TIP3   OH223659   0.385   3.987   0.344
 7901TIP3    H123660   0.384   4.069   0.295
 7901TIP3    H223661   0.339   3.925   0.287
 7902TIP3   OH223662   4.536   7.610   6.137
 7902TIP3    H123663   4.590   7.531   6.137
 7902TIP3    H223664   4.555   7.652   6.053
 7903TIP3   OH223665   7.469   7.591   4.491
 7903TIP3    H123666   7.515   7.594   4.408
 7903TIP3    H223667   7.516   7.653   4.547
 7904TIP3   OH223668   2.787   3.623   3.138
 7904TIP3    H123669   2.848   3.584   3.075
 7904TIP3    H223670   2.840   3.685   3.188
 7905TIP3   OH223671   3.664   0.738   1.473
 7905TIP3    H123672   3.615   0.733   1.555
 7905TIP3    H223673   3.598   0.731   1.405
 7906TIP3   OH223674   4.196   3.472   1.061
 7906TIP3    H123675   4.263   3.482   0.994
 7906TIP3    H223676   4.131   3.413   1.022
 7907TIP3   OH223677   4.859   0.838   1.694
 7907TIP3    H123678   4.802   0.778   1.645
 7907TIP3    H223679   4.843   0.816   1.786
 7908TIP3   OH223680   6.044   3.703   1.488
 7908TIP3    H123681   6.023   3.743   1.572
 7908TIP3    H223682   6.129   3.740   1.464
 7909TIP3   OH223683   8.131   4.055   4.976
 7909TIP3    H123684   8.170   4.140   4.957
 7909TIP3    H223685   8.145   4.004   4.896
 7910TIP3   OH223686   0.627   2.756   6.453
 7910TIP3    H123687   0.687   2.757   6.528
 7910TIP3    H223688   0.554   2.701   6.481
 7911TIP3   OH223689   3.618   7.623   5.054
 7911TIP3    H123690   3.548   7.623   5.120
 7911TIP3    H223691   3.697   7.646   5.102
 7912TIP3   OH223692   3.087   4.002   0.028
 7912TIP3    H123693   3.057   3.913   0.050
 7912TIP3    H223694   3.012   4.058   0.046
 7913TIP3   OH223695   4.692   6.412   5.371
 7913TIP3    H123696   4.631   6.362   5.317
 7913TIP3    H223697   4.690   6.368   5.456
 7914TIP3   OH223698   6.445   6.537   6.404
 7914TIP3    H123699   6.403   6.479   6.468
 7914TIP3    H223700   6.374   6.566   6.347
 7915TIP3   OH223701   8.285   5.454   5.130
 7915TIP3    H123702   8.291   5.440   5.225
 7915TIP3    H223703   8.205   5.504   5.119
 7916TIP3   OH223704   3.795   7.837   2.247
 7916TIP3    H123705   3.878   7.788   2.239
 7916TIP3    H223706   3.727   7.770   2.240
 7917TIP3   OH223707   7.800   0.520   3.320
 7917TIP3    H123708   7.843   0.437   3.298
 7917TIP3    H223709   7.822   0.578   3.247
 7918TIP3   OH223710   7.294   7.826  -0.004
 7918TIP3    H123711   7.301   7.758   0.063
 7918TIP3    H223712   7.208   7.865   0.009
 7919TIP3   OH223713   1.510   5.061   1.020
 7919TIP3    H123714   1.479   5.050   0.930
 7919TIP3    H223715   1.595   5.104   1.012
 7920TIP3   OH223716   7.532   6.236   0.064
 7920TIP3    H123717   7.611   6.270   0.023
 7920TIP3    H223718   7.541   6.258   0.156
 7921TIP3   OH223719   2.037   1.841   1.988
 7921TIP3    H123720   2.127   1.809   1.984
 7921TIP3    H223721   1.986   1.766   2.019
 7922TIP3   OH223722   4.070   1.470   4.710
 7922TIP3    H123723   4.125   1.465   4.788
 7922TIP3    H223724   4.054   1.564   4.698
 7923TIP3   OH223725   0.802   1.639   3.136
 7923TIP3    H123726   0.743   1.569   3.164
 7923TIP3    H223727   0.751   1.719   3.149
 7924TIP3   OH223728   8.255   7.209   1.836
 7924TIP3    H123729   8.241   7.135   1.894
 7924TIP3    H223730   8.253   7.286   1.893
 7925TIP3   OH223731   7.917   1.699   6.358
 7925TIP3    H123732   7.991   1.652   6.397
 7925TIP3    H223733   7.890   1.761   6.425
 7926TIP3   OH223734   5.921   2.277   2.516
 7926TIP3    H123735   6.012   2.254   2.500
 7926TIP3    H223736   5.925   2.363   2.557
 7927TIP3   OH223737   0.648   5.235   6.697
 7927TIP3    H123738   0.736   5.246   6.661
 7927TIP3    H223739   0.595   5.207   6.622
 7928TIP3   OH223740   6.123   6.191   2.778
 7928TIP3    H123741   6.208   6.226   2.752
 7928TIP3    H223742   6.122   6.102   2.743
 7929TIP3   OH223743   2.576   5.627   5.208
 7929TIP3    H123744   2.487   5.657   5.191
 7929TIP3    H223745   2.572   5.532   5.200
 7930TIP3   OH223746   2.776   2.014   6.130
 7930TIP3    H123747   2.812   2.040   6.046
 7930TIP3    H223748   2.684   2.040   6.126
 7931TIP3   OH223749   2.823   3.367   2.911
 7931TIP3    H123750   2.888   3.438   2.914
 7931TIP3    H223751   2.875   3.288   2.895
 7932TIP3   OH223752   6.731   0.729   5.605
 7932TIP3    H123753   6.795   0.714   5.675
 7932TIP3    H223754   6.661   0.778   5.647
 7933TIP3   OH223755   4.313   0.124   6.536
 7933TIP3    H123756   4.337   0.036   6.565
 7933TIP3    H223757   4.376   0.144   6.467
 7934TIP3   OH223758   1.391   1.365   1.475
 7934TIP3    H123759   1.306   1.397   1.504
 7934TIP3    H223760   1.452   1.436   1.493
 7935TIP3   OH223761   2.849   1.211   4.632
 7935TIP3    H123762   2.918   1.277   4.639
 7935TIP3    H223763   2.851   1.165   4.716
 7936TIP3   OH223764   4.849   1.556   6.255
 7936TIP3    H123765   4.881   1.470   6.280
 7936TIP3    H223766   4.756   1.542   6.235
 7937TIP3   OH223767   3.192   3.565   4.490
 7937TIP3    H123768   3.149   3.546   4.407
 7937TIP3    H223769   3.130   3.619   4.538
 7938TIP3   OH223770   5.275   5.820   6.111
 7938TIP3    H123771   5.268   5.727   6.091
 7938TIP3    H223772   5.189   5.844   6.146
 7939TIP3   OH223773   2.207   0.729   1.875
 7939TIP3    H123774   2.241   0.644   1.849
 7939TIP3    H223775   2.277   0.768   1.928
 7940TIP3   OH223776   1.584   3.215   0.321
 7940TIP3    H123777   1.597   3.259   0.405
 7940TIP3    H223778   1.665   3.166   0.307
 7941TIP3   OH223779   4.868   4.797   6.569
 7941TIP3    H123780   4.843   4.705   6.577
 7941TIP3    H223781   4.961   4.799   6.589
 7942TIP3   OH223782   4.162   4.057   3.286
 7942TIP3    H123783   4.200   4.145   3.282
 7942TIP3    H223784   4.105   4.051   3.210
 7943TIP3   OH223785   2.063   4.333   1.857
 7943TIP3    H123786   2.105   4.397   1.915
 7943TIP3    H223787   2.131   4.314   1.791
 7944TIP3   OH223788   4.228   3.291   5.884
 7944TIP3    H123789   4.215   3.254   5.971
 7944TIP3    H223790   4.148   3.270   5.836
 7945TIP3   OH223791   7.634   2.744   0.445
 7945TIP3    H123792   7.655   2.656   0.477
 7945TIP3    H223793   7.596   2.789   0.521
 7946TIP3   OH223794   2.226   2.128   2.808
 7946TIP3    H123795   2.152   2.072   2.787
 7946TIP3    H223796   2.201   2.215   2.778
 7947TIP3   OH223797   6.712   2.515   4.522
 7947TIP3    H123798   6.645   2.459   4.562
 7947TIP3    H223799   6.794   2.467   4.536
 7948TIP3   OH223800   5.503   3.212   2.158
 7948TIP3    H123801   5.539   3.260   2.232
 7948TIP3    H223802   5.440   3.151   2.197
 7949TIP3   OH223803   5.902   1.450   2.981
 7949TIP3    H123804   5.825   1.401   2.953
 7949TIP3    H223805   5.917   1.420   3.071
 7950TIP3   OH223806   5.798   2.600   3.145
 7950TIP3    H123807   5.872   2.592   3.085
 7950TIP3    H223808   5.831   2.655   3.216
 7951TIP3   OH223809   3.152   2.426   2.248
 7951TIP3    H123810   3.143   2.345   2.197
 7951TIP3    H223811   3.187   2.397   2.332
 7952TIP3   OH223812   4.897   4.374   0.131
 7952TIP3    H123813   4.840   4.384   0.055
 7952TIP3    H223814   4.986   4.374   0.096
 7953TIP3   OH223815   2.320   3.191   2.900
 7953TIP3    H123816   2.341   3.239   2.979
 7953TIP3    H223817   2.252   3.243   2.858
 7954TIP3   OH223818   6.743   7.324   0.979
 7954TIP3    H123819   6.711   7.234   0.987
 7954TIP3    H223820   6.663   7.378   0.981
 7955TIP3   OH223821   4.291   2.068   4.802
 7955TIP3    H123822   4.373   2.031   4.771
 7955TIP3    H223823   4.226   2.000   4.783
 7956TIP3   OH223824   8.231   0.402   0.769
 7956TIP3    H123825   8.163   0.375   0.831
 7956TIP3    H223826   8.226   0.497   0.768
 7957TIP3   OH223827   0.479   5.591   0.364
 7957TIP3    H123828   0.401   5.574   0.418
 7957TIP3    H223829   0.447   5.645   0.292
 7958TIP3   OH223830   2.805   4.707   4.306
 7958TIP3    H123831   2.799   4.744   4.218
 7958TIP3    H223832   2.764   4.773   4.363
 7959TIP3   OH223833   4.827   7.610   4.234
 7959TIP3    H123834   4.734   7.588   4.246
 7959TIP3    H223835   4.832   7.702   4.258
 7960TIP3   OH223836   0.155   6.009   1.515
 7960TIP3    H123837   0.139   5.915   1.525
 7960TIP3    H223838   0.070   6.049   1.533
 7961TIP3   OH223839   1.539   6.362   1.623
 7961TIP3    H123840   1.551   6.298   1.694
 7961TIP3    H223841   1.611   6.343   1.562
 7962TIP3   OH223842   0.939   6.258   0.691
 7962TIP3    H123843   0.896   6.185   0.648
 7962TIP3    H223844   0.867   6.315   0.720
 7963TIP3   OH223845   1.732   4.691   2.288
 7963TIP3    H123846   1.748   4.600   2.314
 7963TIP3    H223847   1.751   4.742   2.367
 7964TIP3   OH223848   4.640   5.473   4.124
 7964TIP3    H123849   4.665   5.492   4.033
 7964TIP3    H223850   4.647   5.557   4.169
 7965TIP3   OH223851   6.905   1.116   1.773
 7965TIP3    H123852   6.975   1.054   1.793
 7965TIP3    H223853   6.950   1.199   1.760
 7966TIP3   OH223854   2.293   6.678   3.093
 7966TIP3    H123855   2.355   6.608   3.074
 7966TIP3    H223856   2.231   6.639   3.154
 7967TIP3   OH223857   5.950   6.614   4.996
 7967TIP3    H123858   6.029   6.632   5.047
 7967TIP3    H223859   5.901   6.696   4.999
 7968TIP3   OH223860   0.769   5.535   0.880
 7968TIP3    H123861   0.719   5.469   0.928
 7968TIP3    H223862   0.836   5.564   0.941
 7969TIP3   OH223863   3.756   6.957   1.242
 7969TIP3    H123864   3.803   6.889   1.290
 7969TIP3    H223865   3.726   6.914   1.162
 7970TIP3   OH223866   4.574   1.204   6.052
 7970TIP3    H123867   4.649   1.221   5.995
 7970TIP3    H223868   4.612   1.188   6.138
 7971TIP3   OH223869   5.381   4.948   4.690
 7971TIP3    H123870   5.455   4.938   4.749
 7971TIP3    H223871   5.341   5.031   4.715
 7972TIP3   OH223872   3.528   5.786   6.209
 7972TIP3    H123873   3.434   5.796   6.221
 7972TIP3    H223874   3.538   5.761   6.117
 7973TIP3   OH223875   2.467   2.568   3.155
 7973TIP3    H123876   2.547   2.544   3.202
 7973TIP3    H223877   2.443   2.654   3.191
 7974TIP3   OH223878   0.244   0.650   4.958
 7974TIP3    H123879   0.328   0.681   4.990
 7974TIP3    H223880   0.255   0.646   4.863
 7975TIP3   OH223881   0.497   2.704   0.767
 7975TIP3    H123882   0.558   2.717   0.694
 7975TIP3    H223883   0.552   2.707   0.845
 7976TIP3   OH223884   3.034   6.171   2.366
 7976TIP3    H123885   3.096   6.121   2.419
 7976TIP3    H223886   3.030   6.257   2.408
 7977TIP3   OH223887   6.587   5.884   3.472
 7977TIP3    H123888   6.606   5.850   3.385
 7977TIP3    H223889   6.495   5.910   3.469
 7978TIP3   OH223890   4.373   4.240   0.131
 7978TIP3    H123891   4.375   4.160   0.078
 7978TIP3    H223892   4.432   4.300   0.086
 7979TIP3   OH223893   5.422   3.993   4.814
 7979TIP3    H123894   5.340   3.985   4.764
 7979TIP3    H223895   5.476   4.052   4.762
 7980TIP3   OH223896   7.755   3.318   2.400
 7980TIP3    H123897   7.796   3.385   2.455
 7980TIP3    H223898   7.803   3.237   2.422
 7981TIP3   OH223899   8.088   6.051   4.346
 7981TIP3    H123900   8.030   5.987   4.305
 7981TIP3    H223901   8.149   6.077   4.277
 7982TIP3   OH223902   4.518   5.639   1.540
 7982TIP3    H123903   4.505   5.570   1.476
 7982TIP3    H223904   4.436   5.644   1.589
 7983TIP3   OH223905   1.958   6.715   1.901
 7983TIP3    H123906   2.018   6.697   1.973
 7983TIP3    H223907   1.965   6.639   1.844
 7984TIP3   OH223908   6.349   2.790   1.985
 7984TIP3    H123909   6.281   2.847   1.948
 7984TIP3    H223910   6.301   2.731   2.043
 7985TIP3   OH223911   1.513   5.242   1.434
 7985TIP3    H123912   1.508   5.169   1.495
 7985TIP3    H223913   1.601   5.236   1.396
 7986TIP3   OH223914   7.316   1.651   5.145
 7986TIP3    H123915   7.266   1.593   5.203
 7986TIP3    H223916   7.257   1.667   5.071
 7987TIP3   OH223917   2.017   4.819   2.168
 7987TIP3    H123918   1.974   4.903   2.151
 7987TIP3    H223919   2.074   4.836   2.243
 7988TIP3   OH223920   8.161   6.171   6.639
 7988TIP3    H123921   8.083   6.187   6.586
 7988TIP3    H223922   8.164   6.245   6.701
 7989TIP3   OH223923   3.716   0.151   0.780
 7989TIP3    H123924   3.625   0.153   0.809
 7989TIP3    H223925   3.748   0.240   0.796
 7990TIP3   OH223926   0.333   0.973   4.386
 7990TIP3    H123927   0.334   0.903   4.450
 7990TIP3    H223928   0.247   0.967   4.345
 7991TIP3   OH223929   0.496   0.662   5.063
 7991TIP3    H123930   0.565   0.648   5.127
 7991TIP3    H223931   0.510   0.593   4.998
 7992TIP3   OH223932   7.505   6.557   3.679
 7992TIP3    H123933   7.461   6.558   3.765
 7992TIP3    H223934   7.479   6.474   3.640
 7993TIP3   OH223935   0.797   6.448   4.161
 7993TIP3    H123936   0.871   6.429   4.105
 7993TIP3    H223937   0.731   6.485   4.102
 7994TIP3   OH223938   0.510   6.407   1.794
 7994TIP3    H123939   0.526   6.386   1.702
 7994TIP3    H223940   0.424   6.449   1.795
 7995TIP3   OH223941   3.071   0.050   6.754
 7995TIP3    H123942   3.022   0.128   6.777
 7995TIP3    H223943   3.146   0.083   6.704
 7996TIP3   OH223944   1.670   5.298   6.313
 7996TIP3    H123945   1.729   5.275   6.241
 7996TIP3    H223946   1.628   5.215   6.336
 7997TIP3   OH223947   5.214   2.007   1.186
 7997TIP3    H123948   5.226   2.075   1.119
 7997TIP3    H223949   5.234   2.052   1.269
 7998TIP3   OH223950   0.628   7.387   4.558
 7998TIP3    H123951   0.592   7.313   4.607
 7998TIP3    H223952   0.672   7.347   4.483
 7999TIP3   OH223953   6.368   0.398   4.070
 7999TIP3    H123954   6.291   0.397   4.126
 7999TIP3    H223955   6.434   0.348   4.119
 8000TIP3   OH223956   8.082   3.660   6.564
 8000TIP3    H123957   8.120   3.589   6.617
 8000TIP3    H223958   8.026   3.708   6.625
 8001TIP3   OH223959   7.128   5.591   4.057
 8001TIP3    H123960   7.120   5.504   4.097
 8001TIP3    H223961   7.137   5.574   3.963
 8002TIP3   OH223962   7.295   7.331   0.132
 8002TIP3    H123963   7.371   7.349   0.188
 8002TIP3    H223964   7.332   7.305   0.048
 8003TIP3   OH223965   0.902   7.179   4.593
 8003TIP3    H123966   0.826   7.211   4.545
 8003TIP3    H223967   0.970   7.166   4.527
 8004TIP3   OH223968   1.924   0.957   3.699
 8004TIP3    H123969   1.859   1.025   3.682
 8004TIP3    H223970   2.006   1.005   3.713
 8005TIP3   OH223971   6.617   5.467   5.060
 8005TIP3    H123972   6.624   5.432   4.971
 8005TIP3    H223973   6.572   5.551   5.050
 8006TIP3   OH223974   5.864   0.667   6.774
 8006TIP3    H123975   5.786   0.661   6.718
 8006TIP3    H223976   5.930   0.708   6.719
 8007TIP3   OH223977   7.690   4.039   3.251
 8007TIP3    H123978   7.721   3.976   3.316
 8007TIP3    H223979   7.643   3.987   3.186
 8008TIP3   OH223980   3.437   0.801   0.310
 8008TIP3    H123981   3.429   0.897   0.306
 8008TIP3    H223982   3.375   0.775   0.378
 8009TIP3   OH223983   1.683   5.966   0.110
 8009TIP3    H123984   1.711   5.949   0.020
 8009TIP3    H223985   1.587   5.968   0.106
 8010TIP3   OH223986   4.392   3.509   6.500
 8010TIP3    H123987   4.425   3.598   6.513
 8010TIP3    H223988   4.418   3.487   6.410
 8011TIP3   OH223989   0.902   2.241   3.656
 8011TIP3    H123990   0.884   2.225   3.564
 8011TIP3    H223991   0.985   2.197   3.672
 8012TIP3   OH223992   0.152   4.956   0.792
 8012TIP3    H123993   0.126   4.865   0.809
 8012TIP3    H223994   0.143   4.967   0.698
 8013TIP3   OH223995   7.132   2.989   4.659
 8013TIP3    H123996   7.077   2.933   4.714
 8013TIP3    H223997   7.184   3.040   4.721
 8014TIP3   OH223998   1.074   1.120   0.113
 8014TIP3    H123999   1.082   1.120   0.017
 8014TIP3    H224000   1.160   1.149   0.144
 8015TIP3   OH224001   6.429   6.520   2.266
 8015TIP3    H124002   6.435   6.424   2.257
 8015TIP3    H224003   6.373   6.533   2.342
 8016TIP3   OH224004   4.499   3.389   3.015
 8016TIP3    H124005   4.452   3.472   3.019
 8016TIP3    H224006   4.581   3.409   2.969
 8017TIP3   OH224007   0.732   1.435   2.822
 8017TIP3    H124008   0.655   1.424   2.877
 8017TIP3    H224009   0.702   1.484   2.746
 8018TIP3   OH224010   2.024   4.849   1.033
 8018TIP3    H124011   2.051   4.881   0.948
 8018TIP3    H224012   2.068   4.764   1.043
 8019TIP3   OH224013   5.856   5.081   0.456
 8019TIP3    H124014   5.783   5.020   0.443
 8019TIP3    H224015   5.819   5.151   0.509
 8020TIP3   OH224016   3.515   2.636   3.806
 8020TIP3    H124017   3.484   2.666   3.891
 8020TIP3    H224018   3.595   2.587   3.825
 8021TIP3   OH224019   4.921   3.576   2.533
 8021TIP3    H124020   5.000   3.630   2.537
 8021TIP3    H224021   4.950   3.492   2.498
 8022TIP3   OH224022   3.881   2.385   2.989
 8022TIP3    H124023   3.853   2.319   2.927
 8022TIP3    H224024   3.844   2.357   3.073
 8023TIP3   OH224025   5.107   2.233   4.443
 8023TIP3    H124026   5.020   2.207   4.415
 8023TIP3    H224027   5.120   2.189   4.527
 8024TIP3   OH224028   3.383   7.663   5.218
 8024TIP3    H124029   3.342   7.587   5.260
 8024TIP3    H224030   3.440   7.699   5.286
 8025TIP3   OH224031   4.349   1.294   1.616
 8025TIP3    H124032   4.394   1.376   1.600
 8025TIP3    H224033   4.389   1.260   1.696
 8026TIP3   OH224034   3.217   5.990   3.464
 8026TIP3    H124035   3.268   6.072   3.461
 8026TIP3    H224036   3.274   5.928   3.508
 8027TIP3   OH224037   4.375   4.459   6.390
 8027TIP3    H124038   4.375   4.392   6.322
 8027TIP3    H224039   4.464   4.495   6.390
 8028TIP3   OH224040   6.197   6.217   3.269
 8028TIP3    H124041   6.120   6.240   3.218
 8028TIP3    H224042   6.189   6.270   3.349
 8029TIP3   OH224043   7.820   2.467   2.174
 8029TIP3    H124044   7.889   2.403   2.158
 8029TIP3    H224045   7.798   2.502   2.087
 8030TIP3   OH224046   5.228   6.729   1.860
 8030TIP3    H124047   5.320   6.724   1.887
 8030TIP3    H224048   5.182   6.761   1.937
 8031TIP3   OH224049   5.705   3.164   1.219
 8031TIP3    H124050   5.684   3.132   1.131
 8031TIP3    H224051   5.796   3.195   1.211
 8032TIP3   OH224052   7.017   1.808   5.922
 8032TIP3    H124053   7.025   1.900   5.897
 8032TIP3    H224054   7.018   1.809   6.018
 8033TIP3   OH224055   0.774   2.448   3.929
 8033TIP3    H124056   0.745   2.402   3.851
 8033TIP3    H224057   0.708   2.516   3.943
 8034TIP3   OH224058   4.507   0.329   1.738
 8034TIP3    H124059   4.416   0.308   1.761
 8034TIP3    H224060   4.558   0.300   1.813
 8035TIP3   OH224061   2.347   4.176   2.104
 8035TIP3    H124062   2.382   4.088   2.097
 8035TIP3    H224063   2.394   4.215   2.177
 8036TIP3   OH224064   8.299   3.149   3.305
 8036TIP3    H124065   8.373   3.146   3.365
 8036TIP3    H224066   8.234   3.203   3.350
 8037TIP3   OH224067   7.850   3.503   6.399
 8037TIP3    H124068   7.784   3.568   6.371
 8037TIP3    H224069   7.924   3.556   6.429
 8038TIP3   OH224070   1.772   2.050   2.274
 8038TIP3    H124071   1.789   1.956   2.277
 8038TIP3    H224072   1.709   2.061   2.203
 8039TIP3   OH224073   2.161   3.783   3.857
 8039TIP3    H124074   2.181   3.703   3.809
 8039TIP3    H224075   2.112   3.754   3.934
 8040TIP3   OH224076   4.280   6.437   2.383
 8040TIP3    H124077   4.341   6.482   2.442
 8040TIP3    H224078   4.215   6.398   2.441
 8041TIP3   OH224079   7.331   5.164   3.434
 8041TIP3    H124080   7.266   5.233   3.421
 8041TIP3    H224081   7.328   5.113   3.353
 8042TIP3   OH224082   2.886   1.956   1.236
 8042TIP3    H124083   2.967   1.907   1.252
 8042TIP3    H224084   2.908   2.015   1.163
 8043TIP3   OH224085   4.565   4.174   6.417
 8043TIP3    H124086   4.542   4.212   6.332
 8043TIP3    H224087   4.613   4.243   6.462
 8044TIP3   OH224088   1.058   4.111   1.027
 8044TIP3    H124089   0.971   4.144   1.007
 8044TIP3    H224090   1.042   4.028   1.072
 8045TIP3   OH224091   2.310   6.192   3.452
 8045TIP3    H124092   2.260   6.273   3.441
 8045TIP3    H224093   2.328   6.188   3.546
 8046TIP3   OH224094   5.221   5.824   6.682
 8046TIP3    H124095   5.184   5.870   6.757
 8046TIP3    H224096   5.314   5.817   6.701
 8047TIP3   OH224097   3.731   4.890   4.678
 8047TIP3    H124098   3.716   4.840   4.598
 8047TIP3    H224099   3.820   4.869   4.704
 8048TIP3   OH224100   6.733   6.072   6.048
 8048TIP3    H124101   6.716   6.049   6.139
 8048TIP3    H224102   6.764   5.991   6.008
 8049TIP3   OH224103   5.190   2.847   1.404
 8049TIP3    H124104   5.246   2.838   1.326
 8049TIP3    H224105   5.199   2.938   1.430
 8050TIP3   OH224106   1.476   6.488   4.425
 8050TIP3    H124107   1.455   6.443   4.343
 8050TIP3    H224108   1.438   6.576   4.415
 8051TIP3   OH224109   6.211   7.134   4.816
 8051TIP3    H124110   6.176   7.101   4.733
 8051TIP3    H224111   6.262   7.061   4.850
 8052TIP3   OH224112   7.761   6.812   1.161
 8052TIP3    H124113   7.703   6.851   1.096
 8052TIP3    H224114   7.751   6.718   1.148
 8053TIP3   OH224115   1.124   7.262   6.175
 8053TIP3    H124116   1.160   7.349   6.158
 8053TIP3    H224117   1.187   7.221   6.234
 8054TIP3   OH224118   2.446   6.639   6.174
 8054TIP3    H124119   2.542   6.634   6.174
 8054TIP3    H224120   2.419   6.575   6.239
 8055TIP3   OH224121   5.872   2.363   4.951
 8055TIP3    H124122   5.926   2.394   4.878
 8055TIP3    H224123   5.800   2.316   4.909
 8056TIP3   OH224124   3.565   7.772   4.149
 8056TIP3    H124125   3.500   7.833   4.115
 8056TIP3    H224126   3.549   7.691   4.102
 8057TIP3   OH224127   1.200   3.860   0.152
 8057TIP3    H124128   1.105   3.866   0.160
 8057TIP3    H224129   1.230   3.832   0.238
 8058TIP3   OH224130   7.302   7.611   1.765
 8058TIP3    H124131   7.359   7.559   1.709
 8058TIP3    H224132   7.245   7.546   1.808
 8059TIP3   OH224133   7.903   1.518   0.763
 8059TIP3    H124134   7.885   1.609   0.787
 8059TIP3    H224135   7.957   1.525   0.684
 8060TIP3   OH224136   2.873   4.199   1.158
 8060TIP3    H124137   2.887   4.111   1.194
 8060TIP3    H224138   2.782   4.219   1.178
 8061TIP3   OH224139   2.683   4.126   1.889
 8061TIP3    H124140   2.595   4.125   1.851
 8061TIP3    H224141   2.671   4.160   1.978
 8062TIP3   OH224142   6.076   5.091   0.644
 8062TIP3    H124143   6.087   5.053   0.731
 8062TIP3    H224144   6.021   5.028   0.597
 8063TIP3   OH224145   1.170   1.189   5.856
 8063TIP3    H124146   1.227   1.264   5.875
 8063TIP3    H224147   1.088   1.209   5.901
 8064TIP3   OH224148   6.762   3.506   4.585
 8064TIP3    H124149   6.713   3.442   4.636
 8064TIP3    H224150   6.714   3.588   4.597
 8065TIP3   OH224151   4.727   0.946   6.027
 8065TIP3    H124152   4.631   0.948   6.035
 8065TIP3    H224153   4.748   1.027   5.980
 8066TIP3   OH224154   1.576   4.782   3.233
 8066TIP3    H124155   1.507   4.733   3.189
 8066TIP3    H224156   1.653   4.771   3.178
 8067TIP3   OH224157   5.275   3.623   2.786
 8067TIP3    H124158   5.323   3.613   2.703
 8067TIP3    H224159   5.321   3.566   2.847
 8068TIP3   OH224160   2.092   4.547   0.155
 8068TIP3    H124161   2.154   4.545   0.082
 8068TIP3    H224162   2.098   4.636   0.189
 8069TIP3   OH224163   1.211   2.149   3.240
 8069TIP3    H124164   1.251   2.202   3.309
 8069TIP3    H224165   1.272   2.077   3.227
 8070TIP3   OH224166   7.732   1.575   1.998
 8070TIP3    H124167   7.719   1.651   2.055
 8070TIP3    H224168   7.782   1.514   2.051
 8071TIP3   OH224169   5.221   4.158   6.475
 8071TIP3    H124170   5.295   4.165   6.536
 8071TIP3    H224171   5.146   4.191   6.525
 8072TIP3   OH224172   6.761   0.604   2.691
 8072TIP3    H124173   6.684   0.623   2.745
 8072TIP3    H224174   6.725   0.563   2.612
 8073TIP3   OH224175   7.820   5.468   0.553
 8073TIP3    H124176   7.821   5.451   0.459
 8073TIP3    H224177   7.805   5.382   0.593
 8074TIP3   OH224178   0.681   6.747   5.211
 8074TIP3    H124179   0.671   6.812   5.142
 8074TIP3    H224180   0.647   6.666   5.174
 8075TIP3   OH224181   8.322   4.378   2.802
 8075TIP3    H124182   8.379   4.455   2.812
 8075TIP3    H224183   8.238   4.405   2.839
 8076TIP3   OH224184   3.784   5.747   1.072
 8076TIP3    H124185   3.752   5.657   1.068
 8076TIP3    H224186   3.777   5.779   0.982
 8077TIP3   OH224187   8.244   7.199   4.089
 8077TIP3    H124188   8.287   7.142   4.153
 8077TIP3    H224189   8.224   7.141   4.015
 8078TIP3   OH224190   1.613   3.189   2.639
 8078TIP3    H124191   1.676   3.173   2.710
 8078TIP3    H224192   1.562   3.264   2.669
 8079TIP3   OH224193   3.968   5.014   0.059
 8079TIP3    H124194   4.049   4.963   0.045
 8079TIP3    H224195   3.965   5.074  -0.016
 8080TIP3   OH224196   7.480   6.359   1.517
 8080TIP3    H124197   7.565   6.401   1.507
 8080TIP3    H224198   7.426   6.425   1.561
 8081TIP3   OH224199   6.772   4.331   2.194
 8081TIP3    H124200   6.720   4.262   2.153
 8081TIP3    H224201   6.853   4.286   2.221
 8082TIP3   OH224202   4.288   5.283   6.097
 8082TIP3    H124203   4.360   5.225   6.121
 8082TIP3    H224204   4.316   5.370   6.127
 8083TIP3   OH224205   2.320   1.315   6.330
 8083TIP3    H124206   2.327   1.228   6.291
 8083TIP3    H224207   2.277   1.368   6.262
 8084TIP3   OH224208   7.563   2.756   5.156
 8084TIP3    H124209   7.515   2.809   5.221
 8084TIP3    H224210   7.512   2.765   5.076
 8085TIP3   OH224211   6.901   7.125   4.315
 8085TIP3    H124212   6.994   7.112   4.331
 8085TIP3    H224213   6.896   7.160   4.226
 8086TIP3   OH224214   1.756   3.592   6.238
 8086TIP3    H124215   1.682   3.573   6.295
 8086TIP3    H224216   1.833   3.574   6.292
 8087TIP3   OH224217   1.409   2.334   3.296
 8087TIP3    H124218   1.449   2.273   3.234
 8087TIP3    H224219   1.484   2.372   3.343
 8088TIP3   OH224220   7.540   0.540   1.770
 8088TIP3    H124221   7.457   0.509   1.735
 8088TIP3    H224222   7.593   0.558   1.692
 8089TIP3   OH224223   0.291   4.295   5.755
 8089TIP3    H124224   0.335   4.270   5.836
 8089TIP3    H224225   0.362   4.316   5.695
 8090TIP3   OH224226   0.142   0.102   3.018
 8090TIP3    H124227   0.131   0.008   3.033
 8090TIP3    H224228   0.054   0.132   2.993
 8091TIP3   OH224229   4.100   4.320   0.857
 8091TIP3    H124230   4.080   4.226   0.851
 8091TIP3    H224231   4.016   4.363   0.842
 8092TIP3   OH224232   5.518   6.724   2.403
 8092TIP3    H124233   5.608   6.690   2.400
 8092TIP3    H224234   5.484   6.710   2.315
 8093TIP3   OH224235   1.264   3.514   0.176
 8093TIP3    H124236   1.268   3.606   0.150
 8093TIP3    H224237   1.286   3.515   0.269
 8094TIP3   OH224238   0.539   1.927   4.962
 8094TIP3    H124239   0.489   1.855   4.923
 8094TIP3    H224240   0.622   1.886   4.989
 8095TIP3   OH224241   2.764   1.293   5.044
 8095TIP3    H124242   2.724   1.270   5.128
 8095TIP3    H224243   2.836   1.352   5.067
 8096TIP3   OH224244   0.499   3.777   0.175
 8096TIP3    H124245   0.559   3.848   0.152
 8096TIP3    H224246   0.439   3.771   0.100
 8097TIP3   OH224247   5.947   5.972   2.609
 8097TIP3    H124248   5.924   5.913   2.537
 8097TIP3    H224249   5.890   5.945   2.681
 8098TIP3   OH224250   8.272   0.953   0.878
 8098TIP3    H124251   8.200   1.001   0.836
 8098TIP3    H224252   8.246   0.947   0.970
 8099TIP3   OH224253   6.506   0.883   3.748
 8099TIP3    H124254   6.444   0.856   3.815
 8099TIP3    H224255   6.592   0.860   3.784
 8100TIP3   OH224256   7.217   0.764   0.705
 8100TIP3    H124257   7.301   0.724   0.725
 8100TIP3    H224258   7.154   0.692   0.712
 8101TIP3   OH224259   7.533   2.891   0.817
 8101TIP3    H124260   7.458   2.890   0.758
 8101TIP3    H224261   7.598   2.835   0.775
 8102TIP3   OH224262   2.618   6.885   2.025
 8102TIP3    H124263   2.645   6.895   1.933
 8102TIP3    H224264   2.657   6.961   2.069
 8103TIP3   OH224265   4.421   6.116   4.166
 8103TIP3    H124266   4.424   6.211   4.175
 8103TIP3    H224267   4.420   6.083   4.256
 8104TIP3   OH224268   5.065   5.424   0.164
 8104TIP3    H124269   5.146   5.472   0.148
 8104TIP3    H224270   5.007   5.486   0.208
 8105TIP3   OH224271   6.238   1.570   2.701
 8105TIP3    H124272   6.325   1.534   2.688
 8105TIP3    H224273   6.197   1.511   2.764
 8106TIP3   OH224274   0.388   2.340   3.525
 8106TIP3    H124275   0.477   2.310   3.544
 8106TIP3    H224276   0.383   2.428   3.562
 8107TIP3   OH224277   0.795   7.343   4.336
 8107TIP3    H124278   0.858   7.415   4.344
 8107TIP3    H224279   0.745   7.363   4.257
 8108TIP3   OH224280   2.114   5.271   1.952
 8108TIP3    H124281   2.049   5.224   1.899
 8108TIP3    H224282   2.072   5.282   2.037
 8109TIP3   OH224283   7.190   0.407   2.106
 8109TIP3    H124284   7.209   0.374   2.019
 8109TIP3    H224285   7.273   0.444   2.137
 8110TIP3   OH224286   6.593   1.883   1.931
 8110TIP3    H124287   6.576   1.937   2.008
 8110TIP3    H224288   6.624   1.945   1.865
 8111TIP3   OH224289   3.429   1.975   3.728
 8111TIP3    H124290   3.496   1.911   3.705
 8111TIP3    H224291   3.355   1.922   3.757
 8112TIP3   OH224292   2.137   1.398   5.260
 8112TIP3    H124293   2.209   1.335   5.263
 8112TIP3    H224294   2.175   1.475   5.218
 8113TIP3   OH224295   3.269   1.570   3.810
 8113TIP3    H124296   3.223   1.569   3.894
 8113TIP3    H224297   3.361   1.557   3.834
 8114TIP3   OH224298   2.793   3.203   3.581
 8114TIP3    H124299   2.809   3.145   3.655
 8114TIP3    H224300   2.741   3.275   3.618
 8115TIP3   OH224301   2.006   2.520   0.633
 8115TIP3    H124302   1.990   2.529   0.727
 8115TIP3    H224303   2.098   2.495   0.626
 8116TIP3   OH224304   0.422   4.366   2.616
 8116TIP3    H124305   0.495   4.426   2.629
 8116TIP3    H224306   0.375   4.400   2.540
 8117TIP3   OH224307   7.804   3.448   1.010
 8117TIP3    H124308   7.810   3.467   0.917
 8117TIP3    H224309   7.816   3.353   1.016
 8118TIP3   OH224310   7.723   0.785   4.897
 8118TIP3    H124311   7.725   0.879   4.884
 8118TIP3    H224312   7.654   0.771   4.962
 8119TIP3   OH224313   6.615   0.348   6.736
 8119TIP3    H124314   6.647   0.307   6.656
 8119TIP3    H224315   6.545   0.291   6.767
 8120TIP3   OH224316   0.405   3.628   4.279
 8120TIP3    H124317   0.417   3.636   4.184
 8120TIP3    H224318   0.313   3.646   4.293
 8121TIP3   OH224319   1.205   0.738   0.240
 8121TIP3    H124320   1.244   0.770   0.159
 8121TIP3    H224321   1.180   0.648   0.221
 8122TIP3   OH224322   2.408   1.659   3.843
 8122TIP3    H124323   2.337   1.678   3.904
 8122TIP3    H224324   2.479   1.718   3.869
 8123TIP3   OH224325   2.196   4.604   0.747
 8123TIP3    H124326   2.204   4.682   0.692
 8123TIP3    H224327   2.266   4.613   0.811
 8124TIP3   OH224328   1.207   3.534   1.995
 8124TIP3    H124329   1.189   3.620   1.958
 8124TIP3    H224330   1.294   3.542   2.034
 8125TIP3   OH224331   1.451   5.671   2.896
 8125TIP3    H124332   1.367   5.716   2.908
 8125TIP3    H224333   1.516   5.742   2.894
 8126TIP3   OH224334   6.907   0.988   1.099
 8126TIP3    H124335   6.854   1.018   1.174
 8126TIP3    H224336   6.847   0.994   1.024
 8127TIP3   OH224337   4.979   4.350   0.585
 8127TIP3    H124338   5.068   4.384   0.597
 8127TIP3    H224339   4.950   4.387   0.502
 8128TIP3   OH224340   7.501   2.130   0.348
 8128TIP3    H124341   7.576   2.157   0.296
 8128TIP3    H224342   7.539   2.086   0.424
 8129TIP3   OH224343   2.071   3.783   5.443
 8129TIP3    H124344   2.143   3.750   5.497
 8129TIP3    H224345   2.039   3.706   5.396
 8130TIP3   OH224346   5.692   3.554   4.549
 8130TIP3    H124347   5.682   3.515   4.462
 8130TIP3    H224348   5.703   3.480   4.608
 8131TIP3   OH224349   0.920   0.220   1.233
 8131TIP3    H124350   0.989   0.285   1.228
 8131TIP3    H224351   0.842   0.269   1.258
 8132TIP3   OH224352   4.051   4.644   6.220
 8132TIP3    H124353   4.028   4.703   6.148
 8132TIP3    H224354   4.133   4.681   6.255
 8133TIP3   OH224355   0.697   3.934   1.160
 8133TIP3    H124356   0.677   3.893   1.244
 8133TIP3    H224357   0.618   3.982   1.136
 8134TIP3   OH224358   5.726   3.319   1.503
 8134TIP3    H124359   5.756   3.404   1.536
 8134TIP3    H224360   5.758   3.315   1.413
 8135TIP3   OH224361   5.271   3.096   4.796
 8135TIP3    H124362   5.272   3.002   4.811
 8135TIP3    H224363   5.275   3.135   4.883
 8136TIP3   OH224364   4.860   7.046   2.146
 8136TIP3    H124365   4.901   7.005   2.070
 8136TIP3    H224366   4.928   7.104   2.181
 8137TIP3   OH224367   3.045   2.964   3.742
 8137TIP3    H124368   2.957   2.927   3.745
 8137TIP3    H224369   3.081   2.933   3.658
 8138TIP3   OH224370   7.697   5.157   2.851
 8138TIP3    H124371   7.614   5.112   2.835
 8138TIP3    H224372   7.705   5.220   2.780
 8139TIP3   OH224373   4.450   2.992   1.946
 8139TIP3    H124374   4.374   3.028   1.992
 8139TIP3    H224375   4.512   2.971   2.015
 8140TIP3   OH224376   2.879   0.991   5.672
 8140TIP3    H124377   2.794   0.993   5.715
 8140TIP3    H224378   2.907   1.083   5.670
 8141TIP3   OH224379   3.305   0.826   5.216
 8141TIP3    H124380   3.361   0.749   5.228
 8141TIP3    H224381   3.243   0.822   5.289
 8142TIP3   OH224382   3.051   2.951   5.258
 8142TIP3    H124383   2.962   2.933   5.226
 8142TIP3    H224384   3.057   2.904   5.341
 8143TIP3   OH224385   5.564   6.180   3.532
 8143TIP3    H124386   5.485   6.220   3.498
 8143TIP3    H224387   5.628   6.189   3.462
 8144TIP3   OH224388   2.591   3.747   4.579
 8144TIP3    H124389   2.496   3.753   4.566
 8144TIP3    H224390   2.628   3.779   4.497
 8145TIP3   OH224391   0.602   3.689   0.607
 8145TIP3    H124392   0.565   3.777   0.604
 8145TIP3    H224393   0.530   3.633   0.638
 8146TIP3   OH224394   5.740   5.283   5.253
 8146TIP3    H124395   5.835   5.283   5.265
 8146TIP3    H224396   5.711   5.368   5.284
 8147TIP3   OH224397   0.437   4.333   1.008
 8147TIP3    H124398   0.504   4.385   0.965
 8147TIP3    H224399   0.386   4.396   1.059
 8148TIP3   OH224400   3.688   3.957   6.740
 8148TIP3    H124401   3.626   4.029   6.743
 8148TIP3    H224402   3.747   3.979   6.669
 8149TIP3   OH224403   5.153   4.558   6.026
 8149TIP3    H124404   5.145   4.587   6.117
 8149TIP3    H224405   5.169   4.638   5.976
 8150TIP3   OH224406   6.681   3.635   6.234
 8150TIP3    H124407   6.630   3.653   6.313
 8150TIP3    H224408   6.638   3.559   6.195
 8151TIP3   OH224409   2.816   5.630   2.460
 8151TIP3    H124410   2.794   5.652   2.370
 8151TIP3    H224411   2.810   5.535   2.465
 8152TIP3   OH224412   4.190   6.882   2.331
 8152TIP3    H124413   4.149   6.903   2.247
 8152TIP3    H224414   4.212   6.968   2.369
 8153TIP3   OH224415   3.592   2.718   1.685
 8153TIP3    H124416   3.635   2.634   1.671
 8153TIP3    H224417   3.660   2.783   1.669
 8154TIP3   OH224418   5.608   4.021   3.209
 8154TIP3    H124419   5.631   4.028   3.301
 8154TIP3    H224420   5.689   3.998   3.164
 8155TIP3   OH224421   4.717   6.490   0.698
 8155TIP3    H124422   4.638   6.544   0.697
 8155TIP3    H224423   4.782   6.543   0.745
 8156TIP3   OH224424   0.469   2.502   0.042
 8156TIP3    H124425   0.518   2.524  -0.037
 8156TIP3    H224426   0.421   2.422   0.019
 8157TIP3   OH224427   3.415   4.659   6.567
 8157TIP3    H124428   3.492   4.658   6.623
 8157TIP3    H224429   3.353   4.600   6.610
 8158TIP3   OH224430   7.079   2.587   1.294
 8158TIP3    H124431   7.049   2.676   1.276
 8158TIP3    H224432   7.089   2.547   1.208
 8159TIP3   OH224433   5.390   7.320   4.494
 8159TIP3    H124434   5.450   7.325   4.419
 8159TIP3    H224435   5.396   7.406   4.535
 8160TIP3   OH224436   2.947   2.492   5.021
 8160TIP3    H124437   2.855   2.513   5.005
 8160TIP3    H224438   2.965   2.526   5.108
 8161TIP3   OH224439   2.303   4.024   0.661
 8161TIP3    H124440   2.330   4.060   0.577
 8161TIP3    H224441   2.253   3.945   0.639
 8162TIP3   OH224442   4.155   2.977   6.129
 8162TIP3    H124443   4.062   2.997   6.127
 8162TIP3    H224444   4.171   2.934   6.045
 8163TIP3   OH224445   3.046   1.623   5.404
 8163TIP3    H124446   3.011   1.560   5.341
 8163TIP3    H224447   3.140   1.603   5.407
 8164TIP3   OH224448   1.696   0.593   1.924
 8164TIP3    H124449   1.787   0.574   1.904
 8164TIP3    H224450   1.675   0.670   1.870
 8165TIP3   OH224451   3.018   2.482   4.745
 8165TIP3    H124452   3.040   2.575   4.734
 8165TIP3    H224453   2.987   2.476   4.835
 8166TIP3   OH224454   6.632   4.925   5.102
 8166TIP3    H124455   6.709   4.936   5.046
 8166TIP3    H224456   6.573   4.869   5.051
 8167TIP3   OH224457   5.620   7.138   1.016
 8167TIP3    H124458   5.638   7.140   1.110
 8167TIP3    H224459   5.564   7.214   1.000
 8168TIP3   OH224460   7.803   2.392   5.438
 8168TIP3    H124461   7.806   2.488   5.441
 8168TIP3    H224462   7.834   2.369   5.351
 8169TIP3   OH224463   1.742   6.291   2.910
 8169TIP3    H124464   1.815   6.246   2.953
 8169TIP3    H224465   1.695   6.221   2.865
 8170TIP3   OH224466   2.857   2.126   0.650
 8170TIP3    H124467   2.943   2.096   0.679
 8170TIP3    H224468   2.816   2.049   0.610
 8171TIP3   OH224469   6.981   4.566   2.731
 8171TIP3    H124470   7.004   4.556   2.823
 8171TIP3    H224471   6.940   4.484   2.706
 8172TIP3   OH224472   2.412   4.233   4.472
 8172TIP3    H124473   2.326   4.192   4.480
 8172TIP3    H224474   2.394   4.317   4.428
 8173TIP3   OH224475   1.913   7.257   6.289
 8173TIP3    H124476   1.867   7.223   6.212
 8173TIP3    H224477   1.968   7.184   6.318
 8174TIP3   OH224478   6.890   4.329   1.243
 8174TIP3    H124479   6.811   4.299   1.199
 8174TIP3    H224480   6.870   4.324   1.336
 8175TIP3   OH224481   4.024   2.807   2.406
 8175TIP3    H124482   4.094   2.807   2.471
 8175TIP3    H224483   3.995   2.716   2.403
 8176TIP3   OH224484   7.546   5.197   3.825
 8176TIP3    H124485   7.604   5.257   3.777
 8176TIP3    H224486   7.564   5.216   3.917
 8177TIP3   OH224487   5.389   1.060   6.143
 8177TIP3    H124488   5.331   0.992   6.176
 8177TIP3    H224489   5.389   1.048   6.048
 8178TIP3   OH224490   2.217   1.402   1.152
 8178TIP3    H124491   2.242   1.314   1.180
 8178TIP3    H224492   2.219   1.399   1.057
 8179TIP3   OH224493   3.928   3.154   5.431
 8179TIP3    H124494   4.009   3.104   5.421
 8179TIP3    H224495   3.957   3.245   5.435
 8180TIP3   OH224496   1.397   6.322   5.787
 8180TIP3    H124497   1.422   6.359   5.702
 8180TIP3    H224498   1.346   6.243   5.765
 8181TIP3   OH224499   5.346   1.251   4.404
 8181TIP3    H124500   5.255   1.244   4.375
 8181TIP3    H224501   5.342   1.311   4.479
 8182TIP3   OH224502   1.726   4.830   5.955
 8182TIP3    H124503   1.660   4.776   5.912
 8182TIP3    H224504   1.805   4.775   5.956
 8183TIP3   OH224505   2.325   3.438   3.663
 8183TIP3    H124506   2.275   3.405   3.738
 8183TIP3    H224507   2.308   3.375   3.593
 8184TIP3   OH224508   1.471   4.359   6.173
 8184TIP3    H124509   1.496   4.441   6.216
 8184TIP3    H224510   1.411   4.386   6.104
 8185TIP3   OH224511   7.378   3.343   3.864
 8185TIP3    H124512   7.432   3.422   3.864
 8185TIP3    H224513   7.333   3.345   3.780
 8186TIP3   OH224514   6.720   4.897   0.864
 8186TIP3    H124515   6.774   4.906   0.786
 8186TIP3    H224516   6.659   4.970   0.859
 8187TIP3   OH224517   0.338   4.454   0.692
 8187TIP3    H124518   0.248   4.487   0.695
 8187TIP3    H224519   0.329   4.360   0.704
 8188TIP3   OH224520   0.446   4.867   6.150
 8188TIP3    H124521   0.480   4.798   6.095
 8188TIP3    H224522   0.504   4.942   6.135
 8189TIP3   OH224523   0.649   7.674   4.502
 8189TIP3    H124524   0.657   7.580   4.517
 8189TIP3    H224525   0.557   7.687   4.479
 8190TIP3   OH224526   1.494   5.461   5.335
 8190TIP3    H124527   1.420   5.433   5.389
 8190TIP3    H224528   1.568   5.408   5.364
 8191TIP3   OH224529   4.794   7.825   5.693
 8191TIP3    H124530   4.844   7.752   5.656
 8191TIP3    H224531   4.860   7.891   5.714
 8192TIP3   OH224532   7.216   7.301   3.126
 8192TIP3    H124533   7.303   7.324   3.095
 8192TIP3    H224534   7.214   7.328   3.218
 8193TIP3   OH224535   5.205   1.012   5.183
 8193TIP3    H124536   5.202   0.987   5.275
 8193TIP3    H224537   5.123   1.059   5.167
 8194TIP3   OH224538   4.529   3.904   6.148
 8194TIP3    H124539   4.437   3.929   6.138
 8194TIP3    H224540   4.531   3.850   6.227
 8195TIP3   OH224541   5.659   1.987   4.656
 8195TIP3    H124542   5.733   1.929   4.634
 8195TIP3    H224543   5.605   1.934   4.716
 8196TIP3   OH224544   5.856   2.777   1.703
 8196TIP3    H124545   5.810   2.696   1.727
 8196TIP3    H224546   5.883   2.815   1.787
 8197TIP3   OH224547   7.421   0.215   5.259
 8197TIP3    H124548   7.406   0.304   5.288
 8197TIP3    H224549   7.516   0.202   5.270
 8198TIP3   OH224550   1.324   7.487   3.533
 8198TIP3    H124551   1.412   7.455   3.514
 8198TIP3    H224552   1.337   7.575   3.567
 8199TIP3   OH224553   7.174   4.146   5.081
 8199TIP3    H124554   7.114   4.080   5.116
 8199TIP3    H224555   7.261   4.117   5.109
 8200TIP3   OH224556   4.003   6.080   1.932
 8200TIP3    H124557   3.962   5.999   1.965
 8200TIP3    H224558   4.057   6.111   2.005
 8201TIP3   OH224559   1.548   1.081   5.651
 8201TIP3    H124560   1.545   1.175   5.670
 8201TIP3    H224561   1.641   1.061   5.642
 8202TIP3   OH224562   2.985   7.277   1.781
 8202TIP3    H124563   2.936   7.347   1.825
 8202TIP3    H224564   3.045   7.323   1.722
 8203TIP3   OH224565   2.714   3.640   4.302
 8203TIP3    H124566   2.714   3.728   4.341
 8203TIP3    H224567   2.643   3.643   4.238
 8204TIP3   OH224568   5.594   4.717   4.522
 8204TIP3    H124569   5.547   4.723   4.439
 8204TIP3    H224570   5.525   4.715   4.589
 8205TIP3   OH224571   3.959   1.711   4.680
 8205TIP3    H124572   3.987   1.784   4.736
 8205TIP3    H224573   3.865   1.702   4.697
 8206TIP3   OH224574   6.095   6.610   3.425
 8206TIP3    H124575   6.175   6.560   3.408
 8206TIP3    H224576   6.119   6.672   3.494
 8207TIP3   OH224577   3.001   4.351   2.901
 8207TIP3    H124578   3.090   4.352   2.936
 8207TIP3    H224579   2.946   4.327   2.975
 8208TIP3   OH224580   5.072   4.847   2.611
 8208TIP3    H124581   5.028   4.833   2.695
 8208TIP3    H224582   5.088   4.941   2.608
 8209TIP3   OH224583   2.032   5.810   3.359
 8209TIP3    H124584   2.101   5.774   3.303
 8209TIP3    H224585   2.055   5.780   3.447
 8210TIP3   OH224586   3.696   1.609   4.746
 8210TIP3    H124587   3.659   1.590   4.832
 8210TIP3    H224588   3.657   1.545   4.687
 8211TIP3   OH224589   4.784   4.355   5.925
 8211TIP3    H124590   4.829   4.314   5.851
 8211TIP3    H224591   4.759   4.282   5.981
 8212TIP3   OH224592   7.632   0.331   4.726
 8212TIP3    H124593   7.665   0.416   4.753
 8212TIP3    H224594   7.618   0.283   4.808
 8213TIP3   OH224595   4.968   2.164   5.614
 8213TIP3    H124596   4.979   2.152   5.708
 8213TIP3    H224597   4.875   2.147   5.598
 8214TIP3   OH224598   4.559   7.126   0.694
 8214TIP3    H124599   4.571   7.036   0.664
 8214TIP3    H224600   4.572   7.179   0.615
 8215TIP3   OH224601   0.240   5.824   1.016
 8215TIP3    H124602   0.254   5.842   1.109
 8215TIP3    H224603   0.296   5.748   0.997
 8216TIP3   OH224604   2.165   2.264   6.542
 8216TIP3    H124605   2.246   2.307   6.514
 8216TIP3    H224606   2.114   2.334   6.583
 8217TIP3   OH224607   1.206   5.652   3.120
 8217TIP3    H124608   1.216   5.708   3.043
 8217TIP3    H224609   1.137   5.694   3.172
 8218TIP3   OH224610   7.724   4.089   2.870
 8218TIP3    H124611   7.639   4.063   2.907
 8218TIP3    H224612   7.719   4.184   2.863
 8219TIP3   OH224613   4.601   2.005   1.917
 8219TIP3    H124614   4.522   2.046   1.951
 8219TIP3    H224615   4.658   2.079   1.893
 8220TIP3   OH224616   3.577   5.257   3.341
 8220TIP3    H124617   3.595   5.350   3.358
 8220TIP3    H224618   3.594   5.214   3.425
 8221TIP3   OH224619   2.007   5.340   3.699
 8221TIP3    H124620   1.937   5.391   3.741
 8221TIP3    H224621   1.965   5.303   3.621
 8222TIP3   OH224622   0.846   0.260   4.730
 8222TIP3    H124623   0.872   0.308   4.808
 8222TIP3    H224624   0.806   0.326   4.673
 8223TIP3   OH224625   8.059   7.756   3.802
 8223TIP3    H124626   8.055   7.846   3.834
 8223TIP3    H224627   7.971   7.736   3.772
 8224TIP3   OH224628   0.041   7.601  -0.026
 8224TIP3    H124629  -0.033   7.561  -0.073
 8224TIP3    H224630   0.005   7.626   0.059
 8225TIP3   OH224631   1.492   6.451   2.358
 8225TIP3    H124632   1.573   6.401   2.367
 8225TIP3    H224633   1.514   6.538   2.390
 8226TIP3   OH224634   0.077   0.664   4.722
 8226TIP3    H124635   0.112   0.651   4.634
 8226TIP3    H224636   0.097   0.755   4.743
 8227TIP3   OH224637   6.109   5.945   3.252
 8227TIP3    H124638   6.016   5.957   3.234
 8227TIP3    H224639   6.137   6.028   3.291
 8228TIP3   OH224640   7.884   7.664   2.137
 8228TIP3    H124641   7.947   7.600   2.105
 8228TIP3    H224642   7.894   7.661   2.232
 8229TIP3   OH224643   2.249   0.596   2.504
 8229TIP3    H124644   2.214   0.527   2.560
 8229TIP3    H224645   2.342   0.576   2.496
 8230TIP3   OH224646   5.596   4.179   0.648
 8230TIP3    H124647   5.598   4.199   0.554
 8230TIP3    H224648   5.503   4.167   0.667
 8231TIP3   OH224649   7.077   6.290   2.344
 8231TIP3    H124650   6.995   6.327   2.379
 8231TIP3    H224651   7.118   6.364   2.299
 8232TIP3   OH224652   4.217   7.145   2.400
 8232TIP3    H124653   4.144   7.206   2.388
 8232TIP3    H224654   4.296   7.200   2.397
 8233TIP3   OH224655   4.590   1.486   1.581
 8233TIP3    H124656   4.606   1.400   1.542
 8233TIP3    H224657   4.620   1.549   1.516
 8234TIP3   OH224658   1.323   7.844   0.400
 8234TIP3    H124659   1.318   7.787   0.323
 8234TIP3    H224660   1.349   7.929   0.365
 8235TIP3   OH224661   3.746   5.030   0.442
 8235TIP3    H124662   3.770   5.014   0.533
 8235TIP3    H224663   3.740   4.943   0.403
 8236TIP3   OH224664   3.358   7.467   4.507
 8236TIP3    H124665   3.359   7.375   4.532
 8236TIP3    H224666   3.367   7.515   4.589
 8237TIP3   OH224667   6.340   1.935   0.721
 8237TIP3    H124668   6.399   2.010   0.718
 8237TIP3    H224669   6.253   1.973   0.737
 8238TIP3   OH224670   5.211   7.573   2.998
 8238TIP3    H124671   5.187   7.489   2.959
 8238TIP3    H224672   5.154   7.637   2.955
 8239TIP3   OH224673   4.095   5.074   6.540
 8239TIP3    H124674   4.137   5.001   6.587
 8239TIP3    H224675   4.165   5.138   6.528
 8240TIP3   OH224676   4.463   4.008   2.750
 8240TIP3    H124677   4.529   4.076   2.743
 8240TIP3    H224678   4.391   4.049   2.797
 8241TIP3   OH224679   4.174   5.458   0.918
 8241TIP3    H124680   4.255   5.459   0.866
 8241TIP3    H224681   4.128   5.538   0.893
 8242TIP3   OH224682   1.137   3.341   1.492
 8242TIP3    H124683   1.184   3.353   1.409
 8242TIP3    H224684   1.175   3.406   1.551
 8243TIP3   OH224685   3.312   7.781   2.693
 8243TIP3    H124686   3.270   7.769   2.607
 8243TIP3    H224687   3.349   7.869   2.690
 8244TIP3   OH224688   7.519   7.058   2.491
 8244TIP3    H124689   7.429   7.044   2.522
 8244TIP3    H224690   7.571   7.061   2.571
 8245TIP3   OH224691   0.048   0.096   5.459
 8245TIP3    H124692   0.002   0.031   5.406
 8245TIP3    H224693   0.074   0.164   5.397
 8246TIP3   OH224694   0.077   3.499   0.290
 8246TIP3    H124695   0.059   3.462   0.377
 8246TIP3    H224696   0.027   3.444   0.230
 8247TIP3   OH224697   4.199   2.553   1.422
 8247TIP3    H124698   4.197   2.495   1.346
 8247TIP3    H224699   4.287   2.544   1.457
 8248TIP3   OH224700   0.393   0.583   5.522
 8248TIP3    H124701   0.438   0.661   5.553
 8248TIP3    H224702   0.333   0.615   5.455
 8249TIP3   OH224703   3.843   6.663   4.297
 8249TIP3    H124704   3.818   6.689   4.386
 8249TIP3    H224705   3.935   6.690   4.291
 8250TIP3   OH224706   7.656   7.359   3.748
 8250TIP3    H124707   7.705   7.285   3.784
 8250TIP3    H224708   7.706   7.386   3.671
 8251TIP3   OH224709   1.314   7.729   5.601
 8251TIP3    H124710   1.220   7.710   5.595
 8251TIP3    H224711   1.356   7.642   5.602
 8252TIP3   OH224712   3.436   4.089   0.686
 8252TIP3    H124713   3.432   4.103   0.591
 8252TIP3    H224714   3.478   4.168   0.719
 8253TIP3   OH224715   1.130   1.605   6.644
 8253TIP3    H124716   1.102   1.514   6.640
 8253TIP3    H224717   1.085   1.641   6.720
 8254TIP3   OH224718   0.347   5.301   4.577
 8254TIP3    H124719   0.259   5.299   4.540
 8254TIP3    H224720   0.405   5.300   4.500
 8255TIP3   OH224721   3.273   6.892   2.415
 8255TIP3    H124722   3.264   6.987   2.414
 8255TIP3    H224723   3.227   6.864   2.494
 8256TIP3   OH224724   6.883   5.029   3.433
 8256TIP3    H124725   6.903   5.072   3.516
 8256TIP3    H224726   6.969   5.007   3.396
 8257TIP3   OH224727   4.045   3.370   2.897
 8257TIP3    H124728   3.995   3.292   2.872
 8257TIP3    H224729   4.128   3.360   2.850
 8258TIP3   OH224730   1.323   0.822   1.789
 8258TIP3    H124731   1.336   0.865   1.873
 8258TIP3    H224732   1.233   0.844   1.765
 8259TIP3   OH224733   3.053   2.560   4.100
 8259TIP3    H124734   3.106   2.561   4.180
 8259TIP3    H224735   3.062   2.472   4.066
 8260TIP3   OH224736   3.501   0.342   6.577
 8260TIP3    H124737   3.547   0.397   6.641
 8260TIP3    H224738   3.428   0.304   6.626
 8261TIP3   OH224739   1.776   4.320   3.584
 8261TIP3    H124740   1.789   4.354   3.495
 8261TIP3    H224741   1.736   4.392   3.632
 8262TIP3   OH224742   0.042   3.680   1.222
 8262TIP3    H124743   0.031   3.624   1.146
 8262TIP3    H224744   0.118   3.734   1.202
 8263TIP3   OH224745   0.564   0.061   3.567
 8263TIP3    H124746   0.557   0.155   3.555
 8263TIP3    H224747   0.573   0.026   3.478
 8264TIP3   OH224748   2.843   7.285   6.088
 8264TIP3    H124749   2.846   7.223   6.161
 8264TIP3    H224750   2.892   7.361   6.119
 8265TIP3   OH224751   5.941   7.536   2.496
 8265TIP3    H124752   5.968   7.559   2.407
 8265TIP3    H224753   6.017   7.558   2.550
 8266TIP3   OH224754   7.707   2.595   4.883
 8266TIP3    H124755   7.789   2.548   4.872
 8266TIP3    H224756   7.728   2.686   4.863
 8267TIP3   OH224757   5.575   2.799   1.334
 8267TIP3    H124758   5.579   2.728   1.398
 8267TIP3    H224759   5.524   2.762   1.261
 8268TIP3   OH224760   3.714   6.551   0.503
 8268TIP3    H124761   3.783   6.504   0.549
 8268TIP3    H224762   3.671   6.484   0.450
 8269TIP3   OH224763   0.192   4.744   5.266
 8269TIP3    H124764   0.159   4.828   5.297
 8269TIP3    H224765   0.277   4.734   5.310
 8270TIP3   OH224766   7.740   5.976   3.803
 8270TIP3    H124767   7.769   6.009   3.889
 8270TIP3    H224768   7.780   5.889   3.797
 8271TIP3   OH224769   1.374   7.083   2.745
 8271TIP3    H124770   1.403   6.993   2.734
 8271TIP3    H224771   1.404   7.108   2.832
 8272TIP3   OH224772   2.051   5.381   4.422
 8272TIP3    H124773   2.123   5.443   4.424
 8272TIP3    H224774   2.052   5.340   4.509
 8273TIP3   OH224775   5.682   7.324   5.693
 8273TIP3    H124776   5.738   7.396   5.723
 8273TIP3    H224777   5.662   7.275   5.773
 8274TIP3   OH224778   2.754   0.381   4.696
 8274TIP3    H124779   2.720   0.299   4.659
 8274TIP3    H224780   2.728   0.448   4.634
 8275TIP3   OH224781   0.844   2.028   5.781
 8275TIP3    H124782   0.785   2.093   5.742
 8275TIP3    H224783   0.863   2.062   5.869
 8276TIP3   OH224784   4.087   2.922   3.240
 8276TIP3    H124785   4.080   3.016   3.256
 8276TIP3    H224786   4.106   2.884   3.326
 8277TIP3   OH224787   4.840   1.430   4.422
 8277TIP3    H124788   4.860   1.382   4.502
 8277TIP3    H224789   4.902   1.396   4.357
 8278TIP3   OH224790   2.550   5.531   2.070
 8278TIP3    H124791   2.573   5.448   2.029
 8278TIP3    H224792   2.631   5.583   2.065
 8279TIP3   OH224793   0.719   7.734   3.418
 8279TIP3    H124794   0.644   7.683   3.388
 8279TIP3    H224795   0.734   7.704   3.508
 8280TIP3   OH224796   0.641   6.825   4.558
 8280TIP3    H124797   0.554   6.837   4.519
 8280TIP3    H224798   0.679   6.753   4.509
 8281TIP3   OH224799   1.250   0.640   3.482
 8281TIP3    H124800   1.276   0.549   3.498
 8281TIP3    H224801   1.281   0.688   3.559
 8282TIP3   OH224802   4.577   5.701   5.052
 8282TIP3    H124803   4.485   5.675   5.044
 8282TIP3    H224804   4.575   5.780   5.105
 8283TIP3   OH224805   8.088   0.914   1.585
 8283TIP3    H124806   8.158   0.848   1.591
 8283TIP3    H224807   8.022   0.883   1.648
 8284TIP3   OH224808   5.984   0.404   5.964
 8284TIP3    H124809   5.977   0.319   5.920
 8284TIP3    H224810   5.994   0.383   6.056
 8285TIP3   OH224811   4.503   6.401   5.821
 8285TIP3    H124812   4.534   6.316   5.854
 8285TIP3    H224813   4.424   6.379   5.771
 8286TIP3   OH224814   0.493   0.557   2.752
 8286TIP3    H124815   0.490   0.648   2.723
 8286TIP3    H224816   0.428   0.552   2.822
 8287TIP3   OH224817   4.675   5.227   2.028
 8287TIP3    H124818   4.590   5.229   2.072
 8287TIP3    H224819   4.691   5.134   2.013
 8288TIP3   OH224820   8.148   7.666   4.468
 8288TIP3    H124821   8.169   7.579   4.435
 8288TIP3    H224822   8.127   7.717   4.390
 8289TIP3   OH224823   0.983   1.995   2.275
 8289TIP3    H124824   0.972   1.904   2.248
 8289TIP3    H224825   0.910   2.041   2.233
 8290TIP3   OH224826   4.030   5.307   3.489
 8290TIP3    H124827   3.963   5.369   3.518
 8290TIP3    H224828   3.983   5.225   3.475
 8291TIP3   OH224829   3.377   6.418   5.980
 8291TIP3    H124830   3.333   6.476   5.918
 8291TIP3    H224831   3.466   6.410   5.946
 8292TIP3   OH224832   0.016   2.672   2.498
 8292TIP3    H124833   0.103   2.709   2.515
 8292TIP3    H224834  -0.042   2.717   2.560
 8293TIP3   OH224835   7.279   6.982   3.543
 8293TIP3    H124836   7.359   6.931   3.559
 8293TIP3    H224837   7.228   6.928   3.483
 8294TIP3   OH224838   6.150   5.746   6.212
 8294TIP3    H124839   6.159   5.805   6.287
 8294TIP3    H224840   6.056   5.727   6.208
 8295TIP3   OH224841   0.887   2.350   0.053
 8295TIP3    H124842   0.983   2.353   0.044
 8295TIP3    H224843   0.854   2.373  -0.033
 8296TIP3   OH224844   1.535   7.695   5.374
 8296TIP3    H124845   1.570   7.637   5.441
 8296TIP3    H224846   1.446   7.663   5.359
 8297TIP3   OH224847   7.809   5.126   4.566
 8297TIP3    H124848   7.742   5.194   4.554
 8297TIP3    H224849   7.758   5.047   4.584
 8298TIP3   OH224850   2.768   0.534   6.198
 8298TIP3    H124851   2.781   0.494   6.112
 8298TIP3    H224852   2.747   0.625   6.180
 8299TIP3   OH224853   8.193   5.514   0.197
 8299TIP3    H124854   8.159   5.591   0.241
 8299TIP3    H224855   8.119   5.479   0.148
 8300TIP3   OH224856   4.849   6.919   5.411
 8300TIP3    H124857   4.929   6.931   5.462
 8300TIP3    H224858   4.852   6.829   5.380
 8301TIP3   OH224859   5.317   0.319   0.865
 8301TIP3    H124860   5.304   0.345   0.956
 8301TIP3    H224861   5.288   0.394   0.814
 8302TIP3   OH224862   3.925   6.486   4.018
 8302TIP3    H124863   3.882   6.570   4.030
 8302TIP3    H224864   3.914   6.467   3.925
 8303TIP3   OH224865   5.626   1.318   2.036
 8303TIP3    H124866   5.700   1.277   1.992
 8303TIP3    H224867   5.627   1.282   2.124
 8304TIP3   OH224868   0.389   2.498   6.376
 8304TIP3    H124869   0.353   2.444   6.305
 8304TIP3    H224870   0.483   2.484   6.371
 8305TIP3   OH224871   6.515   1.618   4.841
 8305TIP3    H124872   6.465   1.667   4.907
 8305TIP3    H224873   6.464   1.539   4.825
 8306TIP3   OH224874   7.292   6.909   1.576
 8306TIP3    H124875   7.211   6.945   1.612
 8306TIP3    H224876   7.264   6.836   1.521
 8307TIP3   OH224877   4.655   3.587   5.972
 8307TIP3    H124878   4.561   3.571   5.973
 8307TIP3    H224879   4.689   3.529   5.904
 8308TIP3   OH224880   6.273   0.130   4.621
 8308TIP3    H124881   6.271   0.072   4.544
 8308TIP3    H224882   6.331   0.085   4.683
 8309TIP3   OH224883   3.144   4.183   6.615
 8309TIP3    H124884   3.070   4.138   6.574
 8309TIP3    H224885   3.105   4.258   6.660
 8310TIP3   OH224886   5.709   3.833   1.177
 8310TIP3    H124887   5.762   3.861   1.252
 8310TIP3    H224888   5.770   3.833   1.103
 8311TIP3   OH224889   8.005   6.388   3.475
 8311TIP3    H124890   8.072   6.360   3.537
 8311TIP3    H224891   7.923   6.380   3.522
 8312TIP3   OH224892   3.747   6.133   2.235
 8312TIP3    H124893   3.718   6.131   2.144
 8312TIP3    H224894   3.843   6.141   2.229
 8313TIP3   OH224895   1.825   0.035   6.589
 8313TIP3    H124896   1.904  -0.009   6.622
 8313TIP3    H224897   1.760   0.020   6.658
 8314TIP3   OH224898   1.995   0.169   4.882
 8314TIP3    H124899   1.924   0.120   4.924
 8314TIP3    H224900   1.955   0.251   4.856
 8315TIP3   OH224901   5.430   6.963   2.490
 8315TIP3    H124902   5.441   6.970   2.584
 8315TIP3    H224903   5.488   6.891   2.464
 8316TIP3   OH224904   7.523   0.978   4.224
 8316TIP3    H124905   7.554   0.979   4.133
 8316TIP3    H224906   7.482   0.892   4.234
 8317TIP3   OH224907   0.744   6.813   1.318
 8317TIP3    H124908   0.654   6.829   1.289
 8317TIP3    H224909   0.741   6.828   1.412
 8318TIP3   OH224910   3.557   2.147   0.813
 8318TIP3    H124911   3.513   2.229   0.790
 8318TIP3    H224912   3.650   2.170   0.817
 8319TIP3   OH224913   1.200   7.150   4.132
 8319TIP3    H124914   1.204   7.088   4.059
 8319TIP3    H224915   1.139   7.218   4.102
 8320TIP3   OH224916   1.931   3.673   0.580
 8320TIP3    H124917   1.938   3.585   0.543
 8320TIP3    H224918   1.944   3.661   0.674
 8321TIP3   OH224919   0.408   7.696   2.546
 8321TIP3    H124920   0.475   7.631   2.524
 8321TIP3    H224921   0.335   7.644   2.580
 8322TIP3   OH224922   2.327   3.649   1.492
 8322TIP3    H124923   2.359   3.600   1.417
 8322TIP3    H224924   2.346   3.592   1.568
 8323TIP3   OH224925   3.046   2.630   2.405
 8323TIP3    H124926   2.965   2.586   2.429
 8323TIP3    H224927   3.085   2.573   2.338
 8324TIP3   OH224928   5.698   2.721   4.336
 8324TIP3    H124929   5.681   2.784   4.405
 8324TIP3    H224930   5.613   2.708   4.294
 8325TIP3   OH224931   0.163   5.989   6.158
 8325TIP3    H124932   0.176   5.899   6.187
 8325TIP3    H224933   0.121   6.033   6.232
 8326TIP3   OH224934   6.515   0.889   0.785
 8326TIP3    H124935   6.502   0.971   0.832
 8326TIP3    H224936   6.434   0.875   0.736
 8327TIP3   OH224937   3.297   2.355   6.536
 8327TIP3    H124938   3.212   2.393   6.559
 8327TIP3    H224939   3.296   2.268   6.576
 8328TIP3   OH224940   7.425   3.512   6.011
 8328TIP3    H124941   7.338   3.539   6.039
 8328TIP3    H224942   7.481   3.588   6.026
 8329TIP3   OH224943   3.410   5.290   2.828
 8329TIP3    H124944   3.443   5.220   2.772
 8329TIP3    H224945   3.489   5.330   2.865
 8330TIP3   OH224946   5.267   7.063   1.894
 8330TIP3    H124947   5.250   7.060   1.800
 8330TIP3    H224948   5.358   7.032   1.903
 8331TIP3   OH224949   5.149   5.249   1.185
 8331TIP3    H124950   5.230   5.198   1.192
 8331TIP3    H224951   5.082   5.184   1.163
 8332TIP3   OH224952   5.227   7.375   5.998
 8332TIP3    H124953   5.302   7.389   6.056
 8332TIP3    H224954   5.186   7.295   6.030
 8333TIP3   OH224955   0.326   4.716   5.801
 8333TIP3    H124956   0.411   4.675   5.785
 8333TIP3    H224957   0.347   4.805   5.829
 8334TIP3   OH224958   0.708   1.302   4.378
 8334TIP3    H124959   0.713   1.376   4.439
 8334TIP3    H224960   0.630   1.254   4.405
 8335TIP3   OH224961   0.539   6.979   0.450
 8335TIP3    H124962   0.469   7.009   0.508
 8335TIP3    H224963   0.554   7.052   0.391
 8336TIP3   OH224964   5.720   1.689   3.489
 8336TIP3    H124965   5.727   1.695   3.584
 8336TIP3    H224966   5.668   1.765   3.464
 8337TIP3   OH224967   7.358   0.087   1.951
 8337TIP3    H124968   7.393   0.013   1.901
 8337TIP3    H224969   7.425   0.155   1.943
 8338TIP3   OH224970   3.862   2.188   6.224
 8338TIP3    H124971   3.846   2.277   6.192
 8338TIP3    H224972   3.948   2.166   6.189
 8339TIP3   OH224973   1.410   2.513   6.426
 8339TIP3    H124974   1.320   2.518   6.393
 8339TIP3    H224975   1.442   2.603   6.424
 8340TIP3   OH224976   0.245   1.689   6.253
 8340TIP3    H124977   0.169   1.632   6.238
 8340TIP3    H224978   0.223   1.771   6.210
 8341TIP3   OH224979   1.603   2.368   1.486
 8341TIP3    H124980   1.660   2.392   1.413
 8341TIP3    H224981   1.584   2.451   1.530
 8342TIP3   OH224982   3.642   2.717   0.048
 8342TIP3    H124983   3.681   2.798   0.081
 8342TIP3    H224984   3.557   2.712   0.093
 8343TIP3   OH224985   6.297   6.836   0.599
 8343TIP3    H124986   6.215   6.874   0.568
 8343TIP3    H224987   6.356   6.843   0.524
 8344TIP3   OH224988   7.280   0.923   6.747
 8344TIP3    H124989   7.262   0.961   6.662
 8344TIP3    H224990   7.360   0.871   6.734
 8345TIP3   OH224991   5.341   3.486   0.655
 8345TIP3    H124992   5.343   3.569   0.607
 8345TIP3    H224993   5.373   3.421   0.592
 8346TIP3   OH224994   1.608   1.541   1.540
 8346TIP3    H124995   1.612   1.630   1.574
 8346TIP3    H224996   1.648   1.547   1.453
 8347TIP3   OH224997   1.188   7.585   0.405
 8347TIP3    H124998   1.264   7.585   0.348
 8347TIP3    H224999   1.164   7.677   0.415
 8348TIP3   OH225000   4.897   0.977   4.795
 8348TIP3    H125001   4.804   0.986   4.818
 8348TIP3    H225002   4.931   1.067   4.800
 8349TIP3   OH225003   7.274   4.113   1.723
 8349TIP3    H125004   7.239   4.127   1.635
 8349TIP3    H225005   7.324   4.031   1.717
 8350TIP3   OH225006   6.545   7.471   0.194
 8350TIP3    H125007   6.504   7.385   0.202
 8350TIP3    H225008   6.611   7.459   0.126
 8351TIP3   OH225009   2.689   0.167   4.547
 8351TIP3    H125010   2.775   0.129   4.562
 8351TIP3    H225011   2.669   0.149   4.455
 8352TIP3   OH225012   7.695   6.908   1.900
 8352TIP3    H125013   7.675   6.996   1.932
 8352TIP3    H225014   7.765   6.922   1.836
 8353TIP3   OH225015   4.148   4.642   3.801
 8353TIP3    H125016   4.166   4.684   3.885
 8353TIP3    H225017   4.053   4.647   3.792
 8354TIP3   OH225018   0.911   1.170   2.047
 8354TIP3    H125019   0.825   1.155   2.008
 8354TIP3    H225020   0.893   1.221   2.126
 8355TIP3   OH225021   0.957   0.790   5.256
 8355TIP3    H125022   0.969   0.852   5.329
 8355TIP3    H225023   1.018   0.820   5.189
 8356TIP3   OH225024   3.970   5.802   2.504
 8356TIP3    H125025   4.044   5.782   2.447
 8356TIP3    H225026   3.997   5.881   2.552
 8357TIP3   OH225027   0.722   7.078   3.335
 8357TIP3    H125028   0.804   7.051   3.375
 8357TIP3    H225029   0.660   7.083   3.408
 8358TIP3   OH225030   4.934   0.973   6.214
 8358TIP3    H125031   4.859   0.985   6.156
 8358TIP3    H225032   4.898   0.978   6.302
 8359TIP3   OH225033   1.454   6.946   2.459
 8359TIP3    H125034   1.482   6.930   2.550
 8359TIP3    H225035   1.368   6.987   2.468
 8360TIP3   OH225036   5.639   4.127   0.048
 8360TIP3    H125037   5.560   4.074   0.057
 8360TIP3    H225038   5.610   4.217   0.063
 8361TIP3   OH225039   5.926   0.081   3.599
 8361TIP3    H125040   6.000   0.123   3.555
 8361TIP3    H225041   5.897   0.013   3.538
 8362TIP3   OH225042   0.481   6.162   5.119
 8362TIP3    H125043   0.424   6.168   5.196
 8362TIP3    H225044   0.441   6.220   5.055
 8363TIP3   OH225045   2.092   2.266   0.262
 8363TIP3    H125046   2.037   2.246   0.186
 8363TIP3    H225047   2.175   2.296   0.224
 8364TIP3   OH225048   7.440   5.143   1.586
 8364TIP3    H125049   7.535   5.146   1.595
 8364TIP3    H225050   7.414   5.059   1.624
 8365TIP3   OH225051   1.201   3.926   5.764
 8365TIP3    H125052   1.238   3.858   5.820
 8365TIP3    H225053   1.252   3.921   5.683
 8366TIP3   OH225054   7.239   6.381   6.189
 8366TIP3    H125055   7.195   6.430   6.259
 8366TIP3    H225056   7.232   6.437   6.112
 8367TIP3   OH225057   6.036   5.663   4.513
 8367TIP3    H125058   6.060   5.668   4.420
 8367TIP3    H225059   6.029   5.755   4.540
 8368TIP3   OH225060   4.307   7.428   6.123
 8368TIP3    H125061   4.321   7.350   6.068
 8368TIP3    H225062   4.377   7.423   6.188
 8369TIP3   OH225063   2.204   1.971   4.189
 8369TIP3    H125064   2.212   2.067   4.181
 8369TIP3    H225065   2.171   1.957   4.278
 8370TIP3   OH225066   8.234   4.819   2.101
 8370TIP3    H125067   8.193   4.852   2.181
 8370TIP3    H225068   8.241   4.724   2.115
 8371TIP3   OH225069   5.070   3.426   4.429
 8371TIP3    H125070   5.123   3.500   4.399
 8371TIP3    H225071   5.130   3.352   4.430
 8372TIP3   OH225072   2.974   3.410   5.866
 8372TIP3    H125073   3.014   3.414   5.953
 8372TIP3    H225074   2.900   3.350   5.877
 8373TIP3   OH225075   3.884   7.793   0.897
 8373TIP3    H125076   3.866   7.705   0.864
 8373TIP3    H225077   3.848   7.852   0.830
 8374TIP3   OH225078   3.538   1.276   3.616
 8374TIP3    H125079   3.516   1.369   3.613
 8374TIP3    H225080   3.621   1.272   3.663
 8375TIP3   OH225081  -0.022   3.974   3.070
 8375TIP3    H125082   0.017   3.937   2.992
 8375TIP3    H225083   0.052   3.997   3.126
 8376TIP3   OH225084   6.408   2.328   6.573
 8376TIP3    H125085   6.361   2.280   6.506
 8376TIP3    H225086   6.347   2.334   6.647
 8377TIP3   OH225087   0.400   5.337   0.881
 8377TIP3    H125088   0.465   5.398   0.845
 8377TIP3    H225089   0.434   5.250   0.859
 8378TIP3   OH225090   6.631   5.115   0.293
 8378TIP3    H125091   6.536   5.104   0.305
 8378TIP3    H225092   6.659   5.165   0.370
 8379TIP3   OH225093   5.183   4.032   3.535
 8379TIP3    H125094   5.265   4.069   3.568
 8379TIP3    H225095   5.125   4.031   3.611
 8380TIP3   OH225096   1.901   0.093   0.318
 8380TIP3    H125097   1.901   0.016   0.261
 8380TIP3    H225098   1.883   0.058   0.406
 8381TIP3   OH225099   6.295   7.599   0.873
 8381TIP3    H125100   6.262   7.668   0.817
 8381TIP3    H225101   6.244   7.522   0.850
 8382TIP3   OH225102   2.437   3.169   5.561
 8382TIP3    H125103   2.438   3.162   5.466
 8382TIP3    H225104   2.524   3.201   5.584
 8383TIP3   OH225105   2.835   6.044   3.731
 8383TIP3    H125106   2.773   6.097   3.781
 8383TIP3    H225107   2.821   5.955   3.761
 8384TIP3   OH225108   4.467   7.161   3.587
 8384TIP3    H125109   4.441   7.188   3.499
 8384TIP3    H225110   4.527   7.088   3.573
 8385TIP3   OH225111   3.018   5.729   4.827
 8385TIP3    H125112   3.021   5.640   4.861
 8385TIP3    H225113   2.931   5.737   4.789
 8386TIP3   OH225114   4.517   0.053   2.096
 8386TIP3    H125115   4.436   0.047   2.046
 8386TIP3    H225116   4.581   0.003   2.044
 8387TIP3   OH225117   4.042   0.194   5.196
 8387TIP3    H125118   4.055   0.211   5.290
 8387TIP3    H225119   4.094   0.115   5.179
 8388TIP3   OH225120   1.787   6.840   2.784
 8388TIP3    H125121   1.828   6.759   2.815
 8388TIP3    H225122   1.816   6.848   2.693
 8389TIP3   OH225123   5.245   4.852   3.188
 8389TIP3    H125124   5.276   4.889   3.270
 8389TIP3    H225125   5.229   4.760   3.208
 8390TIP3   OH225126   6.567   3.513   0.782
 8390TIP3    H125127   6.555   3.460   0.861
 8390TIP3    H225128   6.481   3.512   0.740
 8391TIP3   OH225129   7.485   5.522   2.271
 8391TIP3    H125130   7.416   5.468   2.235
 8391TIP3    H225131   7.552   5.524   2.202
 8392TIP3   OH225132   4.436   2.869   0.492
 8392TIP3    H125133   4.498   2.872   0.565
 8392TIP3    H225134   4.429   2.777   0.470
 8393TIP3   OH225135   6.343   5.046   0.190
 8393TIP3    H125136   6.350   5.027   0.097
 8393TIP3    H225137   6.326   4.961   0.231
 8394TIP3   OH225138   2.314   7.540   6.393
 8394TIP3    H125139   2.337   7.613   6.335
 8394TIP3    H225140   2.387   7.479   6.384
 8395TIP3   OH225141   5.765   3.738   3.493
 8395TIP3    H125142   5.785   3.651   3.528
 8395TIP3    H225143   5.710   3.779   3.559
 8396TIP3   OH225144   4.805   5.936   0.307
 8396TIP3    H125145   4.754   6.008   0.345
 8396TIP3    H225146   4.876   5.980   0.260
 8397TIP3   OH225147   1.109   7.498   0.696
 8397TIP3    H125148   1.179   7.557   0.724
 8397TIP3    H225149   1.123   7.486   0.602
 8398TIP3   OH225150   3.364   5.920   2.917
 8398TIP3    H125151   3.336   5.878   2.998
 8398TIP3    H225152   3.297   5.986   2.898
 8399TIP3   OH225153   5.421   2.985   1.821
 8399TIP3    H125154   5.508   2.980   1.781
 8399TIP3    H225155   5.392   2.893   1.827
 8400TIP3   OH225156   5.831   6.662   5.796
 8400TIP3    H125157   5.927   6.666   5.797
 8400TIP3    H225158   5.803   6.742   5.840
 8401TIP3   OH225159   7.103   7.354   5.525
 8401TIP3    H125160   7.028   7.307   5.488
 8401TIP3    H225161   7.141   7.292   5.588
 8402TIP3   OH225162   2.910   1.858   3.201
 8402TIP3    H125163   2.859   1.932   3.168
 8402TIP3    H225164   2.901   1.863   3.296
 8403TIP3   OH225165   2.464   1.580   2.402
 8403TIP3    H125166   2.464   1.508   2.339
 8403TIP3    H225167   2.373   1.606   2.408
 8404TIP3   OH225168   7.062   2.197   6.096
 8404TIP3    H125169   7.155   2.201   6.073
 8404TIP3    H225170   7.019   2.169   6.015
 8405TIP3   OH225171   6.377   2.932   4.660
 8405TIP3    H125172   6.317   2.858   4.651
 8405TIP3    H225173   6.457   2.894   4.695
 8406TIP3   OH225174   2.745   7.139   2.123
 8406TIP3    H125175   2.765   7.117   2.215
 8406TIP3    H225176   2.731   7.233   2.123
 8407TIP3   OH225177   0.897   4.321   6.072
 8407TIP3    H125178   0.960   4.381   6.111
 8407TIP3    H225179   0.944   4.237   6.067
 8408TIP3   OH225180   0.449   0.932   4.987
 8408TIP3    H125181   0.466   0.981   5.067
 8408TIP3    H225182   0.492   0.848   5.000
 8409TIP3   OH225183   3.110   1.356   3.039
 8409TIP3    H125184   3.025   1.398   3.029
 8409TIP3    H225185   3.151   1.403   3.112
 8410TIP3   OH225186   1.605   5.837   2.592
 8410TIP3    H125187   1.556   5.917   2.609
 8410TIP3    H225188   1.545   5.782   2.542
 8411TIP3   OH225189   0.629   3.700   3.069
 8411TIP3    H125190   0.562   3.767   3.054
 8411TIP3    H225191   0.582   3.617   3.066
 8412TIP3   OH225192   0.464   4.054   1.091
 8412TIP3    H125193   0.454   4.140   1.050
 8412TIP3    H225194   0.473   3.993   1.018
 8413TIP3   OH225195   0.796   7.474   2.297
 8413TIP3    H125196   0.846   7.464   2.216
 8413TIP3    H225197   0.815   7.394   2.347
 8414TIP3   OH225198   6.736   1.719   5.516
 8414TIP3    H125199   6.665   1.756   5.569
 8414TIP3    H225200   6.774   1.794   5.471
 8415TIP3   OH225201   3.174   5.166   5.141
 8415TIP3    H125202   3.220   5.244   5.109
 8415TIP3    H225203   3.214   5.093   5.095
 8416TIP3   OH225204   0.082   5.482   1.834
 8416TIP3    H125205   0.005   5.461   1.781
 8416TIP3    H225206   0.111   5.398   1.868
 8417TIP3   OH225207   5.453   7.400   3.053
 8417TIP3    H125208   5.381   7.457   3.079
 8417TIP3    H225209   5.500   7.449   2.986
 8418TIP3   OH225210   8.150   0.467   0.162
 8418TIP3    H125211   8.147   0.547   0.213
 8418TIP3    H225212   8.098   0.486   0.084
 8419TIP3   OH225213   2.157   4.399   2.108
 8419TIP3    H125214   2.208   4.480   2.096
 8419TIP3    H225215   2.218   4.329   2.089
 8420TIP3   OH225216   8.056   0.587   1.504
 8420TIP3    H125217   8.135   0.534   1.511
 8420TIP3    H225218   8.086   0.670   1.467
 8421TIP3   OH225219   3.432   0.016   3.110
 8421TIP3    H125220   3.477   0.052   3.186
 8421TIP3    H225221   3.339   0.031   3.128
 8422TIP3   OH225222   5.789   4.064   4.040
 8422TIP3    H125223   5.846   4.066   4.117
 8422TIP3    H225224   5.714   4.117   4.064
 8423TIP3   OH225225   3.282   1.535   4.569
 8423TIP3    H125226   3.254   1.526   4.478
 8423TIP3    H225227   3.224   1.602   4.605
 8424TIP3   OH225228  -0.030   7.740   4.061
 8424TIP3    H125229  -0.061   7.654   4.034
 8424TIP3    H225230   0.059   7.747   4.027
 8425TIP3   OH225231   1.979   4.985   1.279
 8425TIP3    H125232   2.027   4.919   1.228
 8425TIP3    H225233   1.887   4.957   1.273
 8426TIP3   OH225234   0.483   7.337   2.902
 8426TIP3    H125235   0.574   7.308   2.904
 8426TIP3    H225236   0.488   7.433   2.901
 8427TIP3   OH225237   5.361   6.014   2.481
 8427TIP3    H125238   5.377   6.108   2.484
 8427TIP3    H225239   5.408   5.979   2.557
 8428TIP3   OH225240   4.715   4.039   5.806
 8428TIP3    H125241   4.647   3.976   5.781
 8428TIP3    H225242   4.709   4.045   5.901
 8429TIP3   OH225243   5.076   6.946   1.301
 8429TIP3    H125244   4.987   6.974   1.278
 8429TIP3    H225245   5.066   6.899   1.383
 8430TIP3   OH225246   7.749   5.839   3.541
 8430TIP3    H125247   7.791   5.877   3.464
 8430TIP3    H225248   7.816   5.845   3.610
 8431TIP3   OH225249  -0.057   3.874   5.612
 8431TIP3    H125250  -0.003   3.808   5.568
 8431TIP3    H225251   0.005   3.924   5.666
 8432TIP3   OH225252   2.321   0.118   6.504
 8432TIP3    H125253   2.294   0.210   6.502
 8432TIP3    H225254   2.353   0.104   6.593
 8433TIP3   OH225255   4.870   5.806   2.946
 8433TIP3    H125256   4.777   5.810   2.925
 8433TIP3    H225257   4.883   5.873   3.013
 8434TIP3   OH225258   8.076   7.542   3.989
 8434TIP3    H125259   8.068   7.606   3.919
 8434TIP3    H225260   8.038   7.462   3.953
 8435TIP3   OH225261   6.090   3.426   1.826
 8435TIP3    H125262   6.094   3.505   1.879
 8435TIP3    H225263   6.037   3.365   1.877
 8436TIP3   OH225264   5.563   2.779   4.869
 8436TIP3    H125265   5.612   2.855   4.838
 8436TIP3    H225266   5.506   2.756   4.795
 8437TIP3   OH225267   6.490   7.071   2.310
 8437TIP3    H125268   6.500   7.159   2.272
 8437TIP3    H225269   6.471   7.015   2.235
 8438TIP3   OH225270   4.919   0.029   5.588
 8438TIP3    H125271   4.840   0.036   5.641
 8438TIP3    H225272   4.990   0.056   5.647
 8439TIP3   OH225273   1.724   2.829   4.187
 8439TIP3    H125274   1.731   2.882   4.108
 8439TIP3    H225275   1.711   2.893   4.257
 8440TIP3   OH225276   5.392   5.871   6.353
 8440TIP3    H125277   5.341   5.850   6.275
 8440TIP3    H225278   5.385   5.794   6.409
 8441TIP3   OH225279   0.529   3.493   1.845
 8441TIP3    H125280   0.527   3.398   1.852
 8441TIP3    H225281   0.461   3.524   1.905
 8442TIP3   OH225282   0.478   6.828   1.263
 8442TIP3    H125283   0.486   6.916   1.299
 8442TIP3    H225284   0.393   6.797   1.295
 8443TIP3   OH225285   4.631   0.217   0.462
 8443TIP3    H125286   4.693   0.279   0.422
 8443TIP3    H225287   4.599   0.164   0.389
 8444TIP3   OH225288   1.979   0.383   1.575
 8444TIP3    H125289   1.917   0.310   1.567
 8444TIP3    H225290   1.931   0.459   1.542
 8445TIP3   OH225291   2.195   5.395   5.807
 8445TIP3    H125292   2.184   5.303   5.784
 8445TIP3    H225293   2.235   5.394   5.894
 8446TIP3   OH225294   5.210   4.689   4.868
 8446TIP3    H125295   5.239   4.633   4.940
 8446TIP3    H225296   5.172   4.766   4.911
 8447TIP3   OH225297   2.677   1.502   4.295
 8447TIP3    H125298   2.724   1.456   4.225
 8447TIP3    H225299   2.745   1.547   4.344
 8448TIP3   OH225300   3.631   7.464   1.079
 8448TIP3    H125301   3.554   7.436   1.031
 8448TIP3    H225302   3.701   7.463   1.014
 8449TIP3   OH225303   0.265   3.247   1.790
 8449TIP3    H125304   0.211   3.180   1.747
 8449TIP3    H225305   0.275   3.316   1.725
 8450TIP3   OH225306   6.672   5.918   4.002
 8450TIP3    H125307   6.650   5.986   4.066
 8450TIP3    H225308   6.647   5.955   3.918
 8451TIP3   OH225309   4.655   7.354   6.096
 8451TIP3    H125310   4.644   7.277   6.151
 8451TIP3    H225311   4.737   7.339   6.048
 8452TIP3   OH225312   1.140   3.127   3.248
 8452TIP3    H125313   1.195   3.201   3.223
 8452TIP3    H225314   1.139   3.129   3.343
 8453TIP3   OH225315   8.278   5.927   4.547
 8453TIP3    H125316   8.296   5.980   4.625
 8453TIP3    H225317   8.196   5.962   4.513
 8454TIP3   OH225318   3.561   4.315   2.453
 8454TIP3    H125319   3.601   4.386   2.403
 8454TIP3    H225320   3.468   4.335   2.454
 8455TIP3   OH225321   1.502   2.663   1.475
 8455TIP3    H125322   1.553   2.733   1.514
 8455TIP3    H225323   1.472   2.699   1.391
 8456TIP3   OH225324   0.188   3.448   1.582
 8456TIP3    H125325   0.117   3.471   1.522
 8456TIP3    H225326   0.190   3.520   1.645
 8457TIP3   OH225327   8.092   3.689   2.886
 8457TIP3    H125328   8.130   3.763   2.933
 8457TIP3    H225329   8.148   3.677   2.809
 8458TIP3   OH225330   7.144   1.877   1.024
 8458TIP3    H125331   7.237   1.858   1.014
 8458TIP3    H225332   7.100   1.811   0.971
 8459TIP3   OH225333   3.923   1.081   0.483
 8459TIP3    H125334   4.002   1.030   0.462
 8459TIP3    H225335   3.900   1.053   0.572
 8460TIP3   OH225336   6.330   0.513   2.749
 8460TIP3    H125337   6.237   0.491   2.745
 8460TIP3    H225338   6.342   0.580   2.682
 8461TIP3   OH225339   4.788   0.695   6.111
 8461TIP3    H125340   4.702   0.657   6.098
 8461TIP3    H225341   4.776   0.789   6.093
 8462TIP3   OH225342   3.297   1.863   0.611
 8462TIP3    H125343   3.327   1.844   0.699
 8462TIP3    H225344   3.342   1.799   0.556
 8463TIP3   OH225345   2.547   6.160   3.292
 8463TIP3    H125346   2.605   6.172   3.367
 8463TIP3    H225347   2.459   6.175   3.326
 8464TIP3   OH225348   8.248   0.859   4.933
 8464TIP3    H125349   8.278   0.804   5.006
 8464TIP3    H225350   8.165   0.820   4.905
 8465TIP3   OH225351   3.640   6.332   6.567
 8465TIP3    H125352   3.713   6.279   6.599
 8465TIP3    H225353   3.681   6.412   6.532
 8466TIP3   OH225354   7.114   2.235   5.422
 8466TIP3    H125355   7.197   2.187   5.425
 8466TIP3    H225356   7.140   2.327   5.426
 8467TIP3   OH225357   6.125   7.087   3.980
 8467TIP3    H125358   6.181   7.165   3.979
 8467TIP3    H225359   6.080   7.091   4.064
 8468TIP3   OH225360   5.816   5.600   1.314
 8468TIP3    H125361   5.819   5.694   1.297
 8468TIP3    H225362   5.908   5.575   1.328
 8469TIP3   OH225363   2.046   2.529   1.072
 8469TIP3    H125364   2.125   2.556   1.118
 8469TIP3    H225365   2.074   2.455   1.018
 8470TIP3   OH225366   3.810   1.227   5.088
 8470TIP3    H125367   3.773   1.141   5.065
 8470TIP3    H225368   3.818   1.273   5.004
 8471TIP3   OH225369   4.074   5.717   6.724
 8471TIP3    H125370   4.046   5.755   6.807
 8471TIP3    H225371   4.025   5.765   6.657
 8472TIP3   OH225372   1.006   6.751   1.394
 8472TIP3    H125373   0.911   6.760   1.396
 8472TIP3    H225374   1.029   6.744   1.302
 8473TIP3   OH225375   3.246   0.675   6.756
 8473TIP3    H125376   3.309   0.647   6.689
 8473TIP3    H225377   3.205   0.754   6.720
 8474TIP3   OH225378   4.459   2.336   5.669
 8474TIP3    H125379   4.548   2.361   5.643
 8474TIP3    H225380   4.403   2.404   5.633
 8475TIP3   OH225381   1.082   4.482   1.466
 8475TIP3    H125382   1.137   4.474   1.545
 8475TIP3    H225383   1.025   4.556   1.484
 8476TIP3   OH225384   7.596   3.077   2.551
 8476TIP3    H125385   7.688   3.101   2.561
 8476TIP3    H225386   7.575   3.100   2.461
 8477TIP3   OH225387   5.995   5.387   0.866
 8477TIP3    H125388   6.069   5.414   0.811
 8477TIP3    H225389   5.926   5.450   0.845
 8478TIP3   OH225390   4.336   7.213   1.111
 8478TIP3    H125391   4.380   7.150   1.169
 8478TIP3    H225392   4.376   7.198   1.025
 8479TIP3   OH225393   6.436   5.237   5.612
 8479TIP3    H125394   6.388   5.318   5.632
 8479TIP3    H225395   6.523   5.251   5.651
 8480TIP3   OH225396   1.650   0.834   3.477
 8480TIP3    H125397   1.647   0.813   3.383
 8480TIP3    H225398   1.737   0.871   3.490
 8481TIP3   OH225399   5.214   3.981   0.529
 8481TIP3    H125400   5.162   3.905   0.556
 8481TIP3    H225401   5.225   3.969   0.435
 8482TIP3   OH225402   1.136   4.788   3.145
 8482TIP3    H125403   1.080   4.711   3.139
 8482TIP3    H225404   1.156   4.811   3.054
 8483TIP3   OH225405   0.784   7.111   5.713
 8483TIP3    H125406   0.828   7.154   5.787
 8483TIP3    H225407   0.719   7.176   5.684
 8484TIP3   OH225408   7.261   1.762   4.913
 8484TIP3    H125409   7.266   1.794   4.823
 8484TIP3    H225410   7.342   1.792   4.954
 8485TIP3   OH225411   7.733   6.570   3.975
 8485TIP3    H125412   7.702   6.567   4.066
 8485TIP3    H225413   7.704   6.487   3.938
 8486TIP3   OH225414   6.684   2.919   4.471
 8486TIP3    H125415   6.639   2.885   4.548
 8486TIP3    H225416   6.692   2.843   4.413
 8487TIP3   OH225417   2.160   5.525   3.564
 8487TIP3    H125418   2.122   5.444   3.597
 8487TIP3    H225419   2.167   5.511   3.469
 8488TIP3   OH225420   6.919   0.970   3.933
 8488TIP3    H125421   6.884   0.926   3.856
 8488TIP3    H225422   6.842   0.995   3.984
 8489TIP3   OH225423   0.745   6.019   1.777
 8489TIP3    H125424   0.821   6.061   1.737
 8489TIP3    H225425   0.732   6.066   1.859
 8490TIP3   OH225426   0.423   6.349   4.923
 8490TIP3    H125427   0.385   6.436   4.910
 8490TIP3    H225428   0.439   6.316   4.835
 8491TIP3   OH225429   1.841   5.213   6.096
 8491TIP3    H125430   1.814   5.205   6.005
 8491TIP3    H225431   1.902   5.286   6.097
 8492TIP3   OH225432   1.214   0.254   3.915
 8492TIP3    H125433   1.275   0.269   3.987
 8492TIP3    H225434   1.140   0.208   3.956
 8493TIP3   OH225435   5.175   7.471   1.106
 8493TIP3    H125436   5.163   7.484   1.200
 8493TIP3    H225437   5.250   7.525   1.083
 8494TIP3   OH225438   8.090   7.132   5.055
 8494TIP3    H125439   8.185   7.124   5.050
 8494TIP3    H225440   8.057   7.042   5.058
 8495TIP3   OH225441   7.174   0.423   3.009
 8495TIP3    H125442   7.257   0.441   2.966
 8495TIP3    H225443   7.181   0.466   3.094
 8496TIP3   OH225444   6.496   5.715   2.798
 8496TIP3    H125445   6.576   5.669   2.825
 8496TIP3    H225446   6.518   5.750   2.711
 8497TIP3   OH225447   0.976   7.591   3.647
 8497TIP3    H125448   0.885   7.575   3.675
 8497TIP3    H225449   0.978   7.565   3.555
 8498TIP3   OH225450   7.316   5.412   4.692
 8498TIP3    H125451   7.251   5.397   4.760
 8498TIP3    H225452   7.400   5.411   4.738
 8499TIP3   OH225453   5.256   6.100   1.909
 8499TIP3    H125454   5.234   6.009   1.931
 8499TIP3    H225455   5.175   6.148   1.926
 8500TIP3   OH225456   0.317   5.898   2.513
 8500TIP3    H125457   0.362   5.862   2.437
 8500TIP3    H225458   0.265   5.825   2.547
 8501TIP3   OH225459   3.996   2.006   0.301
 8501TIP3    H125460   3.907   1.991   0.269
 8501TIP3    H225461   4.006   2.101   0.301
 8502TIP3   OH225462   2.292   7.154   1.750
 8502TIP3    H125463   2.318   7.242   1.724
 8502TIP3    H225464   2.267   7.111   1.668
 8503TIP3   OH225465   3.717   5.924   4.807
 8503TIP3    H125466   3.628   5.889   4.803
 8503TIP3    H225467   3.764   5.879   4.737
 8504TIP3   OH225468   1.131   6.945   5.387
 8504TIP3    H125469   1.156   6.953   5.295
 8504TIP3    H225470   1.071   7.018   5.402
 8505TIP3   OH225471   1.526   4.505   6.557
 8505TIP3    H125472   1.551   4.518   6.465
 8505TIP3    H225473   1.531   4.411   6.571
 8506TIP3   OH225474   7.279   1.334   0.893
 8506TIP3    H125475   7.197   1.305   0.932
 8506TIP3    H225476   7.258   1.350   0.801
 8507TIP3   OH225477   2.679   0.118   3.430
 8507TIP3    H125478   2.699   0.205   3.396
 8507TIP3    H225479   2.757   0.066   3.410
 8508TIP3   OH225480   7.096   1.732   6.502
 8508TIP3    H125481   7.018   1.679   6.518
 8508TIP3    H225482   7.169   1.671   6.509
 8509TIP3   OH225483   6.113   5.285   1.426
 8509TIP3    H125484   6.083   5.343   1.356
 8509TIP3    H225485   6.143   5.344   1.495
 8510TIP3   OH225486   2.075   5.607   0.552
 8510TIP3    H125487   2.020   5.677   0.518
 8510TIP3    H225488   2.129   5.649   0.619
 8511TIP3   OH225489   5.714   5.761   2.563
 8511TIP3    H125490   5.714   5.699   2.636
 8511TIP3    H225491   5.691   5.708   2.486
 8512TIP3   OH225492   7.235   4.001   5.457
 8512TIP3    H125493   7.290   3.924   5.444
 8512TIP3    H225494   7.284   4.073   5.417
 8513TIP3   OH225495   1.445   6.999   3.239
 8513TIP3    H125496   1.377   6.987   3.305
 8513TIP3    H225497   1.443   6.919   3.188
 8514TIP3   OH225498   5.695   2.520   1.775
 8514TIP3    H125499   5.688   2.498   1.868
 8514TIP3    H225500   5.756   2.456   1.740
 8515TIP3   OH225501   7.904   3.190   0.234
 8515TIP3    H125502   7.918   3.278   0.198
 8515TIP3    H225503   7.836   3.153   0.178
 8516TIP3   OH225504   1.066   1.011   1.193
 8516TIP3    H125505   0.986   1.059   1.171
 8516TIP3    H225506   1.120   1.074   1.240
 8517TIP3   OH225507   1.914   2.648   5.949
 8517TIP3    H125508   1.866   2.708   6.006
 8517TIP3    H225509   1.862   2.643   5.869
 8518TIP3   OH225510   4.752   6.206   6.411
 8518TIP3    H125511   4.669   6.219   6.364
 8518TIP3    H225512   4.759   6.111   6.420
 8519TIP3   OH225513   5.122   1.624   6.385
 8519TIP3    H125514   5.192   1.659   6.330
 8519TIP3    H225515   5.108   1.535   6.353
 8520TIP3   OH225516   4.413   7.713   2.291
 8520TIP3    H125517   4.342   7.680   2.345
 8520TIP3    H225518   4.441   7.794   2.335
 8521TIP3   OH225519   6.282   1.901   5.001
 8521TIP3    H125520   6.252   1.915   4.911
 8521TIP3    H225521   6.203   1.872   5.047
 8522TIP3   OH225522   2.182   7.140   4.396
 8522TIP3    H125523   2.187   7.236   4.398
 8522TIP3    H225524   2.265   7.113   4.356
 8523TIP3   OH225525   2.792   1.701   0.698
 8523TIP3    H125526   2.873   1.746   0.672
 8523TIP3    H225527   2.797   1.616   0.654
 8524TIP3   OH225528   3.277   0.728   2.089
 8524TIP3    H125529   3.203   0.710   2.147
 8524TIP3    H225530   3.277   0.823   2.079
 8525TIP3   OH225531   5.008   5.441   4.888
 8525TIP3    H125532   5.090   5.485   4.908
 8525TIP3    H225533   4.982   5.475   4.802
 8526TIP3   OH225534   6.543   3.189   2.891
 8526TIP3    H125535   6.511   3.126   2.826
 8526TIP3    H225536   6.552   3.271   2.843
 8527TIP3   OH225537   6.476   5.446   4.607
 8527TIP3    H125538   6.528   5.369   4.632
 8527TIP3    H225539   6.393   5.434   4.653
 8528TIP3   OH225540   7.287   3.644   6.624
 8528TIP3    H125541   7.225   3.580   6.659
 8528TIP3    H225542   7.315   3.694   6.700
 8529TIP3   OH225543   2.444   4.869   6.150
 8529TIP3    H125544   2.511   4.826   6.097
 8529TIP3    H225545   2.444   4.960   6.119
 8530TIP3   OH225546   3.136   7.676   1.691
 8530TIP3    H125547   3.086   7.666   1.610
 8530TIP3    H225548   3.225   7.698   1.662
 8531TIP3   OH225549   3.637   6.390   1.134
 8531TIP3    H125550   3.678   6.377   1.220
 8531TIP3    H225551   3.588   6.309   1.119
 8532TIP3   OH225552   7.579   4.381   2.299
 8532TIP3    H125553   7.533   4.460   2.329
 8532TIP3    H225554   7.511   4.329   2.257
 8533TIP3   OH225555   8.298   3.678   1.892
 8533TIP3    H125556   8.339   3.680   1.979
 8533TIP3    H225557   8.307   3.767   1.859
 8534TIP3   OH225558   5.326   2.843   4.587
 8534TIP3    H125559   5.312   2.828   4.681
 8534TIP3    H225560   5.249   2.892   4.559
 8535TIP3   OH225561   0.926   5.113   5.686
 8535TIP3    H125562   1.014   5.091   5.655
 8535TIP3    H225563   0.940   5.155   5.771
 8536TIP3   OH225564   6.156   7.350   4.650
 8536TIP3    H125565   6.157   7.295   4.729
 8536TIP3    H225566   6.249   7.362   4.629
 8537TIP3   OH225567   5.788   4.135   4.681
 8537TIP3    H125568   5.841   4.212   4.702
 8537TIP3    H225569   5.827   4.064   4.732
 8538TIP3   OH225570   1.706   3.549   4.053
 8538TIP3    H125571   1.666   3.471   4.014
 8538TIP3    H225572   1.681   3.621   3.995
 8539TIP3   OH225573   2.807   2.497   2.462
 8539TIP3    H125574   2.776   2.408   2.444
 8539TIP3    H225575   2.770   2.518   2.547
 8540TIP3   OH225576   1.892   2.322   5.598
 8540TIP3    H125577   1.923   2.372   5.522
 8540TIP3    H225578   1.861   2.239   5.561
 8541TIP3   OH225579   5.704   3.076   0.960
 8541TIP3    H125580   5.725   2.983   0.955
 8541TIP3    H225581   5.629   3.087   0.901
 8542TIP3   OH225582   7.613   6.709   2.100
 8542TIP3    H125583   7.573   6.765   2.166
 8542TIP3    H225584   7.646   6.769   2.034
 8543TIP3   OH225585   6.889   4.461   6.793
 8543TIP3    H125586   6.837   4.396   6.745
 8543TIP3    H225587   6.831   4.536   6.804
 8544TIP3   OH225588   8.116   2.629   4.676
 8544TIP3    H125589   8.153   2.581   4.602
 8544TIP3    H225590   8.026   2.647   4.651
 8545TIP3   OH225591   3.786   3.493   3.054
 8545TIP3    H125592   3.759   3.403   3.033
 8545TIP3    H225593   3.817   3.528   2.971
 8546TIP3   OH225594   8.076   1.722   4.025
 8546TIP3    H125595   8.119   1.760   4.101
 8546TIP3    H225596   8.139   1.657   3.992
 8547TIP3   OH225597   3.377   4.425   4.122
 8547TIP3    H125598   3.321   4.442   4.046
 8547TIP3    H225599   3.427   4.347   4.098
 8548TIP3   OH225600   0.740   3.129   2.399
 8548TIP3    H125601   0.806   3.174   2.451
 8548TIP3    H225602   0.689   3.078   2.462
 8549TIP3   OH225603   2.008   2.472   3.740
 8549TIP3    H125604   2.068   2.517   3.799
 8549TIP3    H225605   1.955   2.542   3.701
 8550TIP3   OH225606   5.631   3.823   4.635
 8550TIP3    H125607   5.652   3.734   4.610
 8550TIP3    H225608   5.668   3.878   4.566
 8551TIP3   OH225609   4.025   2.468   5.477
 8551TIP3    H125610   4.021   2.373   5.480
 8551TIP3    H225611   4.026   2.489   5.383
 8552TIP3   OH225612   3.997   3.396   3.849
 8552TIP3    H125613   3.977   3.380   3.941
 8552TIP3    H225614   3.974   3.488   3.836
 8553TIP3   OH225615   2.994   6.268   5.459
 8553TIP3    H125616   3.017   6.254   5.550
 8553TIP3    H225617   3.049   6.342   5.431
 8554TIP3   OH225618   7.244   2.147   0.501
 8554TIP3    H125619   7.317   2.144   0.563
 8554TIP3    H225620   7.285   2.169   0.417
 8555TIP3   OH225621   3.120   0.677   4.959
 8555TIP3    H125622   3.057   0.619   4.918
 8555TIP3    H225623   3.181   0.619   5.005
 8556TIP3   OH225624   1.818   2.360   1.701
 8556TIP3    H125625   1.819   2.456   1.698
 8556TIP3    H225626   1.744   2.335   1.646
 8557TIP3   OH225627   1.606   6.616   5.444
 8557TIP3    H125628   1.590   6.576   5.359
 8557TIP3    H225629   1.699   6.599   5.461
 8558TIP3   OH225630   5.129   4.259   5.463
 8558TIP3    H125631   5.177   4.178   5.446
 8558TIP3    H225632   5.123   4.264   5.558
 8559TIP3   OH225633   0.164  -0.010   4.023
 8559TIP3    H125634   0.253  -0.033   3.995
 8559TIP3    H225635   0.157   0.084   4.005
 8560TIP3   OH225636   0.899   3.230   2.971
 8560TIP3    H125637   0.961   3.169   2.930
 8560TIP3    H225638   0.835   3.173   3.015
 8561TIP3   OH225639   4.794   5.910   1.398
 8561TIP3    H125640   4.822   5.818   1.400
 8561TIP3    H225641   4.731   5.914   1.325
 8562TIP3   OH225642   7.239   3.987   4.081
 8562TIP3    H125643   7.215   4.053   4.015
 8562TIP3    H225644   7.155   3.958   4.117
 8563TIP3   OH225645   7.358   0.878   5.268
 8563TIP3    H125646   7.306   0.958   5.262
 8563TIP3    H225647   7.292   0.808   5.277
 8564TIP3   OH225648   0.216   7.193   1.747
 8564TIP3    H125649   0.122   7.205   1.761
 8564TIP3    H225650   0.243   7.134   1.817
 8565TIP3   OH225651   6.794   6.585   0.806
 8565TIP3    H125652   6.727   6.606   0.872
 8565TIP3    H225653   6.774   6.496   0.780
 8566TIP3   OH225654   0.874   5.188   5.433
 8566TIP3    H125655   0.808   5.137   5.387
 8566TIP3    H225656   0.881   5.147   5.519
 8567TIP3   OH225657   4.916   3.691   3.385
 8567TIP3    H125658   4.848   3.627   3.406
 8567TIP3    H225659   4.964   3.702   3.467
 8568TIP3   OH225660   4.481   3.698   0.708
 8568TIP3    H125661   4.463   3.667   0.620
 8568TIP3    H225662   4.545   3.769   0.696
 8569TIP3   OH225663   0.965   6.095   6.121
 8569TIP3    H125664   1.015   6.154   6.178
 8569TIP3    H225665   0.897   6.058   6.177
 8570TIP3   OH225666   1.841   5.407   2.652
 8570TIP3    H125667   1.751   5.431   2.677
 8570TIP3    H225668   1.831   5.364   2.567
 8571TIP3   OH225669   5.378   5.018   2.757
 8571TIP3    H125670   5.348   4.929   2.737
 8571TIP3    H225671   5.331   5.042   2.837
 8572TIP3   OH225672   3.232   1.041   6.409
 8572TIP3    H125673   3.258   1.124   6.449
 8572TIP3    H225674   3.271   1.044   6.321
 8573TIP3   OH225675   4.174   6.990   6.123
 8573TIP3    H125676   4.187   6.902   6.088
 8573TIP3    H225677   4.253   7.038   6.100
 8574TIP3   OH225678   7.497   6.087   3.783
 8574TIP3    H125679   7.569   6.026   3.764
 8574TIP3    H225680   7.434   6.035   3.833
 8575TIP3   OH225681   3.530   1.873   5.033
 8575TIP3    H125682   3.451   1.848   5.080
 8575TIP3    H225683   3.503   1.950   4.982
 8576TIP3   OH225684   1.698   3.099   3.700
 8576TIP3    H125685   1.737   3.042   3.766
 8576TIP3    H225686   1.734   3.185   3.719
 8577TIP3   OH225687   4.391   1.583   2.247
 8577TIP3    H125688   4.454   1.564   2.317
 8577TIP3    H225689   4.437   1.643   2.189
 8578TIP3   OH225690   3.257   2.425   2.912
 8578TIP3    H125691   3.267   2.477   2.992
 8578TIP3    H225692   3.283   2.484   2.841
 8579TIP3   OH225693   5.880   1.393   6.005
 8579TIP3    H125694   5.931   1.316   6.029
 8579TIP3    H225695   5.819   1.405   6.078
 8580TIP3   OH225696   0.493   6.798   5.977
 8580TIP3    H125697   0.417   6.845   5.942
 8580TIP3    H225698   0.562   6.814   5.912
 8581TIP3   OH225699   7.661   5.236   1.120
 8581TIP3    H125700   7.583   5.240   1.064
 8581TIP3    H225701   7.728   5.196   1.064
 8582TIP3   OH225702   0.729   3.975   3.167
 8582TIP3    H125703   0.661   3.947   3.105
 8582TIP3    H225704   0.719   4.071   3.171
 8583TIP3   OH225705   0.747   3.527   4.610
 8583TIP3    H125706   0.681   3.544   4.678
 8583TIP3    H225707   0.707   3.558   4.529
 8584TIP3   OH225708   1.099   3.664   5.941
 8584TIP3    H125709   1.158   3.621   5.879
 8584TIP3    H225710   1.157   3.715   5.998
 8585TIP3   OH225711   1.823   5.501   0.673
 8585TIP3    H125712   1.882   5.499   0.598
 8585TIP3    H225713   1.865   5.560   0.735
 8586TIP3   OH225714   6.140   3.837   3.970
 8586TIP3    H125715   6.083   3.820   4.045
 8586TIP3    H225716   6.084   3.881   3.906
 8587TIP3   OH225717   1.571   1.867   0.211
 8587TIP3    H125718   1.615   1.785   0.191
 8587TIP3    H225719   1.563   1.868   0.307
 8588TIP3   OH225720   4.824   3.977   0.457
 8588TIP3    H125721   4.826   4.025   0.375
 8588TIP3    H225722   4.731   3.974   0.481
 8589TIP3   OH225723   7.732   1.972   0.225
 8589TIP3    H125724   7.823   1.942   0.231
 8589TIP3    H225725   7.697   1.957   0.313
 8590TIP3   OH225726   0.757   0.696   2.855
 8590TIP3    H125727   0.845   0.734   2.849
 8590TIP3    H225728   0.762   0.615   2.805
 8591TIP3   OH225729   1.018   0.765   3.452
 8591TIP3    H125730   1.092   0.704   3.455
 8591TIP3    H225731   1.054   0.849   3.480
 8592TIP3   OH225732   5.057   2.059   6.374
 8592TIP3    H125733   5.084   2.139   6.327
 8592TIP3    H225734   4.966   2.047   6.348
 8593TIP3   OH225735   2.812   5.293   1.033
 8593TIP3    H125736   2.764   5.341   1.100
 8593TIP3    H225737   2.896   5.340   1.026
 8594TIP3   OH225738   5.044   3.663   3.940
 8594TIP3    H125739   5.047   3.569   3.960
 8594TIP3    H225740   5.127   3.697   3.974
 8595TIP3   OH225741   7.419   6.894   4.642
 8595TIP3    H125742   7.413   6.938   4.557
 8595TIP3    H225743   7.513   6.879   4.655
 8596TIP3   OH225744   7.475   3.618   1.454
 8596TIP3    H125745   7.492   3.551   1.519
 8596TIP3    H225746   7.437   3.571   1.380
 8597TIP3   OH225747   4.583   5.249   3.190
 8597TIP3    H125748   4.606   5.211   3.105
 8597TIP3    H225749   4.499   5.209   3.212
 8598TIP3   OH225750   0.981   7.206   0.719
 8598TIP3    H125751   0.920   7.223   0.647
 8598TIP3    H225752   1.009   7.294   0.747
 8599TIP3   OH225753   2.174   3.109   1.375
 8599TIP3    H125754   2.189   3.021   1.408
 8599TIP3    H225755   2.207   3.106   1.285
 8600TIP3   OH225756   3.106   0.899   6.662
 8600TIP3    H125757   3.034   0.884   6.601
 8600TIP3    H225758   3.166   0.957   6.614
 8601TIP3   OH225759   5.817   5.805   1.750
 8601TIP3    H125760   5.727   5.813   1.784
 8601TIP3    H225761   5.818   5.860   1.671
 8602TIP3   OH225762   6.507   0.634   1.794
 8602TIP3    H125763   6.565   0.561   1.772
 8602TIP3    H225764   6.509   0.690   1.716
 8603TIP3   OH225765   7.355   4.911   0.083
 8603TIP3    H125766   7.282   4.873   0.133
 8603TIP3    H225767   7.433   4.871   0.121
 8604TIP3   OH225768   3.993   2.552   0.931
 8604TIP3    H125769   4.081   2.513   0.932
 8604TIP3    H225770   4.001   2.628   0.874
 8605TIP3   OH225771   1.856   0.531   0.508
 8605TIP3    H125772   1.931   0.591   0.506
 8605TIP3    H225773   1.798   0.567   0.574
 8606TIP3   OH225774   3.490   4.872   0.917
 8606TIP3    H125775   3.515   4.961   0.893
 8606TIP3    H225776   3.557   4.844   0.979
 8607TIP3   OH225777   3.755   3.889   4.396
 8607TIP3    H125778   3.707   3.965   4.364
 8607TIP3    H225779   3.716   3.814   4.350
 8608TIP3   OH225780   0.880   0.410   4.954
 8608TIP3    H125781   0.958   0.461   4.932
 8608TIP3    H225782   0.862   0.430   5.046
 8609TIP3   OH225783   2.280   0.128   4.904
 8609TIP3    H125784   2.188   0.155   4.906
 8609TIP3    H225785   2.320   0.175   4.977
 8610TIP3   OH225786   6.007   3.784   4.920
 8610TIP3    H125787   6.019   3.724   4.846
 8610TIP3    H225788   6.029   3.870   4.885
 8611TIP3   OH225789   5.606   0.827   3.893
 8611TIP3    H125790   5.575   0.918   3.897
 8611TIP3    H225791   5.543   0.778   3.947
 8612TIP3   OH225792   6.415   2.782   2.973
 8612TIP3    H125793   6.359   2.777   3.051
 8612TIP3    H225794   6.496   2.822   3.005
 8613TIP3   OH225795   6.639   3.632   4.945
 8613TIP3    H125796   6.591   3.670   4.871
 8613TIP3    H225797   6.727   3.669   4.937
 8614TIP3   OH225798   5.059   4.416   4.769
 8614TIP3    H125799   5.112   4.489   4.740
 8614TIP3    H225800   5.120   4.343   4.778
 8615TIP3   OH225801   3.622   0.975   2.526
 8615TIP3    H125802   3.709   1.013   2.542
 8615TIP3    H225803   3.561   1.045   2.546
 8616TIP3   OH225804   3.834   0.160   3.908
 8616TIP3    H125805   3.917   0.137   3.949
 8616TIP3    H225806   3.816   0.087   3.849
 8617TIP3   OH225807   1.840   7.833   3.082
 8617TIP3    H125808   1.783   7.836   3.005
 8617TIP3    H225809   1.883   7.748   3.077
 8618TIP3   OH225810   2.265   5.522   1.761
 8618TIP3    H125811   2.231   5.456   1.700
 8618TIP3    H225812   2.295   5.472   1.837
 8619TIP3   OH225813   2.603   0.268   3.097
 8619TIP3    H125814   2.625   0.286   3.006
 8619TIP3    H225815   2.526   0.324   3.114
 8620TIP3   OH225816   8.133   2.258   6.701
 8620TIP3    H125817   8.223   2.233   6.723
 8620TIP3    H225818   8.081   2.180   6.723
 8621TIP3   OH225819   5.057   5.318   1.760
 8621TIP3    H125820   4.995   5.391   1.762
 8621TIP3    H225821   5.087   5.315   1.669
 8622TIP3   OH225822   6.593   7.399   4.266
 8622TIP3    H125823   6.687   7.410   4.282
 8622TIP3    H225824   6.575   7.452   4.188
 8623TIP3   OH225825   6.283   4.870   3.181
 8623TIP3    H125826   6.208   4.823   3.145
 8623TIP3    H225827   6.267   4.873   3.275
 8624TIP3   OH225828   1.542   2.140   3.159
 8624TIP3    H125829   1.572   2.072   3.098
 8624TIP3    H225830   1.615   2.151   3.220
 8625TIP3   OH225831   5.148   1.326   0.508
 8625TIP3    H125832   5.075   1.275   0.474
 8625TIP3    H225833   5.138   1.413   0.468
 8626TIP3   OH225834   2.554   6.606   2.931
 8626TIP3    H125835   2.514   6.524   2.962
 8626TIP3    H225836   2.500   6.631   2.856
 8627TIP3   OH225837   3.971   5.560   1.888
 8627TIP3    H125838   3.947   5.472   1.858
 8627TIP3    H225839   4.020   5.545   1.969
 8628TIP3   OH225840   4.711   5.361   5.966
 8628TIP3    H125841   4.755   5.440   5.935
 8628TIP3    H225842   4.622   5.368   5.932
 8629TIP3   OH225843   1.239   3.697   3.139
 8629TIP3    H125844   1.204   3.618   3.180
 8629TIP3    H225845   1.169   3.761   3.145
 8630TIP3   OH225846   3.792   4.221   1.534
 8630TIP3    H125847   3.791   4.210   1.629
 8630TIP3    H225848   3.700   4.222   1.509
 8631TIP3   OH225849   0.884   2.275   5.413
 8631TIP3    H125850   0.799   2.317   5.405
 8631TIP3    H225851   0.946   2.347   5.424
 8632TIP3   OH225852   6.465   0.781   6.084
 8632TIP3    H125853   6.390   0.791   6.025
 8632TIP3    H225854   6.532   0.741   6.029
 8633TIP3   OH225855   7.492   5.860   5.512
 8633TIP3    H125856   7.425   5.841   5.447
 8633TIP3    H225857   7.461   5.818   5.592
 8634TIP3   OH225858   5.687   1.313   1.554
 8634TIP3    H125859   5.760   1.312   1.615
 8634TIP3    H225860   5.615   1.270   1.601
 8635TIP3   OH225861   7.634   5.068   1.960
 8635TIP3    H125862   7.671   5.126   1.894
 8635TIP3    H225863   7.708   5.047   2.017
 8636TIP3   OH225864   3.947   3.275   4.661
 8636TIP3    H125865   3.978   3.364   4.680
 8636TIP3    H225866   3.860   3.287   4.622
 8637TIP3   OH225867   4.206   4.900   1.781
 8637TIP3    H125868   4.175   4.989   1.801
 8637TIP3    H225869   4.177   4.885   1.691
 8638TIP3   OH225870   0.192   2.952   1.040
 8638TIP3    H125871   0.216   2.927   0.950
 8638TIP3    H225872   0.167   2.869   1.081
 8639TIP3   OH225873   3.160   2.176   2.881
 8639TIP3    H125874   3.238   2.231   2.878
 8639TIP3    H225875   3.096   2.227   2.930
 8640TIP3   OH225876   3.360   5.523   6.430
 8640TIP3    H125877   3.438   5.526   6.486
 8640TIP3    H225878   3.322   5.437   6.446
 8641TIP3   OH225879   0.963   3.470   2.767
 8641TIP3    H125880   0.932   3.412   2.836
 8641TIP3    H225881   1.058   3.471   2.777
 8642TIP3   OH225882   4.853   7.143   0.575
 8642TIP3    H125883   4.834   7.229   0.613
 8642TIP3    H225884   4.787   7.085   0.613
 8643TIP3   OH225885   5.586   6.450   2.808
 8643TIP3    H125886   5.495   6.433   2.832
 8643TIP3    H225887   5.625   6.486   2.887
 8644TIP3   OH225888   4.212   4.980   2.165
 8644TIP3    H125889   4.126   4.940   2.152
 8644TIP3    H225890   4.196   5.051   2.227
 8645TIP3   OH225891   0.434   2.597   4.779
 8645TIP3    H125892   0.418   2.504   4.763
 8645TIP3    H225893   0.526   2.602   4.802
 8646TIP3   OH225894   1.081   3.908   4.945
 8646TIP3    H125895   1.076   3.998   4.977
 8646TIP3    H225896   1.089   3.854   5.024
 8647TIP3   OH225897   7.397   0.355   1.627
 8647TIP3    H125898   7.362   0.388   1.544
 8647TIP3    H225899   7.466   0.294   1.602
 8648TIP3   OH225900   2.608   0.014   4.937
 8648TIP3    H125901   2.553   0.010   4.858
 8648TIP3    H225902   2.686   0.064   4.909
 8649TIP3   OH225903   4.292   2.537   3.424
 8649TIP3    H125904   4.312   2.628   3.400
 8649TIP3    H225905   4.340   2.484   3.361
 8650TIP3   OH225906   6.026   4.433   1.228
 8650TIP3    H125907   6.034   4.502   1.293
 8650TIP3    H225908   5.958   4.463   1.168
 8651TIP3   OH225909   0.160   4.516   1.323
 8651TIP3    H125910   0.126   4.514   1.412
 8651TIP3    H225911   0.093   4.473   1.270
 8652TIP3   OH225912   1.724   6.550   4.470
 8652TIP3    H125913   1.636   6.559   4.433
 8652TIP3    H225914   1.745   6.458   4.458
 8653TIP3   OH225915   2.633   5.999   5.345
 8653TIP3    H125916   2.549   6.043   5.331
 8653TIP3    H225917   2.615   5.934   5.413
 8654TIP3   OH225918   7.386   1.831   2.450
 8654TIP3    H125919   7.331   1.810   2.374
 8654TIP3    H225920   7.465   1.868   2.412
 8655TIP3   OH225921   1.062   3.343   5.147
 8655TIP3    H125922   0.977   3.385   5.158
 8655TIP3    H225923   1.104   3.349   5.233
 8656TIP3   OH225924   0.916   0.107   2.562
 8656TIP3    H125925   0.964   0.113   2.480
 8656TIP3    H225926   0.824   0.118   2.538
 8657TIP3   OH225927   0.821   6.161   3.115
 8657TIP3    H125928   0.740   6.188   3.073
 8657TIP3    H225929   0.882   6.234   3.100
 8658TIP3   OH225930   7.520   4.261   4.165
 8658TIP3    H125931   7.598   4.214   4.137
 8658TIP3    H225932   7.501   4.322   4.094
 8659TIP3   OH225933   2.449   3.601   3.490
 8659TIP3    H125934   2.410   3.561   3.568
 8659TIP3    H225935   2.511   3.537   3.458
 8660TIP3   OH225936   4.649   7.064   2.342
 8660TIP3    H125937   4.645   6.974   2.374
 8660TIP3    H225938   4.719   7.064   2.277
 8661TIP3   OH225939   4.180   1.761   4.544
 8661TIP3    H125940   4.092   1.742   4.574
 8661TIP3    H225941   4.169   1.829   4.477
 8662TIP3   OH225942   0.781   4.804   6.353
 8662TIP3    H125943   0.849   4.836   6.294
 8662TIP3    H225944   0.789   4.708   6.348
 8663TIP3   OH225945   0.041   0.490   5.835
 8663TIP3    H125946  -0.027   0.437   5.794
 8663TIP3    H225947   0.121   0.438   5.824
 8664TIP3   OH225948   2.505   1.327   3.374
 8664TIP3    H125949   2.441   1.257   3.357
 8664TIP3    H225950   2.589   1.290   3.345
 8665TIP3   OH225951   6.695   3.046   5.155
 8665TIP3    H125952   6.681   3.045   5.060
 8665TIP3    H225953   6.657   3.130   5.183
 8666TIP3   OH225954   5.259   4.490   4.526
 8666TIP3    H125955   5.182   4.547   4.522
 8666TIP3    H225956   5.264   4.451   4.439
 8667TIP3   OH225957   7.211   4.304   3.441
 8667TIP3    H125958   7.144   4.237   3.458
 8667TIP3    H225959   7.256   4.273   3.363
 8668TIP3   OH225960   3.125   0.161   1.126
 8668TIP3    H125961   3.069   0.175   1.050
 8668TIP3    H225962   3.110   0.070   1.150
 8669TIP3   OH225963   7.599   0.111   3.223
 8669TIP3    H125964   7.524   0.079   3.274
 8669TIP3    H225965   7.612   0.046   3.155
 8670TIP3   OH225966   1.785   6.328   5.766
 8670TIP3    H125967   1.833   6.400   5.724
 8670TIP3    H225968   1.729   6.292   5.697
 8671TIP3   OH225969   2.786   7.656   4.928
 8671TIP3    H125970   2.838   7.580   4.903
 8671TIP3    H225971   2.847   7.730   4.924
 8672TIP3   OH225972   2.084   5.502   3.290
 8672TIP3    H125973   2.001   5.507   3.338
 8672TIP3    H225974   2.061   5.466   3.205
 8673TIP3   OH225975   6.594   5.427   6.126
 8673TIP3    H125976   6.665   5.378   6.084
 8673TIP3    H225977   6.515   5.380   6.102
 8674TIP3   OH225978   8.095   2.397   1.955
 8674TIP3    H125979   8.080   2.463   1.887
 8674TIP3    H225980   8.110   2.316   1.906
 8675TIP3   OH225981   4.317   1.566   1.483
 8675TIP3    H125982   4.310   1.661   1.470
 8675TIP3    H225983   4.407   1.553   1.514
 8676TIP3   OH225984   8.336   6.835   0.574
 8676TIP3    H125985   8.374   6.751   0.546
 8676TIP3    H225986   8.305   6.819   0.663
 8677TIP3   OH225987   2.203   5.117   3.049
 8677TIP3    H125988   2.229   5.126   2.958
 8677TIP3    H225989   2.138   5.186   3.063
 8678TIP3   OH225990   4.018   5.677   0.827
 8678TIP3    H125991   4.056   5.679   0.739
 8678TIP3    H225992   3.979   5.764   0.838
 8679TIP3   OH225993   0.929   2.631   3.005
 8679TIP3    H125994   0.869   2.560   3.026
 8679TIP3    H225995   1.013   2.588   2.990
 8680TIP3   OH225996   1.195   2.744   5.940
 8680TIP3    H125997   1.213   2.808   5.872
 8680TIP3    H225998   1.244   2.666   5.913
 8681TIP3   OH225999   0.890   7.213   3.945
 8681TIP3    H126000   0.927   7.275   4.008
 8681TIP3    H226001   0.958   7.203   3.879
 8682TIP3   OH226002   7.452   3.375   2.496
 8682TIP3    H126003   7.393   3.414   2.432
 8682TIP3    H226004   7.540   3.395   2.464
 8683TIP3   OH226005   1.718   3.257   2.388
 8683TIP3    H126006   1.785   3.194   2.361
 8683TIP3    H226007   1.679   3.218   2.467
 8684TIP3   OH226008   7.591   4.677   4.982
 8684TIP3    H126009   7.672   4.687   5.031
 8684TIP3    H226010   7.616   4.689   4.891
 8685TIP3   OH226011   1.642   6.258   6.367
 8685TIP3    H126012   1.669   6.333   6.314
 8685TIP3    H226013   1.547   6.259   6.362
 8686TIP3   OH226014   3.280   1.370   1.123
 8686TIP3    H126015   3.200   1.319   1.120
 8686TIP3    H226016   3.294   1.399   1.033
 8687TIP3   OH226017   1.327   4.115   2.153
 8687TIP3    H126018   1.308   4.188   2.212
 8687TIP3    H226019   1.285   4.140   2.070
 8688TIP3   OH226020   5.116   4.602   1.142
 8688TIP3    H126021   5.116   4.523   1.197
 8688TIP3    H226022   5.123   4.674   1.204
 8689TIP3   OH226023   0.543   2.195   1.371
 8689TIP3    H126024   0.495   2.119   1.338
 8689TIP3    H226025   0.584   2.233   1.293
 8690TIP3   OH226026   3.555   7.213   2.044
 8690TIP3    H126027   3.500   7.290   2.061
 8690TIP3    H226028   3.510   7.142   2.091
 8691TIP3   OH226029   5.498   0.048   0.921
 8691TIP3    H126030   5.425   0.036   0.861
 8691TIP3    H226031   5.559  -0.023   0.899
 8692TIP3   OH226032   2.762   1.339   2.314
 8692TIP3    H126033   2.790   1.393   2.388
 8692TIP3    H226034   2.742   1.254   2.354
 8693TIP3   OH226035   2.357   0.235   4.624
 8693TIP3    H126036   2.312   0.203   4.702
 8693TIP3    H226037   2.310   0.195   4.551
 8694TIP3   OH226038   1.230   6.215   0.712
 8694TIP3    H126039   1.264   6.155   0.778
 8694TIP3    H226040   1.136   6.198   0.711
 8695TIP3   OH226041   6.287   1.257   2.137
 8695TIP3    H126042   6.287   1.186   2.201
 8695TIP3    H226043   6.220   1.233   2.073
 8696TIP3   OH226044   8.091   7.082   0.876
 8696TIP3    H126045   8.073   6.996   0.839
 8696TIP3    H226046   8.014   7.101   0.930
 8697TIP3   OH226047   1.480   3.729   2.452
 8697TIP3    H126048   1.509   3.753   2.540
 8697TIP3    H226049   1.532   3.652   2.429
 8698TIP3   OH226050   1.374   3.627   1.401
 8698TIP3    H126051   1.456   3.602   1.357
 8698TIP3    H226052   1.400   3.695   1.464
 8699TIP3   OH226053   3.420   3.862   6.342
 8699TIP3    H126054   3.327   3.848   6.321
 8699TIP3    H226055   3.461   3.778   6.325
 8700TIP3   OH226056   4.422   6.083   5.915
 8700TIP3    H126057   4.449   5.991   5.922
 8700TIP3    H226058   4.496   6.133   5.949
 8701TIP3   OH226059   5.968   2.669   6.412
 8701TIP3    H126060   6.001   2.604   6.475
 8701TIP3    H226061   5.917   2.618   6.349
 8702TIP3   OH226062   2.095   7.108   3.587
 8702TIP3    H126063   2.189   7.090   3.583
 8702TIP3    H226064   2.066   7.064   3.667
 8703TIP3   OH226065   2.636   3.008   3.899
 8703TIP3    H126066   2.679   2.984   3.981
 8703TIP3    H226067   2.561   3.061   3.926
 8704TIP3   OH226068   2.079   4.084   5.446
 8704TIP3    H126069   2.153   4.119   5.496
 8704TIP3    H226070   2.095   3.990   5.442
 8705TIP3   OH226071   8.049   6.871   5.114
 8705TIP3    H126072   8.087   6.868   5.202
 8705TIP3    H226073   7.996   6.792   5.107
 8706TIP3   OH226074   5.217   0.865   6.229
 8706TIP3    H126075   5.175   0.863   6.315
 8706TIP3    H226076   5.176   0.794   6.181
 8707TIP3   OH226077   5.492   5.264   3.043
 8707TIP3    H126078   5.469   5.334   2.982
 8707TIP3    H226079   5.409   5.244   3.088
 8708TIP3   OH226080   1.525   6.663   6.661
 8708TIP3    H126081   1.474   6.628   6.588
 8708TIP3    H226082   1.462   6.671   6.733
 8709TIP3   OH226083   5.520   2.594   1.513
 8709TIP3    H126084   5.526   2.503   1.486
 8709TIP3    H226085   5.582   2.601   1.586
 8710TIP3   OH226086   5.392   0.635   3.473
 8710TIP3    H126087   5.355   0.715   3.510
 8710TIP3    H226088   5.455   0.665   3.408
 8711TIP3   OH226089   2.097   1.206   1.709
 8711TIP3    H126090   2.095   1.111   1.720
 8711TIP3    H226091   2.156   1.220   1.635
 8712TIP3   OH226092   6.514   0.139   5.455
 8712TIP3    H126093   6.584   0.105   5.510
 8712TIP3    H226094   6.464   0.197   5.512
 8713TIP3   OH226095   6.276   7.427   5.007
 8713TIP3    H126096   6.349   7.465   4.960
 8713TIP3    H226097   6.311   7.348   5.048
 8714TIP3   OH226098   0.056   6.910   5.048
 8714TIP3    H126099   0.031   6.817   5.052
 8714TIP3    H226100   0.129   6.918   5.109
 8715TIP3   OH226101   5.452   6.722   0.557
 8715TIP3    H126102   5.511   6.647   0.563
 8715TIP3    H226103   5.483   6.783   0.624
 8716TIP3   OH226104   2.506   2.729   6.094
 8716TIP3    H126105   2.518   2.744   6.187
 8716TIP3    H226106   2.531   2.638   6.080
 8717TIP3   OH226107   2.007   5.379   2.194
 8717TIP3    H126108   1.940   5.446   2.210
 8717TIP3    H226109   2.005   5.325   2.273
 8718TIP3   OH226110   4.195   1.898   0.065
 8718TIP3    H126111   4.127   1.840   0.032
 8718TIP3    H226112   4.180   1.903   0.160
 8719TIP3   OH226113   1.894   3.425   2.754
 8719TIP3    H126114   1.806   3.425   2.792
 8719TIP3    H226115   1.890   3.490   2.684
 8720TIP3   OH226116   3.500   0.719   1.707
 8720TIP3    H126117   3.433   0.654   1.685
 8720TIP3    H226118   3.451   0.790   1.748
 8721TIP3   OH226119   7.748   2.262   6.447
 8721TIP3    H126120   7.686   2.210   6.498
 8721TIP3    H226121   7.694   2.316   6.390
 8722TIP3   OH226122   2.453   1.761   1.516
 8722TIP3    H126123   2.378   1.763   1.456
 8722TIP3    H226124   2.521   1.811   1.471
 8723TIP3   OH226125   6.458   3.484   1.559
 8723TIP3    H126126   6.481   3.450   1.646
 8723TIP3    H226127   6.365   3.463   1.549
 8724TIP3   OH226128   7.549   5.401   5.215
 8724TIP3    H126129   7.537   5.328   5.155
 8724TIP3    H226130   7.641   5.394   5.243
 8725TIP3   OH226131   0.106   3.047   3.071
 8725TIP3    H126132   0.188   3.093   3.051
 8725TIP3    H226133   0.066   3.099   3.140
 8726TIP3   OH226134   7.291   7.093   5.618
 8726TIP3    H126135   7.279   7.145   5.698
 8726TIP3    H226136   7.382   7.106   5.595
 8727TIP3   OH226137   3.986   4.721   2.716
 8727TIP3    H126138   3.922   4.650   2.713
 8727TIP3    H226139   3.957   4.777   2.787
 8728TIP3   OH226140   7.286   1.194   5.813
 8728TIP3    H126141   7.276   1.197   5.908
 8728TIP3    H226142   7.370   1.237   5.796
 8729TIP3   OH226143   2.168   1.340   4.018
 8729TIP3    H126144   2.164   1.367   4.110
 8729TIP3    H226145   2.122   1.257   4.016
 8730TIP3   OH226146   2.366   2.167   5.820
 8730TIP3    H126147   2.276   2.183   5.846
 8730TIP3    H226148   2.416   2.237   5.862
 8731TIP3   OH226149   2.512   3.710   5.082
 8731TIP3    H126150   2.450   3.770   5.124
 8731TIP3    H226151   2.592   3.762   5.071
 8732TIP3   OH226152   3.709   5.352   5.640
 8732TIP3    H126153   3.637   5.396   5.593
 8732TIP3    H226154   3.720   5.403   5.720
 8733TIP3   OH226155   2.345   5.733   0.097
 8733TIP3    H126156   2.321   5.691   0.014
 8733TIP3    H226157   2.330   5.665   0.163
 8734TIP3   OH226158   6.863   7.786   3.924
 8734TIP3    H126159   6.854   7.827   4.010
 8734TIP3    H226160   6.946   7.818   3.890
 8735TIP3   OH226161   3.224   1.646   4.063
 8735TIP3    H126162   3.181   1.731   4.056
 8735TIP3    H226163   3.302   1.663   4.117
 8736TIP3   OH226164   0.694   0.588   6.270
 8736TIP3    H126165   0.778   0.623   6.299
 8736TIP3    H226166   0.714   0.499   6.242
 8737TIP3   OH226167   6.938   0.365   1.616
 8737TIP3    H126168   6.976   0.453   1.623
 8737TIP3    H226169   6.886   0.369   1.535
 8738TIP3   OH226170   8.272   5.485   3.471
 8738TIP3    H126171   8.352   5.477   3.421
 8738TIP3    H226172   8.203   5.500   3.406
 8739TIP3   OH226173   2.900   6.540   3.347
 8739TIP3    H126174   2.844   6.548   3.270
 8739TIP3    H226175   2.950   6.621   3.349
 8740TIP3   OH226176   1.442   0.064   4.390
 8740TIP3    H126177   1.511   0.002   4.413
 8740TIP3    H226178   1.397   0.082   4.472
 8741TIP3   OH226179   3.686   2.998   1.606
 8741TIP3    H126180   3.721   3.039   1.527
 8741TIP3    H226181   3.595   2.978   1.584
 8742TIP3   OH226182   4.899   4.827   6.001
 8742TIP3    H126183   4.857   4.910   5.980
 8742TIP3    H226184   4.971   4.820   5.938
 8743TIP3   OH226185   7.534   2.812   1.866
 8743TIP3    H126186   7.486   2.830   1.785
 8743TIP3    H226187   7.578   2.894   1.887
 8744TIP3   OH226188   1.024   4.677   0.178
 8744TIP3    H126189   1.000   4.748   0.238
 8744TIP3    H226190   1.098   4.634   0.221
 8745TIP3   OH226191   6.149   1.130   3.076
 8745TIP3    H126192   6.116   1.174   2.998
 8745TIP3    H226193   6.166   1.200   3.139
 8746TIP3   OH226194   1.201   1.620   4.611
 8746TIP3    H126195   1.200   1.661   4.524
 8746TIP3    H226196   1.290   1.637   4.644
 8747TIP3   OH226197   3.260   5.282   3.072
 8747TIP3    H126198   3.311   5.303   2.993
 8747TIP3    H226199   3.192   5.223   3.041
 8748TIP3   OH226200   2.737   1.749   0.976
 8748TIP3    H126201   2.761   1.836   1.007
 8748TIP3    H226202   2.781   1.740   0.891
 8749TIP3   OH226203   6.570   0.907   4.630
 8749TIP3    H126204   6.517   0.981   4.661
 8749TIP3    H226205   6.643   0.949   4.583
 8750TIP3   OH226206   1.026   1.235   0.490
 8750TIP3    H126207   1.049   1.144   0.469
 8750TIP3    H226208   1.060   1.286   0.416
 8751TIP3   OH226209   6.779   4.629   4.312
 8751TIP3    H126210   6.863   4.658   4.276
 8751TIP3    H226211   6.745   4.705   4.359
 8752TIP3   OH226212   4.562   2.664   4.242
 8752TIP3    H126213   4.622   2.718   4.293
 8752TIP3    H226214   4.552   2.584   4.294
 8753TIP3   OH226215   0.699   3.358   3.308
 8753TIP3    H126216   0.704   3.267   3.339
 8753TIP3    H226217   0.629   3.397   3.360
 8754TIP3   OH226218   6.767   1.467   1.244
 8754TIP3    H126219   6.807   1.496   1.162
 8754TIP3    H226220   6.742   1.549   1.288
 8755TIP3   OH226221   4.375   3.684   0.433
 8755TIP3    H126222   4.460   3.691   0.391
 8755TIP3    H226223   4.344   3.597   0.410
 8756TIP3   OH226224   0.197   2.948   0.035
 8756TIP3    H126225   0.230   3.029   0.075
 8756TIP3    H226226   0.241   2.945  -0.050
 8757TIP3   OH226227   3.105   3.646   5.868
 8757TIP3    H126228   3.091   3.554   5.844
 8757TIP3    H226229   3.033   3.693   5.827
 8758TIP3   OH226230   0.944   2.289   0.311
 8758TIP3    H126231   0.910   2.292   0.221
 8758TIP3    H226232   0.911   2.368   0.352
 8759TIP3   OH226233   1.005   7.556   1.255
 8759TIP3    H126234   1.007   7.630   1.316
 8759TIP3    H226235   0.928   7.506   1.280
 8760TIP3   OH226236   2.299   3.946   2.323
 8760TIP3    H126237   2.316   3.911   2.410
 8760TIP3    H226238   2.374   4.001   2.304
 8761TIP3   OH226239   2.680   1.329   5.746
 8761TIP3    H126240   2.695   1.313   5.839
 8761TIP3    H226241   2.758   1.294   5.703
 8762TIP3   OH226242   6.814   2.288   0.234
 8762TIP3    H126243   6.898   2.283   0.189
 8762TIP3    H226244   6.827   2.355   0.302
 8763TIP3   OH226245   0.190   7.246   0.054
 8763TIP3    H126246   0.210   7.223   0.145
 8763TIP3    H226247   0.095   7.244   0.049
 8764TIP3   OH226248   5.684   0.374   0.909
 8764TIP3    H126249   5.659   0.378   0.817
 8764TIP3    H226250   5.674   0.465   0.940
 8765TIP3   OH226251   2.266   2.509   2.960
 8765TIP3    H126252   2.229   2.597   2.959
 8765TIP3    H226253   2.305   2.500   3.047
 8766TIP3   OH226254   7.234   2.898   1.281
 8766TIP3    H126255   7.324   2.906   1.249
 8766TIP3    H226256   7.238   2.929   1.371
 8767TIP3   OH226257   1.211   4.462   1.692
 8767TIP3    H126258   1.236   4.370   1.691
 8767TIP3    H226259   1.259   4.500   1.765
 8768TIP3   OH226260   3.946   5.047   3.473
 8768TIP3    H126261   3.878   4.983   3.495
 8768TIP3    H226262   4.028   5.005   3.500
 8769TIP3   OH226263   1.704   4.837   2.889
 8769TIP3    H126264   1.718   4.744   2.908
 8769TIP3    H226265   1.787   4.867   2.853
 8770TIP3   OH226266   1.248   2.953   0.068
 8770TIP3    H126267   1.261   2.862   0.041
 8770TIP3    H226268   1.288   2.959   0.154
 8771TIP3   OH226269   4.632   1.458   2.806
 8771TIP3    H126270   4.573   1.387   2.831
 8771TIP3    H226271   4.686   1.473   2.884
 8772TIP3   OH226272   3.697   1.551   6.219
 8772TIP3    H126273   3.688   1.642   6.188
 8772TIP3    H226274   3.768   1.515   6.166
 8773TIP3   OH226275   1.776   4.670   1.627
 8773TIP3    H126276   1.723   4.663   1.547
 8773TIP3    H226277   1.715   4.651   1.698
 8774TIP3   OH226278   2.339   3.953   3.320
 8774TIP3    H126279   2.289   3.876   3.293
 8774TIP3    H226280   2.430   3.930   3.298
 8775TIP3   OH226281   5.407   5.821   2.255
 8775TIP3    H126282   5.362   5.745   2.291
 8775TIP3    H226283   5.394   5.889   2.321
 8776TIP3   OH226284   2.773   2.034   3.035
 8776TIP3    H126285   2.851   2.089   3.024
 8776TIP3    H226286   2.721   2.051   2.956
 8777TIP3   OH226287   4.478   3.314   1.103
 8777TIP3    H126288   4.461   3.321   1.009
 8777TIP3    H226289   4.548   3.249   1.110
 8778TIP3   OH226290   5.906   0.346   6.635
 8778TIP3    H126291   5.909   0.253   6.612
 8778TIP3    H226292   5.879   0.347   6.726
 8779TIP3   OH226293   6.565   4.467   0.707
 8779TIP3    H126294   6.527   4.539   0.757
 8779TIP3    H226295   6.657   4.490   0.697
 8780TIP3   OH226296   7.900   7.719   0.514
 8780TIP3    H126297   7.881   7.755   0.601
 8780TIP3    H226298   7.944   7.636   0.532
 8781TIP3   OH226299   8.314   6.261   5.626
 8781TIP3    H126300   8.297   6.219   5.541
 8781TIP3    H226301   8.227   6.270   5.665
 8782TIP3   OH226302   1.854   0.062   4.103
 8782TIP3    H126303   1.880   0.146   4.064
 8782TIP3    H226304   1.790   0.026   4.041
 8783TIP3   OH226305   7.882   2.864   2.771
 8783TIP3    H126306   7.864   2.940   2.826
 8783TIP3    H226307   7.795   2.835   2.742
 8784TIP3   OH226308   7.570   6.427   5.510
 8784TIP3    H126309   7.567   6.332   5.501
 8784TIP3    H226310   7.624   6.442   5.588
 8785TIP3   OH226311   4.330   2.930   6.776
 8785TIP3    H126312   4.240   2.901   6.790
 8785TIP3    H226313   4.322   3.023   6.753
 8786TIP3   OH226314   7.216   5.110   2.884
 8786TIP3    H126315   7.307   5.084   2.868
 8786TIP3    H226316   7.223   5.191   2.935
 8787TIP3   OH226317   6.416   7.803   6.336
 8787TIP3    H126318   6.356   7.784   6.264
 8787TIP3    H226319   6.365   7.782   6.415
 8788TIP3   OH226320   7.237   3.353   6.276
 8788TIP3    H126321   7.225   3.447   6.294
 8788TIP3    H226322   7.185   3.337   6.197
 8789TIP3   OH226323   0.683   5.033   0.172
 8789TIP3    H126324   0.736   5.100   0.216
 8789TIP3    H226325   0.680   4.961   0.235
 8790TIP3   OH226326   6.199   1.097   4.211
 8790TIP3    H126327   6.164   1.121   4.296
 8790TIP3    H226328   6.260   1.026   4.230
 8791TIP3   OH226329   6.940   2.516   3.690
 8791TIP3    H126330   7.013   2.496   3.632
 8791TIP3    H226331   6.877   2.445   3.674
 8792TIP3   OH226332   3.572   7.202   5.055
 8792TIP3    H126333   3.631   7.254   5.001
 8792TIP3    H226334   3.624   7.126   5.082
 8793TIP3   OH226335   6.774   4.704   3.611
 8793TIP3    H126336   6.754   4.650   3.687
 8793TIP3    H226337   6.864   4.682   3.588
 8794TIP3   OH226338   1.641   5.714   2.295
 8794TIP3    H126339   1.707   5.663   2.248
 8794TIP3    H226340   1.601   5.769   2.227
 8795TIP3   OH226341   1.236   4.259   4.404
 8795TIP3    H126342   1.163   4.242   4.344
 8795TIP3    H226343   1.301   4.193   4.382
 8796TIP3   OH226344   6.944   0.192   3.063
 8796TIP3    H126345   6.996   0.147   2.996
 8796TIP3    H226346   6.862   0.143   3.067
 8797TIP3   OH226347   6.725   7.672   4.424
 8797TIP3    H126348   6.744   7.766   4.413
 8797TIP3    H226349   6.756   7.632   4.343
 8798TIP3   OH226350   8.087   3.902   2.294
 8798TIP3    H126351   8.173   3.875   2.326
 8798TIP3    H226352   8.106   3.961   2.221
 8799TIP3   OH226353   7.540   6.455   2.123
 8799TIP3    H126354   7.544   6.415   2.036
 8799TIP3    H226355   7.560   6.547   2.108
 8800TIP3   OH226356   4.985   7.896   4.091
 8800TIP3    H126357   4.893   7.920   4.078
 8800TIP3    H226358   5.010   7.852   4.010
 8801TIP3   OH226359   7.815   1.538   3.806
 8801TIP3    H126360   7.843   1.459   3.760
 8801TIP3    H226361   7.855   1.610   3.758
 8802TIP3   OH226362   5.376   2.223   5.359
 8802TIP3    H126363   5.419   2.138   5.372
 8802TIP3    H226364   5.408   2.253   5.273
 8803TIP3   OH226365   2.742   7.799   6.725
 8803TIP3    H126366   2.691   7.724   6.756
 8803TIP3    H226367   2.761   7.849   6.805
 8804TIP3   OH226368   2.281   4.310   5.334
 8804TIP3    H126369   2.208   4.274   5.284
 8804TIP3    H226370   2.272   4.272   5.422
 8805TIP3   OH226371   1.070   2.475   5.445
 8805TIP3    H126372   1.122   2.503   5.520
 8805TIP3    H226373   1.089   2.540   5.377
 8806TIP3   OH226374   0.855   1.280   1.446
 8806TIP3    H126375   0.873   1.325   1.529
 8806TIP3    H226376   0.864   1.187   1.467
 8807TIP3   OH226377   5.331   0.285   5.697
 8807TIP3    H126378   5.288   0.292   5.612
 8807TIP3    H226379   5.362   0.374   5.716
 8808TIP3   OH226380   1.923   7.053   0.428
 8808TIP3    H126381   1.880   7.001   0.360
 8808TIP3    H226382   1.950   6.990   0.494
 8809TIP3   OH226383   2.266   5.893   3.496
 8809TIP3    H126384   2.357   5.887   3.465
 8809TIP3    H226385   2.269   5.855   3.584
 8810TIP3   OH226386   1.076   6.907   5.928
 8810TIP3    H126387   1.128   6.946   5.998
 8810TIP3    H226388   1.133   6.913   5.850
 8811TIP3   OH226389   4.502   7.664   2.673
 8811TIP3    H126390   4.500   7.710   2.589
 8811TIP3    H226391   4.519   7.572   2.649
 8812TIP3   OH226392   5.921   5.007   5.588
 8812TIP3    H126393   5.979   5.023   5.663
 8812TIP3    H226394   5.834   5.032   5.620
 8813TIP3   OH226395   0.250   1.793   3.280
 8813TIP3    H126396   0.184   1.738   3.323
 8813TIP3    H226397   0.262   1.753   3.194
 8814TIP3   OH226398   6.934   2.919   3.421
 8814TIP3    H126399   6.955   2.830   3.392
 8814TIP3    H226400   6.930   2.914   3.516
 8815TIP3   OH226401   0.311   3.386   1.069
 8815TIP3    H126402   0.356   3.317   1.022
 8815TIP3    H226403   0.233   3.343   1.105
 8816TIP3   OH226404   2.466   5.677   2.594
 8816TIP3    H126405   2.467   5.600   2.537
 8816TIP3    H226406   2.552   5.679   2.634
 8817TIP3   OH226407   6.683   2.998   6.354
 8817TIP3    H126408   6.740   3.007   6.431
 8817TIP3    H226409   6.737   2.951   6.290
 8818TIP3   OH226410   1.965   4.099   6.059
 8818TIP3    H126411   1.993   4.065   5.974
 8818TIP3    H226412   1.870   4.095   6.057
 8819TIP3   OH226413   1.229   2.865   0.688
 8819TIP3    H126414   1.136   2.842   0.694
 8819TIP3    H226415   1.259   2.869   0.778
 8820TIP3   OH226416   6.052   1.907   6.080
 8820TIP3    H126417   6.019   1.872   5.997
 8820TIP3    H226418   6.083   1.995   6.057
 8821TIP3   OH226419   6.636   0.654   5.910
 8821TIP3    H126420   6.698   0.693   5.971
 8821TIP3    H226421   6.667   0.564   5.900
 8822TIP3   OH226422   0.584   3.127   4.758
 8822TIP3    H126423   0.520   3.080   4.703
 8822TIP3    H226424   0.648   3.060   4.781
 8823TIP3   OH226425   1.270   1.892   0.407
 8823TIP3    H126426   1.289   1.964   0.468
 8823TIP3    H226427   1.333   1.824   0.431
 8824TIP3   OH226428   5.744   3.315   3.133
 8824TIP3    H126429   5.771   3.391   3.082
 8824TIP3    H226430   5.675   3.348   3.191
 8825TIP3   OH226431   5.288   5.165   4.810
 8825TIP3    H126432   5.198   5.150   4.839
 8825TIP3    H226433   5.297   5.261   4.808
 8826TIP3   OH226434   2.963   1.295   4.164
 8826TIP3    H126435   2.907   1.236   4.214
 8826TIP3    H226436   3.037   1.240   4.137
 8827TIP3   OH226437   3.472   6.292   0.896
 8827TIP3    H126438   3.413   6.244   0.954
 8827TIP3    H226439   3.477   6.239   0.817
 8828TIP3   OH226440   4.003   7.366   3.195
 8828TIP3    H126441   4.035   7.348   3.107
 8828TIP3    H226442   3.959   7.286   3.222
 8829TIP3   OH226443   0.869   7.244   0.487
 8829TIP3    H126444   0.785   7.289   0.474
 8829TIP3    H226445   0.930   7.288   0.428
 8830TIP3   OH226446   2.823   3.902   3.651
 8830TIP3    H126447   2.759   3.961   3.691
 8830TIP3    H226448   2.826   3.929   3.559
 8831TIP3   OH226449   7.582   5.862   4.474
 8831TIP3    H126450   7.503   5.869   4.528
 8831TIP3    H226451   7.635   5.938   4.499
 8832TIP3   OH226452   8.167   5.785   3.283
 8832TIP3    H126453   8.239   5.772   3.223
 8832TIP3    H226454   8.089   5.757   3.234
 8833TIP3   OH226455   0.209   2.581   3.064
 8833TIP3    H126456   0.125   2.586   3.019
 8833TIP3    H226457   0.274   2.602   2.997
 8834TIP3   OH226458   5.945   4.968   4.069
 8834TIP3    H126459   5.854   4.996   4.058
 8834TIP3    H226460   5.985   4.981   3.983
 8835TIP3   OH226461   4.347   2.950   5.305
 8835TIP3    H126462   4.374   2.877   5.360
 8835TIP3    H226463   4.363   2.920   5.215
 8836TIP3   OH226464   5.769   5.223   0.660
 8836TIP3    H126465   5.783   5.313   0.629
 8836TIP3    H226466   5.680   5.224   0.695
 8837TIP3   OH226467   2.530   3.941   6.177
 8837TIP3    H126468   2.440   3.930   6.145
 8837TIP3    H226469   2.550   4.034   6.163
 8838TIP3   OH226470   6.768   5.706   3.508
 8838TIP3    H126471   6.682   5.746   3.521
 8838TIP3    H226472   6.750   5.621   3.469
 8839TIP3   OH226473   3.885   2.211   3.835
 8839TIP3    H126474   3.918   2.143   3.776
 8839TIP3    H226475   3.951   2.280   3.831
 8840TIP3   OH226476   7.346   6.624   4.590
 8840TIP3    H126477   7.360   6.635   4.495
 8840TIP3    H226478   7.380   6.704   4.628
 8841TIP3   OH226479   6.654   2.034   3.094
 8841TIP3    H126480   6.637   1.974   3.167
 8841TIP3    H226481   6.713   2.100   3.131
 8842TIP3   OH226482   3.955   7.063   0.855
 8842TIP3    H126483   3.897   6.991   0.880
 8842TIP3    H226484   3.994   7.035   0.772
 8843TIP3   OH226485   7.399   2.951   5.826
 8843TIP3    H126486   7.491   2.934   5.843
 8843TIP3    H226487   7.352   2.906   5.896
 8844TIP3   OH226488   6.873   7.274   6.137
 8844TIP3    H126489   6.963   7.260   6.168
 8844TIP3    H226490   6.834   7.331   6.203
 8845TIP3   OH226491   4.351   4.828   0.632
 8845TIP3    H126492   4.330   4.755   0.690
 8845TIP3    H226493   4.273   4.839   0.578
 8846TIP3   OH226494   4.095   5.584   4.250
 8846TIP3    H126495   4.111   5.630   4.332
 8846TIP3    H226496   4.160   5.619   4.190
 8847TIP3   OH226497   3.019   3.820   4.086
 8847TIP3    H126498   2.975   3.778   4.012
 8847TIP3    H226499   2.982   3.909   4.089
 8848TIP3   OH226500   0.884   1.348   3.058
 8848TIP3    H126501   0.829   1.373   3.132
 8848TIP3    H226502   0.856   1.404   2.986
 8849TIP3   OH226503   6.323   6.748   1.391
 8849TIP3    H126504   6.300   6.681   1.326
 8849TIP3    H226505   6.259   6.735   1.461
 8850TIP3   OH226506   2.586   3.953   2.846
 8850TIP3    H126507   2.680   3.969   2.850
 8850TIP3    H226508   2.547   4.027   2.892
 8851TIP3   OH226509   4.046   0.425   3.362
 8851TIP3    H126510   3.968   0.370   3.357
 8851TIP3    H226511   4.012   0.515   3.362
 8852TIP3   OH226512   3.767   3.504   1.308
 8852TIP3    H126513   3.846   3.549   1.337
 8852TIP3    H226514   3.749   3.540   1.222
 8853TIP3   OH226515   8.113   0.783   5.690
 8853TIP3    H126516   8.168   0.855   5.721
 8853TIP3    H226517   8.159   0.749   5.613
 8854TIP3   OH226518   4.281   5.290   2.330
 8854TIP3    H126519   4.333   5.364   2.361
 8854TIP3    H226520   4.253   5.245   2.409
 8855TIP3   OH226521   0.643   5.209   3.433
 8855TIP3    H126522   0.551   5.191   3.412
 8855TIP3    H226523   0.667   5.140   3.495
 8856TIP3   OH226524   1.488   3.452   5.031
 8856TIP3    H126525   1.523   3.369   5.063
 8856TIP3    H226526   1.403   3.429   4.992
 8857TIP3   OH226527   0.682   0.535   6.666
 8857TIP3    H126528   0.709   0.444   6.669
 8857TIP3    H226529   0.683   0.557   6.573
 8858TIP3   OH226530   4.547   6.832   2.616
 8858TIP3    H126531   4.537   6.911   2.669
 8858TIP3    H226532   4.637   6.838   2.581
 8859TIP3   OH226533   7.940   6.290   3.870
 8859TIP3    H126534   7.882   6.250   3.805
 8859TIP3    H226535   7.881   6.322   3.938
 8860TIP3   OH226536   3.743   1.191   5.351
 8860TIP3    H126537   3.748   1.226   5.262
 8860TIP3    H226538   3.826   1.147   5.365
 8861TIP3   OH226539   7.124   7.331   3.382
 8861TIP3    H126540   7.078   7.412   3.404
 8861TIP3    H226541   7.176   7.311   3.459
 8862TIP3   OH226542   7.305   7.279   2.824
 8862TIP3    H126543   7.349   7.252   2.905
 8862TIP3    H226544   7.342   7.222   2.756
 8863TIP3   OH226545   7.176   3.601   6.072
 8863TIP3    H126546   7.168   3.696   6.081
 8863TIP3    H226547   7.088   3.568   6.087
 8864TIP3   OH226548   6.218   3.650   3.133
 8864TIP3    H126549   6.255   3.565   3.110
 8864TIP3    H226550   6.294   3.703   3.156
 8865TIP3   OH226551   4.050   5.716   2.771
 8865TIP3    H126552   4.007   5.681   2.849
 8865TIP3    H226553   3.978   5.740   2.712
 8866TIP3   OH226554   4.388   7.088   1.928
 8866TIP3    H126555   4.400   7.066   1.835
 8866TIP3    H226556   4.473   7.123   1.955
 8867TIP3   OH226557   2.658   0.811   3.254
 8867TIP3    H126558   2.741   0.858   3.259
 8867TIP3    H226559   2.682   0.723   3.223
 8868TIP3   OH226560   6.326   3.384   2.929
 8868TIP3    H126561   6.407   3.357   2.973
 8868TIP3    H226562   6.354   3.405   2.840
 8869TIP3   OH226563   3.918   2.022   4.067
 8869TIP3    H126564   3.866   2.092   4.029
 8869TIP3    H226565   3.886   2.013   4.157
 8870TIP3   OH226566   7.595   3.748   4.625
 8870TIP3    H126567   7.547   3.788   4.553
 8870TIP3    H226568   7.570   3.656   4.622
 8871TIP3   OH226569   6.101   0.366   2.833
 8871TIP3    H126570   6.077   0.346   2.743
 8871TIP3    H226571   6.192   0.338   2.841
 8872TIP3   OH226572   3.555   5.653   5.968
 8872TIP3    H126573   3.544   5.585   6.035
 8872TIP3    H226574   3.493   5.629   5.899
 8873TIP3   OH226575   0.122   0.072   3.642
 8873TIP3    H126576   0.214   0.047   3.651
 8873TIP3    H226577   0.075  -0.011   3.641
 8874TIP3   OH226578   5.868   1.199   2.509
 8874TIP3    H126579   5.809   1.273   2.526
 8874TIP3    H226580   5.929   1.200   2.582
 8875TIP3   OH226581   2.804   1.128   6.708
 8875TIP3    H126582   2.872   1.126   6.641
 8875TIP3    H226583   2.726   1.160   6.661
 8876TIP3   OH226584   7.222   5.362   3.012
 8876TIP3    H126585   7.157   5.420   3.052
 8876TIP3    H226586   7.248   5.408   2.932
 8877TIP3   OH226587   0.350   5.885   3.954
 8877TIP3    H126588   0.360   5.898   4.049
 8877TIP3    H226589   0.274   5.827   3.947
 8878TIP3   OH226590   1.099   5.450   0.256
 8878TIP3    H126591   1.006   5.470   0.242
 8878TIP3    H226592   1.138   5.534   0.282
 8879TIP3   OH226593   4.199   5.132   0.309
 8879TIP3    H126594   4.174   5.073   0.380
 8879TIP3    H226595   4.286   5.163   0.334
 8880TIP3   OH226596   7.457   4.961   2.877
 8880TIP3    H126597   7.495   4.919   2.954
 8880TIP3    H226598   7.431   4.888   2.821
 8881TIP3   OH226599   0.545   2.078   0.761
 8881TIP3    H126600   0.612   2.120   0.708
 8881TIP3    H226601   0.585   1.996   0.790
 8882TIP3   OH226602   3.944   2.075   6.477
 8882TIP3    H126603   3.925   2.118   6.393
 8882TIP3    H226604   4.024   2.024   6.460
 8883TIP3   OH226605   6.770   6.989   0.566
 8883TIP3    H126606   6.699   7.047   0.592
 8883TIP3    H226607   6.756   6.909   0.617
 8884TIP3   OH226608   5.583   0.786   2.636
 8884TIP3    H126609   5.596   0.694   2.614
 8884TIP3    H226610   5.559   0.785   2.729
 8885TIP3   OH226611   2.568   6.464   3.321
 8885TIP3    H126612   2.621   6.430   3.393
 8885TIP3    H226613   2.502   6.519   3.363
 8886TIP3   OH226614   3.296   3.734   3.105
 8886TIP3    H126615   3.382   3.691   3.101
 8886TIP3    H226616   3.233   3.665   3.084
 8887TIP3   OH226617   7.783   7.732   3.823
 8887TIP3    H126618   7.788   7.801   3.890
 8887TIP3    H226619   7.710   7.677   3.851
 8888TIP3   OH226620   6.536   0.648   4.254
 8888TIP3    H126621   6.514   0.571   4.307
 8888TIP3    H226622   6.624   0.629   4.220
 8889TIP3   OH226623   7.579   3.123   5.660
 8889TIP3    H126624   7.509   3.077   5.706
 8889TIP3    H226625   7.586   3.208   5.703
 8890TIP3   OH226626   3.184   3.348   6.524
 8890TIP3    H126627   3.271   3.378   6.549
 8890TIP3    H226628   3.124   3.411   6.563
 8891TIP3   OH226629   5.620   3.814   3.716
 8891TIP3    H126630   5.632   3.804   3.810
 8891TIP3    H226631   5.552   3.881   3.707
 8892TIP3   OH226632   0.891   1.507   3.695
 8892TIP3    H126633   0.866   1.547   3.611
 8892TIP3    H226634   0.833   1.547   3.759
 8893TIP3   OH226635   7.802   7.393   2.721
 8893TIP3    H126636   7.763   7.345   2.794
 8893TIP3    H226637   7.842   7.470   2.762
 8894TIP3   OH226638   0.262   6.402   3.305
 8894TIP3    H126639   0.231   6.492   3.310
 8894TIP3    H226640   0.284   6.389   3.213
 8895TIP3   OH226641   2.108   3.513   6.051
 8895TIP3    H126642   2.106   3.582   6.117
 8895TIP3    H226643   2.058   3.548   5.977
 8896TIP3   OH226644   2.633   2.578   4.622
 8896TIP3    H126645   2.545   2.569   4.659
 8896TIP3    H226646   2.661   2.665   4.650
 8897TIP3   OH226647   3.213   3.510   1.765
 8897TIP3    H126648   3.138   3.451   1.756
 8897TIP3    H226649   3.286   3.453   1.788
 8898TIP3   OH226650   5.943   0.178   5.774
 8898TIP3    H126651   5.870   0.119   5.792
 8898TIP3    H226652   5.962   0.166   5.681
 8899TIP3   OH226653   0.071   3.942   3.379
 8899TIP3    H126654   0.110   3.859   3.407
 8899TIP3    H226655   0.126   3.970   3.306
 8900TIP3   OH226656   2.715   5.057   1.732
 8900TIP3    H126657   2.660   4.983   1.707
 8900TIP3    H226658   2.779   5.065   1.662
 8901TIP3   OH226659   0.231   4.086   0.898
 8901TIP3    H126660   0.247   3.995   0.922
 8901TIP3    H226661   0.259   4.137   0.974
 8902TIP3   OH226662   5.137   6.977   2.872
 8902TIP3    H126663   5.069   6.922   2.832
 8902TIP3    H226664   5.088   7.043   2.921
 8903TIP3   OH226665   5.907   5.391   5.504
 8903TIP3    H126666   5.880   5.331   5.573
 8903TIP3    H226667   5.989   5.356   5.471
 8904TIP3   OH226668   6.504   5.787   2.525
 8904TIP3    H126669   6.434   5.740   2.479
 8904TIP3    H226670   6.561   5.818   2.455
 8905TIP3   OH226671   6.927   7.041   1.023
 8905TIP3    H126672   6.835   7.025   1.002
 8905TIP3    H226673   6.973   6.965   0.989
 8906TIP3   OH226674   3.427   6.636   2.197
 8906TIP3    H126675   3.353   6.666   2.144
 8906TIP3    H226676   3.477   6.715   2.216
 8907TIP3   OH226677   2.036   7.081   4.163
 8907TIP3    H126678   2.073   7.082   4.251
 8907TIP3    H226679   1.959   7.139   4.168
 8908TIP3   OH226680   5.066   2.490   5.630
 8908TIP3    H126681   5.072   2.433   5.553
 8908TIP3    H226682   5.062   2.430   5.704
 8909TIP3   OH226683   7.870   4.571   5.539
 8909TIP3    H126684   7.846   4.495   5.486
 8909TIP3    H226685   7.955   4.599   5.504
 8910TIP3   OH226686   1.173   5.505   2.056
 8910TIP3    H126687   1.229   5.578   2.082
 8910TIP3    H226688   1.147   5.465   2.139
 8911TIP3   OH226689   0.239   6.468   1.804
 8911TIP3    H126690   0.203   6.386   1.768
 8911TIP3    H226691   0.249   6.525   1.727
 8912TIP3   OH226692   3.088   7.296   5.758
 8912TIP3    H126693   3.064   7.367   5.818
 8912TIP3    H226694   3.159   7.250   5.802
 8913TIP3   OH226695   5.715   1.963   1.341
 8913TIP3    H126696   5.765   1.967   1.422
 8913TIP3    H226697   5.686   2.053   1.327
 8914TIP3   OH226698   1.784   5.128   0.887
 8914TIP3    H126699   1.872   5.153   0.858
 8914TIP3    H226700   1.763   5.050   0.836
 8915TIP3   OH226701   6.083   3.945   6.585
 8915TIP3    H126702   6.069   3.910   6.673
 8915TIP3    H226703   6.032   3.887   6.528
 8916TIP3   OH226704   5.112   5.846   0.547
 8916TIP3    H126705   5.173   5.827   0.619
 8916TIP3    H226706   5.105   5.941   0.546
 8917TIP3   OH226707   1.815   1.672   6.196
 8917TIP3    H126708   1.858   1.697   6.115
 8917TIP3    H226709   1.873   1.704   6.265
 8918TIP3   OH226710   5.658   1.480   4.095
 8918TIP3    H126711   5.649   1.570   4.065
 8918TIP3    H226712   5.638   1.427   4.017
 8919TIP3   OH226713   3.104   5.404   3.862
 8919TIP3    H126714   3.188   5.363   3.840
 8919TIP3    H226715   3.039   5.338   3.838
 8920TIP3   OH226716   7.019   0.619   1.593
 8920TIP3    H126717   6.967   0.689   1.555
 8920TIP3    H226718   7.041   0.651   1.681
 8921TIP3   OH226719   2.316   5.704   5.137
 8921TIP3    H126720   2.262   5.630   5.167
 8921TIP3    H226721   2.263   5.782   5.158
 8922TIP3   OH226722   6.670   7.337   5.942
 8922TIP3    H126723   6.615   7.260   5.927
 8922TIP3    H226724   6.686   7.337   6.036
 8923TIP3   OH226725   1.507   4.409   1.657
 8923TIP3    H126726   1.527   4.477   1.722
 8923TIP3    H226727   1.465   4.456   1.585
 8924TIP3   OH226728   7.223   5.506   4.997
 8924TIP3    H126729   7.145   5.554   4.968
 8924TIP3    H226730   7.207   5.487   5.089
 8925TIP3   OH226731   0.862   1.881   1.784
 8925TIP3    H126732   0.880   1.823   1.710
 8925TIP3    H226733   0.914   1.959   1.767
 8926TIP3   OH226734   2.208   3.631   6.426
 8926TIP3    H126735   2.157   3.700   6.470
 8926TIP3    H226736   2.288   3.675   6.398
 8927TIP3   OH226737   2.280   1.831   3.652
 8927TIP3    H126738   2.311   1.762   3.710
 8927TIP3    H226739   2.185   1.831   3.662
 8928TIP3   OH226740   4.495   3.210   6.208
 8928TIP3    H126741   4.457   3.296   6.192
 8928TIP3    H226742   4.545   3.220   6.288
 8929TIP3   OH226743   1.549   3.135   5.584
 8929TIP3    H126744   1.555   3.103   5.494
 8929TIP3    H226745   1.629   3.104   5.625
 8930TIP3   OH226746   7.813   2.883   3.753
 8930TIP3    H126747   7.744   2.940   3.787
 8930TIP3    H226748   7.881   2.944   3.723
 8931TIP3   OH226749   7.064   2.119   1.130
 8931TIP3    H126750   6.975   2.134   1.098
 8931TIP3    H226751   7.091   2.038   1.086
 8932TIP3   OH226752   4.741   6.254   0.100
 8932TIP3    H126753   4.677   6.254   0.029
 8932TIP3    H226754   4.769   6.163   0.108
 8933TIP3   OH226755   5.385   4.454   4.000
 8933TIP3    H126756   5.463   4.508   4.000
 8933TIP3    H226757   5.322   4.503   4.053
 8934TIP3   OH226758   8.242   1.127   3.059
 8934TIP3    H126759   8.179   1.056   3.068
 8934TIP3    H226760   8.193   1.207   3.079
 8935TIP3   OH226761   5.907   7.016   3.790
 8935TIP3    H126762   5.953   6.949   3.841
 8935TIP3    H226763   5.974   7.079   3.766
 8936TIP3   OH226764   7.610   5.142   5.840
 8936TIP3    H126765   7.568   5.123   5.756
 8936TIP3    H226766   7.545   5.193   5.889
 8937TIP3   OH226767   7.244   3.612   1.017
 8937TIP3    H126768   7.235   3.687   1.077
 8937TIP3    H226769   7.194   3.637   0.940
 8938TIP3   OH226770   5.756   4.359   6.506
 8938TIP3    H126771   5.680   4.413   6.528
 8938TIP3    H226772   5.720   4.290   6.449
 8939TIP3   OH226773   7.590   4.437   3.534
 8939TIP3    H126774   7.553   4.374   3.473
 8939TIP3    H226775   7.610   4.386   3.613
 8940TIP3   OH226776   1.061   0.090   4.703
 8940TIP3    H126777   1.039   0.014   4.649
 8940TIP3    H226778   0.982   0.143   4.704
 8941TIP3   OH226779   6.732   2.786   5.113
 8941TIP3    H126780   6.745   2.876   5.143
 8941TIP3    H226781   6.638   2.780   5.094
 8942TIP3   OH226782   3.853   5.533   4.506
 8942TIP3    H126783   3.906   5.453   4.511
 8942TIP3    H226784   3.762   5.502   4.510
 8943TIP3   OH226785   0.684   4.737   3.983
 8943TIP3    H126786   0.728   4.656   4.007
 8943TIP3    H226787   0.755   4.795   3.953
 8944TIP3   OH226788   3.863   0.592   1.593
 8944TIP3    H126789   3.815   0.664   1.554
 8944TIP3    H226790   3.955   0.615   1.582
 8945TIP3   OH226791   6.301   2.564   6.222
 8945TIP3    H126792   6.382   2.613   6.237
 8945TIP3    H226793   6.231   2.622   6.252
 8946TIP3   OH226794   6.670   4.835   4.460
 8946TIP3    H126795   6.579   4.851   4.486
 8946TIP3    H226796   6.716   4.916   4.480
 8947TIP3   OH226797   5.506   0.578   0.995
 8947TIP3    H126798   5.414   0.569   0.968
 8947TIP3    H226799   5.534   0.660   0.954
 8948TIP3   OH226800   5.333   1.414   4.192
 8948TIP3    H126801   5.373   1.497   4.217
 8948TIP3    H226802   5.362   1.352   4.259
 8949TIP3   OH226803   6.295   7.112   0.556
 8949TIP3    H126804   6.277   7.160   0.476
 8949TIP3    H226805   6.212   7.112   0.604
 8950TIP3   OH226806   0.418   1.750   5.336
 8950TIP3    H126807   0.477   1.749   5.412
 8950TIP3    H226808   0.459   1.691   5.273
 8951TIP3   OH226809   2.443   3.455   5.455
 8951TIP3    H126810   2.498   3.450   5.377
 8951TIP3    H226811   2.498   3.422   5.526
 8952TIP3   OH226812   7.421   5.954   6.229
 8952TIP3    H126813   7.499   5.938   6.282
 8952TIP3    H226814   7.350   5.960   6.292
 8953TIP3   OH226815   4.097   4.555   1.921
 8953TIP3    H126816   4.177   4.604   1.940
 8953TIP3    H226817   4.039   4.619   1.880
 8954TIP3   OH226818   0.141   6.253   6.531
 8954TIP3    H126819   0.056   6.283   6.564
 8954TIP3    H226820   0.153   6.301   6.449
 8955TIP3   OH226821   3.076   4.291   4.096
 8955TIP3    H126822   3.028   4.284   4.014
 8955TIP3    H226823   3.028   4.234   4.156
 8956TIP3   OH226824   3.910   2.700   3.280
 8956TIP3    H126825   3.910   2.700   3.376
 8956TIP3    H226826   3.954   2.781   3.256
 8957TIP3   OH226827   6.262   6.008   2.147
 8957TIP3    H126828   6.299   6.088   2.184
 8957TIP3    H226829   6.223   6.036   2.064
 8958TIP3   OH226830   6.710   3.640   1.124
 8958TIP3    H126831   6.731   3.579   1.054
 8958TIP3    H226832   6.624   3.611   1.155
 8959TIP3   OH226833   7.410   0.750   5.504
 8959TIP3    H126834   7.452   0.816   5.560
 8959TIP3    H226835   7.408   0.790   5.417
 8960TIP3   OH226836   7.637   0.342   4.178
 8960TIP3    H126837   7.719   0.383   4.149
 8960TIP3    H226838   7.647   0.337   4.274
 8961TIP3   OH226839   5.579   7.486   4.762
 8961TIP3    H126840   5.621   7.404   4.790
 8961TIP3    H226841   5.638   7.522   4.696
 8962TIP3   OH226842   4.777   1.501   3.036
 8962TIP3    H126843   4.725   1.455   3.102
 8962TIP3    H226844   4.772   1.593   3.061
 8963TIP3   OH226845   3.819   1.173   1.053
 8963TIP3    H126846   3.772   1.256   1.056
 8963TIP3    H226847   3.878   1.176   1.128
 8964TIP3   OH226848   0.345   2.099   6.649
 8964TIP3    H126849   0.397   2.176   6.629
 8964TIP3    H226850   0.345   2.094   6.745
 8965TIP3   OH226851   3.817   4.908   6.110
 8965TIP3    H126852   3.878   4.921   6.183
 8965TIP3    H226853   3.795   4.997   6.081
 8966TIP3   OH226854   6.309   3.641   4.291
 8966TIP3    H126855   6.281   3.731   4.309
 8966TIP3    H226856   6.282   3.591   4.368
 8967TIP3   OH226857   2.620   5.585   4.449
 8967TIP3    H126858   2.565   5.619   4.519
 8967TIP3    H226859   2.675   5.659   4.422
 8968TIP3   OH226860   4.099   4.791   1.014
 8968TIP3    H126861   4.057   4.773   0.930
 8968TIP3    H226862   4.192   4.799   0.993
 8969TIP3   OH226863   1.279   1.053   0.595
 8969TIP3    H126864   1.331   1.046   0.515
 8969TIP3    H226865   1.213   0.984   0.586
 8970TIP3   OH226866   5.068   3.245   5.447
 8970TIP3    H126867   4.979   3.278   5.459
 8970TIP3    H226868   5.114   3.317   5.404
 8971TIP3   OH226869   4.002   7.798   3.124
 8971TIP3    H126870   3.922   7.838   3.157
 8971TIP3    H226871   4.023   7.730   3.187
 8972TIP3   OH226872   3.188   0.522   0.365
 8972TIP3    H126873   3.221   0.478   0.443
 8972TIP3    H226874   3.215   0.613   0.376
 8973TIP3   OH226875   7.701   5.552   5.502
 8973TIP3    H126876   7.776   5.513   5.457
 8973TIP3    H226877   7.635   5.560   5.434
 8974TIP3   OH226878   8.109   6.681   0.379
 8974TIP3    H126879   8.028   6.638   0.352
 8974TIP3    H226880   8.082   6.747   0.443
 8975TIP3   OH226881   4.047   1.972   1.105
 8975TIP3    H126882   4.071   2.053   1.060
 8975TIP3    H226883   4.085   1.903   1.050
 8976TIP3   OH226884   2.712   2.545   4.337
 8976TIP3    H126885   2.664   2.536   4.419
 8976TIP3    H226886   2.722   2.455   4.305
 8977TIP3   OH226887   5.119   5.065   6.147
 8977TIP3    H126888   5.026   5.088   6.137
 8977TIP3    H226889   5.122   5.010   6.225
 8978TIP3   OH226890   3.914   1.421   3.754
 8978TIP3    H126891   3.975   1.479   3.799
 8978TIP3    H226892   3.881   1.473   3.681
 8979TIP3   OH226893   7.242   3.174   6.781
 8979TIP3    H126894   7.334   3.156   6.759
 8979TIP3    H226895   7.204   3.206   6.699
 8980TIP3   OH226896   4.730   3.258   4.614
 8980TIP3    H126897   4.758   3.231   4.526
 8980TIP3    H226898   4.731   3.354   4.611
 8981TIP3   OH226899   6.717   1.469   4.716
 8981TIP3    H126900   6.768   1.523   4.655
 8981TIP3    H226901   6.663   1.531   4.765
 8982TIP3   OH226902   4.860   6.583   2.805
 8982TIP3    H126903   4.830   6.655   2.860
 8982TIP3    H226904   4.897   6.625   2.727
 8983TIP3   OH226905   5.535   2.036   1.978
 8983TIP3    H126906   5.530   1.941   1.973
 8983TIP3    H226907   5.576   2.062   1.895
 8984TIP3   OH226908   8.165   0.494   3.801
 8984TIP3    H126909   8.185   0.475   3.709
 8984TIP3    H226910   8.251   0.512   3.840
 8985TIP3   OH226911   5.738   0.196   0.679
 8985TIP3    H126912   5.689   0.187   0.760
 8985TIP3    H226913   5.696   0.269   0.634
 8986TIP3   OH226914   7.300   6.141   2.810
 8986TIP3    H126915   7.304   6.091   2.892
 8986TIP3    H226916   7.298   6.232   2.838
 8987TIP3   OH226917   7.088   7.068   1.269
 8987TIP3    H126918   7.177   7.097   1.287
 8987TIP3    H226919   7.078   7.079   1.174
 8988TIP3   OH226920   4.422   2.896   5.880
 8988TIP3    H126921   4.499   2.931   5.925
 8988TIP3    H226922   4.447   2.894   5.788
 8989TIP3   OH226923   0.936   5.855   4.101
 8989TIP3    H126924   1.029   5.831   4.109
 8989TIP3    H226925   0.911   5.824   4.014
 8990TIP3   OH226926   3.336   0.036   5.695
 8990TIP3    H126927   3.376   0.118   5.665
 8990TIP3    H226928   3.394   0.006   5.765
 8991TIP3   OH226929   4.619   2.160   0.117
 8991TIP3    H126930   4.639   2.134   0.206
 8991TIP3    H226931   4.704   2.178   0.077
 8992TIP3   OH226932   6.580   4.038   3.539
 8992TIP3    H126933   6.574   4.109   3.603
 8992TIP3    H226934   6.538   4.072   3.460
 8993TIP3   OH226935   3.657   7.676   2.959
 8993TIP3    H126936   3.562   7.684   2.968
 8993TIP3    H226937   3.670   7.601   2.902
 8994TIP3   OH226938   0.276   0.248   4.116
 8994TIP3    H126939   0.317   0.319   4.066
 8994TIP3    H226940   0.350   0.196   4.148
 8995TIP3   OH226941   0.684   3.260   0.423
 8995TIP3    H126942   0.590   3.277   0.413
 8995TIP3    H226943   0.701   3.279   0.515
 8996TIP3   OH226944   7.033   5.551   3.061
 8996TIP3    H126945   7.007   5.618   3.124
 8996TIP3    H226946   6.970   5.559   2.990
 8997TIP3   OH226947   0.606   6.278   6.374
 8997TIP3    H126948   0.572   6.261   6.287
 8997TIP3    H226949   0.528   6.296   6.427
 8998TIP3   OH226950   2.997   1.056   0.990
 8998TIP3    H126951   3.079   1.006   0.986
 8998TIP3    H226952   3.006   1.110   1.069
 8999TIP3   OH226953   0.980   0.595   6.008
 8999TIP3    H126954   1.019   0.529   5.951
 8999TIP3    H226955   1.052   0.622   6.065
 9000TIP3   OH226956   2.374   2.996   2.714
 9000TIP3    H126957   2.451   3.038   2.676
 9000TIP3    H226958   2.348   3.053   2.787
 9001TIP3   OH226959   3.956   4.596   3.459
 9001TIP3    H126960   3.946   4.671   3.401
 9001TIP3    H226961   3.960   4.520   3.400
 9002TIP3   OH226962   2.654   6.232   3.797
 9002TIP3    H126963   2.563   6.239   3.767
 9002TIP3    H226964   2.658   6.290   3.873
 9003TIP3   OH226965   3.257   3.187   5.492
 9003TIP3    H126966   3.294   3.105   5.525
 9003TIP3    H226967   3.171   3.193   5.532
 9004TIP3   OH226968   4.840   1.127   5.380
 9004TIP3    H126969   4.846   1.037   5.412
 9004TIP3    H226970   4.871   1.123   5.290
 9005TIP3   OH226971   2.466   5.081   4.467
 9005TIP3    H126972   2.498   5.157   4.420
 9005TIP3    H226973   2.438   5.114   4.552
 9006TIP3   OH226974   6.452   2.002   1.573
 9006TIP3    H126975   6.423   2.024   1.662
 9006TIP3    H226976   6.434   2.081   1.522
 9007TIP3   OH226977   7.642   2.577   4.178
 9007TIP3    H126978   7.632   2.587   4.084
 9007TIP3    H226979   7.607   2.658   4.215
 9008TIP3   OH226980   7.689   5.906   0.299
 9008TIP3    H126981   7.634   5.972   0.341
 9008TIP3    H226982   7.721   5.948   0.220
 9009TIP3   OH226983   4.999   5.963   5.378
 9009TIP3    H126984   5.022   6.046   5.419
 9009TIP3    H226985   5.079   5.911   5.384
 9010TIP3   OH226986   5.058   1.077   3.829
 9010TIP3    H126987   5.093   1.085   3.740
 9010TIP3    H226988   5.001   1.000   3.825
 9011TIP3   OH226989   0.548   7.823   0.111
 9011TIP3    H126990   0.537   7.900   0.167
 9011TIP3    H226991   0.585   7.756   0.169
 9012TIP3   OH226992   8.044   7.054   5.879
 9012TIP3    H126993   7.999   6.984   5.832
 9012TIP3    H226994   8.082   7.010   5.956
 9013TIP3   OH226995   3.751   4.868   3.527
 9013TIP3    H126996   3.700   4.923   3.468
 9013TIP3    H226997   3.713   4.781   3.519
 9014TIP3   OH226998   6.164   3.755   6.306
 9014TIP3    H126999   6.199   3.701   6.376
 9014TIP3    H227000   6.214   3.837   6.312
 9015TIP3   OH227001   5.351   3.755   3.603
 9015TIP3    H127002   5.438   3.735   3.639
 9015TIP3    H227003   5.325   3.835   3.650
 9016TIP3   OH227004   3.269   4.408   2.516
 9016TIP3    H127005   3.309   4.446   2.595
 9016TIP3    H227006   3.175   4.419   2.530
 9017TIP3   OH227007   5.744   1.161   6.101
 9017TIP3    H127008   5.834   1.140   6.077
 9017TIP3    H227009   5.697   1.165   6.017
 9018TIP3   OH227010   5.360   6.601   1.547
 9018TIP3    H127011   5.329   6.521   1.589
 9018TIP3    H227012   5.404   6.650   1.616
 9019TIP3   OH227013   6.532   2.550   2.309
 9019TIP3    H127014   6.477   2.616   2.351
 9019TIP3    H227015   6.493   2.538   2.223
 9020TIP3   OH227016   6.288   0.199   5.767
 9020TIP3    H127017   6.243   0.141   5.829
 9020TIP3    H227018   6.247   0.181   5.683
 9021TIP3   OH227019   7.036   3.323   4.663
 9021TIP3    H127020   6.969   3.279   4.611
 9021TIP3    H227021   7.118   3.287   4.631
 9022TIP3   OH227022   3.945   5.307   4.157
 9022TIP3    H127023   3.852   5.306   4.180
 9022TIP3    H227024   3.973   5.396   4.178
 9023TIP3   OH227025   2.965   3.434   3.356
 9023TIP3    H127026   2.875   3.440   3.324
 9023TIP3    H227027   2.978   3.340   3.373
 9024TIP3   OH227028   1.623   3.455   2.865
 9024TIP3    H127029   1.575   3.501   2.934
 9024TIP3    H227030   1.627   3.364   2.895
 9025TIP3   OH227031   6.781   7.268   4.611
 9025TIP3    H127032   6.835   7.346   4.596
 9025TIP3    H227033   6.840   7.195   4.596
 9026TIP3   OH227034   5.846   2.459   4.243
 9026TIP3    H127035   5.770   2.514   4.263
 9026TIP3    H227036   5.842   2.448   4.148
 9027TIP3   OH227037   1.348   3.828   2.864
 9027TIP3    H127038   1.283   3.771   2.822
 9027TIP3    H227039   1.380   3.778   2.939
 9028TIP3   OH227040   1.823   7.333   2.482
 9028TIP3    H127041   1.761   7.323   2.555
 9028TIP3    H227042   1.774   7.305   2.405
 9029TIP3   OH227043   3.748   6.127   3.501
 9029TIP3    H127044   3.764   6.040   3.537
 9029TIP3    H227045   3.654   6.142   3.515
 9030TIP3   OH227046   1.172   7.203   0.271
 9030TIP3    H127047   1.174   7.132   0.207
 9030TIP3    H227048   1.206   7.164   0.351
 9031TIP3   OH227049   6.313   5.579   4.323
 9031TIP3    H127050   6.365   5.618   4.393
 9031TIP3    H227051   6.325   5.637   4.248
 9032TIP3   OH227052   3.170   4.642   1.949
 9032TIP3    H127053   3.104   4.648   2.018
 9032TIP3    H227054   3.163   4.552   1.917
 9033TIP3   OH227055   3.325   4.864   6.430
 9033TIP3    H127056   3.351   4.775   6.455
 9033TIP3    H227057   3.257   4.888   6.493
 9034TIP3   OH227058   1.686   7.554   6.170
 9034TIP3    H127059   1.599   7.535   6.205
 9034TIP3    H227060   1.733   7.597   6.242
 9035TIP3   OH227061   0.085   0.290   0.191
 9035TIP3    H127062   0.034   0.368   0.213
 9035TIP3    H227063   0.040   0.253   0.115
 9036TIP3   OH227064   7.124   5.063   1.752
 9036TIP3    H127065   7.185   5.062   1.826
 9036TIP3    H227066   7.058   5.127   1.777
 9037TIP3   OH227067   4.879   3.588   0.005
 9037TIP3    H127068   4.908   3.574   0.095
 9037TIP3    H227069   4.944   3.646  -0.033
 9038TIP3   OH227070   0.767   3.513   1.114
 9038TIP3    H127071   0.857   3.482   1.120
 9038TIP3    H227072   0.720   3.466   1.183
 9039TIP3   OH227073   0.874   0.049   2.105
 9039TIP3    H127074   0.922   0.096   2.173
 9039TIP3    H227075   0.942   0.009   2.050
 9040TIP3   OH227076   1.452   6.720   5.894
 9040TIP3    H127077   1.424   6.710   5.803
 9040TIP3    H227078   1.476   6.631   5.921
 9041TIP3   OH227079   0.274   2.936   5.433
 9041TIP3    H127080   0.201   2.900   5.484
 9041TIP3    H227081   0.245   2.931   5.342
 9042TIP3   OH227082   2.384   3.795   1.948
 9042TIP3    H127083   2.451   3.802   1.880
 9042TIP3    H227084   2.433   3.772   2.027
 9043TIP3   OH227085   4.101   5.631   0.118
 9043TIP3    H127086   4.065   5.542   0.124
 9043TIP3    H227087   4.080   5.659   0.029
 9044TIP3   OH227088   6.600   1.413   2.243
 9044TIP3    H127089   6.528   1.474   2.228
 9044TIP3    H227090   6.619   1.420   2.336
 9045TIP3   OH227091   1.528   5.546   0.379
 9045TIP3    H127092   1.491   5.526   0.293
 9045TIP3    H227093   1.584   5.623   0.363
 9046TIP3   OH227094   5.293   1.084   4.711
 9046TIP3    H127095   5.235   1.127   4.774
 9046TIP3    H227096   5.376   1.131   4.721
 9047TIP3   OH227097   7.687   0.395   5.857
 9047TIP3    H127098   7.597   0.427   5.864
 9047TIP3    H227099   7.740   0.463   5.899
 9048TIP3   OH227100   7.318   7.144   4.921
 9048TIP3    H127101   7.367   7.173   4.843
 9048TIP3    H227102   7.354   7.196   4.993
 9049TIP3   OH227103   0.320   3.831   5.070
 9049TIP3    H127104   0.233   3.843   5.107
 9049TIP3    H227105   0.309   3.845   4.976
 9050TIP3   OH227106   6.250   5.456   2.025
 9050TIP3    H127107   6.170   5.405   2.040
 9050TIP3    H227108   6.221   5.547   2.030
 9051TIP3   OH227109   7.942   5.053   2.774
 9051TIP3    H127110   7.865   5.077   2.827
 9051TIP3    H227111   7.906   5.034   2.688
 9052TIP3   OH227112   3.361   4.598   3.301
 9052TIP3    H127113   3.406   4.533   3.353
 9052TIP3    H227114   3.397   4.682   3.329
 9053TIP3   OH227115   7.672   7.440   6.018
 9053TIP3    H127116   7.595   7.493   6.037
 9053TIP3    H227117   7.731   7.458   6.091
 9054TIP3   OH227118   4.939   5.779   1.104
 9054TIP3    H127119   4.998   5.755   1.033
 9054TIP3    H227120   4.898   5.860   1.075
 9055TIP3   OH227121   2.131   3.662   3.586
 9055TIP3    H127122   2.215   3.628   3.555
 9055TIP3    H227123   2.097   3.711   3.511
 9056TIP3   OH227124   0.455   5.529   3.375
 9056TIP3    H127125   0.430   5.445   3.413
 9056TIP3    H227126   0.543   5.547   3.410
 9057TIP3   OH227127   6.240   4.088   0.072
 9057TIP3    H127128   6.248   4.020   0.005
 9057TIP3    H227129   6.330   4.103   0.101
 9058TIP3   OH227130   7.220   3.156   3.389
 9058TIP3    H127131   7.139   3.205   3.391
 9058TIP3    H227132   7.232   3.123   3.478
 9059TIP3   OH227133   2.216   3.038   0.750
 9059TIP3    H127134   2.239   2.981   0.677
 9059TIP3    H227135   2.288   3.025   0.813
 9060TIP3   OH227136   7.015   2.470   4.893
 9060TIP3    H127137   7.066   2.545   4.926
 9060TIP3    H227138   6.984   2.426   4.973
 9061TIP3   OH227139   6.493   0.204   5.165
 9061TIP3    H127140   6.528   0.248   5.242
 9061TIP3    H227141   6.515   0.112   5.177
 9062TIP3   OH227142   4.586   1.737   5.428
 9062TIP3    H127143   4.495   1.712   5.445
 9062TIP3    H227144   4.626   1.742   5.515
 9063TIP3   OH227145   3.974   3.194   1.444
 9063TIP3    H127146   4.041   3.228   1.385
 9063TIP3    H227147   4.020   3.131   1.499
 9064TIP3   OH227148   2.869   4.219   1.720
 9064TIP3    H127149   2.915   4.135   1.730
 9064TIP3    H227150   2.789   4.208   1.771
 9065TIP3   OH227151   1.706   4.273   3.924
 9065TIP3    H127152   1.753   4.356   3.914
 9065TIP3    H227153   1.614   4.299   3.924
 9066TIP3   OH227154   3.390   1.922   6.126
 9066TIP3    H127155   3.311   1.965   6.157
 9066TIP3    H227156   3.450   1.993   6.102
 9067TIP3   OH227157   2.818   4.661   2.730
 9067TIP3    H127158   2.723   4.664   2.739
 9067TIP3    H227159   2.843   4.576   2.768
 9068TIP3   OH227160   6.797   5.893   4.560
 9068TIP3    H127161   6.805   5.853   4.646
 9068TIP3    H227162   6.754   5.826   4.506
 9069TIP3   OH227163   0.599   0.322   3.507
 9069TIP3    H127164   0.565   0.389   3.447
 9069TIP3    H227165   0.671   0.364   3.553
 9070TIP3   OH227166   7.130   4.293   4.426
 9070TIP3    H127167   7.206   4.331   4.382
 9070TIP3    H227168   7.072   4.268   4.354
 9071TIP3   OH227169   2.548   6.680   1.522
 9071TIP3    H127170   2.476   6.692   1.585
 9071TIP3    H227171   2.516   6.719   1.441
 9072TIP3   OH227172   5.812   4.802   1.912
 9072TIP3    H127173   5.828   4.841   1.826
 9072TIP3    H227174   5.764   4.722   1.894
 9073TIP3   OH227175   1.498   1.371   5.156
 9073TIP3    H127176   1.435   1.374   5.227
 9073TIP3    H227177   1.560   1.303   5.181
 9074TIP3   OH227178   1.435   1.137   1.301
 9074TIP3    H127179   1.355   1.087   1.304
 9074TIP3    H227180   1.413   1.221   1.341
 9075TIP3   OH227181   1.029   6.532   3.994
 9075TIP3    H127182   0.988   6.619   3.987
 9075TIP3    H227183   0.999   6.486   3.916
 9076TIP3   OH227184   0.745   6.397   1.924
 9076TIP3    H127185   0.660   6.400   1.880
 9076TIP3    H227186   0.809   6.399   1.853
 9077TIP3   OH227187   1.541   3.210   1.281
 9077TIP3    H127188   1.586   3.126   1.290
 9077TIP3    H227189   1.544   3.249   1.368
 9078TIP3   OH227190   4.669   7.502   2.481
 9078TIP3    H127191   4.752   7.531   2.519
 9078TIP3    H227192   4.683   7.510   2.386
 9079TIP3   OH227193   2.334   0.804   5.867
 9079TIP3    H127194   2.384   0.850   5.799
 9079TIP3    H227195   2.397   0.794   5.939
 9080TIP3   OH227196   6.329   3.066   1.767
 9080TIP3    H127197   6.290   3.089   1.683
 9080TIP3    H227198   6.404   3.010   1.745
 9081TIP3   OH227199   3.422   1.722   3.077
 9081TIP3    H127200   3.329   1.735   3.094
 9081TIP3    H227201   3.467   1.778   3.141
 9082TIP3   OH227202   2.393   4.208   2.729
 9082TIP3    H127203   2.463   4.157   2.688
 9082TIP3    H227204   2.412   4.205   2.823
 9083TIP3   OH227205   2.127   7.046   1.544
 9083TIP3    H127206   2.093   6.957   1.548
 9083TIP3    H227207   2.209   7.039   1.496
 9084TIP3   OH227208   6.742   6.677   2.752
 9084TIP3    H127209   6.659   6.705   2.790
 9084TIP3    H227210   6.768   6.750   2.695
 9085TIP3   OH227211   6.770   0.460   5.552
 9085TIP3    H127212   6.746   0.553   5.547
 9085TIP3    H227213   6.736   0.432   5.637
 9086TIP3   OH227214   7.106   1.701   0.149
 9086TIP3    H127215   7.157   1.726   0.072
 9086TIP3    H227216   7.034   1.764   0.151
 9087TIP3   OH227217   1.468   6.537   6.374
 9087TIP3    H127218   1.387   6.524   6.325
 9087TIP3    H227219   1.536   6.544   6.307
 9088TIP3   OH227220   4.593   5.963   5.163
 9088TIP3    H127221   4.649   6.039   5.178
 9088TIP3    H227222   4.523   5.972   5.228
 9089TIP3   OH227223   6.993   1.570   0.761
 9089TIP3    H127224   7.081   1.557   0.724
 9089TIP3    H227225   6.938   1.591   0.686
 9090TIP3   OH227226   6.051   4.770   4.248
 9090TIP3    H127227   6.022   4.832   4.181
 9090TIP3    H227228   5.982   4.702   4.248
 9091TIP3   OH227229   7.925   3.676   1.471
 9091TIP3    H127230   7.975   3.720   1.403
 9091TIP3    H227231   7.986   3.613   1.509
 9092TIP3   OH227232   0.718   3.376   4.903
 9092TIP3    H127233   0.658   3.402   4.973
 9092TIP3    H227234   0.662   3.331   4.839
 9093TIP3   OH227235   6.241   3.733   0.818
 9093TIP3    H127236   6.167   3.676   0.801
 9093TIP3    H227237   6.299   3.681   0.874
 9094TIP3   OH227238   0.373   2.020   2.448
 9094TIP3    H127239   0.294   1.977   2.481
 9094TIP3    H227240   0.342   2.075   2.376
 9095TIP3   OH227241   1.851   6.021   0.321
 9095TIP3    H127242   1.784   6.017   0.252
 9095TIP3    H227243   1.929   6.056   0.278
 9096TIP3   OH227244   2.830   0.810   1.046
 9096TIP3    H127245   2.853   0.875   0.980
 9096TIP3    H227246   2.761   0.851   1.098
 9097TIP3   OH227247   7.424   5.283   1.322
 9097TIP3    H127248   7.435   5.213   1.387
 9097TIP3    H227249   7.450   5.243   1.239
 9098TIP3   OH227250   3.338   7.201   5.204
 9098TIP3    H127251   3.279   7.174   5.133
 9098TIP3    H227252   3.413   7.241   5.159
 9099TIP3   OH227253   2.772   3.735   0.761
 9099TIP3    H127254   2.704   3.696   0.706
 9099TIP3    H227255   2.847   3.745   0.702
 9100TIP3   OH227256   7.701   7.104   3.804
 9100TIP3    H127257   7.752   7.053   3.742
 9100TIP3    H227258   7.751   7.100   3.886
 9101TIP3   OH227259   3.571   7.673   2.464
 9101TIP3    H127260   3.535   7.752   2.505
 9101TIP3    H227261   3.513   7.657   2.390
 9102TIP3   OH227262   6.446   4.131   5.402
 9102TIP3    H127263   6.464   4.131   5.496
 9102TIP3    H227264   6.513   4.188   5.364
 9103TIP3   OH227265   2.972   2.736   0.669
 9103TIP3    H127266   3.039   2.796   0.635
 9103TIP3    H227267   2.919   2.790   0.728
 9104TIP3   OH227268   6.611   4.964   1.509
 9104TIP3    H127269   6.682   4.925   1.559
 9104TIP3    H227270   6.531   4.925   1.546
 9105TIP3   OH227271   4.017   0.670   0.376
 9105TIP3    H127272   3.959   0.710   0.440
 9105TIP3    H227273   4.016   0.577   0.397
 9106TIP3   OH227274   4.361   5.993   4.391
 9106TIP3    H127275   4.378   5.924   4.456
 9106TIP3    H227276   4.278   5.969   4.351
 9107TIP3   OH227277   5.235   3.220   3.183
 9107TIP3    H127278   5.161   3.195   3.238
 9107TIP3    H227279   5.205   3.299   3.138
 9108TIP3   OH227280   3.052   3.546   5.024
 9108TIP3    H127281   3.099   3.554   5.107
 9108TIP3    H227282   3.106   3.595   4.962
 9109TIP3   OH227283   4.329   1.460   4.127
 9109TIP3    H127284   4.283   1.391   4.176
 9109TIP3    H227285   4.364   1.518   4.194
 9110TIP3   OH227286   0.309   0.648   3.510
 9110TIP3    H127287   0.290   0.730   3.557
 9110TIP3    H227288   0.268   0.580   3.563
 9111TIP3   OH227289   8.201   1.724   0.223
 9111TIP3    H127290   8.281   1.772   0.244
 9111TIP3    H227291   8.130   1.776   0.261
 9112TIP3   OH227292   4.062   3.704   2.654
 9112TIP3    H127293   4.125   3.725   2.585
 9112TIP3    H227294   4.062   3.608   2.658
 9113TIP3   OH227295   6.011   6.264   3.065
 9113TIP3    H127296   6.031   6.246   2.973
 9113TIP3    H227297   6.010   6.359   3.071
 9114TIP3   OH227298   4.652   7.708   1.250
 9114TIP3    H127299   4.582   7.681   1.308
 9114TIP3    H227300   4.622   7.792   1.214
 9115TIP3   OH227301   5.224   7.708   6.271
 9115TIP3    H127302   5.308   7.754   6.270
 9115TIP3    H227303   5.159   7.776   6.253
 9116TIP3   OH227304   6.779   5.267   6.005
 9116TIP3    H127305   6.862   5.227   5.980
 9116TIP3    H227306   6.716   5.236   5.940
 9117TIP3   OH227307   5.664   1.758   4.117
 9117TIP3    H127308   5.591   1.720   4.167
 9117TIP3    H227309   5.731   1.777   4.183
 9118TIP3   OH227310   3.474   6.825   3.138
 9118TIP3    H127311   3.528   6.893   3.098
 9118TIP3    H227312   3.420   6.791   3.066
 9119TIP3   OH227313   0.768   6.440   3.364
 9119TIP3    H127314   0.830   6.474   3.300
 9119TIP3    H227315   0.823   6.394   3.428
 9120TIP3   OH227316   1.268   3.988   5.265
 9120TIP3    H127317   1.291   4.079   5.249
 9120TIP3    H227318   1.202   3.991   5.334
 9121TIP3   OH227319   4.827   0.919   3.890
 9121TIP3    H127320   4.748   0.909   3.942
 9121TIP3    H227321   4.850   0.830   3.863
 9122TIP3   OH227322   5.237   0.237   0.140
 9122TIP3    H127323   5.248   0.176   0.066
 9122TIP3    H227324   5.307   0.215   0.200
 9123TIP3   OH227325   3.941   2.132   5.608
 9123TIP3    H127326   3.884   2.056   5.619
 9123TIP3    H227327   3.987   2.139   5.692
 9124TIP3   OH227328   3.131   7.289   2.834
 9124TIP3    H127329   3.065   7.255   2.774
 9124TIP3    H227330   3.213   7.285   2.784
 9125TIP3   OH227331   3.667   5.393   1.506
 9125TIP3    H127332   3.619   5.437   1.436
 9125TIP3    H227333   3.758   5.420   1.493
 9126TIP3   OH227334   5.450   4.811   2.929
 9126TIP3    H127335   5.437   4.765   2.846
 9126TIP3    H227336   5.378   4.781   2.985
 9127TIP3   OH227337   3.981   1.966   5.362
 9127TIP3    H127338   4.008   1.881   5.398
 9127TIP3    H227339   3.886   1.966   5.367
 9128TIP3   OH227340   7.997   5.963   3.576
 9128TIP3    H127341   8.043   5.879   3.587
 9128TIP3    H227342   8.066   6.029   3.589
 9129TIP3   OH227343   3.462   1.829   4.446
 9129TIP3    H127344   3.471   1.802   4.537
 9129TIP3    H227345   3.520   1.905   4.437
 9130TIP3   OH227346   2.705   4.403   4.813
 9130TIP3    H127347   2.694   4.415   4.907
 9130TIP3    H227348   2.797   4.427   4.797
 9131TIP3   OH227349   0.330   1.471   6.484
 9131TIP3    H127350   0.281   1.389   6.482
 9131TIP3    H227351   0.307   1.515   6.403
 9132TIP3   OH227352   4.861   7.490   3.725
 9132TIP3    H127353   4.814   7.572   3.711
 9132TIP3    H227354   4.948   7.505   3.688
 9133TIP3   OH227355   6.832   7.751   3.251
 9133TIP3    H127356   6.809   7.667   3.291
 9133TIP3    H227357   6.779   7.815   3.299
 9134TIP3   OH227358   0.800   3.832   6.509
 9134TIP3    H127359   0.881   3.834   6.458
 9134TIP3    H227360   0.779   3.924   6.525
 9135TIP3   OH227361   4.391   7.002   5.094
 9135TIP3    H127362   4.425   6.913   5.105
 9135TIP3    H227363   4.445   7.056   5.152
 9136TIP3   OH227364   1.182   0.450   4.308
 9136TIP3    H127365   1.179   0.450   4.404
 9136TIP3    H227366   1.091   0.438   4.281
 9137TIP3   OH227367   0.744   4.733   1.800
 9137TIP3    H127368   0.778   4.694   1.880
 9137TIP3    H227369   0.661   4.687   1.784
 9138TIP3   OH227370   7.311   2.092   2.750
 9138TIP3    H127371   7.395   2.046   2.750
 9138TIP3    H227372   7.281   2.087   2.659
 9139TIP3   OH227373   6.563   0.679   5.061
 9139TIP3    H127374   6.627   0.683   4.989
 9139TIP3    H227375   6.616   0.679   5.140
 9140TIP3   OH227376   3.464   0.586   5.187
 9140TIP3    H127377   3.371   0.566   5.181
 9140TIP3    H227378   3.507   0.518   5.135
 9141TIP3   OH227379   0.874   0.008   1.544
 9141TIP3    H127380   0.804  -0.013   1.481
 9141TIP3    H227381   0.862   0.101   1.563
 9142TIP3   OH227382   0.031   6.916   5.692
 9142TIP3    H127383   0.005   7.007   5.702
 9142TIP3    H227384  -0.019   6.885   5.616
 9143TIP3   OH227385   7.160   5.236   5.535
 9143TIP3    H127386   7.169   5.241   5.630
 9143TIP3    H227387   7.225   5.297   5.501
 9144TIP3   OH227388   1.929   1.383   2.953
 9144TIP3    H127389   1.898   1.470   2.977
 9144TIP3    H227390   1.860   1.348   2.897
 9145TIP3   OH227391   1.104   4.061   3.601
 9145TIP3    H127392   1.120   4.132   3.663
 9145TIP3    H227393   1.009   4.049   3.603
 9146TIP3   OH227394   6.255   4.839   1.925
 9146TIP3    H127395   6.245   4.745   1.939
 9146TIP3    H227396   6.286   4.846   1.835
 9147TIP3   OH227397   6.417   5.490   6.404
 9147TIP3    H127398   6.447   5.577   6.379
 9147TIP3    H227399   6.493   5.433   6.390
 9148TIP3   OH227400   3.857   4.442   2.732
 9148TIP3    H127401   3.810   4.468   2.811
 9148TIP3    H227402   3.808   4.366   2.699
 9149TIP3   OH227403   5.753   7.858   6.196
 9149TIP3    H127404   5.785   7.799   6.264
 9149TIP3    H227405   5.791   7.822   6.115
 9150TIP3   OH227406   1.327   7.715   5.104
 9150TIP3    H127407   1.384   7.696   5.029
 9150TIP3    H227408   1.345   7.643   5.165
 9151TIP3   OH227409   6.367   7.285   6.585
 9151TIP3    H127410   6.419   7.363   6.600
 9151TIP3    H227411   6.388   7.227   6.658
 9152TIP3   OH227412   6.648   0.071   0.634
 9152TIP3    H127413   6.561   0.063   0.596
 9152TIP3    H227414   6.708   0.066   0.559
 9153TIP3   OH227415   4.606   0.384   3.503
 9153TIP3    H127416   4.679   0.443   3.523
 9153TIP3    H227417   4.637   0.334   3.427
 9154TIP3   OH227418   2.024   1.628   2.587
 9154TIP3    H127419   2.081   1.664   2.654
 9154TIP3    H227420   1.937   1.661   2.610
 9155TIP3   OH227421   8.219   1.269   5.144
 9155TIP3    H127422   8.153   1.337   5.136
 9155TIP3    H227423   8.298   1.315   5.175
 9156TIP3   OH227424   1.392   2.603   2.980
 9156TIP3    H127425   1.314   2.585   2.928
 9156TIP3    H227426   1.372   2.568   3.066
 9157TIP3   OH227427   7.362   4.719   3.696
 9157TIP3    H127428   7.399   4.739   3.610
 9157TIP3    H227429   7.436   4.726   3.757
 9158TIP3   OH227430   2.730   1.380   4.046
 9158TIP3    H127431   2.818   1.358   4.076
 9158TIP3    H227432   2.744   1.443   3.976
 9159TIP3   OH227433   0.123   3.462   2.424
 9159TIP3    H127434   0.132   3.452   2.519
 9159TIP3    H227435   0.200   3.417   2.388
 9160TIP3   OH227436   8.049   1.334   3.133
 9160TIP3    H127437   7.965   1.364   3.097
 9160TIP3    H227438   8.074   1.402   3.195
 9161TIP3   OH227439   0.523   0.158   5.093
 9161TIP3    H127440   0.582   0.130   5.024
 9161TIP3    H227441   0.546   0.250   5.108
 9162TIP3   OH227442   8.002   3.983   0.750
 9162TIP3    H127443   8.027   4.044   0.818
 9162TIP3    H227444   7.977   3.903   0.797
 9163TIP3   OH227445   1.598   3.704   0.929
 9163TIP3    H127446   1.515   3.717   0.884
 9163TIP3    H227447   1.594   3.763   1.005
 9164TIP3   OH227448   0.147   3.916   6.110
 9164TIP3    H127449   0.114   3.987   6.055
 9164TIP3    H227450   0.070   3.861   6.125
 9165TIP3   OH227451   2.294   6.168   0.826
 9165TIP3    H127452   2.336   6.121   0.898
 9165TIP3    H227453   2.200   6.156   0.840
 9166TIP3   OH227454   5.710   4.001   4.442
 9166TIP3    H127455   5.640   4.039   4.389
 9166TIP3    H227456   5.736   4.071   4.501
 9167TIP3   OH227457   8.187   2.977   4.931
 9167TIP3    H127458   8.143   2.895   4.955
 9167TIP3    H227459   8.119   3.043   4.937
 9168TIP3   OH227460   1.039   3.578   0.440
 9168TIP3    H127461   1.010   3.490   0.464
 9168TIP3    H227462   0.961   3.619   0.403
 9169TIP3   OH227463   1.154   1.649   3.681
 9169TIP3    H127464   1.098   1.571   3.681
 9169TIP3    H227465   1.169   1.667   3.774
 9170TIP3   OH227466   1.013   5.757   2.208
 9170TIP3    H127467   0.977   5.670   2.191
 9170TIP3    H227468   1.106   5.742   2.224
 9171TIP3   OH227469   5.369   2.888   6.044
 9171TIP3    H127470   5.280   2.887   6.080
 9171TIP3    H227471   5.395   2.796   6.041
 9172TIP3   OH227472   7.509   6.749   4.200
 9172TIP3    H127473   7.589   6.801   4.212
 9172TIP3    H227474   7.505   6.693   4.278
 9173TIP3   OH227475   2.143   2.746   4.781
 9173TIP3    H127476   2.174   2.696   4.857
 9173TIP3    H227477   2.151   2.837   4.808
 9174TIP3   OH227478   0.685   3.402   0.698
 9174TIP3    H127479   0.730   3.486   0.709
 9174TIP3    H227480   0.596   3.417   0.730
 9175TIP3   OH227481   1.880   4.457   0.004
 9175TIP3    H127482   1.882   4.361   0.013
 9175TIP3    H227483   1.960   4.487   0.047
 9176TIP3   OH227484   0.148   1.030   3.404
 9176TIP3    H127485   0.237   1.043   3.438
 9176TIP3    H227486   0.161   1.009   3.312
 9177TIP3   OH227487   2.818   4.344   1.435
 9177TIP3    H127488   2.730   4.311   1.447
 9177TIP3    H227489   2.868   4.307   1.508
 9178TIP3   OH227490   3.153   0.222   1.396
 9178TIP3    H127491   3.163   0.229   1.301
 9178TIP3    H227492   3.110   0.304   1.421
 9179TIP3   OH227493   1.861   0.441   0.786
 9179TIP3    H127494   1.815   0.502   0.843
 9179TIP3    H227495   1.817   0.449   0.701
 9180TIP3   OH227496   2.233   3.667   4.726
 9180TIP3    H127497   2.278   3.720   4.791
 9180TIP3    H227498   2.272   3.693   4.643
 9181TIP3   OH227499   5.389   5.838   5.832
 9181TIP3    H127500   5.324   5.833   5.902
 9181TIP3    H227501   5.471   5.809   5.873
 9182TIP3   OH227502   4.409   6.248   5.452
 9182TIP3    H127503   4.337   6.274   5.511
 9182TIP3    H227504   4.487   6.249   5.507
 9183TIP3   OH227505   0.478   7.353   1.091
 9183TIP3    H127506   0.531   7.427   1.121
 9183TIP3    H227507   0.443   7.315   1.171
 9184TIP3   OH227508   0.501   4.805   0.044
 9184TIP3    H127509   0.443   4.797   0.120
 9184TIP3    H227510   0.452   4.858  -0.018
 9185TIP3   OH227511   3.606   4.450   6.094
 9185TIP3    H127512   3.656   4.401   6.028
 9185TIP3    H227513   3.599   4.538   6.059
 9186TIP3   OH227514   3.379   5.909   4.549
 9186TIP3    H127515   3.414   5.848   4.614
 9186TIP3    H227516   3.292   5.933   4.583
 9187TIP3   OH227517   6.566   6.373   0.780
 9187TIP3    H127518   6.490   6.378   0.837
 9187TIP3    H227519   6.530   6.379   0.691
 9188TIP3   OH227520   2.672   7.700   1.605
 9188TIP3    H127521   2.666   7.648   1.525
 9188TIP3    H227522   2.582   7.726   1.624
 9189TIP3   OH227523   7.883   7.306   2.475
 9189TIP3    H127524   7.837   7.325   2.556
 9189TIP3    H227525   7.912   7.392   2.443
 9190TIP3   OH227526   1.927   3.090   2.367
 9190TIP3    H127527   1.894   3.027   2.432
 9190TIP3    H227528   2.016   3.110   2.396
 9191TIP3   OH227529   8.072   2.162   3.543
 9191TIP3    H127530   8.029   2.247   3.547
 9191TIP3    H227531   8.075   2.142   3.449
 9192TIP3   OH227532   3.568   3.337   6.740
 9192TIP3    H127533   3.623   3.265   6.770
 9192TIP3    H227534   3.618   3.377   6.669
 9193TIP3   OH227535   5.365   5.627   4.196
 9193TIP3    H127536   5.367   5.721   4.180
 9193TIP3    H227537   5.418   5.615   4.274
 9194TIP3   OH227538   5.409   4.962   1.403
 9194TIP3    H127539   5.365   5.013   1.470
 9194TIP3    H227540   5.401   5.014   1.323
 9195TIP3   OH227541   1.326   6.684   5.227
 9195TIP3    H127542   1.285   6.679   5.141
 9195TIP3    H227543   1.277   6.752   5.273
 9196TIP3   OH227544   1.310   6.324   2.997
 9196TIP3    H127545   1.352   6.295   3.077
 9196TIP3    H227546   1.366   6.291   2.927
 9197TIP3   OH227547   7.526   0.080   0.369
 9197TIP3    H127548   7.541   0.169   0.339
 9197TIP3    H227549   7.587   0.069   0.443
 9198TIP3   OH227550   5.033   7.005   0.861
 9198TIP3    H127551   5.063   7.095   0.871
 9198TIP3    H227552   4.960   6.997   0.922
 9199TIP3   OH227553   4.415   4.212   5.104
 9199TIP3    H127554   4.338   4.216   5.047
 9199TIP3    H227555   4.489   4.200   5.045
 9200TIP3   OH227556   2.476   4.610   0.128
 9200TIP3    H127557   2.558   4.636   0.086
 9200TIP3    H227558   2.426   4.692   0.135
 9201TIP3   OH227559   3.560   2.565   4.745
 9201TIP3    H127560   3.559   2.593   4.837
 9201TIP3    H227561   3.598   2.477   4.748
 9202TIP3   OH227562   2.849   0.518   0.631
 9202TIP3    H127563   2.875   0.532   0.540
 9202TIP3    H227564   2.754   0.518   0.630
 9203TIP3   OH227565   4.646   4.131   4.353
 9203TIP3    H127566   4.604   4.112   4.436
 9203TIP3    H227567   4.739   4.120   4.369
 9204TIP3   OH227568   0.529   4.749   6.431
 9204TIP3    H127569   0.523   4.704   6.515
 9204TIP3    H227570   0.622   4.764   6.417
 9205TIP3   OH227571   0.609   2.881   1.932
 9205TIP3    H127572   0.662   2.908   1.857
 9205TIP3    H227573   0.670   2.881   2.006
 9206TIP3   OH227574   6.908   5.909   2.490
 9206TIP3    H127575   6.882   5.946   2.406
 9206TIP3    H227576   6.980   5.966   2.519
 9207TIP3   OH227577   0.880   3.550   6.782
 9207TIP3    H127578   0.908   3.462   6.759
 9207TIP3    H227579   0.792   3.539   6.819
 9208TIP3   OH227580   6.104   3.129   0.821
 9208TIP3    H127581   6.183   3.102   0.868
 9208TIP3    H227582   6.133   3.144   0.731
 9209TIP3   OH227583   5.828   5.771   6.539
 9209TIP3    H127584   5.797   5.857   6.566
 9209TIP3    H227585   5.753   5.713   6.555
 9210TIP3   OH227586   1.046   4.187   4.224
 9210TIP3    H127587   1.099   4.206   4.146
 9210TIP3    H227588   0.956   4.199   4.194
 9211TIP3   OH227589   1.814   7.210   2.188
 9211TIP3    H127590   1.730   7.220   2.231
 9211TIP3    H227591   1.795   7.220   2.094
 9212TIP3   OH227592   4.553   7.493   4.586
 9212TIP3    H127593   4.607   7.530   4.517
 9212TIP3    H227594   4.561   7.398   4.575
 9213TIP3   OH227595   5.022   2.872   0.153
 9213TIP3    H127596   4.939   2.864   0.200
 9213TIP3    H227597   5.083   2.817   0.203
 9214TIP3   OH227598   3.896   6.966   1.795
 9214TIP3    H127599   3.963   7.035   1.797
 9214TIP3    H227600   3.941   6.890   1.759
 9215TIP3   OH227601   2.730   0.460   0.899
 9215TIP3    H127602   2.664   0.526   0.877
 9215TIP3    H227603   2.812   0.510   0.902
 9216TIP3   OH227604   3.839   4.089   2.174
 9216TIP3    H127605   3.832   4.093   2.269
 9216TIP3    H227606   3.925   4.050   2.158
 9217TIP3   OH227607   3.679   6.279   0.220
 9217TIP3    H127608   3.734   6.357   0.213
 9217TIP3    H227609   3.631   6.290   0.302
 9218TIP3   OH227610   0.668   7.825   6.358
 9218TIP3    H127611   0.717   7.759   6.407
 9218TIP3    H227612   0.723   7.843   6.282
 9219TIP3   OH227613   7.288   6.071   4.484
 9219TIP3    H127614   7.332   6.136   4.539
 9219TIP3    H227615   7.294   5.990   4.533
 9220TIP3   OH227616   3.044   1.528   4.958
 9220TIP3    H127617   3.107   1.457   4.945
 9220TIP3    H227618   3.043   1.542   5.052
 9221TIP3   OH227619   7.894   7.609   2.880
 9221TIP3    H127620   7.974   7.642   2.921
 9221TIP3    H227621   7.855   7.685   2.837
 9222TIP3   OH227622   6.005   2.057   4.829
 9222TIP3    H127623   5.977   1.971   4.860
 9222TIP3    H227624   6.073   2.039   4.765
 9223TIP3   OH227625   5.383   6.809   4.756
 9223TIP3    H127626   5.404   6.751   4.682
 9223TIP3    H227627   5.466   6.820   4.802
 9224TIP3   OH227628   4.532   3.479   4.536
 9224TIP3    H127629   4.514   3.407   4.476
 9224TIP3    H227630   4.499   3.449   4.621
 9225TIP3   OH227631   6.273   1.694   2.044
 9225TIP3    H127632   6.270   1.600   2.027
 9225TIP3    H227633   6.213   1.708   2.117
 9226TIP3   OH227634   1.411   1.812   0.734
 9226TIP3    H127635   1.355   1.882   0.700
 9226TIP3    H227636   1.381   1.800   0.825
 9227TIP3   OH227637   5.643   3.396   0.383
 9227TIP3    H127638   5.601   3.310   0.389
 9227TIP3    H227639   5.609   3.433   0.302
 9228TIP3   OH227640   0.148   4.602   2.896
 9228TIP3    H127641   0.150   4.646   2.812
 9228TIP3    H227642   0.061   4.620   2.931
 9229TIP3   OH227643   1.704   4.381   2.834
 9229TIP3    H127644   1.757   4.322   2.887
 9229TIP3    H227645   1.643   4.324   2.788
 9230TIP3   OH227646   2.299   3.675   5.579
 9230TIP3    H127647   2.352   3.623   5.519
 9230TIP3    H227648   2.359   3.743   5.611
 9231TIP3   OH227649   5.705   2.888   6.163
 9231TIP3    H127650   5.708   2.793   6.154
 9231TIP3    H227651   5.714   2.921   6.074
 9232TIP3   OH227652   3.212   3.127   6.357
 9232TIP3    H127653   3.123   3.136   6.321
 9232TIP3    H227654   3.218   3.196   6.422
 9233TIP3   OH227655   2.728   6.111   0.662
 9233TIP3    H127656   2.634   6.104   0.645
 9233TIP3    H227657   2.766   6.031   0.625
 9234TIP3   OH227658   2.344   5.409   6.034
 9234TIP3    H127659   2.316   5.501   6.041
 9234TIP3    H227660   2.433   5.408   6.070
 9235TIP3   OH227661   6.975   2.574   4.222
 9235TIP3    H127662   6.972   2.495   4.275
 9235TIP3    H227663   6.910   2.633   4.263
 9236TIP3   OH227664   3.572   5.450   1.246
 9236TIP3    H127665   3.539   5.369   1.206
 9236TIP3    H227666   3.647   5.474   1.192
 9237TIP3   OH227667   5.234   6.509   2.127
 9237TIP3    H127668   5.175   6.517   2.053
 9237TIP3    H227669   5.212   6.424   2.166
 9238TIP3   OH227670   1.372   6.751   4.423
 9238TIP3    H127671   1.331   6.767   4.338
 9238TIP3    H227672   1.394   6.838   4.457
 9239TIP3   OH227673   0.880   6.194   2.762
 9239TIP3    H127674   0.832   6.269   2.797
 9239TIP3    H227675   0.963   6.229   2.732
 9240TIP3   OH227676   2.761   7.765   0.680
 9240TIP3    H127677   2.798   7.695   0.733
 9240TIP3    H227678   2.773   7.736   0.589
 9241TIP3   OH227679   2.848   3.802   5.819
 9241TIP3    H127680   2.826   3.834   5.732
 9241TIP3    H227681   2.770   3.755   5.848
 9242TIP3   OH227682   1.020   7.767   1.474
 9242TIP3    H127683   0.955   7.706   1.510
 9242TIP3    H227684   1.094   7.762   1.535
 9243TIP3   OH227685   5.453   4.715   2.421
 9243TIP3    H127686   5.510   4.642   2.396
 9243TIP3    H227687   5.495   4.792   2.382
 9244TIP3   OH227688   6.733   1.396   5.248
 9244TIP3    H127689   6.752   1.426   5.159
 9244TIP3    H227690   6.788   1.451   5.304
 9245TIP3   OH227691   7.026   6.775   6.108
 9245TIP3    H127692   6.936   6.800   6.125
 9245TIP3    H227693   7.071   6.857   6.088
 9246TIP3   OH227694   2.204   5.188   3.825
 9246TIP3    H127695   2.198   5.194   3.920
 9246TIP3    H227696   2.147   5.258   3.793
 9247TIP3   OH227697   4.073   7.581   6.152
 9247TIP3    H127698   4.113   7.644   6.210
 9247TIP3    H227699   4.140   7.513   6.140
 9248TIP3   OH227700   3.422   0.742   2.487
 9248TIP3    H127701   3.474   0.812   2.526
 9248TIP3    H227702   3.343   0.785   2.454
 9249TIP3   OH227703   4.495   6.538   0.200
 9249TIP3    H127704   4.486   6.605   0.267
 9249TIP3    H227705   4.558   6.476   0.237
 9250TIP3   OH227706   3.547   2.837   5.259
 9250TIP3    H127707   3.505   2.914   5.296
 9250TIP3    H227708   3.534   2.769   5.325
 9251TIP3   OH227709   0.142   7.318   3.014
 9251TIP3    H127710   0.058   7.274   2.999
 9251TIP3    H227711   0.207   7.257   2.979
 9252TIP3   OH227712   7.497   4.459   1.114
 9252TIP3    H127713   7.469   4.532   1.169
 9252TIP3    H227714   7.417   4.427   1.073
 9253TIP3   OH227715   7.346   0.909   2.459
 9253TIP3    H127716   7.280   0.842   2.443
 9253TIP3    H227717   7.323   0.980   2.399
 9254TIP3   OH227718   5.885   0.471   4.623
 9254TIP3    H127719   5.848   0.386   4.599
 9254TIP3    H227720   5.979   0.457   4.624
 9255TIP3   OH227721   4.298   5.615   5.114
 9255TIP3    H127722   4.298   5.525   5.147
 9255TIP3    H227723   4.244   5.664   5.176
 9256TIP3   OH227724   0.160   1.629   1.022
 9256TIP3    H127725   0.227   1.561   1.015
 9256TIP3    H227726   0.112   1.624   0.940
 9257TIP3   OH227727   3.490   1.976   5.649
 9257TIP3    H127728   3.518   2.054   5.695
 9257TIP3    H227729   3.408   2.002   5.606
 9258TIP3   OH227730   3.153   6.369   3.498
 9258TIP3    H127731   3.100   6.347   3.574
 9258TIP3    H227732   3.226   6.307   3.501
 9259TIP3   OH227733   1.290   3.021   4.383
 9259TIP3    H127734   1.333   2.958   4.440
 9259TIP3    H227735   1.228   2.968   4.332
 9260TIP3   OH227736   1.069   2.615   4.478
 9260TIP3    H127737   1.044   2.575   4.395
 9260TIP3    H227738   1.110   2.544   4.527
 9261TIP3   OH227739   6.125   5.274   5.370
 9261TIP3    H127740   6.110   5.215   5.297
 9261TIP3    H227741   6.191   5.335   5.338
 9262TIP3   OH227742   7.313   4.636   5.391
 9262TIP3    H127743   7.278   4.615   5.305
 9262TIP3    H227744   7.315   4.732   5.394
 9263TIP3   OH227745   0.295   6.589   4.990
 9263TIP3    H127746   0.200   6.596   5.002
 9263TIP3    H227747   0.321   6.673   4.952
 9264TIP3   OH227748   4.979   3.935   3.983
 9264TIP3    H127749   4.994   3.842   3.998
 9264TIP3    H227750   4.884   3.946   3.996
 9265TIP3   OH227751   7.069   4.052   3.444
 9265TIP3    H127752   7.048   3.958   3.447
 9265TIP3    H227753   7.027   4.083   3.364
 9266TIP3   OH227754   5.829   1.962   2.076
 9266TIP3    H127755   5.772   1.934   2.148
 9266TIP3    H227756   5.803   1.907   2.003
 9267TIP3   OH227757   3.857   6.310   1.787
 9267TIP3    H127758   3.920   6.259   1.838
 9267TIP3    H227759   3.909   6.353   1.719
 9268TIP3   OH227760   2.296   1.495   2.782
 9268TIP3    H127761   2.267   1.404   2.774
 9268TIP3    H227762   2.244   1.531   2.853
 9269TIP3   OH227763   6.825   3.474   0.882
 9269TIP3    H127764   6.902   3.515   0.842
 9269TIP3    H227765   6.763   3.465   0.809
 9270TIP3   OH227766   3.794   4.104   0.680
 9270TIP3    H127767   3.775   4.123   0.772
 9270TIP3    H227768   3.775   4.186   0.634
 9271TIP3   OH227769   6.124   6.371   2.193
 9271TIP3    H127770   6.206   6.339   2.231
 9271TIP3    H227771   6.056   6.325   2.240
 9272TIP3   OH227772   5.481   7.602   6.714
 9272TIP3    H127773   5.497   7.687   6.754
 9272TIP3    H227774   5.426   7.621   6.638
 9273TIP3   OH227775   6.744   7.548   4.741
 9273TIP3    H127776   6.751   7.591   4.655
 9273TIP3    H227777   6.752   7.455   4.722
 9274TIP3   OH227778   7.012   1.963   2.428
 9274TIP3    H127779   7.058   1.947   2.345
 9274TIP3    H227780   6.994   1.875   2.462
 9275TIP3   OH227781   1.568   0.935   3.698
 9275TIP3    H127782   1.617   1.017   3.698
 9275TIP3    H227783   1.599   0.889   3.620
 9276TIP3   OH227784   6.295   6.661   2.673
 9276TIP3    H127785   6.252   6.646   2.589
 9276TIP3    H227786   6.291   6.576   2.718
 9277TIP3   OH227787   5.781   5.499   6.053
 9277TIP3    H127788   5.831   5.565   6.005
 9277TIP3    H227789   5.695   5.498   6.011
 9278TIP3   OH227790   7.998   5.214   0.224
 9278TIP3    H127791   7.959   5.273   0.160
 9278TIP3    H227792   8.082   5.255   0.246
 9279TIP3   OH227793   0.680   4.424   2.342
 9279TIP3    H127794   0.731   4.369   2.283
 9279TIP3    H227795   0.619   4.471   2.285
 9280TIP3   OH227796   4.708   3.125   1.161
 9280TIP3    H127797   4.742   3.181   1.231
 9280TIP3    H227798   4.681   3.045   1.207
 9281TIP3   OH227799   5.432   1.717   2.481
 9281TIP3    H127800   5.408   1.742   2.392
 9281TIP3    H227801   5.407   1.793   2.535
 9282TIP3   OH227802   0.791   2.684   5.942
 9282TIP3    H127803   0.724   2.658   5.879
 9282TIP3    H227804   0.744   2.695   6.024
 9283TIP3   OH227805   2.275   2.751   1.307
 9283TIP3    H127806   2.265   2.780   1.397
 9283TIP3    H227807   2.365   2.772   1.284
 9284TIP3   OH227808   6.271   4.356   5.292
 9284TIP3    H127809   6.317   4.276   5.317
 9284TIP3    H227810   6.241   4.393   5.375
 9285TIP3   OH227811   2.977   7.433   3.001
 9285TIP3    H127812   3.032   7.374   2.949
 9285TIP3    H227813   2.888   7.402   2.987
 9286TIP3   OH227814   5.274   0.291   5.036
 9286TIP3    H127815   5.205   0.339   4.990
 9286TIP3    H227816   5.312   0.354   5.096
 9287TIP3   OH227817   2.400   0.445   3.051
 9287TIP3    H127818   2.438   0.461   2.964
 9287TIP3    H227819   2.344   0.520   3.067
 9288TIP3   OH227820   6.453   2.464   2.055
 9288TIP3    H127821   6.509   2.518   1.999
 9288TIP3    H227822   6.431   2.388   2.002
 9289TIP3   OH227823   7.659   7.508   0.618
 9289TIP3    H127824   7.580   7.455   0.628
 9289TIP3    H227825   7.730   7.445   0.619
 9290TIP3   OH227826   6.158   4.072   5.994
 9290TIP3    H127827   6.109   4.090   5.913
 9290TIP3    H227828   6.109   4.119   6.062
 9291TIP3   OH227829   3.701   5.135   2.345
 9291TIP3    H127830   3.609   5.108   2.337
 9291TIP3    H227831   3.736   5.126   2.256
 9292TIP3   OH227832   7.672   1.410   5.424
 9292TIP3    H127833   7.692   1.378   5.336
 9292TIP3    H227834   7.630   1.495   5.411
 9293TIP3   OH227835   3.760   7.196   2.794
 9293TIP3    H127836   3.688   7.134   2.782
 9293TIP3    H227837   3.824   7.149   2.847
 9294TIP3   OH227838   1.812   0.601   0.226
 9294TIP3    H127839   1.831   0.507   0.222
 9294TIP3    H227840   1.743   0.608   0.291
 9295TIP3   OH227841   7.083   0.679   1.007
 9295TIP3    H127842   7.163   0.627   1.001
 9295TIP3    H227843   7.105   0.749   1.069
 9296TIP3   OH227844   0.213   1.514   4.893
 9296TIP3    H127845   0.120   1.526   4.876
 9296TIP3    H227846   0.229   1.422   4.871
 9297TIP3   OH227847   1.632   5.329   3.845
 9297TIP3    H127848   1.686   5.408   3.835
 9297TIP3    H227849   1.672   5.265   3.785
 9298TIP3   OH227850   0.677   5.755   5.219
 9298TIP3    H127851   0.745   5.759   5.151
 9298TIP3    H227852   0.725   5.743   5.301
 9299TIP3   OH227853   0.527   1.130   2.229
 9299TIP3    H127854   0.517   1.157   2.321
 9299TIP3    H227855   0.548   1.212   2.183
 9300TIP3   OH227856   8.091   0.726   2.997
 9300TIP3    H127857   8.151   0.739   3.071
 9300TIP3    H227858   8.118   0.643   2.959
 9301TIP3   OH227859   3.638   3.249   3.505
 9301TIP3    H127860   3.711   3.251   3.443
 9301TIP3    H227861   3.679   3.268   3.589
 9302TIP3   OH227862   3.276   0.411   5.752
 9302TIP3    H127863   3.346   0.359   5.712
 9302TIP3    H227864   3.294   0.408   5.846
 9303TIP3   OH227865   3.348   2.464   1.312
 9303TIP3    H127866   3.341   2.556   1.285
 9303TIP3    H227867   3.356   2.416   1.230
 9304TIP3   OH227868   5.956   3.246   0.498
 9304TIP3    H127869   5.955   3.341   0.507
 9304TIP3    H227870   5.911   3.230   0.415
 9305TIP3   OH227871   7.748   3.611   1.964
 9305TIP3    H127872   7.803   3.533   1.971
 9305TIP3    H227873   7.802   3.682   1.999
 9306TIP3   OH227874   1.212   4.888   0.814
 9306TIP3    H127875   1.168   4.923   0.737
 9306TIP3    H227876   1.282   4.834   0.780
 9307TIP3   OH227877   3.330   7.200   5.896
 9307TIP3    H127878   3.386   7.147   5.839
 9307TIP3    H227879   3.385   7.275   5.919
 9308TIP3   OH227880   6.471   5.812   2.073
 9308TIP3    H127881   6.414   5.888   2.062
 9308TIP3    H227882   6.510   5.797   1.987
 9309TIP3   OH227883   2.603   6.479   1.989
 9309TIP3    H127884   2.695   6.495   2.013
 9309TIP3    H227885   2.591   6.385   2.002
 9310TIP3   OH227886   6.794   6.390   0.100
 9310TIP3    H127887   6.859   6.320   0.109
 9310TIP3    H227888   6.843   6.471   0.113
 9311TIP3   OH227889   1.977   1.745   1.157
 9311TIP3    H127890   2.060   1.749   1.110
 9311TIP3    H227891   1.943   1.658   1.138
 9312TIP3   OH227892   1.570   4.320   0.047
 9312TIP3    H127893   1.576   4.354  -0.042
 9312TIP3    H227894   1.543   4.395   0.100
 9313TIP3   OH227895   6.106   0.078   4.041
 9313TIP3    H127896   6.159   0.122   3.975
 9313TIP3    H227897   6.045   0.024   3.990
 9314TIP3   OH227898   5.483   6.240   6.291
 9314TIP3    H127899   5.571   6.246   6.327
 9314TIP3    H227900   5.490   6.178   6.219
 9315TIP3   OH227901   5.861   2.403   6.385
 9315TIP3    H127902   5.891   2.339   6.450
 9315TIP3    H227903   5.782   2.365   6.348
 9316TIP3   OH227904   5.532   0.280   2.328
 9316TIP3    H127905   5.532   0.370   2.294
 9316TIP3    H227906   5.462   0.237   2.279
 9317TIP3   OH227907   1.692   1.071   0.235
 9317TIP3    H127908   1.707   1.079   0.141
 9317TIP3    H227909   1.605   1.033   0.242
 9318TIP3   OH227910   0.568   2.188   4.362
 9318TIP3    H127911   0.620   2.256   4.318
 9318TIP3    H227912   0.629   2.147   4.423
 9319TIP3   OH227913   3.705   4.994   4.931
 9319TIP3    H127914   3.798   5.009   4.949
 9319TIP3    H227915   3.704   4.962   4.840
 9320TIP3   OH227916   4.415   7.354   1.362
 9320TIP3    H127917   4.364   7.429   1.393
 9320TIP3    H227918   4.372   7.328   1.281
 9321TIP3   OH227919   7.383   4.658   6.778
 9321TIP3    H127920   7.464   4.607   6.767
 9321TIP3    H227921   7.374   4.707   6.696
 9322TIP3   OH227922   1.006   4.112   0.325
 9322TIP3    H127923   0.952   4.138   0.250
 9322TIP3    H227924   1.062   4.188   0.341
 9323TIP3   OH227925   7.726   6.772   0.447
 9323TIP3    H127926   7.637   6.781   0.411
 9323TIP3    H227927   7.784   6.796   0.375
 9324TIP3   OH227928   2.163   2.669   2.717
 9324TIP3    H127929   2.150   2.584   2.760
 9324TIP3    H227930   2.258   2.675   2.704
 9325TIP3   OH227931   5.077   0.663   3.392
 9325TIP3    H127932   5.098   0.736   3.334
 9325TIP3    H227933   5.162   0.625   3.414
 9326TIP3   OH227934   1.528   2.735   4.905
 9326TIP3    H127935   1.494   2.701   4.988
 9326TIP3    H227936   1.475   2.813   4.888
 9327TIP3   OH227937   0.175   0.922   4.806
 9327TIP3    H127938   0.098   0.936   4.861
 9327TIP3    H227939   0.250   0.929   4.866
 9328TIP3   OH227940   4.108   1.596   6.602
 9328TIP3    H127941   4.143   1.512   6.631
 9328TIP3    H227942   4.177   1.659   6.622
 9329TIP3   OH227943   6.805   3.592   1.389
 9329TIP3    H127944   6.891   3.560   1.362
 9329TIP3    H227945   6.759   3.609   1.307
 9330TIP3   OH227946   3.486   5.650   1.406
 9330TIP3    H127947   3.509   5.611   1.322
 9330TIP3    H227948   3.395   5.625   1.420
 9331TIP3   OH227949   5.884   3.001   5.187
 9331TIP3    H127950   5.811   2.995   5.248
 9331TIP3    H227951   5.962   3.000   5.242
 9332TIP3   OH227952   1.373   1.281   6.067
 9332TIP3    H127953   1.457   1.236   6.070
 9332TIP3    H227954   1.332   1.261   6.150
 9333TIP3   OH227955   0.304   1.651   2.021
 9333TIP3    H127956   0.380   1.619   2.069
 9333TIP3    H227957   0.238   1.584   2.034
 9334TIP3   OH227958   7.162   1.193   4.651
 9334TIP3    H127959   7.228   1.262   4.644
 9334TIP3    H227960   7.213   1.112   4.654
 9335TIP3   OH227961   3.483   0.998   4.022
 9335TIP3    H127962   3.505   0.936   3.953
 9335TIP3    H227963   3.417   0.953   4.074
 9336TIP3   OH227964   8.361   7.457   3.956
 9336TIP3    H127965   8.370   7.508   3.876
 9336TIP3    H227966   8.275   7.414   3.946
 9337TIP3   OH227967   8.250   0.077   0.391
 9337TIP3    H127968   8.261   0.126   0.473
 9337TIP3    H227969   8.300   0.128   0.327
 9338TIP3   OH227970   0.105   2.636   0.818
 9338TIP3    H127971   0.089   2.657   0.910
 9338TIP3    H227972   0.164   2.560   0.821
 9339TIP3   OH227973   7.906   3.905   6.520
 9339TIP3    H127974   7.971   3.922   6.589
 9339TIP3    H227975   7.826   3.882   6.567
 9340TIP3   OH227976   7.812   1.045   1.170
 9340TIP3    H127977   7.902   1.078   1.180
 9340TIP3    H227978   7.758   1.123   1.183
 9341TIP3   OH227979   7.032   4.654   4.519
 9341TIP3    H127980   7.029   4.622   4.429
 9341TIP3    H227981   7.081   4.587   4.566
 9342TIP3   OH227982   7.850   7.701   1.408
 9342TIP3    H127983   7.818   7.763   1.474
 9342TIP3    H227984   7.790   7.713   1.334
 9343TIP3   OH227985   3.837   6.051   3.933
 9343TIP3    H127986   3.886   6.123   3.972
 9343TIP3    H227987   3.761   6.092   3.893
 9344TIP3   OH227988   6.235   0.194   3.827
 9344TIP3    H127989   6.307   0.257   3.828
 9344TIP3    H227990   6.156   0.248   3.835
 9345TIP3   OH227991   2.736   3.897   5.094
 9345TIP3    H127992   2.762   3.984   5.064
 9345TIP3    H227993   2.738   3.903   5.190
 9346TIP3   OH227994   6.711   5.202   0.532
 9346TIP3    H127995   6.760   5.129   0.568
 9346TIP3    H227996   6.735   5.277   0.587
 9347TIP3   OH227997   3.965   2.712   0.025
 9347TIP3    H127998   3.880   2.688  -0.011
 9347TIP3    H227999   3.980   2.649   0.096
 9348TIP3   OH228000   7.860   3.100   2.522
 9348TIP3    H128001   7.870   3.026   2.462
 9348TIP3    H228002   7.934   3.091   2.583
 9349TIP3   OH228003   4.763   0.130   3.399
 9349TIP3    H128004   4.846   0.134   3.448
 9349TIP3    H228005   4.722   0.049   3.428
 9350TIP3   OH228006   7.091   7.684   5.597
 9350TIP3    H128007   7.102   7.735   5.677
 9350TIP3    H228008   7.170   7.702   5.546
 9351TIP3   OH228009   6.625   5.717   4.194
 9351TIP3    H128010   6.536   5.741   4.168
 9351TIP3    H228011   6.681   5.764   4.132
 9352TIP3   OH228012   1.634   7.593   1.330
 9352TIP3    H128013   1.585   7.531   1.383
 9352TIP3    H228014   1.587   7.676   1.339
 9353TIP3   OH228015   1.241   1.146   3.077
 9353TIP3    H128016   1.238   1.131   3.172
 9353TIP3    H228017   1.151   1.129   3.048
 9354TIP3   OH228018   0.354   3.220   4.873
 9354TIP3    H128019   0.440   3.217   4.832
 9354TIP3    H228020   0.310   3.141   4.842
 9355TIP3   OH228021   1.855   2.701   4.939
 9355TIP3    H128022   1.800   2.773   4.970
 9355TIP3    H228023   1.905   2.738   4.866
 9356TIP3   OH228024   3.724   4.403   3.515
 9356TIP3    H128025   3.703   4.311   3.528
 9356TIP3    H228026   3.816   4.410   3.540
 9357TIP3   OH228027   2.568   5.751   5.456
 9357TIP3    H128028   2.606   5.704   5.383
 9357TIP3    H228029   2.474   5.755   5.436
 9358TIP3   OH228030   3.984   5.089   4.433
 9358TIP3    H128031   4.078   5.102   4.442
 9358TIP3    H228032   3.947   5.123   4.514
 9359TIP3   OH228033   7.565   7.653   4.236
 9359TIP3    H128034   7.656   7.626   4.245
 9359TIP3    H228035   7.567   7.722   4.170
 9360TIP3   OH228036   0.197   0.859   0.166
 9360TIP3    H128037   0.113   0.903   0.179
 9360TIP3    H228038   0.262   0.929   0.169
 9361TIP3   OH228039   4.065   5.982   3.521
 9361TIP3    H128040   4.009   5.943   3.587
 9361TIP3    H228041   4.025   5.959   3.437
 9362TIP3   OH228042   2.810   4.758   1.321
 9362TIP3    H128043   2.861   4.838   1.332
 9362TIP3    H228044   2.870   4.688   1.343
 9363TIP3   OH228045   5.846   6.463   3.386
 9363TIP3    H128046   5.848   6.452   3.291
 9363TIP3    H228047   5.933   6.496   3.408
 9364TIP3   OH228048   4.915   1.752   5.657
 9364TIP3    H128049   4.933   1.703   5.577
 9364TIP3    H228050   4.995   1.747   5.708
 9365TIP3   OH228051   1.363   2.791   6.785
 9365TIP3    H128052   1.441   2.831   6.746
 9365TIP3    H228053   1.398   2.722   6.842
 9366TIP3   OH228054   4.355   1.683   1.813
 9366TIP3    H128055   4.322   1.766   1.847
 9366TIP3    H228056   4.292   1.617   1.845
 9367TIP3   OH228057   5.794   4.864   3.013
 9367TIP3    H128058   5.729   4.824   2.955
 9367TIP3    H228059   5.855   4.909   2.954
 9368TIP3   OH228060   5.357   4.299   2.477
 9368TIP3    H128061   5.324   4.366   2.417
 9368TIP3    H228062   5.414   4.245   2.423
 9369TIP3   OH228063   4.473   5.886   0.040
 9369TIP3    H128064   4.548   5.876   0.099
 9369TIP3    H228065   4.505   5.945  -0.028
 9370TIP3   OH228066   6.035   2.331   4.400
 9370TIP3    H128067   5.983   2.370   4.330
 9370TIP3    H228068   5.973   2.277   4.449
 9371TIP3   OH228069   2.441   6.284   1.629
 9371TIP3    H128070   2.395   6.346   1.685
 9371TIP3    H228071   2.460   6.209   1.686
 9372TIP3   OH228072   4.499   1.805   3.072
 9372TIP3    H128073   4.483   1.718   3.035
 9372TIP3    H228074   4.591   1.804   3.098
 9373TIP3   OH228075   3.071   6.275   6.500
 9373TIP3    H128076   3.116   6.233   6.573
 9373TIP3    H228077   3.140   6.294   6.437
 9374TIP3   OH228078   2.139   0.296   5.915
 9374TIP3    H128079   2.169   0.386   5.903
 9374TIP3    H228080   2.058   0.290   5.865
 9375TIP3   OH228081   4.144   3.795   1.654
 9375TIP3    H128082   4.187   3.773   1.571
 9375TIP3    H228083   4.187   3.876   1.682
 9376TIP3   OH228084   3.739   0.409   3.919
 9376TIP3    H128085   3.779   0.322   3.912
 9376TIP3    H228086   3.810   0.467   3.945
 9377TIP3   OH228087   6.462   3.675   5.955
 9377TIP3    H128088   6.544   3.626   5.962
 9377TIP3    H228089   6.399   3.623   6.004
 9378TIP3   OH228090   2.381   2.305   4.570
 9378TIP3    H128091   2.353   2.393   4.547
 9378TIP3    H228092   2.300   2.254   4.572
 9379TIP3   OH228093   5.527   0.343   6.208
 9379TIP3    H128094   5.608   0.304   6.176
 9379TIP3    H228095   5.457   0.287   6.172
 9380TIP3   OH228096   4.127   1.187   5.680
 9380TIP3    H128097   4.205   1.188   5.736
 9380TIP3    H228098   4.144   1.256   5.615
 9381TIP3   OH228099   7.109   6.075   5.407
 9381TIP3    H128100   7.113   6.166   5.376
 9381TIP3    H228101   7.030   6.040   5.367
 9382TIP3   OH228102   2.970   1.257   5.678
 9382TIP3    H128103   2.978   1.352   5.687
 9382TIP3    H228104   3.032   1.221   5.741
 9383TIP3   OH228105   0.206   2.889   5.154
 9383TIP3    H128106   0.188   2.866   5.063
 9383TIP3    H228107   0.287   2.940   5.150
 9384TIP3   OH228108   6.846   3.794   0.696
 9384TIP3    H128109   6.915   3.857   0.676
 9384TIP3    H228110   6.888   3.708   0.687
 9385TIP3   OH228111   7.851   0.874   3.369
 9385TIP3    H128112   7.871   0.812   3.299
 9385TIP3    H228113   7.873   0.959   3.332
 9386TIP3   OH228114   0.028   1.973   3.917
 9386TIP3    H128115   0.109   1.923   3.929
 9386TIP3    H228116  -0.024   1.953   3.994
 9387TIP3   OH228117   6.081   3.537   4.101
 9387TIP3    H128118   6.057   3.494   4.182
 9387TIP3    H228119   6.172   3.562   4.113
 9388TIP3   OH228120   5.307   0.248   3.756
 9388TIP3    H128121   5.360   0.169   3.764
 9388TIP3    H228122   5.345   0.309   3.819
 9389TIP3   OH228123   4.704   3.622   5.322
 9389TIP3    H128124   4.660   3.547   5.362
 9389TIP3    H228125   4.794   3.618   5.354
 9390TIP3   OH228126   6.526   1.975   4.273
 9390TIP3    H128127   6.593   1.918   4.235
 9390TIP3    H228128   6.510   2.040   4.206
 9391TIP3   OH228129   6.185   4.560   6.295
 9391TIP3    H128130   6.189   4.638   6.240
 9391TIP3    H228131   6.228   4.492   6.243
 9392TIP3   OH228132   2.608   7.624   2.479
 9392TIP3    H128133   2.641   7.696   2.533
 9392TIP3    H228134   2.519   7.649   2.456
 9393TIP3   OH228135   5.735   4.680   2.688
 9393TIP3    H128136   5.736   4.593   2.727
 9393TIP3    H228137   5.646   4.710   2.699
 9394TIP3   OH228138   3.576   2.672   0.964
 9394TIP3    H128139   3.570   2.645   0.873
 9394TIP3    H228140   3.565   2.591   1.014
 9395TIP3   OH228141   4.306   6.342   2.765
 9395TIP3    H128142   4.242   6.373   2.701
 9395TIP3    H228143   4.323   6.418   2.821
 9396TIP3   OH228144   8.129   4.874   3.687
 9396TIP3    H128145   8.172   4.879   3.772
 9396TIP3    H228146   8.102   4.964   3.668
 9397TIP3   OH228147   8.020   4.346   2.837
 9397TIP3    H128148   7.926   4.352   2.852
 9397TIP3    H228149   8.052   4.286   2.904
 9398TIP3   OH228150   2.699   7.049   0.761
 9398TIP3    H128151   2.699   7.014   0.672
 9398TIP3    H228152   2.784   7.093   0.770
 9399TIP3   OH228153   0.227   3.926   5.669
 9399TIP3    H128154   0.289   3.949   5.738
 9399TIP3    H228155   0.279   3.926   5.589
 9400TIP3   OH228156   6.168   2.922   4.071
 9400TIP3    H128157   6.148   2.838   4.030
 9400TIP3    H228158   6.090   2.943   4.122
 9401TIP3   OH228159   7.406   5.238   1.964
 9401TIP3    H128160   7.454   5.313   1.928
 9401TIP3    H228161   7.465   5.164   1.950
 9402TIP3   OH228162   5.439   2.414   1.099
 9402TIP3    H128163   5.423   2.501   1.138
 9402TIP3    H228164   5.512   2.428   1.038
 9403TIP3   OH228165   4.886   7.758   0.728
 9403TIP3    H128166   4.886   7.678   0.781
 9403TIP3    H228167   4.798   7.763   0.691
 9404TIP3   OH228168   7.626   7.798   6.615
 9404TIP3    H128169   7.705   7.747   6.634
 9404TIP3    H228170   7.636   7.825   6.524
 9405TIP3   OH228171   0.580   1.856   2.590
 9405TIP3    H128172   0.520   1.912   2.539
 9405TIP3    H228173   0.522   1.806   2.648
 9406TIP3   OH228174   3.245   4.859   2.824
 9406TIP3    H128175   3.203   4.776   2.845
 9406TIP3    H228176   3.302   4.839   2.749
 9407TIP3   OH228177   2.746   7.679   6.326
 9407TIP3    H128178   2.739   7.733   6.248
 9407TIP3    H228179   2.767   7.740   6.396
 9408TIP3   OH228180   4.712   0.934   5.134
 9408TIP3    H128181   4.659   1.010   5.158
 9408TIP3    H228182   4.654   0.880   5.081
 9409TIP3   OH228183   7.977   3.896   3.567
 9409TIP3    H128184   7.907   3.960   3.581
 9409TIP3    H228185   8.035   3.938   3.504
 9410TIP3   OH228186   5.113   3.407   2.829
 9410TIP3    H128187   5.110   3.410   2.924
 9410TIP3    H228188   5.189   3.460   2.805
 9411TIP3   OH228189   4.909   2.760   2.236
 9411TIP3    H128190   4.842   2.776   2.170
 9411TIP3    H228191   4.861   2.755   2.319
 9412TIP3   OH228192   1.181   4.772   1.081
 9412TIP3    H128193   1.176   4.799   0.989
 9412TIP3    H228194   1.275   4.774   1.101
 9413TIP3   OH228195   5.702   5.804   0.459
 9413TIP3    H128196   5.785   5.757   0.447
 9413TIP3    H228197   5.669   5.817   0.370
 9414TIP3   OH228198   7.460   3.836   5.418
 9414TIP3    H128199   7.521   3.789   5.361
 9414TIP3    H228200   7.385   3.777   5.427
 9415TIP3   OH228201   7.814   0.068   6.281
 9415TIP3    H128202   7.791   0.161   6.282
 9415TIP3    H228203   7.734   0.024   6.253
 9416TIP3   OH228204   3.575   7.760   5.408
 9416TIP3    H128205   3.629   7.839   5.405
 9416TIP3    H228206   3.638   7.688   5.414
 9417TIP3   OH228207   0.851   0.438   5.248
 9417TIP3    H128208   0.807   0.519   5.273
 9417TIP3    H228209   0.939   0.447   5.284
 9418TIP3   OH228210   3.914   6.895   6.154
 9418TIP3    H128211   3.873   6.889   6.068
 9418TIP3    H228212   4.008   6.903   6.136
 9419TIP3   OH228213   2.097   6.286   4.549
 9419TIP3    H128214   2.088   6.339   4.470
 9419TIP3    H228215   2.140   6.205   4.520
 9420TIP3   OH228216   2.721   5.238   0.112
 9420TIP3    H128217   2.674   5.301   0.058
 9420TIP3    H228218   2.801   5.219   0.062
 9421TIP3   OH228219   0.648   5.376   0.406
 9421TIP3    H128220   0.588   5.443   0.372
 9421TIP3    H228221   0.728   5.425   0.427
 9422TIP3   OH228222   1.154   2.399   6.505
 9422TIP3    H128223   1.245   2.373   6.488
 9422TIP3    H228224   1.149   2.403   6.601
 9423TIP3   OH228225   2.648   2.831   1.953
 9423TIP3    H128226   2.700   2.880   2.017
 9423TIP3    H228227   2.558   2.857   1.971
 9424TIP3   OH228228   5.617   6.805   4.912
 9424TIP3    H128229   5.634   6.834   5.002
 9424TIP3    H228230   5.703   6.793   4.873
 9425TIP3   OH228231   5.723   5.499   3.165
 9425TIP3    H128232   5.787   5.442   3.208
 9425TIP3    H228233   5.685   5.445   3.095
 9426TIP3   OH228234   7.804   0.542   0.692
 9426TIP3    H128235   7.795   0.533   0.597
 9426TIP3    H228236   7.845   0.460   0.720
 9427TIP3   OH228237   3.244   6.787   0.662
 9427TIP3    H128238   3.192   6.867   0.650
 9427TIP3    H228239   3.185   6.716   0.639
 9428TIP3   OH228240   3.800   0.546   1.855
 9428TIP3    H128241   3.711   0.519   1.879
 9428TIP3    H228242   3.797   0.557   1.760
 9429TIP3   OH228243   3.009   0.975   6.160
 9429TIP3    H128244   3.033   1.067   6.173
 9429TIP3    H228245   3.086   0.935   6.119
 9430TIP3   OH228246   7.087   1.060   3.425
 9430TIP3    H128247   7.066   1.070   3.518
 9430TIP3    H228248   7.018   1.110   3.380
 9431TIP3   OH228249   0.212   6.620   5.411
 9431TIP3    H128250   0.270   6.685   5.450
 9431TIP3    H228251   0.238   6.537   5.451
 9432TIP3   OH228252   6.711   0.103   3.993
 9432TIP3    H128253   6.760   0.028   4.027
 9432TIP3    H228254   6.693   0.081   3.901
 9433TIP3   OH228255   6.470   3.915   1.324
 9433TIP3    H128256   6.542   3.962   1.282
 9433TIP3    H228257   6.392   3.942   1.276
 9434TIP3   OH228258   1.289   5.363   4.100
 9434TIP3    H128259   1.349   5.361   4.026
 9434TIP3    H228260   1.249   5.277   4.101
 9435TIP3   OH228261   4.254   2.711   2.994
 9435TIP3    H128262   4.193   2.667   3.052
 9435TIP3    H228263   4.332   2.727   3.047
 9436TIP3   OH228264   5.457   3.617   1.537
 9436TIP3    H128265   5.462   3.533   1.581
 9436TIP3    H228266   5.526   3.614   1.470
 9437TIP3   OH228267   6.128   3.037   0.291
 9437TIP3    H128268   6.036   3.052   0.315
 9437TIP3    H228269   6.158   3.120   0.255
 9438TIP3   OH228270   1.428   2.708   6.160
 9438TIP3    H128271   1.347   2.689   6.206
 9438TIP3    H228272   1.403   2.716   6.068
 9439TIP3   OH228273   0.891   7.337   1.959
 9439TIP3    H128274   0.922   7.392   2.032
 9439TIP3    H228275   0.970   7.292   1.928
 9440TIP3   OH228276   1.009   2.859   5.266
 9440TIP3    H128277   0.929   2.807   5.258
 9440TIP3    H228278   0.980   2.950   5.254
 9441TIP3   OH228279   2.591   1.232   2.974
 9441TIP3    H128280   2.601   1.205   3.066
 9441TIP3    H228281   2.529   1.168   2.937
 9442TIP3   OH228282   5.566   3.350   3.375
 9442TIP3    H128283   5.616   3.377   3.452
 9442TIP3    H228284   5.490   3.408   3.374
 9443TIP3   OH228285   5.043   2.152   2.052
 9443TIP3    H128286   5.013   2.224   2.107
 9443TIP3    H228287   5.120   2.117   2.098
 9444TIP3   OH228288   3.719   0.672   0.967
 9444TIP3    H128289   3.666   0.752   0.969
 9444TIP3    H228290   3.753   0.667   0.878
 9445TIP3   OH228291   7.218   3.487   4.096
 9445TIP3    H128292   7.167   3.410   4.073
 9445TIP3    H228293   7.153   3.556   4.109
 9446TIP3   OH228294   2.044   3.794   2.289
 9446TIP3    H128295   2.101   3.749   2.227
 9446TIP3    H228296   2.102   3.817   2.362
 9447TIP3   OH228297   4.026   0.975   6.640
 9447TIP3    H128298   4.072   0.896   6.613
 9447TIP3    H228299   3.962   0.945   6.704
 9448TIP3   OH228300   6.637   2.850   6.004
 9448TIP3    H128301   6.544   2.850   6.029
 9448TIP3    H228302   6.684   2.852   6.087
 9449TIP3   OH228303   3.294   1.954   0.307
 9449TIP3    H128304   3.275   2.042   0.273
 9449TIP3    H228305   3.269   1.895   0.236
 9450TIP3   OH228306   6.518   5.033   6.558
 9450TIP3    H128307   6.598   4.986   6.580
 9450TIP3    H228308   6.480   5.058   6.643
 9451TIP3   OH228309   7.277   7.053   0.293
 9451TIP3    H128310   7.294   7.142   0.324
 9451TIP3    H228311   7.184   7.051   0.273
 9452TIP3   OH228312   1.801   6.080   5.928
 9452TIP3    H128313   1.824   6.165   5.890
 9452TIP3    H228314   1.777   6.100   6.019
 9453TIP3   OH228315   7.837   7.598   4.243
 9453TIP3    H128316   7.860   7.507   4.223
 9453TIP3    H228317   7.922   7.644   4.245
 9454TIP3   OH228318   4.223   1.082   5.397
 9454TIP3    H128319   4.211   1.103   5.489
 9454TIP3    H228320   4.300   1.134   5.370
 9455TIP3   OH228321   2.077   0.918   6.014
 9455TIP3    H128322   2.039   0.989   5.962
 9455TIP3    H228323   2.141   0.877   5.957
 9456TIP3   OH228324   4.402   0.951   2.998
 9456TIP3    H128325   4.327   0.993   3.040
 9456TIP3    H228326   4.378   0.946   2.906
 9457TIP3   OH228327   5.372   4.261   6.280
 9457TIP3    H128328   5.317   4.216   6.344
 9457TIP3    H228329   5.419   4.191   6.235
 9458TIP3   OH228330   5.490   6.146   6.681
 9458TIP3    H128331   5.530   6.123   6.765
 9458TIP3    H228332   5.531   6.086   6.618
 9459TIP3   OH228333   6.977   1.436   4.417
 9459TIP3    H128334   6.979   1.343   4.440
 9459TIP3    H228335   7.061   1.452   4.373
 9460TIP3   OH228336   4.513   2.780   2.580
 9460TIP3    H128337   4.516   2.725   2.658
 9460TIP3    H228338   4.487   2.721   2.510
 9461TIP3   OH228339   2.695   2.226   3.534
 9461TIP3    H128340   2.674   2.207   3.442
 9461TIP3    H228341   2.689   2.321   3.540
 9462TIP3   OH228342   1.663   6.082   3.614
 9462TIP3    H128343   1.665   6.027   3.692
 9462TIP3    H228344   1.633   6.022   3.545
 9463TIP3   OH228345   8.021   2.392   4.463
 9463TIP3    H128346   7.943   2.374   4.516
 9463TIP3    H228347   7.987   2.438   4.387
 9464TIP3   OH228348   0.704   3.422   5.634
 9464TIP3    H128349   0.775   3.367   5.602
 9464TIP3    H228350   0.668   3.464   5.556
 9465TIP3   OH228351   2.976   2.537   3.171
 9465TIP3    H128352   2.923   2.499   3.241
 9465TIP3    H228353   2.935   2.622   3.154
 9466TIP3   OH228354   3.209   2.233   6.107
 9466TIP3    H128355   3.292   2.279   6.100
 9466TIP3    H228356   3.164   2.275   6.181
 9467TIP3   OH228357   6.957   6.781   5.251
 9467TIP3    H128358   7.001   6.863   5.275
 9467TIP3    H228359   6.901   6.805   5.177
 9468TIP3   OH228360   1.943   3.405   0.476
 9468TIP3    H128361   1.961   3.368   0.390
 9468TIP3    H228362   2.012   3.371   0.532
 9469TIP3   OH228363   2.243   4.514   5.038
 9469TIP3    H128364   2.287   4.459   4.974
 9469TIP3    H228365   2.155   4.477   5.045
 9470TIP3   OH228366   1.716   3.072   6.590
 9470TIP3    H128367   1.630   3.065   6.549
 9470TIP3    H228368   1.699   3.115   6.674
 9471TIP3   OH228369   7.587   7.578   5.178
 9471TIP3    H128370   7.633   7.520   5.239
 9471TIP3    H228371   7.657   7.629   5.136
 9472TIP3   OH228372   2.451   6.614   1.796
 9472TIP3    H128373   2.516   6.573   1.852
 9472TIP3    H228374   2.375   6.556   1.800
 9473TIP3   OH228375   7.612   5.669   4.257
 9473TIP3    H128376   7.621   5.755   4.298
 9473TIP3    H228377   7.534   5.677   4.202
 9474TIP3   OH228378   0.299   6.503   1.202
 9474TIP3    H128379   0.248   6.464   1.273
 9474TIP3    H228380   0.273   6.595   1.201
 9475TIP3   OH228381   2.753   6.383   4.638
 9475TIP3    H128382   2.695   6.366   4.564
 9475TIP3    H228383   2.716   6.331   4.710
 9476TIP3   OH228384   4.946   2.606   3.828
 9476TIP3    H128385   4.887   2.670   3.868
 9476TIP3    H228386   5.031   2.649   3.826
 9477TIP3   OH228387   6.262   0.110   2.540
 9477TIP3    H128388   6.223   0.195   2.558
 9477TIP3    H228389   6.356   0.124   2.549
 9478TIP3   OH228390   7.328   0.987   3.581
 9478TIP3    H128391   7.260   0.991   3.513
 9478TIP3    H228392   7.363   0.898   3.575
 9479TIP3   OH228393   7.762   1.703   5.147
 9479TIP3    H128394   7.843   1.730   5.190
 9479TIP3    H228395   7.790   1.678   5.058
 9480TIP3   OH228396   5.660   6.923   6.615
 9480TIP3    H128397   5.608   6.884   6.545
 9480TIP3    H228398   5.595   6.953   6.679
 9481TIP3   OH228399   6.313   0.342   0.697
 9481TIP3    H128400   6.326   0.288   0.774
 9481TIP3    H228401   6.391   0.396   0.691
 9482TIP3   OH228402   5.629   1.453   1.024
 9482TIP3    H128403   5.597   1.364   1.040
 9482TIP3    H228404   5.603   1.503   1.102
 9483TIP3   OH228405   6.156   0.823   3.352
 9483TIP3    H128406   6.125   0.906   3.388
 9483TIP3    H228407   6.111   0.756   3.403
 9484TIP3   OH228408   2.504   6.729   4.701
 9484TIP3    H128409   2.546   6.730   4.615
 9484TIP3    H228410   2.559   6.785   4.755
 9485TIP3   OH228411   5.241   5.314   5.622
 9485TIP3    H128412   5.264   5.222   5.629
 9485TIP3    H228413   5.153   5.319   5.661
 9486TIP3   OH228414   1.373   5.204   3.243
 9486TIP3    H128415   1.414   5.264   3.305
 9486TIP3    H228416   1.388   5.244   3.157
 9487TIP3   OH228417   4.191   5.642   4.616
 9487TIP3    H128418   4.154   5.553   4.622
 9487TIP3    H228419   4.281   5.628   4.586
 9488TIP3   OH228420   7.660   2.237   3.142
 9488TIP3    H128421   7.697   2.204   3.060
 9488TIP3    H228422   7.606   2.165   3.174
 9489TIP3   OH228423   0.825   1.028   5.016
 9489TIP3    H128424   0.827   0.970   4.940
 9489TIP3    H228425   0.759   1.095   4.994
 9490TIP3   OH228426   6.254   6.995   5.632
 9490TIP3    H128427   6.339   7.027   5.662
 9490TIP3    H228428   6.210   7.072   5.597
 9491TIP3   OH228429   0.278   7.158   4.735
 9491TIP3    H128430   0.261   7.066   4.716
 9491TIP3    H228431   0.255   7.168   4.828
 9492TIP3   OH228432   5.355   3.774   5.633
 9492TIP3    H128433   5.394   3.693   5.666
 9492TIP3    H228434   5.354   3.763   5.538
 9493TIP3   OH228435   2.540   7.545   0.988
 9493TIP3    H128436   2.537   7.550   1.083
 9493TIP3    H228437   2.627   7.578   0.965
 9494TIP3   OH228438   4.589   2.855   6.756
 9494TIP3    H128439   4.495   2.869   6.766
 9494TIP3    H228440   4.628   2.940   6.778
 9495TIP3   OH228441   0.819   1.097   1.096
 9495TIP3    H128442   0.814   1.091   1.001
 9495TIP3    H228443   0.733   1.068   1.127
 9496TIP3   OH228444   0.517   3.564   0.341
 9496TIP3    H128445   0.548   3.588   0.428
 9496TIP3    H228446   0.513   3.647   0.293
 9497TIP3   OH228447   6.602   5.512   3.391
 9497TIP3    H128448   6.547   5.437   3.370
 9497TIP3    H228449   6.581   5.577   3.324
 9498TIP3   OH228450   2.302   1.281   4.774
 9498TIP3    H128451   2.297   1.370   4.739
 9498TIP3    H228452   2.392   1.273   4.806
 9499TIP3   OH228453   6.840   4.782   1.192
 9499TIP3    H128454   6.843   4.689   1.171
 9499TIP3    H228455   6.907   4.794   1.259
 9500TIP3   OH228456   8.176   3.110   6.073
 9500TIP3    H128457   8.111   3.073   6.134
 9500TIP3    H228458   8.130   3.180   6.028
 9501TIP3   OH228459   0.018   4.269   0.876
 9501TIP3    H128460   0.083   4.212   0.835
 9501TIP3    H228461  -0.052   4.209   0.904
 9502TIP3   OH228462   5.293   4.448   5.374
 9502TIP3    H128463   5.377   4.402   5.379
 9502TIP3    H228464   5.227   4.379   5.383
 9503TIP3   OH228465   4.997   3.684   1.966
 9503TIP3    H128466   4.960   3.771   1.983
 9503TIP3    H228467   5.085   3.702   1.932
 9504TIP3   OH228468   5.997   2.963   3.079
 9504TIP3    H128469   5.949   3.033   3.124
 9504TIP3    H228470   5.932   2.923   3.021
 9505TIP3   OH228471   8.070   2.221   1.220
 9505TIP3    H128472   8.004   2.155   1.196
 9505TIP3    H228473   8.112   2.243   1.137
 9506TIP3   OH228474   1.181   4.186   4.716
 9506TIP3    H128475   1.127   4.191   4.638
 9506TIP3    H228476   1.220   4.273   4.724
 9507TIP3   OH228477   0.362   5.441   5.802
 9507TIP3    H128478   0.417   5.493   5.743
 9507TIP3    H228479   0.301   5.505   5.841
 9508TIP3   OH228480   5.678   3.042   6.396
 9508TIP3    H128481   5.592   3.083   6.405
 9508TIP3    H228482   5.668   2.979   6.325
 9509TIP3   OH228483   2.406   2.291   1.827
 9509TIP3    H128484   2.375   2.289   1.736
 9509TIP3    H228485   2.501   2.293   1.821
 9510TIP3   OH228486   6.031   6.521   6.738
 9510TIP3    H128487   6.012   6.600   6.687
 9510TIP3    H228488   5.950   6.470   6.735
 9511TIP3   OH228489   4.992   6.165   1.698
 9511TIP3    H128490   4.913   6.122   1.665
 9511TIP3    H228491   5.064   6.122   1.651
 9512TIP3   OH228492   4.372   7.198   5.705
 9512TIP3    H128493   4.419   7.279   5.688
 9512TIP3    H228494   4.280   7.220   5.691
 9513TIP3   OH228495   1.051   0.921   5.758
 9513TIP3    H128496   1.019   0.954   5.842
 9513TIP3    H228497   1.146   0.934   5.762
 9514TIP3   OH228498   0.165   2.495   6.690
 9514TIP3    H128499   0.110   2.545   6.630
 9514TIP3    H228500   0.251   2.537   6.683
 9515TIP3   OH228501   0.872   1.191   5.259
 9515TIP3    H128502   0.805   1.133   5.225
 9515TIP3    H228503   0.914   1.142   5.329
 9516TIP3   OH228504   4.793   1.663   5.041
 9516TIP3    H128505   4.720   1.619   4.996
 9516TIP3    H228506   4.867   1.602   5.031
 9517TIP3   OH228507   0.071   3.299   4.786
 9517TIP3    H128508   0.157   3.326   4.753
 9517TIP3    H228509   0.074   3.203   4.785
 9518TIP3   OH228510   7.114   2.755   4.066
 9518TIP3    H128511   7.098   2.825   4.130
 9518TIP3    H228512   7.069   2.679   4.103
 9519TIP3   OH228513   3.954   7.080   6.588
 9519TIP3    H128514   4.011   7.153   6.566
 9519TIP3    H228515   3.893   7.073   6.514
 9520TIP3   OH228516   0.714   4.968   2.261
 9520TIP3    H128517   0.800   4.954   2.222
 9520TIP3    H228518   0.698   5.062   2.252
 9521TIP3   OH228519   2.160   4.591   1.551
 9521TIP3    H128520   2.102   4.516   1.538
 9521TIP3    H228521   2.133   4.629   1.634
 9522TIP3   OH228522   5.162   7.789   1.059
 9522TIP3    H128523   5.078   7.831   1.044
 9522TIP3    H228524   5.188   7.756   0.973
 9523TIP3   OH228525   2.814   4.505   2.079
 9523TIP3    H128526   2.888   4.559   2.103
 9523TIP3    H228527   2.836   4.471   1.992
 9524TIP3   OH228528   0.166   4.234   0.521
 9524TIP3    H128529   0.166   4.181   0.441
 9524TIP3    H228530   0.243   4.204   0.570
 9525TIP3   OH228531   3.829   2.330   0.352
 9525TIP3    H128532   3.862   2.387   0.283
 9525TIP3    H228533   3.796   2.253   0.306
 9526TIP3   OH228534   4.801   6.868   5.714
 9526TIP3    H128535   4.886   6.879   5.673
 9526TIP3    H228536   4.738   6.883   5.643
 9527TIP3   OH228537   0.669   3.625   4.376
 9527TIP3    H128538   0.708   3.712   4.380
 9527TIP3    H228539   0.574   3.642   4.374
 9528TIP3   OH228540   0.303   2.698   6.045
 9528TIP3    H128541   0.230   2.658   6.094
 9528TIP3    H228542   0.260   2.745   5.974
 9529TIP3   OH228543   4.063   2.241   4.795
 9529TIP3    H128544   4.148   2.199   4.809
 9529TIP3    H228545   4.029   2.199   4.716
 9530TIP3   OH228546   5.424   1.704   4.225
 9530TIP3    H128547   5.371   1.783   4.227
 9530TIP3    H228548   5.432   1.677   4.316
 9531TIP3   OH228549   6.680   3.761   5.188
 9531TIP3    H128550   6.695   3.738   5.097
 9531TIP3    H228551   6.685   3.678   5.235
 9532TIP3   OH228552   4.880   0.921   1.286
 9532TIP3    H128553   4.788   0.942   1.272
 9532TIP3    H228554   4.890   0.833   1.250
 9533TIP3   OH228555   4.711   3.918   1.227
 9533TIP3    H128556   4.770   3.968   1.283
 9533TIP3    H228557   4.754   3.833   1.216
 9534TIP3   OH228558   6.907   5.428   4.526
 9534TIP3    H128559   6.975   5.364   4.549
 9534TIP3    H228560   6.948   5.486   4.463
 9535TIP3   OH228561   0.579   5.639   4.844
 9535TIP3    H128562   0.540   5.705   4.902
 9535TIP3    H228563   0.505   5.588   4.813
 9536TIP3   OH228564   4.101   3.206   0.020
 9536TIP3    H128565   4.053   3.123   0.018
 9536TIP3    H228566   4.187   3.183   0.057
 9537TIP3   OH228567   6.482   5.689   4.509
 9537TIP3    H128568   6.563   5.703   4.460
 9537TIP3    H228569   6.489   5.600   4.544
 9538TIP3   OH228570   6.732   1.170   1.227
 9538TIP3    H128571   6.770   1.257   1.240
 9538TIP3    H228572   6.673   1.159   1.302
 9539TIP3   OH228573   6.539   7.521   3.585
 9539TIP3    H128574   6.488   7.601   3.575
 9539TIP3    H228575   6.476   7.456   3.615
 9540TIP3   OH228576   6.217   2.027   5.780
 9540TIP3    H128577   6.164   2.061   5.852
 9540TIP3    H228578   6.307   2.041   5.809
 9541TIP3   OH228579   5.295   1.665   6.053
 9541TIP3    H128580   5.330   1.603   5.989
 9541TIP3    H228581   5.200   1.664   6.037
 9542TIP3   OH228582   5.146   7.176   5.260
 9542TIP3    H128583   5.056   7.156   5.234
 9542TIP3    H228584   5.189   7.203   5.179
 9543TIP3   OH228585   2.096   6.536   6.633
 9543TIP3    H128586   2.064   6.462   6.684
 9543TIP3    H228587   2.187   6.547   6.660
 9544TIP3   OH228588   4.725   7.480   1.617
 9544TIP3    H128589   4.740   7.572   1.641
 9544TIP3    H228590   4.645   7.456   1.663
 9545TIP3   OH228591   8.011   5.106   5.427
 9545TIP3    H128592   7.973   5.108   5.515
 9545TIP3    H228593   7.982   5.188   5.386
 9546TIP3   OH228594   4.847   4.493   0.366
 9546TIP3    H128595   4.773   4.547   0.339
 9546TIP3    H228596   4.870   4.443   0.288
 9547TIP3   OH228597   8.282   3.040   5.237
 9547TIP3    H128598   8.339   3.102   5.283
 9547TIP3    H228599   8.327   3.022   5.155
 9548TIP3   OH228600   3.278   0.812   4.783
 9548TIP3    H128601   3.303   0.730   4.741
 9548TIP3    H228602   3.213   0.787   4.849
 9549TIP3   OH228603   7.565   6.194   3.335
 9549TIP3    H128604   7.546   6.100   3.333
 9549TIP3    H228605   7.647   6.203   3.285
 9550TIP3   OH228606   7.849   3.886   4.642
 9550TIP3    H128607   7.758   3.860   4.628
 9550TIP3    H228608   7.882   3.905   4.554
 9551TIP3   OH228609   4.066   4.296   1.753
 9551TIP3    H128610   4.092   4.373   1.804
 9551TIP3    H228611   3.978   4.275   1.784
 9552TIP3   OH228612   7.689   2.022   5.379
 9552TIP3    H128613   7.705   1.982   5.464
 9552TIP3    H228614   7.615   2.081   5.394
 9553TIP3   OH228615   6.869   5.472   6.333
 9553TIP3    H128616   6.877   5.513   6.247
 9553TIP3    H228617   6.798   5.408   6.322
 9554TIP3   OH228618   0.477   3.797   4.576
 9554TIP3    H128619   0.456   3.891   4.575
 9554TIP3    H228620   0.406   3.756   4.526
 9555TIP3   OH228621   3.049   4.782   1.714
 9555TIP3    H128622   3.102   4.758   1.791
 9555TIP3    H228623   2.965   4.739   1.729
 9556TIP3   OH228624   7.323   2.970   4.057
 9556TIP3    H128625   7.347   2.927   4.139
 9556TIP3    H228626   7.240   2.929   4.032
 9557TIP3   OH228627   0.132   5.248   4.410
 9557TIP3    H128628   0.131   5.341   4.389
 9557TIP3    H228629   0.092   5.205   4.335
 9558TIP3   OH228630   0.418   3.433   2.815
 9558TIP3    H128631   0.491   3.470   2.865
 9558TIP3    H228632   0.392   3.355   2.865
 9559TIP3   OH228633   5.532   2.166   3.269
 9559TIP3    H128634   5.547   2.259   3.282
 9559TIP3    H228635   5.578   2.144   3.188
 9560TIP3   OH228636   3.631   0.400   4.573
 9560TIP3    H128637   3.705   0.376   4.628
 9560TIP3    H228638   3.669   0.420   4.488
 9561TIP3   OH228639   7.658   4.462   0.184
 9561TIP3    H128640   7.692   4.421   0.104
 9561TIP3    H228641   7.732   4.460   0.245
 9562TIP3   OH228642   6.734   7.172   2.029
 9562TIP3    H128643   6.752   7.206   1.942
 9562TIP3    H228644   6.735   7.077   2.019
 9563TIP3   OH228645   5.167   5.574   1.838
 9563TIP3    H128646   5.212   5.504   1.885
 9563TIP3    H228647   5.173   5.650   1.897
 9564TIP3   OH228648   4.482   6.747   1.721
 9564TIP3    H128649   4.481   6.702   1.806
 9564TIP3    H228650   4.512   6.679   1.660
 9565TIP3   OH228651   4.415   4.673   3.084
 9565TIP3    H128652   4.397   4.751   3.138
 9565TIP3    H228653   4.467   4.707   3.011
 9566TIP3   OH228654   3.925   4.890   2.104
 9566TIP3    H128655   3.857   4.866   2.168
 9566TIP3    H228656   3.900   4.842   2.025
 9567TIP3   OH228657   7.260   3.051   1.517
 9567TIP3    H128658   7.300   3.135   1.495
 9567TIP3    H228659   7.210   3.069   1.597
 9568TIP3   OH228660   1.096   1.391   4.449
 9568TIP3    H128661   1.050   1.404   4.366
 9568TIP3    H228662   1.112   1.480   4.482
 9569TIP3   OH228663   0.850   1.532   4.760
 9569TIP3    H128664   0.882   1.443   4.745
 9569TIP3    H228665   0.793   1.550   4.684
 9570TIP3   OH228666   3.041   2.049   4.892
 9570TIP3    H128667   2.996   2.091   4.965
 9570TIP3    H228668   2.998   2.084   4.814
 9571TIP3   OH228669   6.224   0.722   0.505
 9571TIP3    H128670   6.223   0.689   0.595
 9571TIP3    H228671   6.281   0.799   0.508
 9572TIP3   OH228672   3.508   4.858   1.219
 9572TIP3    H128673   3.414   4.871   1.218
 9572TIP3    H228674   3.521   4.769   1.184
 9573TIP3   OH228675   2.097   4.017   1.414
 9573TIP3    H128676   2.154   3.976   1.348
 9573TIP3    H228677   2.127   4.108   1.418
 9574TIP3   OH228678   8.157   2.476   2.404
 9574TIP3    H128679   8.190   2.390   2.430
 9574TIP3    H228680   8.225   2.537   2.432
 9575TIP3   OH228681   6.295   1.198   1.262
 9575TIP3    H128682   6.252   1.249   1.331
 9575TIP3    H228683   6.381   1.239   1.252
 9576TIP3   OH228684   0.158   7.795   5.422
 9576TIP3    H128685   0.070   7.761   5.435
 9576TIP3    H228686   0.196   7.799   5.510
 9577TIP3   OH228687   7.030   3.992   0.625
 9577TIP3    H128688   7.120   3.961   0.623
 9577TIP3    H228689   7.034   4.081   0.590
 9578TIP3   OH228690   2.736   4.361   6.296
 9578TIP3    H128691   2.667   4.303   6.264
 9578TIP3    H228692   2.818   4.318   6.271
 9579TIP3   OH228693   6.851   4.800   1.629
 9579TIP3    H128694   6.889   4.758   1.552
 9579TIP3    H228695   6.926   4.842   1.672
 9580TIP3   OH228696   6.951   0.530   0.805
 9580TIP3    H128697   6.968   0.576   0.887
 9580TIP3    H228698   6.867   0.564   0.775
 9581TIP3   OH228699   1.201   7.071   3.394
 9581TIP3    H128700   1.124   7.066   3.338
 9581TIP3    H228701   1.183   7.143   3.454
 9582TIP3   OH228702   4.501   4.756   2.814
 9582TIP3    H128703   4.549   4.702   2.751
 9582TIP3    H228704   4.415   4.769   2.774
 9583TIP3   OH228705   4.838   3.465   3.164
 9583TIP3    H128706   4.812   3.426   3.247
 9583TIP3    H228707   4.755   3.491   3.123
 9584TIP3   OH228708   5.360   5.304   0.037
 9584TIP3    H128709   5.335   5.360   0.111
 9584TIP3    H228710   5.394   5.365  -0.029
 9585TIP3   OH228711   7.792   7.424   3.522
 9585TIP3    H128712   7.824   7.486   3.457
 9585TIP3    H228713   7.859   7.355   3.524
 9586TIP3   OH228714   5.591   5.166   5.954
 9586TIP3    H128715   5.496   5.167   5.940
 9586TIP3    H228716   5.610   5.248   5.998
 9587TIP3   OH228717   1.574   6.609   3.856
 9587TIP3    H128718   1.560   6.702   3.838
 9587TIP3    H228719   1.648   6.607   3.916
 9588TIP3   OH228720   8.074   6.570   3.786
 9588TIP3    H128721   8.053   6.482   3.816
 9588TIP3    H228722   8.121   6.610   3.859
 9589TIP3   OH228723   7.097   1.414   1.299
 9589TIP3    H128724   7.089   1.498   1.344
 9589TIP3    H228725   7.056   1.428   1.214
 9590TIP3   OH228726   3.983   1.995   6.730
 9590TIP3    H128727   3.913   1.933   6.753
 9590TIP3    H228728   3.953   2.036   6.649
 9591TIP3   OH228729   3.277   7.658   0.987
 9591TIP3    H128730   3.210   7.725   0.982
 9591TIP3    H228731   3.231   7.576   0.966
 9592TIP3   OH228732   6.655   7.421   6.200
 9592TIP3    H128733   6.584   7.366   6.233
 9592TIP3    H228734   6.685   7.469   6.277
 9593TIP3   OH228735   5.045   5.365   5.188
 9593TIP3    H128736   4.976   5.299   5.175
 9593TIP3    H228737   5.103   5.325   5.253
 9594TIP3   OH228738   6.448   7.755   3.814
 9594TIP3    H128739   6.394   7.821   3.771
 9594TIP3    H228740   6.534   7.797   3.825
 9595TIP3   OH228741   4.679   4.953   6.264
 9595TIP3    H128742   4.758   4.965   6.318
 9595TIP3    H228743   4.678   5.028   6.205
 9596TIP3   OH228744   2.513   1.556   5.665
 9596TIP3    H128745   2.435   1.531   5.715
 9596TIP3    H228746   2.581   1.496   5.695
 9597TIP3   OH228747   5.108   7.533   3.617
 9597TIP3    H128748   5.165   7.610   3.610
 9597TIP3    H228749   5.105   7.497   3.528
 9598TIP3   OH228750   1.914   5.429   5.962
 9598TIP3    H128751   1.926   5.390   5.875
 9598TIP3    H228752   1.965   5.510   5.958
 9599TIP3   OH228753   3.235   4.981   4.645
 9599TIP3    H128754   3.305   4.977   4.580
 9599TIP3    H228755   3.165   4.928   4.608
 9600TIP3   OH228756   1.644   5.586   4.140
 9600TIP3    H128757   1.646   5.494   4.115
 9600TIP3    H228758   1.719   5.596   4.199
 9601TIP3   OH228759   2.536   3.389   4.577
 9601TIP3    H128760   2.484   3.370   4.655
 9601TIP3    H228761   2.539   3.307   4.528
 9602TIP3   OH228762   4.757   4.101   1.516
 9602TIP3    H128763   4.827   4.070   1.458
 9602TIP3    H228764   4.767   4.049   1.596
 9603TIP3   OH228765   6.907   5.991   1.522
 9603TIP3    H128766   6.987   6.044   1.529
 9603TIP3    H228767   6.853   6.021   1.596
 9604TIP3   OH228768   5.210   4.636   1.749
 9604TIP3    H128769   5.155   4.712   1.769
 9604TIP3    H228770   5.299   4.671   1.748
 9605TIP3   OH228771   7.378   0.697   3.574
 9605TIP3    H128772   7.386   0.659   3.487
 9605TIP3    H228773   7.310   0.646   3.617
 9606TIP3   OH228774   7.055   7.715   6.360
 9606TIP3    H128775   7.044   7.731   6.453
 9606TIP3    H228776   7.015   7.630   6.345
 9607TIP3   OH228777   5.295   2.429   3.896
 9607TIP3    H128778   5.348   2.509   3.894
 9607TIP3    H228779   5.242   2.437   3.975
 9608TIP3   OH228780   7.253   1.374   5.288
 9608TIP3    H128781   7.316   1.313   5.249
 9608TIP3    H228782   7.288   1.390   5.376
 9609TIP3   OH228783   5.660   5.887   4.948
 9609TIP3    H128784   5.588   5.844   4.900
 9609TIP3    H228785   5.715   5.814   4.978
 9610TIP3   OH228786   1.206   1.835   1.300
 9610TIP3    H128787   1.229   1.788   1.220
 9610TIP3    H228788   1.282   1.823   1.357
 9611TIP3   OH228789   7.958   2.824   0.372
 9611TIP3    H128790   8.017   2.775   0.314
 9611TIP3    H228791   7.907   2.756   0.417
 9612TIP3   OH228792   2.014   1.689   6.694
 9612TIP3    H128793   1.980   1.742   6.767
 9612TIP3    H228794   2.035   1.605   6.734
 9613TIP3   OH228795   5.371   0.594   4.901
 9613TIP3    H128796   5.296   0.595   4.841
 9613TIP3    H228797   5.346   0.653   4.972
 9614TIP3   OH228798   7.547   6.608   6.579
 9614TIP3    H128799   7.485   6.676   6.553
 9614TIP3    H228800   7.517   6.579   6.665
 9615TIP3   OH228801   0.834   7.577   0.656
 9615TIP3    H128802   0.830   7.621   0.571
 9615TIP3    H228803   0.927   7.577   0.678
 9616TIP3   OH228804   0.907   2.158   2.506
 9616TIP3    H128805   0.953   2.140   2.423
 9616TIP3    H228806   0.916   2.077   2.556
 9617TIP3   OH228807   6.620   6.930   3.762
 9617TIP3    H128808   6.564   7.008   3.760
 9617TIP3    H228809   6.696   6.957   3.812
 9618TIP3   OH228810   1.579   4.222   2.438
 9618TIP3    H128811   1.612   4.195   2.352
 9618TIP3    H228812   1.496   4.266   2.419
 9619TIP3   OH228813   7.846   1.298   6.400
 9619TIP3    H128814   7.796   1.363   6.350
 9619TIP3    H228815   7.934   1.336   6.408
 9620TIP3   OH228816   1.324   5.170   6.227
 9620TIP3    H128817   1.302   5.241   6.286
 9620TIP3    H228818   1.399   5.127   6.267
 9621TIP3   OH228819   6.923   3.191   0.861
 9621TIP3    H128820   6.868   3.183   0.939
 9621TIP3    H228821   6.938   3.285   0.852
 9622TIP3   OH228822   4.862   6.864   2.812
 9622TIP3    H128823   4.843   6.893   2.723
 9622TIP3    H228824   4.793   6.903   2.866
 9623TIP3   OH228825   4.065   0.108   3.565
 9623TIP3    H128826   4.128   0.178   3.550
 9623TIP3    H228827   3.984   0.138   3.525
 9624TIP3   OH228828   4.158   0.479   0.651
 9624TIP3    H128829   4.091   0.448   0.589
 9624TIP3    H228830   4.241   0.451   0.612
 9625TIP3   OH228831   0.435   4.893   1.842
 9625TIP3    H128832   0.420   4.852   1.757
 9625TIP3    H228833   0.356   4.947   1.856
 9626TIP3   OH228834   2.981   3.521   4.305
 9626TIP3    H128835   2.963   3.470   4.226
 9626TIP3    H228836   2.895   3.550   4.335
 9627TIP3   OH228837   0.314   1.694   3.034
 9627TIP3    H128838   0.394   1.643   3.036
 9627TIP3    H228839   0.307   1.724   2.943
 9628TIP3   OH228840   7.028   3.364   0.076
 9628TIP3    H128841   7.072   3.405   0.001
 9628TIP3    H228842   7.029   3.432   0.144
 9629TIP3   OH228843   6.842   2.109   2.769
 9629TIP3    H128844   6.873   2.084   2.856
 9629TIP3    H228845   6.889   2.189   2.748
 9630TIP3   OH228846   4.886   6.498   4.162
 9630TIP3    H128847   4.848   6.414   4.137
 9630TIP3    H228848   4.940   6.524   4.087
 9631TIP3   OH228849   7.530   4.576   5.926
 9631TIP3    H128850   7.553   4.668   5.913
 9631TIP3    H228851   7.553   4.534   5.843
 9632TIP3   OH228852   2.481   4.438   4.177
 9632TIP3    H128853   2.545   4.435   4.248
 9632TIP3    H228854   2.436   4.353   4.182
 9633TIP3   OH228855   3.524   4.102   6.313
 9633TIP3    H128856   3.457   4.157   6.274
 9633TIP3    H228857   3.483   4.017   6.324
 9634TIP3   OH228858   2.487   1.835   3.105
 9634TIP3    H128859   2.468   1.897   3.034
 9634TIP3    H228860   2.430   1.863   3.177
 9635TIP3   OH228861   6.831   0.068   2.187
 9635TIP3    H128862   6.906   0.127   2.196
 9635TIP3    H228863   6.845   0.024   2.103
 9636TIP3   OH228864   3.080   5.086   2.804
 9636TIP3    H128865   2.994   5.058   2.834
 9636TIP3    H228866   3.130   5.005   2.795
 9637TIP3   OH228867   5.694   7.573   1.040
 9637TIP3    H128868   5.774   7.525   1.017
 9637TIP3    H228869   5.725   7.656   1.077
 9638TIP3   OH228870   1.252   7.810   4.004
 9638TIP3    H128871   1.207   7.798   3.921
 9638TIP3    H228872   1.344   7.792   3.986
 9639TIP3   OH228873   4.994   0.191   6.378
 9639TIP3    H128874   4.912   0.192   6.428
 9639TIP3    H228875   4.969   0.160   6.291
 9640TIP3   OH228876   7.688   7.734   1.892
 9640TIP3    H128877   7.612   7.749   1.948
 9640TIP3    H228878   7.741   7.671   1.940
 9641TIP3   OH228879   8.057   3.794   1.259
 9641TIP3    H128880   8.151   3.811   1.263
 9641TIP3    H228881   8.017   3.878   1.237
 9642TIP3   OH228882   4.474   4.450   1.167
 9642TIP3    H128883   4.382   4.460   1.143
 9642TIP3    H228884   4.517   4.419   1.087
 9643TIP3   OH228885   0.090   7.202   4.520
 9643TIP3    H128886   0.163   7.217   4.581
 9643TIP3    H228887   0.016   7.248   4.559
 9644TIP3   OH228888   2.357   5.544   1.065
 9644TIP3    H128889   2.286   5.600   1.036
 9644TIP3    H228890   2.399   5.592   1.137
 9645TIP3   OH228891   4.351   2.156   2.039
 9645TIP3    H128892   4.316   2.203   1.963
 9645TIP3    H228893   4.277   2.152   2.100
 9646TIP3   OH228894   3.619   1.063   1.449
 9646TIP3    H128895   3.646   1.037   1.361
 9646TIP3    H228896   3.701   1.074   1.497
 9647TIP3   OH228897   2.883   7.057   5.138
 9647TIP3    H128898   2.829   7.097   5.070
 9647TIP3    H228899   2.832   7.067   5.218
 9648TIP3   OH228900   8.144   5.018   0.376
 9648TIP3    H128901   8.225   5.070   0.373
 9648TIP3    H228902   8.079   5.074   0.334
 9649TIP3   OH228903   1.952   1.606   4.880
 9649TIP3    H128904   1.862   1.590   4.909
 9649TIP3    H228905   1.997   1.638   4.958
 9650TIP3   OH228906   7.773   4.650   4.404
 9650TIP3    H128907   7.830   4.578   4.431
 9650TIP3    H228908   7.716   4.612   4.337
 9651TIP3   OH228909   5.999   0.946   1.784
 9651TIP3    H128910   6.037   1.007   1.848
 9651TIP3    H228911   6.054   0.955   1.706
 9652TIP3   OH228912   0.750   0.114   4.927
 9652TIP3    H128913   0.777   0.183   4.866
 9652TIP3    H228914   0.742   0.036   4.873
 9653TIP3   OH228915   7.207   7.426   4.535
 9653TIP3    H128916   7.272   7.495   4.529
 9653TIP3    H228917   7.204   7.387   4.448
 9654TIP3   OH228918   3.241   3.552   2.218
 9654TIP3    H128919   3.159   3.601   2.205
 9654TIP3    H228920   3.214   3.471   2.262
 9655TIP3   OH228921   7.072   1.037   4.273
 9655TIP3    H128922   7.089   1.112   4.216
 9655TIP3    H228923   7.025   1.073   4.348
 9656TIP3   OH228924   5.747   7.597   1.965
 9656TIP3    H128925   5.836   7.615   1.995
 9656TIP3    H228926   5.695   7.594   2.046
 9657TIP3   OH228927   1.887   3.582   3.421
 9657TIP3    H128928   1.807   3.634   3.414
 9657TIP3    H228929   1.958   3.645   3.406
 9658TIP3   OH228930   7.788   0.294   2.050
 9658TIP3    H128931   7.863   0.330   2.099
 9658TIP3    H228932   7.757   0.222   2.104
 9659TIP3   OH228933   2.687   1.401   6.432
 9659TIP3    H128934   2.690   1.451   6.514
 9659TIP3    H228935   2.747   1.447   6.374
 9660TIP3   OH228936   6.469   3.311   4.184
 9660TIP3    H128937   6.454   3.218   4.165
 9660TIP3    H228938   6.450   3.355   4.101
 9661TIP3   OH228939   1.084   7.535   5.249
 9661TIP3    H128940   1.059   7.497   5.165
 9661TIP3    H228941   1.075   7.630   5.236
 9662TIP3   OH228942   3.722   0.365   1.591
 9662TIP3    H128943   3.752   0.323   1.510
 9662TIP3    H228944   3.770   0.448   1.593
 9663TIP3   OH228945   8.012   5.127   3.615
 9663TIP3    H128946   8.087   5.184   3.629
 9663TIP3    H228947   7.987   5.143   3.524
 9664TIP3   OH228948   3.372   4.009   4.366
 9664TIP3    H128949   3.303   3.942   4.369
 9664TIP3    H228950   3.389   4.029   4.458
 9665TIP3   OH228951   1.673   1.783   0.585
 9665TIP3    H128952   1.606   1.843   0.618
 9665TIP3    H228953   1.719   1.753   0.664
 9666TIP3   OH228954   5.688   4.152   6.314
 9666TIP3    H128955   5.700   4.121   6.224
 9666TIP3    H228956   5.629   4.089   6.354
 9667TIP3   OH228957   1.674   2.558   2.872
 9667TIP3    H128958   1.703   2.627   2.813
 9667TIP3    H228959   1.579   2.572   2.881
 9668TIP3   OH228960   2.164   5.096   0.421
 9668TIP3    H128961   2.233   5.095   0.487
 9668TIP3    H228962   2.208   5.124   0.340
 9669TIP3   OH228963   5.583   5.714   1.499
 9669TIP3    H128964   5.635   5.659   1.441
 9669TIP3    H228965   5.571   5.662   1.578
 9670TIP3   OH228966   2.107   1.677   0.546
 9670TIP3    H128967   2.178   1.740   0.562
 9670TIP3    H228968   2.086   1.642   0.633
 9671TIP3   OH228969   0.631   7.560   4.226
 9671TIP3    H128970   0.592   7.587   4.142
 9671TIP3    H228971   0.635   7.640   4.278
 9672TIP3   OH228972   6.462   4.014   0.278
 9672TIP3    H128973   6.511   4.096   0.294
 9672TIP3    H228974   6.474   3.963   0.358
 9673TIP3   OH228975   4.582   2.100   5.227
 9673TIP3    H128976   4.585   2.004   5.224
 9673TIP3    H228977   4.662   2.128   5.183
 9674TIP3   OH228978   4.303   3.351   0.137
 9674TIP3    H128979   4.266   3.391   0.216
 9674TIP3    H228980   4.376   3.298   0.170
 9675TIP3   OH228981   5.906   0.616   3.082
 9675TIP3    H128982   5.857   0.698   3.094
 9675TIP3    H228983   5.862   0.572   3.009
 9676TIP3   OH228984   1.894   2.017   0.256
 9676TIP3    H128985   1.855   2.083   0.313
 9676TIP3    H228986   1.874   1.934   0.298
 9677TIP3   OH228987   1.094   0.003   1.349
 9677TIP3    H128988   1.017   0.029   1.400
 9677TIP3    H228989   1.104   0.073   1.284
 9678TIP3   OH228990   7.113   4.444   4.659
 9678TIP3    H128991   7.118   4.366   4.603
 9678TIP3    H228992   7.151   4.416   4.742
 9679TIP3   OH228993   8.322   3.778   5.140
 9679TIP3    H128994   8.341   3.688   5.164
 9679TIP3    H228995   8.293   3.819   5.221
 9680TIP3   OH228996   6.423   3.767   1.564
 9680TIP3    H128997   6.467   3.786   1.482
 9680TIP3    H228998   6.417   3.672   1.567
 9681TIP3   OH228999   7.274   6.624   1.117
 9681TIP3    H129000   7.199   6.664   1.162
 9681TIP3    H229001   7.255   6.530   1.117
 9682TIP3   OH229002   4.091   7.551   0.836
 9682TIP3    H129003   4.126   7.582   0.752
 9682TIP3    H229004   4.166   7.554   0.895
 9683TIP3   OH229005   4.414   2.586   1.586
 9683TIP3    H129006   4.422   2.511   1.644
 9683TIP3    H229007   4.376   2.655   1.640
 9684TIP3   OH229008   6.550   2.360   3.843
 9684TIP3    H129009   6.480   2.392   3.787
 9684TIP3    H229010   6.616   2.328   3.782
 9685TIP3   OH229011   8.294   3.556   5.668
 9685TIP3    H129012   8.369   3.565   5.610
 9685TIP3    H229013   8.304   3.470   5.708
 9686TIP3   OH229014   4.024   5.693   0.539
 9686TIP3    H129015   3.968   5.704   0.462
 9686TIP3    H229016   4.087   5.626   0.513
 9687TIP3   OH229017   6.067   2.621   2.369
 9687TIP3    H129018   6.082   2.553   2.434
 9687TIP3    H229019   6.078   2.577   2.285
 9688TIP3   OH229020   2.968   0.864   6.402
 9688TIP3    H129021   2.970   0.901   6.314
 9688TIP3    H229022   2.874   0.851   6.420
 9689TIP3   OH229023   6.197   7.657   2.404
 9689TIP3    H129024   6.194   7.746   2.369
 9689TIP3    H229025   6.278   7.653   2.454
 9690TIP3   OH229026   4.660   2.040   0.352
 9690TIP3    H129027   4.592   2.040   0.420
 9690TIP3    H229028   4.724   1.976   0.382
 9691TIP3   OH229029   8.175   6.076   1.540
 9691TIP3    H129030   8.083   6.101   1.528
 9691TIP3    H229031   8.199   6.110   1.626
 9692TIP3   OH229032   4.883   0.228   3.917
 9692TIP3    H129033   4.803   0.228   3.864
 9692TIP3    H229034   4.937   0.297   3.881
 9693TIP3   OH229035   3.040   5.718   0.625
 9693TIP3    H129036   3.093   5.703   0.703
 9693TIP3    H229037   3.035   5.633   0.582
 9694TIP3   OH229038   4.015   4.630   1.617
 9694TIP3    H129039   4.002   4.725   1.608
 9694TIP3    H229040   3.927   4.593   1.609
 9695TIP3   OH229041   2.053   2.820   4.213
 9695TIP3    H129042   1.984   2.854   4.270
 9695TIP3    H229043   2.134   2.837   4.261
 9696TIP3   OH229044   2.001   4.933   5.744
 9696TIP3    H129045   1.924   4.959   5.795
 9696TIP3    H229046   1.987   4.972   5.658
 9697TIP3   OH229047   4.688   5.530   3.826
 9697TIP3    H129048   4.661   5.619   3.802
 9697TIP3    H229049   4.658   5.476   3.753
 9698TIP3   OH229050   0.883   7.513   1.559
 9698TIP3    H129051   0.820   7.457   1.512
 9698TIP3    H229052   0.848   7.520   1.648
 9699TIP3   OH229053   6.133   5.227   5.662
 9699TIP3    H129054   6.220   5.199   5.689
 9699TIP3    H229055   6.138   5.234   5.567
 9700TIP3   OH229056   6.460   1.077   1.017
 9700TIP3    H129057   6.401   1.020   1.066
 9700TIP3    H229058   6.517   1.116   1.084
 9701TIP3   OH229059   2.533   6.081   1.820
 9701TIP3    H129060   2.588   6.120   1.888
 9701TIP3    H229061   2.577   5.999   1.797
 9702TIP3   OH229062   0.374   4.174   2.236
 9702TIP3    H129063   0.352   4.129   2.154
 9702TIP3    H229064   0.442   4.120   2.275
 9703TIP3   OH229065   3.727   4.590   4.230
 9703TIP3    H129066   3.703   4.670   4.184
 9703TIP3    H229067   3.823   4.592   4.235
 9704TIP3   OH229068   7.511   2.554   0.759
 9704TIP3    H129069   7.543   2.528   0.672
 9704TIP3    H229070   7.572   2.621   0.788
 9705TIP3   OH229071   0.560   1.494   3.740
 9705TIP3    H129072   0.489   1.492   3.676
 9705TIP3    H229073   0.618   1.563   3.709
 9706TIP3   OH229074   4.428   6.025   0.280
 9706TIP3    H129075   4.388   6.071   0.354
 9706TIP3    H229076   4.353   5.995   0.228
 9707TIP3   OH229077   7.067   4.803   0.990
 9707TIP3    H129078   7.002   4.757   1.044
 9707TIP3    H229079   7.022   4.882   0.961
 9708TIP3   OH229080   8.022   2.006   6.773
 9708TIP3    H129081   8.105   1.965   6.748
 9708TIP3    H229082   7.970   1.934   6.809
 9709TIP3   OH229083   0.838   1.370   2.322
 9709TIP3    H129084   0.820   1.297   2.380
 9709TIP3    H229085   0.933   1.377   2.320
 9710TIP3   OH229086   8.047   5.733   0.220
 9710TIP3    H129087   7.978   5.702   0.162
 9710TIP3    H229088   8.031   5.828   0.227
 9711TIP3   OH229089   4.785   1.220   5.884
 9711TIP3    H129090   4.785   1.309   5.850
 9711TIP3    H229091   4.868   1.182   5.854
 9712TIP3   OH229092   6.354   4.385   3.371
 9712TIP3    H129093   6.308   4.324   3.429
 9712TIP3    H229094   6.294   4.459   3.360
 9713TIP3   OH229095   6.293   2.772   0.795
 9713TIP3    H129096   6.382   2.806   0.798
 9713TIP3    H229097   6.262   2.792   0.707
 9714TIP3   OH229098   6.097   2.209   1.457
 9714TIP3    H129099   6.174   2.161   1.489
 9714TIP3    H229100   6.094   2.189   1.363
 9715TIP3   OH229101   4.756   3.294   2.166
 9715TIP3    H129102   4.707   3.369   2.198
 9715TIP3    H229103   4.833   3.289   2.223
 9716TIP3   OH229104   2.536   5.355   6.239
 9716TIP3    H129105   2.618   5.306   6.232
 9716TIP3    H229106   2.498   5.327   6.322
 9717TIP3   OH229107   4.760   6.063   1.618
 9717TIP3    H129108   4.727   6.010   1.691
 9717TIP3    H229109   4.765   6.002   1.545
 9718TIP3   OH229110   1.022   5.963   5.887
 9718TIP3    H129111   0.967   6.006   5.821
 9718TIP3    H229112   1.024   6.024   5.960
 9719TIP3   OH229113   0.269   4.631   5.004
 9719TIP3    H129114   0.244   4.683   5.081
 9719TIP3    H229115   0.287   4.544   5.039
 9720TIP3   OH229116   3.892   6.685   2.024
 9720TIP3    H129117   3.968   6.738   1.998
 9720TIP3    H229118   3.918   6.647   2.108
 9721TIP3   OH229119   1.321   6.463   2.122
 9721TIP3    H129120   1.377   6.448   2.197
 9721TIP3    H229121   1.303   6.376   2.086
 9722TIP3   OH229122   5.925   4.751   6.078
 9722TIP3    H129123   5.892   4.827   6.126
 9722TIP3    H229124   6.020   4.760   6.082
 9723TIP3   OH229125   0.687   0.667   5.258
 9723TIP3    H129126   0.766   0.710   5.226
 9723TIP3    H229127   0.665   0.714   5.339
 9724TIP3   OH229128   7.804   5.280   4.966
 9724TIP3    H129129   7.892   5.270   4.931
 9724TIP3    H229130   7.816   5.309   5.056
 9725TIP3   OH229131   2.613   5.577   4.797
 9725TIP3    H129132   2.677   5.530   4.851
 9725TIP3    H229133   2.655   5.662   4.781
 9726TIP3   OH229134   5.805   3.969   1.627
 9726TIP3    H129135   5.850   3.905   1.682
 9726TIP3    H229136   5.851   4.052   1.643
 9727TIP3   OH229137   1.682   4.305   6.792
 9727TIP3    H129138   1.653   4.213   6.798
 9727TIP3    H229139   1.733   4.309   6.711
 9728TIP3   OH229140   6.737   0.593   3.441
 9728TIP3    H129141   6.651   0.580   3.401
 9728TIP3    H229142   6.720   0.651   3.515
 9729TIP3   OH229143   1.370   3.296   3.182
 9729TIP3    H129144   1.465   3.290   3.196
 9729TIP3    H229145   1.360   3.363   3.114
 9730TIP3   OH229146   2.975   4.212   0.827
 9730TIP3    H129147   3.045   4.276   0.836
 9730TIP3    H229148   2.993   4.147   0.895
 9731TIP3   OH229149   2.340   7.701   2.358
 9731TIP3    H129150   2.280   7.655   2.417
 9731TIP3    H229151   2.285   7.730   2.286
 9732TIP3   OH229152   0.304   3.815   3.522
 9732TIP3    H129153   0.226   3.772   3.556
 9732TIP3    H229154   0.318   3.776   3.436
 9733TIP3   OH229155   0.504   3.401   2.555
 9733TIP3    H129156   0.457   3.402   2.639
 9733TIP3    H229157   0.585   3.448   2.573
 9734TIP3   OH229158   4.932   1.064   1.892
 9734TIP3    H129159   5.025   1.086   1.894
 9734TIP3    H229160   4.916   1.020   1.976
 9735TIP3   OH229161   1.582   2.237   3.972
 9735TIP3    H129162   1.650   2.214   4.036
 9735TIP3    H229163   1.500   2.211   4.013
 9736TIP3   OH229164   2.439   3.328   3.119
 9736TIP3    H129165   2.450   3.422   3.100
 9736TIP3    H229166   2.522   3.303   3.160
 9737TIP3   OH229167   7.911   6.270   6.613
 9737TIP3    H129168   7.838   6.319   6.575
 9737TIP3    H229169   7.899   6.278   6.708
 9738TIP3   OH229170   6.365   0.953   5.533
 9738TIP3    H129171   6.404   1.012   5.468
 9738TIP3    H229172   6.279   0.990   5.551
 9739TIP3   OH229173   1.583   7.076   5.434
 9739TIP3    H129174   1.602   6.994   5.478
 9739TIP3    H229175   1.610   7.144   5.497
 9740TIP3   OH229176   7.218   6.652   5.014
 9740TIP3    H129177   7.254   6.716   4.953
 9740TIP3    H229178   7.137   6.691   5.044
 9741TIP3   OH229179   2.959   5.850   0.121
 9741TIP3    H129180   2.887   5.841   0.182
 9741TIP3    H229181   2.996   5.762   0.113
 9742TIP3   OH229182   2.565   4.484   3.448
 9742TIP3    H129183   2.593   4.560   3.398
 9742TIP3    H229184   2.579   4.509   3.539
 9743TIP3   OH229185   2.828   0.015   3.072
 9743TIP3    H129186   2.773   0.082   3.112
 9743TIP3    H229187   2.874  -0.026   3.146
 9744TIP3   OH229188   7.007   4.686   4.996
 9744TIP3    H129189   6.996   4.592   5.007
 9744TIP3    H229190   7.080   4.695   4.935
 9745TIP3   OH229191   6.781   5.764   0.709
 9745TIP3    H129192   6.819   5.721   0.632
 9745TIP3    H229193   6.846   5.828   0.736
 9746TIP3   OH229194   2.914   0.978   3.232
 9746TIP3    H129195   2.924   0.947   3.142
 9746TIP3    H229196   2.948   0.906   3.285
 9747TIP3   OH229197   0.608   7.349   1.892
 9747TIP3    H129198   0.699   7.322   1.883
 9747TIP3    H229199   0.607   7.440   1.863
 9748TIP3   OH229200   7.759   1.069   3.611
 9748TIP3    H129201   7.786   1.076   3.519
 9748TIP3    H229202   7.824   1.011   3.650
 9749TIP3   OH229203   0.945   7.110   6.457
 9749TIP3    H129204   0.930   7.198   6.423
 9749TIP3    H229205   1.040   7.098   6.451
 9750TIP3   OH229206   7.628   1.294   2.875
 9750TIP3    H129207   7.669   1.208   2.881
 9750TIP3    H229208   7.643   1.322   2.785
 9751TIP3   OH229209   7.844   7.605   6.586
 9751TIP3    H129210   7.813   7.524   6.546
 9751TIP3    H229211   7.916   7.633   6.529
 9752TIP3   OH229212   2.853   3.100   2.567
 9752TIP3    H129213   2.834   3.007   2.565
 9752TIP3    H229214   2.882   3.117   2.657
 9753TIP3   OH229215   2.170   2.061   5.224
 9753TIP3    H129216   2.254   2.036   5.185
 9753TIP3    H229217   2.126   1.977   5.242
 9754TIP3   OH229218   4.515   6.520   2.226
 9754TIP3    H129219   4.518   6.606   2.267
 9754TIP3    H229220   4.442   6.475   2.269
 9755TIP3   OH229221   7.371   0.100   2.399
 9755TIP3    H129222   7.304   0.165   2.377
 9755TIP3    H229223   7.409   0.132   2.481
 9756TIP3   OH229224   1.617   6.899   6.017
 9756TIP3    H129225   1.685   6.903   5.950
 9756TIP3    H229226   1.549   6.844   5.979
 9757TIP3   OH229227   7.789   6.130   0.535
 9757TIP3    H129228   7.775   6.046   0.580
 9757TIP3    H229229   7.705   6.149   0.495
 9758TIP3   OH229230   7.348   3.296   5.598
 9758TIP3    H129231   7.261   3.270   5.628
 9758TIP3    H229232   7.352   3.391   5.614
 9759TIP3   OH229233   1.188   5.128   5.118
 9759TIP3    H129234   1.127   5.064   5.157
 9759TIP3    H229235   1.143   5.212   5.126
 9760TIP3   OH229236   5.959   5.808   0.954
 9760TIP3    H129237   6.010   5.867   0.899
 9760TIP3    H229238   5.868   5.827   0.931
 9761TIP3   OH229239   0.931   1.037   4.445
 9761TIP3    H129240   0.873   1.022   4.371
 9761TIP3    H229241   1.015   0.999   4.419
 9762TIP3   OH229242   1.632   4.436   5.817
 9762TIP3    H129243   1.636   4.365   5.752
 9762TIP3    H229244   1.649   4.515   5.767
 9763TIP3   OH229245   0.831   4.010   3.593
 9763TIP3    H129246   0.838   3.924   3.636
 9763TIP3    H229247   0.737   4.022   3.579
 9764TIP3   OH229248   2.131   6.771   6.486
 9764TIP3    H129249   2.144   6.833   6.558
 9764TIP3    H229250   2.125   6.686   6.529
 9765TIP3   OH229251   4.968   5.202   0.951
 9765TIP3    H129252   4.981   5.270   1.017
 9765TIP3    H229253   4.873   5.199   0.938
 9766TIP3   OH229254   2.668   6.400   4.009
 9766TIP3    H129255   2.721   6.408   4.088
 9766TIP3    H229256   2.720   6.443   3.941
 9767TIP3   OH229257   5.231   5.342   1.979
 9767TIP3    H129258   5.221   5.262   2.031
 9767TIP3    H229259   5.172   5.329   1.905
 9768TIP3   OH229260   1.003   7.755   6.679
 9768TIP3    H129261   1.055   7.692   6.729
 9768TIP3    H229262   0.912   7.731   6.697
 9769TIP3   OH229263   7.046   7.150   1.886
 9769TIP3    H129264   6.958   7.177   1.863
 9769TIP3    H229265   7.091   7.230   1.912
 9770TIP3   OH229266   7.766   2.831   3.459
 9770TIP3    H129267   7.671   2.820   3.465
 9770TIP3    H229268   7.802   2.749   3.492
 9771TIP3   OH229269   4.375   0.928   5.669
 9771TIP3    H129270   4.416   0.907   5.753
 9771TIP3    H229271   4.403   1.017   5.649
 9772TIP3   OH229272   2.262   5.816   4.361
 9772TIP3    H129273   2.353   5.835   4.337
 9772TIP3    H229274   2.270   5.758   4.437
 9773TIP3   OH229275   3.972   6.306   3.503
 9773TIP3    H129276   3.915   6.231   3.518
 9773TIP3    H229277   4.029   6.279   3.431
 9774TIP3   OH229278   7.684   3.809   3.396
 9774TIP3    H129279   7.707   3.773   3.481
 9774TIP3    H229280   7.685   3.733   3.337
 9775TIP3   OH229281   7.134   0.143   6.463
 9775TIP3    H129282   7.201   0.093   6.416
 9775TIP3    H229283   7.120   0.093   6.544
 9776TIP3   OH229284   3.114   7.476   4.365
 9776TIP3    H129285   3.069   7.452   4.446
 9776TIP3    H229286   3.205   7.489   4.391
 9777TIP3   OH229287   4.165   7.282   6.422
 9777TIP3    H129288   4.151   7.369   6.460
 9777TIP3    H229289   4.134   7.289   6.332
 9778TIP3   OH229290   2.829   4.624   2.436
 9778TIP3    H129291   2.788   4.698   2.480
 9778TIP3    H229292   2.764   4.554   2.440
 9779TIP3   OH229293   7.391   6.030   3.043
 9779TIP3    H129294   7.355   6.076   3.119
 9779TIP3    H229295   7.439   6.098   2.996
 9780TIP3   OH229296   0.369   5.184   5.964
 9780TIP3    H129297   0.373   5.250   5.895
 9780TIP3    H229298   0.378   5.234   6.045
 9781TIP3   OH229299   7.385   5.359   6.811
 9781TIP3    H129300   7.387   5.398   6.724
 9781TIP3    H229301   7.442   5.415   6.864
 9782TIP3   OH229302   0.094   6.535   2.032
 9782TIP3    H129303   0.156   6.512   1.963
 9782TIP3    H229304   0.070   6.625   2.014
 9783TIP3   OH229305   4.197   0.941   5.991
 9783TIP3    H129306   4.107   0.948   6.022
 9783TIP3    H229307   4.217   1.027   5.953
 9784TIP3   OH229308   0.495   1.634   1.773
 9784TIP3    H129309   0.491   1.572   1.846
 9784TIP3    H229310   0.403   1.649   1.750
 9785TIP3   OH229311   6.747   3.048   1.652
 9785TIP3    H129312   6.730   3.059   1.559
 9785TIP3    H229313   6.836   3.079   1.664
 9786TIP3   OH229314   7.761   5.200   3.132
 9786TIP3    H129315   7.672   5.215   3.165
 9786TIP3    H229316   7.749   5.179   3.039
 9787TIP3   OH229317   6.779   4.283   0.681
 9787TIP3    H129318   6.837   4.256   0.609
 9787TIP3    H229319   6.698   4.235   0.665
 9788TIP3   OH229320   3.898   4.737   6.763
 9788TIP3    H129321   3.949   4.695   6.693
 9788TIP3    H229322   3.894   4.829   6.738
 9789TIP3   OH229323   4.622   7.094   6.680
 9789TIP3    H129324   4.536   7.075   6.641
 9789TIP3    H229325   4.621   7.188   6.695
 9790TIP3   OH229326   6.270   4.723   2.838
 9790TIP3    H129327   6.285   4.673   2.919
 9790TIP3    H229328   6.335   4.689   2.777
 9791TIP3   OH229329   6.747   3.674   1.645
 9791TIP3    H129330   6.739   3.652   1.552
 9791TIP3    H229331   6.692   3.609   1.689
 9792TIP3   OH229332   1.673   5.279   2.453
 9792TIP3    H129333   1.676   5.227   2.373
 9792TIP3    H229334   1.691   5.216   2.523
 9793TIP3   OH229335   0.486   3.601   1.053
 9793TIP3    H129336   0.577   3.588   1.078
 9793TIP3    H229337   0.442   3.521   1.081
 9794TIP3   OH229338   0.412   6.763   5.511
 9794TIP3    H129339   0.486   6.779   5.453
 9794TIP3    H229340   0.397   6.848   5.553
 9795TIP3   OH229341   1.364   0.948   2.050
 9795TIP3    H129342   1.358   1.035   2.089
 9795TIP3    H229343   1.288   0.901   2.084
 9796TIP3   OH229344   1.007   6.682   6.370
 9796TIP3    H129345   1.099   6.692   6.343
 9796TIP3    H229346   1.010   6.618   6.441
 9797TIP3   OH229347   1.726   7.727   6.488
 9797TIP3    H129348   1.758   7.790   6.554
 9797TIP3    H229349   1.760   7.643   6.518
 9798TIP3   OH229350   2.016   4.702   1.783
 9798TIP3    H129351   1.980   4.667   1.864
 9798TIP3    H229352   1.940   4.713   1.725
 9799TIP3   OH229353   2.804   1.990   6.413
 9799TIP3    H129354   2.743   2.060   6.438
 9799TIP3    H229355   2.787   1.975   6.320
 9800TIP3   OH229356   6.094   1.311   6.693
 9800TIP3    H129357   6.015   1.261   6.713
 9800TIP3    H229358   6.149   1.251   6.643
 9801TIP3   OH229359   7.089   4.507   6.595
 9801TIP3    H129360   7.010   4.505   6.649
 9801TIP3    H229361   7.081   4.430   6.539
 9802TIP3   OH229362   0.694   5.859   4.229
 9802TIP3    H129363   0.742   5.903   4.299
 9802TIP3    H229364   0.754   5.860   4.154
 9803TIP3   OH229365   6.514   1.410   1.260
 9803TIP3    H129366   6.610   1.418   1.257
 9803TIP3    H229367   6.482   1.500   1.261
 9804TIP3   OH229368   4.003   0.373   0.441
 9804TIP3    H129369   3.932   0.321   0.478
 9804TIP3    H229370   4.054   0.310   0.389
 9805TIP3   OH229371   5.785   3.693   1.765
 9805TIP3    H129372   5.750   3.618   1.814
 9805TIP3    H229373   5.737   3.692   1.682
 9806TIP3   OH229374   2.841   3.396   4.099
 9806TIP3    H129375   2.848   3.322   4.038
 9806TIP3    H229376   2.820   3.471   4.043
 9807TIP3   OH229377   2.332   5.733   1.942
 9807TIP3    H129378   2.313   5.713   1.851
 9807TIP3    H229379   2.296   5.821   1.955
 9808TIP3   OH229380   0.380   7.134   6.627
 9808TIP3    H129381   0.333   7.052   6.641
 9808TIP3    H229382   0.340   7.171   6.548
 9809TIP3   OH229383   7.460   0.659   1.199
 9809TIP3    H129384   7.529   0.595   1.217
 9809TIP3    H229385   7.508   0.742   1.187
 9810TIP3   OH229386   4.740   2.782   5.988
 9810TIP3    H129387   4.699   2.868   6.001
 9810TIP3    H229388   4.739   2.742   6.075
 9811TIP3   OH229389   1.231   4.144   0.825
 9811TIP3    H129390   1.246   4.231   0.861
 9811TIP3    H229391   1.160   4.108   0.878
 9812TIP3   OH229392   0.037   1.472   5.786
 9812TIP3    H129393   0.117   1.443   5.743
 9812TIP3    H229394   0.063   1.551   5.833
 9813TIP3   OH229395   0.498   2.134   6.205
 9813TIP3    H129396   0.431   2.097   6.147
 9813TIP3    H229397   0.477   2.098   6.291
 9814TIP3   OH229398   2.608   3.478   1.653
 9814TIP3    H129399   2.672   3.422   1.609
 9814TIP3    H229400   2.617   3.563   1.610
 9815TIP3   OH229401   2.050   6.079   3.381
 9815TIP3    H129402   2.136   6.093   3.420
 9815TIP3    H229403   2.036   5.984   3.386
 9816TIP3   OH229404   1.542   7.065   1.814
 9816TIP3    H129405   1.590   6.985   1.832
 9816TIP3    H229406   1.576   7.095   1.730
 9817TIP3   OH229407   6.358   0.707   3.947
 9817TIP3    H129408   6.428   0.659   3.992
 9817TIP3    H229409   6.277   0.669   3.981
 9818TIP3   OH229410   5.260   6.621   5.283
 9818TIP3    H129411   5.238   6.680   5.211
 9818TIP3    H229412   5.350   6.644   5.307
 9819TIP3   OH229413   4.580   4.681   6.391
 9819TIP3    H129414   4.620   4.750   6.338
 9819TIP3    H229415   4.649   4.615   6.399
 9820TIP3   OH229416   7.406   7.166   1.587
 9820TIP3    H129417   7.318   7.204   1.584
 9820TIP3    H229418   7.393   7.078   1.624
 9821TIP3   OH229419   4.806   3.252   0.437
 9821TIP3    H129420   4.812   3.161   0.410
 9821TIP3    H229421   4.883   3.294   0.398
 9822TIP3   OH229422   8.133   3.918   3.821
 9822TIP3    H129423   8.201   3.945   3.759
 9822TIP3    H229424   8.075   3.862   3.770
 9823TIP3   OH229425   3.968   4.529   1.218
 9823TIP3    H129426   3.985   4.528   1.312
 9823TIP3    H229427   3.956   4.622   1.198
 9824TIP3   OH229428   4.274   6.467   4.720
 9824TIP3    H129429   4.332   6.538   4.747
 9824TIP3    H229430   4.330   6.407   4.671
 9825TIP3   OH229431   4.090   1.697   4.191
 9825TIP3    H129432   4.159   1.638   4.219
 9825TIP3    H229433   4.117   1.783   4.224
 9826TIP3   OH229434   8.275   4.626   1.532
 9826TIP3    H129435   8.299   4.662   1.617
 9826TIP3    H229436   8.296   4.533   1.538
 9827TIP3   OH229437   3.878   2.733   6.011
 9827TIP3    H129438   3.930   2.795   5.961
 9827TIP3    H229439   3.942   2.685   6.065
 9828TIP3   OH229440   1.719   6.358   3.737
 9828TIP3    H129441   1.757   6.287   3.685
 9828TIP3    H229442   1.770   6.435   3.712
 9829TIP3   OH229443   7.351   1.127   2.640
 9829TIP3    H129444   7.273   1.099   2.688
 9829TIP3    H229445   7.359   1.064   2.568
 9830TIP3   OH229446   0.800   0.612   0.781
 9830TIP3    H129447   0.735   0.681   0.800
 9830TIP3    H229448   0.786   0.592   0.689
 9831TIP3   OH229449   4.742   5.524   6.289
 9831TIP3    H129450   4.772   5.572   6.211
 9831TIP3    H229451   4.816   5.467   6.311
 9832TIP3   OH229452   4.973   1.184   4.075
 9832TIP3    H129453   4.970   1.165   3.982
 9832TIP3    H229454   4.886   1.215   4.097
 9833TIP3   OH229455   4.222   1.192   3.131
 9833TIP3    H129456   4.252   1.252   3.063
 9833TIP3    H229457   4.129   1.213   3.142
 9834TIP3   OH229458   7.340   4.335   3.715
 9834TIP3    H129459   7.374   4.245   3.717
 9834TIP3    H229460   7.272   4.333   3.648
 9835TIP3   OH229461   4.226   3.827   1.374
 9835TIP3    H129462   4.289   3.887   1.334
 9835TIP3    H229463   4.185   3.783   1.300
 9836TIP3   OH229464   2.591   4.507   1.600
 9836TIP3    H129465   2.543   4.575   1.553
 9836TIP3    H229466   2.551   4.425   1.572
 9837TIP3   OH229467   5.967   3.950   5.423
 9837TIP3    H129468   5.973   3.920   5.333
 9837TIP3    H229469   6.057   3.975   5.446
 9838TIP3   OH229470   6.420   3.175   5.136
 9838TIP3    H129471   6.368   3.177   5.216
 9838TIP3    H229472   6.435   3.267   5.114
 9839TIP3   OH229473   2.701   7.018   5.331
 9839TIP3    H129474   2.720   6.933   5.370
 9839TIP3    H229475   2.608   7.015   5.310
 9840TIP3   OH229476   7.542   3.189   3.606
 9840TIP3    H129477   7.459   3.144   3.619
 9840TIP3    H229478   7.592   3.171   3.685
 9841TIP3   OH229479   4.481   5.943   4.740
 9841TIP3    H129480   4.411   5.954   4.805
 9841TIP3    H229481   4.561   5.935   4.793
 9842TIP3   OH229482   6.581   5.598   0.816
 9842TIP3    H129483   6.634   5.669   0.780
 9842TIP3    H229484   6.543   5.633   0.896
 9843TIP3   OH229485   5.256   1.136   6.642
 9843TIP3    H129486   5.241   1.219   6.596
 9843TIP3    H229487   5.198   1.140   6.718
 9844TIP3   OH229488   0.018   6.407   0.937
 9844TIP3    H129489   0.085   6.475   0.945
 9844TIP3    H229490   0.047   6.337   0.996
 9845TIP3   OH229491   2.152   0.060   4.434
 9845TIP3    H129492   2.195  -0.023   4.414
 9845TIP3    H229493   2.109   0.044   4.518
 9846TIP3   OH229494   8.047   4.194   5.811
 9846TIP3    H129495   8.139   4.218   5.802
 9846TIP3    H229496   8.033   4.129   5.742
 9847TIP3   OH229497   6.563   7.111   5.427
 9847TIP3    H129498   6.565   7.202   5.399
 9847TIP3    H229499   6.524   7.113   5.514
 9848TIP3   OH229500   1.878   3.791   5.613
 9848TIP3    H129501   1.805   3.812   5.554
 9848TIP3    H229502   1.956   3.795   5.557
 9849TIP3   OH229503   2.175   1.924   4.464
 9849TIP3    H129504   2.197   1.957   4.551
 9849TIP3    H229505   2.219   1.839   4.459
 9850TIP3   OH229506   7.705   2.852   6.087
 9850TIP3    H129507   7.644   2.800   6.139
 9850TIP3    H229508   7.654   2.928   6.060
 9851TIP3   OH229509   1.255   2.280   5.168
 9851TIP3    H129510   1.275   2.273   5.262
 9851TIP3    H229511   1.200   2.203   5.150
 9852TIP3   OH229512   3.313   1.089   6.800
 9852TIP3    H129513   3.292   1.031   6.873
 9852TIP3    H229514   3.383   1.043   6.752
 9853TIP3   OH229515   0.921   2.974   5.587
 9853TIP3    H129516   0.879   2.902   5.539
 9853TIP3    H229517   0.854   3.003   5.649
 9854TIP3   OH229518   3.683   7.125   3.661
 9854TIP3    H129519   3.696   7.216   3.689
 9854TIP3    H229520   3.619   7.090   3.723
 9855TIP3   OH229521   0.593   3.964   3.786
 9855TIP3    H129522   0.612   3.889   3.843
 9855TIP3    H229523   0.521   3.933   3.731
 9856TIP3   OH229524   1.162   2.746   0.359
 9856TIP3    H129525   1.209   2.827   0.374
 9856TIP3    H229526   1.203   2.707   0.282
 9857TIP3   OH229527   5.330   2.321   1.784
 9857TIP3    H129528   5.318   2.416   1.774
 9857TIP3    H229529   5.358   2.310   1.874
 9858TIP3   OH229530   4.556   7.601   4.272
 9858TIP3    H129531   4.541   7.666   4.204
 9858TIP3    H229532   4.496   7.627   4.343
 9859TIP3   OH229533   2.817   0.640   2.013
 9859TIP3    H129534   2.722   0.632   2.016
 9859TIP3    H229535   2.844   0.581   1.943
 9860TIP3   OH229536   0.547   5.587   6.123
 9860TIP3    H129537   0.639   5.574   6.145
 9860TIP3    H229538   0.544   5.578   6.028
 9861TIP3   OH229539   7.410   7.022   0.630
 9861TIP3    H129540   7.503   6.998   0.624
 9861TIP3    H229541   7.376   6.968   0.701
 9862TIP3   OH229542   6.031   6.665   0.094
 9862TIP3    H129543   6.120   6.631   0.085
 9862TIP3    H229544   6.037   6.756   0.064
 9863TIP3   OH229545   2.353   4.706   3.665
 9863TIP3    H129546   2.307   4.756   3.732
 9863TIP3    H229547   2.299   4.628   3.651
 9864TIP3   OH229548   5.148   6.219   6.202
 9864TIP3    H129549   5.139   6.124   6.209
 9864TIP3    H229550   5.199   6.245   6.279
 9865TIP3   OH229551   4.819   2.167   5.134
 9865TIP3    H129552   4.893   2.224   5.112
 9865TIP3    H229553   4.859   2.083   5.155
 9866TIP3   OH229554   3.643   2.405   1.027
 9866TIP3    H129555   3.734   2.404   1.058
 9866TIP3    H229556   3.619   2.312   1.020
 9867TIP3   OH229557   0.456   0.109   4.312
 9867TIP3    H129558   0.509   0.153   4.378
 9867TIP3    H229559   0.376   0.084   4.359
 9868TIP3   OH229560   4.607   6.262   3.173
 9868TIP3    H129561   4.576   6.184   3.127
 9868TIP3    H229562   4.605   6.332   3.107
 9869TIP3   OH229563   1.610   6.670   5.142
 9869TIP3    H129564   1.550   6.728   5.190
 9869TIP3    H229565   1.697   6.699   5.167
 9870TIP3   OH229566   1.882   2.923   0.025
 9870TIP3    H129567   1.888   3.018   0.021
 9870TIP3    H229568   1.973   2.893   0.020
 9871TIP3   OH229569   1.181   2.062   1.885
 9871TIP3    H129570   1.202   2.137   1.941
 9871TIP3    H229571   1.148   2.101   1.804
 9872TIP3   OH229572   6.367   6.109   4.634
 9872TIP3    H129573   6.404   6.024   4.660
 9872TIP3    H229574   6.429   6.145   4.571
 9873TIP3   OH229575   4.375   2.795   3.364
 9873TIP3    H129576   4.331   2.880   3.365
 9873TIP3    H229577   4.409   2.787   3.275
 9874TIP3   OH229578   2.189   3.151   5.662
 9874TIP3    H129579   2.272   3.171   5.618
 9874TIP3    H229580   2.128   3.218   5.630
 9875TIP3   OH229581   3.378   4.229   3.275
 9875TIP3    H129582   3.434   4.158   3.305
 9875TIP3    H229583   3.321   4.247   3.350
 9876TIP3   OH229584   6.263   3.316   2.363
 9876TIP3    H129585   6.281   3.307   2.269
 9876TIP3    H229586   6.185   3.263   2.378
 9877TIP3   OH229587   4.957   0.451   6.464
 9877TIP3    H129588   4.979   0.366   6.425
 9877TIP3    H229589   4.885   0.484   6.411
 9878TIP3   OH229590   0.343   6.873   5.218
 9878TIP3    H129591   0.365   6.840   5.131
 9878TIP3    H229592   0.391   6.955   5.226
 9879TIP3   OH229593   1.257   5.668   6.363
 9879TIP3    H129594   1.323   5.602   6.344
 9879TIP3    H229595   1.235   5.706   6.277
 9880TIP3   OH229596   3.989   5.261   4.991
 9880TIP3    H129597   4.009   5.283   5.082
 9880TIP3    H229598   3.955   5.342   4.954
 9881TIP3   OH229599   0.878   5.200   0.293
 9881TIP3    H129600   0.817   5.273   0.293
 9881TIP3    H229601   0.962   5.237   0.321
 9882TIP3   OH229602   4.414   0.299   6.028
 9882TIP3    H129603   4.509   0.297   6.030
 9882TIP3    H229604   4.388   0.207   6.030
 9883TIP3   OH229605   7.826   1.976   2.588
 9883TIP3    H129606   7.839   1.925   2.508
 9883TIP3    H229607   7.893   1.943   2.648
 9884TIP3   OH229608   6.163   2.459   0.098
 9884TIP3    H129609   6.237   2.412   0.060
 9884TIP3    H229610   6.181   2.551   0.079
 9885TIP3   OH229611   6.691   7.339   3.894
 9885TIP3    H129612   6.749   7.406   3.859
 9885TIP3    H229613   6.709   7.338   3.988
 9886TIP3   OH229614   2.782   2.754   3.141
 9886TIP3    H129615   2.719   2.745   3.212
 9886TIP3    H229616   2.729   2.751   3.061
 9887TIP3   OH229617   3.117   1.664   2.386
 9887TIP3    H129618   3.192   1.709   2.427
 9887TIP3    H229619   3.046   1.728   2.388
 9888TIP3   OH229620   1.919   0.865   4.245
 9888TIP3    H129621   1.880   0.860   4.332
 9888TIP3    H229622   1.936   0.958   4.232
 9889TIP3   OH229623   6.392   6.785   6.209
 9889TIP3    H129624   6.407   6.701   6.166
 9889TIP3    H229625   6.345   6.837   6.144
 9890TIP3   OH229626   0.476   7.755   3.503
 9890TIP3    H129627   0.533   7.829   3.484
 9890TIP3    H229628   0.398   7.771   3.449
 9891TIP3   OH229629   4.865   2.693   0.553
 9891TIP3    H129630   4.906   2.750   0.619
 9891TIP3    H229631   4.936   2.638   0.522
 9892TIP3   OH229632   7.608   1.777   3.923
 9892TIP3    H129633   7.696   1.799   3.890
 9892TIP3    H229634   7.610   1.804   4.015
 9893TIP3   OH229635   7.388   0.322   5.639
 9893TIP3    H129636   7.481   0.311   5.619
 9893TIP3    H229637   7.361   0.237   5.675
 9894TIP3   OH229638   8.260   4.765   1.774
 9894TIP3    H129639   8.177   4.718   1.779
 9894TIP3    H229640   8.260   4.823   1.850
 9895TIP3   OH229641   5.831   2.861   6.559
 9895TIP3    H129642   5.801   2.893   6.474
 9895TIP3    H229643   5.865   2.774   6.542
 9896TIP3   OH229644   7.435   4.253   6.443
 9896TIP3    H129645   7.408   4.186   6.506
 9896TIP3    H229646   7.414   4.336   6.487
 9897TIP3   OH229647   5.817   6.859   0.744
 9897TIP3    H129648   5.826   6.920   0.818
 9897TIP3    H229649   5.804   6.915   0.668
 9898TIP3   OH229650   6.795   4.768   6.039
 9898TIP3    H129651   6.883   4.793   6.014
 9898TIP3    H229652   6.787   4.677   6.011
 9899TIP3   OH229653   1.744   0.625   1.597
 9899TIP3    H129654   1.795   0.696   1.558
 9899TIP3    H229655   1.710   0.577   1.522
 9900TIP3   OH229656   3.164   0.047   3.143
 9900TIP3    H129657   3.116   0.038   3.061
 9900TIP3    H229658   3.097   0.047   3.211
 9901TIP3   OH229659   2.441   3.818   4.167
 9901TIP3    H129660   2.351   3.786   4.172
 9901TIP3    H229661   2.447   3.885   4.235
 9902TIP3   OH229662   5.698   6.904   6.042
 9902TIP3    H129663   5.745   6.860   6.113
 9902TIP3    H229664   5.679   6.991   6.077
 9903TIP3   OH229665   7.349   1.389   4.716
 9903TIP3    H129666   7.393   1.463   4.674
 9903TIP3    H229667   7.419   1.328   4.738
 9904TIP3   OH229668   3.349   1.947   4.029
 9904TIP3    H129669   3.385   1.867   4.067
 9904TIP3    H229670   3.286   1.917   3.963
 9905TIP3   OH229671   6.619   6.054   4.883
 9905TIP3    H129672   6.664   6.113   4.823
 9905TIP3    H229673   6.625   5.968   4.842
 9906TIP3   OH229674   2.924   2.636   6.024
 9906TIP3    H129675   3.020   2.643   6.026
 9906TIP3    H229676   2.906   2.550   6.063
 9907TIP3   OH229677   2.219   3.405   2.033
 9907TIP3    H129678   2.303   3.415   1.988
 9907TIP3    H229679   2.156   3.389   1.963
 9908TIP3   OH229680   8.183   0.850   2.597
 9908TIP3    H129681   8.169   0.758   2.574
 9908TIP3    H229682   8.165   0.899   2.517
 9909TIP3   OH229683   6.324   0.691   0.766
 9909TIP3    H129684   6.263   0.677   0.839
 9909TIP3    H229685   6.410   0.668   0.802
 9910TIP3   OH229686   7.179   2.284   1.773
 9910TIP3    H129687   7.146   2.217   1.713
 9910TIP3    H229688   7.155   2.367   1.732
 9911TIP3   OH229689   7.028   7.287   0.050
 9911TIP3    H129690   7.005   7.348   0.120
 9911TIP3    H229691   7.114   7.253   0.075
 9912TIP3   OH229692   7.544   5.780   2.265
 9912TIP3    H129693   7.588   5.786   2.350
 9912TIP3    H229694   7.492   5.700   2.270
 9913TIP3   OH229695   5.784   0.953   5.665
 9913TIP3    H129696   5.809   0.999   5.585
 9913TIP3    H229697   5.843   0.878   5.669
 9914TIP3   OH229698   1.510   3.700   5.962
 9914TIP3    H129699   1.576   3.650   5.914
 9914TIP3    H229700   1.530   3.792   5.941
 9915TIP3   OH229701   4.047   7.239   6.149
 9915TIP3    H129702   4.086   7.151   6.146
 9915TIP3    H229703   4.097   7.290   6.086
 9916TIP3   OH229704   2.891   0.935   0.755
 9916TIP3    H129705   2.816   0.994   0.747
 9916TIP3    H229706   2.937   0.965   0.833
 9917TIP3   OH229707   1.364   2.736   2.574
 9917TIP3    H129708   1.407   2.655   2.544
 9917TIP3    H229709   1.430   2.779   2.628
 9918TIP3   OH229710   7.286   4.173   0.385
 9918TIP3    H129711   7.255   4.263   0.393
 9918TIP3    H229712   7.264   4.148   0.295
 9919TIP3   OH229713   1.160   5.778   1.219
 9919TIP3    H129714   1.125   5.837   1.152
 9919TIP3    H229715   1.131   5.816   1.302
 9920TIP3   OH229716   2.375   4.237   0.397
 9920TIP3    H129717   2.393   4.144   0.386
 9920TIP3    H229718   2.418   4.279   0.323
 9921TIP3   OH229719   0.015   2.661   1.726
 9921TIP3    H129720   0.087   2.651   1.664
 9921TIP3    H229721   0.040   2.736   1.780
 9922TIP3   OH229722   0.795   0.255   0.823
 9922TIP3    H129723   0.804   0.333   0.877
 9922TIP3    H229724   0.779   0.289   0.735
 9923TIP3   OH229725   1.869   4.950   3.440
 9923TIP3    H129726   1.873   4.918   3.349
 9923TIP3    H229727   1.782   4.923   3.471
 9924TIP3   OH229728   0.309   1.967   5.508
 9924TIP3    H129729   0.335   1.891   5.457
 9924TIP3    H229730   0.346   2.042   5.460
 9925TIP3   OH229731   3.211   4.033   1.050
 9925TIP3    H129732   3.117   4.024   1.070
 9925TIP3    H229733   3.228   3.965   0.985
 9926TIP3   OH229734   2.096   4.726   4.293
 9926TIP3    H129735   2.141   4.668   4.232
 9926TIP3    H229736   2.153   4.803   4.299
 9927TIP3   OH229737   5.481   6.921   0.907
 9927TIP3    H129738   5.477   6.845   0.966
 9927TIP3    H229739   5.541   6.982   0.952
 9928TIP3   OH229740   1.924   2.768   5.392
 9928TIP3    H129741   1.973   2.686   5.398
 9928TIP3    H229742   1.973   2.829   5.447
 9929TIP3   OH229743   0.792   5.111   1.346
 9929TIP3    H129744   0.846   5.036   1.324
 9929TIP3    H229745   0.703   5.085   1.323
 9930TIP3   OH229746   1.748   0.760   6.364
 9930TIP3    H129747   1.809   0.728   6.298
 9930TIP3    H229748   1.684   0.690   6.374
 9931TIP3   OH229749   3.058   4.880   0.915
 9931TIP3    H129750   3.002   4.936   0.861
 9931TIP3    H229751   2.998   4.839   0.977
 9932TIP3   OH229752   7.010   7.815   2.228
 9932TIP3    H129753   7.085   7.818   2.169
 9932TIP3    H229754   6.935   7.800   2.171
 9933TIP3   OH229755   5.607   6.588   4.642
 9933TIP3    H129756   5.659   6.556   4.716
 9933TIP3    H229757   5.527   6.536   4.646
 9934TIP3   OH229758   5.070   2.972   2.613
 9934TIP3    H129759   5.062   3.038   2.544
 9934TIP3    H229760   5.021   3.007   2.687
 9935TIP3   OH229761   1.155   3.178   1.919
 9935TIP3    H129762   1.173   3.230   1.841
 9935TIP3    H229763   1.205   3.220   1.989
 9936TIP3   OH229764   4.531   3.211   0.162
 9936TIP3    H129765   4.585   3.281   0.200
 9936TIP3    H229766   4.558   3.132   0.208
 9937TIP3   OH229767   8.221   4.253   3.269
 9937TIP3    H129768   8.186   4.334   3.306
 9937TIP3    H229769   8.273   4.281   3.193
 9938TIP3   OH229770   7.993   4.394   5.123
 9938TIP3    H129771   7.996   4.318   5.182
 9938TIP3    H229772   8.002   4.469   5.181
 9939TIP3   OH229773   5.529   2.681   5.992
 9939TIP3    H129774   5.567   2.662   5.906
 9939TIP3    H229775   5.586   2.637   6.055
 9940TIP3   OH229776   0.523   3.207   1.870
 9940TIP3    H129777   0.430   3.200   1.893
 9940TIP3    H229778   0.529   3.165   1.784
 9941TIP3   OH229779   0.515   1.046   0.063
 9941TIP3    H129780   0.478   1.004  -0.015
 9941TIP3    H229781   0.439   1.078   0.112
 9942TIP3   OH229782   4.565   0.961   6.570
 9942TIP3    H129783   4.558   1.021   6.644
 9942TIP3    H229784   4.483   0.973   6.522
 9943TIP3   OH229785   4.637   1.604   5.949
 9943TIP3    H129786   4.583   1.581   5.873
 9943TIP3    H229787   4.587   1.570   6.024
 9944TIP3   OH229788   0.378   0.749   6.179
 9944TIP3    H129789   0.372   0.734   6.085
 9944TIP3    H229790   0.422   0.833   6.188
 9945TIP3   OH229791   3.083   3.023   4.742
 9945TIP3    H129792   3.086   3.074   4.823
 9945TIP3    H229793   3.022   3.070   4.685
 9946TIP3   OH229794   1.205   6.634   3.387
 9946TIP3    H129795   1.261   6.562   3.359
 9946TIP3    H229796   1.266   6.704   3.411
 9947TIP3   OH229797   7.052   4.413   5.024
 9947TIP3    H129798   7.128   4.457   5.061
 9947TIP3    H229799   7.086   4.331   4.990
 9948TIP3   OH229800   7.806   7.545   1.659
 9948TIP3    H129801   7.801   7.601   1.582
 9948TIP3    H229802   7.792   7.603   1.733
 9949TIP3   OH229803   3.809   1.534   5.551
 9949TIP3    H129804   3.746   1.567   5.615
 9949TIP3    H229805   3.803   1.438   5.559
 9950TIP3   OH229806   3.245   0.218   4.058
 9950TIP3    H129807   3.166   0.165   4.056
 9950TIP3    H229808   3.271   0.225   3.966
 9951TIP3   OH229809   4.474   0.735   0.708
 9951TIP3    H129810   4.443   0.674   0.774
 9951TIP3    H229811   4.477   0.684   0.627
 9952TIP3   OH229812   2.468   1.059   3.223
 9952TIP3    H129813   2.377   1.027   3.221
 9952TIP3    H229814   2.515   0.991   3.272
 9953TIP3   OH229815   3.402   1.927   1.118
 9953TIP3    H129816   3.396   1.831   1.118
 9953TIP3    H229817   3.474   1.946   1.058
 9954TIP3   OH229818   7.194   5.839   5.597
 9954TIP3    H129819   7.239   5.917   5.630
 9954TIP3    H229820   7.191   5.852   5.502
 9955TIP3   OH229821   6.319   2.290   3.021
 9955TIP3    H129822   6.329   2.357   2.954
 9955TIP3    H229823   6.403   2.290   3.067
 9956TIP3   OH229824   4.108   4.568   5.309
 9956TIP3    H129825   4.023   4.545   5.346
 9956TIP3    H229826   4.097   4.560   5.215
 9957TIP3   OH229827   5.324   4.194   2.763
 9957TIP3    H129828   5.302   4.260   2.829
 9957TIP3    H229829   5.306   4.237   2.679
 9958TIP3   OH229830   3.125   5.442   2.467
 9958TIP3    H129831   3.137   5.537   2.460
 9958TIP3    H229832   3.092   5.429   2.556
 9959TIP3   OH229833   5.174   0.746   5.856
 9959TIP3    H129834   5.187   0.741   5.951
 9959TIP3    H229835   5.150   0.837   5.840
 9960TIP3   OH229836   8.046   1.714   5.214
 9960TIP3    H129837   8.125   1.704   5.267
 9960TIP3    H229838   8.074   1.768   5.139
 9961TIP3   OH229839   7.894   7.320   4.177
 9961TIP3    H129840   7.967   7.269   4.213
 9961TIP3    H229841   7.848   7.258   4.119
 9962TIP3   OH229842   4.407   5.624   3.909
 9962TIP3    H129843   4.398   5.718   3.926
 9962TIP3    H229844   4.385   5.615   3.816
 9963TIP3   OH229845   5.878   7.784   5.110
 9963TIP3    H129846   5.916   7.871   5.127
 9963TIP3    H229847   5.954   7.728   5.096
 9964TIP3   OH229848   6.854   6.478   6.237
 9964TIP3    H129849   6.815   6.564   6.253
 9964TIP3    H229850   6.944   6.486   6.267
 9965TIP3   OH229851   7.959   1.827   1.195
 9965TIP3    H129852   7.927   1.910   1.160
 9965TIP3    H229853   7.920   1.822   1.282
 9966TIP3   OH229854   5.752   3.806   2.284
 9966TIP3    H129855   5.801   3.724   2.293
 9966TIP3    H229856   5.792   3.864   2.349
 9967TIP3   OH229857   4.770   5.949   6.097
 9967TIP3    H129858   4.822   5.983   6.024
 9967TIP3    H229859   4.715   6.023   6.124
 9968TIP3   OH229860   3.012   1.523   2.807
 9968TIP3    H129861   2.999   1.612   2.841
 9968TIP3    H229862   2.927   1.481   2.820
 9969TIP3   OH229863   3.468   1.237   0.403
 9969TIP3    H129864   3.544   1.251   0.347
 9969TIP3    H229865   3.498   1.261   0.491
 9970TIP3   OH229866   0.202   0.600   0.232
 9970TIP3    H129867   0.211   0.692   0.206
 9970TIP3    H229868   0.227   0.550   0.154
 9971TIP3   OH229869   5.124   3.857   5.708
 9971TIP3    H129870   5.214   3.836   5.681
 9971TIP3    H229871   5.119   3.828   5.799
 9972TIP3   OH229872   6.644   5.944   6.731
 9972TIP3    H129873   6.559   5.941   6.688
 9972TIP3    H229874   6.699   5.884   6.681
 9973TIP3   OH229875   5.484   7.665   6.397
 9973TIP3    H129876   5.388   7.672   6.402
 9973TIP3    H229877   5.499   7.592   6.338
 9974TIP3   OH229878   5.053   0.597   0.298
 9974TIP3    H129879   5.097   0.526   0.250
 9974TIP3    H229880   5.076   0.582   0.389
 9975TIP3   OH229881   4.965   1.832   1.576
 9975TIP3    H129882   4.952   1.899   1.510
 9975TIP3    H229883   4.877   1.814   1.610
 9976TIP3   OH229884   2.846   7.743   1.270
 9976TIP3    H129885   2.783   7.674   1.292
 9976TIP3    H229886   2.791   7.817   1.243
 9977TIP3   OH229887   3.558   6.181   4.569
 9977TIP3    H129888   3.551   6.105   4.512
 9977TIP3    H229889   3.632   6.231   4.534
 9978TIP3   OH229890   8.312   4.680   6.658
 9978TIP3    H129891   8.345   4.614   6.598
 9978TIP3    H229892   8.229   4.645   6.690
 9979TIP3   OH229893   1.117   2.898   4.173
 9979TIP3    H129894   1.062   2.966   4.134
 9979TIP3    H229895   1.059   2.854   4.235
 9980TIP3   OH229896   2.982   5.201   6.164
 9980TIP3    H129897   3.006   5.251   6.242
 9980TIP3    H229898   3.065   5.187   6.118
 9981TIP3   OH229899   5.264   2.662   6.332
 9981TIP3    H129900   5.181   2.707   6.348
 9981TIP3    H229901   5.249   2.613   6.251
 9982TIP3   OH229902   6.519   6.954   2.544
 9982TIP3    H129903   6.540   6.872   2.500
 9982TIP3    H229904   6.504   7.016   2.472
 9983TIP3   OH229905   1.043   7.294   2.953
 9983TIP3    H129906   1.067   7.303   2.861
 9983TIP3    H229907   1.089   7.216   2.983
 9984TIP3   OH229908   7.071   3.793   4.327
 9984TIP3    H129909   7.075   3.782   4.232
 9984TIP3    H229910   7.076   3.703   4.361
 9985TIP3   OH229911   3.545   0.250   1.240
 9985TIP3    H129912   3.486   0.178   1.264
 9985TIP3    H229913   3.614   0.248   1.306
 9986TIP3   OH229914   0.673   6.920   3.753
 9986TIP3    H129915   0.755   6.874   3.736
 9986TIP3    H229916   0.647   6.956   3.668
 9987TIP3   OH229917   1.157   4.553   5.455
 9987TIP3    H129918   1.174   4.605   5.377
 9987TIP3    H229919   1.062   4.545   5.459
 9988TIP3   OH229920   6.811   1.466   5.001
 9988TIP3    H129921   6.783   1.442   4.913
 9988TIP3    H229922   6.902   1.494   4.990
 9989TIP3   OH229923   6.793   7.025   4.857
 9989TIP3    H129924   6.857   6.987   4.796
 9989TIP3    H229925   6.839   7.099   4.897
 9990TIP3   OH229926   2.253   4.340   0.651
 9990TIP3    H129927   2.239   4.406   0.719
 9990TIP3    H229928   2.340   4.305   0.669
 9991TIP3   OH229929   0.927   6.205   4.122
 9991TIP3    H129930   0.884   6.279   4.165
 9991TIP3    H229931   0.985   6.168   4.189
 9992TIP3   OH229932   3.983   5.170   3.912
 9992TIP3    H129933   3.933   5.094   3.941
 9992TIP3    H229934   3.972   5.235   3.982
 9993TIP3   OH229935   7.861   5.407   6.659
 9993TIP3    H129936   7.838   5.495   6.691
 9993TIP3    H229937   7.906   5.366   6.734
 9994TIP3   OH229938   0.910   1.918   1.099
 9994TIP3    H129939   0.926   1.857   1.171
 9994TIP3    H229940   0.833   1.883   1.054
 9995TIP3   OH229941   5.604   3.538   2.260
 9995TIP3    H129942   5.680   3.505   2.211
 9995TIP3    H229943   5.625   3.630   2.276
 9996TIP3   OH229944   6.859   1.976   4.465
 9996TIP3    H129945   6.830   1.901   4.517
 9996TIP3    H229946   6.954   1.966   4.458
 9997TIP3   OH229947   7.145   0.257   2.333
 9997TIP3    H129948   7.119   0.260   2.241
 9997TIP3    H229949   7.126   0.345   2.366
 9998TIP3   OH229950   2.594   5.387   3.886
 9998TIP3    H129951   2.677   5.430   3.865
 9998TIP3    H229952   2.559   5.358   3.802
 9999TIP3   OH229953   6.946   3.278   3.897
 9999TIP3    H129954   6.992   3.253   3.816
 9999TIP3    H229955   6.868   3.324   3.867
10000TIP3   OH229956   1.155   4.194   1.954
10000TIP3    H129957   1.108   4.171   1.874
10000TIP3    H229958   1.119   4.279   1.980
10001TIP3   OH229959   5.671   0.027   1.574
10001TIP3    H129960   5.598  -0.035   1.582
10001TIP3    H229961   5.733  -0.017   1.516
10002TIP3   OH229962   4.845   6.008   0.730
10002TIP3    H129963   4.771   5.954   0.702
10002TIP3    H229964   4.837   6.087   0.676
10003TIP3   OH229965   8.002   5.195   1.644
10003TIP3    H129966   8.052   5.113   1.650
10003TIP3    H229967   7.932   5.176   1.582
10004TIP3   OH229968   5.447   7.276   3.854
10004TIP3    H129969   5.425   7.216   3.783
10004TIP3    H229970   5.468   7.358   3.810
10005TIP3   OH229971   5.669   4.526   4.831
10005TIP3    H129972   5.716   4.501   4.752
10005TIP3    H229973   5.577   4.528   4.803
10006TIP3   OH229974   3.608   7.308   1.303
10006TIP3    H129975   3.536   7.328   1.243
10006TIP3    H229976   3.583   7.224   1.342
10007TIP3   OH229977   2.068   0.500   6.380
10007TIP3    H129978   2.028   0.480   6.296
10007TIP3    H229979   2.070   0.595   6.384
10008TIP3   OH229980   0.458   7.723   2.059
10008TIP3    H129981   0.526   7.760   2.002
10008TIP3    H229982   0.502   7.707   2.142
10009TIP3   OH229983   5.097   2.165   3.293
10009TIP3    H129984   5.093   2.162   3.388
10009TIP3    H229985   5.037   2.236   3.269
10010TIP3   OH229986   6.174   6.050   2.517
10010TIP3    H129987   6.092   6.010   2.545
10010TIP3    H229988   6.193   6.010   2.432
10011TIP3   OH229989   7.318   3.140   2.411
10011TIP3    H129990   7.239   3.142   2.357
10011TIP3    H229991   7.353   3.229   2.405
10012TIP3   OH229992   5.917   4.370   3.846
10012TIP3    H129993   5.848   4.436   3.846
10012TIP3    H229994   5.987   4.409   3.793
10013TIP3   OH229995   3.476   7.121   0.713
10013TIP3    H129996   3.565   7.148   0.690
10013TIP3    H229997   3.430   7.116   0.629
10014TIP3   OH229998   5.885   5.176   4.561
10014TIP3    H129999   5.921   5.133   4.484
10014TIP3    H230000   5.810   5.122   4.587
10015TIP3   OH230001   6.721   0.902   6.510
10015TIP3    H130002   6.674   0.819   6.501
10015TIP3    H230003   6.652   0.968   6.519
10016TIP3   OH230004   5.583   0.831   5.935
10016TIP3    H130005   5.559   0.744   5.967
10016TIP3    H230006   5.671   0.846   5.968
10017TIP3   OH230007   1.479   6.435   4.922
10017TIP3    H130008   1.428   6.492   4.979
10017TIP3    H230009   1.468   6.472   4.835
10018TIP3   OH230010   0.860   0.754   4.951
10018TIP3    H130011   0.913   0.759   5.031
10018TIP3    H230012   0.915   0.706   4.889
10019TIP3   OH230013   4.086   3.998   6.211
10019TIP3    H130014   4.048   3.965   6.293
10019TIP3    H230015   4.057   4.089   6.206
10020TIP3   OH230016   5.098   7.260   0.953
10020TIP3    H130017   5.118   7.327   1.019
10020TIP3    H230018   5.176   7.257   0.898
10021TIP3   OH230019   0.596   6.239   5.749
10021TIP3    H130020   0.615   6.209   5.838
10021TIP3    H230021   0.615   6.333   5.751
10022TIP3   OH230022   6.581   1.895   2.383
10022TIP3    H130023   6.569   1.853   2.468
10022TIP3    H230024   6.622   1.979   2.404
10023TIP3   OH230025   3.236   2.230   2.483
10023TIP3    H130026   3.289   2.277   2.547
10023TIP3    H230027   3.297   2.166   2.445
10024TIP3   OH230028   6.781   7.035   3.124
10024TIP3    H130029   6.691   7.025   3.095
10024TIP3    H230030   6.807   7.121   3.092
10025TIP3   OH230031   2.527   1.576   3.593
10025TIP3    H130032   2.541   1.539   3.506
10025TIP3    H230033   2.556   1.667   3.586
10026TIP3   OH230034   0.528   3.180   5.344
10026TIP3    H130035   0.491   3.264   5.371
10026TIP3    H230036   0.568   3.144   5.423
10027TIP3   OH230037   7.985   3.191   4.284
10027TIP3    H130038   8.003   3.109   4.237
10027TIP3    H230039   8.002   3.260   4.220
10028TIP3   OH230040   7.987   0.893   3.626
10028TIP3    H130041   7.960   0.886   3.535
10028TIP3    H230042   7.982   0.804   3.660
10029TIP3   OH230043   2.215   0.073   2.120
10029TIP3    H130044   2.273   0.005   2.154
10029TIP3    H230045   2.257   0.102   2.039
10030TIP3   OH230046   6.209   0.938   1.117
10030TIP3    H130047   6.126   0.902   1.086
10030TIP3    H230048   6.188   1.028   1.143
10031TIP3   OH230049   2.626   2.577   2.645
10031TIP3    H130050   2.550   2.524   2.620
10031TIP3    H230051   2.661   2.534   2.723
10032TIP3   OH230052   4.642   1.323   5.133
10032TIP3    H130053   4.602   1.408   5.112
10032TIP3    H230054   4.642   1.276   5.049
10033TIP3   OH230055   1.369   1.262   3.835
10033TIP3    H130056   1.379   1.167   3.834
10033TIP3    H230057   1.416   1.292   3.758
10034TIP3   OH230058   4.776   1.067   4.291
10034TIP3    H130059   4.824   1.047   4.211
10034TIP3    H230060   4.842   1.062   4.361
10035TIP3   OH230061   8.254   6.573   3.521
10035TIP3    H130062   8.201   6.554   3.598
10035TIP3    H230063   8.236   6.666   3.502
10036TIP3   OH230064   4.134   6.992   5.829
10036TIP3    H130065   4.050   6.951   5.847
10036TIP3    H230066   4.199   6.928   5.859
10037TIP3   OH230067   5.476   6.738   5.379
10037TIP3    H130068   5.514   6.811   5.330
10037TIP3    H230069   5.550   6.700   5.427
10038TIP3   OH230070   5.439   5.020   3.860
10038TIP3    H130071   5.463   5.041   3.951
10038TIP3    H230072   5.345   5.004   3.863
10039TIP3   OH230073   5.968   1.460   3.253
10039TIP3    H130074   6.057   1.424   3.254
10039TIP3    H230075   5.981   1.554   3.251
10040TIP3   OH230076   4.865   3.702   0.489
10040TIP3    H130077   4.867   3.798   0.496
10040TIP3    H230078   4.904   3.671   0.571
10041TIP3   OH230079   6.611   2.581   6.259
10041TIP3    H130080   6.573   2.494   6.263
10041TIP3    H230081   6.626   2.605   6.350
10042TIP3   OH230082   6.558   2.803   3.921
10042TIP3    H130083   6.526   2.864   3.987
10042TIP3    H230084   6.653   2.814   3.922
10043TIP3   OH230085   1.713   1.330   1.355
10043TIP3    H130086   1.774   1.290   1.417
10043TIP3    H230087   1.644   1.367   1.409
10044TIP3   OH230088   5.859   2.125   4.476
10044TIP3    H130089   5.890   2.114   4.387
10044TIP3    H230090   5.772   2.085   4.477
10045TIP3   OH230091   3.064   4.846   4.234
10045TIP3    H130092   3.048   4.753   4.218
10045TIP3    H230093   2.993   4.891   4.188
10046TIP3   OH230094   6.844   1.296   0.352
10046TIP3    H130095   6.814   1.384   0.330
10046TIP3    H230096   6.905   1.273   0.282
10047TIP3   OH230097   0.206   4.101   5.325
10047TIP3    H130098   0.127   4.078   5.373
10047TIP3    H230099   0.183   4.090   5.233
10048TIP3   OH230100   4.748   1.123   3.740
10048TIP3    H130101   4.771   1.042   3.785
10048TIP3    H230102   4.775   1.193   3.800
10049TIP3   OH230103   7.716   7.204   4.934
10049TIP3    H130104   7.675   7.176   4.852
10049TIP3    H230105   7.731   7.297   4.923
10050TIP3   OH230106   6.174   5.373   2.897
10050TIP3    H130107   6.224   5.447   2.931
10050TIP3    H230108   6.130   5.336   2.974
10051TIP3   OH230109   4.499   4.100   5.499
10051TIP3    H130110   4.431   4.069   5.439
10051TIP3    H230111   4.575   4.046   5.478
10052TIP3   OH230112   3.032   0.741   0.639
10052TIP3    H130113   2.991   0.817   0.680
10052TIP3    H230114   2.995   0.666   0.686
10053TIP3   OH230115   3.087   2.412   1.105
10053TIP3    H130116   3.021   2.440   1.168
10053TIP3    H230117   3.077   2.472   1.031
10054TIP3   OH230118   7.323   5.043   3.190
10054TIP3    H130119   7.295   5.027   3.100
10054TIP3    H230120   7.415   5.015   3.192
10055TIP3   OH230121   8.087   1.218   1.547
10055TIP3    H130122   8.034   1.186   1.620
10055TIP3    H230123   8.122   1.140   1.506
10056TIP3   OH230124   7.834   7.001   2.540
10056TIP3    H130125   7.892   6.927   2.524
10056TIP3    H230126   7.819   7.000   2.635
10057TIP3   OH230127   0.365   7.075   2.398
10057TIP3    H130128   0.459   7.059   2.394
10057TIP3    H230129   0.342   7.064   2.490
10058TIP3   OH230130   7.454   1.187   5.250
10058TIP3    H130131   7.434   1.161   5.340
10058TIP3    H230132   7.549   1.201   5.250
10059TIP3   OH230133   4.030   6.144   2.273
10059TIP3    H130134   4.074   6.071   2.317
10059TIP3    H230135   4.005   6.203   2.344
10060TIP3   OH230136   7.672   6.715   5.952
10060TIP3    H130137   7.682   6.712   6.047
10060TIP3    H230138   7.697   6.805   5.928
10061TIP3   OH230139   7.861   5.137   5.678
10061TIP3    H130140   7.785   5.130   5.736
10061TIP3    H230141   7.911   5.210   5.714
10062TIP3   OH230142   7.515   4.818   2.154
10062TIP3    H130143   7.435   4.765   2.156
10062TIP3    H230144   7.484   4.908   2.147
10063TIP3   OH230145   7.560   6.210   4.708
10063TIP3    H130146   7.631   6.202   4.771
10063TIP3    H230147   7.480   6.208   4.760
10064TIP3   OH230148   3.422   0.639   0.029
10064TIP3    H130149   3.422   0.639   0.125
10064TIP3    H230150   3.471   0.718   0.005
10065TIP3   OH230151   8.143   2.950   3.848
10065TIP3    H130152   8.178   2.862   3.834
10065TIP3    H230153   8.127   2.983   3.760
10066TIP3   OH230154   3.955   4.369   2.314
10066TIP3    H130155   3.986   4.281   2.292
10066TIP3    H230156   4.022   4.404   2.372
10067TIP3   OH230157   1.595   1.281   5.867
10067TIP3    H130158   1.594   1.201   5.920
10067TIP3    H230159   1.592   1.352   5.932
10068TIP3   OH230160   2.686   1.493   6.101
10068TIP3    H130161   2.741   1.561   6.063
10068TIP3    H230162   2.720   1.411   6.063
10069TIP3   OH230163   6.978   7.131   6.555
10069TIP3    H130164   6.924   7.160   6.628
10069TIP3    H230165   6.916   7.098   6.490
10070TIP3   OH230166   6.352   0.912   1.872
10070TIP3    H130167   6.388   0.900   1.784
10070TIP3    H230168   6.319   0.825   1.897
10071TIP3   OH230169   1.169   6.548   1.919
10071TIP3    H130170   1.241   6.553   1.856
10071TIP3    H230171   1.212   6.536   2.004
10072TIP3   OH230172   3.509   6.310   2.321
10072TIP3    H130173   3.434   6.363   2.296
10072TIP3    H230174   3.515   6.242   2.255
10073TIP3   OH230175   5.728   0.569   6.229
10073TIP3    H130176   5.663   0.616   6.281
10073TIP3    H230177   5.683   0.489   6.202
10074TIP3   OH230178   3.456   2.057   2.659
10074TIP3    H130179   3.361   2.043   2.651
10074TIP3    H230180   3.466   2.104   2.741
10075TIP3   OH230181   6.456   1.461   6.770
10075TIP3    H130182   6.387   1.439   6.832
10075TIP3    H230183   6.417   1.528   6.713
10076TIP3   OH230184   0.412   4.326   1.529
10076TIP3    H130185   0.458   4.281   1.458
10076TIP3    H230186   0.362   4.258   1.573
10077TIP3   OH230187   2.407   7.015   5.349
10077TIP3    H130188   2.373   6.927   5.366
10077TIP3    H230189   2.353   7.048   5.278
10078TIP3   OH230190   0.183   5.482   1.445
10078TIP3    H130191   0.131   5.524   1.377
10078TIP3    H230192   0.120   5.426   1.492
10079TIP3   OH230193   1.391   4.537   1.394
10079TIP3    H130194   1.327   4.591   1.440
10079TIP3    H230195   1.339   4.467   1.355
10080TIP3   OH230196   2.894   5.720   5.428
10080TIP3    H130197   2.933   5.729   5.342
10080TIP3    H230198   2.838   5.642   5.422
10081TIP3   OH230199   1.990   5.910   2.822
10081TIP3    H130200   2.083   5.912   2.845
10081TIP3    H230201   1.990   5.893   2.727
10082TIP3   OH230202   2.794   0.843   6.682
10082TIP3    H130203   2.746   0.833   6.600
10082TIP3    H230204   2.783   0.935   6.706
10083TIP3   OH230205   6.271   2.386   4.054
10083TIP3    H130206   6.229   2.465   4.088
10083TIP3    H230207   6.231   2.372   3.968
10084TIP3   OH230208   0.924   2.514   6.403
10084TIP3    H130209   0.902   2.499   6.311
10084TIP3    H230210   1.007   2.469   6.416
10085TIP3   OH230211   7.847   6.324   0.878
10085TIP3    H130212   7.864   6.339   0.785
10085TIP3    H230213   7.882   6.237   0.896
10086TIP3   OH230214   7.939   3.785   0.915
10086TIP3    H130215   7.855   3.780   0.960
10086TIP3    H230216   7.996   3.723   0.961
10087TIP3   OH230217   0.183   0.429   3.660
10087TIP3    H130218   0.184   0.494   3.729
10087TIP3    H230219   0.141   0.352   3.699
10088TIP3   OH230220   0.889   1.020   2.695
10088TIP3    H130221   0.883   0.963   2.772
10088TIP3    H230222   0.962   1.078   2.714
10089TIP3   OH230223   1.451   7.735   2.598
10089TIP3    H130224   1.443   7.687   2.515
10089TIP3    H230225   1.372   7.712   2.647
10090TIP3   OH230226   7.130   0.714   5.269
10090TIP3    H130227   7.113   0.653   5.341
10090TIP3    H230228   7.044   0.741   5.239
10091TIP3   OH230229   3.470   3.229   4.105
10091TIP3    H130230   3.409   3.160   4.130
10091TIP3    H230231   3.420   3.285   4.046
10092TIP3   OH230232   0.167   4.955   2.447
10092TIP3    H130233   0.123   5.036   2.420
10092TIP3    H230234   0.259   4.971   2.429
10093TIP3   OH230235   3.306   1.833   5.206
10093TIP3    H130236   3.342   1.801   5.289
10093TIP3    H230237   3.275   1.921   5.225
10094TIP3   OH230238   0.483   1.439   2.257
10094TIP3    H130239   0.411   1.489   2.294
10094TIP3    H230240   0.561   1.468   2.304
10095TIP3   OH230241   2.263   1.462   0.853
10095TIP3    H130242   2.266   1.366   0.844
10095TIP3    H230243   2.354   1.487   0.870
10096TIP3   OH230244   3.611   5.591   0.547
10096TIP3    H130245   3.562   5.524   0.500
10096TIP3    H230246   3.575   5.674   0.516
10097TIP3   OH230247   4.648   2.383   2.090
10097TIP3    H130248   4.608   2.469   2.099
10097TIP3    H230249   4.603   2.329   2.155
10098TIP3   OH230250   3.114   1.337   3.829
10098TIP3    H130251   3.178   1.285   3.878
10098TIP3    H230252   3.165   1.410   3.793
10099TIP3   OH230253   0.957   1.717   2.884
10099TIP3    H130254   0.912   1.713   2.968
10099TIP3    H230255   0.888   1.709   2.819
10100TIP3   OH230256   0.631   5.553   1.391
10100TIP3    H130257   0.713   5.507   1.373
10100TIP3    H230258   0.645   5.641   1.355
10101TIP3   OH230259   7.902   6.791   3.174
10101TIP3    H130260   7.915   6.799   3.268
10101TIP3    H230261   7.808   6.799   3.161
10102TIP3   OH230262   7.660   0.272   6.219
10102TIP3    H130263   7.578   0.233   6.188
10102TIP3    H230264   7.696   0.316   6.142
10103TIP3   OH230265   3.159   4.429   5.980
10103TIP3    H130266   3.125   4.340   5.974
10103TIP3    H230267   3.149   4.453   6.072
10104TIP3   OH230268   2.559   7.561   2.189
10104TIP3    H130269   2.502   7.592   2.120
10104TIP3    H230270   2.542   7.619   2.263
10105TIP3   OH230271   0.323   2.300   0.895
10105TIP3    H130272   0.405   2.348   0.910
10105TIP3    H230273   0.289   2.283   0.982
10106TIP3   OH230274   4.081   7.296   1.023
10106TIP3    H130275   4.076   7.385   1.059
10106TIP3    H230276   4.172   7.270   1.036
10107TIP3   OH230277   4.311   0.342   0.446
10107TIP3    H130278   4.258   0.302   0.378
10107TIP3    H230279   4.362   0.270   0.483
10108TIP3   OH230280   6.794   3.101   2.118
10108TIP3    H130281   6.706   3.131   2.136
10108TIP3    H230282   6.782   3.016   2.075
10109TIP3   OH230283   0.049   0.282   4.293
10109TIP3    H130284   0.112   0.260   4.224
10109TIP3    H230285  -0.005   0.203   4.302
10110TIP3   OH230286   2.777   0.014   1.192
10110TIP3    H130287   2.789   0.041   1.101
10110TIP3    H230288   2.700  -0.043   1.190
10111TIP3   OH230289   3.694   3.277   2.923
10111TIP3    H130290   3.663   3.223   2.995
10111TIP3    H230291   3.630   3.263   2.853
10112TIP3   OH230292   5.726   4.557  -0.009
10112TIP3    H130293   5.812   4.596   0.011
10112TIP3    H230294   5.679   4.626  -0.056
10113TIP3   OH230295   5.238   7.702   2.382
10113TIP3    H130296   5.258   7.708   2.288
10113TIP3    H230297   5.156   7.651   2.386
10114TIP3   OH230298   5.278   2.919   0.883
10114TIP3    H130299   5.251   2.958   0.965
10114TIP3    H230300   5.346   2.856   0.907
10115TIP3   OH230301   7.764   5.661   2.789
10115TIP3    H130302   7.739   5.751   2.809
10115TIP3    H230303   7.712   5.608   2.848
10116TIP3   OH230304   1.616   6.459   5.919
10116TIP3    H130305   1.696   6.430   5.876
10116TIP3    H230306   1.550   6.395   5.892
10117TIP3   OH230307   3.636   3.269   5.155
10117TIP3    H130308   3.710   3.327   5.173
10117TIP3    H230309   3.674   3.181   5.156
10118TIP3   OH230310   4.182   6.081   4.683
10118TIP3    H130311   4.201   6.093   4.776
10118TIP3    H230312   4.124   6.154   4.661
10119TIP3   OH230313   6.366   7.007   2.772
10119TIP3    H130314   6.408   6.999   2.686
10119TIP3    H230315   6.276   6.980   2.757
10120TIP3   OH230316   5.173   4.418   2.838
10120TIP3    H130317   5.173   4.482   2.766
10120TIP3    H230318   5.233   4.455   2.903
10121TIP3   OH230319   7.764   1.047   6.350
10121TIP3    H130320   7.844   0.998   6.330
10121TIP3    H230321   7.796   1.131   6.383
10122TIP3   OH230322   1.357   1.240   2.147
10122TIP3    H130323   1.285   1.267   2.089
10122TIP3    H230324   1.315   1.230   2.233
10123TIP3   OH230325   5.807   0.645   3.953
10123TIP3    H130326   5.777   0.559   3.922
10123TIP3    H230327   5.734   0.704   3.932
10124TIP3   OH230328   5.005   0.507   0.566
10124TIP3    H130329   4.927   0.562   0.559
10124TIP3    H230330   4.984   0.430   0.514
10125TIP3   OH230331   4.646   4.345   1.696
10125TIP3    H130332   4.573   4.284   1.708
10125TIP3    H230333   4.642   4.403   1.772
10126TIP3   OH230334   5.260   1.427   4.590
10126TIP3    H130335   5.320   1.481   4.642
10126TIP3    H230336   5.196   1.394   4.654
10127TIP3   OH230337   4.537   4.672   2.481
10127TIP3    H130338   4.504   4.615   2.550
10127TIP3    H230339   4.520   4.624   2.400
10128TIP3   OH230340   1.710   3.763   3.079
10128TIP3    H130341   1.787   3.735   3.029
10128TIP3    H230342   1.683   3.845   3.038
10129TIP3   OH230343   6.013   6.784   1.911
10129TIP3    H130344   5.976   6.870   1.890
10129TIP3    H230345   5.982   6.766   2.001
10130TIP3   OH230346   2.494   3.627   3.055
10130TIP3    H130347   2.588   3.640   3.050
10130TIP3    H230348   2.468   3.668   3.138
10131TIP3   OH230349   0.645   5.019   6.029
10131TIP3    H130350   0.723   4.979   5.991
10131TIP3    H230351   0.644   5.109   5.995
10132TIP3   OH230352   6.016   0.636   1.675
10132TIP3    H130353   6.036   0.686   1.596
10132TIP3    H230354   6.082   0.664   1.738
10133TIP3   OH230355   8.177   2.682   0.229
10133TIP3    H130356   8.114   2.625   0.187
10133TIP3    H230357   8.205   2.742   0.159
10134TIP3   OH230358   0.219   1.953   0.151
10134TIP3    H130359   0.294   2.011   0.163
10134TIP3    H230360   0.256   1.873   0.113
10135TIP3   OH230361   6.215   2.686   4.855
10135TIP3    H130362   6.225   2.754   4.921
10135TIP3    H230363   6.296   2.635   4.861
10136TIP3   OH230364   7.047   0.532   0.540
10136TIP3    H130365   7.021   0.524   0.631
10136TIP3    H230366   6.981   0.589   0.501
10137TIP3   OH230367   6.186   1.033   4.832
10137TIP3    H130368   6.249   1.060   4.898
10137TIP3    H230369   6.232   0.967   4.780
10138TIP3   OH230370   5.876   1.370   1.761
10138TIP3    H130371   5.898   1.432   1.691
10138TIP3    H230372   5.905   1.413   1.841
10139TIP3   OH230373   0.103   3.939   1.504
10139TIP3    H130374   0.193   3.972   1.496
10139TIP3    H230375   0.053   3.990   1.440
10140TIP3   OH230376   0.897   3.282   4.257
10140TIP3    H130377   0.872   3.222   4.187
10140TIP3    H230378   0.855   3.365   4.234
10141TIP3   OH230379   4.089   0.497   2.999
10141TIP3    H130380   4.113   0.488   2.907
10141TIP3    H230381   4.089   0.407   3.033
10142TIP3   OH230382   1.030   0.185   5.154
10142TIP3    H130383   1.015   0.136   5.235
10142TIP3    H230384   0.953   0.241   5.145
10143TIP3   OH230385   1.906   3.597   5.025
10143TIP3    H130386   2.000   3.604   5.042
10143TIP3    H230387   1.885   3.672   4.969
10144TIP3   OH230388   4.177   6.734   5.963
10144TIP3    H130389   4.163   6.655   6.014
10144TIP3    H230390   4.208   6.702   5.878
10145TIP3   OH230391   2.783   0.349   3.310
10145TIP3    H130392   2.730   0.329   3.233
10145TIP3    H230393   2.857   0.399   3.276
10146TIP3   OH230394   2.641   0.829   0.600
10146TIP3    H130395   2.734   0.848   0.613
10146TIP3    H230396   2.635   0.734   0.610
10147TIP3   OH230397   1.435   4.892   2.856
10147TIP3    H130398   1.396   4.961   2.910
10147TIP3    H230399   1.529   4.910   2.861
10148TIP3   OH230400   6.665   7.744   5.720
10148TIP3    H130401   6.599   7.676   5.714
10148TIP3    H230402   6.746   7.698   5.740
10149TIP3   OH230403   0.593   5.981   2.569
10149TIP3    H130404   0.558   5.893   2.584
10149TIP3    H230405   0.527   6.039   2.607
10150TIP3   OH230406   7.558   3.382   6.703
10150TIP3    H130407   7.559   3.372   6.798
10150TIP3    H230408   7.648   3.364   6.676
10151TIP3   OH230409   1.554   2.557   2.477
10151TIP3    H130410   1.514   2.523   2.396
10151TIP3    H230411   1.629   2.609   2.447
10152TIP3   OH230412   1.326   5.974   1.537
10152TIP3    H130413   1.251   5.939   1.491
10152TIP3    H230414   1.302   5.968   1.630
10153TIP3   OH230415   0.263   4.954   5.593
10153TIP3    H130416   0.238   4.960   5.685
10153TIP3    H230417   0.307   5.037   5.574
10154TIP3   OH230418   5.380   6.327   1.119
10154TIP3    H130419   5.396   6.352   1.210
10154TIP3    H230420   5.467   6.304   1.085
10155TIP3   OH230421   2.852   0.247   0.686
10155TIP3    H130422   2.929   0.225   0.739
10155TIP3    H230423   2.852   0.343   0.682
10156TIP3   OH230424   4.107   6.778   3.430
10156TIP3    H130425   4.089   6.686   3.448
10156TIP3    H230426   4.198   6.780   3.402
10157TIP3   OH230427   7.934   2.265   0.330
10157TIP3    H130428   7.898   2.216   0.404
10157TIP3    H230429   8.011   2.216   0.304
10158TIP3   OH230430   3.244   4.559   0.493
10158TIP3    H130431   3.268   4.478   0.447
10158TIP3    H230432   3.248   4.536   0.586
10159TIP3   OH230433   0.969   0.135   4.025
10159TIP3    H130434   0.970   0.043   4.052
10159TIP3    H230435   0.883   0.167   4.052
10160TIP3   OH230436   4.702   4.961   2.011
10160TIP3    H130437   4.687   4.870   2.036
10160TIP3    H230438   4.794   4.964   1.987
10161TIP3   OH230439   4.885   5.824   4.798
10161TIP3    H130440   4.953   5.886   4.826
10161TIP3    H230441   4.803   5.863   4.829
10162TIP3   OH230442   8.279   1.139   4.909
10162TIP3    H130443   8.269   1.204   4.979
10162TIP3    H230444   8.268   1.055   4.953
10163TIP3   OH230445   5.798   7.380   6.662
10163TIP3    H130446   5.803   7.470   6.693
10163TIP3    H230447   5.776   7.387   6.569
10164TIP3   OH230448   1.557   1.116   0.507
10164TIP3    H130449   1.639   1.132   0.459
10164TIP3    H230450   1.535   1.025   0.487
10165TIP3   OH230451   1.715   4.091   1.842
10165TIP3    H130452   1.743   4.133   1.760
10165TIP3    H230453   1.769   4.012   1.848
10166TIP3   OH230454   0.352   2.352   1.862
10166TIP3    H130455   0.411   2.286   1.826
10166TIP3    H230456   0.265   2.326   1.832
10167TIP3   OH230457   7.553   4.175   0.736
10167TIP3    H130458   7.600   4.095   0.760
10167TIP3    H230459   7.466   4.165   0.774
10168TIP3   OH230460   5.530   0.921   5.167
10168TIP3    H130461   5.444   0.878   5.161
10168TIP3    H230462   5.516   0.995   5.227
10169TIP3   OH230463   6.349   3.690   2.065
10169TIP3    H130464   6.343   3.773   2.112
10169TIP3    H230465   6.392   3.713   1.982
10170TIP3   OH230466   6.718   1.720   5.123
10170TIP3    H130467   6.622   1.718   5.122
10170TIP3    H230468   6.745   1.651   5.063
10171TIP3   OH230469   2.144   4.242   2.806
10171TIP3    H130470   2.104   4.162   2.839
10171TIP3    H230471   2.229   4.214   2.773
10172TIP3   OH230472   6.567   3.222   1.301
10172TIP3    H130473   6.497   3.205   1.237
10172TIP3    H230474   6.584   3.137   1.341
10173TIP3   OH230475   3.627   6.380   5.844
10173TIP3    H130476   3.623   6.431   5.763
10173TIP3    H230477   3.607   6.291   5.818
10174TIP3   OH230478   4.917   4.153   0.984
10174TIP3    H130479   4.922   4.132   0.891
10174TIP3    H230480   4.991   4.107   1.023
10175TIP3   OH230481   2.837   7.428   1.124
10175TIP3    H130482   2.765   7.377   1.087
10175TIP3    H230483   2.802   7.465   1.204
10176TIP3   OH230484   4.538   5.342   1.202
10176TIP3    H130485   4.572   5.430   1.185
10176TIP3    H230486   4.472   5.328   1.134
10177TIP3   OH230487   7.486   6.558   0.472
10177TIP3    H130488   7.542   6.506   0.414
10177TIP3    H230489   7.472   6.503   0.548
10178TIP3   OH230490   7.444   0.635   3.315
10178TIP3    H130491   7.454   0.580   3.237
10178TIP3    H230492   7.365   0.686   3.299
10179TIP3   OH230493   3.534   1.188   1.205
10179TIP3    H130494   3.572   1.243   1.273
10179TIP3    H230495   3.469   1.244   1.163
10180TIP3   OH230496   5.401   5.465   2.157
10180TIP3    H130497   5.322   5.423   2.124
10180TIP3    H230498   5.369   5.534   2.216
10181TIP3   OH230499   1.118   4.456   4.997
10181TIP3    H130500   1.118   4.495   4.909
10181TIP3    H230501   1.047   4.500   5.043
10182TIP3   OH230502   4.403   5.921   3.956
10182TIP3    H130503   4.329   5.934   3.896
10182TIP3    H230504   4.407   6.002   4.007
10183TIP3   OH230505   4.006   2.706   5.245
10183TIP3    H130506   4.067   2.745   5.181
10183TIP3    H230507   3.996   2.616   5.217
10184TIP3   OH230508   1.157   4.351   0.369
10184TIP3    H130509   1.178   4.333   0.277
10184TIP3    H230510   1.237   4.388   0.405
10185TIP3   OH230511   4.835   1.824   4.098
10185TIP3    H130512   4.762   1.764   4.113
10185TIP3    H230513   4.862   1.852   4.186
10186TIP3   OH230514   1.024   6.964   6.731
10186TIP3    H130515   1.090   7.000   6.673
10186TIP3    H230516   0.944   6.963   6.679
10187TIP3   OH230517   5.979   2.176   6.638
10187TIP3    H130518   6.066   2.136   6.632
10187TIP3    H230519   5.918   2.103   6.633
10188TIP3   OH230520   7.032   0.991   1.500
10188TIP3    H130521   7.070   0.984   1.587
10188TIP3    H230522   7.019   1.085   1.487
10189TIP3   OH230523   2.823   7.453   0.244
10189TIP3    H130524   2.863   7.467   0.158
10189TIP3    H230525   2.783   7.538   0.265
10190TIP3   OH230526   2.173   3.716   2.850
10190TIP3    H130527   2.248   3.700   2.793
10190TIP3    H230528   2.157   3.810   2.843
10191TIP3   OH230529   2.769   0.869   6.084
10191TIP3    H130530   2.795   0.791   6.036
10191TIP3    H230531   2.851   0.915   6.102
10192TIP3   OH230532   0.202   1.611   3.773
10192TIP3    H130533   0.242   1.695   3.750
10192TIP3    H230534   0.111   1.619   3.745
10193TIP3   OH230535   5.838   6.662   6.139
10193TIP3    H130536   5.840   6.586   6.081
10193TIP3    H230537   5.782   6.635   6.212
10194TIP3   OH230538   0.281   6.189   5.317
10194TIP3    H130539   0.271   6.095   5.329
10194TIP3    H230540   0.268   6.226   5.405
10195TIP3   OH230541   2.457   5.244   6.475
10195TIP3    H130542   2.546   5.273   6.495
10195TIP3    H230543   2.458   5.150   6.494
10196TIP3   OH230544   7.454   2.928   4.531
10196TIP3    H130545   7.501   2.931   4.615
10196TIP3    H230546   7.367   2.962   4.551
10197TIP3   OH230547   1.397   2.995   1.899
10197TIP3    H130548   1.376   3.073   1.951
10197TIP3    H230549   1.347   3.006   1.818
10198TIP3   OH230550   7.968   6.913   0.545
10198TIP3    H130551   7.965   6.895   0.639
10198TIP3    H230552   7.877   6.907   0.517
10199TIP3   OH230553   0.216   4.885   2.121
10199TIP3    H130554   0.245   4.805   2.077
10199TIP3    H230555   0.121   4.878   2.124
10200TIP3   OH230556   0.061   3.550   6.493
10200TIP3    H130557   0.030   3.562   6.583
10200TIP3    H230558   0.056   3.455   6.479
10201TIP3   OH230559   5.541   5.598   1.964
10201TIP3    H130560   5.523   5.686   1.995
10201TIP3    H230561   5.514   5.541   2.036
10202TIP3   OH230562   4.639   5.914   1.180
10202TIP3    H130563   4.715   5.949   1.132
10202TIP3    H230564   4.601   5.850   1.120
10203TIP3   OH230565   2.740   0.154   5.825
10203TIP3    H130566   2.778   0.101   5.895
10203TIP3    H230567   2.658   0.110   5.803
10204TIP3   OH230568   4.890   1.970   3.272
10204TIP3    H130569   4.958   2.033   3.293
10204TIP3    H230570   4.848   1.950   3.356
10205TIP3   OH230571   2.605   1.830   3.915
10205TIP3    H130572   2.596   1.842   4.010
10205TIP3    H230573   2.634   1.915   3.883
10206TIP3   OH230574   5.756   1.020   3.690
10206TIP3    H130575   5.708   0.939   3.706
10206TIP3    H230576   5.713   1.059   3.614
10207TIP3   OH230577   4.182   1.484   3.880
10207TIP3    H130578   4.250   1.423   3.850
10207TIP3    H230579   4.216   1.520   3.962
10208TIP3   OH230580   5.094   1.771   0.796
10208TIP3    H130581   5.119   1.802   0.710
10208TIP3    H230582   5.176   1.755   0.842
10209TIP3   OH230583   2.051   1.480   2.147
10209TIP3    H130584   1.957   1.497   2.147
10209TIP3    H230585   2.059   1.391   2.181
10210TIP3   OH230586   0.271   2.937   3.743
10210TIP3    H130587   0.321   3.015   3.769
10210TIP3    H230588   0.198   2.933   3.804
10211TIP3   OH230589   5.908   4.732   0.603
10211TIP3    H130590   5.977   4.772   0.550
10211TIP3    H230591   5.840   4.799   0.608
10212TIP3   OH230592   1.639   3.199   4.559
10212TIP3    H130593   1.601   3.239   4.481
10212TIP3    H230594   1.626   3.105   4.547
10213TIP3   OH230595   8.306   5.437   6.287
10213TIP3    H130596   8.288   5.353   6.244
10213TIP3    H230597   8.273   5.425   6.376
10214TIP3   OH230598   4.587   7.145   0.396
10214TIP3    H130599   4.620   7.057   0.413
10214TIP3    H230600   4.665   7.200   0.390
10215TIP3   OH230601   5.769   5.959   2.825
10215TIP3    H130602   5.752   5.870   2.855
10215TIP3    H230603   5.692   6.009   2.853
10216TIP3   OH230604   2.281   6.433   1.910
10216TIP3    H130605   2.324   6.391   1.984
10216TIP3    H230606   2.191   6.401   1.913
10217TIP3   OH230607   1.965   6.475   1.618
10217TIP3    H130608   1.953   6.410   1.687
10217TIP3    H230609   2.051   6.455   1.581
10218TIP3   OH230610   7.100   3.463   6.680
10218TIP3    H130611   7.087   3.379   6.635
10218TIP3    H230612   7.013   3.504   6.680
10219TIP3   OH230613   0.321   3.151   4.485
10219TIP3    H130614   0.339   3.113   4.399
10219TIP3    H230615   0.339   3.080   4.547
10220TIP3   OH230616   7.230   4.471   1.632
10220TIP3    H130617   7.235   4.376   1.628
10220TIP3    H230618   7.178   4.496   1.556
10221TIP3   OH230619   6.474   5.511   3.150
10221TIP3    H130620   6.401   5.556   3.107
10221TIP3    H230621   6.437   5.428   3.180
10222TIP3   OH230622   2.188   1.009   3.302
10222TIP3    H130623   2.147   0.967   3.377
10222TIP3    H230624   2.131   0.988   3.228
10223TIP3   OH230625   0.872   1.039   1.588
10223TIP3    H130626   0.790   1.018   1.633
10223TIP3    H230627   0.856   1.013   1.497
10224TIP3   OH230628   5.074   6.273  -0.012
10224TIP3    H130629   5.162   6.310  -0.019
10224TIP3    H230630   5.025   6.337   0.039
10225TIP3   OH230631   7.049   2.335   0.111
10225TIP3    H130632   7.123   2.304   0.164
10225TIP3    H230633   7.061   2.291   0.027
10226TIP3   OH230634   3.570   1.315   5.518
10226TIP3    H130635   3.642   1.268   5.477
10226TIP3    H230636   3.519   1.351   5.445
10227TIP3   OH230637   2.206   7.639   3.529
10227TIP3    H130638   2.287   7.606   3.567
10227TIP3    H230639   2.178   7.708   3.590
10228TIP3   OH230640   4.204   1.895   6.003
10228TIP3    H130641   4.279   1.841   5.976
10228TIP3    H230642   4.136   1.875   5.937
10229TIP3   OH230643   6.900   1.358   6.088
10229TIP3    H130644   6.806   1.351   6.073
10229TIP3    H230645   6.937   1.368   6.000
10230TIP3   OH230646   1.401   3.450   4.145
10230TIP3    H130647   1.451   3.429   4.067
10230TIP3    H230648   1.318   3.486   4.113
10231TIP3   OH230649   0.336   6.735   0.707
10231TIP3    H130650   0.280   6.813   0.708
10231TIP3    H230651   0.349   6.715   0.615
10232TIP3   OH230652   5.170   7.512   5.580
10232TIP3    H130653   5.206   7.475   5.500
10232TIP3    H230654   5.084   7.546   5.554
10233TIP3   OH230655   1.113   5.616   2.518
10233TIP3    H130656   1.082   5.683   2.578
10233TIP3    H230657   1.205   5.603   2.541
10234TIP3   OH230658   1.685   4.818   2.529
10234TIP3    H130659   1.726   4.902   2.553
10234TIP3    H230660   1.642   4.789   2.609
10235TIP3   OH230661   5.549   2.280   5.915
10235TIP3    H130662   5.480   2.279   5.849
10235TIP3    H230663   5.623   2.324   5.872
10236TIP3   OH230664   7.666   7.134   0.960
10236TIP3    H130665   7.673   7.049   0.916
10236TIP3    H230666   7.754   7.150   0.995
10237TIP3   OH230667   6.940   3.618   6.346
10237TIP3    H130668   6.863   3.655   6.302
10237TIP3    H230669   6.912   3.531   6.375
10238TIP3   OH230670   1.367   2.766   4.119
10238TIP3    H130671   1.352   2.674   4.139
10238TIP3    H230672   1.279   2.801   4.103
10239TIP3   OH230673   2.484   3.983   5.451
10239TIP3    H130674   2.553   4.048   5.440
10239TIP3    H230675   2.411   4.032   5.489
10240TIP3   OH230676   2.750   1.912   0.522
10240TIP3    H130677   2.710   1.831   0.554
10240TIP3    H230678   2.786   1.890   0.437
10241TIP3   OH230679   3.755   7.311   0.590
10241TIP3    H130680   3.807   7.348   0.520
10241TIP3    H230681   3.748   7.218   0.568
10242TIP3   OH230682   5.423   5.153   1.216
10242TIP3    H130683   5.434   5.166   1.122
10242TIP3    H230684   5.449   5.237   1.255
10243TIP3   OH230685   2.092   0.185   0.618
10243TIP3    H130686   2.124   0.230   0.540
10243TIP3    H230687   2.081   0.094   0.590
10244TIP3   OH230688   5.318   6.458   0.155
10244TIP3    H130689   5.332   6.537   0.207
10244TIP3    H230690   5.225   6.437   0.170
10245TIP3   OH230691   2.132   6.560   0.307
10245TIP3    H130692   2.064   6.518   0.254
10245TIP3    H230693   2.214   6.524   0.274
10246TIP3   OH230694   2.592   4.823   2.487
10246TIP3    H130695   2.603   4.835   2.393
10246TIP3    H230696   2.567   4.909   2.519
10247TIP3   OH230697   8.247   0.697   0.749
10247TIP3    H130698   8.205   0.742   0.822
10247TIP3    H230699   8.187   0.709   0.675
10248TIP3   OH230700   6.372   7.050   3.075
10248TIP3    H130701   6.350   6.998   2.998
10248TIP3    H230702   6.365   7.141   3.045
10249TIP3   OH230703   6.175   3.270   1.354
10249TIP3    H130704   6.178   3.331   1.428
10249TIP3    H230705   6.200   3.185   1.392
10250TIP3   OH230706   4.288   0.321   2.288
10250TIP3    H130707   4.362   0.271   2.324
10250TIP3    H230708   4.230   0.254   2.250
10251TIP3   OH230709   7.324   5.380   1.646
10251TIP3    H130710   7.338   5.404   1.737
10251TIP3    H230711   7.378   5.301   1.633
10252TIP3   OH230712   6.469   1.552   0.458
10252TIP3    H130713   6.419   1.500   0.521
10252TIP3    H230714   6.490   1.632   0.506
10253TIP3   OH230715   1.634   7.247   6.381
10253TIP3    H130716   1.628   7.154   6.403
10253TIP3    H230717   1.725   7.260   6.357
10254TIP3   OH230718   1.386   5.350   4.648
10254TIP3    H130719   1.435   5.407   4.588
10254TIP3    H230720   1.379   5.267   4.602
10255TIP3   OH230721   3.304   6.959   3.658
10255TIP3    H130722   3.323   7.024   3.725
10255TIP3    H230723   3.282   7.010   3.580
10256TIP3   OH230724   1.643   2.244   0.096
10256TIP3    H130725   1.632   2.193   0.016
10256TIP3    H230726   1.568   2.219   0.150
10257TIP3   OH230727   6.376   3.925   6.104
10257TIP3    H130728   6.313   3.978   6.053
10257TIP3    H230729   6.416   3.867   6.040
10258TIP3   OH230730   7.379   5.102   4.242
10258TIP3    H130731   7.327   5.164   4.190
10258TIP3    H230732   7.461   5.093   4.193
10259TIP3   OH230733   1.203   0.325   3.167
10259TIP3    H130734   1.199   0.256   3.234
10259TIP3    H230735   1.161   0.285   3.090
10260TIP3   OH230736   5.913   3.597   1.124
10260TIP3    H130737   5.918   3.664   1.056
10260TIP3    H230738   5.819   3.591   1.144
10261TIP3   OH230739   3.697   7.402   4.912
10261TIP3    H130740   3.671   7.381   4.821
10261TIP3    H230741   3.640   7.475   4.937
10262TIP3   OH230742   1.976   6.796   1.589
10262TIP3    H130743   2.031   6.743   1.531
10262TIP3    H230744   1.890   6.754   1.583
10263TIP3   OH230745   0.868   4.829   4.414
10263TIP3    H130746   0.808   4.832   4.488
10263TIP3    H230747   0.945   4.878   4.443
10264TIP3   OH230748   0.391   3.007   3.249
10264TIP3    H130749   0.447   2.934   3.224
10264TIP3    H230750   0.394   3.066   3.174
10265TIP3   OH230751   6.279   0.688   3.669
10265TIP3    H130752   6.310   0.664   3.757
10265TIP3    H230753   6.332   0.765   3.645
10266TIP3   OH230754   5.242   6.298   3.757
10266TIP3    H130755   5.241   6.369   3.692
10266TIP3    H230756   5.252   6.218   3.706
10267TIP3   OH230757   1.602   1.306   2.785
10267TIP3    H130758   1.609   1.368   2.857
10267TIP3    H230759   1.531   1.247   2.811
10268TIP3   OH230760   4.309   0.828   1.037
10268TIP3    H130761   4.296   0.736   1.060
10268TIP3    H230762   4.245   0.875   1.091
10269TIP3   OH230763   7.131   4.839   2.305
10269TIP3    H130764   7.153   4.806   2.393
10269TIP3    H230765   7.189   4.790   2.246
10270TIP3   OH230766   5.980   7.308   2.212
10270TIP3    H130767   5.945   7.222   2.235
10270TIP3    H230768   6.061   7.315   2.262
10271TIP3   OH230769   6.436   5.130   5.206
10271TIP3    H130770   6.496   5.069   5.163
10271TIP3    H230771   6.400   5.081   5.280
10272TIP3   OH230772   6.648   4.547   0.395
10272TIP3    H130773   6.664   4.535   0.488
10272TIP3    H230774   6.683   4.467   0.354
10273TIP3   OH230775   1.675   7.299   2.738
10273TIP3    H130776   1.627   7.345   2.808
10273TIP3    H230777   1.680   7.208   2.768
10274TIP3   OH230778   6.687   3.538   5.831
10274TIP3    H130779   6.775   3.534   5.795
10274TIP3    H230780   6.629   3.530   5.755
10275TIP3   OH230781   4.256   0.421   4.155
10275TIP3    H130782   4.326   0.486   4.144
10275TIP3    H230783   4.272   0.383   4.242
10276TIP3   OH230784   6.957   2.089   5.850
10276TIP3    H130785   6.863   2.093   5.869
10276TIP3    H230786   6.963   2.052   5.762
10277TIP3   OH230787   0.934   2.470   0.590
10277TIP3    H130788   1.004   2.438   0.647
10277TIP3    H230789   0.856   2.471   0.646
10278TIP3   OH230790   4.023   2.621   1.779
10278TIP3    H130791   3.958   2.681   1.742
10278TIP3    H230792   4.066   2.582   1.704
10279TIP3   OH230793   4.984   7.010   6.379
10279TIP3    H130794   4.977   7.070   6.454
10279TIP3    H230795   4.943   6.929   6.410
10280TIP3   OH230796   0.445   5.737   4.254
10280TIP3    H130797   0.520   5.792   4.232
10280TIP3    H230798   0.452   5.722   4.348
10281TIP3   OH230799   5.269   3.369   2.014
10281TIP3    H130800   5.326   3.444   2.030
10281TIP3    H230801   5.296   3.304   2.079
10282TIP3   OH230802   1.165   2.387   3.570
10282TIP3    H130803   1.151   2.313   3.629
10282TIP3    H230804   1.153   2.465   3.625
10283TIP3   OH230805   6.001   6.273   1.203
10283TIP3    H130806   5.956   6.332   1.263
10283TIP3    H230807   5.935   6.209   1.178
10284TIP3   OH230808   0.920   1.518   6.183
10284TIP3    H130809   0.926   1.566   6.266
10284TIP3    H230810   0.979   1.566   6.125
10285TIP3   OH230811   0.931   4.913   1.200
10285TIP3    H130812   0.928   4.930   1.106
10285TIP3    H230813   1.011   4.862   1.213
10286TIP3   OH230814   5.544   4.188   4.094
10286TIP3    H130815   5.516   4.100   4.121
10286TIP3    H230816   5.468   4.225   4.049
10287TIP3   OH230817   4.880   6.816   3.178
10287TIP3    H130818   4.927   6.746   3.134
10287TIP3    H230819   4.790   6.809   3.146
10288TIP3   OH230820   5.633   5.061   5.385
10288TIP3    H130821   5.634   5.096   5.475
10288TIP3    H230822   5.664   5.134   5.331
10289TIP3   OH230823   4.322   0.410   0.142
10289TIP3    H130824   4.402   0.463   0.141
10289TIP3    H230825   4.255   0.466   0.104
10290TIP3   OH230826   3.734   5.254   2.605
10290TIP3    H130827   3.746   5.235   2.512
10290TIP3    H230828   3.677   5.183   2.637
10291TIP3   OH230829   4.928   3.329   3.684
10291TIP3    H130830   4.916   3.361   3.774
10291TIP3    H230831   4.910   3.236   3.689
10292TIP3   OH230832   2.504   4.183   5.001
10292TIP3    H130833   2.565   4.115   4.972
10292TIP3    H230834   2.443   4.193   4.928
10293TIP3   OH230835   7.827   4.956   2.520
10293TIP3    H130836   7.786   4.894   2.459
10293TIP3    H230837   7.911   4.977   2.479
10294TIP3   OH230838   5.584   2.224   0.173
10294TIP3    H130839   5.625   2.177   0.246
10294TIP3    H230840   5.627   2.309   0.173
10295TIP3   OH230841   0.434   2.186   4.961
10295TIP3    H130842   0.446   2.091   4.953
10295TIP3    H230843   0.459   2.205   5.051
10296TIP3   OH230844   4.842   0.963   6.471
10296TIP3    H130845   4.885   1.023   6.532
10296TIP3    H230846   4.750   0.963   6.498
10297TIP3   OH230847   5.035   0.134   1.884
10297TIP3    H130848   5.081   0.217   1.886
10297TIP3    H230849   5.100   0.069   1.912
10298TIP3   OH230850   8.222   3.453   3.639
10298TIP3    H130851   8.177   3.511   3.701
10298TIP3    H230852   8.236   3.372   3.687
10299TIP3   OH230853   4.224   4.395   2.757
10299TIP3    H130854   4.244   4.348   2.838
10299TIP3    H230855   4.133   4.372   2.739
10300TIP3   OH230856   5.574   7.370   5.090
10300TIP3    H130857   5.589   7.347   5.181
10300TIP3    H230858   5.611   7.458   5.081
10301TIP3   OH230859   0.803   2.658   3.481
10301TIP3    H130860   0.797   2.636   3.388
10301TIP3    H230861   0.727   2.615   3.521
10302TIP3   OH230862   2.323   5.257   2.273
10302TIP3    H130863   2.239   5.242   2.318
10302TIP3    H230864   2.344   5.173   2.233
10303TIP3   OH230865   5.209   2.234   1.058
10303TIP3    H130866   5.142   2.280   1.110
10303TIP3    H230867   5.289   2.284   1.072
10304TIP3   OH230868   5.492  -0.014   3.841
10304TIP3    H130869   5.554   0.038   3.893
10304TIP3    H230870   5.454  -0.075   3.904
10305TIP3   OH230871   2.873   1.521   3.530
10305TIP3    H130872   2.958   1.537   3.489
10305TIP3    H230873   2.826   1.466   3.467
10306TIP3   OH230874   1.326   6.389   3.294
10306TIP3    H130875   1.395   6.403   3.359
10306TIP3    H230876   1.266   6.328   3.336
10307TIP3   OH230877   1.356   0.778   2.738
10307TIP3    H130878   1.388   0.736   2.658
10307TIP3    H230879   1.386   0.868   2.732
10308TIP3   OH230880   5.059   3.753   3.637
10308TIP3    H130881   5.049   3.745   3.732
10308TIP3    H230882   5.151   3.776   3.625
10309TIP3   OH230883   3.520   7.446   6.396
10309TIP3    H130884   3.600   7.493   6.420
10309TIP3    H230885   3.527   7.362   6.441
10310TIP3   OH230886   2.649   2.821   6.634
10310TIP3    H130887   2.730   2.779   6.661
10310TIP3    H230888   2.667   2.915   6.641
10311TIP3   OH230889   2.223   7.129   5.131
10311TIP3    H130890   2.183   7.075   5.063
10311TIP3    H230891   2.273   7.196   5.084
10312TIP3   OH230892   7.587   1.815   2.071
10312TIP3    H130893   7.525   1.757   2.027
10312TIP3    H230894   7.612   1.879   2.004
10313TIP3   OH230895   8.071   5.994   5.930
10313TIP3    H130896   8.075   6.085   5.901
10313TIP3    H230897   8.095   5.943   5.852
10314TIP3   OH230898   8.206   5.634   6.040
10314TIP3    H130899   8.269   5.593   6.100
10314TIP3    H230900   8.137   5.667   6.097
10315TIP3   OH230901   4.672   2.413   5.131
10315TIP3    H130902   4.726   2.334   5.132
10315TIP3    H230903   4.594   2.388   5.082
10316TIP3   OH230904   3.069   4.823   4.933
10316TIP3    H130905   3.071   4.854   4.842
10316TIP3    H230906   3.005   4.752   4.932
10317TIP3   OH230907   7.887   6.059   0.908
10317TIP3    H130908   7.890   6.001   0.984
10317TIP3    H230909   7.854   6.003   0.837
10318TIP3   OH230910   1.469   1.338   4.399
10318TIP3    H130911   1.466   1.387   4.481
10318TIP3    H230912   1.561   1.315   4.388
10319TIP3   OH230913   3.765   6.599   5.969
10319TIP3    H130914   3.698   6.662   5.943
10319TIP3    H230915   3.753   6.525   5.909
10320TIP3   OH230916   4.449   4.437   2.606
10320TIP3    H130917   4.481   4.348   2.592
10320TIP3    H230918   4.369   4.426   2.658
10321TIP3   OH230919   7.574   5.890   1.490
10321TIP3    H130920   7.649   5.929   1.445
10321TIP3    H230921   7.589   5.796   1.485
10322TIP3   OH230922   0.077   1.821   4.527
10322TIP3    H130923   0.162   1.803   4.488
10322TIP3    H230924   0.095   1.889   4.592
10323TIP3   OH230925   4.532   6.397   3.433
10323TIP3    H130926   4.566   6.308   3.426
10323TIP3    H230927   4.545   6.435   3.346
10324TIP3   OH230928   6.232   1.781   2.496
10324TIP3    H130929   6.232   1.806   2.403
10324TIP3    H230930   6.288   1.846   2.538
10325TIP3   OH230931   2.804   7.120   4.581
10325TIP3    H130932   2.889   7.077   4.590
10325TIP3    H230933   2.808   7.163   4.495
10326TIP3   OH230934   0.985   1.842   0.523
10326TIP3    H130935   1.066   1.861   0.477
10326TIP3    H230936   0.998   1.755   0.561
10327TIP3   OH230937   7.329   0.162   2.964
10327TIP3    H130938   7.325   0.154   3.059
10327TIP3    H230939   7.276   0.239   2.944
10328TIP3   OH230940   2.665   7.503   5.650
10328TIP3    H130941   2.668   7.485   5.556
10328TIP3    H230942   2.658   7.416   5.691
10329TIP3   OH230943   0.259   6.383   6.293
10329TIP3    H130944   0.304   6.457   6.254
10329TIP3    H230945   0.287   6.307   6.242
10330TIP3   OH230946   7.600   7.279   4.175
10330TIP3    H130947   7.623   7.315   4.260
10330TIP3    H230948   7.580   7.187   4.191
10331TIP3   OH230949   5.197   1.584   0.390
10331TIP3    H130950   5.132   1.654   0.379
10331TIP3    H230951   5.279   1.630   0.405
10332TIP3   OH230952   4.806   1.670   4.520
10332TIP3    H130953   4.886   1.721   4.526
10332TIP3    H230954   4.836   1.581   4.501
10333TIP3   OH230955   1.910   6.657   2.282
10333TIP3    H130956   1.911   6.709   2.202
10333TIP3    H230957   1.895   6.567   2.252
10334TIP3   OH230958   4.219   6.185   2.973
10334TIP3    H130959   4.206   6.256   3.035
10334TIP3    H230960   4.224   6.228   2.887
10335TIP3   OH230961   0.448   3.342   4.024
10335TIP3    H130962   0.522   3.357   3.966
10335TIP3    H230963   0.411   3.429   4.040
10336TIP3   OH230964  -0.072   7.140   3.573
10336TIP3    H130965  -0.033   7.225   3.594
10336TIP3    H230966  -0.024   7.077   3.627
10337TIP3   OH230967   0.639   6.077   6.000
10337TIP3    H130968   0.676   6.026   6.072
10337TIP3    H230969   0.583   6.142   6.044
10338TIP3   OH230970   1.690   1.758   6.655
10338TIP3    H130971   1.744   1.828   6.692
10338TIP3    H230972   1.653   1.713   6.731
10339TIP3   OH230973   8.236   1.883   1.635
10339TIP3    H130974   8.256   1.791   1.621
10339TIP3    H230975   8.321   1.923   1.656
10340TIP3   OH230976   4.772   7.775   2.773
10340TIP3    H130977   4.783   7.817   2.687
10340TIP3    H230978   4.684   7.738   2.771
10341TIP3   OH230979   1.727   2.763   2.393
10341TIP3    H130980   1.763   2.801   2.313
10341TIP3    H230981   1.713   2.838   2.451
10342TIP3   OH230982   5.117   4.911   4.994
10342TIP3    H130983   5.077   4.996   5.011
10342TIP3    H230984   5.186   4.903   5.060
10343TIP3   OH230985   2.872   5.323   2.789
10343TIP3    H130986   2.881   5.239   2.743
10343TIP3    H230987   2.962   5.351   2.807
10344TIP3   OH230988   4.173   3.128   5.215
10344TIP3    H130989   4.226   3.069   5.269
10344TIP3    H230990   4.237   3.177   5.164
10345TIP3   OH230991   6.308   3.661   5.070
10345TIP3    H130992   6.363   3.713   5.128
10345TIP3    H230993   6.219   3.694   5.084
10346TIP3   OH230994   7.670   1.186   6.621
10346TIP3    H130995   7.737   1.243   6.583
10346TIP3    H230996   7.589   1.236   6.615
10347TIP3   OH230997   6.414   5.022   3.988
10347TIP3    H130998   6.475   5.012   4.061
10347TIP3    H230999   6.431   4.946   3.932
10348TIP3   OH231000   4.028   5.216   6.132
10348TIP3    H131001   4.026   5.121   6.145
10348TIP3    H231002   4.120   5.238   6.124
10349TIP3   OH231003   8.126   0.071   0.025
10349TIP3    H131004   8.052   0.065  -0.035
10349TIP3    H231005   8.102   0.016   0.100
10350TIP3   OH231006   5.056   4.974   1.162
10350TIP3    H131007   4.969   4.935   1.150
10350TIP3    H231008   5.101   4.915   1.223
10351TIP3   OH231009   5.202   1.914   0.151
10351TIP3    H131010   5.245   1.998   0.170
10351TIP3    H231011   5.274   1.855   0.129
10352TIP3   OH231012   5.013   7.575   2.300
10352TIP3    H131013   4.952   7.623   2.243
10352TIP3    H231014   5.030   7.493   2.253
10353TIP3   OH231015   6.946   2.698   5.266
10353TIP3    H131016   6.887   2.717   5.194
10353TIP3    H231017   7.034   2.712   5.230
10354TIP3   OH231018   2.538   0.335   2.054
10354TIP3    H131019   2.548   0.340   2.149
10354TIP3    H231020   2.547   0.425   2.024
10355TIP3   OH231021   7.314  -0.040   4.065
10355TIP3    H131022   7.255   0.035   4.071
10355TIP3    H231023   7.400  -0.004   4.086
10356TIP3   OH231024   1.143   0.725   2.361
10356TIP3    H131025   1.157   0.802   2.416
10356TIP3    H231026   1.083   0.670   2.411
10357TIP3   OH231027   7.554   1.902   5.189
10357TIP3    H131028   7.616   1.840   5.151
10357TIP3    H231029   7.602   1.942   5.262
10358TIP3   OH231030   2.427   2.318   3.631
10358TIP3    H131031   2.504   2.269   3.602
10358TIP3    H231032   2.419   2.297   3.724
10359TIP3   OH231033   6.614   4.281   6.087
10359TIP3    H131034   6.611   4.225   6.164
10359TIP3    H231035   6.690   4.336   6.100
10360TIP3   OH231036   7.447   7.336   0.608
10360TIP3    H131037   7.423   7.245   0.593
10360TIP3    H231038   7.387   7.366   0.676
10361TIP3   OH231039   6.295   5.681   0.164
10361TIP3    H131040   6.307   5.641   0.250
10361TIP3    H231041   6.257   5.767   0.183
10362TIP3   OH231042   0.542   7.599   2.293
10362TIP3    H131043   0.537   7.674   2.352
10362TIP3    H231044   0.625   7.557   2.314
10363TIP3   OH231045   2.132   4.604   1.100
10363TIP3    H131046   2.108   4.561   1.182
10363TIP3    H231047   2.227   4.595   1.094
10364TIP3   OH231048   5.491   1.126   1.374
10364TIP3    H131049   5.500   1.117   1.469
10364TIP3    H231050   5.397   1.133   1.359
10365TIP3   OH231051   3.317   6.697   5.472
10365TIP3    H131052   3.293   6.785   5.502
10365TIP3    H231053   3.410   6.704   5.449
10366TIP3   OH231054   2.500   7.447   4.266
10366TIP3    H131055   2.518   7.359   4.231
10366TIP3    H231056   2.584   7.492   4.262
10367TIP3   OH231057   3.264   4.442   5.545
10367TIP3    H131058   3.337   4.436   5.485
10367TIP3    H231059   3.303   4.470   5.628
10368TIP3   OH231060   3.351   3.400   3.928
10368TIP3    H131061   3.277   3.447   3.966
10368TIP3    H231062   3.407   3.470   3.893
10369TIP3   OH231063   3.580   2.863   4.302
10369TIP3    H131064   3.590   2.958   4.313
10369TIP3    H231065   3.521   2.837   4.373
10370TIP3   OH231066   3.238   7.161   2.440
10370TIP3    H131067   3.173   7.202   2.383
10370TIP3    H231068   3.318   7.210   2.425
10371TIP3   OH231069   2.965   1.972   0.960
10371TIP3    H131070   3.046   2.022   0.946
10371TIP3    H231071   2.994   1.881   0.965
10372TIP3   OH231072   7.383   7.595   6.677
10372TIP3    H131073   7.400   7.569   6.586
10372TIP3    H231074   7.462   7.568   6.724
10373TIP3   OH231075   1.192   2.009   5.155
10373TIP3    H131076   1.268   1.992   5.210
10373TIP3    H231077   1.188   1.934   5.095
10374TIP3   OH231078   2.714   0.893   2.178
10374TIP3    H131079   2.658   0.816   2.178
10374TIP3    H231080   2.797   0.863   2.213
10375TIP3   OH231081   5.175   2.210   6.154
10375TIP3    H131082   5.263   2.190   6.187
10375TIP3    H231083   5.145   2.127   6.116
10376TIP3   OH231084   5.443   3.135   5.506
10376TIP3    H131085   5.428   3.076   5.432
10376TIP3    H231086   5.398   3.093   5.579
10377TIP3   OH231087   4.673   2.559   5.509
10377TIP3    H131088   4.738   2.573   5.440
10377TIP3    H231089   4.725   2.547   5.589
10378TIP3   OH231090   0.945   1.944   4.452
10378TIP3    H131091   1.037   1.962   4.433
10378TIP3    H231092   0.946   1.894   4.533
10379TIP3   OH231093   6.142   1.861   1.332
10379TIP3    H131094   6.150   1.897   1.244
10379TIP3    H231095   6.153   1.767   1.321
10380TIP3   OH231096   0.401   1.730   4.850
10380TIP3    H131097   0.435   1.695   4.767
10380TIP3    H231098   0.359   1.655   4.892
10381TIP3   OH231099   2.142   1.622   4.412
10381TIP3    H131100   2.094   1.595   4.490
10381TIP3    H231101   2.128   1.550   4.350
10382TIP3   OH231102   0.407   5.667   5.169
10382TIP3    H131103   0.422   5.629   5.082
10382TIP3    H231104   0.489   5.712   5.190
10383TIP3   OH231105   8.315   7.544   2.817
10383TIP3    H131106   8.372   7.499   2.880
10383TIP3    H231107   8.248   7.479   2.795
10384TIP3   OH231108   7.551   0.649   0.780
10384TIP3    H131109   7.585   0.735   0.757
10384TIP3    H231110   7.626   0.590   0.770
10385TIP3   OH231111   8.298   6.525   0.283
10385TIP3    H131112   8.243   6.594   0.319
10385TIP3    H231113   8.297   6.541   0.188
10386TIP3   OH231114   6.351   3.823   6.588
10386TIP3    H131115   6.262   3.856   6.585
10386TIP3    H231116   6.401   3.891   6.632
10387TIP3   OH231117   3.862   7.385   0.824
10387TIP3    H131118   3.830   7.382   0.734
10387TIP3    H231119   3.932   7.451   0.823
10388TIP3   OH231120   4.356   4.874   6.319
10388TIP3    H131121   4.329   4.893   6.409
10388TIP3    H231122   4.415   4.799   6.327
10389TIP3   OH231123   0.850   0.857   3.211
10389TIP3    H131124   0.931   0.828   3.253
10389TIP3    H231125   0.785   0.855   3.281
10390TIP3   OH231126   4.302   2.088   0.324
10390TIP3    H131127   4.225   2.139   0.349
10390TIP3    H231128   4.366   2.104   0.394
10391TIP3   OH231129   3.892   1.519   4.294
10391TIP3    H131130   3.823   1.554   4.350
10391TIP3    H231131   3.942   1.596   4.267
10392TIP3   OH231132   1.673   7.019   2.949
10392TIP3    H131133   1.741   7.061   3.001
10392TIP3    H231134   1.715   6.941   2.913
10393TIP3   OH231135   2.883   6.469   6.457
10393TIP3    H131136   2.943   6.405   6.495
10393TIP3    H231137   2.937   6.523   6.400
10394TIP3   OH231138   7.733   2.177   2.887
10394TIP3    H131139   7.719   2.088   2.856
10394TIP3    H231140   7.656   2.225   2.857
10395TIP3   OH231141   7.564   6.485   2.977
10395TIP3    H131142   7.516   6.507   3.057
10395TIP3    H231143   7.611   6.565   2.954
10396TIP3   OH231144   6.097   7.196   5.527
10396TIP3    H131145   6.166   7.235   5.472
10396TIP3    H231146   6.017   7.209   5.476
10397TIP3   OH231147   2.829   4.919   6.607
10397TIP3    H131148   2.817   4.830   6.639
10397TIP3    H231149   2.823   4.911   6.511
10398TIP3   OH231150   3.438   4.101   1.761
10398TIP3    H131151   3.533   4.088   1.757
10398TIP3    H231152   3.405   4.028   1.814
10399TIP3   OH231153   0.020   4.159   5.735
10399TIP3    H131154   0.036   4.170   5.829
10399TIP3    H231155   0.103   4.128   5.700
10400TIP3   OH231156   6.032   6.991   0.955
10400TIP3    H131157   6.108   6.933   0.962
10400TIP3    H231158   5.988   6.983   1.040
10401TIP3   OH231159   3.349   2.315   1.059
10401TIP3    H131160   3.255   2.322   1.077
10401TIP3    H231161   3.360   2.357   0.974
10402TIP3   OH231162   6.833   1.576   0.549
10402TIP3    H131163   6.827   1.500   0.492
10402TIP3    H231164   6.759   1.631   0.524
10403TIP3   OH231165   6.856   6.651   3.791
10403TIP3    H131166   6.916   6.725   3.793
10403TIP3    H231167   6.773   6.687   3.759
10404TIP3   OH231168   4.524   3.140   5.148
10404TIP3    H131169   4.587   3.072   5.171
10404TIP3    H231170   4.459   3.095   5.094
10405TIP3   OH231171   5.502   5.931   1.386
10405TIP3    H131172   5.561   5.860   1.414
10405TIP3    H231173   5.433   5.932   1.452
10406TIP3   OH231174   8.082   7.188   0.253
10406TIP3    H131175   8.176   7.200   0.250
10406TIP3    H231176   8.046   7.265   0.209
10407TIP3   OH231177   5.611   7.140   6.099
10407TIP3    H131178   5.613   7.220   6.152
10407TIP3    H231179   5.522   7.135   6.065
10408TIP3   OH231180   7.210   2.500   5.499
10408TIP3    H131181   7.143   2.525   5.562
10408TIP3    H231182   7.282   2.562   5.515
10409TIP3   OH231183   7.920   1.731   4.277
10409TIP3    H131184   7.995   1.787   4.296
10409TIP3    H231185   7.940   1.692   4.192
10410TIP3   OH231186   7.534   7.738   1.534
10410TIP3    H131187   7.587   7.813   1.508
10410TIP3    H231188   7.582   7.699   1.607
10411TIP3   OH231189   2.521   3.989   4.363
10411TIP3    H131190   2.517   4.064   4.421
10411TIP3    H231191   2.615   3.974   4.350
10412TIP3   OH231192   7.563   0.659   4.435
10412TIP3    H131193   7.658   0.664   4.428
10412TIP3    H231194   7.531   0.677   4.346
10413TIP3   OH231195   4.090   0.243   3.143
10413TIP3    H131196   4.136   0.293   3.210
10413TIP3    H231197   3.997   0.259   3.160
10414TIP3   OH231198   2.630   3.308   4.244
10414TIP3    H131199   2.709   3.319   4.190
10414TIP3    H231200   2.617   3.392   4.286
10415TIP3   OH231201   0.596   2.699   2.709
10415TIP3    H131202   0.504   2.718   2.729
10415TIP3    H231203   0.593   2.622   2.653
10416TIP3   OH231204   5.734   5.285   4.284
10416TIP3    H131205   5.658   5.263   4.338
10416TIP3    H231206   5.800   5.313   4.346
10417TIP3   OH231207   1.647   7.218   1.068
10417TIP3    H131208   1.647   7.215   0.972
10417TIP3    H231209   1.595   7.141   1.094
10418TIP3   OH231210   2.388   5.194   4.926
10418TIP3    H131211   2.467   5.153   4.892
10418TIP3    H231212   2.332   5.121   4.952
10419TIP3   OH231213   2.733   4.501   0.309
10419TIP3    H131214   2.794   4.562   0.351
10419TIP3    H231215   2.648   4.543   0.317
10420TIP3   OH231216   0.304   3.436   6.375
10420TIP3    H131217   0.210   3.417   6.372
10420TIP3    H231218   0.330   3.440   6.283
10421TIP3   OH231219   4.911   4.055   2.362
10421TIP3    H131220   4.990   4.084   2.407
10421TIP3    H231221   4.920   3.960   2.355
10422TIP3   OH231222   6.187   6.672   4.647
10422TIP3    H131223   6.245   6.710   4.581
10422TIP3    H231224   6.230   6.591   4.673
10423TIP3   OH231225   6.964   5.055   0.948
10423TIP3    H131226   7.045   5.070   0.900
10423TIP3    H231227   6.949   5.137   0.996
10424TIP3   OH231228   5.086   5.753   4.460
10424TIP3    H131229   5.170   5.741   4.503
10424TIP3    H231230   5.087   5.692   4.387
10425TIP3   OH231231   1.090   4.327   2.356
10425TIP3    H131232   1.091   4.335   2.452
10425TIP3    H231233   1.012   4.275   2.337
10426TIP3   OH231234   2.234   0.014   1.659
10426TIP3    H131235   2.315   0.065   1.661
10426TIP3    H231236   2.206   0.011   1.750
10427TIP3   OH231237   2.110   5.728   1.477
10427TIP3    H131238   2.189   5.677   1.457
10427TIP3    H231239   2.039   5.680   1.434
10428TIP3   OH231240   5.027   2.786   6.331
10428TIP3    H131241   4.988   2.775   6.418
10428TIP3    H231242   5.003   2.875   6.305
10429TIP3   OH231243   2.358   5.003   3.747
10429TIP3    H131244   2.306   5.082   3.765
10429TIP3    H231245   2.336   4.979   3.657
10430TIP3   OH231246   0.296   0.481   2.957
10430TIP3    H131247   0.303   0.421   3.031
10430TIP3    H231248   0.271   0.425   2.883
10431TIP3   OH231249   0.442   2.081   0.207
10431TIP3    H131250   0.533   2.056   0.197
10431TIP3    H231251   0.436   2.116   0.296
10432TIP3   OH231252   3.368   4.363   1.798
10432TIP3    H131253   3.452   4.405   1.778
10432TIP3    H231254   3.383   4.270   1.784
10433TIP3   OH231255   5.439   0.352   4.814
10433TIP3    H131256   5.422   0.442   4.839
10433TIP3    H231257   5.401   0.300   4.884
10434TIP3   OH231258   0.554   3.440   5.109
10434TIP3    H131259   0.484   3.480   5.058
10434TIP3    H231260   0.523   3.446   5.200
10435TIP3   OH231261   6.543   3.278   3.630
10435TIP3    H131262   6.574   3.354   3.680
10435TIP3    H231263   6.469   3.245   3.681
10436TIP3   OH231264   6.052   5.820   0.049
10436TIP3    H131265   5.997   5.898   0.052
10436TIP3    H231266   6.081   5.814  -0.042
10437TIP3   OH231267   4.305   5.605   6.659
10437TIP3    H131268   4.218   5.637   6.683
10437TIP3    H231269   4.337   5.561   6.738
10438TIP3   OH231270   6.804   6.102   1.784
10438TIP3    H131271   6.773   6.183   1.743
10438TIP3    H231272   6.788   6.114   1.877
10439TIP3   OH231273   0.385   2.991   4.276
10439TIP3    H131274   0.380   2.900   4.306
10439TIP3    H231275   0.474   3.000   4.241
10440TIP3   OH231276   7.600   4.146   3.521
10440TIP3    H131277   7.689   4.177   3.504
10440TIP3    H231278   7.575   4.100   3.441
10441TIP3   OH231279   7.634   2.759   5.715
10441TIP3    H131280   7.648   2.799   5.801
10441TIP3    H231281   7.694   2.805   5.657
10442TIP3   OH231282   2.334   0.264   3.237
10442TIP3    H131283   2.318   0.316   3.158
10442TIP3    H231284   2.329   0.327   3.309
10443TIP3   OH231285   7.662   1.744   4.360
10443TIP3    H131286   7.611   1.738   4.279
10443TIP3    H231287   7.752   1.724   4.334
10444TIP3   OH231288   3.477   1.834   4.725
10444TIP3    H131289   3.409   1.893   4.756
10444TIP3    H231290   3.491   1.772   4.797
10445TIP3   OH231291   4.659   0.440   4.859
10445TIP3    H131292   4.652   0.459   4.953
10445TIP3    H231293   4.723   0.368   4.855
10446TIP3   OH231294   5.199   0.653   3.757
10446TIP3    H131295   5.268   0.715   3.733
10446TIP3    H231296   5.139   0.704   3.812
10447TIP3   OH231297   6.049   1.488   3.942
10447TIP3    H131298   6.004   1.492   3.858
10447TIP3    H231299   6.071   1.395   3.953
10448TIP3   OH231300   7.212   3.339   1.891
10448TIP3    H131301   7.242   3.430   1.884
10448TIP3    H231302   7.160   3.338   1.971
10449TIP3   OH231303   6.912   1.521   2.701
10449TIP3    H131304   6.956   1.540   2.783
10449TIP3    H231305   6.840   1.463   2.725
10450TIP3   OH231306   3.554   3.131   4.396
10450TIP3    H131307   3.534   3.164   4.484
10450TIP3    H231308   3.506   3.189   4.337
10451TIP3   OH231309   4.336   7.410   2.521
10451TIP3    H131310   4.399   7.392   2.452
10451TIP3    H231311   4.289   7.488   2.491
10452TIP3   OH231312   3.953   4.904   1.594
10452TIP3    H131313   3.945   4.959   1.672
10452TIP3    H231314   3.938   4.964   1.520
10453TIP3   OH231315   1.130   0.108   3.384
10453TIP3    H131316   1.180   0.146   3.455
10453TIP3    H231317   1.042   0.096   3.419
10454TIP3   OH231318   0.227   0.017   0.553
10454TIP3    H131319   0.173  -0.061   0.566
10454TIP3    H231320   0.175   0.089   0.589
10455TIP3   OH231321   1.253   3.858   6.142
10455TIP3    H131322   1.317   3.923   6.112
10455TIP3    H231323   1.289   3.825   6.225
10456TIP3   OH231324   0.650   5.371   6.387
10456TIP3    H131325   0.622   5.281   6.375
10456TIP3    H231326   0.571   5.423   6.377
10457TIP3   OH231327   3.400   3.513   6.489
10457TIP3    H131328   3.377   3.584   6.549
10457TIP3    H231329   3.487   3.484   6.518
10458TIP3   OH231330   3.731   2.455   3.515
10458TIP3    H131331   3.821   2.425   3.527
10458TIP3    H231332   3.737   2.551   3.517
10459TIP3   OH231333   2.012   3.200   6.623
10459TIP3    H131334   2.007   3.105   6.633
10459TIP3    H231335   1.931   3.233   6.664
10460TIP3   OH231336   0.199   1.776   4.019
10460TIP3    H131337   0.284   1.779   4.064
10460TIP3    H231338   0.213   1.719   3.944
10461TIP3   OH231339   1.245   4.256   5.269
10461TIP3    H131340   1.256   4.279   5.362
10461TIP3    H231341   1.315   4.304   5.224
10462TIP3   OH231342   1.888   5.605   2.271
10462TIP3    H131343   1.936   5.587   2.352
10462TIP3    H231344   1.883   5.700   2.266
10463TIP3   OH231345   7.868   0.241   6.581
10463TIP3    H131346   7.832   0.273   6.664
10463TIP3    H231347   7.874   0.319   6.527
10464TIP3   OH231348   3.405   0.109   5.345
10464TIP3    H131349   3.371   0.029   5.386
10464TIP3    H231350   3.402   0.091   5.251
10465TIP3   OH231351   3.969   1.452   5.270
10465TIP3    H131352   3.931   1.376   5.226
10465TIP3    H231353   3.893   1.506   5.292
10466TIP3   OH231354   4.963   1.083   5.756
10466TIP3    H131355   4.988   1.005   5.708
10466TIP3    H231356   4.995   1.156   5.703
10467TIP3   OH231357   3.779   3.412   2.303
10467TIP3    H131358   3.688   3.404   2.332
10467TIP3    H231359   3.783   3.362   2.221
10468TIP3   OH231360   4.748   1.385   5.374
10468TIP3    H131361   4.778   1.300   5.406
10468TIP3    H231362   4.725   1.370   5.283
10469TIP3   OH231363   1.736   1.424   4.077
10469TIP3    H131364   1.665   1.478   4.111
10469TIP3    H231365   1.792   1.484   4.029
10470TIP3   OH231366   7.489   2.548   1.740
10470TIP3    H131367   7.449   2.586   1.662
10470TIP3    H231368   7.449   2.595   1.813
10471TIP3   OH231369   0.378   4.825   4.780
10471TIP3    H131370   0.324   4.752   4.811
10471TIP3    H231371   0.430   4.787   4.709
10472TIP3   OH231372   4.083   1.612   2.148
10472TIP3    H131373   4.015   1.549   2.170
10472TIP3    H231374   4.138   1.618   2.226
10473TIP3   OH231375   0.874   0.145   6.755
10473TIP3    H131376   0.840   0.180   6.673
10473TIP3    H231377   0.969   0.154   6.747
10474TIP3   OH231378   4.320   2.507   5.174
10474TIP3    H131379   4.303   2.413   5.171
10474TIP3    H231380   4.348   2.524   5.264
10475TIP3   OH231381   2.502   6.040   6.445
10475TIP3    H131382   2.568   5.986   6.489
10475TIP3    H231383   2.450   5.977   6.394
10476TIP3   OH231384   3.654   6.243   3.830
10476TIP3    H131385   3.601   6.323   3.836
10476TIP3    H231386   3.589   6.172   3.827
10477TIP3   OH231387   1.318   6.554   3.947
10477TIP3    H131388   1.229   6.538   3.915
10477TIP3    H231389   1.366   6.584   3.870
10478TIP3   OH231390   8.021   0.703   4.830
10478TIP3    H131391   8.029   0.610   4.808
10478TIP3    H231392   7.929   0.714   4.856
10479TIP3   OH231393   6.829   0.672   3.107
10479TIP3    H131394   6.889   0.688   3.179
10479TIP3    H231395   6.874   0.606   3.054
10480TIP3   OH231396   4.034   2.238  -0.005
10480TIP3    H131397   4.120   2.211   0.025
10480TIP3    H231398   3.984   2.157  -0.011
10481TIP3   OH231399   7.764   4.891   5.556
10481TIP3    H131400   7.805   4.925   5.636
10481TIP3    H231401   7.756   4.797   5.571
10482TIP3   OH231402   0.775   2.631   0.020
10482TIP3    H131403   0.800   2.574   0.093
10482TIP3    H231404   0.845   2.619  -0.045
10483TIP3   OH231405   4.378   1.398   2.043
10483TIP3    H131406   4.315   1.435   1.981
10483TIP3    H231407   4.405   1.472   2.097
10484TIP3   OH231408   5.550   6.554   1.324
10484TIP3    H131409   5.484   6.530   1.388
10484TIP3    H231410   5.503   6.610   1.262
10485TIP3   OH231411   5.914   1.927   3.105
10485TIP3    H131412   5.855   1.996   3.073
10485TIP3    H231413   5.895   1.851   3.050
10486TIP3   OH231414   8.073   4.543   6.339
10486TIP3    H131415   8.013   4.527   6.267
10486TIP3    H231416   8.062   4.636   6.358
10487TIP3   OH231417   7.178   7.189   2.371
10487TIP3    H131418   7.178   7.098   2.341
10487TIP3    H231419   7.142   7.185   2.459
10488TIP3   OH231420   7.916   6.949   4.843
10488TIP3    H131421   7.978   7.006   4.798
10488TIP3    H231422   7.910   6.985   4.932
10489TIP3   OH231423   7.657   2.046   6.254
10489TIP3    H131424   7.707   2.128   6.257
10489TIP3    H231425   7.702   1.992   6.189
10490TIP3   OH231426   1.616   7.483   2.938
10490TIP3    H131427   1.521   7.476   2.942
10490TIP3    H231428   1.644   7.486   3.030
10491TIP3   OH231429   3.124   1.345   1.399
10491TIP3    H131430   3.184   1.420   1.400
10491TIP3    H231431   3.054   1.369   1.459
10492TIP3   OH231432   1.745   1.411   2.211
10492TIP3    H131433   1.761   1.316   2.204
10492TIP3    H231434   1.759   1.431   2.303
10493TIP3   OH231435   2.066   7.298   4.833
10493TIP3    H131436   2.005   7.355   4.786
10493TIP3    H231437   2.065   7.331   4.922
10494TIP3   OH231438   1.953   0.487   6.055
10494TIP3    H131439   1.923   0.432   5.983
10494TIP3    H231440   2.043   0.510   6.033
10495TIP3   OH231441   3.151   1.993   6.248
10495TIP3    H131442   3.068   1.950   6.228
10495TIP3    H231443   3.145   2.078   6.204
10496TIP3   OH231444   7.725   6.513   1.494
10496TIP3    H131445   7.791   6.445   1.508
10496TIP3    H231446   7.775   6.593   1.480
10497TIP3   OH231447   1.405   4.649   3.072
10497TIP3    H131448   1.347   4.693   3.009
10497TIP3    H231449   1.369   4.561   3.080
10498TIP3   OH231450   7.978   6.309   1.239
10498TIP3    H131451   7.997   6.359   1.160
10498TIP3    H231452   7.885   6.288   1.233
10499TIP3   OH231453   5.191   4.788   1.335
10499TIP3    H131454   5.128   4.836   1.389
10499TIP3    H231455   5.276   4.819   1.364
10500TIP3   OH231456   5.631   0.609   4.558
10500TIP3    H131457   5.665   0.524   4.587
10500TIP3    H231458   5.703   0.647   4.507
10501TIP3   OH231459   6.949   4.332   5.727
10501TIP3    H131460   7.010   4.392   5.685
10501TIP3    H231461   6.970   4.246   5.692
10502TIP3   OH231462   3.209   7.516   4.817
10502TIP3    H131463   3.152   7.578   4.863
10502TIP3    H231464   3.278   7.570   4.778
10503TIP3   OH231465   6.422   6.348   4.200
10503TIP3    H131466   6.365   6.415   4.162
10503TIP3    H231467   6.366   6.271   4.209
10504TIP3   OH231468   1.906   2.358   5.986
10504TIP3    H131469   1.970   2.345   6.056
10504TIP3    H231470   1.903   2.452   5.973
10505TIP3   OH231471   2.676   4.466   4.367
10505TIP3    H131472   2.762   4.424   4.376
10505TIP3    H231473   2.695   4.558   4.349
10506TIP3   OH231474   5.075   0.579   2.422
10506TIP3    H131475   5.087   0.608   2.332
10506TIP3    H231476   5.000   0.519   2.419
10507TIP3   OH231477   0.671   2.932   3.380
10507TIP3    H131478   0.715   2.926   3.295
10507TIP3    H231479   0.719   2.872   3.436
10508TIP3   OH231480   6.031   0.994   0.315
10508TIP3    H131481   6.116   0.997   0.272
10508TIP3    H231482   6.027   1.075   0.365
10509TIP3   OH231483   1.564   3.780   4.660
10509TIP3    H131484   1.584   3.787   4.754
10509TIP3    H231485   1.472   3.807   4.653
10510TIP3   OH231486   5.306   3.969   3.817
10510TIP3    H131487   5.379   4.023   3.787
10510TIP3    H231488   5.260   4.023   3.881
10511TIP3   OH231489   6.016   4.018   2.655
10511TIP3    H131490   6.067   3.951   2.609
10511TIP3    H231491   6.069   4.097   2.649
10512TIP3   OH231492   6.651   2.993   1.410
10512TIP3    H131493   6.702   2.973   1.331
10512TIP3    H231494   6.593   2.917   1.420
10513TIP3   OH231495   3.973   2.103   3.598
10513TIP3    H131496   4.064   2.109   3.570
10513TIP3    H231497   3.922   2.117   3.518
10514TIP3   OH231498   1.963   4.692   4.815
10514TIP3    H131499   1.939   4.706   4.723
10514TIP3    H231500   1.927   4.768   4.860
10515TIP3   OH231501   5.662   4.164   0.328
10515TIP3    H131502   5.708   4.247   0.317
10515TIP3    H231503   5.716   4.099   0.284
10516TIP3   OH231504   3.495   1.795   5.902
10516TIP3    H131505   3.502   1.856   5.829
10516TIP3    H231506   3.430   1.834   5.960
10517TIP3   OH231507   7.384   0.583   6.519
10517TIP3    H131508   7.330   0.505   6.504
10517TIP3    H231509   7.404   0.581   6.612
10518TIP3   OH231510   4.967   3.116   0.041
10518TIP3    H131511   4.975   3.022   0.057
10518TIP3    H231512   4.874   3.129   0.019
10519TIP3   OH231513   5.351   6.115   3.311
10519TIP3    H131514   5.363   6.047   3.378
10519TIP3    H231515   5.279   6.168   3.344
10520TIP3   OH231516   7.485   7.348   1.038
10520TIP3    H131517   7.556   7.284   1.031
10520TIP3    H231518   7.518   7.426   0.992
10521TIP3   OH231519   3.916   5.965   2.763
10521TIP3    H131520   3.968   6.002   2.835
10521TIP3    H231521   3.885   6.041   2.715
10522TIP3   OH231522   2.605   6.583   5.266
10522TIP3    H131523   2.535   6.528   5.303
10522TIP3    H231524   2.679   6.524   5.255
10523TIP3   OH231525   7.712   1.521   6.316
10523TIP3    H131526   7.657   1.594   6.343
10523TIP3    H231527   7.794   1.562   6.288
10524TIP3   OH231528   5.933   2.429   3.952
10524TIP3    H131529   6.011   2.393   3.911
10524TIP3    H231530   5.860   2.385   3.909
10525TIP3   OH231531   6.371   1.074   5.924
10525TIP3    H131532   6.433   1.085   5.996
10525TIP3    H231533   6.293   1.037   5.964
10526TIP3   OH231534   3.818   3.769   3.134
10526TIP3    H131535   3.728   3.738   3.127
10526TIP3    H231536   3.839   3.760   3.227
10527TIP3   OH231537   6.867   7.197   3.711
10527TIP3    H131538   6.796   7.220   3.771
10527TIP3    H231539   6.823   7.165   3.632
10528TIP3   OH231540   8.234  -0.023   3.314
10528TIP3    H131541   8.215   0.048   3.376
10528TIP3    H231542   8.149  -0.042   3.274
10529TIP3   OH231543   6.182   3.884   4.610
10529TIP3    H131544   6.190   3.880   4.515
10529TIP3    H231545   6.132   3.806   4.634
10530TIP3   OH231546   3.333   7.082   1.101
10530TIP3    H131547   3.387   7.071   1.180
10530TIP3    H231548   3.335   6.996   1.059
10531TIP3   OH231549   6.329   5.102   6.372
10531TIP3    H131550   6.384   5.099   6.450
10531TIP3    H231551   6.265   5.171   6.389
10532TIP3   OH231552   1.587   2.285   3.530
10532TIP3    H131553   1.514   2.228   3.553
10532TIP3    H231554   1.643   2.284   3.608
10533TIP3   OH231555   8.187   7.278   3.070
10533TIP3    H131556   8.113   7.256   3.014
10533TIP3    H231557   8.159   7.357   3.117
10534TIP3   OH231558   2.610   1.779   5.267
10534TIP3    H131559   2.599   1.870   5.294
10534TIP3    H231560   2.659   1.738   5.338
10535TIP3   OH231561   1.493   2.086   5.004
10535TIP3    H131562   1.536   2.012   4.961
10535TIP3    H231563   1.493   2.064   5.097
10536TIP3   OH231564   5.446   5.482   1.363
10536TIP3    H131565   5.534   5.453   1.383
10536TIP3    H231566   5.423   5.541   1.435
10537TIP3   OH231567   1.260   1.771   4.998
10537TIP3    H131568   1.243   1.737   5.086
10537TIP3    H231569   1.306   1.700   4.954
10538TIP3   OH231570   3.875   6.499   1.048
10538TIP3    H131571   3.858   6.499   0.954
10538TIP3    H231572   3.789   6.483   1.088
10539TIP3   OH231573   2.026   3.705   5.873
10539TIP3    H131574   2.115   3.737   5.857
10539TIP3    H231575   1.975   3.734   5.797
10540TIP3   OH231576   3.074   3.874   0.327
10540TIP3    H131577   3.027   3.815   0.268
10540TIP3    H231578   3.162   3.837   0.334
10541TIP3   OH231579   1.829   4.461   1.818
10541TIP3    H131580   1.900   4.396   1.817
10541TIP3    H231581   1.853   4.521   1.889
10542TIP3   OH231582   2.243   0.093   5.740
10542TIP3    H131583   2.210   0.172   5.784
10542TIP3    H231584   2.278   0.124   5.657
10543TIP3   OH231585   6.323   5.319   6.146
10543TIP3    H131586   6.307   5.373   6.224
10543TIP3    H231587   6.283   5.368   6.074
10544TIP3   OH231588   6.625   7.503   0.751
10544TIP3    H131589   6.646   7.454   0.672
10544TIP3    H231590   6.593   7.437   0.812
10545TIP3   OH231591   0.371   3.903   5.431
10545TIP3    H131592   0.309   3.963   5.390
10545TIP3    H231593   0.443   3.897   5.368
10546TIP3   OH231594   7.185   6.239   6.644
10546TIP3    H131595   7.275   6.219   6.618
10546TIP3    H231596   7.193   6.315   6.701
10547TIP3   OH231597   5.017   6.877   4.407
10547TIP3    H131598   5.048   6.938   4.341
10547TIP3    H231599   5.024   6.791   4.366
10548TIP3   OH231600   1.828   6.643   3.334
10548TIP3    H131601   1.781   6.719   3.300
10548TIP3    H231602   1.786   6.624   3.418
10549TIP3   OH231603   5.745   0.108   2.689
10549TIP3    H131604   5.816   0.112   2.626
10549TIP3    H231605   5.677   0.165   2.654
10550TIP3   OH231606   0.928   0.551   5.631
10550TIP3    H131607   0.836   0.569   5.652
10550TIP3    H231608   0.962   0.508   5.709
10551TIP3   OH231609   1.044   3.012   0.985
10551TIP3    H131610   1.123   3.057   1.013
10551TIP3    H231611   1.005   3.070   0.920
10552TIP3   OH231612   5.054   5.444   3.235
10552TIP3    H131613   5.056   5.524   3.182
10552TIP3    H231614   4.963   5.437   3.264
10553TIP3   OH231615   7.053   4.931   4.477
10553TIP3    H131616   7.050   4.839   4.503
10553TIP3    H231617   7.145   4.947   4.455
10554TIP3   OH231618   0.043   7.157   0.311
10554TIP3    H131619   0.089   7.135   0.391
10554TIP3    H231620   0.003   7.075   0.283
10555TIP3   OH231621   0.623   2.275   3.691
10555TIP3    H131622   0.719   2.277   3.698
10555TIP3    H231623   0.601   2.182   3.700
10556TIP3   OH231624   6.164   4.733   0.188
10556TIP3    H131625   6.251   4.695   0.199
10556TIP3    H231626   6.119   4.672   0.128
10557TIP3   OH231627   0.607   1.495   1.339
10557TIP3    H131628   0.616   1.529   1.428
10557TIP3    H231629   0.689   1.521   1.296
10558TIP3   OH231630   5.501   3.371   0.890
10558TIP3    H131631   5.478   3.281   0.868
10558TIP3    H231632   5.521   3.413   0.807
10559TIP3   OH231633   4.541   6.524   1.573
10559TIP3    H131634   4.556   6.503   1.481
10559TIP3    H231635   4.540   6.439   1.617
10560TIP3   OH231636   2.615   2.199   4.734
10560TIP3    H131637   2.684   2.263   4.718
10560TIP3    H231638   2.539   2.233   4.688
10561TIP3   OH231639   4.738   6.330   5.623
10561TIP3    H131640   4.684   6.314   5.700
10561TIP3    H231641   4.771   6.418   5.635
10562TIP3   OH231642   2.616   2.323   5.248
10562TIP3    H131643   2.602   2.305   5.155
10562TIP3    H231644   2.588   2.242   5.292
10563TIP3   OH231645   6.018   2.101   5.516
10563TIP3    H131646   6.019   2.079   5.423
10563TIP3    H231647   6.073   2.034   5.557
10564TIP3   OH231648   5.121   1.247   1.518
10564TIP3    H131649   5.083   1.159   1.525
10564TIP3    H231650   5.070   1.299   1.580
10565TIP3   OH231651   2.126   5.734   4.737
10565TIP3    H131652   2.044   5.752   4.783
10565TIP3    H231653   2.178   5.814   4.749
10566TIP3   OH231654   4.381   5.208   0.961
10566TIP3    H131655   4.402   5.205   0.867
10566TIP3    H231656   4.324   5.285   0.969
10567TIP3   OH231657   1.106   3.399   3.746
10567TIP3    H131658   1.183   3.456   3.754
10567TIP3    H231659   1.032   3.458   3.750
10568TIP3   OH231660   4.468   0.382   3.186
10568TIP3    H131661   4.447   0.416   3.099
10568TIP3    H231662   4.419   0.439   3.246
10569TIP3   OH231663   1.589   2.091   2.050
10569TIP3    H131664   1.563   2.171   2.004
10569TIP3    H231665   1.581   2.023   1.983
10570TIP3   OH231666   2.560   4.040   1.264
10570TIP3    H131667   2.551   4.118   1.209
10570TIP3    H231668   2.598   3.974   1.206
10571TIP3   OH231669   1.994   5.634   1.870
10571TIP3    H131670   2.065   5.587   1.827
10571TIP3    H231671   2.000   5.723   1.835
10572TIP3   OH231672   2.077   0.213   3.775
10572TIP3    H131673   2.016   0.269   3.823
10572TIP3    H231674   2.161   0.258   3.780
10573TIP3   OH231675   6.966   3.560   5.758
10573TIP3    H131676   7.006   3.488   5.709
10573TIP3    H231677   6.975   3.535   5.850
10574TIP3   OH231678   4.656   0.996   0.847
10574TIP3    H131679   4.678   0.997   0.754
10574TIP3    H231680   4.567   0.961   0.850
10575TIP3   OH231681   3.391   7.675   4.692
10575TIP3    H131682   3.456   7.709   4.753
10575TIP3    H231683   3.358   7.752   4.647
10576TIP3   OH231684   3.401   5.619   5.347
10576TIP3    H131685   3.425   5.624   5.254
10576TIP3    H231686   3.340   5.692   5.360
10577TIP3   OH231687   1.289   7.653   0.817
10577TIP3    H131688   1.288   7.616   0.905
10577TIP3    H231689   1.256   7.742   0.828
10578TIP3   OH231690   0.222   5.268   4.912
10578TIP3    H131691   0.302   5.305   4.949
10578TIP3    H231692   0.189   5.336   4.853
10579TIP3   OH231693   6.877   6.055   3.196
10579TIP3    H131694   6.881   6.136   3.248
10579TIP3    H231695   6.807   6.004   3.237
10580TIP3   OH231696   5.280   5.311   5.323
10580TIP3    H131697   5.367   5.350   5.314
10580TIP3    H231698   5.256   5.325   5.414
10581TIP3   OH231699   0.712   6.892   0.076
10581TIP3    H131700   0.765   6.813   0.068
10581TIP3    H231701   0.631   6.873   0.029
10582TIP3   OH231702   0.045   4.028   6.751
10582TIP3    H131703   0.073   4.021   6.842
10582TIP3    H231704   0.108   4.089   6.712
10583TIP3   OH231705   3.842   7.638   1.864
10583TIP3    H131706   3.759   7.592   1.863
10583TIP3    H231707   3.828   7.715   1.809
10584TIP3   OH231708   1.048   3.933   4.319
10584TIP3    H131709   1.028   4.023   4.291
10584TIP3    H231710   0.962   3.895   4.338
10585TIP3   OH231711   6.032   3.479   5.148
10585TIP3    H131712   5.959   3.505   5.091
10585TIP3    H231713   6.038   3.384   5.137
10586TIP3   OH231714   1.700   1.955   3.516
10586TIP3    H131715   1.614   1.922   3.539
10586TIP3    H231716   1.754   1.939   3.593
10587TIP3   OH231717   5.475   3.355   1.600
10587TIP3    H131718   5.556   3.324   1.560
10587TIP3    H231719   5.474   3.313   1.686
10588TIP3   OH231720   0.560   2.301   5.321
10588TIP3    H131721   0.565   2.350   5.403
10588TIP3    H231722   0.561   2.368   5.253
10589TIP3   OH231723   4.293   3.185   3.824
10589TIP3    H131724   4.220   3.191   3.762
10589TIP3    H231725   4.263   3.122   3.890
10590TIP3   OH231726   3.886   0.609   6.563
10590TIP3    H131727   3.800   0.643   6.585
10590TIP3    H231728   3.898   0.534   6.620
10591TIP3   OH231729   0.782   2.418   3.067
10591TIP3    H131730   0.827   2.344   3.106
10591TIP3    H231731   0.757   2.388   2.979
10592TIP3   OH231732   2.239   7.677   4.227
10592TIP3    H131733   2.261   7.707   4.139
10592TIP3    H231734   2.297   7.726   4.285
10593TIP3   OH231735   0.916   5.504   5.111
10593TIP3    H131736   0.989   5.556   5.077
10593TIP3    H231737   0.863   5.483   5.034
10594TIP3   OH231738   6.972   0.850   2.941
10594TIP3    H131739   6.954   0.936   2.904
10594TIP3    H231740   6.886   0.816   2.966
10595TIP3   OH231741   3.305   6.217   1.866
10595TIP3    H131742   3.330   6.298   1.911
10595TIP3    H231743   3.249   6.246   1.794
10596TIP3   OH231744   1.019   1.603   3.280
10596TIP3    H131745   0.939   1.581   3.231
10596TIP3    H231746   1.091   1.574   3.223
10597TIP3   OH231747   7.857   7.643   3.401
10597TIP3    H131748   7.901   7.723   3.371
10597TIP3    H231749   7.802   7.673   3.473
10598TIP3   OH231750   0.606   0.055   0.755
10598TIP3    H131751   0.600   0.041   0.661
10598TIP3    H231752   0.668   0.127   0.766
10599TIP3   OH231753   0.240   1.634   1.669
10599TIP3    H131754   0.153   1.652   1.705
10599TIP3    H231755   0.263   1.713   1.620
10600TIP3   OH231756   1.751   5.080   4.684
10600TIP3    H131757   1.704   4.998   4.669
10600TIP3    H231758   1.722   5.108   4.771
10601TIP3   OH231759   2.667   2.416   3.242
10601TIP3    H131760   2.696   2.423   3.333
10601TIP3    H231761   2.634   2.326   3.234
10602TIP3   OH231762   8.192   4.239   0.223
10602TIP3    H131763   8.201   4.237   0.128
10602TIP3    H231764   8.213   4.330   0.247
10603TIP3   OH231765   1.952   5.037   1.543
10603TIP3    H131766   1.862   5.025   1.513
10603TIP3    H231767   2.004   5.043   1.463
10604TIP3   OH231768   6.836   6.362   0.648
10604TIP3    H131769   6.806   6.272   0.635
10604TIP3    H231770   6.788   6.413   0.582
10605TIP3   OH231771   0.920   4.866   3.930
10605TIP3    H131772   0.869   4.942   3.959
10605TIP3    H231773   0.986   4.853   3.997
10606TIP3   OH231774   1.191   4.844   3.603
10606TIP3    H131775   1.179   4.897   3.681
10606TIP3    H231776   1.201   4.908   3.532
10607TIP3   OH231777   4.036   2.921   5.872
10607TIP3    H131778   3.959   2.954   5.827
10607TIP3    H231779   4.101   2.907   5.803
10608TIP3   OH231780   2.170   6.224   2.719
10608TIP3    H131781   2.160   6.136   2.682
10608TIP3    H231782   2.218   6.273   2.652
10609TIP3   OH231783   6.469   4.288   2.327
10609TIP3    H131784   6.386   4.319   2.291
10609TIP3    H231785   6.534   4.352   2.298
10610TIP3   OH231786   4.656   4.229   4.059
10610TIP3    H131787   4.657   4.179   4.140
10610TIP3    H231788   4.572   4.275   4.060
10611TIP3   OH231789   4.730   3.203   0.721
10611TIP3    H131790   4.792   3.251   0.667
10611TIP3    H231791   4.745   3.235   0.810
10612TIP3   OH231792   5.025   1.318   3.669
10612TIP3    H131793   4.990   1.254   3.733
10612TIP3    H231794   4.956   1.384   3.662
10613TIP3   OH231795   4.783   5.474   0.886
10613TIP3    H131796   4.802   5.392   0.932
10613TIP3    H231797   4.858   5.531   0.905
10614TIP3   OH231798   5.211   6.013   0.766
10614TIP3    H131799   5.217   6.070   0.689
10614TIP3    H231800   5.203   6.073   0.840
10615TIP3   OH231801   4.552   1.183   2.179
10615TIP3    H131802   4.585   1.190   2.268
10615TIP3    H231803   4.494   1.258   2.168
10616TIP3   OH231804   7.530   3.838   2.789
10616TIP3    H131805   7.612   3.789   2.783
10616TIP3    H231806   7.474   3.801   2.721
10617TIP3   OH231807   4.347   4.589   4.359
10617TIP3    H131808   4.271   4.641   4.387
10617TIP3    H231809   4.314   4.500   4.350
10618TIP3   OH231810   4.128   2.815   2.745
10618TIP3    H131811   4.131   2.796   2.839
10618TIP3    H231812   4.211   2.783   2.711
10619TIP3   OH231813   6.072   7.724   6.473
10619TIP3    H131814   6.144   7.675   6.431
10619TIP3    H231815   5.999   7.716   6.412
10620TIP3   OH231816   6.158   5.883   0.524
10620TIP3    H131817   6.244   5.910   0.554
10620TIP3    H231818   6.166   5.875   0.429
10621TIP3   OH231819   6.472   5.724   5.001
10621TIP3    H131820   6.442   5.814   5.013
10621TIP3    H231821   6.400   5.670   5.032
10622TIP3   OH231822   0.641   6.280   2.540
10622TIP3    H131823   0.557   6.258   2.581
10622TIP3    H231824   0.665   6.201   2.491
10623TIP3   OH231825   2.686   2.311   1.832
10623TIP3    H131826   2.764   2.324   1.885
10623TIP3    H231827   2.683   2.387   1.774
10624TIP3   OH231828   2.987   2.370   5.353
10624TIP3    H131829   2.938   2.437   5.400
10624TIP3    H231830   3.079   2.396   5.365
10625TIP3   OH231831   1.578   3.746   4.926
10625TIP3    H131832   1.580   3.667   4.980
10625TIP3    H231833   1.518   3.805   4.972
10626TIP3   OH231834   6.993   2.021   1.843
10626TIP3    H131835   6.966   2.084   1.776
10626TIP3    H231836   6.928   1.951   1.838
10627TIP3   OH231837   2.408   6.414   5.404
10627TIP3    H131838   2.410   6.319   5.390
10627TIP3    H231839   2.394   6.424   5.498
10628TIP3   OH231840   2.545   4.835   0.626
10628TIP3    H131841   2.578   4.914   0.582
10628TIP3    H231842   2.598   4.828   0.706
10629TIP3   OH231843   2.228   3.873   5.779
10629TIP3    H131844   2.272   3.916   5.852
10629TIP3    H231845   2.208   3.943   5.718
10630TIP3   OH231846   7.853   6.841   5.441
10630TIP3    H131847   7.886   6.752   5.428
10630TIP3    H231848   7.773   6.828   5.493
10631TIP3   OH231849   6.410   3.447   3.949
10631TIP3    H131850   6.373   3.489   3.872
10631TIP3    H231851   6.352   3.372   3.965
10632TIP3   OH231852   3.527   5.065   2.668
10632TIP3    H131853   3.529   4.969   2.662
10632TIP3    H231854   3.484   5.093   2.587
10633TIP3   OH231855   0.300   6.443   4.331
10633TIP3    H131856   0.296   6.351   4.355
10633TIP3    H231857   0.280   6.445   4.237
10634TIP3   OH231858   2.191   3.245   3.833
10634TIP3    H131859   2.255   3.239   3.904
10634TIP3    H231860   2.163   3.155   3.817
10635TIP3   OH231861   1.199   5.836   4.276
10635TIP3    H131862   1.239   5.873   4.197
10635TIP3    H231863   1.151   5.910   4.315
10636TIP3   OH231864   0.263   7.554   4.095
10636TIP3    H131865   0.193   7.519   4.040
10636TIP3    H231866   0.237   7.533   4.184
10637TIP3   OH231867   7.968   1.348   4.022
10637TIP3    H131868   8.040   1.401   4.057
10637TIP3    H231869   7.997   1.258   4.034
10638TIP3   OH231870   7.062   2.479   6.014
10638TIP3    H131871   7.011   2.521   5.945
10638TIP3    H231872   7.014   2.398   6.032
10639TIP3   OH231873   6.101   7.008   2.113
10639TIP3    H131874   6.164   6.938   2.098
10639TIP3    H231875   6.126   7.045   2.198
10640TIP3   OH231876   6.995   2.599   0.854
10640TIP3    H131877   7.083   2.636   0.863
10640TIP3    H231878   7.001   2.541   0.778
10641TIP3   OH231879   2.403   7.316   5.025
10641TIP3    H131880   2.446   7.398   5.049
10641TIP3    H231881   2.414   7.311   4.930
10642TIP3   OH231882   8.192   1.411   0.120
10642TIP3    H131883   8.124   1.344   0.122
10642TIP3    H231884   8.143   1.494   0.114
10643TIP3   OH231885   0.336   3.405   0.218
10643TIP3    H131886   0.259   3.461   0.228
10643TIP3    H231887   0.409   3.458   0.249
10644TIP3   OH231888   2.947   0.529   4.843
10644TIP3    H131889   2.973   0.583   4.768
10644TIP3    H231890   2.882   0.468   4.808
10645TIP3   OH231891   5.736   2.587   6.176
10645TIP3    H131892   5.696   2.535   6.245
10645TIP3    H231893   5.778   2.523   6.119
10646TIP3   OH231894   0.306   2.655   3.595
10646TIP3    H131895   0.275   2.662   3.505
10646TIP3    H231896   0.276   2.735   3.638
10647TIP3   OH231897   5.300   7.705   3.748
10647TIP3    H131898   5.327   7.790   3.784
10647TIP3    H231899   5.382   7.664   3.720
10648TIP3   OH231900   7.642   3.668   2.252
10648TIP3    H131901   7.710   3.634   2.311
10648TIP3    H231902   7.690   3.726   2.192
10649TIP3   OH231903   5.121   6.167   6.765
10649TIP3    H131904   5.150   6.155   6.674
10649TIP3    H231905   5.034   6.204   6.757
10650TIP3   OH231906   1.819   4.799   0.702
10650TIP3    H131907   1.858   4.841   0.625
10650TIP3    H231908   1.857   4.712   0.703
10651TIP3   OH231909   5.908   4.457   5.448
10651TIP3    H131910   5.835   4.507   5.484
10651TIP3    H231911   5.868   4.378   5.412
10652TIP3   OH231912   0.045   5.348   3.921
10652TIP3    H131913   0.073   5.347   3.830
10652TIP3    H231914   0.013   5.437   3.935
10653TIP3   OH231915   7.303   4.081   0.827
10653TIP3    H131916   7.215   4.116   0.813
10653TIP3    H231917   7.298   4.037   0.912
10654TIP3   OH231918   5.252   3.335   5.972
10654TIP3    H131919   5.317   3.270   5.999
10654TIP3    H231920   5.217   3.301   5.889
10655TIP3   OH231921   2.284   6.790   5.405
10655TIP3    H131922   2.220   6.737   5.358
10655TIP3    H231923   2.296   6.745   5.489
10656TIP3   OH231924   5.165   3.997   4.677
10656TIP3    H131925   5.210   4.069   4.633
10656TIP3    H231926   5.119   3.951   4.606
10657TIP3   OH231927   7.089   3.837   1.428
10657TIP3    H131928   6.999   3.823   1.397
10657TIP3    H231929   7.105   3.764   1.488
10658TIP3   OH231930   2.155   6.609   5.578
10658TIP3    H131931   2.234   6.561   5.603
10658TIP3    H231932   2.133   6.574   5.491
10659TIP3   OH231933   6.470   0.617   3.385
10659TIP3    H131934   6.484   0.688   3.448
10659TIP3    H231935   6.402   0.563   3.425
10660TIP3   OH231936   4.167   4.653   2.990
10660TIP3    H131937   4.256   4.652   3.026
10660TIP3    H231938   4.179   4.641   2.896
10661TIP3   OH231939   7.273   3.950   1.960
10661TIP3    H131940   7.239   4.035   1.988
10661TIP3    H231941   7.364   3.966   1.939
10662TIP3   OH231942   4.414   5.393   0.500
10662TIP3    H131943   4.412   5.383   0.405
10662TIP3    H231944   4.502   5.366   0.526
10663TIP3   OH231945   5.337   1.417   5.038
10663TIP3    H131946   5.412   1.358   5.030
10663TIP3    H231947   5.269   1.376   4.984
10664TIP3   OH231948   1.796   1.094   1.774
10664TIP3    H131949   1.845   1.145   1.839
10664TIP3    H231950   1.835   1.007   1.776
10665TIP3   OH231951   4.905   3.777   4.608
10665TIP3    H131952   4.811   3.792   4.611
10665TIP3    H231953   4.932   3.809   4.521
10666TIP3   OH231954   5.054   4.768   0.446
10666TIP3    H131955   5.010   4.804   0.368
10666TIP3    H231956   5.121   4.711   0.411
10667TIP3   OH231957   2.538   1.824   5.618
10667TIP3    H131958   2.532   1.728   5.621
10667TIP3    H231959   2.632   1.842   5.612
10668TIP3   OH231960   2.868   1.483   3.813
10668TIP3    H131961   2.854   1.507   3.722
10668TIP3    H231962   2.942   1.422   3.811
10669TIP3   OH231963   4.398   3.431   3.795
10669TIP3    H131964   4.364   3.485   3.867
10669TIP3    H231965   4.363   3.344   3.812
10670TIP3   OH231966   4.039   4.252   6.383
10670TIP3    H131967   4.047   4.308   6.461
10670TIP3    H231968   3.945   4.237   6.375
10671TIP3   OH231969   7.986   1.409   5.132
10671TIP3    H131970   8.029   1.494   5.120
10671TIP3    H231971   7.933   1.398   5.053
10672TIP3   OH231972   6.101   4.165   1.305
10672TIP3    H131973   6.182   4.150   1.256
10672TIP3    H231974   6.068   4.248   1.271
10673TIP3   OH231975   4.844   5.627   5.012
10673TIP3    H131976   4.863   5.680   4.935
10673TIP3    H231977   4.748   5.630   5.020
10674TIP3   OH231978   1.387   0.052   2.693
10674TIP3    H131979   1.294   0.063   2.711
10674TIP3    H231980   1.431   0.112   2.754
10675TIP3   OH231981   2.386   0.851   0.756
10675TIP3    H131982   2.467   0.858   0.704
10675TIP3    H231983   2.412   0.876   0.845
10676TIP3   OH231984  -0.043   5.647   0.655
10676TIP3    H131985  -0.017   5.562   0.689
10676TIP3    H231986  -0.032   5.707   0.728
10677TIP3   OH231987   8.094   7.737   1.288
10677TIP3    H131988   8.022   7.736   1.352
10677TIP3    H231989   8.096   7.647   1.255
10678TIP3   OH231990   6.361   1.203   4.636
10678TIP3    H131991   6.454   1.202   4.657
10678TIP3    H231992   6.336   1.111   4.635
10679TIP3   OH231993   4.845   6.966   0.159
10679TIP3    H131994   4.859   6.936   0.069
10679TIP3    H231995   4.845   6.887   0.212
10680TIP3   OH231996   3.739   2.227   5.439
10680TIP3    H131997   3.726   2.158   5.374
10680TIP3    H231998   3.804   2.190   5.500
10681TIP3   OH231999   2.990   3.112   0.382
10681TIP3    H132000   3.003   3.200   0.418
10681TIP3    H232001   3.065   3.062   0.415
10682TIP3   OH232002   1.106   3.899   1.213
10682TIP3    H132003   1.191   3.943   1.212
10682TIP3    H232004   1.080   3.898   1.305
10683TIP3   OH232005   8.287   1.453   2.646
10683TIP3    H132006   8.268   1.359   2.650
10683TIP3    H232007   8.216   1.494   2.694
10684TIP3   OH232008   1.915   5.811   0.508
10684TIP3    H132009   1.884   5.860   0.432
10684TIP3    H232010   1.869   5.849   0.582
10685TIP3   OH232011   8.328   7.045   4.306
10685TIP3    H132012   8.270   6.987   4.355
10685TIP3    H232013   8.384   7.085   4.373
10686TIP3   OH232014   0.966   1.081   3.052
10686TIP3    H132015   0.928   1.167   3.068
10686TIP3    H232016   0.894   1.020   3.067
10687TIP3   OH232017   5.847   4.310   5.180
10687TIP3    H132018   5.838   4.389   5.127
10687TIP3    H232019   5.939   4.284   5.168
10688TIP3   OH232020   4.140   0.231   0.246
10688TIP3    H132021   4.100   0.198   0.165
10688TIP3    H232022   4.209   0.290   0.215
10689TIP3   OH232023   5.238   0.105   2.892
10689TIP3    H132024   5.197   0.115   2.978
10689TIP3    H232025   5.331   0.123   2.907
10690TIP3   OH232026   4.700   4.562   3.983
10690TIP3    H132027   4.771   4.548   4.046
10690TIP3    H232028   4.621   4.540   4.031
10691TIP3   OH232029   6.447   5.954   6.558
10691TIP3    H132030   6.422   6.045   6.540
10691TIP3    H232031   6.476   5.920   6.473
10692TIP3   OH232032   0.054   5.993   6.708
10692TIP3    H132033   0.005   6.068   6.677
10692TIP3    H232034   0.038   5.990   6.802
10693TIP3   OH232035   0.765   4.353   5.722
10693TIP3    H132036   0.756   4.341   5.628
10693TIP3    H232037   0.823   4.283   5.750
10694TIP3   OH232038   0.808   6.480   5.430
10694TIP3    H132039   0.856   6.458   5.350
10694TIP3    H232040   0.718   6.455   5.411
10695TIP3   OH232041   6.673   0.250   4.475
10695TIP3    H132042   6.617   0.287   4.543
10695TIP3    H232043   6.628   0.271   4.393
10696TIP3   OH232044   2.039   0.781   5.212
10696TIP3    H132045   1.990   0.816   5.138
10696TIP3    H232046   1.979   0.717   5.251
10697TIP3   OH232047   4.845   7.496   5.830
10697TIP3    H132048   4.836   7.413   5.877
10697TIP3    H232049   4.930   7.530   5.857
10698TIP3   OH232050   4.779   6.523   0.076
10698TIP3    H132051   4.858   6.520   0.022
10698TIP3    H232052   4.763   6.432   0.100
10699TIP3   OH232053   0.051   5.414   4.723
10699TIP3    H132054   0.006   5.456   4.649
10699TIP3    H232055  -0.013   5.352   4.758
10700TIP3   OH232056   4.746   0.181   6.506
10700TIP3    H132057   4.685   0.155   6.575
10700TIP3    H232058   4.690   0.218   6.438
10701TIP3   OH232059   3.633   4.673   3.865
10701TIP3    H132060   3.596   4.605   3.809
10701TIP3    H232061   3.724   4.681   3.837
10702TIP3   OH232062   0.450   2.942   4.614
10702TIP3    H132063   0.440   2.890   4.534
10702TIP3    H232064   0.439   2.879   4.685
10703TIP3   OH232065   1.644   0.890   2.050
10703TIP3    H132066   1.555   0.916   2.071
10703TIP3    H232067   1.647   0.889   1.954
10704TIP3   OH232068   2.161   0.601   0.804
10704TIP3    H132069   2.094   0.662   0.836
10704TIP3    H232070   2.151   0.604   0.709
10705TIP3   OH232071   0.102   2.695   1.094
10705TIP3    H132072   0.009   2.708   1.109
10705TIP3    H232073   0.118   2.604   1.122
10706TIP3   OH232074   0.223   2.647   1.563
10706TIP3    H132075   0.232   2.720   1.502
10706TIP3    H232076   0.225   2.569   1.506
10707TIP3   OH232077   1.008   3.528   5.437
10707TIP3    H132078   0.969   3.585   5.503
10707TIP3    H232079   0.944   3.458   5.423
10708TIP3   OH232080   5.053   3.310   2.273
10708TIP3    H132081   5.071   3.318   2.366
10708TIP3    H232082   5.077   3.219   2.252
10709TIP3   OH232083   0.817   0.381   6.110
10709TIP3    H132084   0.844   0.459   6.061
10709TIP3    H232085   0.837   0.308   6.052
10710TIP3   OH232086   1.495   7.335   5.867
10710TIP3    H132087   1.457   7.354   5.952
10710TIP3    H232088   1.463   7.248   5.845
10711TIP3   OH232089   4.487   4.105   4.593
10711TIP3    H132090   4.491   4.190   4.637
10711TIP3    H232091   4.396   4.078   4.601
10712TIP3   OH232092   6.531   0.616   2.058
10712TIP3    H132093   6.543   0.593   1.966
10712TIP3    H232094   6.581   0.696   2.071
10713TIP3   OH232095   6.293   4.153   4.181
10713TIP3    H132096   6.215   4.196   4.147
10713TIP3    H232097   6.297   4.179   4.273
10714TIP3   OH232098   0.928   6.415   6.084
10714TIP3    H132099   0.998   6.446   6.028
10714TIP3    H232100   0.971   6.355   6.145
10715TIP3   OH232101   5.998   4.161   3.391
10715TIP3    H132102   6.061   4.199   3.452
10715TIP3    H232103   6.050   4.109   3.331
10716TIP3   OH232104   4.505   0.580   0.942
10716TIP3    H132105   4.436   0.607   1.002
10716TIP3    H232106   4.552   0.511   0.989
10717TIP3   OH232107   3.315   2.682   6.213
10717TIP3    H132108   3.248   2.722   6.269
10717TIP3    H232109   3.357   2.756   6.169
10718TIP3   OH232110   0.398   5.236   3.190
10718TIP3    H132111   0.316   5.188   3.185
10718TIP3    H232112   0.456   5.193   3.127
10719TIP3   OH232113   1.181   3.025   3.526
10719TIP3    H132114   1.134   3.047   3.606
10719TIP3    H232115   1.255   3.087   3.524
10720TIP3   OH232116   7.782   5.452   1.225
10720TIP3    H132117   7.758   5.362   1.203
10720TIP3    H232118   7.706   5.504   1.198
10721TIP3   OH232119   4.820   5.581   3.501
10721TIP3    H132120   4.783   5.494   3.517
10721TIP3    H232121   4.914   5.569   3.509
10722TIP3   OH232122   8.131   5.161   6.196
10722TIP3    H132123   8.197   5.180   6.129
10722TIP3    H232124   8.054   5.210   6.167
10723TIP3   OH232125   7.833   3.821   2.128
10723TIP3    H132126   7.915   3.813   2.177
10723TIP3    H232127   7.832   3.912   2.098
10724TIP3   OH232128   2.332   0.292   3.522
10724TIP3    H132129   2.425   0.313   3.529
10724TIP3    H232130   2.302   0.283   3.613
10725TIP3   OH232131   1.271   2.516   0.473
10725TIP3    H132132   1.238   2.472   0.551
10725TIP3    H232133   1.197   2.568   0.441
10726TIP3   OH232134   2.534   4.377   5.209
10726TIP3    H132135   2.507   4.317   5.139
10726TIP3    H232136   2.464   4.371   5.274
10727TIP3   OH232137   0.359   0.115   4.888
10727TIP3    H132138   0.321   0.044   4.940
10727TIP3    H232139   0.376   0.184   4.953
10728TIP3   OH232140   1.344   3.130   0.580
10728TIP3    H132141   1.316   3.045   0.615
10728TIP3    H232142   1.305   3.194   0.640
10729TIP3   OH232143   2.606   3.038   0.738
10729TIP3    H132144   2.649   3.123   0.733
10729TIP3    H232145   2.544   3.038   0.666
10730TIP3   OH232146   1.468   1.486   2.139
10730TIP3    H132147   1.564   1.477   2.137
10730TIP3    H232148   1.436   1.397   2.154
10731TIP3   OH232149   6.675   4.825   6.265
10731TIP3    H132150   6.704   4.805   6.176
10731TIP3    H232151   6.657   4.919   6.264
10732TIP3   OH232152   0.846   0.902   2.268
10732TIP3    H132153   0.900   0.860   2.336
10732TIP3    H232154   0.859   0.996   2.282
10733TIP3   OH232155   2.373   0.029   3.032
10733TIP3    H132156   2.435  -0.041   3.013
10733TIP3    H232157   2.391   0.053   3.123
10734TIP3   OH232158   2.945   0.368   2.082
10734TIP3    H132159   3.006   0.400   2.016
10734TIP3    H232160   2.950   0.433   2.152
10735TIP3   OH232161   7.792   7.583   4.517
10735TIP3    H132162   7.827   7.618   4.435
10735TIP3    H232163   7.824   7.644   4.584
10736TIP3   OH232164   4.868   0.803   5.341
10736TIP3    H132165   4.813   0.823   5.265
10736TIP3    H232166   4.870   0.707   5.344
10737TIP3   OH232167   4.675   5.817   3.561
10737TIP3    H132168   4.719   5.735   3.539
10737TIP3    H232169   4.680   5.823   3.656
10738TIP3   OH232170   6.581   3.186   6.179
10738TIP3    H132171   6.609   3.113   6.234
10738TIP3    H232172   6.573   3.149   6.091
10739TIP3   OH232173   0.813   3.846   6.783
10739TIP3    H132174   0.795   3.859   6.690
10739TIP3    H232175   0.807   3.751   6.795
10740TIP3   OH232176   5.901   6.782   6.687
10740TIP3    H132177   5.809   6.787   6.661
10740TIP3    H232178   5.912   6.852   6.751
10741TIP3   OH232179   2.919   7.602   3.560
10741TIP3    H132180   3.001   7.624   3.515
10741TIP3    H232181   2.872   7.546   3.499
10742TIP3   OH232182   2.978   7.447   6.746
10742TIP3    H132183   2.897   7.423   6.790
10742TIP3    H232184   3.044   7.389   6.783
10743TIP3   OH232185   1.553   3.705   0.401
10743TIP3    H132186   1.462   3.681   0.421
10743TIP3    H232187   1.605   3.645   0.455
10744TIP3   OH232188   3.996   6.131   0.235
10744TIP3    H132189   3.953   6.095   0.313
10744TIP3    H232190   4.043   6.057   0.197
10745TIP3   OH232191   1.246   0.436   5.613
10745TIP3    H132192   1.206   0.435   5.526
10745TIP3    H232193   1.254   0.529   5.635
10746TIP3   OH232194   0.012   2.175   5.803
10746TIP3    H132195   0.032   2.150   5.713
10746TIP3    H232196  -0.074   2.139   5.821
10747TIP3   OH232197   7.597   4.006   2.303
10747TIP3    H132198   7.592   3.911   2.298
10747TIP3    H232199   7.674   4.029   2.250
10748TIP3   OH232200   3.688   6.018   1.962
10748TIP3    H132201   3.658   5.984   1.877
10748TIP3    H232202   3.762   5.962   1.986
10749TIP3   OH232203   6.888   3.206   4.911
10749TIP3    H132204   6.937   3.244   4.838
10749TIP3    H232205   6.834   3.138   4.870
10750TIP3   OH232206   3.015   4.023   3.086
10750TIP3    H132207   2.998   4.112   3.116
10750TIP3    H232208   3.069   3.985   3.156
10751TIP3   OH232209   2.761   2.092   1.671
10751TIP3    H132210   2.753   2.011   1.722
10751TIP3    H232211   2.739   2.161   1.733
10752TIP3   OH232212   2.606   3.830   6.537
10752TIP3    H132213   2.677   3.785   6.582
10752TIP3    H232214   2.569   3.888   6.603
10753TIP3   OH232215   0.718   7.104   3.064
10753TIP3    H132216   0.728   7.195   3.035
10753TIP3    H232217   0.681   7.110   3.152
10754TIP3   OH232218   1.014   5.763   1.908
10754TIP3    H132219   0.992   5.732   1.995
10754TIP3    H232220   1.051   5.686   1.864
10755TIP3   OH232221   6.503   7.201   0.227
10755TIP3    H132222   6.477   7.140   0.157
10755TIP3    H232223   6.446   7.179   0.301
10756TIP3   OH232224   6.282   2.448   4.414
10756TIP3    H132225   6.210   2.385   4.412
10756TIP3    H232226   6.244   2.529   4.378
10757TIP3   OH232227   0.019   7.732   1.893
10757TIP3    H132228   0.017   7.654   1.839
10757TIP3    H232229   0.072   7.795   1.843
10758TIP3   OH232230   5.119   6.828   0.110
10758TIP3    H132231   5.100   6.798   0.021
10758TIP3    H232232   5.060   6.777   0.165
10759TIP3   OH232233   6.475   4.324   6.464
10759TIP3    H132234   6.446   4.328   6.555
10759TIP3    H232235   6.570   4.334   6.468
10760TIP3   OH232236   6.225   5.078   6.100
10760TIP3    H132237   6.264   5.021   6.167
10760TIP3    H232238   6.261   5.165   6.118
10761TIP3   OH232239   1.746   6.422   5.222
10761TIP3    H132240   1.681   6.358   5.194
10761TIP3    H232241   1.723   6.502   5.175
10762TIP3   OH232242   2.092   4.872   3.542
10762TIP3    H132243   2.011   4.891   3.494
10762TIP3    H232244   2.161   4.880   3.476
10763TIP3   OH232245   5.049   6.174   5.703
10763TIP3    H132246   4.980   6.125   5.658
10763TIP3    H232247   5.049   6.260   5.661
10764TIP3   OH232248   1.083   2.517   3.844
10764TIP3    H132249   0.993   2.487   3.854
10764TIP3    H232250   1.076   2.600   3.797
10765TIP3   OH232251   5.414   4.121   3.055
10765TIP3    H132252   5.483   4.081   3.108
10765TIP3    H232253   5.426   4.215   3.065
10766TIP3   OH232254   0.456   2.557   1.671
10766TIP3    H132255   0.460   2.518   1.759
10766TIP3    H232256   0.364   2.584   1.662
10767TIP3   OH232257   4.557   6.996   1.011
10767TIP3    H132258   4.526   6.980   1.100
10767TIP3    H232259   4.506   6.935   0.956
10768TIP3   OH232260   3.234   4.318   1.100
10768TIP3    H132261   3.211   4.229   1.074
10768TIP3    H232262   3.254   4.312   1.193
10769TIP3   OH232263   1.888   1.245   1.551
10769TIP3    H132264   1.914   1.170   1.604
10769TIP3    H232265   1.970   1.287   1.526
10770TIP3   OH232266   0.458   6.824   3.908
10770TIP3    H132267   0.473   6.793   3.997
10770TIP3    H232268   0.545   6.853   3.877
10771TIP3   OH232269   2.228   0.582   5.127
10771TIP3    H132270   2.300   0.644   5.135
10771TIP3    H232271   2.152   0.636   5.105
10772TIP3   OH232272   7.098   5.633   2.751
10772TIP3    H132273   7.004   5.633   2.768
10772TIP3    H232274   7.105   5.657   2.658
10773TIP3   OH232275   7.064   2.365   0.592
10773TIP3    H132276   7.151   2.333   0.567
10773TIP3    H232277   7.037   2.418   0.518
10774TIP3   OH232278   5.122   3.734   3.157
10774TIP3    H132279   5.117   3.757   3.250
10774TIP3    H232280   5.154   3.813   3.114
10775TIP3   OH232281   1.572   6.878   3.825
10775TIP3    H132282   1.584   6.930   3.905
10775TIP3    H232283   1.505   6.926   3.776
10776TIP3   OH232284   8.129   7.718   2.972
10776TIP3    H132285   8.198   7.766   3.019
10776TIP3    H232286   8.176   7.660   2.912
10777TIP3   OH232287   7.375   3.106   1.927
10777TIP3    H132288   7.320   3.044   1.976
10777TIP3    H232289   7.326   3.188   1.930
10778TIP3   OH232290   3.481   7.750   6.602
10778TIP3    H132291   3.479   7.710   6.515
10778TIP3    H232292   3.489   7.676   6.662
10779TIP3   OH232293   6.342   2.256   0.873
10779TIP3    H132294   6.311   2.240   0.962
10779TIP3    H232295   6.351   2.351   0.867
10780TIP3   OH232296   4.605   0.085   4.591
10780TIP3    H132297   4.698   0.079   4.614
10780TIP3    H232298   4.564   0.011   4.636
10781TIP3   OH232299   3.870   0.372   2.498
10781TIP3    H132300   3.959   0.408   2.494
10781TIP3    H232301   3.841   0.369   2.406
10782TIP3   OH232302   6.525   4.789   3.887
10782TIP3    H132303   6.611   4.832   3.889
10782TIP3    H232304   6.534   4.715   3.946
10783TIP3   OH232305   5.329   7.619   4.838
10783TIP3    H132306   5.409   7.584   4.799
10783TIP3    H232307   5.360   7.680   4.905
10784TIP3   OH232308   5.283   6.361   6.396
10784TIP3    H132309   5.356   6.317   6.351
10784TIP3    H232310   5.313   6.371   6.486
10785TIP3   OH232311   7.800   1.254   0.587
10785TIP3    H132312   7.789   1.334   0.537
10785TIP3    H232313   7.772   1.277   0.676
10786TIP3   OH232314   5.187   7.300   0.460
10786TIP3    H132315   5.184   7.280   0.553
10786TIP3    H232316   5.112   7.253   0.423
10787TIP3   OH232317   1.021   7.468   3.376
10787TIP3    H132318   0.936   7.449   3.335
10787TIP3    H232319   1.066   7.524   3.312
10788TIP3   OH232320   4.335   5.639   3.641
10788TIP3    H132321   4.366   5.617   3.553
10788TIP3    H232322   4.275   5.568   3.664
10789TIP3   OH232323   2.459   0.677   6.462
10789TIP3    H132324   2.452   0.689   6.556
10789TIP3    H232325   2.508   0.595   6.452
10790TIP3   OH232326   4.817   5.315   3.320
10790TIP3    H132327   4.824   5.279   3.409
10790TIP3    H232328   4.724   5.307   3.299
10791TIP3   OH232329   0.754   1.389   3.309
10791TIP3    H132330   0.759   1.468   3.363
10791TIP3    H232331   0.781   1.318   3.367
10792TIP3   OH232332   7.500   6.575   4.843
10792TIP3    H132333   7.533   6.639   4.906
10792TIP3    H232334   7.410   6.601   4.827
10793TIP3   OH232335   1.604   0.387   4.787
10793TIP3    H132336   1.521   0.396   4.739
10793TIP3    H232337   1.631   0.477   4.805
10794TIP3   OH232338   6.663   1.093   4.006
10794TIP3    H132339   6.581   1.047   3.988
10794TIP3    H232340   6.655   1.121   4.097
10795TIP3   OH232341   3.388   7.626   2.220
10795TIP3    H132342   3.407   7.547   2.169
10795TIP3    H232343   3.418   7.698   2.164
10796TIP3   OH232344   7.370   6.158   4.908
10796TIP3    H132345   7.418   6.165   4.991
10796TIP3    H232346   7.298   6.220   4.916
10797TIP3   OH232347   2.579   0.847   2.657
10797TIP3    H132348   2.484   0.855   2.656
10797TIP3    H232349   2.601   0.801   2.577
10798TIP3   OH232350   7.306   2.435   2.579
10798TIP3    H132351   7.258   2.354   2.560
10798TIP3    H232352   7.305   2.484   2.498
10799TIP3   OH232353   4.985   3.077   5.069
10799TIP3    H132354   4.940   3.120   4.996
10799TIP3    H232355   4.917   3.059   5.133
10800TIP3   OH232356   2.290   1.533   0.211
10800TIP3    H132357   2.296   1.626   0.230
10800TIP3    H232358   2.375   1.497   0.237
10801TIP3   OH232359   7.226   0.051   5.380
10801TIP3    H132360   7.215   0.007   5.296
10801TIP3    H232361   7.268   0.135   5.359
10802TIP3   OH232362   0.775   6.707   5.592
10802TIP3    H132363   0.795   6.653   5.516
10802TIP3    H232364   0.857   6.754   5.610
10803TIP3   OH232365   3.084   4.643   3.307
10803TIP3    H132366   3.070   4.615   3.397
10803TIP3    H232367   3.173   4.616   3.286
10804TIP3   OH232368   3.730   2.045   2.606
10804TIP3    H132369   3.635   2.058   2.608
10804TIP3    H232370   3.741   1.951   2.594
10805TIP3   OH232371   2.598   3.338   2.729
10805TIP3    H132372   2.530   3.344   2.795
10805TIP3    H232373   2.680   3.334   2.779
10806TIP3   OH232374   6.929   7.279   1.459
10806TIP3    H132375   6.911   7.351   1.520
10806TIP3    H232376   6.858   7.216   1.474
10807TIP3   OH232377   4.780   2.839   3.296
10807TIP3    H132378   4.787   2.820   3.389
10807TIP3    H232379   4.762   2.933   3.292
10808TIP3   OH232380   4.436   2.615   0.706
10808TIP3    H132381   4.386   2.569   0.774
10808TIP3    H232382   4.432   2.556   0.630
10809TIP3   OH232383   0.269   2.008   4.270
10809TIP3    H132384   0.194   2.067   4.267
10809TIP3    H232385   0.289   1.991   4.177
10810TIP3   OH232386   8.240   7.447   0.747
10810TIP3    H132387   8.152   7.425   0.777
10810TIP3    H232388   8.282   7.363   0.731
10811TIP3   OH232389   6.956   1.933   5.629
10811TIP3    H132390   6.933   1.957   5.539
10811TIP3    H232391   7.032   1.876   5.619
10812TIP3   OH232392   2.615   0.153   3.941
10812TIP3    H132393   2.659   0.069   3.951
10812TIP3    H232394   2.645   0.187   3.857
10813TIP3   OH232395   7.900   2.569   0.444
10813TIP3    H132396   7.941   2.530   0.521
10813TIP3    H232397   7.890   2.497   0.382
10814TIP3   OH232398   1.483   3.968   1.932
10814TIP3    H132399   1.563   4.020   1.927
10814TIP3    H232400   1.491   3.920   2.014
10815TIP3   OH232401   5.286   0.041   2.028
10815TIP3    H132402   5.333   0.100   1.971
10815TIP3    H232403   5.251   0.097   2.098
10816TIP3   OH232404   5.245   1.053   2.579
10816TIP3    H132405   5.171   1.111   2.597
10816TIP3    H232406   5.322   1.109   2.585
10817TIP3   OH232407   2.508   4.964   1.924
10817TIP3    H132408   2.586   4.973   1.870
10817TIP3    H232409   2.468   4.881   1.896
10818TIP3   OH232410   6.685   0.374   0.818
10818TIP3    H132411   6.730   0.299   0.779
10818TIP3    H232412   6.655   0.425   0.742
10819TIP3   OH232413   4.300   7.679   5.230
10819TIP3    H132414   4.251   7.687   5.312
10819TIP3    H232415   4.271   7.596   5.192
10820TIP3   OH232416   7.032   3.202   3.643
10820TIP3    H132417   7.017   3.274   3.582
10820TIP3    H232418   6.954   3.147   3.634
10821TIP3   OH232419   4.734   0.782   3.599
10821TIP3    H132420   4.806   0.845   3.592
10821TIP3    H232421   4.663   0.820   3.547
10822TIP3   OH232422   1.473   4.553   1.088
10822TIP3    H132423   1.565   4.564   1.067
10822TIP3    H232424   1.446   4.638   1.124
10823TIP3   OH232425   1.467   0.432   2.001
10823TIP3    H132426   1.418   0.504   2.039
10823TIP3    H232427   1.552   0.469   1.979
10824TIP3   OH232428   4.350   4.917   2.495
10824TIP3    H132429   4.425   4.949   2.544
10824TIP3    H232430   4.371   4.826   2.476
10825TIP3   OH232431   6.919   2.915   0.070
10825TIP3    H132432   6.926   2.982   0.139
10825TIP3    H232433   6.923   2.965  -0.012
10826TIP3   OH232434   1.947   5.733   3.891
10826TIP3    H132435   2.034   5.740   3.852
10826TIP3    H232436   1.947   5.799   3.961
10827TIP3   OH232437   5.633   2.227   5.599
10827TIP3    H132438   5.598   2.138   5.600
10827TIP3    H232439   5.665   2.240   5.510
10828TIP3   OH232440   0.970   6.875   1.140
10828TIP3    H132441   0.881   6.866   1.174
10828TIP3    H232442   0.959   6.922   1.057
10829TIP3   OH232443   0.487   1.105   1.705
10829TIP3    H132444   0.451   1.029   1.661
10829TIP3    H232445   0.470   1.178   1.646
10830TIP3   OH232446   4.169   1.659   5.237
10830TIP3    H132447   4.095   1.598   5.234
10830TIP3    H232448   4.142   1.733   5.183
10831TIP3   OH232449   4.686   7.709   1.794
10831TIP3    H132450   4.706   7.753   1.711
10831TIP3    H232451   4.591   7.695   1.791
10832TIP3   OH232452   6.328   1.527   1.015
10832TIP3    H132453   6.352   1.554   1.104
10832TIP3    H232454   6.360   1.597   0.960
10833TIP3   OH232455   1.140   7.340   2.694
10833TIP3    H132456   1.219   7.395   2.693
10833TIP3    H232457   1.171   7.254   2.667
10834TIP3   OH232458   0.135   0.900   2.703
10834TIP3    H132459   0.131   0.867   2.793
10834TIP3    H232460   0.044   0.900   2.674
10835TIP3   OH232461   2.611   0.958   0.070
10835TIP3    H132462   2.677   0.991   0.009
10835TIP3    H232463   2.547   0.913   0.015
10836TIP3   OH232464   2.776   5.367   2.434
10836TIP3    H132465   2.731   5.287   2.407
10836TIP3    H232466   2.834   5.388   2.361
10837TIP3   OH232467   3.997   3.292   4.364
10837TIP3    H132468   3.933   3.230   4.397
10837TIP3    H232469   4.022   3.344   4.440
10838TIP3   OH232470   7.335   1.569   2.691
10838TIP3    H132471   7.299   1.655   2.668
10838TIP3    H232472   7.322   1.562   2.785
10839TIP3   OH232473   0.315   1.122   0.250
10839TIP3    H132474   0.231   1.167   0.246
10839TIP3    H232475   0.327   1.101   0.343
10840TIP3   OH232476   1.446   5.556   0.801
10840TIP3    H132477   1.477   5.646   0.811
10840TIP3    H232478   1.518   5.502   0.832
10841TIP3   OH232479   5.374   3.028   5.761
10841TIP3    H132480   5.389   3.009   5.854
10841TIP3    H232481   5.329   2.951   5.727
10842TIP3   OH232482   3.815   2.907   5.209
10842TIP3    H132483   3.888   2.851   5.234
10842TIP3    H232484   3.738   2.850   5.215
10843TIP3   OH232485   7.189   1.433   4.264
10843TIP3    H132486   7.165   1.364   4.203
10843TIP3    H232487   7.277   1.409   4.294
10844TIP3   OH232488   3.284   5.596   4.718
10844TIP3    H132489   3.217   5.572   4.782
10844TIP3    H232490   3.332   5.515   4.703
10845TIP3   OH232491   6.011   3.429   2.671
10845TIP3    H132492   5.950   3.402   2.740
10845TIP3    H232493   6.053   3.348   2.643
10846TIP3   OH232494   6.961   3.876   2.000
10846TIP3    H132495   6.931   3.873   1.909
10846TIP3    H232496   7.051   3.910   1.994
10847TIP3   OH232497   5.680   6.528   2.034
10847TIP3    H132498   5.768   6.548   2.067
10847TIP3    H232499   5.659   6.443   2.073
10848TIP3   OH232500   4.486   6.588   2.501
10848TIP3    H132501   4.485   6.670   2.550
10848TIP3    H232502   4.541   6.529   2.553
10849TIP3   OH232503   1.288   4.895   4.966
10849TIP3    H132504   1.271   4.987   4.987
10849TIP3    H232505   1.213   4.868   4.913
10850TIP3   OH232506   1.754   5.359   4.590
10850TIP3    H132507   1.746   5.266   4.614
10850TIP3    H232508   1.787   5.401   4.669
10851TIP3   OH232509   1.593   3.752   2.684
10851TIP3    H132510   1.689   3.757   2.692
10851TIP3    H232511   1.560   3.798   2.761
10852TIP3   OH232512   0.197   7.802   2.115
10852TIP3    H132513   0.214   7.863   2.187
10852TIP3    H232514   0.280   7.756   2.103
10853TIP3   OH232515   7.875   6.843   5.758
10853TIP3    H132516   7.805   6.806   5.704
10853TIP3    H232517   7.923   6.767   5.791
10854TIP3   OH232518   0.670   0.566   4.287
10854TIP3    H132519   0.587   0.524   4.307
10854TIP3    H232520   0.667   0.650   4.335
10855TIP3   OH232521   6.851   5.497   2.068
10855TIP3    H132522   6.904   5.538   2.000
10855TIP3    H232523   6.866   5.551   2.146
10856TIP3   OH232524   5.202   4.350   4.289
10856TIP3    H132525   5.168   4.345   4.200
10856TIP3    H232526   5.232   4.262   4.309
10857TIP3   OH232527   7.215   6.131   3.273
10857TIP3    H132528   7.212   6.128   3.369
10857TIP3    H232529   7.218   6.224   3.252
10858TIP3   OH232530   7.101   1.632   0.453
10858TIP3    H132531   7.006   1.620   0.462
10858TIP3    H232532   7.110   1.697   0.383
10859TIP3   OH232533   1.334   3.944   4.682
10859TIP3    H132534   1.263   3.893   4.720
10859TIP3    H232535   1.300   4.034   4.678
10860TIP3   OH232536   1.787   2.755   6.732
10860TIP3    H132537   1.733   2.827   6.763
10860TIP3    H232538   1.810   2.706   6.811
10861TIP3   OH232539   1.674   4.575   1.398
10861TIP3    H132540   1.671   4.643   1.330
10861TIP3    H232541   1.583   4.552   1.413
10862TIP3   OH232542   3.149   5.354   6.710
10862TIP3    H132543   3.171   5.390   6.796
10862TIP3    H232544   3.053   5.347   6.712
10863TIP3   OH232545   3.878   3.413   3.310
10863TIP3    H132546   3.969   3.399   3.283
10863TIP3    H232547   3.836   3.452   3.233
10864TIP3   OH232548   3.837   1.558   6.679
10864TIP3    H132549   3.806   1.479   6.724
10864TIP3    H232550   3.932   1.556   6.690
10865TIP3   OH232551   1.839   6.695   4.682
10865TIP3    H132552   1.794   6.650   4.611
10865TIP3    H232553   1.932   6.688   4.662
10866TIP3   OH232554   1.316   0.132   4.615
10866TIP3    H132555   1.225   0.117   4.640
10866TIP3    H232556   1.326   0.227   4.618
10867TIP3   OH232557   4.281   0.946   0.102
10867TIP3    H132558   4.250   1.021   0.153
10867TIP3    H232559   4.228   0.949   0.022
10868TIP3   OH232560   4.608   4.237   2.756
10868TIP3    H132561   4.694   4.260   2.722
10868TIP3    H232562   4.582   4.311   2.810
10869TIP3   OH232563   1.085   0.090   2.334
10869TIP3    H132564   1.088   0.168   2.279
10869TIP3    H232565   1.177   0.072   2.355
10870TIP3   OH232566   0.169   0.204   5.755
10870TIP3    H132567   0.094   0.145   5.745
10870TIP3    H232568   0.198   0.192   5.845
10871TIP3   OH232569   3.299   2.765   3.355
10871TIP3    H132570   3.350   2.845   3.352
10871TIP3    H232571   3.270   2.757   3.446
10872TIP3   OH232572   4.954   7.348   4.291
10872TIP3    H132573   4.893   7.421   4.283
10872TIP3    H232574   4.905   7.273   4.258
10873TIP3   OH232575   4.518   5.086   0.277
10873TIP3    H132576   4.510   5.176   0.309
10873TIP3    H232577   4.501   5.092   0.183
10874TIP3   OH232578   2.909   3.265   1.136
10874TIP3    H132579   2.859   3.287   1.057
10874TIP3    H232580   2.844   3.235   1.198
10875TIP3   OH232581   1.538   0.804   3.958
10875TIP3    H132582   1.567   0.847   3.878
10875TIP3    H232583   1.618   0.768   3.997
10876TIP3   OH232584   3.444   4.509   2.711
10876TIP3    H132585   3.442   4.534   2.804
10876TIP3    H232586   3.507   4.437   2.707
10877TIP3   OH232587   3.952   4.618   4.521
10877TIP3    H132588   3.972   4.622   4.614
10877TIP3    H232589   4.012   4.680   4.480
10878TIP3   OH232590   5.674   3.783   4.911
10878TIP3    H132591   5.581   3.780   4.931
10878TIP3    H232592   5.678   3.816   4.821
10879TIP3   OH232593   7.729   4.356   2.034
10879TIP3    H132594   7.711   4.371   2.127
10879TIP3    H232595   7.648   4.379   1.989
10880TIP3   OH232596   7.252   6.345   2.976
10880TIP3    H132597   7.166   6.383   2.991
10880TIP3    H232598   7.296   6.349   3.061
10881TIP3   OH232599   5.955   0.999   6.556
10881TIP3    H132600   5.999   0.917   6.531
10881TIP3    H232601   5.861   0.978   6.551
10882TIP3   OH232602   0.256   5.038   1.548
10882TIP3    H132603   0.242   4.958   1.497
10882TIP3    H232604   0.285   5.103   1.484
10883TIP3   OH232605   5.957   3.223   3.840
10883TIP3    H132606   5.931   3.133   3.858
10883TIP3    H232607   5.879   3.275   3.858
10884TIP3   OH232608   6.727   1.078   0.457
10884TIP3    H132609   6.689   1.095   0.543
10884TIP3    H232610   6.756   1.164   0.425
10885TIP3   OH232611   1.645   3.665   1.894
10885TIP3    H132612   1.608   3.585   1.855
10885TIP3    H232613   1.592   3.680   1.972
10886TIP3   OH232614   5.990   4.214   2.990
10886TIP3    H132615   5.933   4.151   3.034
10886TIP3    H232616   6.078   4.178   3.001
10887TIP3   OH232617   1.197   4.190   1.602
10887TIP3    H132618   1.281   4.164   1.641
10887TIP3    H232619   1.177   4.119   1.540
10888TIP3   OH232620   6.916   4.098   4.681
10888TIP3    H132621   7.008   4.119   4.697
10888TIP3    H232622   6.911   4.081   4.587
10889TIP3   OH232623   7.955   0.714   0.175
10889TIP3    H132624   7.976   0.761   0.256
10889TIP3    H232625   7.859   0.718   0.170
10890TIP3   OH232626   3.976   2.812   0.802
10890TIP3    H132627   4.056   2.821   0.749
10890TIP3    H232628   3.917   2.878   0.766
10891TIP3   OH232629   4.683   1.010   2.977
10891TIP3    H132630   4.710   0.959   3.053
10891TIP3    H232631   4.588   0.999   2.973
10892TIP3   OH232632   0.591   0.667   3.143
10892TIP3    H132633   0.632   0.584   3.115
10892TIP3    H232634   0.664   0.729   3.149
10893TIP3   OH232635   7.505   1.167   3.713
10893TIP3    H132636   7.445   1.104   3.675
10893TIP3    H232637   7.592   1.137   3.688
10894TIP3   OH232638   0.364   7.418   0.863
10894TIP3    H132639   0.343   7.356   0.793
10894TIP3    H232640   0.389   7.363   0.937
10895TIP3   OH232641   5.091   3.839   1.565
10895TIP3    H132642   5.106   3.746   1.587
10895TIP3    H232643   5.178   3.871   1.540
10896TIP3   OH232644   7.468   6.014   2.132
10896TIP3    H132645   7.539   6.078   2.140
10896TIP3    H232646   7.499   5.938   2.183
10897TIP3   OH232647   5.954   3.542   4.404
10897TIP3    H132648   5.910   3.459   4.386
10897TIP3    H232649   5.884   3.607   4.398
10898TIP3   OH232650   2.124   7.014   4.923
10898TIP3    H132651   2.030   7.004   4.909
10898TIP3    H232652   2.157   7.050   4.840
10899TIP3   OH232653   1.943   5.608   2.862
10899TIP3    H132654   1.991   5.686   2.833
10899TIP3    H232655   1.957   5.544   2.792
10900TIP3   OH232656   5.617   0.800   4.176
10900TIP3    H132657   5.549   0.734   4.159
10900TIP3    H232658   5.676   0.757   4.239
10901TIP3   OH232659   7.343   0.197   3.477
10901TIP3    H132660   7.425   0.246   3.472
10901TIP3    H232661   7.294   0.241   3.548
10902TIP3   OH232662   1.098   4.840   5.778
10902TIP3    H132663   1.089   4.798   5.864
10902TIP3    H232664   1.190   4.865   5.774
10903TIP3   OH232665   7.303   0.438   5.127
10903TIP3    H132666   7.297   0.490   5.208
10903TIP3    H232667   7.394   0.447   5.099
10904TIP3   OH232668   3.179   0.875   2.473
10904TIP3    H132669   3.192   0.916   2.558
10904TIP3    H232670   3.152   0.946   2.415
10905TIP3   OH232671   0.135   1.910   2.558
10905TIP3    H132672   0.111   1.835   2.504
10905TIP3    H232673   0.144   1.874   2.646
10906TIP3   OH232674   6.900   5.209   4.936
10906TIP3    H132675   6.900   5.114   4.948
10906TIP3    H232676   6.916   5.244   5.023
10907TIP3   OH232677   4.492   1.109   5.247
10907TIP3    H132678   4.537   1.188   5.216
10907TIP3    H232679   4.439   1.080   5.172
10908TIP3   OH232680   6.724   7.706   3.684
10908TIP3    H132681   6.675   7.635   3.643
10908TIP3    H232682   6.787   7.662   3.741
10909TIP3   OH232683   3.262   1.584   1.425
10909TIP3    H132684   3.283   1.640   1.350
10909TIP3    H232685   3.343   1.581   1.476
10910TIP3   OH232686   8.038   0.739   0.952
10910TIP3    H132687   8.000   0.737   1.040
10910TIP3    H232688   7.982   0.800   0.904
10911TIP3   OH232689   5.677   4.659   6.527
10911TIP3    H132690   5.606   4.610   6.567
10911TIP3    H232691   5.645   4.680   6.439
10912TIP3   OH232692   7.098   0.112   1.436
10912TIP3    H132693   7.119   0.205   1.433
10912TIP3    H232694   7.057   0.094   1.351
10913TIP3   OH232695   7.642   3.370   5.811
10913TIP3    H132696   7.722   3.422   5.810
10913TIP3    H232697   7.583   3.419   5.869
10914TIP3   OH232698   0.451   2.735   5.526
10914TIP3    H132699   0.485   2.785   5.601
10914TIP3    H232700   0.399   2.798   5.477
10915TIP3   OH232701   6.957   5.110   5.866
10915TIP3    H132702   6.886   5.062   5.824
10915TIP3    H232703   7.036   5.059   5.846
10916TIP3   OH232704   4.795   4.414   1.449
10916TIP3    H132705   4.799   4.404   1.354
10916TIP3    H232706   4.880   4.453   1.472
10917TIP3   OH232707   0.853   6.253   6.485
10917TIP3    H132708   0.768   6.266   6.443
10917TIP3    H232709   0.834   6.258   6.579
10918TIP3   OH232710   0.838   1.106   3.405
10918TIP3    H132711   0.810   1.032   3.460
10918TIP3    H232712   0.787   1.097   3.325
10919TIP3   OH232713   1.438   2.974   3.217
10919TIP3    H132714   1.376   3.018   3.158
10919TIP3    H232715   1.387   2.904   3.258
10920TIP3   OH232716   1.161   1.083   2.782
10920TIP3    H132717   1.253   1.071   2.804
10920TIP3    H232718   1.147   1.178   2.788
10921TIP3   OH232719   3.564   4.430   1.330
10921TIP3    H132720   3.482   4.464   1.294
10921TIP3    H232721   3.541   4.345   1.367
10922TIP3   OH232722   6.072   7.114   0.718
10922TIP3    H132723   5.986   7.127   0.679
10922TIP3    H232724   6.055   7.056   0.793
10923TIP3   OH232725   1.695   6.674   1.080
10923TIP3    H132726   1.657   6.671   0.992
10923TIP3    H232727   1.636   6.730   1.130
10924TIP3   OH232728   6.486   6.251   1.621
10924TIP3    H132729   6.457   6.166   1.655
10924TIP3    H232730   6.420   6.273   1.555
10925TIP3   OH232731   7.709   6.307   5.964
10925TIP3    H132732   7.629   6.279   6.009
10925TIP3    H232733   7.779   6.256   6.006
10926TIP3   OH232734   5.200   3.576   2.247
10926TIP3    H132735   5.130   3.511   2.240
10926TIP3    H232736   5.193   3.627   2.167
10927TIP3   OH232737   5.128   2.186   5.175
10927TIP3    H132738   5.094   2.253   5.116
10927TIP3    H232739   5.136   2.230   5.259
10928TIP3   OH232740   1.818   1.184   5.738
10928TIP3    H132741   1.871   1.248   5.689
10928TIP3    H232742   1.745   1.235   5.773
10929TIP3   OH232743   7.531   1.269   1.820
10929TIP3    H132744   7.463   1.235   1.762
10929TIP3    H232745   7.484   1.321   1.884
10930TIP3   OH232746   3.785   0.411   4.347
10930TIP3    H132747   3.847   0.342   4.327
10930TIP3    H232748   3.824   0.490   4.312
10931TIP3   OH232749   7.973   7.206   3.563
10931TIP3    H132750   7.935   7.158   3.489
10931TIP3    H232751   8.062   7.174   3.570
10932TIP3   OH232752   4.415   5.587   4.320
10932TIP3    H132753   4.424   5.638   4.401
10932TIP3    H232754   4.407   5.654   4.251
10933TIP3   OH232755   2.317   3.781   4.484
10933TIP3    H132756   2.352   3.870   4.490
10933TIP3    H232757   2.256   3.784   4.411
10934TIP3   OH232758   5.720   2.971   2.384
10934TIP3    H132759   5.625   2.962   2.391
10934TIP3    H232760   5.733   3.021   2.303
10935TIP3   OH232761   3.299   0.281   3.781
10935TIP3    H132762   3.350   0.329   3.716
10935TIP3    H232763   3.221   0.252   3.732
10936TIP3   OH232764   7.302   5.212   2.214
10936TIP3    H132765   7.344   5.232   2.130
10936TIP3    H232766   7.218   5.171   2.189
10937TIP3   OH232767   6.358   0.516   5.307
10937TIP3    H132768   6.350   0.600   5.351
10937TIP3    H232769   6.451   0.494   5.314
10938TIP3   OH232770   1.453   1.536   0.759
10938TIP3    H132771   1.428   1.452   0.721
10938TIP3    H232772   1.429   1.600   0.692
10939TIP3   OH232773   0.315   2.151   1.500
10939TIP3    H132774   0.282   2.100   1.426
10939TIP3    H232775   0.404   2.176   1.475
10940TIP3   OH232776   2.295   6.003   1.947
10940TIP3    H132777   2.333   6.030   1.863
10940TIP3    H232778   2.205   6.037   1.944
10941TIP3   OH232779   0.752   4.782   2.456
10941TIP3    H132780   0.729   4.850   2.393
10941TIP3    H232781   0.798   4.828   2.526
10942TIP3   OH232782   7.771   6.574   3.677
10942TIP3    H132783   7.678   6.572   3.654
10942TIP3    H232784   7.772   6.585   3.772
10943TIP3   OH232785   0.294   3.160   0.124
10943TIP3    H132786   0.260   3.203   0.046
10943TIP3    H232787   0.345   3.227   0.169
10944TIP3   OH232788   1.416   7.558   6.256
10944TIP3    H132789   1.381   7.646   6.242
10944TIP3    H232790   1.404   7.542   6.349
10945TIP3   OH232791   4.620   4.492   1.926
10945TIP3    H132792   4.537   4.482   1.973
10945TIP3    H232793   4.686   4.454   1.985
10946TIP3   OH232794   5.089   3.068   4.236
10946TIP3    H132795   5.120   2.979   4.252
10946TIP3    H232796   5.107   3.084   4.144
10947TIP3   OH232797   1.584   7.590   1.848
10947TIP3    H132798   1.566   7.526   1.917
10947TIP3    H232799   1.667   7.561   1.811
10948TIP3   OH232800   7.892   5.038   2.108
10948TIP3    H132801   7.974   5.083   2.086
10948TIP3    H232802   7.849   5.095   2.172
10949TIP3   OH232803   4.090   4.958   0.493
10949TIP3    H132804   4.040   4.923   0.419
10949TIP3    H232805   4.025   4.970   0.562
10950TIP3   OH232806   4.517   7.793   6.323
10950TIP3    H132807   4.609   7.812   6.339
10950TIP3    H232808   4.515   7.698   6.307
10951TIP3   OH232809   7.696   0.193   5.348
10951TIP3    H132810   7.696   0.289   5.340
10951TIP3    H232811   7.698   0.177   5.442
10952TIP3   OH232812   8.239   6.799   0.818
10952TIP3    H132813   8.274   6.856   0.886
10952TIP3    H232814   8.175   6.744   0.863
10953TIP3   OH232815   5.630   2.685   0.506
10953TIP3    H132816   5.650   2.717   0.418
10953TIP3    H232817   5.568   2.613   0.491
10954TIP3   OH232818   6.585   6.210   3.139
10954TIP3    H132819   6.569   6.127   3.094
10954TIP3    H232820   6.611   6.186   3.227
10955TIP3   OH232821   3.296   4.895   4.383
10955TIP3    H132822   3.344   4.814   4.370
10955TIP3    H232823   3.215   4.883   4.332
10956TIP3   OH232824   1.389   3.310   6.066
10956TIP3    H132825   1.320   3.295   6.001
10956TIP3    H232826   1.359   3.387   6.115
10957TIP3   OH232827   5.306   0.478   0.228
10957TIP3    H132828   5.300   0.391   0.188
10957TIP3    H232829   5.358   0.464   0.307
10958TIP3   OH232830   3.365   6.596   1.777
10958TIP3    H132831   3.386   6.534   1.846
10958TIP3    H232832   3.385   6.550   1.696
10959TIP3   OH232833   3.686   4.157   3.063
10959TIP3    H132834   3.645   4.185   2.981
10959TIP3    H232835   3.641   4.076   3.086
10960TIP3   OH232836   7.112   0.169   3.997
10960TIP3    H132837   7.034   0.224   3.986
10960TIP3    H232838   7.132   0.139   3.908
10961TIP3   OH232839   4.944   7.781   4.499
10961TIP3    H132840   4.878   7.848   4.480
10961TIP3    H232841   4.896   7.714   4.548
10962TIP3   OH232842   4.897   7.738   3.052
10962TIP3    H132843   4.960   7.759   2.983
10962TIP3    H232844   4.815   7.723   3.006
10963TIP3   OH232845   2.706   1.145   0.682
10963TIP3    H132846   2.743   1.203   0.616
10963TIP3    H232847   2.618   1.124   0.649
10964TIP3   OH232848   4.245   6.647   5.723
10964TIP3    H132849   4.321   6.691   5.685
10964TIP3    H232850   4.264   6.554   5.713
10965TIP3   OH232851   5.286   5.645   5.433
10965TIP3    H132852   5.272   5.738   5.452
10965TIP3    H232853   5.217   5.622   5.371
10966TIP3   OH232854   0.207   5.657   4.174
10966TIP3    H132855   0.299   5.647   4.201
10966TIP3    H232856   0.210   5.653   4.079
10967TIP3   OH232857   0.361   3.663   2.027
10967TIP3    H132858   0.338   3.670   2.119
10967TIP3    H232859   0.430   3.729   2.014
10968TIP3   OH232860   1.241   4.095   6.487
10968TIP3    H132861   1.221   4.124   6.398
10968TIP3    H232862   1.171   4.133   6.540
10969TIP3   OH232863   1.206   7.845   6.521
10969TIP3    H132864   1.234   7.758   6.493
10969TIP3    H232865   1.133   7.828   6.581
10970TIP3   OH232866   4.995   7.498   6.230
10970TIP3    H132867   5.045   7.446   6.293
10970TIP3    H232868   5.043   7.581   6.224
10971TIP3   OH232869   2.122   6.645   0.890
10971TIP3    H132870   2.111   6.555   0.858
10971TIP3    H232871   2.143   6.695   0.812
10972TIP3   OH232872   3.052   7.007   4.624
10972TIP3    H132873   3.129   7.063   4.629
10972TIP3    H232874   3.077   6.936   4.565
10973TIP3   OH232875   4.843   3.180   4.870
10973TIP3    H132876   4.763   3.127   4.865
10973TIP3    H232877   4.844   3.228   4.788
10974TIP3   OH232878   0.414   2.709   0.205
10974TIP3    H132879   0.362   2.757   0.141
10974TIP3    H232880   0.460   2.642   0.154
10975TIP3   OH232881   6.851   6.321   6.016
10975TIP3    H132882   6.833   6.229   6.034
10975TIP3    H232883   6.847   6.363   6.102
10976TIP3   OH232884   2.622   5.332   2.658
10976TIP3    H132885   2.644   5.382   2.579
10976TIP3    H232886   2.701   5.336   2.712
10977TIP3   OH232887   0.763   4.495   3.710
10977TIP3    H132888   0.815   4.445   3.647
10977TIP3    H232889   0.778   4.587   3.687
10978TIP3   OH232890   2.688   2.417   5.876
10978TIP3    H132891   2.712   2.343   5.820
10978TIP3    H232892   2.648   2.480   5.815
10979TIP3   OH232893   5.158   6.961   2.548
10979TIP3    H132894   5.134   7.053   2.533
10979TIP3    H232895   5.253   6.962   2.558
10980TIP3   OH232896   4.191   1.425   1.828
10980TIP3    H132897   4.096   1.420   1.818
10980TIP3    H232898   4.224   1.433   1.739
10981TIP3   OH232899   2.862   0.729   2.334
10981TIP3    H132900   2.867   0.761   2.424
10981TIP3    H232901   2.785   0.672   2.333
10982TIP3   OH232902   6.991   5.814   0.185
10982TIP3    H132903   6.974   5.821   0.091
10982TIP3    H232904   7.084   5.794   0.192
10983TIP3   OH232905   5.797   0.435   5.664
10983TIP3    H132906   5.751   0.398   5.588
10983TIP3    H232907   5.888   0.441   5.636
10984TIP3   OH232908   4.780   3.414   6.418
10984TIP3    H132909   4.824   3.353   6.358
10984TIP3    H232910   4.798   3.501   6.382
10985TIP3   OH232911   4.241   3.659   5.313
10985TIP3    H132912   4.168   3.708   5.351
10985TIP3    H232913   4.314   3.675   5.373
10986TIP3   OH232914   4.206   5.554   5.712
10986TIP3    H132915   4.119   5.523   5.687
10986TIP3    H232916   4.191   5.638   5.754
10987TIP3   OH232917   6.541   7.577   6.660
10987TIP3    H132918   6.524   7.544   6.748
10987TIP3    H232919   6.471   7.641   6.645
10988TIP3   OH232920   1.551   3.504   6.392
10988TIP3    H132921   1.539   3.415   6.359
10988TIP3    H232922   1.571   3.493   6.485
10989TIP3   OH232923   5.812   7.012   5.796
10989TIP3    H132924   5.790   7.006   5.889
10989TIP3    H232925   5.875   7.084   5.790
10990TIP3   OH232926   2.141   4.934   1.861
10990TIP3    H132927   2.064   4.989   1.843
10990TIP3    H232928   2.118   4.848   1.825
10991TIP3   OH232929   6.196   4.830   5.761
10991TIP3    H132930   6.138   4.782   5.702
10991TIP3    H232931   6.258   4.764   5.793
10992TIP3   OH232932   4.772   1.793   3.809
10992TIP3    H132933   4.766   1.865   3.872
10992TIP3    H232934   4.828   1.828   3.739
10993TIP3   OH232935   2.345   7.055   0.667
10993TIP3    H132936   2.288   6.980   0.682
10993TIP3    H232937   2.429   7.029   0.704
10994TIP3   OH232938   6.072   3.305   6.011
10994TIP3    H132939   6.046   3.348   6.092
10994TIP3    H232940   6.020   3.225   6.007
10995TIP3   OH232941   7.376   0.342   3.905
10995TIP3    H132942   7.434   0.271   3.878
10995TIP3    H232943   7.297   0.331   3.851
10996TIP3   OH232944   7.481   0.669   4.187
10996TIP3    H132945   7.507   0.627   4.105
10996TIP3    H232946   7.386   0.672   4.184
10997TIP3   OH232947   4.924   4.414   5.004
10997TIP3    H132948   4.961   4.418   4.916
10997TIP3    H232949   4.895   4.324   5.015
10998TIP3   OH232950   6.881   4.387   3.251
10998TIP3    H132951   6.799   4.356   3.212
10998TIP3    H232952   6.943   4.316   3.233
10999TIP3   OH232953   5.409   7.004   6.700
10999TIP3    H132954   5.368   7.034   6.781
10999TIP3    H232955   5.350   6.938   6.665
11000TIP3   OH232956   4.765   2.279   0.453
11000TIP3    H132957   4.730   2.199   0.414
11000TIP3    H232958   4.789   2.255   0.542
11001TIP3   OH232959   0.148   3.668   4.347
11001TIP3    H132960   0.060   3.630   4.341
11001TIP3    H232961   0.144   3.746   4.292
11002TIP3   OH232962   3.649   7.599   2.105
11002TIP3    H132963   3.632   7.562   2.018
11002TIP3    H232964   3.650   7.524   2.164
11003TIP3   OH232965   0.590   6.121   5.486
11003TIP3    H132966   0.501   6.087   5.476
11003TIP3    H232967   0.595   6.149   5.577
11004TIP3   OH232968   6.409   4.789   1.648
11004TIP3    H132969   6.322   4.764   1.617
11004TIP3    H232970   6.449   4.708   1.677
11005TIP3   OH232971   0.137   6.693   6.097
11005TIP3    H132972   0.190   6.715   6.174
11005TIP3    H232973   0.202   6.676   6.028
11006TIP3   OH232974   0.777   1.333   3.950
11006TIP3    H132975   0.862   1.318   3.908
11006TIP3    H232976   0.719   1.268   3.910
11007TIP3   OH232977   2.501   0.738   4.789
11007TIP3    H132978   2.525   0.651   4.821
11007TIP3    H232979   2.410   0.749   4.815
11008TIP3   OH232980   0.464   7.429   6.524
11008TIP3    H132981   0.418   7.347   6.541
11008TIP3    H232982   0.453   7.480   6.604
11009TIP3   OH232983   1.657   1.880   6.304
11009TIP3    H132984   1.696   1.794   6.291
11009TIP3    H232985   1.682   1.931   6.227
11010TIP3   OH232986   1.853   0.320   5.856
11010TIP3    H132987   1.825   0.244   5.906
11010TIP3    H232988   1.776   0.343   5.803
11011TIP3   OH232989   6.037   1.769   3.333
11011TIP3    H132990   5.997   1.781   3.419
11011TIP3    H232991   5.968   1.791   3.270
11012TIP3   OH232992   5.002   5.271   5.772
11012TIP3    H132993   4.993   5.263   5.867
11012TIP3    H232994   4.925   5.224   5.737
11013TIP3   OH232995   4.266   2.368   2.987
11013TIP3    H132996   4.266   2.348   2.893
11013TIP3    H232997   4.195   2.430   2.999
11014TIP3   OH232998   1.466   5.045   2.413
11014TIP3    H132999   1.520   5.009   2.483
11014TIP3    H233000   1.473   4.982   2.342
11015TIP3   OH233001   2.609   3.524   2.463
11015TIP3    H133002   2.645   3.499   2.548
11015TIP3    H233003   2.619   3.446   2.408
11016TIP3   OH233004   0.959   6.275   1.112
11016TIP3    H133005   0.885   6.318   1.069
11016TIP3    H233006   0.947   6.295   1.205
11017TIP3   OH233007   4.601   4.048   3.719
11017TIP3    H133008   4.546   4.032   3.796
11017TIP3    H233009   4.654   4.124   3.743
11018TIP3   OH233010   3.964   0.988   5.313
11018TIP3    H133011   3.998   0.942   5.236
11018TIP3    H233012   4.041   1.004   5.368
11019TIP3   OH233013   1.266   1.951   5.609
11019TIP3    H133014   1.207   2.026   5.612
11019TIP3    H233015   1.353   1.988   5.625
11020TIP3   OH233016   1.483   3.585   2.117
11020TIP3    H133017   1.448   3.667   2.150
11020TIP3    H233018   1.530   3.547   2.191
11021TIP3   OH233019   7.376   7.210   4.642
11021TIP3    H133020   7.305   7.148   4.660
11021TIP3    H233021   7.339   7.272   4.579
11022TIP3   OH233022   5.657   0.801   2.190
11022TIP3    H133023   5.687   0.874   2.244
11022TIP3    H233024   5.570   0.826   2.162
11023TIP3   OH233025   8.091   3.987   6.694
11023TIP3    H133026   8.187   3.994   6.689
11023TIP3    H233027   8.075   3.924   6.764
11024TIP3   OH233028   6.623   4.594   4.630
11024TIP3    H133029   6.618   4.600   4.535
11024TIP3    H233030   6.538   4.558   4.657
11025TIP3   OH233031   1.312   4.060   1.271
11025TIP3    H133032   1.382   4.114   1.310
11025TIP3    H233033   1.247   4.124   1.240
11026TIP3   OH233034   3.993   7.795   2.497
11026TIP3    H133035   3.976   7.827   2.409
11026TIP3    H233036   3.960   7.864   2.555
11027TIP3   OH233037   0.023   6.531   5.771
11027TIP3    H133038  -0.002   6.478   5.695
11027TIP3    H233039   0.034   6.467   5.841
11028TIP3   OH233040   0.532   6.170   1.081
11028TIP3    H133041   0.577   6.243   1.124
11028TIP3    H233042   0.475   6.212   1.016
11029TIP3   OH233043   3.274   4.953   3.079
11029TIP3    H133044   3.203   5.013   3.102
11029TIP3    H233045   3.280   4.959   2.984
11030TIP3   OH233046   4.379   0.934   1.644
11030TIP3    H133047   4.383   0.885   1.726
11030TIP3    H233048   4.393   1.025   1.668
11031TIP3   OH233049   4.456   1.397   0.248
11031TIP3    H133050   4.362   1.378   0.253
11031TIP3    H233051   4.471   1.422   0.157
11032TIP3   OH233052   6.146   5.038   3.827
11032TIP3    H133053   6.132   5.126   3.792
11032TIP3    H233054   6.227   5.045   3.878
11033TIP3   OH233055   2.548   1.161   4.005
11033TIP3    H133056   2.595   1.099   3.949
11033TIP3    H233057   2.617   1.212   4.048
11034TIP3   OH233058   7.483   2.305   2.781
11034TIP3    H133059   7.420   2.233   2.781
11034TIP3    H233060   7.446   2.369   2.720
11035TIP3   OH233061   5.198   3.169   1.699
11035TIP3    H133062   5.219   3.260   1.721
11035TIP3    H233063   5.250   3.117   1.761
11036TIP3   OH233064   4.016   7.114   4.611
11036TIP3    H133065   3.981   7.080   4.529
11036TIP3    H233066   3.990   7.050   4.678
11037TIP3   OH233067   3.839   7.566   2.539
11037TIP3    H133068   3.763   7.558   2.482
11037TIP3    H233069   3.851   7.660   2.550
11038TIP3   OH233070   6.735   1.121   5.140
11038TIP3    H133071   6.743   1.124   5.045
11038TIP3    H233072   6.722   1.212   5.166
11039TIP3   OH233073   1.683   1.723   5.697
11039TIP3    H133074   1.765   1.772   5.700
11039TIP3    H233075   1.630   1.762   5.766
11040TIP3   OH233076   3.409   5.111   2.378
11040TIP3    H133077   3.332   5.163   2.358
11040TIP3    H233078   3.377   5.020   2.381
11041TIP3   OH233079   4.451   2.086   0.556
11041TIP3    H133080   4.368   2.058   0.594
11041TIP3    H233081   4.491   2.143   0.622
11042TIP3   OH233082   8.108   0.340   5.476
11042TIP3    H133083   8.093   0.251   5.443
11042TIP3    H233084   8.068   0.397   5.410
11043TIP3   OH233085   7.566   6.684   0.208
11043TIP3    H133086   7.625   6.758   0.223
11043TIP3    H233087   7.586   6.655   0.119
11044TIP3   OH233088   5.673   5.359   6.273
11044TIP3    H133089   5.736   5.387   6.340
11044TIP3    H233090   5.695   5.413   6.196
11045TIP3   OH233091   6.871   0.662   4.987
11045TIP3    H133092   6.900   0.729   5.048
11045TIP3    H233093   6.950   0.612   4.967
11046TIP3   OH233094   7.066   1.562   4.951
11046TIP3    H133095   7.070   1.578   5.046
11046TIP3    H233096   7.122   1.630   4.913
11047TIP3   OH233097   4.657   5.164   5.379
11047TIP3    H133098   4.670   5.256   5.403
11047TIP3    H233099   4.686   5.115   5.455
11048TIP3   OH233100   0.725   7.024   4.008
11048TIP3    H133101   0.792   7.092   4.005
11048TIP3    H233102   0.718   6.993   3.918
11049TIP3   OH233103   5.845   5.696   5.022
11049TIP3    H133104   5.852   5.753   5.099
11049TIP3    H233105   5.903   5.622   5.041
11050TIP3   OH233106   7.316   5.588   5.609
11050TIP3    H133107   7.378   5.626   5.672
11050TIP3    H233108   7.262   5.662   5.582
11051TIP3   OH233109   6.386   4.012   2.659
11051TIP3    H133110   6.346   4.096   2.682
11051TIP3    H233111   6.327   3.974   2.594
11052TIP3   OH233112   2.660   4.664   3.262
11052TIP3    H133113   2.633   4.637   3.174
11052TIP3    H233114   2.593   4.727   3.289
11053TIP3   OH233115   5.107   1.647   4.169
11053TIP3    H133116   5.168   1.653   4.096
11053TIP3    H233117   5.021   1.655   4.129
11054TIP3   OH233118   0.387   7.789   4.196
11054TIP3    H133119   0.344   7.730   4.135
11054TIP3    H233120   0.386   7.742   4.279
11055TIP3   OH233121   5.003   3.094   1.293
11055TIP3    H133122   4.928   3.143   1.328
11055TIP3    H233123   5.075   3.113   1.354
11056TIP3   OH233124   1.683  -0.004   1.167
11056TIP3    H133125   1.730   0.037   1.239
11056TIP3    H233126   1.590   0.003   1.191
11057TIP3   OH233127   7.947   4.213   6.586
11057TIP3    H133128   8.011   4.151   6.621
11057TIP3    H233129   7.864   4.166   6.590
11058TIP3   OH233130   2.087   5.998   5.308
11058TIP3    H133131   2.040   6.081   5.299
11058TIP3    H233132   2.023   5.931   5.284
11059TIP3   OH233133   7.491   2.267   6.639
11059TIP3    H133134   7.443   2.187   6.618
11059TIP3    H233135   7.497   2.315   6.557
11060TIP3   OH233136   2.314   6.319   0.276
11060TIP3    H133137   2.391   6.344   0.225
11060TIP3    H233138   2.257   6.275   0.213
11061TIP3   OH233139   7.769   7.368   1.335
11061TIP3    H133140   7.759   7.312   1.412
11061TIP3    H233141   7.687   7.417   1.330
11062TIP3   OH233142   6.380   4.821   6.311
11062TIP3    H133143   6.401   4.912   6.331
11062TIP3    H233144   6.423   4.770   6.380
11063TIP3   OH233145   5.294   0.886   0.342
11063TIP3    H133146   5.294   0.982   0.342
11063TIP3    H233147   5.322   0.862   0.430
11064TIP3   OH233148   3.144   6.003   3.988
11064TIP3    H133149   3.135   6.097   3.976
11064TIP3    H233150   3.234   5.984   3.959
11065TIP3   OH233151   4.918   4.529   2.094
11065TIP3    H133152   4.938   4.470   2.022
11065TIP3    H233153   4.947   4.615   2.064
11066TIP3   OH233154   4.945   7.246   6.556
11066TIP3    H133155   4.892   7.319   6.524
11066TIP3    H233156   5.003   7.285   6.621
11067TIP3   OH233157   3.357   2.527   5.644
11067TIP3    H133158   3.280   2.470   5.651
11067TIP3    H233159   3.429   2.466   5.625
11068TIP3   OH233160   8.328   5.224   1.825
11068TIP3    H133161   8.276   5.274   1.763
11068TIP3    H233162   8.266   5.163   1.865
11069TIP3   OH233163   7.334   7.795   0.548
11069TIP3    H133164   7.280   7.742   0.490
11069TIP3    H233165   7.316   7.762   0.636
11070TIP3   OH233166   0.853   5.693   6.209
11070TIP3    H133167   0.855   5.673   6.303
11070TIP3    H233168   0.944   5.682   6.180
11071TIP3   OH233169   7.885   1.850   3.862
11071TIP3    H133170   7.931   1.804   3.932
11071TIP3    H233171   7.954   1.888   3.809
11072TIP3   OH233172   8.225   1.059   3.651
11072TIP3    H133173   8.154   0.995   3.656
11072TIP3    H233174   8.231   1.081   3.558
11073TIP3   OH233175   3.164   1.550   4.315
11073TIP3    H133176   3.078   1.509   4.303
11073TIP3    H233177   3.203   1.550   4.228
11074TIP3   OH233178   6.023   1.086   5.788
11074TIP3    H133179   6.039   1.109   5.696
11074TIP3    H233180   6.027   0.990   5.789
11075TIP3   OH233181   3.049   0.593   2.181
11075TIP3    H133182   2.984   0.631   2.241
11075TIP3    H233183   3.010   0.603   2.094
11076TIP3   OH233184   1.997   6.472   5.114
11076TIP3    H133185   1.971   6.490   5.023
11076TIP3    H233186   1.919   6.433   5.153
11077TIP3   OH233187   5.979   6.115   0.460
11077TIP3    H133188   6.036   6.053   0.505
11077TIP3    H233189   6.034   6.149   0.389
11078TIP3   OH233190   0.264   7.521   5.464
11078TIP3    H133191   0.234   7.557   5.381
11078TIP3    H233192   0.208   7.445   5.479
11079TIP3   OH233193   6.360   6.336   3.095
11079TIP3    H133194   6.453   6.315   3.088
11079TIP3    H233195   6.321   6.259   3.137
11080TIP3   OH233196   7.005   3.607   4.704
11080TIP3    H133197   7.070   3.541   4.730
11080TIP3    H233198   6.934   3.556   4.666
11081TIP3   OH233199   1.071   5.402   2.306
11081TIP3    H133200   1.070   5.462   2.380
11081TIP3    H233201   1.087   5.316   2.345
11082TIP3   OH233202   5.965   2.879   2.293
11082TIP3    H133203   5.884   2.908   2.333
11082TIP3    H233204   5.970   2.786   2.311
11083TIP3   OH233205   2.577   6.075   5.048
11083TIP3    H133206   2.599   5.982   5.056
11083TIP3    H233207   2.489   6.082   5.087
11084TIP3   OH233208   7.783   2.574   1.670
11084TIP3    H133209   7.714   2.581   1.736
11084TIP3    H233210   7.864   2.588   1.719
11085TIP3   OH233211   6.311   6.729   1.699
11085TIP3    H133212   6.256   6.660   1.661
11085TIP3    H233213   6.253   6.774   1.761
11086TIP3   OH233214   6.107   2.532   1.743
11086TIP3    H133215   6.064   2.541   1.658
11086TIP3    H233216   6.178   2.596   1.742
11087TIP3   OH233217   5.301   5.931   5.043
11087TIP3    H133218   5.218   5.961   5.006
11087TIP3    H233219   5.343   6.010   5.076
11088TIP3   OH233220   1.934   6.747   4.235
11088TIP3    H133221   1.901   6.772   4.322
11088TIP3    H233222   1.958   6.830   4.194
11089TIP3   OH233223   6.965   3.416   1.654
11089TIP3    H133224   6.871   3.431   1.651
11089TIP3    H233225   6.985   3.406   1.747
11090TIP3   OH233226   3.252   0.681   0.918
11090TIP3    H133227   3.315   0.661   0.988
11090TIP3    H233228   3.270   0.615   0.851
11091TIP3   OH233229   6.480   4.551   2.499
11091TIP3    H133230   6.513   4.548   2.409
11091TIP3    H233231   6.479   4.460   2.527
11092TIP3   OH233232   2.262   2.078   4.700
11092TIP3    H133233   2.209   2.131   4.760
11092TIP3    H233234   2.297   2.008   4.755
11093TIP3   OH233235   1.363   4.389   5.905
11093TIP3    H133236   1.313   4.454   5.855
11093TIP3    H233237   1.454   4.405   5.880
11094TIP3   OH233238   4.159   3.901   5.683
11094TIP3    H133239   4.108   3.921   5.761
11094TIP3    H233240   4.217   3.976   5.671
11095TIP3   OH233241   3.736   2.379   4.535
11095TIP3    H133242   3.678   2.453   4.554
11095TIP3    H233243   3.805   2.417   4.480
11096TIP3   OH233244   6.294   5.232   2.685
11096TIP3    H133245   6.386   5.206   2.685
11096TIP3    H233246   6.278   5.269   2.772
11097TIP3   OH233247   0.855   0.300   1.616
11097TIP3    H133248   0.787   0.358   1.652
11097TIP3    H233249   0.903   0.355   1.555
11098TIP3   OH233250   6.760   6.312   5.768
11098TIP3    H133251   6.790   6.306   5.858
11098TIP3    H233252   6.827   6.267   5.717
11099TIP3   OH233253   6.608   2.625   1.910
11099TIP3    H133254   6.571   2.709   1.884
11099TIP3    H233255   6.613   2.575   1.828
11100TIP3   OH233256   6.482   5.619   6.702
11100TIP3    H133257   6.444   5.532   6.713
11100TIP3    H233258   6.408   5.679   6.713
11101TIP3   OH233259   7.854   2.433   2.801
11101TIP3    H133260   7.793   2.498   2.836
11101TIP3    H233261   7.844   2.358   2.859
11102TIP3   OH233262   0.765   1.578   4.057
11102TIP3    H133263   0.791   1.642   3.990
11102TIP3    H233264   0.757   1.496   4.010
11103TIP3   OH233265   6.697   0.928   2.280
11103TIP3    H133266   6.681   0.961   2.191
11103TIP3    H233267   6.617   0.879   2.302
11104TIP3   OH233268   3.557   5.245   6.409
11104TIP3    H133269   3.475   5.244   6.459
11104TIP3    H233270   3.596   5.330   6.428
11105TIP3   OH233271   5.903   7.844   3.743
11105TIP3    H133272   5.974   7.846   3.678
11105TIP3    H233273   5.892   7.751   3.763
11106TIP3   OH233274   6.537   5.719   5.899
11106TIP3    H133275   6.480   5.737   5.973
11106TIP3    H233276   6.600   5.655   5.933
11107TIP3   OH233277   5.651   2.882   5.592
11107TIP3    H133278   5.717   2.949   5.607
11107TIP3    H233279   5.698   2.812   5.546
11108TIP3   OH233280   7.264   1.190   6.102
11108TIP3    H133281   7.348   1.180   6.146
11108TIP3    H233282   7.216   1.110   6.121
11109TIP3   OH233283   7.761   7.483   4.867
11109TIP3    H133284   7.783   7.568   4.829
11109TIP3    H233285   7.676   7.462   4.830
11110TIP3   OH233286   6.322   0.658   2.509
11110TIP3    H133287   6.316   0.594   2.439
11110TIP3    H233288   6.375   0.729   2.472
11111TIP3   OH233289   6.449   1.433   3.625
11111TIP3    H133290   6.469   1.509   3.680
11111TIP3    H233291   6.401   1.373   3.682
11112TIP3   OH233292   1.364   2.200   2.775
11112TIP3    H133293   1.287   2.241   2.815
11112TIP3    H233294   1.420   2.176   2.849
11113TIP3   OH233295   4.302   1.746   5.487
11113TIP3    H133296   4.256   1.731   5.570
11113TIP3    H233297   4.243   1.710   5.420
11114TIP3   OH233298   0.588   5.092   6.395
11114TIP3    H133299   0.495   5.106   6.377
11114TIP3    H233300   0.596   4.997   6.405
11115TIP3   OH233301   0.373   0.205   0.399
11115TIP3    H133302   0.320   0.137   0.441
11115TIP3    H233303   0.319   0.283   0.402
11116TIP3   OH233304   5.958   1.044   3.283
11116TIP3    H133305   5.995   1.031   3.196
11116TIP3    H233306   6.035   1.053   3.340
11117TIP3   OH233307   4.890   3.201   1.941
11117TIP3    H133308   4.914   3.276   1.887
11117TIP3    H233309   4.829   3.237   2.006
11118TIP3   OH233310   8.199   2.940   5.860
11118TIP3    H133311   8.206   2.983   5.944
11118TIP3    H233312   8.172   3.008   5.799
11119TIP3   OH233313   7.804   2.270   1.964
11119TIP3    H133314   7.809   2.176   1.982
11119TIP3    H233315   7.730   2.301   2.016
11120TIP3   OH233316   4.191   3.777   2.342
11120TIP3    H133317   4.243   3.794   2.421
11120TIP3    H233318   4.110   3.826   2.356
11121TIP3   OH233319   5.824   0.120   5.319
11121TIP3    H133320   5.835   0.214   5.303
11121TIP3    H233321   5.909   0.082   5.297
11122TIP3   OH233322   3.733   1.110   0.038
11122TIP3    H133323   3.723   1.077   0.127
11122TIP3    H233324   3.807   1.170   0.042
11123TIP3   OH233325   6.860   2.887   2.910
11123TIP3    H133326   6.946   2.922   2.883
11123TIP3    H233327   6.858   2.798   2.874
11124TIP3   OH233328   2.048   3.949   0.158
11124TIP3    H133329   2.001   3.964   0.076
11124TIP3    H233330   2.108   3.877   0.139
11125TIP3   OH233331   5.182   7.383   6.386
11125TIP3    H133332   5.203   7.299   6.426
11125TIP3    H233333   5.259   7.405   6.333
11126TIP3   OH233334   8.176   4.360   1.964
11126TIP3    H133335   8.115   4.433   1.977
11126TIP3    H233336   8.119   4.284   1.951
11127TIP3   OH233337   1.287   6.246   2.382
11127TIP3    H133338   1.195   6.269   2.396
11127TIP3    H233339   1.334   6.328   2.399
11128TIP3   OH233340   7.984   3.954   5.657
11128TIP3    H133341   8.064   3.902   5.664
11128TIP3    H233342   7.957   3.945   5.566
11129TIP3   OH233343   7.538   0.286   1.914
11129TIP3    H133344   7.539   0.318   1.823
11129TIP3    H233345   7.623   0.314   1.949
11130TIP3   OH233346   3.063   1.291   0.647
11130TIP3    H133347   3.023   1.345   0.716
11130TIP3    H233348   3.140   1.341   0.619
11131TIP3   OH233349   5.200   1.234   1.938
11131TIP3    H133350   5.250   1.153   1.929
11131TIP3    H233351   5.263   1.304   1.921
11132TIP3   OH233352   6.951   3.392   0.463
11132TIP3    H133353   6.885   3.355   0.522
11132TIP3    H233354   6.905   3.403   0.379
11133TIP3   OH233355   2.793   4.268   0.546
11133TIP3    H133356   2.885   4.288   0.531
11133TIP3    H233357   2.793   4.198   0.610
11134TIP3   OH233358   1.391   4.141   3.828
11134TIP3    H133359   1.311   4.177   3.789
11134TIP3    H233360   1.450   4.130   3.754
11135TIP3   OH233361   4.453   4.282   6.199
11135TIP3    H133362   4.399   4.214   6.157
11135TIP3    H233363   4.523   4.298   6.136
11136TIP3   OH233364   4.217   4.466   1.060
11136TIP3    H133365   4.186   4.430   0.977
11136TIP3    H233366   4.137   4.486   1.108
11137TIP3   OH233367   7.966   1.926   3.244
11137TIP3    H133368   7.886   1.881   3.273
11137TIP3    H233369   7.988   1.884   3.161
11138TIP3   OH233370   3.336   1.422   2.838
11138TIP3    H133371   3.406   1.421   2.902
11138TIP3    H233372   3.260   1.388   2.885
11139TIP3   OH233373   0.078   2.678   4.704
11139TIP3    H133374   0.066   2.737   4.630
11139TIP3    H233375  -0.008   2.639   4.718
11140TIP3   OH233376   1.888   5.799   4.853
11140TIP3    H133377   1.846   5.870   4.805
11140TIP3    H233378   1.817   5.754   4.899
11141TIP3   OH233379   4.052   7.770   0.332
11141TIP3    H133380   4.077   7.850   0.284
11141TIP3    H233381   4.011   7.714   0.265
11142TIP3   OH233382   5.480   0.280   2.930
11142TIP3    H133383   5.529   0.266   3.011
11142TIP3    H233384   5.493   0.373   2.909
11143TIP3   OH233385   7.026   3.766   5.322
11143TIP3    H133386   6.974   3.835   5.364
11143TIP3    H233387   6.961   3.704   5.290
11144TIP3   OH233388   0.564   5.090   2.946
11144TIP3    H133389   0.497   5.045   2.895
11144TIP3    H233390   0.628   5.023   2.967
11145TIP3   OH233391   6.701   2.334   1.224
11145TIP3    H133392   6.758   2.353   1.150
11145TIP3    H233393   6.626   2.393   1.212
11146TIP3   OH233394   5.524   1.738   1.930
11146TIP3    H133395   5.616   1.713   1.935
11146TIP3    H233396   5.481   1.683   1.996
11147TIP3   OH233397   4.315   5.797   6.462
11147TIP3    H133398   4.330   5.746   6.542
11147TIP3    H233399   4.222   5.816   6.462
11148TIP3   OH233400   7.557   0.078   3.843
11148TIP3    H133401   7.588   0.053   3.756
11148TIP3    H233402   7.487   0.016   3.863
11149TIP3   OH233403   5.310   1.419   1.010
11149TIP3    H133404   5.381   1.419   1.074
11149TIP3    H233405   5.334   1.351   0.948
11150TIP3   OH233406   2.012   7.457   5.286
11150TIP3    H133407   1.939   7.454   5.224
11150TIP3    H233408   1.978   7.506   5.361
11151TIP3   OH233409   4.171   4.168   5.430
11151TIP3    H133410   4.196   4.165   5.522
11151TIP3    H233411   4.231   4.232   5.391
11152TIP3   OH233412   5.280   7.766   0.257
11152TIP3    H133413   5.274   7.680   0.298
11152TIP3    H233414   5.344   7.814   0.311
11153TIP3   OH233415   3.607   5.141   3.580
11153TIP3    H133416   3.682   5.193   3.609
11153TIP3    H233417   3.605   5.066   3.638
11154TIP3   OH233418   6.758   7.705   0.647
11154TIP3    H133419   6.695   7.672   0.582
11154TIP3    H233420   6.722   7.676   0.731
11155TIP3   OH233421   6.591   7.444   5.696
11155TIP3    H133422   6.623   7.423   5.784
11155TIP3    H233423   6.668   7.433   5.639
11156TIP3   OH233424   4.965   6.595   3.046
11156TIP3    H133425   5.014   6.537   3.103
11156TIP3    H233426   4.970   6.554   2.960
11157TIP3   OH233427   2.414   4.683   1.479
11157TIP3    H133428   2.409   4.712   1.388
11157TIP3    H233429   2.332   4.638   1.495
11158TIP3   OH233430   5.378   3.596   3.375
11158TIP3    H133431   5.454   3.642   3.340
11158TIP3    H233432   5.365   3.633   3.462
11159TIP3   OH233433   3.311   4.762   0.296
11159TIP3    H133434   3.222   4.767   0.260
11159TIP3    H233435   3.300   4.716   0.380
11160TIP3   OH233436   6.041   1.385   5.746
11160TIP3    H133437   6.121   1.333   5.748
11160TIP3    H233438   5.972   1.323   5.772
11161TIP3   OH233439   6.567   6.199   0.273
11161TIP3    H133440   6.629   6.130   0.293
11161TIP3    H233441   6.609   6.250   0.203
11162TIP3   OH233442   1.839   1.256   6.168
11162TIP3    H133443   1.909   1.193   6.188
11162TIP3    H233444   1.883   1.323   6.115
11163TIP3   OH233445   2.433   0.918   2.374
11163TIP3    H133446   2.362   0.896   2.435
11163TIP3    H233447   2.468   0.834   2.347
11164TIP3   OH233448   5.033   6.261   1.956
11164TIP3    H133449   5.021   6.356   1.948
11164TIP3    H233450   4.988   6.226   1.879
11165TIP3   OH233451   6.737   6.456   1.859
11165TIP3    H133452   6.670   6.509   1.815
11165TIP3    H233453   6.720   6.468   1.952
11166TIP3   OH233454   6.376   1.982   0.212
11166TIP3    H133455   6.385   2.034   0.292
11166TIP3    H233456   6.436   2.022   0.150
11167TIP3   OH233457   6.645   3.694   2.757
11167TIP3    H133458   6.731   3.651   2.756
11167TIP3    H233459   6.666   3.787   2.756
11168TIP3   OH233460   2.663   2.732   0.151
11168TIP3    H133461   2.577   2.702   0.123
11168TIP3    H233462   2.661   2.726   0.247
11169TIP3   OH233463   4.567   5.286   1.796
11169TIP3    H133464   4.479   5.307   1.827
11169TIP3    H233465   4.618   5.271   1.875
11170TIP3   OH233466   4.108   5.805   5.801
11170TIP3    H133467   4.021   5.780   5.771
11170TIP3    H233468   4.099   5.810   5.897
11171TIP3   OH233469   3.277   6.497   1.208
11171TIP3    H133470   3.225   6.511   1.287
11171TIP3    H233471   3.294   6.585   1.174
11172TIP3   OH233472   8.312   6.640   5.049
11172TIP3    H133473   8.347   6.554   5.069
11172TIP3    H233474   8.224   6.623   5.014
11173TIP3   OH233475   7.007   0.371   4.234
11173TIP3    H133476   6.979   0.388   4.144
11173TIP3    H233477   6.982   0.280   4.251
11174TIP3   OH233478   2.008   6.713   2.938
11174TIP3    H133479   1.963   6.663   3.005
11174TIP3    H233480   2.074   6.653   2.903
11175TIP3   OH233481   8.284   0.253   2.341
11175TIP3    H133482   8.217   0.321   2.340
11175TIP3    H233483   8.297   0.234   2.434
11176TIP3   OH233484   1.392   3.195   3.454
11176TIP3    H133485   1.401   3.196   3.358
11176TIP3    H233486   1.443   3.271   3.483
11177TIP3   OH233487   2.673   0.014   5.572
11177TIP3    H133488   2.747   0.050   5.622
11177TIP3    H233489   2.646   0.086   5.515
11178TIP3   OH233490   4.191   4.395   2.132
11178TIP3    H133491   4.128   4.440   2.075
11178TIP3    H233492   4.155   4.308   2.145
11179TIP3   OH233493   6.072   6.104   5.777
11179TIP3    H133494   6.120   6.085   5.857
11179TIP3    H233495   5.980   6.099   5.802
11180TIP3   OH233496   4.791   0.441   1.604
11180TIP3    H133497   4.704   0.480   1.602
11180TIP3    H233498   4.775   0.347   1.598
11181TIP3   OH233499   4.498   2.612   2.041
11181TIP3    H133500   4.468   2.554   1.971
11181TIP3    H233501   4.568   2.664   2.001
11182TIP3   OH233502   0.311   5.098   5.229
11182TIP3    H133503   0.281   5.097   5.138
11182TIP3    H233504   0.257   5.033   5.273
11183TIP3   OH233505   3.594   3.316   5.638
11183TIP3    H133506   3.505   3.339   5.663
11183TIP3    H233507   3.603   3.223   5.662
11184TIP3   OH233508   0.281   0.876   1.305
11184TIP3    H133509   0.252   0.966   1.293
11184TIP3    H233510   0.234   0.827   1.238
11185TIP3   OH233511   4.670   4.693   2.136
11185TIP3    H133512   4.613   4.644   2.196
11185TIP3    H233513   4.755   4.649   2.144
11186TIP3   OH233514   5.817   0.675   4.327
11186TIP3    H133515   5.904   0.712   4.316
11186TIP3    H233516   5.829   0.581   4.317
11187TIP3   OH233517   2.562   7.559   5.078
11187TIP3    H133518   2.569   7.618   5.153
11187TIP3    H233519   2.643   7.573   5.029
11188TIP3   OH233520   6.786   0.410   4.842
11188TIP3    H133521   6.737   0.492   4.839
11188TIP3    H233522   6.842   0.412   4.764
11189TIP3   OH233523   0.074   7.352   6.013
11189TIP3    H133524   0.028   7.421   5.965
11189TIP3    H233525   0.072   7.276   5.954
11190TIP3   OH233526   3.605   0.801   3.493
11190TIP3    H133527   3.672   0.779   3.428
11190TIP3    H233528   3.648   0.862   3.552
11191TIP3   OH233529   7.904   3.609   2.360
11191TIP3    H133530   7.877   3.654   2.441
11191TIP3    H233531   7.988   3.569   2.382
11192TIP3   OH233532   3.645   3.772   5.070
11192TIP3    H133533   3.710   3.835   5.104
11192TIP3    H233534   3.568   3.785   5.125
11193TIP3   OH233535   4.365   4.615   6.099
11193TIP3    H133536   4.414   4.539   6.132
11193TIP3    H233537   4.321   4.583   6.021
11194TIP3   OH233538   4.534   2.426   0.502
11194TIP3    H133539   4.594   2.362   0.464
11194TIP3    H233540   4.494   2.381   0.576
11195TIP3   OH233541   2.490   6.132   6.068
11195TIP3    H133542   2.484   6.200   6.001
11195TIP3    H233543   2.552   6.167   6.132
11196TIP3   OH233544   2.022   1.044   6.247
11196TIP3    H133545   2.024   0.994   6.166
11196TIP3    H233546   2.114   1.057   6.269
11197TIP3   OH233547   4.776   1.929   2.164
11197TIP3    H133548   4.728   1.932   2.081
11197TIP3    H233549   4.847   1.866   2.148
11198TIP3   OH233550   2.309   4.374   3.088
11198TIP3    H133551   2.324   4.450   3.032
11198TIP3    H233552   2.215   4.375   3.105
11199TIP3   OH233553   5.005   6.452   5.147
11199TIP3    H133554   5.013   6.546   5.162
11199TIP3    H233555   4.912   6.434   5.161
11200TIP3   OH233556   6.080   5.121   1.829
11200TIP3    H133557   6.168   5.158   1.839
11200TIP3    H233558   6.094   5.026   1.831
11201TIP3   OH233559   8.240   5.702   4.889
11201TIP3    H133560   8.204   5.683   4.976
11201TIP3    H233561   8.334   5.704   4.902
11202TIP3   OH233562   8.192   5.353   6.533
11202TIP3    H133563   8.162   5.441   6.558
11202TIP3    H233564   8.144   5.294   6.591
11203TIP3   OH233565   5.670   1.378   6.254
11203TIP3    H133566   5.711   1.296   6.227
11203TIP3    H233567   5.616   1.354   6.330
11204TIP3   OH233568   4.326   6.417   3.635
11204TIP3    H133569   4.409   6.431   3.588
11204TIP3    H233570   4.337   6.333   3.679
11205TIP3   OH233571   1.577   0.539   0.936
11205TIP3    H133572   1.553   0.574   0.850
11205TIP3    H233573   1.544   0.449   0.935
11206TIP3   OH233574   0.453   3.133   2.493
11206TIP3    H133575   0.472   3.082   2.572
11206TIP3    H233576   0.476   3.223   2.516
11207TIP3   OH233577   1.327   1.695   5.486
11207TIP3    H133578   1.292   1.769   5.536
11207TIP3    H233579   1.422   1.707   5.489
11208TIP3   OH233580   6.730   7.532   5.430
11208TIP3    H133581   6.745   7.604   5.368
11208TIP3    H233582   6.751   7.570   5.515
11209TIP3   OH233583   6.155   2.925   4.991
11209TIP3    H133584   6.075   2.927   4.938
11209TIP3    H233585   6.200   3.006   4.970
11210TIP3   OH233586   5.718   1.483   2.603
11210TIP3    H133587   5.643   1.478   2.544
11210TIP3    H233588   5.685   1.528   2.681
11211TIP3   OH233589   7.827   7.485   6.227
11211TIP3    H133590   7.871   7.561   6.264
11211TIP3    H233591   7.838   7.416   6.292
11212TIP3   OH233592   0.078   1.652   2.412
11212TIP3    H133593   0.068   1.591   2.484
11212TIP3    H233594   0.009   1.628   2.351
11213TIP3   OH233595   3.746   2.942   1.851
11213TIP3    H133596   3.710   2.938   1.763
11213TIP3    H233597   3.673   2.917   1.908
11214TIP3   OH233598   2.954   3.949   0.977
11214TIP3    H133599   2.996   3.878   1.026
11214TIP3    H233600   2.861   3.929   0.982
11215TIP3   OH233601   7.168   6.958   5.396
11215TIP3    H133602   7.252   6.941   5.354
11215TIP3    H233603   7.190   7.002   5.478
11216TIP3   OH233604   1.321   3.584   6.130
11216TIP3    H133605   1.293   3.662   6.178
11216TIP3    H233606   1.384   3.616   6.066
11217TIP3   OH233607   2.901   2.126   4.357
11217TIP3    H133608   2.850   2.175   4.421
11217TIP3    H233609   2.853   2.138   4.275
11218TIP3   OH233610   5.852   4.872   1.646
11218TIP3    H133611   5.771   4.843   1.604
11218TIP3    H233612   5.876   4.952   1.600
11219TIP3   OH233613   5.381   6.599   3.799
11219TIP3    H133614   5.353   6.513   3.768
11219TIP3    H233615   5.393   6.650   3.718
11220TIP3   OH233616   2.055   7.077   1.227
11220TIP3    H133617   2.127   7.019   1.203
11220TIP3    H233618   2.098   7.152   1.268
11221TIP3   OH233619   5.766   6.656   0.419
11221TIP3    H133620   5.772   6.750   0.404
11221TIP3    H233621   5.837   6.636   0.479
11222TIP3   OH233622   6.376   3.052   0.864
11222TIP3    H133623   6.465   3.063   0.898
11222TIP3    H233624   6.376   2.965   0.824
11223TIP3   OH233625   6.025   4.621   2.240
11223TIP3    H133626   6.033   4.652   2.330
11223TIP3    H233627   6.027   4.701   2.187
11224TIP3   OH233628   7.122   7.669   1.488
11224TIP3    H133629   7.122   7.627   1.402
11224TIP3    H233630   7.031   7.693   1.503
11225TIP3   OH233631   1.722   0.654   2.206
11225TIP3    H133632   1.693   0.739   2.172
11225TIP3    H233633   1.708   0.593   2.133
11226TIP3   OH233634   7.772   4.340   5.408
11226TIP3    H133635   7.702   4.402   5.384
11226TIP3    H233636   7.737   4.254   5.385
11227TIP3   OH233637   1.894   3.108   1.503
11227TIP3    H133638   1.984   3.113   1.470
11227TIP3    H233639   1.886   3.181   1.564
11228TIP3   OH233640   7.308   3.982   1.085
11228TIP3    H133641   7.307   3.933   1.167
11228TIP3    H233642   7.232   4.041   1.091
11229TIP3   OH233643   1.352   0.753   3.715
11229TIP3    H133644   1.438   0.793   3.705
11229TIP3    H233645   1.364   0.686   3.782
11230TIP3   OH233646   0.556   5.375   1.194
11230TIP3    H133647   0.531   5.467   1.193
11230TIP3    H233648   0.645   5.374   1.229
11231TIP3   OH233649   3.379   5.319   4.672
11231TIP3    H133650   3.291   5.288   4.651
11231TIP3    H233651   3.434   5.242   4.663
11232TIP3   OH233652   6.614   5.442   1.933
11232TIP3    H133653   6.584   5.366   1.982
11232TIP3    H233654   6.688   5.476   1.984
11233TIP3   OH233655   5.250   5.860   1.062
11233TIP3    H133656   5.189   5.859   0.988
11233TIP3    H233657   5.293   5.774   1.059
11234TIP3   OH233658   6.581   4.538   2.226
11234TIP3    H133659   6.661   4.488   2.241
11234TIP3    H233660   6.595   4.583   2.143
11235TIP3   OH233661   2.003   2.453   2.131
11235TIP3    H133662   2.075   2.514   2.149
11235TIP3    H233663   2.035   2.400   2.058
11236TIP3   OH233664   1.670   0.031   5.777
11236TIP3    H133665   1.752  -0.012   5.802
11236TIP3    H233666   1.618   0.032   5.857
11237TIP3   OH233667   0.925   7.444   5.470
11237TIP3    H133668   0.838   7.484   5.465
11237TIP3    H233669   0.973   7.483   5.397
11238TIP3   OH233670   3.127   5.728   2.892
11238TIP3    H133671   3.213   5.687   2.887
11238TIP3    H233672   3.088   5.713   2.806
11239TIP3   OH233673   6.836   2.684   0.172
11239TIP3    H133674   6.856   2.777   0.160
11239TIP3    H233675   6.745   2.683   0.201
11240TIP3   OH233676   1.942   0.702   0.927
11240TIP3    H133677   1.915   0.791   0.906
11240TIP3    H233678   1.906   0.686   1.014
11241TIP3   OH233679   0.824   7.258   3.554
11241TIP3    H133680   0.783   7.173   3.566
11241TIP3    H233681   0.908   7.251   3.599
11242TIP3   OH233682   6.676   2.188   5.936
11242TIP3    H133683   6.583   2.185   5.961
11242TIP3    H233684   6.701   2.279   5.949
11243TIP3   OH233685   3.467   1.756   2.255
11243TIP3    H133686   3.507   1.688   2.310
11243TIP3    H233687   3.538   1.786   2.199
11244TIP3   OH233688   2.850   4.145   0.101
11244TIP3    H133689   2.876   4.234   0.075
11244TIP3    H233690   2.797   4.158   0.179
11245TIP3   OH233691   3.917   1.390   2.274
11245TIP3    H133692   3.848   1.371   2.337
11245TIP3    H233693   3.924   1.310   2.222
11246TIP3   OH233694   7.529   6.084   0.455
11246TIP3    H133695   7.477   6.163   0.439
11246TIP3    H233696   7.475   6.030   0.512
11247TIP3   OH233697   1.547   6.857   1.256
11247TIP3    H133698   1.554   6.789   1.323
11247TIP3    H233699   1.615   6.920   1.279
11248TIP3   OH233700   5.137   3.323   0.739
11248TIP3    H133701   5.197   3.397   0.730
11248TIP3    H233702   5.072   3.352   0.804
11249TIP3   OH233703   4.234   4.674   4.618
11249TIP3    H133704   4.288   4.595   4.616
11249TIP3    H233705   4.297   4.746   4.619
11250TIP3   OH233706   2.456   1.759   0.325
11250TIP3    H133707   2.474   1.733   0.415
11250TIP3    H233708   2.425   1.850   0.333
11251TIP3   OH233709   2.768   5.336   4.187
11251TIP3    H133710   2.791   5.290   4.106
11251TIP3    H233711   2.783   5.428   4.167
11252TIP3   OH233712   3.830   6.297   4.215
11252TIP3    H133713   3.746   6.251   4.212
11252TIP3    H233714   3.832   6.348   4.134
11253TIP3   OH233715   5.137   4.046   1.129
11253TIP3    H133716   5.178   4.128   1.158
11253TIP3    H233717   5.211   3.986   1.116
11254TIP3   OH233718   4.877   1.408   0.615
11254TIP3    H133719   4.962   1.384   0.651
11254TIP3    H233720   4.813   1.364   0.671
11255TIP3   OH233721   1.033   5.279   1.127
11255TIP3    H133722   1.118   5.295   1.167
11255TIP3    H233723   1.054   5.238   1.042
11256TIP3   OH233724   4.512   2.932   3.886
11256TIP3    H133725   4.458   2.886   3.949
11256TIP3    H233726   4.484   2.899   3.801
11257TIP3   OH233727   1.770   3.780   3.649
11257TIP3    H133728   1.753   3.765   3.556
11257TIP3    H233729   1.849   3.833   3.651
11258TIP3   OH233730   3.667   3.784   3.825
11258TIP3    H133731   3.731   3.736   3.772
11258TIP3    H233732   3.716   3.861   3.857
11259TIP3   OH233733   0.397   1.230   3.195
11259TIP3    H133734   0.337   1.167   3.156
11259TIP3    H233735   0.341   1.295   3.237
11260TIP3   OH233736   1.266   5.341   2.736
11260TIP3    H133737   1.171   5.352   2.745
11260TIP3    H233738   1.300   5.430   2.737
11261TIP3   OH233739   0.894   2.490   6.134
11261TIP3    H133740   0.899   2.564   6.073
11261TIP3    H233741   0.802   2.464   6.132
11262TIP3   OH233742   2.852   6.121   6.555
11262TIP3    H133743   2.908   6.196   6.536
11262TIP3    H233744   2.847   6.074   6.472
11263TIP3   OH233745   1.505   2.331   5.486
11263TIP3    H133746   1.419   2.368   5.508
11263TIP3    H233747   1.518   2.353   5.394
11264TIP3   OH233748   6.346   7.547   1.194
11264TIP3    H133749   6.424   7.503   1.229
11264TIP3    H233750   6.382   7.617   1.139
11265TIP3   OH233751   6.610   0.147   1.783
11265TIP3    H133752   6.573   0.157   1.871
11265TIP3    H233753   6.640   0.235   1.760
11266TIP3   OH233754   5.362   0.820   0.603
11266TIP3    H133755   5.299   0.877   0.647
11266TIP3    H233756   5.447   0.852   0.633
11267TIP3   OH233757   5.414   7.477   0.519
11267TIP3    H133758   5.427   7.432   0.435
11267TIP3    H233759   5.324   7.455   0.544
11268TIP3   OH233760   1.708   2.526   5.073
11268TIP3    H133761   1.758   2.584   5.017
11268TIP3    H233762   1.678   2.456   5.014
11269TIP3   OH233763   6.870   2.810   0.702
11269TIP3    H133764   6.864   2.746   0.773
11269TIP3    H233765   6.955   2.851   0.714
11270TIP3   OH233766   2.863   4.656   4.962
11270TIP3    H133767   2.835   4.580   5.013
11270TIP3    H233768   2.782   4.696   4.932
11271TIP3   OH233769   4.144   1.941   4.302
11271TIP3    H133770   4.133   2.022   4.351
11271TIP3    H233771   4.099   1.958   4.219
11272TIP3   OH233772   5.946   5.030   2.806
11272TIP3    H133773   5.983   5.064   2.724
11272TIP3    H233774   5.856   5.063   2.807
11273TIP3   OH233775   6.235   1.929   4.728
11273TIP3    H133776   6.294   1.950   4.656
11273TIP3    H233777   6.201   1.842   4.706
11274TIP3   OH233778   6.256   5.648   3.031
11274TIP3    H133779   6.308   5.652   2.951
11274TIP3    H233780   6.205   5.729   3.030
11275TIP3   OH233781   6.545   4.700   2.705
11275TIP3    H133782   6.537   4.660   2.618
11275TIP3    H233783   6.640   4.707   2.719
11276TIP3   OH233784   4.414   3.963   3.131
11276TIP3    H133785   4.498   4.007   3.142
11276TIP3    H233786   4.366   3.980   3.212
11277TIP3   OH233787   1.405   1.257   0.711
11277TIP3    H133788   1.373   1.253   0.801
11277TIP3    H233789   1.359   1.187   0.665
11278TIP3   OH233790   7.925   4.911   1.815
11278TIP3    H133791   7.943   4.818   1.804
11278TIP3    H233792   7.888   4.919   1.903
11279TIP3   OH233793   1.334   7.466   5.678
11279TIP3    H133794   1.348   7.377   5.711
11279TIP3    H233795   1.359   7.523   5.751
11280TIP3   OH233796   8.166   5.138   5.880
11280TIP3    H133797   8.134   5.049   5.892
11280TIP3    H233798   8.089   5.190   5.859
11281TIP3   OH233799   0.074   5.258   1.220
11281TIP3    H133800   0.050   5.207   1.297
11281TIP3    H233801   0.168   5.273   1.230
11282TIP3   OH233802   2.515   5.309   4.322
11282TIP3    H133803   2.507   5.378   4.387
11282TIP3    H233804   2.585   5.339   4.263
11283TIP3   OH233805   4.691   5.740   4.199
11283TIP3    H133806   4.708   5.768   4.289
11283TIP3    H233807   4.686   5.821   4.149
11284TIP3   OH233808   5.282   3.248   4.383
11284TIP3    H133809   5.363   3.224   4.338
11284TIP3    H233810   5.215   3.192   4.342
11285TIP3   OH233811   5.331   1.844   2.280
11285TIP3    H133812   5.286   1.788   2.217
11285TIP3    H233813   5.299   1.932   2.260
11286TIP3   OH233814   1.162   6.836   0.724
11286TIP3    H133815   1.174   6.742   0.739
11286TIP3    H233816   1.130   6.843   0.634
11287TIP3   OH233817   4.214   2.493   4.405
11287TIP3    H133818   4.173   2.563   4.354
11287TIP3    H233819   4.142   2.436   4.430
11288TIP3   OH233820   5.582   4.669   5.921
11288TIP3    H133821   5.518   4.674   5.992
11288TIP3    H233822   5.630   4.752   5.926
11289TIP3   OH233823   0.857   2.666   1.848
11289TIP3    H133824   0.875   2.758   1.862
11289TIP3    H233825   0.857   2.656   1.752
11290TIP3   OH233826   0.512   0.806   2.607
11290TIP3    H133827   0.428   0.776   2.572
11290TIP3    H233828   0.570   0.810   2.531
11291TIP3   OH233829   3.444   6.288   3.024
11291TIP3    H133830   3.363   6.301   2.973
11291TIP3    H233831   3.502   6.240   2.964
11292TIP3   OH233832   3.186   3.071   5.053
11292TIP3    H133833   3.176   3.031   5.139
11292TIP3    H233834   3.240   3.149   5.069
11293TIP3   OH233835   6.973   0.108   5.793
11293TIP3    H133836   7.052   0.132   5.744
11293TIP3    H233837   7.002   0.040   5.853
11294TIP3   OH233838   6.227   1.277   2.500
11294TIP3    H133839   6.316   1.260   2.531
11294TIP3    H233840   6.231   1.365   2.463
11295TIP3   OH233841   4.467   1.895   5.876
11295TIP3    H133842   4.430   1.963   5.820
11295TIP3    H233843   4.432   1.813   5.841
11296TIP3   OH233844   6.782   1.048   0.864
11296TIP3    H133845   6.773   1.142   0.848
11296TIP3    H233846   6.703   1.009   0.825
11297TIP3   OH233847   7.912   2.492   6.226
11297TIP3    H133848   7.912   2.550   6.150
11297TIP3    H233849   7.997   2.507   6.268
11298TIP3   OH233850   4.020   3.313   0.951
11298TIP3    H133851   4.046   3.222   0.942
11298TIP3    H233852   3.930   3.309   0.984
11299TIP3   OH233853   6.552   0.129   3.207
11299TIP3    H133854   6.468   0.088   3.187
11299TIP3    H233855   6.535   0.181   3.285
11300TIP3   OH233856   6.788   7.218   0.248
11300TIP3    H133857   6.827   7.304   0.263
11300TIP3    H233858   6.694   7.234   0.247
11301TIP3   OH233859   4.262   7.383   5.473
11301TIP3    H133860   4.191   7.423   5.423
11301TIP3    H233861   4.324   7.352   5.406
11302TIP3   OH233862   6.688   0.211   1.370
11302TIP3    H133863   6.737   0.207   1.288
11302TIP3    H233864   6.598   0.231   1.343
11303TIP3   OH233865   3.039   3.084   0.868
11303TIP3    H133866   2.986   3.154   0.906
11303TIP3    H233867   3.126   3.122   0.859
11304TIP3   OH233868   1.775   6.392   2.430
11304TIP3    H133869   1.799   6.305   2.399
11304TIP3    H233870   1.822   6.401   2.513
11305TIP3   OH233871   6.667   4.224   1.114
11305TIP3    H133872   6.594   4.163   1.120
11305TIP3    H233873   6.633   4.298   1.064
11306TIP3   OH233874   7.778   0.860   4.395
11306TIP3    H133875   7.734   0.944   4.384
11306TIP3    H233876   7.845   0.876   4.461
11307TIP3   OH233877   2.705   0.459   5.650
11307TIP3    H133878   2.651   0.488   5.577
11307TIP3    H233879   2.701   0.531   5.713
11308TIP3   OH233880   3.257   6.787   5.193
11308TIP3    H133881   3.223   6.754   5.276
11308TIP3    H233882   3.182   6.829   5.151
11309TIP3   OH233883   4.174   6.148   5.966
11309TIP3    H133884   4.264   6.127   5.937
11309TIP3    H233885   4.136   6.196   5.893
11310TIP3   OH233886   2.769   5.478   5.452
11310TIP3    H133887   2.789   5.427   5.531
11310TIP3    H233888   2.674   5.470   5.443
11311TIP3   OH233889   4.156   1.155   0.219
11311TIP3    H133890   4.168   1.241   0.259
11311TIP3    H233891   4.078   1.164   0.165
11312TIP3   OH233892   3.005   3.902   4.955
11312TIP3    H133893   3.069   3.832   4.939
11312TIP3    H233894   2.931   3.859   4.997
11313TIP3   OH233895   2.415   2.012   5.113
11313TIP3    H133896   2.470   2.005   5.191
11313TIP3    H233897   2.449   2.089   5.067
11314TIP3   OH233898   1.757   4.832   6.261
11314TIP3    H133899   1.746   4.863   6.171
11314TIP3    H233900   1.851   4.842   6.279
11315TIP3   OH233901   0.657   2.485   5.516
11315TIP3    H133902   0.714   2.553   5.479
11315TIP3    H233903   0.643   2.512   5.607
11316TIP3   OH233904   7.255   7.534   2.175
11316TIP3    H133905   7.263   7.622   2.137
11316TIP3    H233906   7.279   7.546   2.267
11317TIP3   OH233907   6.513   3.205   5.918
11317TIP3    H133908   6.433   3.153   5.916
11317TIP3    H233909   6.493   3.282   5.866
11318TIP3   OH233910   7.478   1.152   4.974
11318TIP3    H133911   7.457   1.158   5.067
11318TIP3    H233912   7.420   1.085   4.940
11319TIP3   OH233913   5.175   2.421   0.104
11319TIP3    H133914   5.125   2.403   0.184
11319TIP3    H233915   5.149   2.509   0.079
11320TIP3   OH233916   3.015   6.547   0.311
11320TIP3    H133917   2.996   6.458   0.280
11320TIP3    H233918   2.937   6.597   0.288
11321TIP3   OH233919   3.094   2.585   0.882
11321TIP3    H133920   3.157   2.647   0.919
11321TIP3    H233921   3.076   2.619   0.795
11322TIP3   OH233922   7.669   5.293   0.754
11322TIP3    H133923   7.669   5.346   0.833
11322TIP3    H233924   7.607   5.337   0.696
11323TIP3   OH233925   2.003   0.765   4.857
11323TIP3    H133926   1.951   0.839   4.889
11323TIP3    H233927   2.092   0.799   4.850
11324TIP3   OH233928   3.735   2.475   3.835
11324TIP3    H133929   3.699   2.388   3.854
11324TIP3    H233930   3.827   2.460   3.815
11325TIP3   OH233931   0.088   3.244   3.707
11325TIP3    H133932   0.011   3.213   3.755
11325TIP3    H233933   0.094   3.337   3.728
11326TIP3   OH233934   0.843   0.484   2.709
11326TIP3    H133935   0.910   0.441   2.655
11326TIP3    H233936   0.790   0.411   2.743
11327TIP3   OH233937   5.592   4.950   6.673
11327TIP3    H133938   5.661   5.002   6.632
11327TIP3    H233939   5.622   4.860   6.667
11328TIP3   OH233940   8.025   6.768   6.606
11328TIP3    H133941   8.059   6.760   6.517
11328TIP3    H233942   8.102   6.769   6.662
11329TIP3   OH233943   6.675   6.712   2.438
11329TIP3    H133944   6.617   6.660   2.494
11329TIP3    H233945   6.759   6.665   2.440
11330TIP3   OH233946   7.420   3.634   1.881
11330TIP3    H133947   7.463   3.571   1.939
11330TIP3    H233948   7.339   3.656   1.926
11331TIP3   OH233949   5.722   2.108   3.012
11331TIP3    H133950   5.644   2.145   2.972
11331TIP3    H233951   5.790   2.173   2.997
11332TIP3   OH233952   0.496   1.512   6.687
11332TIP3    H133953   0.589   1.523   6.667
11332TIP3    H233954   0.456   1.493   6.602
11333TIP3   OH233955   6.797   7.370   2.608
11333TIP3    H133956   6.844   7.451   2.626
11333TIP3    H233957   6.866   7.304   2.600
11334TIP3   OH233958   3.284   0.966   3.745
11334TIP3    H133959   3.295   0.906   3.671
11334TIP3    H233960   3.306   0.913   3.822
11335TIP3   OH233961   7.105   5.535   0.301
11335TIP3    H133962   7.151   5.589   0.236
11335TIP3    H233963   7.150   5.553   0.383
11336TIP3   OH233964   2.418   2.516   2.201
11336TIP3    H133965   2.403   2.443   2.260
11336TIP3    H233966   2.512   2.513   2.181
11337TIP3   OH233967   3.403   0.959   5.754
11337TIP3    H133968   3.394   0.864   5.748
11337TIP3    H233969   3.459   0.973   5.831
11338TIP3   OH233970   4.818   6.576   5.748
11338TIP3    H133971   4.790   6.554   5.837
11338TIP3    H233972   4.795   6.668   5.738
11339TIP3   OH233973   0.860   5.519   2.143
11339TIP3    H133974   0.927   5.459   2.176
11339TIP3    H233975   0.803   5.464   2.090
11340TIP3   OH233976   7.850   1.572   1.240
11340TIP3    H133977   7.863   1.662   1.207
11340TIP3    H233978   7.851   1.518   1.161
11341TIP3   OH233979   5.736   3.239   4.923
11341TIP3    H133980   5.668   3.216   4.987
11341TIP3    H233981   5.701   3.315   4.877
11342TIP3   OH233982   0.849   5.004   3.281
11342TIP3    H133983   0.837   5.013   3.376
11342TIP3    H233984   0.896   5.084   3.256
11343TIP3   OH233985   2.755   1.080   3.492
11343TIP3    H133986   2.751   1.172   3.515
11343TIP3    H233987   2.778   1.079   3.399
11344TIP3   OH233988   4.498   2.448   4.399
11344TIP3    H133989   4.529   2.449   4.490
11344TIP3    H233990   4.404   2.435   4.406
11345TIP3   OH233991   0.968   0.783   3.985
11345TIP3    H133992   0.978   0.877   3.976
11345TIP3    H233993   1.006   0.747   3.905
11346TIP3   OH233994   7.875   4.603   4.748
11346TIP3    H133995   7.902   4.536   4.811
11346TIP3    H233996   7.859   4.554   4.667
11347TIP3   OH233997   3.972   4.851   0.276
11347TIP3    H133998   3.976   4.926   0.217
11347TIP3    H233999   3.885   4.814   0.261
11348TIP3   OH234000   5.969   5.242   0.269
11348TIP3    H134001   5.909   5.250   0.195
11348TIP3    H234002   5.930   5.174   0.324
11349TIP3   OH234003   6.117   2.867   3.712
11349TIP3    H134004   6.094   2.949   3.757
11349TIP3    H234005   6.178   2.893   3.644
11350TIP3   OH234006   6.769   2.001   1.229
11350TIP3    H134007   6.804   2.017   1.316
11350TIP3    H234008   6.675   2.015   1.237
11351TIP3   OH234009   5.412   0.636   4.143
11351TIP3    H134010   5.440   0.570   4.206
11351TIP3    H234011   5.332   0.672   4.181
11352TIP3   OH234012   8.261   0.789   3.876
11352TIP3    H134013   8.184   0.766   3.928
11352TIP3    H234014   8.282   0.878   3.902
11353TIP3   OH234015   5.808   1.819   3.859
11353TIP3    H134016   5.749   1.768   3.914
11353TIP3    H234017   5.866   1.863   3.921
11354TIP3   OH234018   1.170   6.341   3.772
11354TIP3    H134019   1.262   6.336   3.799
11354TIP3    H234020   1.134   6.256   3.797
11355TIP3   OH234021   7.002   1.438   1.750
11355TIP3    H134022   7.025   1.372   1.815
11355TIP3    H234023   7.024   1.521   1.792
11356TIP3   OH234024   6.630   2.894   2.314
11356TIP3    H134025   6.636   2.898   2.409
11356TIP3    H234026   6.697   2.831   2.288
11357TIP3   OH234027   6.634   5.090   2.308
11357TIP3    H134028   6.668   5.007   2.274
11357TIP3    H234029   6.539   5.078   2.307
11358TIP3   OH234030   1.531   4.134   5.010
11358TIP3    H134031   1.459   4.083   5.049
11358TIP3    H234032   1.510   4.225   5.031
11359TIP3   OH234033   0.353   0.447   5.774
11359TIP3    H134034   0.370   0.494   5.692
11359TIP3    H234035   0.285   0.384   5.751
11360TIP3   OH234036   0.817   6.493   1.554
11360TIP3    H134037   0.838   6.586   1.554
11360TIP3    H234038   0.874   6.455   1.621
11361TIP3   OH234039   6.393   1.650   1.271
11361TIP3    H134040   6.372   1.622   1.360
11361TIP3    H234041   6.428   1.739   1.283
11362TIP3   OH234042   7.849   3.192   5.993
11362TIP3    H134043   7.882   3.190   5.903
11362TIP3    H234044   7.902   3.260   6.036
11363TIP3   OH234045   3.776   4.091   6.162
11363TIP3    H134046   3.684   4.092   6.188
11363TIP3    H234047   3.797   3.999   6.153
11364TIP3   OH234048   5.586   1.936   0.449
11364TIP3    H134049   5.668   1.985   0.454
11364TIP3    H234050   5.521   1.994   0.488
11365TIP3   OH234051   2.455   0.024   3.317
11365TIP3    H134052   2.535   0.043   3.366
11365TIP3    H234053   2.426   0.110   3.286
11366TIP3   OH234054   7.570   2.144   4.440
11366TIP3    H134055   7.578   2.198   4.361
11366TIP3    H234056   7.572   2.206   4.512
11367TIP3   OH234057   1.628   6.168   2.598
11367TIP3    H134058   1.654   6.152   2.507
11367TIP3    H234059   1.711   6.167   2.647
11368TIP3   OH234060   4.079   2.178   4.422
11368TIP3    H134061   4.002   2.179   4.478
11368TIP3    H234062   4.048   2.211   4.338
11369TIP3   OH234063   4.987   4.562   0.865
11369TIP3    H134064   4.966   4.589   0.776
11369TIP3    H234065   4.912   4.510   0.893
11370TIP3   OH234066   1.029   3.877   3.183
11370TIP3    H134067   0.956   3.831   3.140
11370TIP3    H234068   0.987   3.948   3.232
11371TIP3   OH234069   4.037   5.546   2.440
11371TIP3    H134070   4.010   5.564   2.530
11371TIP3    H234071   3.968   5.491   2.404
11372TIP3   OH234072   6.107   4.448   3.660
11372TIP3    H134073   6.102   4.506   3.583
11372TIP3    H234074   6.186   4.477   3.706
11373TIP3   OH234075   7.683   3.656   4.999
11373TIP3    H134076   7.749   3.701   5.052
11373TIP3    H234077   7.647   3.725   4.943
11374TIP3   OH234078   0.800   3.257   1.259
11374TIP3    H134079   0.846   3.221   1.334
11374TIP3    H234080   0.727   3.307   1.296
11375TIP3   OH234081   3.814   0.168   5.421
11375TIP3    H134082   3.769   0.218   5.353
11375TIP3    H234083   3.905   0.197   5.416
11376TIP3   OH234084   1.188   1.421   4.804
11376TIP3    H134085   1.159   1.492   4.746
11376TIP3    H234086   1.129   1.349   4.784
11377TIP3   OH234087   2.219   5.990   3.193
11377TIP3    H134088   2.151   6.010   3.257
11377TIP3    H234089   2.249   5.902   3.217
11378TIP3   OH234090   0.447   6.541   2.466
11378TIP3    H134091   0.518   6.590   2.425
11378TIP3    H234092   0.371   6.599   2.459
11379TIP3   OH234093   4.328   7.330   0.679
11379TIP3    H134094   4.289   7.283   0.752
11379TIP3    H234095   4.384   7.396   0.720
11380TIP3   OH234096   6.077   7.562   1.231
11380TIP3    H134097   6.032   7.508   1.165
11380TIP3    H234098   6.169   7.539   1.222
11381TIP3   OH234099   8.018   3.667   1.800
11381TIP3    H134100   8.062   3.593   1.758
11381TIP3    H234101   8.057   3.672   1.887
11382TIP3   OH234102   2.683   2.996   3.434
11382TIP3    H134103   2.588   3.003   3.446
11382TIP3    H234104   2.718   3.076   3.473
11383TIP3   OH234105   1.053   6.104   3.898
11383TIP3    H134106   1.020   6.118   3.987
11383TIP3    H234107   1.114   6.030   3.907
11384TIP3   OH234108   1.528   5.727   5.319
11384TIP3    H134109   1.544   5.735   5.225
11384TIP3    H234110   1.490   5.640   5.330
11385TIP3   OH234111   4.659   0.543   2.801
11385TIP3    H134112   4.741   0.590   2.815
11385TIP3    H234113   4.686   0.454   2.778
11386TIP3   OH234114   0.945   0.063   0.697
11386TIP3    H134115   0.924   0.135   0.756
11386TIP3    H234116   0.952  -0.014   0.754
11387TIP3   OH234117   1.173   0.600   4.023
11387TIP3    H134118   1.172   0.510   4.057
11387TIP3    H234119   1.081   0.622   4.011
11388TIP3   OH234120   7.676   6.990   0.613
11388TIP3    H134121   7.681   6.967   0.520
11388TIP3    H234122   7.697   6.909   0.658
11389TIP3   OH234123   7.308   1.509   1.111
11389TIP3    H134124   7.234   1.482   1.165
11389TIP3    H234125   7.302   1.454   1.033
11390TIP3   OH234126   3.963   2.565   6.426
11390TIP3    H134127   4.003   2.552   6.341
11390TIP3    H234128   3.973   2.658   6.444
11391TIP3   OH234129   2.006   1.122   4.256
11391TIP3    H134130   2.098   1.146   4.272
11391TIP3    H234131   2.002   1.102   4.163
11392TIP3   OH234132   7.986   1.249   1.205
11392TIP3    H134133   8.077   1.260   1.236
11392TIP3    H234134   7.986   1.289   1.118
11393TIP3   OH234135   1.453   4.921   5.408
11393TIP3    H134136   1.435   5.010   5.379
11393TIP3    H234137   1.543   4.905   5.382
11394TIP3   OH234138   0.232   2.511   3.852
11394TIP3    H134139   0.136   2.510   3.853
11394TIP3    H234140   0.254   2.518   3.759
11395TIP3   OH234141   7.564   4.425   5.687
11395TIP3    H134142   7.511   4.345   5.681
11395TIP3    H234143   7.572   4.455   5.596
11396TIP3   OH234144   6.777   3.680   0.070
11396TIP3    H134145   6.759   3.767   0.106
11396TIP3    H234146   6.782   3.623   0.147
11397TIP3   OH234147   2.793   3.580   0.976
11397TIP3    H134148   2.865   3.627   1.019
11397TIP3    H234149   2.764   3.638   0.905
11398TIP3   OH234150   1.528   5.818   0.906
11398TIP3    H134151   1.616   5.851   0.890
11398TIP3    H234152   1.527   5.799   1.000
11399TIP3   OH234153   4.374   6.006   6.654
11399TIP3    H134154   4.429   5.931   6.677
11399TIP3    H234155   4.342   5.985   6.566
11400TIP3   OH234156   4.020   0.641   5.240
11400TIP3    H134157   4.096   0.593   5.272
11400TIP3    H234158   4.056   0.724   5.208
11401TIP3   OH234159   5.261   7.717   2.651
11401TIP3    H134160   5.235   7.733   2.560
11401TIP3    H234161   5.353   7.693   2.646
11402TIP3   OH234162   5.327   3.448   5.548
11402TIP3    H134163   5.248   3.456   5.603
11402TIP3    H234164   5.293   3.436   5.459
11403TIP3   OH234165   5.110   6.711   1.127
11403TIP3    H134166   5.043   6.780   1.122
11403TIP3    H234167   5.100   6.674   1.214
11404TIP3   OH234168   8.143   1.521   6.420
11404TIP3    H134169   8.179   1.607   6.398
11404TIP3    H234170   8.176   1.463   6.351
11405TIP3   OH234171   2.090   1.967   0.769
11405TIP3    H134172   2.111   1.900   0.704
11405TIP3    H234173   2.164   1.967   0.829
11406TIP3   OH234174   6.103   7.549   1.592
11406TIP3    H134175   6.037   7.510   1.649
11406TIP3    H234176   6.086   7.511   1.505
11407TIP3   OH234177   5.631   1.329   3.872
11407TIP3    H134178   5.713   1.322   3.823
11407TIP3    H234179   5.569   1.368   3.811
11408TIP3   OH234180   5.570   2.602   3.013
11408TIP3    H134181   5.591   2.545   2.939
11408TIP3    H234182   5.653   2.614   3.059
11409TIP3   OH234183   3.640   4.073   5.092
11409TIP3    H134184   3.611   4.164   5.105
11409TIP3    H234185   3.623   4.030   5.176
11410TIP3   OH234186   2.977   0.211   3.514
11410TIP3    H134187   2.969   0.265   3.435
11410TIP3    H234188   2.973   0.121   3.482
11411TIP3   OH234189   5.346   5.784   0.698
11411TIP3    H134190   5.368   5.731   0.775
11411TIP3    H234191   5.325   5.871   0.734
11412TIP3   OH234192   6.819   4.494   5.903
11412TIP3    H134193   6.828   4.570   5.845
11412TIP3    H234194   6.832   4.419   5.845
11413TIP3   OH234195   3.984   1.665   0.274
11413TIP3    H134196   3.927   1.743   0.277
11413TIP3    H234197   4.068   1.696   0.306
11414TIP3   OH234198   3.734   0.189   6.669
11414TIP3    H134199   3.653   0.182   6.619
11414TIP3    H234200   3.759   0.098   6.688
11415TIP3   OH234201   2.358   1.279   5.126
11415TIP3    H134202   2.405   1.341   5.182
11415TIP3    H234203   2.424   1.250   5.063
11416TIP3   OH234204   7.975   1.621   3.591
11416TIP3    H134205   7.981   1.528   3.572
11416TIP3    H234206   8.018   1.664   3.518
11417TIP3   OH234207   2.254   5.895   2.922
11417TIP3    H134208   2.342   5.857   2.921
11417TIP3    H234209   2.237   5.914   3.014
11418TIP3   OH234210   6.072   2.439   0.991
11418TIP3    H134211   6.050   2.525   1.028
11418TIP3    H234212   5.989   2.405   0.958
11419TIP3   OH234213   1.813   0.924   2.890
11419TIP3    H134214   1.756   0.989   2.850
11419TIP3    H234215   1.862   0.886   2.817
11420TIP3   OH234216   1.396   6.574   1.210
11420TIP3    H134217   1.353   6.637   1.152
11420TIP3    H234218   1.413   6.623   1.290
11421TIP3   OH234219   1.814   7.666   4.136
11421TIP3    H134220   1.792   7.705   4.051
11421TIP3    H234221   1.843   7.741   4.189
11422TIP3   OH234222   2.407   7.735   6.230
11422TIP3    H134223   2.467   7.809   6.225
11422TIP3    H234224   2.393   7.708   6.140
11423TIP3   OH234225   5.019   2.332   0.334
11423TIP3    H134226   4.936   2.378   0.322
11423TIP3    H234227   5.001   2.242   0.309
11424TIP3   OH234228   2.877   6.771   0.789
11424TIP3    H134229   2.821   6.817   0.851
11424TIP3    H234230   2.944   6.730   0.843
11425TIP3   OH234231  -0.015   2.544   5.378
11425TIP3    H134232  -0.079   2.610   5.350
11425TIP3    H234233   0.008   2.497   5.298
11426TIP3   OH234234   7.167   6.618   3.186
11426TIP3    H134235   7.084   6.664   3.174
11426TIP3    H234236   7.199   6.603   3.097
11427TIP3   OH234237   8.088   3.665   0.039
11427TIP3    H134238   8.095   3.570   0.049
11427TIP3    H234239   8.001   3.687   0.073
11428TIP3   OH234240   4.103   2.236   3.275
11428TIP3    H134241   4.081   2.192   3.193
11428TIP3    H234242   4.171   2.181   3.315
11429TIP3   OH234243   2.889   1.074   4.863
11429TIP3    H134244   2.828   1.099   4.933
11429TIP3    H234245   2.971   1.056   4.909
11430TIP3   OH234246   6.135   4.696   5.349
11430TIP3    H134247   6.168   4.636   5.417
11430TIP3    H234248   6.213   4.740   5.316
11431TIP3   OH234249   0.221   7.177   0.737
11431TIP3    H134250   0.126   7.181   0.731
11431TIP3    H234251   0.239   7.105   0.797
11432TIP3   OH234252   2.878   5.217   0.509
11432TIP3    H134253   2.905   5.302   0.476
11432TIP3    H234254   2.955   5.161   0.497
11433TIP3   OH234255   7.296   5.692   0.772
11433TIP3    H134256   7.256   5.732   0.695
11433TIP3    H234257   7.256   5.737   0.846
11434TIP3   OH234258   0.725   6.246   0.020
11434TIP3    H134259   0.710   6.339   0.039
11434TIP3    H234260   0.650   6.201   0.059
11435TIP3   OH234261   2.354   3.364   0.493
11435TIP3    H134262   2.368   3.411   0.411
11435TIP3    H234263   2.330   3.431   0.556
11436TIP3   OH234264   5.438   4.580   1.187
11436TIP3    H134265   5.344   4.591   1.203
11436TIP3    H234266   5.465   4.664   1.149
11437TIP3   OH234267   2.218   6.076   4.347
11437TIP3    H134268   2.221   5.981   4.357
11437TIP3    H234269   2.305   6.100   4.314
11438TIP3   OH234270   7.635   5.458   2.983
11438TIP3    H134271   7.709   5.402   3.005
11438TIP3    H234272   7.572   5.400   2.939
11439TIP3   OH234273   1.065   1.856   3.349
11439TIP3    H134274   1.040   1.764   3.351
11439TIP3    H234275   1.093   1.872   3.258
11440TIP3   OH234276   6.713   1.384   2.831
11440TIP3    H134277   6.738   1.348   2.916
11440TIP3    H234278   6.652   1.455   2.852
11441TIP3   OH234279   6.881   3.171   0.235
11441TIP3    H134280   6.789   3.188   0.215
11441TIP3    H234281   6.929   3.244   0.194
11442TIP3   OH234282   0.893   1.447   6.743
11442TIP3    H134283   0.933   1.366   6.773
11442TIP3    H234284   0.838   1.421   6.670
11443TIP3   OH234285   2.791   6.160   3.479
11443TIP3    H134286   2.786   6.251   3.508
11443TIP3    H234287   2.795   6.109   3.560
11444TIP3   OH234288   4.247   1.716   5.770
11444TIP3    H134289   4.160   1.756   5.773
11444TIP3    H234290   4.237   1.633   5.818
11445TIP3   OH234291   7.069   5.354   1.049
11445TIP3    H134292   6.987   5.389   1.084
11445TIP3    H234293   7.097   5.290   1.114
11446TIP3   OH234294   5.645   4.113   6.022
11446TIP3    H134295   5.562   4.109   5.975
11446TIP3    H234296   5.680   4.200   6.001
11447TIP3   OH234297   5.841   3.547   3.030
11447TIP3    H134298   5.784   3.602   2.976
11447TIP3    H234299   5.884   3.608   3.090
11448TIP3   OH234300   0.098   4.564   0.657
11448TIP3    H134301   0.048   4.498   0.705
11448TIP3    H234302   0.032   4.616   0.611
11449TIP3   OH234303   3.248   4.271   0.026
11449TIP3    H134304   3.258   4.210  -0.047
11449TIP3    H234305   3.337   4.298   0.047
11450TIP3   OH234306   6.058   6.430   2.656
11450TIP3    H134307   6.128   6.403   2.715
11450TIP3    H234308   5.990   6.465   2.714
11451TIP3   OH234309   1.127   1.223   5.588
11451TIP3    H134310   1.136   1.318   5.581
11451TIP3    H234311   1.168   1.202   5.672
11452TIP3   OH234312   5.240   2.919   3.388
11452TIP3    H134313   5.266   2.848   3.329
11452TIP3    H234314   5.151   2.940   3.361
11453TIP3   OH234315   3.368   1.403   0.854
11453TIP3    H134316   3.457   1.376   0.874
11453TIP3    H234317   3.364   1.405   0.759
11454TIP3   OH234318   0.663   6.868   6.207
11454TIP3    H134319   0.603   6.837   6.140
11454TIP3    H234320   0.643   6.815   6.284
11455TIP3   OH234321   7.893   0.596   3.562
11455TIP3    H134322   7.813   0.584   3.613
11455TIP3    H234323   7.868   0.573   3.472
11456TIP3   OH234324   6.000   7.125   4.205
11456TIP3    H134325   5.964   7.194   4.261
11456TIP3    H234326   5.939   7.053   4.213
11457TIP3   OH234327   6.705   3.304   5.276
11457TIP3    H134328   6.754   3.347   5.206
11457TIP3    H234329   6.616   3.338   5.267
11458TIP3   OH234330   2.328   4.921   5.088
11458TIP3    H134331   2.282   4.841   5.061
11458TIP3    H234332   2.421   4.898   5.083
11459TIP3   OH234333   7.119   5.741   5.843
11459TIP3    H134334   7.196   5.755   5.898
11459TIP3    H234335   7.148   5.766   5.755
11460TIP3   OH234336   2.330   3.905   3.029
11460TIP3    H134337   2.383   3.825   3.026
11460TIP3    H234338   2.394   3.975   3.045
11461TIP3   OH234339   1.478   0.608   0.299
11461TIP3    H134340   1.474   0.554   0.220
11461TIP3    H234341   1.481   0.546   0.371
11462TIP3   OH234342   7.797   1.780   2.376
11462TIP3    H134343   7.720   1.831   2.349
11462TIP3    H234344   7.775   1.690   2.354
11463TIP3   OH234345   3.710   0.160   0.191
11463TIP3    H134346   3.722   0.149   0.285
11463TIP3    H234347   3.701   0.254   0.179
11464TIP3   OH234348   6.563   5.916   0.706
11464TIP3    H134349   6.575   5.963   0.788
11464TIP3    H234350   6.623   5.842   0.712
11465TIP3   OH234351   1.131   6.417   0.511
11465TIP3    H134352   1.092   6.351   0.569
11465TIP3    H234353   1.076   6.495   0.524
11466TIP3   OH234354   5.509   3.155   4.259
11466TIP3    H134355   5.605   3.153   4.259
11466TIP3    H234356   5.485   3.150   4.166
11467TIP3   OH234357   6.490   6.929   1.528
11467TIP3    H134358   6.428   6.984   1.577
11467TIP3    H234359   6.442   6.848   1.512
11468TIP3   OH234360   0.325   3.560   5.005
11468TIP3    H134361   0.341   3.550   4.911
11468TIP3    H234362   0.328   3.654   5.021
11469TIP3   OH234363   2.970   1.153   0.166
11469TIP3    H134364   2.883   1.192   0.155
11469TIP3    H234365   2.958   1.062   0.140
11470TIP3   OH234366   2.866   3.352   2.006
11470TIP3    H134367   2.956   3.326   2.026
11470TIP3    H234368   2.861   3.443   2.036
11471TIP3   OH234369   6.993   1.811   3.480
11471TIP3    H134370   7.081   1.806   3.516
11471TIP3    H234371   6.936   1.777   3.549
11472TIP3   OH234372   4.158   4.291   5.899
11472TIP3    H134373   4.168   4.331   5.985
11472TIP3    H234374   4.070   4.253   5.900
11473TIP3   OH234375   7.046   3.101   1.245
11473TIP3    H134376   7.107   3.029   1.260
11473TIP3    H234377   7.102   3.177   1.228
11474TIP3   OH234378   3.637   2.446   5.298
11474TIP3    H134379   3.696   2.408   5.363
11474TIP3    H234380   3.694   2.465   5.223
11475TIP3   OH234381   7.587   1.314   0.797
11475TIP3    H134382   7.553   1.398   0.769
11475TIP3    H234383   7.620   1.330   0.885
11476TIP3   OH234384   7.192   0.368   1.815
11476TIP3    H134385   7.271   0.348   1.766
11476TIP3    H234386   7.120   0.349   1.755
11477TIP3   OH234387   2.846   6.093   1.459
11477TIP3    H134388   2.796   6.148   1.399
11477TIP3    H234389   2.851   6.145   1.540
11478TIP3   OH234390   7.571   0.537   2.412
11478TIP3    H134391   7.518   0.602   2.367
11478TIP3    H234392   7.508   0.473   2.446
11479TIP3   OH234393   3.083   6.797   6.587
11479TIP3    H134394   3.066   6.779   6.495
11479TIP3    H234395   3.178   6.794   6.595
11480TIP3   OH234396  -0.020   0.749   1.449
11480TIP3    H134397  -0.039   0.788   1.363
11480TIP3    H234398   0.070   0.716   1.441
11481TIP3   OH234399   2.411   4.477   1.193
11481TIP3    H134400   2.411   4.538   1.119
11481TIP3    H234401   2.498   4.485   1.230
11482TIP3   OH234402   4.107   4.931   5.888
11482TIP3    H134403   4.133   5.016   5.853
11482TIP3    H234404   4.188   4.892   5.920
11483TIP3   OH234405   5.929   6.123   5.378
11483TIP3    H134406   5.929   6.137   5.283
11483TIP3    H234407   6.020   6.136   5.403
11484TIP3   OH234408   5.213   6.354   1.644
11484TIP3    H134409   5.198   6.345   1.739
11484TIP3    H234410   5.227   6.264   1.614
11485TIP3   OH234411   4.513   2.065   2.519
11485TIP3    H134412   4.558   2.136   2.563
11485TIP3    H234413   4.427   2.062   2.560
11486TIP3   OH234414   4.969   6.426   1.542
11486TIP3    H134415   4.924   6.346   1.570
11486TIP3    H234416   5.059   6.414   1.571
11487TIP3   OH234417   6.572   6.282   2.731
11487TIP3    H134418   6.645   6.316   2.679
11487TIP3    H234419   6.535   6.212   2.678
11488TIP3   OH234420   7.457   3.827   4.415
11488TIP3    H134421   7.439   3.872   4.333
11488TIP3    H234422   7.425   3.738   4.401
11489TIP3   OH234423   0.042   6.932   3.787
11489TIP3    H134424   0.119   6.950   3.840
11489TIP3    H234425   0.055   6.842   3.757
11490TIP3   OH234426   6.832   2.884   3.975
11490TIP3    H134427   6.883   2.928   4.043
11490TIP3    H234428   6.849   2.791   3.988
11491TIP3   OH234429   3.888   4.992   0.715
11491TIP3    H134430   3.813   5.008   0.772
11491TIP3    H234431   3.935   5.075   0.712
11492TIP3   OH234432   4.682   2.507   4.048
11492TIP3    H134433   4.622   2.440   4.015
11492TIP3    H234434   4.631   2.556   4.112
11493TIP3   OH234435   6.390   3.061   5.633
11493TIP3    H134436   6.414   3.055   5.541
11493TIP3    H234437   6.297   3.080   5.634
11494TIP3   OH234438   1.189   1.948   2.682
11494TIP3    H134439   1.197   1.892   2.606
11494TIP3    H234440   1.258   2.014   2.671
11495TIP3   OH234441   1.499   1.099   1.793
11495TIP3    H134442   1.467   1.142   1.872
11495TIP3    H234443   1.594   1.104   1.799
11496TIP3   OH234444   3.537   5.408   3.760
11496TIP3    H134445   3.467   5.344   3.771
11496TIP3    H234446   3.538   5.457   3.842
11497TIP3   OH234447   6.718   2.004   4.036
11497TIP3    H134448   6.767   2.002   4.118
11497TIP3    H234449   6.632   2.038   4.060
11498TIP3   OH234450   0.619   0.439   2.497
11498TIP3    H134451   0.588   0.411   2.583
11498TIP3    H234452   0.545   0.488   2.460
11499TIP3   OH234453   5.252   5.055   5.391
11499TIP3    H134454   5.268   5.146   5.370
11499TIP3    H234455   5.276   5.046   5.484
11500TIP3   OH234456   4.652   5.831   3.832
11500TIP3    H134457   4.722   5.860   3.890
11500TIP3    H234458   4.572   5.845   3.883
11501TIP3   OH234459   7.547   5.019   6.695
11501TIP3    H134460   7.454   5.038   6.707
11501TIP3    H234461   7.589   5.054   6.774
11502TIP3   OH234462   3.394   5.887   3.906
11502TIP3    H134463   3.361   5.836   3.980
11502TIP3    H234464   3.468   5.836   3.873
11503TIP3   OH234465   5.841   4.010   1.358
11503TIP3    H134466   5.928   4.042   1.333
11503TIP3    H234467   5.847   3.995   1.452
11504TIP3   OH234468   3.007   3.728   4.627
11504TIP3    H134469   2.960   3.806   4.658
11504TIP3    H234470   2.982   3.659   4.688
11505TIP3   OH234471   3.322   1.052   2.123
11505TIP3    H134472   3.255   1.074   2.188
11505TIP3    H234473   3.371   1.133   2.111
11506TIP3   OH234474   0.126   6.332   2.220
11506TIP3    H134475   0.216   6.319   2.253
11506TIP3    H234476   0.132   6.407   2.161
11507TIP3   OH234477   3.468   3.747   2.241
11507TIP3    H134478   3.374   3.744   2.221
11507TIP3    H234479   3.508   3.684   2.181
11508TIP3   OH234480   0.260   2.435   2.285
11508TIP3    H134481   0.246   2.475   2.371
11508TIP3    H234482   0.184   2.463   2.234
11509TIP3   OH234483   4.528   1.939   0.933
11509TIP3    H134484   4.441   1.923   0.895
11509TIP3    H234485   4.584   1.872   0.894
11510TIP3   OH234486   6.567   7.724   0.935
11510TIP3    H134487   6.559   7.677   0.852
11510TIP3    H234488   6.586   7.656   0.999
11511TIP3   OH234489   4.693   5.646   5.533
11511TIP3    H134490   4.717   5.712   5.467
11511TIP3    H234491   4.621   5.686   5.582
11512TIP3   OH234492   6.294   6.623   3.894
11512TIP3    H134493   6.349   6.653   3.822
11512TIP3    H234494   6.286   6.699   3.951
11513TIP3   OH234495   3.474   1.261   5.952
11513TIP3    H134496   3.418   1.269   5.874
11513TIP3    H234497   3.505   1.349   5.969
11514TIP3   OH234498   6.496   3.524   5.645
11514TIP3    H134499   6.484   3.475   5.564
11514TIP3    H234500   6.422   3.497   5.700
11515TIP3   OH234501   3.846   0.712   2.183
11515TIP3    H134502   3.909   0.647   2.151
11515TIP3    H234503   3.859   0.714   2.278
11516TIP3   OH234504   4.734   3.851   0.116
11516TIP3    H134505   4.746   3.933   0.164
11516TIP3    H234506   4.780   3.865   0.033
11517TIP3   OH234507   3.874   3.499   0.162
11517TIP3    H134508   3.798   3.443   0.149
11517TIP3    H234509   3.862   3.537   0.249
11518TIP3   OH234510   6.375   3.851   3.845
11518TIP3    H134511   6.435   3.898   3.904
11518TIP3    H234512   6.291   3.853   3.891
11519TIP3   OH234513   6.519   1.443   4.456
11519TIP3    H134514   6.580   1.481   4.393
11519TIP3    H234515   6.572   1.380   4.505
11520TIP3   OH234516   2.881   1.672   0.116
11520TIP3    H134517   2.959   1.626   0.086
11520TIP3    H234518   2.812   1.605   0.114
11521TIP3   OH234519   1.866   5.581   4.321
11521TIP3    H134520   1.898   5.493   4.343
11521TIP3    H234521   1.836   5.617   4.405
11522TIP3   OH234522   0.999   6.157   0.083
11522TIP3    H134523   0.908   6.187   0.080
11522TIP3    H234524   1.006   6.111   0.166
11523TIP3   OH234525   7.053   7.263   0.944
11523TIP3    H134526   6.970   7.218   0.928
11523TIP3    H234527   7.105   7.200   0.993
11524TIP3   OH234528   7.192   4.959   5.818
11524TIP3    H134529   7.258   5.015   5.776
11524TIP3    H234530   7.232   4.872   5.820
11525TIP3   OH234531   5.509   4.677   5.095
11525TIP3    H134532   5.422   4.717   5.102
11525TIP3    H234533   5.570   4.748   5.118
11526TIP3   OH234534   4.313   2.856   4.316
11526TIP3    H134535   4.236   2.903   4.348
11526TIP3    H234536   4.334   2.793   4.385
11527TIP3   OH234537   1.374   7.317   1.120
11527TIP3    H134538   1.399   7.231   1.088
11527TIP3    H234539   1.280   7.312   1.135
11528TIP3   OH234540   2.608   1.359   2.004
11528TIP3    H134541   2.664   1.407   2.065
11528TIP3    H234542   2.660   1.283   1.978
11529TIP3   OH234543   6.077   0.476   0.655
11529TIP3    H134544   6.152   0.422   0.632
11529TIP3    H234545   6.015   0.416   0.696
11530TIP3   OH234546   8.104   1.486   4.696
11530TIP3    H134547   8.150   1.531   4.625
11530TIP3    H234548   8.012   1.487   4.669
11531TIP3   OH234549   0.560   7.120   6.298
11531TIP3    H134550   0.606   7.041   6.271
11531TIP3    H234551   0.539   7.106   6.390
11532TIP3   OH234552   3.077   5.731   2.620
11532TIP3    H134553   2.999   5.702   2.574
11532TIP3    H234554   3.100   5.814   2.579
11533TIP3   OH234555   5.363   6.390   6.677
11533TIP3    H134556   5.426   6.461   6.670
11533TIP3    H234557   5.415   6.313   6.700
11534TIP3   OH234558   5.320   3.747   6.156
11534TIP3    H134559   5.384   3.809   6.121
11534TIP3    H234560   5.361   3.662   6.146
11535TIP3   OH234561   3.511   4.625   0.122
11535TIP3    H134562   3.428   4.654   0.161
11535TIP3    H234563   3.485   4.574   0.045
11536TIP3   OH234564   8.057   5.140   4.036
11536TIP3    H134565   8.007   5.118   3.957
11536TIP3    H234566   8.026   5.078   4.102
11537TIP3   OH234567   0.636   0.319   1.246
11537TIP3    H134568   0.596   0.369   1.174
11537TIP3    H234569   0.628   0.227   1.218
11538TIP3   OH234570   3.121   7.359   1.553
11538TIP3    H134571   3.129   7.272   1.515
11538TIP3    H234572   3.030   7.384   1.538
11539TIP3   OH234573   3.690   4.476   2.285
11539TIP3    H134574   3.668   4.453   2.194
11539TIP3    H234575   3.774   4.434   2.300
11540TIP3   OH234576   7.731   2.487   6.642
11540TIP3    H134577   7.781   2.416   6.603
11540TIP3    H234578   7.741   2.473   6.737
11541TIP3   OH234579   5.501   0.172   5.919
11541TIP3    H134580   5.568   0.240   5.915
11541TIP3    H234581   5.438   0.196   5.851
11542TIP3   OH234582   2.466   4.692   1.831
11542TIP3    H134583   2.488   4.687   1.738
11542TIP3    H234584   2.445   4.601   1.855
11543TIP3   OH234585   1.613   5.340   0.527
11543TIP3    H134586   1.567   5.407   0.477
11543TIP3    H234587   1.663   5.388   0.593
11544TIP3   OH234588   6.361   0.181   0.914
11544TIP3    H134589   6.344   0.147   1.001
11544TIP3    H234590   6.338   0.109   0.855
11545TIP3   OH234591   7.716   1.472   3.382
11545TIP3    H134592   7.733   1.436   3.469
11545TIP3    H234593   7.629   1.441   3.359
11546TIP3   OH234594   3.847   0.887   6.347
11546TIP3    H134595   3.899   0.824   6.397
11546TIP3    H234596   3.768   0.839   6.322
11547TIP3   OH234597   0.565   6.396   1.240
11547TIP3    H134598   0.484   6.443   1.217
11547TIP3    H234599   0.567   6.400   1.336
11548TIP3   OH234600   7.778   0.152   5.763
11548TIP3    H134601   7.865   0.179   5.735
11548TIP3    H234602   7.745   0.226   5.814
11549TIP3   OH234603   1.763   4.590   3.033
11549TIP3    H134604   1.806   4.517   2.988
11549TIP3    H234605   1.824   4.612   3.104
11550TIP3   OH234606   1.961   1.398   3.690
11550TIP3    H134607   1.877   1.403   3.645
11550TIP3    H234608   2.011   1.332   3.642
11551TIP3   OH234609   3.041   5.737   6.215
11551TIP3    H134610   3.049   5.806   6.149
11551TIP3    H234611   3.078   5.659   6.173
11552TIP3   OH234612   8.041   4.530   1.117
11552TIP3    H134613   8.038   4.571   1.204
11552TIP3    H234614   7.950   4.504   1.101
11553TIP3   OH234615   3.204   1.646   0.340
11553TIP3    H134616   3.163   1.560   0.349
11553TIP3    H234617   3.277   1.644   0.401
11554TIP3   OH234618   4.938   3.102   1.602
11554TIP3    H134619   4.873   3.171   1.618
11554TIP3    H234620   5.022   3.147   1.605
11555TIP3   OH234621   3.594   1.526   2.151
11555TIP3    H134622   3.525   1.467   2.122
11555TIP3    H234623   3.602   1.509   2.245
11556TIP3   OH234624   6.351   5.278   2.208
11556TIP3    H134625   6.313   5.311   2.289
11556TIP3    H234626   6.329   5.344   2.142
11557TIP3   OH234627   7.284   5.692   6.527
11557TIP3    H134628   7.241   5.750   6.589
11557TIP3    H234629   7.218   5.627   6.505
11558TIP3   OH234630   6.635   3.829   2.044
11558TIP3    H134631   6.573   3.825   1.971
11558TIP3    H234632   6.649   3.923   2.059
11559TIP3   OH234633   7.608   0.902   0.487
11559TIP3    H134634   7.548   0.976   0.489
11559TIP3    H234635   7.680   0.930   0.430
11560TIP3   OH234636   5.483   2.340   5.143
11560TIP3    H134637   5.492   2.286   5.064
11560TIP3    H234638   5.446   2.422   5.111
11561TIP3   OH234639   5.727   4.983   2.496
11561TIP3    H134640   5.676   4.940   2.427
11561TIP3    H234641   5.802   5.021   2.450
11562TIP3   OH234642   0.386   7.620   1.407
11562TIP3    H134643   0.299   7.652   1.384
11562TIP3    H234644   0.389   7.627   1.502
11563TIP3   OH234645   0.049   2.074   1.342
11563TIP3    H134646   0.025   2.146   1.283
11563TIP3    H234647   0.032   1.995   1.291
11564TIP3   OH234648   1.616   6.163   4.266
11564TIP3    H134649   1.652   6.156   4.178
11564TIP3    H234650   1.667   6.234   4.306
11565TIP3   OH234651   3.553   1.311   6.337
11565TIP3    H134652   3.580   1.402   6.327
11565TIP3    H234653   3.633   1.261   6.328
11566TIP3   OH234654   4.420   3.992   0.027
11566TIP3    H134655   4.336   3.957   0.059
11566TIP3    H234656   4.486   3.941   0.074
11567TIP3   OH234657   4.429   3.822   6.470
11567TIP3    H134658   4.438   3.847   6.562
11567TIP3    H234659   4.336   3.833   6.451
11568TIP3   OH234660   0.235   3.999   3.160
11568TIP3    H134661   0.248   4.051   3.080
11568TIP3    H234662   0.318   3.951   3.170
11569TIP3   OH234663   6.193   6.478   4.113
11569TIP3    H134664   6.235   6.511   4.034
11569TIP3    H234665   6.183   6.555   4.169
11570TIP3   OH234666   2.710   4.119   3.209
11570TIP3    H134667   2.628   4.102   3.254
11570TIP3    H234668   2.776   4.070   3.259
11571TIP3   OH234669   5.616   7.759   5.839
11571TIP3    H134670   5.582   7.673   5.814
11571TIP3    H234671   5.691   7.740   5.895
11572TIP3   OH234672   6.485   5.040   4.369
11572TIP3    H134673   6.562   5.040   4.313
11572TIP3    H234674   6.432   5.113   4.337
11573TIP3   OH234675   0.080   3.632   3.512
11573TIP3    H134676   0.054   3.642   3.420
11573TIP3    H234677   0.063   3.540   3.532
11574TIP3   OH234678   4.253   0.730   5.047
11574TIP3    H134679   4.299   0.775   5.118
11574TIP3    H234680   4.248   0.638   5.076
11575TIP3   OH234681   6.905   5.876   4.971
11575TIP3    H134682   6.918   5.967   4.944
11575TIP3    H234683   6.823   5.850   4.930
11576TIP3   OH234684   5.748   6.609   0.842
11576TIP3    H134685   5.696   6.570   0.771
11576TIP3    H234686   5.748   6.703   0.823
11577TIP3   OH234687   2.135   5.304   4.674
11577TIP3    H134688   2.121   5.232   4.736
11577TIP3    H234689   2.195   5.363   4.720
11578TIP3   OH234690   0.505   5.779   2.332
11578TIP3    H134691   0.588   5.778   2.284
11578TIP3    H234692   0.498   5.691   2.370
11579TIP3   OH234693   4.798   4.845   1.177
11579TIP3    H134694   4.759   4.930   1.192
11579TIP3    H234695   4.741   4.783   1.223
11580TIP3   OH234696   8.217   2.437   0.982
11580TIP3    H134697   8.267   2.375   0.929
11580TIP3    H234698   8.145   2.465   0.926
11581TIP3   OH234699   2.705   3.963   0.478
11581TIP3    H134700   2.708   4.052   0.441
11581TIP3    H234701   2.749   3.971   0.563
11582TIP3   OH234702   8.048   6.902   0.163
11582TIP3    H134703   8.111   6.893   0.091
11582TIP3    H234704   8.040   6.997   0.177
11583TIP3   OH234705   6.516   5.035   3.130
11583TIP3    H134706   6.446   4.972   3.145
11583TIP3    H234707   6.471   5.117   3.112
11584TIP3   OH234708   3.948   1.969   3.194
11584TIP3    H134709   3.925   2.001   3.281
11584TIP3    H234710   4.030   2.012   3.173
11585TIP3   OH234711   2.665   3.856   1.079
11585TIP3    H134712   2.626   3.770   1.061
11585TIP3    H234713   2.637   3.910   1.005
11586TIP3   OH234714  -0.029   6.368   3.216
11586TIP3    H134715   0.008   6.356   3.304
11586TIP3    H234716   0.047   6.378   3.159
11587TIP3   OH234717   6.643   4.831   5.423
11587TIP3    H134718   6.692   4.879   5.356
11587TIP3    H234719   6.680   4.743   5.423
11588TIP3   OH234720   7.275   3.097   3.649
11588TIP3    H134721   7.251   3.004   3.653
11588TIP3    H234722   7.194   3.143   3.669
11589TIP3   OH234723   6.592   7.401   3.153
11589TIP3    H134724   6.661   7.433   3.095
11589TIP3    H234725   6.626   7.415   3.242
11590TIP3   OH234726   2.437   4.959   6.418
11590TIP3    H134727   2.467   4.946   6.328
11590TIP3    H234728   2.413   4.871   6.448
11591TIP3   OH234729   2.442   3.127   4.308
11591TIP3    H134730   2.371   3.190   4.298
11591TIP3    H234731   2.521   3.177   4.285
11592TIP3   OH234732   0.726   2.792   0.610
11592TIP3    H134733   0.783   2.751   0.545
11592TIP3    H234734   0.699   2.875   0.569
11593TIP3   OH234735   8.295   0.723   3.591
11593TIP3    H134736   8.334   0.803   3.558
11593TIP3    H234737   8.261   0.746   3.678
11594TIP3   OH234738   3.912   0.753   4.279
11594TIP3    H134739   3.896   0.845   4.301
11594TIP3    H234740   3.994   0.732   4.322
11595TIP3   OH234741   2.263   6.404   2.523
11595TIP3    H134742   2.219   6.478   2.481
11595TIP3    H234743   2.353   6.409   2.490
11596TIP3   OH234744   7.087   1.250   4.086
11596TIP3    H134745   7.000   1.249   4.046
11596TIP3    H234746   7.138   1.186   4.037
11597TIP3   OH234747   0.727   3.610   2.747
11597TIP3    H134748   0.748   3.594   2.655
11597TIP3    H234749   0.799   3.570   2.795
11598TIP3   OH234750   1.608   4.220   5.658
11598TIP3    H134751   1.700   4.225   5.633
11598TIP3    H234752   1.591   4.126   5.669
11599TIP3   OH234753   5.864   6.346   6.004
11599TIP3    H134754   5.889   6.278   6.067
11599TIP3    H234755   5.825   6.298   5.931
11600TIP3   OH234756   5.637   0.652   1.391
11600TIP3    H134757   5.657   0.608   1.308
11600TIP3    H234758   5.616   0.742   1.366
11601TIP3   OH234759   6.473   1.394   0.140
11601TIP3    H134760   6.513   1.470   0.096
11601TIP3    H234761   6.534   1.322   0.124
11602TIP3   OH234762   0.252   7.169   5.502
11602TIP3    H134763   0.173   7.118   5.486
11602TIP3    H234764   0.324   7.108   5.487
11603TIP3   OH234765   4.767   5.798   5.333
11603TIP3    H134766   4.840   5.842   5.377
11603TIP3    H234767   4.713   5.870   5.298
11604TIP3   OH234768   5.956   5.272   5.866
11604TIP3    H134769   5.958   5.176   5.863
11604TIP3    H234770   6.002   5.299   5.787
11605TIP3   OH234771   0.954   1.312   5.038
11605TIP3    H134772   0.932   1.240   5.096
11605TIP3    H234773   0.897   1.300   4.962
11606TIP3   OH234774   6.231   4.215   3.518
11606TIP3    H134775   6.267   4.130   3.543
11606TIP3    H234776   6.218   4.261   3.601
11607TIP3   OH234777   6.991   4.213   6.554
11607TIP3    H134778   7.058   4.167   6.603
11607TIP3    H234779   7.017   4.204   6.463
11608TIP3   OH234780   4.744   4.921   0.598
11608TIP3    H134781   4.792   4.864   0.658
11608TIP3    H234782   4.685   4.863   0.551
11609TIP3   OH234783   3.465   0.748   4.428
11609TIP3    H134784   3.401   0.692   4.384
11609TIP3    H234785   3.547   0.733   4.380
11610TIP3   OH234786   1.455   4.731   5.911
11610TIP3    H134787   1.427   4.793   5.844
11610TIP3    H234788   1.486   4.655   5.862
11611TIP3   OH234789   3.588   1.390   1.387
11611TIP3    H134790   3.671   1.364   1.428
11611TIP3    H234791   3.566   1.474   1.427
11612TIP3   OH234792   1.021   6.477   2.760
11612TIP3    H134793   0.988   6.566   2.747
11612TIP3    H234794   1.016   6.463   2.854
11613TIP3   OH234795   3.056   0.427   2.918
11613TIP3    H134796   2.990   0.369   2.880
11613TIP3    H234797   3.121   0.438   2.849
11614TIP3   OH234798   1.328   6.031   2.201
11614TIP3    H134799   1.370   6.101   2.251
11614TIP3    H234800   1.243   6.067   2.177
11615TIP3   OH234801   5.401   6.092   0.986
11615TIP3    H134802   5.375   6.004   1.014
11615TIP3    H234803   5.402   6.143   1.066
11616TIP3   OH234804   3.299   2.697   2.054
11616TIP3    H134805   3.249   2.622   2.021
11616TIP3    H234806   3.237   2.770   2.053
11617TIP3   OH234807   4.498   5.346   4.417
11617TIP3    H134808   4.467   5.412   4.356
11617TIP3    H234809   4.497   5.389   4.503
11618TIP3   OH234810   6.634   4.102   2.079
11618TIP3    H134811   6.596   4.099   2.166
11618TIP3    H234812   6.560   4.086   2.020
11619TIP3   OH234813   3.738   6.612   3.618
11619TIP3    H134814   3.772   6.618   3.707
11619TIP3    H234815   3.667   6.676   3.614
11620TIP3   OH234816   2.109   6.230   0.072
11620TIP3    H134817   2.069   6.200  -0.010
11620TIP3    H234818   2.037   6.271   0.120
11621TIP3   OH234819   5.723   2.467   3.596
11621TIP3    H134820   5.727   2.374   3.574
11621TIP3    H234821   5.813   2.498   3.586
11622TIP3   OH234822   6.646  -0.019   2.867
11622TIP3    H134823   6.567  -0.070   2.889
11622TIP3    H234824   6.691  -0.008   2.950
11623TIP3   OH234825   1.830   6.457   5.488
11623TIP3    H134826   1.791   6.400   5.421
11623TIP3    H234827   1.924   6.440   5.483
11624TIP3   OH234828   6.519   3.496   1.276
11624TIP3    H134829   6.517   3.401   1.266
11624TIP3    H234830   6.491   3.511   1.366
11625TIP3   OH234831   0.412   4.598   2.279
11625TIP3    H134832   0.431   4.664   2.213
11625TIP3    H234833   0.451   4.632   2.360
11626TIP3   OH234834   8.079   1.160   0.786
11626TIP3    H134835   8.069   1.195   0.697
11626TIP3    H234836   8.007   1.097   0.795
11627TIP3   OH234837   3.317   1.620   4.852
11627TIP3    H134838   3.357   1.550   4.801
11627TIP3    H234839   3.224   1.598   4.855
11628TIP3   OH234840   1.596   1.580   3.818
11628TIP3    H134841   1.671   1.630   3.849
11628TIP3    H234842   1.539   1.572   3.894
11629TIP3   OH234843   4.165   1.393   2.426
11629TIP3    H134844   4.081   1.349   2.416
11629TIP3    H234845   4.221   1.353   2.359
11630TIP3   OH234846   0.164   2.683   0.014
11630TIP3    H134847   0.180   2.678  -0.080
11630TIP3    H234848   0.172   2.777   0.034
11631TIP3   OH234849   3.967   4.546   5.079
11631TIP3    H134850   3.896   4.506   5.130
11631TIP3    H234851   3.966   4.501   4.995
11632TIP3   OH234852   7.748   4.767   0.656
11632TIP3    H134853   7.748   4.706   0.730
11632TIP3    H234854   7.743   4.853   0.696
11633TIP3   OH234855   6.465   6.775   0.393
11633TIP3    H134856   6.527   6.764   0.465
11633TIP3    H234857   6.513   6.825   0.327
11634TIP3   OH234858   0.255   2.224   0.635
11634TIP3    H134859   0.324   2.217   0.701
11634TIP3    H234860   0.229   2.316   0.637
11635TIP3   OH234861   7.442   5.898   5.014
11635TIP3    H134862   7.413   5.983   4.983
11635TIP3    H234863   7.395   5.835   4.958
11636TIP3   OH234864   0.189   7.848   1.404
11636TIP3    H134865   0.267   7.903   1.393
11636TIP3    H234866   0.138   7.862   1.324
11637TIP3   OH234867   5.500   5.569   5.884
11637TIP3    H134868   5.429   5.507   5.867
11637TIP3    H234869   5.524   5.603   5.797
11638TIP3   OH234870   3.180   1.708   3.233
11638TIP3    H134871   3.096   1.753   3.242
11638TIP3    H234872   3.232   1.739   3.308
11639TIP3   OH234873   7.343   4.746   5.686
11639TIP3    H134874   7.383   4.774   5.603
11639TIP3    H234875   7.415   4.706   5.735
11640TIP3   OH234876   1.956   5.302   0.448
11640TIP3    H134877   1.913   5.322   0.365
11640TIP3    H234878   2.015   5.230   0.429
11641TIP3   OH234879   2.262   7.578   1.417
11641TIP3    H134880   2.232   7.621   1.336
11641TIP3    H234881   2.311   7.645   1.463
11642TIP3   OH234882   0.411   7.600   3.731
11642TIP3    H134883   0.502   7.630   3.723
11642TIP3    H234884   0.359   7.677   3.709
11643TIP3   OH234885   5.524   0.550   2.939
11643TIP3    H134886   5.458   0.620   2.935
11643TIP3    H234887   5.545   0.543   3.033
11644TIP3   OH234888   1.779   6.801   0.395
11644TIP3    H134889   1.720   6.820   0.468
11644TIP3    H234890   1.724   6.815   0.317
11645TIP3   OH234891   2.368   3.657   6.008
11645TIP3    H134892   2.288   3.623   5.969
11645TIP3    H234893   2.339   3.731   6.062
11646TIP3   OH234894   1.001   6.042   6.572
11646TIP3    H134895   0.948   6.116   6.542
11646TIP3    H234896   0.936   5.975   6.595
11647TIP3   OH234897   5.552   6.292   5.298
11647TIP3    H134898   5.570   6.333   5.213
11647TIP3    H234899   5.613   6.335   5.358
11648TIP3   OH234900   6.841   1.714   3.002
11648TIP3    H134901   6.748   1.704   2.986
11648TIP3    H234902   6.858   1.661   3.080
11649TIP3   OH234903   0.557   2.921   6.718
11649TIP3    H134904   0.628   2.955   6.664
11649TIP3    H234905   0.478   2.937   6.667
11650TIP3   OH234906   0.365   4.279   6.044
11650TIP3    H134907   0.368   4.241   6.132
11650TIP3    H234908   0.456   4.303   6.025
11651TIP3   OH234909   3.251   1.301   3.542
11651TIP3    H134910   3.275   1.217   3.582
11651TIP3    H234911   3.327   1.357   3.555
11652TIP3   OH234912   0.594   3.611   6.252
11652TIP3    H134913   0.518   3.560   6.224
11652TIP3    H234914   0.607   3.674   6.181
11653TIP3   OH234915   6.054   6.611   1.114
11653TIP3    H134916   6.051   6.579   1.024
11653TIP3    H234917   5.963   6.604   1.145
11654TIP3   OH234918   0.496   7.742   5.463
11654TIP3    H134919   0.409   7.702   5.470
11654TIP3    H234920   0.519   7.763   5.554
11655TIP3   OH234921   5.879   3.489   5.458
11655TIP3    H134922   5.850   3.472   5.368
11655TIP3    H234923   5.810   3.545   5.495
11656TIP3   OH234924   5.338   0.127   5.310
11656TIP3    H134925   5.291   0.208   5.287
11656TIP3    H234926   5.392   0.108   5.234
11657TIP3   OH234927   5.102   3.392   4.028
11657TIP3    H134928   5.119   3.302   4.000
11657TIP3    H234929   5.168   3.408   4.095
11658TIP3   OH234930   5.879   7.523   4.901
11658TIP3    H134931   5.813   7.535   4.969
11658TIP3    H234932   5.917   7.437   4.920
11659TIP3   OH234933   0.890   4.899   0.923
11659TIP3    H134934   0.897   4.811   0.886
11659TIP3    H234935   0.797   4.910   0.944
11660TIP3   OH234936   3.878   6.481   0.781
11660TIP3    H134937   3.958   6.524   0.752
11660TIP3    H234938   3.868   6.406   0.722
11661TIP3   OH234939   5.613   3.591   1.245
11661TIP3    H134940   5.571   3.660   1.193
11661TIP3    H234941   5.579   3.509   1.208
11662TIP3   OH234942   6.057   6.978   5.083
11662TIP3    H134943   6.129   6.978   5.020
11662TIP3    H234944   6.098   6.958   5.166
11663TIP3   OH234945   3.394   3.711   0.075
11663TIP3    H134946   3.325   3.664   0.122
11663TIP3    H234947   3.391   3.800   0.112
11664TIP3   OH234948   2.124   6.438   4.791
11664TIP3    H134949   2.131   6.394   4.706
11664TIP3    H234950   2.155   6.527   4.775
11665TIP3   OH234951   1.323   7.321   2.349
11665TIP3    H134952   1.371   7.346   2.428
11665TIP3    H234953   1.391   7.293   2.288
11666TIP3   OH234954   4.023   2.555   0.548
11666TIP3    H134955   4.091   2.495   0.578
11666TIP3    H234956   3.944   2.525   0.593
11667TIP3   OH234957   1.971   2.367   3.421
11667TIP3    H134958   2.065   2.368   3.402
11667TIP3    H234959   1.957   2.446   3.474
11668TIP3   OH234960   1.837   7.504   2.122
11668TIP3    H134961   1.869   7.558   2.050
11668TIP3    H234962   1.897   7.430   2.126
11669TIP3   OH234963   7.937   3.094   1.716
11669TIP3    H134964   8.019   3.142   1.706
11669TIP3    H234965   7.930   3.078   1.811
11670TIP3   OH234966   3.845   6.444   5.404
11670TIP3    H134967   3.925   6.397   5.426
11670TIP3    H234968   3.775   6.379   5.411
11671TIP3   OH234969   3.692   1.665   6.477
11671TIP3    H134970   3.749   1.640   6.550
11671TIP3    H234971   3.732   1.623   6.400
11672TIP3   OH234972   4.566   1.555   4.037
11672TIP3    H134973   4.486   1.508   4.064
11672TIP3    H234974   4.625   1.545   4.111
11673TIP3   OH234975   6.135   6.332   5.645
11673TIP3    H134976   6.113   6.255   5.697
11673TIP3    H234977   6.052   6.360   5.607
11674TIP3   OH234978   3.938   2.827   6.478
11674TIP3    H134979   3.868   2.822   6.543
11674TIP3    H234980   4.003   2.886   6.518
11675TIP3   OH234981   1.112   5.830   2.676
11675TIP3    H134982   1.151   5.883   2.607
11675TIP3    H234983   1.027   5.870   2.692
11676TIP3   OH234984   1.844   2.719   6.306
11676TIP3    H134985   1.813   2.630   6.285
11676TIP3    H234986   1.912   2.737   6.242
11677TIP3   OH234987   1.887   0.650   1.184
11677TIP3    H134988   1.978   0.635   1.209
11677TIP3    H234989   1.841   0.573   1.217
11678TIP3   OH234990   2.337   2.837   3.001
11678TIP3    H134991   2.421   2.791   3.008
11678TIP3    H234992   2.329   2.857   2.908
11679TIP3   OH234993   1.059   4.306   5.552
11679TIP3    H134994   1.092   4.395   5.549
11679TIP3    H234995   0.984   4.305   5.493
11680TIP3   OH234996   0.150   4.911   3.638
11680TIP3    H134997   0.078   4.973   3.629
11680TIP3    H234998   0.134   4.868   3.723
11681TIP3   OH234999   2.485   5.372   5.311
11681TIP3    H135000   2.507   5.279   5.312
11681TIP3    H235001   2.455   5.390   5.401
11682TIP3   OH235002   8.179   3.907   0.551
11682TIP3    H135003   8.110   3.850   0.518
11682TIP3    H235004   8.139   3.955   0.623
11683TIP3   OH235005   6.291   0.070   1.143
11683TIP3    H135006   6.375   0.026   1.155
11683TIP3    H235007   6.230   0.022   1.198
11684TIP3   OH235008   5.921   6.091   1.873
11684TIP3    H135009   5.978   6.162   1.844
11684TIP3    H235010   5.853   6.085   1.806
11685TIP3   OH235011   0.793   3.257   1.848
11685TIP3    H135012   0.768   3.238   1.757
11685TIP3    H235013   0.709   3.266   1.894
11686TIP3   OH235014   8.103   4.010   3.322
11686TIP3    H135015   8.114   4.090   3.272
11686TIP3    H235016   8.191   3.975   3.331
11687TIP3   OH235017   3.424   3.828   5.538
11687TIP3    H135018   3.383   3.744   5.515
11687TIP3    H235019   3.365   3.866   5.603
11688TIP3   OH235020   8.221   2.997   2.859
11688TIP3    H135021   8.277   3.032   2.929
11688TIP3    H235022   8.203   2.906   2.886
11689TIP3   OH235023   4.801   0.047   0.053
11689TIP3    H135024   4.847   0.131   0.063
11689TIP3    H235025   4.842  -0.010   0.117
11690TIP3   OH235026   2.409   7.743   3.903
11690TIP3    H135027   2.387   7.655   3.872
11690TIP3    H235028   2.448   7.786   3.826
11691TIP3   OH235029   6.135   5.953   3.654
11691TIP3    H135030   6.064   6.017   3.668
11691TIP3    H235031   6.112   5.879   3.709
11692TIP3   OH235032   6.739   5.657   4.436
11692TIP3    H135033   6.721   5.671   4.343
11692TIP3    H235034   6.771   5.567   4.441
11693TIP3   OH235035   0.044   1.939   0.351
11693TIP3    H135036  -0.010   2.018   0.350
11693TIP3    H235037   0.105   1.950   0.279
11694TIP3   OH235038   2.507   5.315   4.645
11694TIP3    H135039   2.457   5.340   4.723
11694TIP3    H235040   2.590   5.362   4.654
11695TIP3   OH235041   6.233   3.720   5.795
11695TIP3    H135042   6.303   3.719   5.861
11695TIP3    H235043   6.262   3.659   5.728
11696TIP3   OH235044   3.022   7.821   6.240
11696TIP3    H135045   3.008   7.728   6.221
11696TIP3    H235046   2.955   7.843   6.304
11697TIP3   OH235047   2.950   1.537   5.738
11697TIP3    H135048   2.977   1.623   5.706
11697TIP3    H235049   2.947   1.547   5.833
11698TIP3   OH235050   3.488   2.999   3.411
11698TIP3    H135051   3.555   3.065   3.391
11698TIP3    H235052   3.500   2.980   3.504
11699TIP3   OH235053   0.730   0.452   3.692
11699TIP3    H135054   0.656   0.405   3.731
11699TIP3    H235055   0.801   0.443   3.755
11700TIP3   OH235056   5.134   1.094   3.499
11700TIP3    H135057   5.130   1.112   3.405
11700TIP3    H235058   5.095   1.171   3.540
11701TIP3   OH235059   4.399   7.745   6.599
11701TIP3    H135060   4.448   7.678   6.552
11701TIP3    H235061   4.461   7.780   6.663
11702TIP3   OH235062   7.051   3.419   2.900
11702TIP3    H135063   6.993   3.449   2.830
11702TIP3    H235064   7.135   3.401   2.855
11703TIP3   OH235065   3.206   0.981   2.725
11703TIP3    H135066   3.184   0.914   2.789
11703TIP3    H235067   3.132   1.042   2.727
11704TIP3   OH235068   4.189   2.841   2.047
11704TIP3    H135069   4.176   2.762   1.995
11704TIP3    H235070   4.114   2.896   2.026
11705TIP3   OH235071   2.996   3.636   5.556
11705TIP3    H135072   2.998   3.725   5.590
11705TIP3    H235073   2.903   3.614   5.554
11706TIP3   OH235074   1.522   4.873   4.634
11706TIP3    H135075   1.475   4.901   4.555
11706TIP3    H235076   1.500   4.780   4.642
11707TIP3   OH235077   6.754   6.921   1.922
11707TIP3    H135078   6.761   6.892   1.831
11707TIP3    H235079   6.831   6.884   1.965
11708TIP3   OH235080   6.774   3.959   0.114
11708TIP3    H135081   6.743   4.039   0.157
11708TIP3    H235082   6.838   3.991   0.050
11709TIP3   OH235083   3.798   7.514   6.480
11709TIP3    H135084   3.773   7.479   6.565
11709TIP3    H235085   3.893   7.510   6.479
11710TIP3   OH235086   3.855   3.842   0.116
11710TIP3    H135087   3.782   3.779   0.117
11710TIP3    H235088   3.812   3.928   0.115
11711TIP3   OH235089   0.078   3.073   6.231
11711TIP3    H135090   0.019   3.073   6.155
11711TIP3    H235091   0.046   3.002   6.286
11712TIP3   OH235092   1.123   7.190   5.138
11712TIP3    H135093   1.190   7.189   5.207
11712TIP3    H235094   1.102   7.098   5.123
11713TIP3   OH235095   2.590   6.206   5.732
11713TIP3    H135096   2.669   6.202   5.678
11713TIP3    H235097   2.527   6.151   5.686
11714TIP3   OH235098   6.534   2.938   3.675
11714TIP3    H135099   6.531   3.028   3.708
11714TIP3    H235100   6.512   2.884   3.750
11715TIP3   OH235101   3.421   1.518   3.584
11715TIP3    H135102   3.399   1.560   3.667
11715TIP3    H235103   3.482   1.578   3.542
11716TIP3   OH235104   2.152   0.347   2.205
11716TIP3    H135105   2.071   0.398   2.210
11716TIP3    H235106   2.126   0.264   2.165
11717TIP3   OH235107   4.918   3.028   0.949
11717TIP3    H135108   4.836   2.989   0.982
11717TIP3    H235109   4.969   3.045   1.028
11718TIP3   OH235110   2.022   7.209   2.908
11718TIP3    H135111   2.012   7.293   2.862
11718TIP3    H235112   1.946   7.204   2.966
11719TIP3   OH235113   5.626   6.541   4.303
11719TIP3    H135114   5.621   6.521   4.210
11719TIP3    H235115   5.576   6.472   4.345
11720TIP3   OH235116   3.661   1.847   4.041
11720TIP3    H135117   3.666   1.937   4.075
11720TIP3    H235118   3.690   1.855   3.950
11721TIP3   OH235119   5.750   7.246   1.597
11721TIP3    H135120   5.785   7.159   1.578
11721TIP3    H235121   5.694   7.233   1.674
11722TIP3   OH235122   4.082   3.735   0.326
11722TIP3    H135123   4.163   3.736   0.275
11722TIP3    H235124   4.012   3.740   0.261
11723TIP3   OH235125   1.672   1.545   4.872
11723TIP3    H135126   1.686   1.450   4.868
11723TIP3    H235127   1.580   1.555   4.898
11724TIP3   OH235128   4.875   0.299   6.725
11724TIP3    H135129   4.960   0.342   6.727
11724TIP3    H235130   4.862   0.275   6.634
11725TIP3   OH235131   7.427   2.039   1.634
11725TIP3    H135132   7.437   2.008   1.544
11725TIP3    H235133   7.460   2.129   1.633
11726TIP3   OH235134   2.193   3.480   5.735
11726TIP3    H135135   2.232   3.564   5.712
11726TIP3    H235136   2.185   3.433   5.652
11727TIP3   OH235137   4.179   5.526   2.063
11727TIP3    H135138   4.204   5.603   2.012
11727TIP3    H235139   4.260   5.500   2.108
11728TIP3   OH235140   0.860   3.268   4.577
11728TIP3    H135141   0.871   3.252   4.670
11728TIP3    H235142   0.810   3.349   4.572
11729TIP3   OH235143   6.259   2.614   2.814
11729TIP3    H135144   6.234   2.706   2.808
11729TIP3    H235145   6.345   2.615   2.856
11730TIP3   OH235146   7.107   4.829   0.175
11730TIP3    H135147   7.091   4.767   0.104
11730TIP3    H235148   7.059   4.793   0.250
11731TIP3   OH235149   7.477   7.046   6.493
11731TIP3    H135150   7.400   7.099   6.472
11731TIP3    H235151   7.552   7.102   6.474
11732TIP3   OH235152   4.887   3.790   5.034
11732TIP3    H135153   4.874   3.879   4.999
11732TIP3    H235154   4.932   3.744   4.963
11733TIP3   OH235155   6.488   4.258   1.449
11733TIP3    H135156   6.494   4.354   1.440
11733TIP3    H235157   6.439   4.245   1.530
11734TIP3   OH235158   5.468   7.210   4.864
11734TIP3    H135159   5.538   7.207   4.799
11734TIP3    H235160   5.507   7.255   4.939
11735TIP3   OH235161   0.913   4.785   6.697
11735TIP3    H135162   0.846   4.854   6.700
11735TIP3    H235163   0.954   4.790   6.783
11736TIP3   OH235164   0.098   4.729   3.160
11736TIP3    H135165   0.118   4.747   3.252
11736TIP3    H235166   0.152   4.791   3.111
11737TIP3   OH235167   1.991   5.197   0.688
11737TIP3    H135168   1.941   5.243   0.621
11737TIP3    H235169   2.082   5.217   0.669
11738TIP3   OH235170   7.187   7.311   1.646
11738TIP3    H135171   7.103   7.295   1.602
11738TIP3    H235172   7.162   7.353   1.728
11739TIP3   OH235173   7.566   1.884   0.774
11739TIP3    H135174   7.495   1.834   0.814
11739TIP3    H235175   7.645   1.832   0.791
11740TIP3   OH235176   8.177   0.337   1.867
11740TIP3    H135177   8.163   0.283   1.788
11740TIP3    H235178   8.186   0.273   1.938
11741TIP3   OH235179   3.451   3.109   1.884
11741TIP3    H135180   3.458   3.015   1.902
11741TIP3    H235181   3.450   3.150   1.971
11742TIP3   OH235182   0.090   1.269   0.276
11742TIP3    H135183   0.088   1.287   0.370
11742TIP3    H235184   0.036   1.339   0.238
11743TIP3   OH235185   5.469   4.823   2.062
11743TIP3    H135186   5.487   4.818   1.968
11743TIP3    H235187   5.410   4.898   2.071
11744TIP3   OH235188   6.961   7.454   0.270
11744TIP3    H135189   7.014   7.425   0.344
11744TIP3    H235190   6.931   7.541   0.294
11745TIP3   OH235191   3.668   4.839   2.822
11745TIP3    H135192   3.672   4.754   2.867
11745TIP3    H235193   3.720   4.897   2.877
11746TIP3   OH235194   0.354   6.860   1.710
11746TIP3    H135195   0.435   6.902   1.681
11746TIP3    H235196   0.351   6.778   1.662
11747TIP3   OH235197   6.917   6.983   5.806
11747TIP3    H135198   6.998   6.960   5.851
11747TIP3    H235199   6.852   6.922   5.840
11748TIP3   OH235200   2.011   4.211   0.138
11748TIP3    H135201   2.001   4.116   0.141
11748TIP3    H235202   1.944   4.244   0.197
11749TIP3   OH235203   3.772   3.405   5.896
11749TIP3    H135204   3.821   3.417   5.815
11749TIP3    H235205   3.695   3.354   5.870
11750TIP3   OH235206   1.984   4.090   1.057
11750TIP3    H135207   1.904   4.041   1.073
11750TIP3    H235208   2.020   4.051   0.977
11751TIP3   OH235209   7.291   4.691   0.948
11751TIP3    H135210   7.344   4.751   1.000
11751TIP3    H235211   7.209   4.738   0.933
11752TIP3   OH235212   0.114   5.021   5.812
11752TIP3    H135213   0.163   5.010   5.893
11752TIP3    H235214   0.040   5.076   5.836
11753TIP3   OH235215   0.386   6.999   3.296
11753TIP3    H135216   0.348   6.973   3.380
11753TIP3    H235217   0.462   7.052   3.319
11754TIP3   OH235218   2.070   4.127   0.523
11754TIP3    H135219   2.002   4.069   0.487
11754TIP3    H235220   2.064   4.113   0.618
11755TIP3   OH235221   4.676   6.590   4.852
11755TIP3    H135222   4.585   6.610   4.832
11755TIP3    H235223   4.710   6.547   4.774
11756TIP3   OH235224   3.243   2.764   3.623
11756TIP3    H135225   3.309   2.799   3.683
11756TIP3    H235226   3.218   2.680   3.661
11757TIP3   OH235227   1.416   2.987   4.873
11757TIP3    H135228   1.340   3.042   4.894
11757TIP3    H235229   1.488   3.049   4.863
11758TIP3   OH235230   0.056   1.367   3.559
11758TIP3    H135231  -0.002   1.385   3.634
11758TIP3    H235232   0.013   1.294   3.513
11759TIP3   OH235233   2.194   5.888   0.695
11759TIP3    H135234   2.133   5.956   0.722
11759TIP3    H235235   2.209   5.904   0.602
11760TIP3   OH235236   6.968   3.772   3.740
11760TIP3    H135237   7.038   3.749   3.679
11760TIP3    H235238   6.894   3.793   3.685
11761TIP3   OH235239   4.189   1.175   1.418
11761TIP3    H135240   4.236   1.229   1.482
11761TIP3    H235241   4.214   1.085   1.439
11762TIP3   OH235242   4.414   6.912   5.751
11762TIP3    H135243   4.502   6.892   5.719
11762TIP3    H235244   4.402   7.005   5.731
11763TIP3   OH235245   1.434   2.162   1.571
11763TIP3    H135246   1.492   2.212   1.514
11763TIP3    H235247   1.446   2.201   1.658
11764TIP3   OH235248   7.077   3.113   1.743
11764TIP3    H135249   7.056   3.147   1.656
11764TIP3    H235250   7.122   3.185   1.788
11765TIP3   OH235251   2.765   1.600   1.230
11765TIP3    H135252   2.685   1.550   1.242
11765TIP3    H235253   2.738   1.677   1.179
11766TIP3   OH235254   4.300   2.906   2.289
11766TIP3    H135255   4.219   2.938   2.331
11766TIP3    H235256   4.272   2.881   2.201
11767TIP3   OH235257   3.188   5.540   1.750
11767TIP3    H135258   3.279   5.511   1.758
11767TIP3    H235259   3.137   5.462   1.770
11768TIP3   OH235260   7.079   5.144   2.057
11768TIP3    H135261   7.080   5.222   2.001
11768TIP3    H235262   6.992   5.144   2.096
11769TIP3   OH235263   0.092   7.356   3.601
11769TIP3    H135264   0.160   7.379   3.538
11769TIP3    H235265   0.067   7.439   3.641
11770TIP3   OH235266   5.153   2.856   5.133
11770TIP3    H135267   5.142   2.892   5.221
11770TIP3    H235268   5.091   2.905   5.079
11771TIP3   OH235269   4.395   3.759   5.552
11771TIP3    H135270   4.470   3.766   5.610
11771TIP3    H235271   4.320   3.785   5.606
11772TIP3   OH235272   7.015   5.720   6.394
11772TIP3    H135273   6.954   5.776   6.441
11772TIP3    H235274   6.961   5.648   6.361
11773TIP3   OH235275   6.089   4.561   4.807
11773TIP3    H135276   6.043   4.639   4.775
11773TIP3    H235277   6.091   4.572   4.902
11774TIP3   OH235278   7.714   1.537   2.306
11774TIP3    H135279   7.745   1.458   2.263
11774TIP3    H235280   7.619   1.528   2.310
11775TIP3   OH235281   7.329   0.098   3.240
11775TIP3    H135282   7.316   0.132   3.328
11775TIP3    H235283   7.284   0.013   3.240
11776TIP3   OH235284   7.486   3.251   0.261
11776TIP3    H135285   7.429   3.185   0.222
11776TIP3    H235286   7.534   3.204   0.329
11777TIP3   OH235287   2.762   7.432   0.677
11777TIP3    H135288   2.819   7.356   0.667
11777TIP3    H235289   2.674   7.395   0.689
11778TIP3   OH235290   2.821   7.062   1.858
11778TIP3    H135291   2.787   7.077   1.946
11778TIP3    H235292   2.884   7.133   1.844
11779TIP3   OH235293   1.134   4.091   2.901
11779TIP3    H135294   1.107   4.000   2.884
11779TIP3    H235295   1.198   4.084   2.972
11780TIP3   OH235296   7.654   1.024   1.895
11780TIP3    H135297   7.594   1.092   1.866
11780TIP3    H235298   7.655   1.032   1.990
11781TIP3   OH235299   3.395   0.938   1.854
11781TIP3    H135300   3.382   0.959   1.947
11781TIP3    H235301   3.341   1.001   1.807
11782TIP3   OH235302   0.875   2.811   1.170
11782TIP3    H135303   0.877   2.896   1.126
11782TIP3    H235304   0.810   2.822   1.239
11783TIP3   OH235305   4.402   0.060   1.646
11783TIP3    H135306   4.375   0.103   1.565
11783TIP3    H235307   4.413   0.131   1.709
11784TIP3   OH235308   2.451   6.841   1.287
11784TIP3    H135309   2.514   6.889   1.233
11784TIP3    H235310   2.370   6.841   1.235
11785TIP3   OH235311   2.886   0.620   0.071
11785TIP3    H135312   2.971   0.614   0.027
11785TIP3    H235313   2.844   0.535   0.054
11786TIP3   OH235314   2.160   0.400   2.833
11786TIP3    H135315   2.156   0.414   2.739
11786TIP3    H235316   2.254   0.393   2.852
11787TIP3   OH235317   4.199   7.369   3.811
11787TIP3    H135318   4.186   7.275   3.821
11787TIP3    H235319   4.294   7.380   3.805
11788TIP3   OH235320   6.799   5.099   6.558
11788TIP3    H135321   6.812   5.005   6.549
11788TIP3    H235322   6.873   5.138   6.513
11789TIP3   OH235323   4.635   3.878   4.623
11789TIP3    H135324   4.600   3.963   4.594
11789TIP3    H235325   4.601   3.867   4.712
11790TIP3   OH235326   4.482   5.479   2.059
11790TIP3    H135327   4.488   5.538   2.135
11790TIP3    H235328   4.549   5.511   1.999
11791TIP3   OH235329   2.247   7.403   6.622
11791TIP3    H135330   2.165   7.418   6.669
11791TIP3    H235331   2.258   7.481   6.569
11792TIP3   OH235332   2.952   2.824   1.683
11792TIP3    H135333   2.923   2.889   1.747
11792TIP3    H235334   3.031   2.860   1.645
11793TIP3   OH235335   7.181   3.909   4.609
11793TIP3    H135336   7.151   3.993   4.576
11793TIP3    H235337   7.178   3.850   4.533
11794TIP3   OH235338   2.696   0.797   1.479
11794TIP3    H135339   2.664   0.883   1.508
11794TIP3    H235340   2.791   0.800   1.493
11795TIP3   OH235341   6.323   1.359   0.588
11795TIP3    H135342   6.298   1.324   0.674
11795TIP3    H235343   6.241   1.391   0.550
11796TIP3   OH235344   6.915   5.725   0.448
11796TIP3    H135345   6.911   5.793   0.381
11796TIP3    H235346   6.929   5.644   0.399
11797TIP3   OH235347   2.720   2.085   2.750
11797TIP3    H135348   2.645   2.056   2.698
11797TIP3    H235349   2.789   2.022   2.730
11798TIP3   OH235350   2.558   5.071   0.229
11798TIP3    H135351   2.593   5.054   0.316
11798TIP3    H235352   2.622   5.127   0.187
11799TIP3   OH235353   4.630   7.649   3.835
11799TIP3    H135354   4.536   7.633   3.844
11799TIP3    H235355   4.666   7.629   3.921
11800TIP3   OH235356   1.939   0.401   4.270
11800TIP3    H135357   1.907   0.465   4.334
11800TIP3    H235358   1.923   0.316   4.310
11801TIP3   OH235359   7.967   2.353   1.441
11801TIP3    H135360   8.039   2.361   1.503
11801TIP3    H235361   7.996   2.286   1.379
11802TIP3   OH235362   3.611   0.884   2.993
11802TIP3    H135363   3.584   0.836   3.072
11802TIP3    H235364   3.554   0.961   2.991
11803TIP3   OH235365   5.107   0.121   5.983
11803TIP3    H135366   5.030   0.088   5.937
11803TIP3    H235367   5.170   0.049   5.980
11804TIP3   OH235368   1.842   7.024   1.722
11804TIP3    H135369   1.767   7.032   1.663
11804TIP3    H235370   1.894   6.953   1.684
11805TIP3   OH235371   3.035   0.517   5.659
11805TIP3    H135372   3.113   0.471   5.688
11805TIP3    H235373   2.962   0.468   5.698
11806TIP3   OH235374   7.493   2.618   2.440
11806TIP3    H135375   7.576   2.570   2.433
11806TIP3    H235376   7.511   2.687   2.504
11807TIP3   OH235377   7.716   2.005   1.686
11807TIP3    H135378   7.626   2.020   1.715
11807TIP3    H235379   7.750   1.939   1.747
11808TIP3   OH235380   1.327   1.048   5.313
11808TIP3    H135381   1.265   0.995   5.362
11808TIP3    H235382   1.307   1.138   5.338
11809TIP3   OH235383   3.007   2.189   0.333
11809TIP3    H135384   2.988   2.116   0.391
11809TIP3    H235385   3.103   2.194   0.331
11810TIP3   OH235386   6.880   3.797   2.333
11810TIP3    H135387   6.854   3.858   2.402
11810TIP3    H235388   6.975   3.807   2.327
11811TIP3   OH235389   4.913   4.213   6.506
11811TIP3    H135390   4.845   4.160   6.548
11811TIP3    H235391   4.900   4.199   6.412
11812TIP3   OH235392   0.183   1.656   5.501
11812TIP3    H135393   0.103   1.707   5.491
11812TIP3    H235394   0.230   1.667   5.419
11813TIP3   OH235395   4.368   7.312   3.102
11813TIP3    H135396   4.333   7.376   3.040
11813TIP3    H235397   4.463   7.318   3.092
11814TIP3   OH235398   7.044   1.459   3.422
11814TIP3    H135399   7.056   1.544   3.465
11814TIP3    H235400   7.117   1.406   3.452
11815TIP3   OH235401   6.455   3.008   2.715
11815TIP3    H135402   6.427   2.958   2.792
11815TIP3    H235403   6.382   3.001   2.653
11816TIP3   OH235404   4.993   1.185   0.318
11816TIP3    H135405   4.959   1.234   0.243
11816TIP3    H235406   4.932   1.112   0.329
11817TIP3   OH235407   6.542   3.092   4.897
11817TIP3    H135408   6.474   3.049   4.846
11817TIP3    H235409   6.499   3.119   4.977
11818TIP3   OH235410   7.214   7.743   4.420
11818TIP3    H135411   7.260   7.679   4.364
11818TIP3    H235412   7.239   7.720   4.509
11819TIP3   OH235413   5.229   7.183   5.009
11819TIP3    H135414   5.307   7.177   4.953
11819TIP3    H235415   5.191   7.267   4.987
11820TIP3   OH235416   1.700   0.292   2.204
11820TIP3    H135417   1.698   0.202   2.235
11820TIP3    H235418   1.616   0.306   2.161
11821TIP3   OH235419   4.072   7.174   0.416
11821TIP3    H135420   4.164   7.199   0.407
11821TIP3    H235421   4.031   7.249   0.459
11822TIP3   OH235422   5.082   7.766   2.849
11822TIP3    H135423   5.124   7.842   2.889
11822TIP3    H235424   5.132   7.752   2.768
11823TIP3   OH235425   7.825   3.345   6.645
11823TIP3    H135426   7.852   3.373   6.558
11823TIP3    H235427   7.901   3.300   6.681
11824TIP3   OH235428   1.593   4.391   4.626
11824TIP3    H135429   1.618   4.384   4.535
11824TIP3    H235430   1.574   4.302   4.654
11825TIP3   OH235431   6.391   6.425   3.610
11825TIP3    H135432   6.353   6.395   3.527
11825TIP3    H235433   6.350   6.510   3.626
11826TIP3   OH235434   7.571   3.884   0.387
11826TIP3    H135435   7.644   3.907   0.445
11826TIP3    H235436   7.492   3.901   0.439
11827TIP3   OH235437   3.555   3.732   5.788
11827TIP3    H135438   3.522   3.760   5.703
11827TIP3    H235439   3.483   3.680   5.826
11828TIP3   OH235440   6.580   5.058   6.204
11828TIP3    H135441   6.566   5.082   6.113
11828TIP3    H235442   6.498   5.077   6.248
11829TIP3   OH235443   7.780   0.841   2.485
11829TIP3    H135444   7.777   0.752   2.519
11829TIP3    H235445   7.706   0.885   2.528
11830TIP3   OH235446   6.945   6.875   4.619
11830TIP3    H135447   6.903   6.849   4.537
11830TIP3    H235448   6.971   6.792   4.660
11831TIP3   OH235449   4.807   4.364   1.174
11831TIP3    H135450   4.733   4.368   1.114
11831TIP3    H235451   4.871   4.307   1.131
11832TIP3   OH235452   4.747   3.242   5.475
11832TIP3    H135453   4.669   3.296   5.485
11832TIP3    H235454   4.714   3.153   5.466
11833TIP3   OH235455   0.137   4.472   3.510
11833TIP3    H135456   0.206   4.470   3.577
11833TIP3    H235457   0.164   4.543   3.451
11834TIP3   OH235458   3.228   3.602   0.272
11834TIP3    H135459   3.266   3.584   0.358
11834TIP3    H235460   3.162   3.534   0.261
11835TIP3   OH235461   5.654   6.857   1.225
11835TIP3    H135462   5.672   6.947   1.252
11835TIP3    H235463   5.560   6.857   1.205
11836TIP3   OH235464   0.445   4.956   6.733
11836TIP3    H135465   0.452   4.886   6.798
11836TIP3    H235466   0.516   4.938   6.671
11837TIP3   OH235467   5.786   3.335   2.426
11837TIP3    H135468   5.736   3.322   2.506
11837TIP3    H235469   5.785   3.429   2.412
11838TIP3   OH235470   6.739   6.580   1.206
11838TIP3    H135471   6.671   6.560   1.270
11838TIP3    H235472   6.693   6.583   1.122
11839TIP3   OH235473   8.260   0.810   3.196
11839TIP3    H135474   8.199   0.809   3.269
11839TIP3    H235475   8.326   0.745   3.219
11840TIP3   OH235476   4.704   4.118   6.071
11840TIP3    H135477   4.781   4.095   6.122
11840TIP3    H235478   4.638   4.054   6.097
11841TIP3   OH235479   4.640   6.083   3.492
11841TIP3    H135480   4.644   5.990   3.514
11841TIP3    H235481   4.547   6.106   3.503
11842TIP3   OH235482   5.953   5.272   6.146
11842TIP3    H135483   5.891   5.337   6.113
11842TIP3    H235484   6.014   5.258   6.073
11843TIP3   OH235485   6.460   2.732   1.196
11843TIP3    H135486   6.502   2.816   1.181
11843TIP3    H235487   6.372   2.742   1.160
11844TIP3   OH235488   2.875   4.711   1.045
11844TIP3    H135489   2.860   4.727   1.138
11844TIP3    H235490   2.914   4.624   1.041
11845TIP3   OH235491   2.219   4.833   4.754
11845TIP3    H135492   2.161   4.765   4.788
11845TIP3    H235493   2.161   4.905   4.729
11846TIP3   OH235494   5.011   1.809   1.150
11846TIP3    H135495   5.054   1.725   1.133
11846TIP3    H235496   5.079   1.862   1.193
11847TIP3   OH235497   6.325   3.018   2.490
11847TIP3    H135498   6.268   3.093   2.477
11847TIP3    H235499   6.337   2.981   2.403
11848TIP3   OH235500   6.734   4.271   6.581
11848TIP3    H135501   6.818   4.246   6.541
11848TIP3    H235502   6.676   4.197   6.563
11849TIP3   OH235503   0.316   3.710   5.902
11849TIP3    H135504   0.309   3.784   5.962
11849TIP3    H235505   0.225   3.694   5.874
11850TIP3   OH235506   6.120   1.683   4.703
11850TIP3    H135507   6.092   1.633   4.779
11850TIP3    H235508   6.181   1.626   4.656
11851TIP3   OH235509   5.599   4.139   1.161
11851TIP3    H135510   5.656   4.084   1.214
11851TIP3    H235511   5.543   4.078   1.114
11852TIP3   OH235512   1.930   1.242   1.985
11852TIP3    H135513   2.022   1.216   1.978
11852TIP3    H235514   1.906   1.223   2.075
11853TIP3   OH235515   8.162   4.972   1.639
11853TIP3    H135516   8.235   4.944   1.695
11853TIP3    H235517   8.102   4.897   1.639
11854TIP3   OH235518   6.419   1.693   5.114
11854TIP3    H135519   6.377   1.772   5.080
11854TIP3    H235520   6.350   1.648   5.164
11855TIP3   OH235521   4.256   4.562   1.466
11855TIP3    H135522   4.192   4.571   1.536
11855TIP3    H235523   4.240   4.476   1.429
11856TIP3   OH235524   1.146   0.199   6.693
11856TIP3    H135525   1.179   0.151   6.617
11856TIP3    H235526   1.212   0.267   6.709
11857TIP3   OH235527   4.137   3.069   0.825
11857TIP3    H135528   4.168   3.050   0.736
11857TIP3    H235529   4.135   2.983   0.868
11858TIP3   OH235530   3.401   5.438   0.953
11858TIP3    H135531   3.343   5.490   1.009
11858TIP3    H235532   3.453   5.502   0.905
11859TIP3   OH235533   5.194   6.859   6.545
11859TIP3    H135534   5.173   6.766   6.549
11859TIP3    H235535   5.138   6.893   6.475
11860TIP3   OH235536   1.006   0.312   2.159
11860TIP3    H135537   1.020   0.350   2.072
11860TIP3    H235538   0.945   0.372   2.202
11861TIP3   OH235539   0.959   3.449   4.795
11861TIP3    H135540   0.936   3.506   4.722
11861TIP3    H235541   0.874   3.418   4.828
11862TIP3   OH235542   4.202   1.233   2.193
11862TIP3    H135543   4.238   1.292   2.127
11862TIP3    H235544   4.113   1.216   2.163
11863TIP3   OH235545   2.675   1.093   2.379
11863TIP3    H135546   2.659   1.028   2.311
11863TIP3    H235547   2.615   1.069   2.449
11864TIP3   OH235548   1.361   0.740   0.837
11864TIP3    H135549   1.323   0.683   0.905
11864TIP3    H235550   1.306   0.724   0.760
11865TIP3   OH235551   5.064   7.210   2.229
11865TIP3    H135552   5.055   7.205   2.324
11865TIP3    H235553   5.154   7.241   2.216
11866TIP3   OH235554   6.740   6.302   2.947
11866TIP3    H135555   6.675   6.296   2.877
11866TIP3    H235556   6.689   6.292   3.028
11867TIP3   OH235557   1.158   6.967   4.693
11867TIP3    H135558   1.121   7.055   4.686
11867TIP3    H235559   1.086   6.909   4.668
11868TIP3   OH235560   1.626   1.876   4.839
11868TIP3    H135561   1.721   1.888   4.837
11868TIP3    H235562   1.606   1.850   4.929
11869TIP3   OH235563   8.269   2.443   5.641
11869TIP3    H135564   8.302   2.464   5.553
11869TIP3    H235565   8.199   2.506   5.655
11870TIP3   OH235566   1.835   2.269   6.393
11870TIP3    H135567   1.784   2.348   6.375
11870TIP3    H235568   1.903   2.299   6.454
11871TIP3   OH235569   7.110   4.093   3.872
11871TIP3    H135570   7.158   4.054   3.799
11871TIP3    H235571   7.021   4.105   3.839
11872TIP3   OH235572   5.157   3.501   5.751
11872TIP3    H135573   5.147   3.409   5.778
11872TIP3    H235574   5.161   3.549   5.833
11873TIP3   OH235575   4.192   6.060   1.108
11873TIP3    H135576   4.181   5.972   1.072
11873TIP3    H235577   4.110   6.105   1.088
11874TIP3   OH235578   6.286   0.204   0.098
11874TIP3    H135579   6.217   0.253   0.054
11874TIP3    H235580   6.301   0.128   0.042
11875TIP3   OH235581   7.807   2.932   5.587
11875TIP3    H135582   7.880   2.989   5.561
11875TIP3    H235583   7.733   2.991   5.599
11876TIP3   OH235584   2.820   0.191   4.894
11876TIP3    H135585   2.805   0.251   4.967
11876TIP3    H235586   2.909   0.211   4.864
11877TIP3   OH235587   2.262   7.469   0.201
11877TIP3    H135588   2.325   7.499   0.267
11877TIP3    H235589   2.194   7.536   0.201
11878TIP3   OH235590   5.393   6.651   5.786
11878TIP3    H135591   5.323   6.615   5.840
11878TIP3    H235592   5.468   6.593   5.801
11879TIP3   OH235593   0.816   5.373   1.296
11879TIP3    H135594   0.867   5.382   1.216
11879TIP3    H235595   0.802   5.279   1.306
11880TIP3   OH235596   6.394   6.202   6.643
11880TIP3    H135597   6.340   6.245   6.578
11880TIP3    H235598   6.480   6.243   6.635
11881TIP3   OH235599   2.099   3.131   0.037
11881TIP3    H135600   2.046   3.157  -0.038
11881TIP3    H235601   2.175   3.087  -0.001
11882TIP3   OH235602   0.866   0.341   0.569
11882TIP3    H135603   0.917   0.292   0.504
11882TIP3    H235604   0.775   0.332   0.541
11883TIP3   OH235605   6.741   6.354   2.369
11883TIP3    H135606   6.707   6.265   2.357
11883TIP3    H235607   6.737   6.369   2.463
11884TIP3   OH235608   3.907   7.100   0.239
11884TIP3    H135609   3.969   7.125   0.308
11884TIP3    H235610   3.952   7.030   0.191
11885TIP3   OH235611   5.535   1.954   5.565
11885TIP3    H135612   5.548   1.885   5.501
11885TIP3    H235613   5.550   1.912   5.650
11886TIP3   OH235614   0.622   7.115   4.531
11886TIP3    H135615   0.614   7.084   4.441
11886TIP3    H235616   0.636   7.035   4.583
11887TIP3   OH235617   4.689   0.216   3.701
11887TIP3    H135618   4.710   0.291   3.645
11887TIP3    H235619   4.626   0.166   3.650
11888TIP3   OH235620   7.338   6.658   5.303
11888TIP3    H135621   7.377   6.740   5.333
11888TIP3    H235622   7.262   6.685   5.251
11889TIP3   OH235623   7.114   2.863   2.128
11889TIP3    H135624   7.125   2.937   2.188
11889TIP3    H235625   7.199   2.820   2.127
11890TIP3   OH235626   5.968   2.103   5.230
11890TIP3    H135627   5.875   2.113   5.210
11890TIP3    H235628   6.013   2.153   5.162
11891TIP3   OH235629   1.181   6.315   4.807
11891TIP3    H135630   1.130   6.234   4.801
11891TIP3    H235631   1.149   6.357   4.886
11892TIP3   OH235632   2.237   4.927   6.689
11892TIP3    H135633   2.208   4.904   6.600
11892TIP3    H235634   2.166   4.897   6.746
11893TIP3   OH235635   3.905   3.086   6.125
11893TIP3    H135636   3.821   3.103   6.167
11893TIP3    H235637   3.883   3.058   6.036
11894TIP3   OH235638   7.544   3.210   5.375
11894TIP3    H135639   7.551   3.169   5.461
11894TIP3    H235640   7.617   3.272   5.371
11895TIP3   OH235641   0.267   2.175   1.131
11895TIP3    H135642   0.307   2.108   1.186
11895TIP3    H235643   0.238   2.127   1.053
11896TIP3   OH235644   1.407   2.883   1.162
11896TIP3    H135645   1.410   2.909   1.254
11896TIP3    H235646   1.482   2.825   1.150
11897TIP3   OH235647   0.875   1.578   1.592
11897TIP3    H135648   0.943   1.640   1.564
11897TIP3    H235649   0.795   1.609   1.549
11898TIP3   OH235650   3.704   3.039   1.321
11898TIP3    H135651   3.752   3.112   1.282
11898TIP3    H235652   3.648   3.005   1.251
11899TIP3   OH235653   1.792   7.438   0.409
11899TIP3    H135654   1.820   7.383   0.482
11899TIP3    H235655   1.703   7.409   0.389
11900TIP3   OH235656   1.084   5.957   5.094
11900TIP3    H135657   1.118   5.884   5.043
11900TIP3    H235658   1.108   5.938   5.184
11901TIP3   OH235659   4.192   2.410   5.919
11901TIP3    H135660   4.247   2.406   5.997
11901TIP3    H235661   4.225   2.485   5.870
11902TIP3   OH235662   6.433   7.243   3.332
11902TIP3    H135663   6.429   7.197   3.248
11902TIP3    H235664   6.420   7.335   3.310
11903TIP3   OH235665   7.585   2.567   4.494
11903TIP3    H135666   7.527   2.512   4.442
11903TIP3    H235667   7.526   2.624   4.543
11904TIP3   OH235668   6.891   5.990   1.019
11904TIP3    H135669   6.797   5.985   0.999
11904TIP3    H235670   6.931   6.018   0.936
11905TIP3   OH235671   5.793   6.837   1.546
11905TIP3    H135672   5.880   6.804   1.524
11905TIP3    H235673   5.808   6.892   1.623
11906TIP3   OH235674   5.106   3.878   0.193
11906TIP3    H135675   5.149   3.801   0.157
11906TIP3    H235676   5.022   3.846   0.225
11907TIP3   OH235677   1.940   0.726   6.184
11907TIP3    H135678   1.992   0.787   6.131
11907TIP3    H235679   1.938   0.645   6.134
11908TIP3   OH235680   6.816   3.420   3.324
11908TIP3    H135681   6.898   3.435   3.371
11908TIP3    H235682   6.807   3.325   3.321
11909TIP3   OH235683   6.007   1.296   2.037
11909TIP3    H135684   6.017   1.298   2.132
11909TIP3    H235685   6.021   1.204   2.014
11910TIP3   OH235686   6.683   1.959   0.391
11910TIP3    H135687   6.641   1.977   0.307
11910TIP3    H235688   6.776   1.975   0.375
11911TIP3   OH235689   5.593   0.367   5.495
11911TIP3    H135690   5.567   0.459   5.492
11911TIP3    H235691   5.549   0.328   5.420
11912TIP3   OH235692   2.179   5.733   3.735
11912TIP3    H135693   2.172   5.654   3.682
11912TIP3    H235694   2.235   5.708   3.809
11913TIP3   OH235695   7.062   5.301   6.082
11913TIP3    H135696   7.047   5.285   5.989
11913TIP3    H235697   7.022   5.386   6.099
11914TIP3   OH235698   0.412   1.144   1.006
11914TIP3    H135699   0.477   1.140   1.077
11914TIP3    H235700   0.427   1.064   0.956
11915TIP3   OH235701   0.814   1.299   0.221
11915TIP3    H135702   0.810   1.242   0.298
11915TIP3    H235703   0.905   1.329   0.219
11916TIP3   OH235704   7.903   4.190   3.502
11916TIP3    H135705   7.912   4.193   3.406
11916TIP3    H235706   7.992   4.206   3.535
11917TIP3   OH235707   1.701   4.235   6.005
11917TIP3    H135708   1.710   4.313   5.951
11917TIP3    H235709   1.631   4.257   6.067
11918TIP3   OH235710   8.230   7.056   6.147
11918TIP3    H135711   8.235   6.963   6.124
11918TIP3    H235712   8.235   7.057   6.243
11919TIP3   OH235713   0.092   3.436   6.009
11919TIP3    H135714   0.063   3.500   5.944
11919TIP3    H235715   0.048   3.463   6.090
11920TIP3   OH235716   0.988   5.035   2.882
11920TIP3    H135717   1.012   5.084   2.960
11920TIP3    H235718   1.057   4.969   2.873
11921TIP3   OH235719   1.971   7.872   1.282
11921TIP3    H135720   2.029   7.820   1.226
11921TIP3    H235721   1.890   7.881   1.230
11922TIP3   OH235722   5.652   4.369   5.960
11922TIP3    H135723   5.565   4.405   5.940
11922TIP3    H235724   5.712   4.442   5.947
11923TIP3   OH235725   3.615   7.338   4.657
11923TIP3    H135726   3.696   7.297   4.625
11923TIP3    H235727   3.547   7.304   4.600
11924TIP3   OH235728   1.159   0.873   6.444
11924TIP3    H135729   1.221   0.902   6.511
11924TIP3    H235730   1.157   0.777   6.454
11925TIP3   OH235731   6.524   0.165   4.178
11925TIP3    H135732   6.460   0.096   4.198
11925TIP3    H235733   6.580   0.127   4.110
11926TIP3   OH235734   4.547   0.471   2.257
11926TIP3    H135735   4.523   0.559   2.228
11926TIP3    H235736   4.566   0.423   2.176
11927TIP3   OH235737   4.466   6.376   5.213
11927TIP3    H135738   4.408   6.354   5.140
11927TIP3    H235739   4.433   6.325   5.287
11928TIP3   OH235740   6.666   0.643   4.687
11928TIP3    H135741   6.630   0.726   4.655
11928TIP3    H235742   6.761   0.658   4.689
11929TIP3   OH235743   6.624   3.027   0.996
11929TIP3    H135744   6.682   2.966   0.950
11929TIP3    H235745   6.679   3.063   1.066
11930TIP3   OH235746   6.243   4.516   1.723
11930TIP3    H135747   6.171   4.575   1.699
11930TIP3    H235748   6.268   4.544   1.811
11931TIP3   OH235749   5.940   6.559   1.484
11931TIP3    H135750   5.881   6.503   1.433
11931TIP3    H235751   5.903   6.560   1.572
11932TIP3   OH235752   5.983   3.243   5.491
11932TIP3    H135753   5.901   3.194   5.487
11932TIP3    H235754   5.957   3.334   5.475
11933TIP3   OH235755   6.038   0.753   6.491
11933TIP3    H135756   6.000   0.667   6.472
11933TIP3    H235757   6.132   0.736   6.498
11934TIP3   OH235758   5.444   5.746   3.026
11934TIP3    H135759   5.527   5.778   2.991
11934TIP3    H235760   5.468   5.671   3.080
11935TIP3   OH235761   7.859   5.996   2.312
11935TIP3    H135762   7.939   6.045   2.294
11935TIP3    H235763   7.799   6.060   2.352
11936TIP3   OH235764   5.993   0.941   6.246
11936TIP3    H135765   5.993   0.880   6.319
11936TIP3    H235766   5.920   0.913   6.191
11937TIP3   OH235767   3.665   5.941   0.601
11937TIP3    H135768   3.610   6.004   0.648
11937TIP3    H235769   3.606   5.900   0.537
11938TIP3   OH235770   4.075   2.739   3.528
11938TIP3    H135771   4.118   2.658   3.558
11938TIP3    H235772   4.113   2.808   3.583
11939TIP3   OH235773   7.402   2.550   2.197
11939TIP3    H135774   7.433   2.577   2.284
11939TIP3    H235775   7.311   2.524   2.211
11940TIP3   OH235776   2.724   5.982   6.146
11940TIP3    H135777   2.753   5.960   6.058
11940TIP3    H235778   2.633   5.953   6.150
11941TIP3   OH235779   4.058   4.006   2.459
11941TIP3    H135780   4.063   4.032   2.551
11941TIP3    H235781   3.964   4.000   2.441
11942TIP3   OH235782   6.822   2.132   4.248
11942TIP3    H135783   6.860   2.213   4.281
11942TIP3    H235784   6.834   2.069   4.318
11943TIP3   OH235785   3.691   6.608   6.572
11943TIP3    H135786   3.776   6.613   6.528
11943TIP3    H235787   3.634   6.663   6.519
11944TIP3   OH235788   1.446   4.970   4.070
11944TIP3    H135789   1.468   5.005   3.984
11944TIP3    H235790   1.354   4.990   4.082
11945TIP3   OH235791   7.113   0.335   1.120
11945TIP3    H135792   7.119   0.363   1.029
11945TIP3    H235793   7.053   0.261   1.118
11946TIP3   OH235794   1.992   1.722   5.987
11946TIP3    H135795   2.054   1.760   6.048
11946TIP3    H235796   2.023   1.750   5.901
11947TIP3   OH235797   3.299   1.323   0.074
11947TIP3    H135798   3.392   1.330   0.094
11947TIP3    H235799   3.260   1.282   0.151
11948TIP3   OH235800   2.738   1.820   5.030
11948TIP3    H135801   2.824   1.831   5.070
11948TIP3    H235802   2.687   1.773   5.096
11949TIP3   OH235803   0.673   0.875   2.011
11949TIP3    H135804   0.601   0.827   2.052
11949TIP3    H235805   0.741   0.880   2.079
11950TIP3   OH235806   0.036   3.858   2.803
11950TIP3    H135807   0.002   3.945   2.783
11950TIP3    H235808   0.099   3.840   2.733
11951TIP3   OH235809   4.889   7.022   3.785
11951TIP3    H135810   4.908   6.947   3.842
11951TIP3    H235811   4.975   7.058   3.765
11952TIP3   OH235812   2.747   6.147   1.995
11952TIP3    H135813   2.831   6.177   2.030
11952TIP3    H235814   2.692   6.133   2.072
11953TIP3   OH235815   8.001   2.065   1.608
11953TIP3    H135816   7.907   2.047   1.610
11953TIP3    H235817   8.041   1.983   1.579
11954TIP3   OH235818   5.141   6.840   3.688
11954TIP3    H135819   5.086   6.839   3.610
11954TIP3    H235820   5.230   6.828   3.656
11955TIP3   OH235821   0.103   4.087   3.967
11955TIP3    H135822   0.082   4.107   3.876
11955TIP3    H235823   0.185   4.039   3.964
11956TIP3   OH235824   0.758   4.051   1.957
11956TIP3    H135825   0.831   4.045   1.895
11956TIP3    H235826   0.739   4.145   1.962
11957TIP3   OH235827   5.460   1.593   1.676
11957TIP3    H135828   5.481   1.664   1.737
11957TIP3    H235829   5.384   1.625   1.627
11958TIP3   OH235830   0.523   0.743   1.268
11958TIP3    H135831   0.492   0.833   1.266
11958TIP3    H235832   0.467   0.696   1.205
11959TIP3   OH235833   2.807   5.911   1.257
11959TIP3    H135834   2.829   5.982   1.197
11959TIP3    H235835   2.788   5.955   1.340
11960TIP3   OH235836   7.105   6.394   0.630
11960TIP3    H135837   7.010   6.384   0.639
11960TIP3    H235838   7.128   6.333   0.560
11961TIP3   OH235839   1.679   7.522   5.505
11961TIP3    H135840   1.642   7.434   5.512
11961TIP3    H235841   1.769   7.513   5.535
11962TIP3   OH235842   8.241   3.360   2.893
11962TIP3    H135843   8.261   3.333   2.803
11962TIP3    H235844   8.291   3.440   2.906
11963TIP3   OH235845   6.325   4.880   2.574
11963TIP3    H135846   6.383   4.830   2.631
11963TIP3    H235847   6.377   4.898   2.496
11964TIP3   OH235848   0.498   1.158   4.485
11964TIP3    H135849   0.554   1.118   4.552
11964TIP3    H235850   0.459   1.083   4.440
11965TIP3   OH235851   6.626   5.320   6.492
11965TIP3    H135852   6.642   5.228   6.512
11965TIP3    H235853   6.682   5.368   6.554
11966TIP3   OH235854   6.721   3.306   0.609
11966TIP3    H135855   6.691   3.232   0.662
11966TIP3    H235856   6.645   3.330   0.557
11967TIP3   OH235857   1.612   5.039   4.927
11967TIP3    H135858   1.585   5.105   4.991
11967TIP3    H235859   1.532   4.990   4.908
11968TIP3   OH235860   5.903   6.555   3.935
11968TIP3    H135861   5.875   6.645   3.922
11968TIP3    H235862   5.969   6.561   4.005
11969TIP3   OH235863   6.327   7.544   3.370
11969TIP3    H135864   6.345   7.632   3.338
11969TIP3    H235865   6.247   7.517   3.324
11970TIP3   OH235866   3.884   4.466   0.837
11970TIP3    H135867   3.830   4.498   0.909
11970TIP3    H235868   3.926   4.544   0.802
11971TIP3   OH235869   1.437   2.516   1.699
11971TIP3    H135870   1.362   2.475   1.656
11971TIP3    H235871   1.474   2.574   1.633
11972TIP3   OH235872   5.291   3.712   4.396
11972TIP3    H135873   5.346   3.775   4.352
11972TIP3    H235874   5.340   3.686   4.474
11973TIP3   OH235875   7.350   5.847   4.597
11973TIP3    H135876   7.313   5.777   4.544
11973TIP3    H235877   7.355   5.810   4.685
11974TIP3   OH235878   5.538   4.906   3.460
11974TIP3    H135879   5.583   4.985   3.492
11974TIP3    H235880   5.577   4.889   3.374
11975TIP3   OH235881   7.534   6.457   1.176
11975TIP3    H135882   7.455   6.439   1.125
11975TIP3    H235883   7.508   6.527   1.236
11976TIP3   OH235884   8.197   3.767   6.182
11976TIP3    H135885   8.153   3.844   6.145
11976TIP3    H235886   8.209   3.788   6.274
11977TIP3   OH235887   5.309   1.683   5.009
11977TIP3    H135888   5.320   1.719   5.097
11977TIP3    H235889   5.294   1.590   5.022
11978TIP3   OH235890   3.711   0.722   0.228
11978TIP3    H135891   3.616   0.731   0.233
11978TIP3    H235892   3.741   0.738   0.318
11979TIP3   OH235893   4.641   7.598   0.780
11979TIP3    H135894   4.550   7.599   0.748
11979TIP3    H235895   4.633   7.592   0.875
11980TIP3   OH235896   8.004   6.438   2.462
11980TIP3    H135897   8.037   6.520   2.499
11980TIP3    H235898   7.957   6.464   2.382
11981TIP3   OH235899   8.258   6.073   4.908
11981TIP3    H135900   8.215   6.006   4.855
11981TIP3    H235901   8.215   6.155   4.884
11982TIP3   OH235902   5.114   7.503   0.671
11982TIP3    H135903   5.174   7.447   0.719
11982TIP3    H235904   5.139   7.592   0.696
11983TIP3   OH235905   5.829   5.134   3.734
11983TIP3    H135906   5.807   5.057   3.681
11983TIP3    H235907   5.804   5.109   3.823
11984TIP3   OH235908   5.464   5.200   4.054
11984TIP3    H135909   5.427   5.288   4.050
11984TIP3    H235910   5.442   5.168   4.142
11985TIP3   OH235911   0.905   7.431   6.764
11985TIP3    H135912   0.872   7.511   6.805
11985TIP3    H235913   0.833   7.401   6.708
11986TIP3   OH235914   4.149   3.437   3.471
11986TIP3    H135915   4.153   3.505   3.404
11986TIP3    H235916   4.136   3.485   3.553
11987TIP3   OH235917   6.889   1.742   1.130
11987TIP3    H135918   6.802   1.750   1.168
11987TIP3    H235919   6.932   1.825   1.151
11988TIP3   OH235920   5.295   7.605   4.155
11988TIP3    H135921   5.362   7.647   4.101
11988TIP3    H235922   5.236   7.563   4.093
11989TIP3   OH235923   8.107   3.994   2.036
11989TIP3    H135924   8.070   4.017   1.951
11989TIP3    H235925   8.201   3.986   2.019
11990TIP3   OH235926   1.794   4.361   0.277
11990TIP3    H135927   1.708   4.320   0.288
11990TIP3    H235928   1.781   4.452   0.305
11991TIP3   OH235929   7.620   1.276   1.182
11991TIP3    H135930   7.534   1.301   1.214
11991TIP3    H235931   7.651   1.352   1.132
11992TIP3   OH235932   4.516   5.718   2.686
11992TIP3    H135933   4.555   5.642   2.644
11992TIP3    H235934   4.454   5.682   2.749
11993TIP3   OH235935   5.016   0.876   5.563
11993TIP3    H135936   5.048   0.788   5.584
11993TIP3    H235937   4.978   0.867   5.476
11994TIP3   OH235938   6.133   5.189   3.134
11994TIP3    H135939   6.200   5.135   3.092
11994TIP3    H235940   6.073   5.126   3.173
11995TIP3   OH235941   3.958   3.775   4.808
11995TIP3    H135942   3.984   3.800   4.896
11995TIP3    H235943   3.869   3.810   4.798
11996TIP3   OH235944   0.448   4.951   3.468
11996TIP3    H135945   0.467   4.945   3.374
11996TIP3    H235946   0.367   4.900   3.478
11997TIP3   OH235947   4.354   1.946   6.657
11997TIP3    H135948   4.433   1.895   6.673
11997TIP3    H235949   4.386   2.033   6.635
11998TIP3   OH235950   8.243   3.504   6.734
11998TIP3    H135951   8.214   3.415   6.757
11998TIP3    H235952   8.239   3.552   6.817
11999TIP3   OH235953   4.294   1.630   2.956
11999TIP3    H135954   4.247   1.688   2.896
11999TIP3    H235955   4.320   1.556   2.901
12000TIP3   OH235956   6.097   1.343   5.069
12000TIP3    H135957   6.146   1.381   5.142
12000TIP3    H235958   6.070   1.257   5.101
12001TIP3   OH235959   1.984   7.575   3.026
12001TIP3    H135960   1.956   7.564   2.935
12001TIP3    H235961   1.983   7.486   3.062
12002TIP3   OH235962   7.333   5.588   4.473
12002TIP3    H135963   7.385   5.528   4.419
12002TIP3    H235964   7.305   5.534   4.547
12003TIP3   OH235965   1.177   3.626   5.052
12003TIP3    H135966   1.247   3.624   4.986
12003TIP3    H235967   1.139   3.539   5.050
12004TIP3   OH235968   1.038   2.909   2.218
12004TIP3    H135969   1.124   2.870   2.203
12004TIP3    H235970   1.037   2.986   2.161
12005TIP3   OH235971   0.607   4.093   0.760
12005TIP3    H135972   0.660   4.075   0.682
12005TIP3    H235973   0.655   4.161   0.807
12006TIP3   OH235974   3.212   6.832   2.676
12006TIP3    H135975   3.156   6.779   2.733
12006TIP3    H235976   3.286   6.856   2.732
12007TIP3   OH235977   1.975   7.053   0.947
12007TIP3    H135978   1.981   6.959   0.965
12007TIP3    H235979   1.927   7.089   1.022
12008TIP3   OH235980   6.907   6.901   3.453
12008TIP3    H135981   6.904   6.991   3.422
12008TIP3    H235982   6.951   6.906   3.538
12009TIP3   OH235983   2.970   4.587   0.426
12009TIP3    H135984   2.979   4.501   0.467
12009TIP3    H235985   3.043   4.638   0.460
12010TIP3   OH235986   0.312   7.043   1.938
12010TIP3    H135987   0.384   7.049   2.001
12010TIP3    H235988   0.323   6.958   1.896
12011TIP3   OH235989   7.170   3.135   5.758
12011TIP3    H135990   7.118   3.055   5.762
12011TIP3    H235991   7.260   3.104   5.742
12012TIP3   OH235992   3.276   7.403   6.575
12012TIP3    H135993   3.321   7.319   6.567
12012TIP3    H235994   3.329   7.453   6.636
12013TIP3   OH235995   4.976   5.667   0.326
12013TIP3    H135996   5.029   5.741   0.354
12013TIP3    H235997   4.885   5.697   0.335
12014TIP3   OH235998   6.749   0.259   1.078
12014TIP3    H135999   6.809   0.213   1.019
12014TIP3    H236000   6.678   0.290   1.021
12015TIP3   OH236001   1.166   0.790   0.664
12015TIP3    H136002   1.078   0.791   0.627
12015TIP3    H236003   1.159   0.840   0.745
12016TIP3   OH236004   7.244   0.225   4.313
12016TIP3    H136005   7.284   0.307   4.341
12016TIP3    H236006   7.185   0.250   4.242
12017TIP3   OH236007   2.475   7.470   2.668
12017TIP3    H136008   2.517   7.532   2.728
12017TIP3    H236009   2.520   7.483   2.585
12018TIP3   OH236010   3.700   7.248   4.396
12018TIP3    H136011   3.698   7.153   4.390
12018TIP3    H236012   3.768   7.275   4.334
12019TIP3   OH236013   3.987   0.338   2.204
12019TIP3    H136014   4.014   0.394   2.131
12019TIP3    H236015   4.019   0.384   2.282
12020TIP3   OH236016   7.516   2.509   5.321
12020TIP3    H136017   7.493   2.598   5.294
12020TIP3    H236018   7.611   2.504   5.310
12021TIP3   OH236019   4.289   2.563   5.560
12021TIP3    H136020   4.261   2.591   5.647
12021TIP3    H236021   4.210   2.525   5.520
12022TIP3   OH236022   0.301   6.197   4.424
12022TIP3    H136023   0.382   6.146   4.422
12022TIP3    H236024   0.240   6.148   4.368
12023TIP3   OH236025   3.144   6.519   4.109
12023TIP3    H136026   3.236   6.548   4.108
12023TIP3    H236027   3.096   6.590   4.067
12024TIP3   OH236028   5.109   7.793   1.721
12024TIP3    H136029   5.116   7.887   1.741
12024TIP3    H236030   5.052   7.758   1.789
12025TIP3   OH236031   4.306   2.626   0.441
12025TIP3    H136032   4.288   2.561   0.373
12025TIP3    H236033   4.285   2.581   0.523
12026TIP3   OH236034   2.790   6.992   5.786
12026TIP3    H136035   2.810   6.899   5.780
12026TIP3    H236036   2.847   7.033   5.720
12027TIP3   OH236037   7.352   2.831   0.611
12027TIP3    H136038   7.343   2.819   0.516
12027TIP3    H236039   7.345   2.925   0.624
12028TIP3   OH236040   1.720   2.215   5.774
12028TIP3    H136041   1.740   2.240   5.864
12028TIP3    H236042   1.763   2.281   5.720
12029TIP3   OH236043   3.712   4.750   1.063
12029TIP3    H136044   3.741   4.767   1.153
12029TIP3    H236045   3.784   4.782   1.009
12030TIP3   OH236046   3.549   6.749   6.391
12030TIP3    H136047   3.502   6.738   6.308
12030TIP3    H236048   3.482   6.775   6.454
12031TIP3   OH236049   1.106   4.737   6.520
12031TIP3    H136050   1.047   4.747   6.594
12031TIP3    H236051   1.105   4.822   6.476
12032TIP3   OH236052   0.601   2.972   6.061
12032TIP3    H136053   0.563   2.994   6.145
12032TIP3    H236054   0.598   3.053   6.010
12033TIP3   OH236055   5.239   5.417   6.714
12033TIP3    H136056   5.294   5.344   6.687
12033TIP3    H236057   5.151   5.379   6.721
12034TIP3   OH236058   7.838   5.670   0.044
12034TIP3    H136059   7.746   5.683   0.069
12034TIP3    H236060   7.864   5.753   0.005
12035TIP3   OH236061   7.189   0.265   6.010
12035TIP3    H136062   7.281   0.273   5.985
12035TIP3    H236063   7.179   0.173   6.035
12036TIP3   OH236064   3.100   6.390   4.837
12036TIP3    H136065   3.061   6.329   4.900
12036TIP3    H236066   3.076   6.477   4.870
12037TIP3   OH236067   4.960   1.279   3.025
12037TIP3    H136068   4.914   1.362   3.022
12037TIP3    H236069   4.910   1.226   3.087
12038TIP3   OH236070   0.948   2.824   2.464
12038TIP3    H136071   0.992   2.864   2.389
12038TIP3    H236072   0.855   2.827   2.443
12039TIP3   OH236073   8.258   7.182   5.721
12039TIP3    H136074   8.188   7.141   5.771
12039TIP3    H236075   8.214   7.236   5.656
12040TIP3   OH236076   6.283   1.048   6.701
12040TIP3    H136077   6.241   1.063   6.786
12040TIP3    H236078   6.217   1.000   6.650
12041TIP3   OH236079   6.216   7.157   0.288
12041TIP3    H136080   6.133   7.164   0.334
12041TIP3    H236081   6.193   7.123   0.201
12042TIP3   OH236082   4.969   6.142   5.956
12042TIP3    H136083   5.011   6.163   5.873
12042TIP3    H236084   5.032   6.171   6.022
12043TIP3   OH236085   6.784   3.281   1.082
12043TIP3    H136086   6.820   3.361   1.043
12043TIP3    H236087   6.769   3.303   1.173
12044TIP3   OH236088   5.533   4.489   3.384
12044TIP3    H136089   5.548   4.547   3.459
12044TIP3    H236090   5.618   4.481   3.343
12045TIP3   OH236091   4.182   6.430   3.129
12045TIP3    H136092   4.193   6.443   3.224
12045TIP3    H236093   4.104   6.481   3.108
12046TIP3   OH236094   4.622   3.685   6.334
12046TIP3    H136095   4.716   3.692   6.350
12046TIP3    H236096   4.582   3.744   6.398
12047TIP3   OH236097   2.391   5.678   6.006
12047TIP3    H136098   2.362   5.768   5.994
12047TIP3    H236099   2.486   5.682   6.000
12048TIP3   OH236100   2.266   2.919   4.358
12048TIP3    H136101   2.230   2.943   4.444
12048TIP3    H236102   2.329   2.988   4.339
12049TIP3   OH236103   0.655   2.839   5.066
12049TIP3    H136104   0.714   2.890   5.011
12049TIP3    H236105   0.595   2.904   5.103
12050TIP3   OH236106   0.574   5.500   4.147
12050TIP3    H136107   0.549   5.590   4.169
12050TIP3    H236108   0.668   5.505   4.133
12051TIP3   OH236109   7.614   2.951   4.759
12051TIP3    H136110   7.696   2.942   4.809
12051TIP3    H236111   7.568   2.868   4.773
12052TIP3   OH236112   0.480   5.754   6.357
12052TIP3    H136113   0.387   5.769   6.374
12052TIP3    H236114   0.482   5.710   6.272
12053TIP3   OH236115   7.584   5.295   4.565
12053TIP3    H136116   7.557   5.313   4.475
12053TIP3    H236117   7.525   5.225   4.594
12054TIP3   OH236118   0.373   6.161   2.553
12054TIP3    H136119   0.312   6.210   2.607
12054TIP3    H236120   0.332   6.076   2.541
12055TIP3   OH236121   4.883   7.265   5.994
12055TIP3    H136122   4.951   7.276   6.061
12055TIP3    H236123   4.858   7.173   6.000
12056TIP3   OH236124   0.552   2.256   3.250
12056TIP3    H136125   0.582   2.190   3.187
12056TIP3    H236126   0.501   2.207   3.314
12057TIP3   OH236127   5.161   3.229   6.379
12057TIP3    H136128   5.251   3.198   6.393
12057TIP3    H236129   5.172   3.310   6.330
12058TIP3   OH236130   7.227   3.411   2.656
12058TIP3    H136131   7.309   3.362   2.647
12058TIP3    H236132   7.162   3.355   2.613
12059TIP3   OH236133   5.612   1.805   0.176
12059TIP3    H136134   5.699   1.778   0.147
12059TIP3    H236135   5.628   1.876   0.238
12060TIP3   OH236136   0.314   1.352   1.663
12060TIP3    H136137   0.227   1.320   1.641
12060TIP3    H236138   0.303   1.447   1.673
12061TIP3   OH236139   0.396   5.832   1.548
12061TIP3    H136140   0.321   5.782   1.581
12061TIP3    H236141   0.461   5.827   1.618
12062TIP3   OH236142   4.700   2.126   3.685
12062TIP3    H136143   4.716   2.215   3.652
12062TIP3    H236144   4.728   2.129   3.776
12063TIP3   OH236145   2.991   6.402   2.522
12063TIP3    H136146   3.030   6.476   2.568
12063TIP3    H236147   2.978   6.336   2.590
12064TIP3   OH236148   6.762   2.564   3.046
12064TIP3    H136149   6.715   2.616   3.112
12064TIP3    H236150   6.730   2.598   2.962
12065TIP3   OH236151   5.086   5.671   3.066
12065TIP3    H136152   5.006   5.709   3.029
12065TIP3    H236153   5.134   5.746   3.101
12066TIP3   OH236154   7.543   0.861   2.617
12066TIP3    H136155   7.520   0.914   2.694
12066TIP3    H236156   7.475   0.883   2.553
12067TIP3   OH236157   6.279   5.380   4.808
12067TIP3    H136158   6.199   5.376   4.756
12067TIP3    H236159   6.298   5.288   4.831
12068TIP3   OH236160   3.910   1.345   0.427
12068TIP3    H136161   3.911   1.250   0.415
12068TIP3    H236162   3.893   1.357   0.521
12069TIP3   OH236163   7.101   4.563   5.679
12069TIP3    H136164   7.014   4.592   5.707
12069TIP3    H236165   7.149   4.644   5.663
12070TIP3   OH236166   6.960   2.977   2.531
12070TIP3    H136167   6.936   3.048   2.590
12070TIP3    H236168   6.877   2.940   2.502
12071TIP3   OH236169   7.381   2.681   5.608
12071TIP3    H136170   7.329   2.707   5.683
12071TIP3    H236171   7.472   2.692   5.637
12072TIP3   OH236172   7.898   4.758   6.666
12072TIP3    H136173   7.970   4.753   6.604
12072TIP3    H236174   7.819   4.760   6.611
12073TIP3   OH236175   2.246   2.482   0.386
12073TIP3    H136176   2.339   2.461   0.381
12073TIP3    H236177   2.223   2.468   0.478
12074TIP3   OH236178   2.133   6.127   3.832
12074TIP3    H136179   2.098   6.068   3.898
12074TIP3    H236180   2.062   6.139   3.770
12075TIP3   OH236181   3.254   6.597   5.797
12075TIP3    H136182   3.270   6.679   5.844
12075TIP3    H236183   3.286   6.614   5.708
12076TIP3   OH236184   7.428   5.235   0.971
12076TIP3    H136185   7.446   5.168   0.905
12076TIP3    H236186   7.347   5.276   0.941
12077TIP3   OH236187   6.995   4.119   2.696
12077TIP3    H136188   6.999   4.098   2.789
12077TIP3    H236189   7.079   4.162   2.678
12078TIP3   OH236190   7.178   4.997   1.492
12078TIP3    H136191   7.218   5.083   1.481
12078TIP3    H236192   7.134   5.001   1.577
12079TIP3   OH236193   0.237   1.188   5.569
12079TIP3    H136194   0.253   1.273   5.608
12079TIP3    H236195   0.175   1.205   5.498
12080TIP3   OH236196   1.061   5.185   3.113
12080TIP3    H136197   1.149   5.184   3.151
12080TIP3    H236198   1.006   5.227   3.179
12081TIP3   OH236199   3.716   5.765   1.515
12081TIP3    H136200   3.785   5.704   1.541
12081TIP3    H236201   3.652   5.711   1.469
12082TIP3   OH236202   2.728   3.816   5.381
12082TIP3    H136203   2.732   3.729   5.423
12082TIP3    H236204   2.645   3.853   5.410
12083TIP3   OH236205   3.301   0.789   3.494
12083TIP3    H136206   3.307   0.715   3.554
12083TIP3    H236207   3.391   0.809   3.470
12084TIP3   OH236208   2.819   2.636   1.877
12084TIP3    H136209   2.852   2.663   1.792
12084TIP3    H236210   2.772   2.712   1.910
12085TIP3   OH236211   2.373   5.379   0.028
12085TIP3    H136212   2.427   5.436  -0.026
12085TIP3    H236213   2.283   5.402   0.004
12086TIP3   OH236214   7.586   6.260   0.881
12086TIP3    H136215   7.591   6.164   0.889
12086TIP3    H236216   7.677   6.288   0.871
12087TIP3   OH236217   7.441   2.263   5.817
12087TIP3    H136218   7.411   2.195   5.756
12087TIP3    H236219   7.480   2.330   5.762
12088TIP3   OH236220   5.908   1.522   4.187
12088TIP3    H136221   5.816   1.501   4.171
12088TIP3    H236222   5.946   1.530   4.100
12089TIP3   OH236223   2.342   2.870   0.540
12089TIP3    H136224   2.361   2.964   0.545
12089TIP3    H236225   2.314   2.857   0.449
12090TIP3   OH236226   0.551   4.221   3.305
12090TIP3    H136227   0.531   4.210   3.212
12090TIP3    H236228   0.466   4.242   3.345
12091TIP3   OH236229   0.898   5.994   3.711
12091TIP3    H136230   0.863   6.049   3.641
12091TIP3    H236231   0.949   6.054   3.765
12092TIP3   OH236232   4.313   5.278   5.650
12092TIP3    H136233   4.288   5.212   5.584
12092TIP3    H236234   4.260   5.255   5.727
12093TIP3   OH236235   6.048   4.284  -0.042
12093TIP3    H136236   6.072   4.219   0.024
12093TIP3    H236237   6.069   4.368  -0.001
12094TIP3   OH236238   7.280   1.924   1.824
12094TIP3    H136239   7.323   1.965   1.749
12094TIP3    H236240   7.198   1.973   1.835
12095TIP3   OH236241   3.703   6.718   2.900
12095TIP3    H136242   3.783   6.763   2.873
12095TIP3    H236243   3.718   6.696   2.992
12096TIP3   OH236244   1.303   5.276   5.393
12096TIP3    H136245   1.274   5.186   5.413
12096TIP3    H236246   1.227   5.316   5.350
12097TIP3   OH236247   4.977   2.807   2.898
12097TIP3    H136248   5.016   2.895   2.903
12097TIP3    H236249   4.993   2.779   2.808
12098TIP3   OH236250   7.569   4.094   1.636
12098TIP3    H136251   7.551   4.055   1.551
12098TIP3    H236252   7.584   4.019   1.694
12099TIP3   OH236253   3.298   7.225   3.801
12099TIP3    H136254   3.320   7.245   3.892
12099TIP3    H236255   3.203   7.232   3.797
12100TIP3   OH236256   2.236   4.344   6.519
12100TIP3    H136257   2.187   4.362   6.439
12100TIP3    H236258   2.247   4.249   6.520
12101TIP3   OH236259   6.571   1.041   3.279
12101TIP3    H136260   6.540   0.973   3.219
12101TIP3    H236261   6.658   1.064   3.247
12102TIP3   OH236262   0.101   2.898   3.996
12102TIP3    H136263   0.018   2.902   4.044
12102TIP3    H236264   0.153   2.969   4.034
12103TIP3   OH236265   1.274   2.839   5.322
12103TIP3    H136266   1.300   2.931   5.315
12103TIP3    H236267   1.181   2.839   5.298
12104TIP3   OH236268   4.449   3.946   5.862
12104TIP3    H136269   4.390   4.018   5.884
12104TIP3    H236270   4.467   3.902   5.945
12105TIP3   OH236271   6.088   5.542   1.300
12105TIP3    H136272   6.104   5.546   1.206
12105TIP3    H236273   6.104   5.631   1.331
12106TIP3   OH236274   0.375   2.850   0.476
12106TIP3    H136275   0.376   2.761   0.441
12106TIP3    H236276   0.286   2.864   0.507
12107TIP3   OH236277   1.365   7.626   3.243
12107TIP3    H136278   1.390   7.675   3.322
12107TIP3    H236279   1.368   7.691   3.173
12108TIP3   OH236280   6.824   7.245   1.774
12108TIP3    H136281   6.823   7.180   1.704
12108TIP3    H236282   6.789   7.324   1.734
12109TIP3   OH236283   1.209   2.485   4.751
12109TIP3    H136284   1.239   2.500   4.841
12109TIP3    H236285   1.237   2.395   4.732
12110TIP3   OH236286   5.784   5.135   4.977
12110TIP3    H136287   5.706   5.156   5.028
12110TIP3    H236288   5.786   5.204   4.910
12111TIP3   OH236289   0.117   6.819   2.099
12111TIP3    H136290   0.095   6.759   2.171
12111TIP3    H236291   0.207   6.845   2.117
12112TIP3   OH236292   7.473   4.747   4.682
12112TIP3    H136293   7.557   4.793   4.678
12112TIP3    H236294   7.416   4.798   4.624
12113TIP3   OH236295   6.025   5.401   4.272
12113TIP3    H136296   6.049   5.308   4.272
12113TIP3    H236297   6.108   5.447   4.284
12114TIP3   OH236298   2.924   5.400   5.203
12114TIP3    H136299   2.884   5.411   5.289
12114TIP3    H236300   2.867   5.338   5.158
12115TIP3   OH236301   3.391   0.089   1.397
12115TIP3    H136302   3.379   0.035   1.319
12115TIP3    H236303   3.303   0.116   1.422
12116TIP3   OH236304   5.495   3.339   1.173
12116TIP3    H136305   5.576   3.296   1.202
12116TIP3    H236306   5.501   3.339   1.078
12117TIP3   OH236307   1.535   0.497   2.351
12117TIP3    H136308   1.587   0.543   2.285
12117TIP3    H236309   1.488   0.566   2.398
12118TIP3   OH236310   4.415   1.217   5.589
12118TIP3    H136311   4.429   1.301   5.545
12118TIP3    H236312   4.499   1.171   5.579
12119TIP3   OH236313   7.984   5.766   2.214
12119TIP3    H136314   8.072   5.777   2.250
12119TIP3    H236315   7.944   5.853   2.221
12120TIP3   OH236316   5.502   4.845   6.389
12120TIP3    H136317   5.437   4.902   6.432
12120TIP3    H236318   5.575   4.903   6.368
12121TIP3   OH236319   6.069   7.779   3.271
12121TIP3    H136320   5.987   7.828   3.276
12121TIP3    H236321   6.041   7.687   3.270
12122TIP3   OH236322   2.506   0.156   5.155
12122TIP3    H136323   2.580   0.171   5.214
12122TIP3    H236324   2.534   0.083   5.099
12123TIP3   OH236325   1.248   6.804   1.078
12123TIP3    H136326   1.175   6.750   1.046
12123TIP3    H236327   1.207   6.867   1.137
12124TIP3   OH236328   3.381   2.419   3.978
12124TIP3    H136329   3.290   2.391   3.966
12124TIP3    H236330   3.396   2.482   3.907
12125TIP3   OH236331   0.611   2.590   5.776
12125TIP3    H136332   0.561   2.670   5.791
12125TIP3    H236333   0.545   2.522   5.764
12126TIP3   OH236334   4.547   0.633   1.377
12126TIP3    H136335   4.519   0.544   1.399
12126TIP3    H236336   4.585   0.624   1.289
12127TIP3   OH236337   0.542   5.009   1.368
12127TIP3    H136338   0.470   5.071   1.379
12127TIP3    H236339   0.565   4.984   1.458
12128TIP3   OH236340   2.388   4.688   6.502
12128TIP3    H136341   2.344   4.624   6.558
12128TIP3    H236342   2.480   4.683   6.526
12129TIP3   OH236343   5.121   5.941   2.363
12129TIP3    H136344   5.062   5.949   2.437
12129TIP3    H236345   5.200   5.987   2.389
12130TIP3   OH236346   7.100   6.357   5.425
12130TIP3    H136347   7.018   6.406   5.437
12130TIP3    H236348   7.165   6.409   5.472
12131TIP3   OH236349   5.972   3.769   5.700
12131TIP3    H136350   5.981   3.720   5.618
12131TIP3    H236351   6.058   3.809   5.714
12132TIP3   OH236352   1.505   7.715   3.998
12132TIP3    H136353   1.580   7.683   3.948
12132TIP3    H236354   1.544   7.776   4.061
12133TIP3   OH236355   1.414   7.572   4.377
12133TIP3    H136356   1.449   7.648   4.423
12133TIP3    H236357   1.338   7.606   4.329
12134TIP3   OH236358   2.465   6.366   4.891
12134TIP3    H136359   2.439   6.274   4.889
12134TIP3    H236360   2.416   6.403   4.964
12135TIP3   OH236361   2.879   2.510   1.270
12135TIP3    H136362   2.867   2.440   1.334
12135TIP3    H236363   2.882   2.590   1.321
12136TIP3   OH236364   0.612   4.540   5.183
12136TIP3    H136365   0.601   4.458   5.136
12136TIP3    H236366   0.549   4.535   5.255
12137TIP3   OH236367   1.734   0.066   2.397
12137TIP3    H136368   1.700   0.044   2.484
12137TIP3    H236369   1.758  -0.019   2.359
12138TIP3   OH236370   3.382   2.862   0.322
12138TIP3    H136371   3.395   2.777   0.281
12138TIP3    H236372   3.441   2.921   0.274
12139TIP3   OH236373   1.393   0.044   6.659
12139TIP3    H136374   1.380   0.039   6.754
12139TIP3    H236375   1.315   0.001   6.622
12140TIP3   OH236376   5.089   2.529   4.498
12140TIP3    H136377   5.022   2.464   4.479
12140TIP3    H236378   5.133   2.497   4.577
12141TIP3   OH236379   1.858   2.029   1.813
12141TIP3    H136380   1.914   2.013   1.889
12141TIP3    H236381   1.917   2.026   1.738
12142TIP3   OH236382   5.922   3.773   0.941
12142TIP3    H136383   5.840   3.806   0.905
12142TIP3    H236384   5.979   3.850   0.944
12143TIP3   OH236385   0.130   2.649   0.353
12143TIP3    H136386   0.044   2.669   0.314
12143TIP3    H236387   0.192   2.664   0.281
12144TIP3   OH236388   5.794   0.717   0.949
12144TIP3    H136389   5.858   0.650   0.974
12144TIP3    H236390   5.783   0.707   0.854
12145TIP3   OH236391   4.538   4.282   1.374
12145TIP3    H136392   4.497   4.323   1.297
12145TIP3    H236393   4.465   4.242   1.421
12146TIP3   OH236394   7.280   6.888   3.282
12146TIP3    H136395   7.242   6.922   3.201
12146TIP3    H236396   7.245   6.800   3.290
12147TIP3   OH236397   3.153   7.073   1.512
12147TIP3    H136398   3.121   7.055   1.601
12147TIP3    H236399   3.208   6.998   1.492
12148TIP3   OH236400   4.768   3.951   4.155
12148TIP3    H136401   4.775   3.867   4.200
12148TIP3    H236402   4.784   4.016   4.223
12149TIP3   OH236403   0.888   7.251   2.413
12149TIP3    H136404   0.877   7.215   2.501
12149TIP3    H236405   0.930   7.180   2.364
12150TIP3   OH236406   8.153   0.115   3.890
12150TIP3    H136407   8.121   0.118   3.980
12150TIP3    H236408   8.085   0.157   3.838
12151TIP3   OH236409   1.189   1.375   3.380
12151TIP3    H136410   1.125   1.434   3.340
12151TIP3    H236411   1.173   1.291   3.337
12152TIP3   OH236412   7.739   7.109   2.318
12152TIP3    H136413   7.646   7.091   2.330
12152TIP3    H236414   7.778   7.095   2.404
12153TIP3   OH236415   3.249   0.900   1.284
12153TIP3    H136416   3.251   0.977   1.342
12153TIP3    H236417   3.158   0.870   1.287
12154TIP3   OH236418   0.724   5.798   4.624
12154TIP3    H136419   0.760   5.835   4.544
12154TIP3    H236420   0.722   5.704   4.609
12155TIP3   OH236421   5.203   0.235   4.418
12155TIP3    H136422   5.269   0.213   4.352
12155TIP3    H236423   5.154   0.154   4.431
12156TIP3   OH236424   5.774   3.937   5.614
12156TIP3    H136425   5.813   3.974   5.535
12156TIP3    H236426   5.829   3.863   5.637
12157TIP3   OH236427   7.835   3.494   4.129
12157TIP3    H136428   7.770   3.528   4.190
12157TIP3    H236429   7.796   3.413   4.095
12158TIP3   OH236430   3.230   1.129   1.755
12158TIP3    H136431   3.242   1.223   1.771
12158TIP3    H236432   3.228   1.121   1.660
12159TIP3   OH236433   5.516   6.482   3.478
12159TIP3    H136434   5.503   6.492   3.384
12159TIP3    H236435   5.590   6.539   3.498
12160TIP3   OH236436   7.539   4.366   1.627
12160TIP3    H136437   7.542   4.270   1.622
12160TIP3    H236438   7.494   4.392   1.547
12161TIP3   OH236439   7.553   2.365   4.914
12161TIP3    H136440   7.596   2.451   4.915
12161TIP3    H236441   7.566   2.330   5.002
12162TIP3   OH236442   7.409   5.305   4.942
12162TIP3    H136443   7.387   5.223   4.986
12162TIP3    H236444   7.351   5.370   4.982
12163TIP3   OH236445   2.403   6.472   5.663
12163TIP3    H136446   2.451   6.554   5.664
12163TIP3    H236447   2.437   6.423   5.737
12164TIP3   OH236448   8.212   1.441   5.541
12164TIP3    H136449   8.218   1.347   5.525
12164TIP3    H236450   8.248   1.452   5.629
12165TIP3   OH236451   4.787   2.215   1.903
12165TIP3    H136452   4.759   2.279   1.967
12165TIP3    H236453   4.868   2.179   1.938
12166TIP3   OH236454   0.516   4.243   3.032
12166TIP3    H136455   0.433   4.251   2.984
12166TIP3    H236456   0.583   4.269   2.968
12167TIP3   OH236457   6.694   1.641   3.470
12167TIP3    H136458   6.720   1.564   3.522
12167TIP3    H236459   6.679   1.710   3.534
12168TIP3   OH236460   2.548   4.638   2.678
12168TIP3    H136461   2.557   4.697   2.603
12168TIP3    H236462   2.466   4.591   2.661
12169TIP3   OH236463   1.338   2.766   3.366
12169TIP3    H136464   1.379   2.715   3.437
12169TIP3    H236465   1.324   2.702   3.296
12170TIP3   OH236466   8.215   7.636   5.080
12170TIP3    H136467   8.166   7.559   5.049
12170TIP3    H236468   8.190   7.706   5.019
12171TIP3   OH236469   4.514   4.427   5.656
12171TIP3    H136470   4.583   4.382   5.607
12171TIP3    H236471   4.510   4.382   5.740
12172TIP3   OH236472   0.468   4.588   0.886
12172TIP3    H136473   0.390   4.627   0.926
12172TIP3    H236474   0.435   4.545   0.807
12173TIP3   OH236475   2.404   7.337   0.899
12173TIP3    H136476   2.312   7.357   0.887
12173TIP3    H236477   2.447   7.423   0.903
12174TIP3   OH236478   0.724   1.247   4.855
12174TIP3    H136479   0.712   1.336   4.822
12174TIP3    H236480   0.650   1.198   4.819
12175TIP3   OH236481   6.504   4.152   3.314
12175TIP3    H136482   6.561   4.170   3.239
12175TIP3    H236483   6.455   4.233   3.327
12176TIP3   OH236484   1.758   2.153   0.463
12176TIP3    H136485   1.831   2.173   0.522
12176TIP3    H236486   1.714   2.237   0.450
12177TIP3   OH236487   6.628   3.462   1.776
12177TIP3    H136488   6.693   3.438   1.842
12177TIP3    H236489   6.552   3.407   1.797
12178TIP3   OH236490   0.534   0.549   0.595
12178TIP3    H136491   0.456   0.506   0.560
12178TIP3    H236492   0.510   0.572   0.685
12179TIP3   OH236493   3.487   1.391   3.056
12179TIP3    H136494   3.439   1.400   3.139
12179TIP3    H236495   3.513   1.480   3.033
12180TIP3   OH236496   6.317   2.719   3.848
12180TIP3    H136497   6.405   2.749   3.871
12180TIP3    H236498   6.278   2.794   3.802
12181TIP3   OH236499   7.806   7.154   5.191
12181TIP3    H136500   7.790   7.177   5.099
12181TIP3    H236501   7.901   7.152   5.199
12182TIP3   OH236502   0.214   6.048   2.882
12182TIP3    H136503   0.181   5.961   2.857
12182TIP3    H236504   0.137   6.105   2.879
12183TIP3   OH236505   7.497   7.060   3.352
12183TIP3    H136506   7.464   7.122   3.418
12183TIP3    H236507   7.433   6.989   3.353
12184TIP3   OH236508   0.847   3.246   5.454
12184TIP3    H136509   0.782   3.192   5.410
12184TIP3    H236510   0.915   3.185   5.482
12185TIP3   OH236511   2.449   7.273   5.909
12185TIP3    H136512   2.544   7.281   5.903
12185TIP3    H236513   2.417   7.302   5.823
12186TIP3   OH236514   1.935   6.146   3.647
12186TIP3    H136515   1.847   6.110   3.660
12186TIP3    H236516   1.960   6.118   3.559
12187TIP3   OH236517   1.443   6.060   3.410
12187TIP3    H136518   1.407   6.044   3.323
12187TIP3    H236519   1.470   6.152   3.409
12188TIP3   OH236520   2.297   3.128   6.147
12188TIP3    H136521   2.274   3.194   6.081
12188TIP3    H236522   2.356   3.175   6.207
12189TIP3   OH236523   6.125   4.929   6.457
12189TIP3    H136524   6.136   4.976   6.539
12189TIP3    H236525   6.210   4.936   6.413
12190TIP3   OH236526   3.604   7.486   1.834
12190TIP3    H136527   3.509   7.477   1.828
12190TIP3    H236528   3.638   7.408   1.790
12191TIP3   OH236529   4.755   3.117   6.741
12191TIP3    H136530   4.707   3.199   6.736
12191TIP3    H236531   4.838   3.135   6.697
12192TIP3   OH236532   5.102   5.072   3.360
12192TIP3    H136533   5.011   5.066   3.390
12192TIP3    H236534   5.148   5.004   3.410
12193TIP3   OH236535   5.471   2.206   1.573
12193TIP3    H136536   5.510   2.122   1.599
12193TIP3    H236537   5.403   2.221   1.638
12194TIP3   OH236538   3.844   0.146   4.504
12194TIP3    H136539   3.759   0.132   4.464
12194TIP3    H236540   3.830   0.219   4.565
12195TIP3   OH236541   5.139   2.587   4.902
12195TIP3    H136542   5.084   2.656   4.866
12195TIP3    H236543   5.188   2.553   4.827
12196TIP3   OH236544   3.929   6.998   4.382
12196TIP3    H136545   3.972   6.944   4.316
12196TIP3    H236546   3.846   6.954   4.399
12197TIP3   OH236547   0.355   2.934   0.765
12197TIP3    H136548   0.417   2.862   0.775
12197TIP3    H236549   0.306   2.912   0.685
12198TIP3   OH236550   6.621   6.055   0.952
12198TIP3    H136551   6.623   6.150   0.949
12198TIP3    H236552   6.566   6.034   1.027
12199TIP3   OH236553   4.025   3.528   1.389
12199TIP3    H136554   4.092   3.464   1.365
12199TIP3    H236555   3.975   3.486   1.458
12200TIP3   OH236556   8.035   0.736   5.966
12200TIP3    H136557   8.063   0.757   5.878
12200TIP3    H236558   7.955   0.788   5.979
12201TIP3   OH236559   2.762   6.335   5.963
12201TIP3    H136560   2.794   6.275   6.031
12201TIP3    H236561   2.707   6.281   5.907
12202TIP3   OH236562   3.732   2.041   0.566
12202TIP3    H136563   3.745   2.116   0.624
12202TIP3    H236564   3.816   1.996   0.565
12203TIP3   OH236565   1.468   5.162   0.740
12203TIP3    H136566   1.433   5.233   0.794
12203TIP3    H236567   1.533   5.205   0.683
12204TIP3   OH236568   2.862   2.225   1.350
12204TIP3    H136569   2.862   2.130   1.343
12204TIP3    H236570   2.953   2.248   1.368
12205TIP3   OH236571   6.165   6.583   6.387
12205TIP3    H136572   6.147   6.583   6.293
12205TIP3    H236573   6.159   6.675   6.412
12206TIP3   OH236574   7.645   1.274   3.921
12206TIP3    H136575   7.576   1.252   3.858
12206TIP3    H236576   7.679   1.358   3.890
12207TIP3   OH236577   6.126   1.054   2.015
12207TIP3    H136578   6.092   1.003   2.089
12207TIP3    H236579   6.200   1.002   1.983
12208TIP3   OH236580   3.483   3.421   3.216
12208TIP3    H136581   3.438   3.343   3.182
12208TIP3    H236582   3.465   3.419   3.310
12209TIP3   OH236583   0.794   6.922   2.529
12209TIP3    H136584   0.767   6.942   2.440
12209TIP3    H236585   0.766   6.998   2.581
12210TIP3   OH236586  -0.011   7.494   2.269
12210TIP3    H136587  -0.055   7.430   2.325
12210TIP3    H236588   0.077   7.502   2.307
12211TIP3   OH236589   3.098   3.689   3.393
12211TIP3    H136590   3.150   3.668   3.315
12211TIP3    H236591   3.052   3.608   3.415
12212TIP3   OH236592   0.883   3.173   6.085
12212TIP3    H136593   0.954   3.229   6.051
12212TIP3    H236594   0.896   3.089   6.041
12213TIP3   OH236595   3.674   0.103   2.221
12213TIP3    H136596   3.681   0.046   2.297
12213TIP3    H236597   3.630   0.051   2.155
12214TIP3   OH236598   7.163   1.757   3.129
12214TIP3    H136599   7.121   1.820   3.187
12214TIP3    H236600   7.186   1.807   3.051
12215TIP3   OH236601   3.875   5.610   5.138
12215TIP3    H136602   3.949   5.562   5.177
12215TIP3    H236603   3.913   5.694   5.112
12216TIP3   OH236604   1.463   2.640   5.825
12216TIP3    H136605   1.459   2.688   5.743
12216TIP3    H236606   1.557   2.632   5.844
12217TIP3   OH236607   0.363   2.265   3.954
12217TIP3    H136608   0.372   2.359   3.942
12217TIP3    H236609   0.268   2.250   3.956
12218TIP3   OH236610   1.414   0.715   2.423
12218TIP3    H136611   1.327   0.695   2.389
12218TIP3    H236612   1.434   0.801   2.386
12219TIP3   OH236613   6.322   3.383   5.814
12219TIP3    H136614   6.281   3.357   5.896
12219TIP3    H236615   6.251   3.379   5.750
12220TIP3   OH236616   3.829   4.162   3.291
12220TIP3    H136617   3.769   4.131   3.359
12220TIP3    H236618   3.773   4.179   3.216
12221TIP3   OH236619   4.753   4.415   0.730
12221TIP3    H136620   4.704   4.477   0.677
12221TIP3    H236621   4.830   4.394   0.678
12222TIP3   OH236622   8.187   7.785   6.063
12222TIP3    H136623   8.196   7.832   6.146
12222TIP3    H236624   8.098   7.806   6.033
12223TIP3   OH236625   3.063   7.328   2.311
12223TIP3    H136626   3.082   7.394   2.244
12223TIP3    H236627   2.967   7.321   2.312
12224TIP3   OH236628   0.804   1.994   3.921
12224TIP3    H136629   0.725   1.995   3.976
12224TIP3    H236630   0.774   2.026   3.836
12225TIP3   OH236631   5.157   0.898   3.220
12225TIP3    H136632   5.111   0.878   3.139
12225TIP3    H236633   5.178   0.991   3.214
12226TIP3   OH236634   7.975   0.075   5.455
12226TIP3    H136635   8.023   0.033   5.526
12226TIP3    H236636   8.012   0.037   5.375
12227TIP3   OH236637   5.059   4.445   5.774
12227TIP3    H136638   4.977   4.399   5.754
12227TIP3    H236639   5.056   4.459   5.868
12228TIP3   OH236640   1.753   3.214   0.565
12228TIP3    H136641   1.749   3.121   0.543
12228TIP3    H236642   1.837   3.244   0.530
12229TIP3   OH236643   3.913   4.259   5.337
12229TIP3    H136644   3.994   4.220   5.370
12229TIP3    H236645   3.913   4.348   5.370
12230TIP3   OH236646   4.931   2.400   3.319
12230TIP3    H136647   4.951   2.460   3.247
12230TIP3    H236648   4.851   2.435   3.358
12231TIP3   OH236649   0.406   5.420   2.984
12231TIP3    H136650   0.382   5.346   3.040
12231TIP3    H236651   0.476   5.465   3.032
12232TIP3   OH236652   0.372   3.192   6.486
12232TIP3    H136653   0.421   3.223   6.563
12232TIP3    H236654   0.323   3.269   6.457
12233TIP3   OH236655   1.298   5.635   1.687
12233TIP3    H136656   1.227   5.577   1.714
12233TIP3    H236657   1.314   5.614   1.595
12234TIP3   OH236658   2.429   3.142   3.992
12234TIP3    H136659   2.430   3.232   4.024
12234TIP3    H236660   2.361   3.099   4.044
12235TIP3   OH236661   5.046   6.716   2.634
12235TIP3    H136662   5.100   6.707   2.555
12235TIP3    H236663   5.044   6.811   2.651
12236TIP3   OH236664   6.089   0.650   0.863
12236TIP3    H136665   6.083   0.604   0.779
12236TIP3    H236666   6.064   0.585   0.928
12237TIP3   OH236667   1.498   0.155   0.226
12237TIP3    H136668   1.476   0.156   0.319
12237TIP3    H236669   1.565   0.223   0.216
12238TIP3   OH236670   7.788   0.843   1.423
12238TIP3    H136671   7.734   0.921   1.419
12238TIP3    H236672   7.817   0.829   1.332
12239TIP3   OH236673   4.222   1.864   1.446
12239TIP3    H136674   4.168   1.816   1.509
12239TIP3    H236675   4.304   1.880   1.491
12240TIP3   OH236676   7.414   2.523   3.588
12240TIP3    H136677   7.407   2.614   3.619
12240TIP3    H236678   7.485   2.525   3.524
12241TIP3   OH236679   7.892   5.324   4.209
12241TIP3    H136680   7.868   5.336   4.301
12241TIP3    H236681   7.852   5.398   4.163
12242TIP3   OH236682   2.403   3.503   6.634
12242TIP3    H136683   2.365   3.416   6.616
12242TIP3    H236684   2.328   3.562   6.636
12243TIP3   OH236685   3.715   2.095   5.200
12243TIP3    H136686   3.665   2.020   5.168
12243TIP3    H236687   3.792   2.099   5.143
12244TIP3   OH236688   3.534   2.535   4.215
12244TIP3    H136689   3.464   2.486   4.258
12244TIP3    H236690   3.495   2.569   4.135
12245TIP3   OH236691   5.141   0.440   4.191
12245TIP3    H136692   5.121   0.364   4.137
12245TIP3    H236693   5.158   0.403   4.278
12246TIP3   OH236694   1.890   4.701   3.262
12246TIP3    H136695   1.980   4.674   3.278
12246TIP3    H236696   1.840   4.665   3.335
12247TIP3   OH236697   3.597   7.814   4.838
12247TIP3    H136698   3.681   7.856   4.856
12247TIP3    H236699   3.564   7.788   4.924
12248TIP3   OH236700   7.730   6.096   4.478
12248TIP3    H136701   7.675   6.142   4.542
12248TIP3    H236702   7.819   6.121   4.500
12249TIP3   OH236703   0.890   4.194   3.879
12249TIP3    H136704   0.861   4.162   3.965
12249TIP3    H236705   0.816   4.176   3.821
12250TIP3   OH236706   7.367   3.559   5.709
12250TIP3    H136707   7.382   3.527   5.798
12250TIP3    H236708   7.357   3.654   5.719
12251TIP3   OH236709   2.038   7.659   3.915
12251TIP3    H136710   1.970   7.638   3.979
12251TIP3    H236711   2.116   7.613   3.946
12252TIP3   OH236712   6.168   5.819   6.479
12252TIP3    H136713   6.155   5.759   6.551
12252TIP3    H236714   6.252   5.862   6.498
12253TIP3   OH236715   6.423   3.031   4.095
12253TIP3    H136716   6.444   3.041   4.188
12253TIP3    H236717   6.333   2.999   4.093
12254TIP3   OH236718   1.291   1.312   5.371
12254TIP3    H136719   1.195   1.313   5.367
12254TIP3    H236720   1.312   1.373   5.443
12255TIP3   OH236721   2.111   5.659   6.057
12255TIP3    H136722   2.055   5.725   6.016
12255TIP3    H236723   2.198   5.675   6.021
12256TIP3   OH236724   3.330   5.434   0.455
12256TIP3    H136725   3.324   5.352   0.406
12256TIP3    H236726   3.396   5.485   0.407
12257TIP3   OH236727   3.937   7.456   3.707
12257TIP3    H136728   3.989   7.379   3.730
12257TIP3    H236729   4.001   7.519   3.674
12258TIP3   OH236730   1.637   3.514   2.331
12258TIP3    H136731   1.724   3.542   2.303
12258TIP3    H236732   1.651   3.430   2.374
12259TIP3   OH236733   8.242   0.564   2.809
12259TIP3    H136734   8.248   0.547   2.715
12259TIP3    H236735   8.303   0.637   2.824
12260TIP3   OH236736   0.336   0.467   6.250
12260TIP3    H136737   0.399   0.436   6.314
12260TIP3    H236738   0.369   0.553   6.222
12261TIP3   OH236739   5.353   2.522   3.307
12261TIP3    H136740   5.377   2.434   3.276
12261TIP3    H236741   5.270   2.541   3.264
12262TIP3   OH236742   1.138   1.735   5.728
12262TIP3    H136743   1.198   1.806   5.704
12262TIP3    H236744   1.051   1.775   5.722
12263TIP3   OH236745   5.483   7.023   2.738
12263TIP3    H136746   5.430   7.089   2.783
12263TIP3    H236747   5.548   6.997   2.803
12264TIP3   OH236748   0.840   3.542   4.176
12264TIP3    H136749   0.795   3.549   4.260
12264TIP3    H236750   0.775   3.573   4.112
12265TIP3   OH236751   5.397   0.555   0.482
12265TIP3    H136752   5.396   0.648   0.460
12265TIP3    H236753   5.352   0.550   0.566
12266TIP3   OH236754   1.801   2.951   2.596
12266TIP3    H136755   1.811   3.020   2.662
12266TIP3    H236756   1.852   2.878   2.629
12267TIP3   OH236757   8.074   1.048   4.241
12267TIP3    H136758   8.095   0.958   4.218
12267TIP3    H236759   8.022   1.080   4.167
12268TIP3   OH236760   8.263   0.209   4.976
12268TIP3    H136761   8.274   0.301   4.954
12268TIP3    H236762   8.304   0.162   4.904
12269TIP3   OH236763   6.047   5.722   3.788
12269TIP3    H136764   6.024   5.773   3.866
12269TIP3    H236765   6.062   5.634   3.820
12270TIP3   OH236766   7.756   3.731   3.667
12270TIP3    H136767   7.776   3.720   3.760
12270TIP3    H236768   7.819   3.796   3.637
12271TIP3   OH236769   1.710   4.472   5.377
12271TIP3    H136770   1.721   4.412   5.450
12271TIP3    H236771   1.618   4.501   5.383
12272TIP3   OH236772   3.141   4.896   0.526
12272TIP3    H136773   3.054   4.882   0.488
12272TIP3    H236774   3.129   4.965   0.591
12273TIP3   OH236775   6.520   4.067   6.320
12273TIP3    H136776   6.468   4.146   6.335
12273TIP3    H236777   6.467   4.014   6.261
12274TIP3   OH236778   2.739   2.506   6.376
12274TIP3    H136779   2.790   2.428   6.397
12274TIP3    H236780   2.795   2.579   6.403
12275TIP3   OH236781   5.028   0.745   0.765
12275TIP3    H136782   4.936   0.748   0.792
12275TIP3    H236783   5.030   0.790   0.681
12276TIP3   OH236784   3.922   3.571   4.362
12276TIP3    H136785   3.856   3.626   4.320
12276TIP3    H236786   3.873   3.521   4.427
12277TIP3   OH236787   3.954   5.402   2.728
12277TIP3    H136788   3.911   5.385   2.811
12277TIP3    H236789   3.889   5.377   2.662
12278TIP3   OH236790   6.132   7.297   1.811
12278TIP3    H136791   6.048   7.265   1.844
12278TIP3    H236792   6.156   7.367   1.872
12279TIP3   OH236793   0.824   1.286   5.600
12279TIP3    H136794   0.861   1.329   5.678
12279TIP3    H236795   0.897   1.239   5.561
12280TIP3   OH236796   1.021   2.473   3.342
12280TIP3    H136797   1.076   2.452   3.417
12280TIP3    H236798   0.934   2.439   3.366
12281TIP3   OH236799   0.120   0.009   6.545
12281TIP3    H136800   0.064   0.049   6.611
12281TIP3    H236801   0.060  -0.046   6.493
12282TIP3   OH236802   1.759   2.948   4.840
12282TIP3    H136803   1.703   3.025   4.835
12282TIP3    H236804   1.721   2.887   4.777
12283TIP3   OH236805   7.863   4.533   6.144
12283TIP3    H136806   7.800   4.489   6.087
12283TIP3    H236807   7.835   4.625   6.143
12284TIP3   OH236808   3.581   1.884   1.790
12284TIP3    H136809   3.620   1.962   1.750
12284TIP3    H236810   3.569   1.823   1.718
12285TIP3   OH236811   1.414   4.095   6.117
12285TIP3    H136812   1.477   4.100   6.045
12285TIP3    H236813   1.424   4.178   6.164
12286TIP3   OH236814   5.520   5.142   2.144
12286TIP3    H136815   5.502   5.224   2.191
12286TIP3    H236816   5.436   5.117   2.107
12287TIP3   OH236817   4.987   3.041   6.263
12287TIP3    H136818   5.042   3.117   6.281
12287TIP3    H236819   4.908   3.056   6.316
12288TIP3   OH236820   2.080   0.085   1.324
12288TIP3    H136821   2.021   0.027   1.277
12288TIP3    H236822   2.138   0.122   1.257
12289TIP3   OH236823   2.947   1.376   1.794
12289TIP3    H136824   2.923   1.467   1.809
12289TIP3    H236825   3.043   1.375   1.798
12290TIP3   OH236826   6.757   7.496   6.448
12290TIP3    H136827   6.835   7.541   6.480
12290TIP3    H236828   6.692   7.508   6.518
12291TIP3   OH236829   5.823   5.758   6.267
12291TIP3    H136830   5.819   5.663   6.276
12291TIP3    H236831   5.855   5.788   6.352
12292TIP3   OH236832   6.219   6.541   5.844
12292TIP3    H136833   6.205   6.618   5.788
12292TIP3    H236834   6.216   6.467   5.784
12293TIP3   OH236835   2.818   5.871   0.568
12293TIP3    H136836   2.890   5.808   0.575
12293TIP3    H236837   2.739   5.818   0.581
12294TIP3   OH236838   6.452   2.376   0.263
12294TIP3    H136839   6.531   2.388   0.210
12294TIP3    H236840   6.400   2.456   0.247
12295TIP3   OH236841   7.048   3.928   6.821
12295TIP3    H136842   6.994   3.947   6.744
12295TIP3    H236843   7.006   3.852   6.861
12296TIP3   OH236844   1.064   5.111   0.925
12296TIP3    H136845   1.130   5.046   0.900
12296TIP3    H236846   0.982   5.062   0.926
12297TIP3   OH236847   5.158   7.832   4.677
12297TIP3    H136848   5.135   7.773   4.749
12297TIP3    H236849   5.084   7.827   4.617
12298TIP3   OH236850   6.425   0.956   3.491
12298TIP3    H136851   6.471   0.958   3.575
12298TIP3    H236852   6.478   1.012   3.434
12299TIP3   OH236853   0.134   7.561   6.420
12299TIP3    H136854   0.069   7.563   6.349
12299TIP3    H236855   0.201   7.625   6.394
12300TIP3   OH236856   6.207   3.113   4.571
12300TIP3    H136857   6.285   3.062   4.590
12300TIP3    H236858   6.199   3.173   4.645
12301TIP3   OH236859   5.996   2.899   6.779
12301TIP3    H136860   5.923   2.922   6.721
12301TIP3    H236861   5.966   2.926   6.866
12302TIP3   OH236862   6.392   0.905   4.250
12302TIP3    H136863   6.445   0.980   4.278
12302TIP3    H236864   6.447   0.829   4.266
12303TIP3   OH236865   5.366   4.120   1.980
12303TIP3    H136866   5.305   4.071   2.036
12303TIP3    H236867   5.452   4.082   1.999
12304TIP3   OH236868   2.290   7.155   6.484
12304TIP3    H136869   2.336   7.105   6.552
12304TIP3    H236870   2.289   7.245   6.518
12305TIP3   OH236871   1.432   0.936   4.390
12305TIP3    H136872   1.406   0.914   4.300
12305TIP3    H236873   1.350   0.963   4.432
12306TIP3   OH236874   7.546   7.563   3.886
12306TIP3    H136875   7.570   7.490   3.829
12306TIP3    H236876   7.552   7.528   3.975
12307TIP3   OH236877   8.163   0.264   6.455
12307TIP3    H136878   8.207   0.227   6.379
12307TIP3    H236879   8.093   0.202   6.475
12308TIP3   OH236880   5.248   2.418   4.690
12308TIP3    H136881   5.253   2.324   4.707
12308TIP3    H236882   5.338   2.443   4.669
12309TIP3   OH236883   0.822   6.771   1.621
12309TIP3    H136884   0.902   6.761   1.673
12309TIP3    H236885   0.792   6.860   1.641
12310TIP3   OH236886   1.682   5.810   2.851
12310TIP3    H136887   1.668   5.799   2.757
12310TIP3    H236888   1.777   5.812   2.861
12311TIP3   OH236889   6.054   1.198   6.058
12311TIP3    H136890   6.111   1.160   6.125
12311TIP3    H236891   6.076   1.150   5.978
12312TIP3   OH236892   7.435   5.141   5.621
12312TIP3    H136893   7.358   5.187   5.587
12312TIP3    H236894   7.495   5.136   5.547
12313TIP3   OH236895   0.951   3.171   4.889
12313TIP3    H136896   0.939   3.266   4.878
12313TIP3    H236897   0.986   3.161   4.977
12314TIP3   OH236898   3.775   2.943   0.089
12314TIP3    H136899   3.865   2.965   0.114
12314TIP3    H236900   3.759   2.995   0.010
12315TIP3   OH236901   2.478   1.007   5.181
12315TIP3    H136902   2.504   1.090   5.222
12315TIP3    H236903   2.534   1.001   5.103
12316TIP3   OH236904   2.856   1.664   4.830
12316TIP3    H136905   2.824   1.725   4.897
12316TIP3    H236906   2.901   1.596   4.879
12317TIP3   OH236907   8.172   2.174   3.281
12317TIP3    H136908   8.122   2.178   3.199
12317TIP3    H236909   8.238   2.106   3.266
12318TIP3   OH236910   0.674   0.941   6.606
12318TIP3    H136911   0.620   0.878   6.654
12318TIP3    H236912   0.762   0.929   6.643
12319TIP3   OH236913   8.028   4.584   2.684
12319TIP3    H136914   8.015   4.503   2.734
12319TIP3    H236915   7.943   4.627   2.686
12320TIP3   OH236916   0.457   0.651   0.850
12320TIP3    H136917   0.446   0.611   0.936
12320TIP3    H236918   0.375   0.700   0.836
12321TIP3   OH236919   6.362   6.087   3.540
12321TIP3    H136920   6.319   6.159   3.494
12321TIP3    H236921   6.290   6.040   3.583
12322TIP3   OH236922   4.500   4.687   5.242
12322TIP3    H136923   4.568   4.753   5.255
12322TIP3    H236924   4.546   4.603   5.248
12323TIP3   OH236925   5.972   7.347   1.095
12323TIP3    H136926   5.963   7.287   1.169
12323TIP3    H236927   5.940   7.297   1.020
12324TIP3   OH236928   1.803   0.811   5.377
12324TIP3    H136929   1.746   0.857   5.315
12324TIP3    H236930   1.765   0.724   5.384
12325TIP3   OH236931   4.432   2.727   6.462
12325TIP3    H136932   4.510   2.728   6.407
12325TIP3    H236933   4.450   2.792   6.530
12326TIP3   OH236934   8.243   5.282   0.659
12326TIP3    H136935   8.259   5.316   0.571
12326TIP3    H236936   8.282   5.347   0.717
12327TIP3   OH236937   5.354   4.967   1.781
12327TIP3    H136938   5.301   4.980   1.860
12327TIP3    H236939   5.414   5.042   1.781
12328TIP3   OH236940   4.472   7.304   6.364
12328TIP3    H136941   4.390   7.267   6.397
12328TIP3    H236942   4.516   7.231   6.321
12329TIP3   OH236943   5.576   5.130   0.344
12329TIP3    H136944   5.513   5.095   0.407
12329TIP3    H236945   5.571   5.069   0.270
12330TIP3   OH236946   6.138   2.129   4.113
12330TIP3    H136947   6.158   2.079   4.034
12330TIP3    H236948   6.192   2.208   4.105
12331TIP3   OH236949   1.724   6.611   1.675
12331TIP3    H136950   1.814   6.604   1.642
12331TIP3    H236951   1.726   6.565   1.759
12332TIP3   OH236952   3.866   1.267   3.470
12332TIP3    H136953   3.779   1.233   3.449
12332TIP3    H236954   3.853   1.361   3.482
12333TIP3   OH236955   7.062   5.156   0.349
12333TIP3    H136956   7.125   5.140   0.279
12333TIP3    H236957   7.062   5.075   0.400
12334TIP3   OH236958   1.481   5.829   1.183
12334TIP3    H136959   1.416   5.782   1.234
12334TIP3    H236960   1.466   5.922   1.202
12335TIP3   OH236961   6.122   3.220   4.254
12335TIP3    H136962   6.126   3.125   4.257
12335TIP3    H236963   6.127   3.248   4.346
12336TIP3   OH236964   0.438   0.240   1.499
12336TIP3    H136965   0.516   0.257   1.445
12336TIP3    H236966   0.466   0.171   1.560
12337TIP3   OH236967   7.200   2.659   5.035
12337TIP3    H136968   7.173   2.737   5.083
12337TIP3    H236969   7.244   2.604   5.100
12338TIP3   OH236970   0.456   1.469   2.579
12338TIP3    H136971   0.475   1.543   2.522
12338TIP3    H236972   0.366   1.485   2.609
12339TIP3   OH236973   5.259   1.351   3.040
12339TIP3    H136974   5.216   1.432   3.067
12339TIP3    H236975   5.299   1.372   2.956
12340TIP3   OH236976   0.569   6.375   1.527
12340TIP3    H136977   0.604   6.287   1.540
12340TIP3    H236978   0.642   6.433   1.547
12341TIP3   OH236979   6.098   2.205   5.982
12341TIP3    H136980   6.091   2.211   6.077
12341TIP3    H236981   6.149   2.282   5.957
12342TIP3   OH236982   1.072   6.759   2.567
12342TIP3    H136983   1.073   6.716   2.482
12342TIP3    H236984   0.997   6.819   2.562
12343TIP3   OH236985   5.343   0.958   4.489
12343TIP3    H136986   5.382   0.890   4.544
12343TIP3    H236987   5.310   1.023   4.551
12344TIP3   OH236988   0.417   3.870   0.894
12344TIP3    H136989   0.427   3.871   0.799
12344TIP3    H236990   0.415   3.777   0.917
12345TIP3   OH236991   5.542   2.714   6.792
12345TIP3    H136992   5.597   2.655   6.741
12345TIP3    H236993   5.497   2.768   6.726
12346TIP3   OH236994   8.081   6.668   4.854
12346TIP3    H136995   8.089   6.760   4.830
12346TIP3    H236996   8.055   6.624   4.773
12347TIP3   OH236997   7.247   2.021   3.631
12347TIP3    H136998   7.302   1.944   3.643
12347TIP3    H236999   7.302   2.082   3.581
12348TIP3   OH237000   7.200   3.834   5.096
12348TIP3    H137001   7.135   3.837   5.026
12348TIP3    H237002   7.152   3.859   5.175
12349TIP3   OH237003   5.306   4.266   4.853
12349TIP3    H137004   5.372   4.204   4.821
12349TIP3    H237005   5.345   4.304   4.932
12350TIP3   OH237006   6.703   5.776   4.832
12350TIP3    H137007   6.725   5.684   4.814
12350TIP3    H237008   6.621   5.771   4.883
12351TIP3   OH237009   0.235   3.189   2.284
12351TIP3    H137010   0.264   3.118   2.227
12351TIP3    H237011   0.306   3.200   2.348
12352TIP3   OH237012   1.071   2.136   5.666
12352TIP3    H137013   1.001   2.183   5.621
12352TIP3    H237014   1.026   2.071   5.720
12353TIP3   OH237015   3.485   0.776   3.223
12353TIP3    H137016   3.390   0.784   3.235
12353TIP3    H237017   3.523   0.813   3.302
12354TIP3   OH237018   2.850   0.292   1.203
12354TIP3    H137019   2.834   0.201   1.180
12354TIP3    H237020   2.801   0.342   1.137
12355TIP3   OH237021   6.267   1.477   2.315
12355TIP3    H137022   6.265   1.411   2.246
12355TIP3    H237023   6.347   1.527   2.298
12356TIP3   OH237024   0.389   6.230   0.377
12356TIP3    H137025   0.424   6.291   0.443
12356TIP3    H237026   0.382   6.147   0.423
12357TIP3   OH237027   0.163   7.569   0.637
12357TIP3    H137028   0.082   7.583   0.685
12357TIP3    H237029   0.213   7.650   0.649
12358TIP3   OH237030   4.410   1.733   2.559
12358TIP3    H137031   4.457   1.799   2.508
12358TIP3    H237032   4.448   1.650   2.531
12359TIP3   OH237033   1.019   6.614   4.483
12359TIP3    H137034   0.923   6.607   4.483
12359TIP3    H237035   1.044   6.592   4.393
12360TIP3   OH237036   0.628   5.073   3.894
12360TIP3    H137037   0.576   5.149   3.919
12360TIP3    H237038   0.719   5.100   3.909
12361TIP3   OH237039   7.359   2.346   0.901
12361TIP3    H137040   7.388   2.266   0.858
12361TIP3    H237041   7.407   2.416   0.856
12362TIP3   OH237042   0.060   7.393   2.024
12362TIP3    H137043   0.063   7.448   2.102
12362TIP3    H237044   0.132   7.426   1.970
12363TIP3   OH237045   6.446   2.827   1.448
12363TIP3    H137046   6.473   2.743   1.411
12363TIP3    H237047   6.416   2.806   1.536
12364TIP3   OH237048   0.279   1.462   5.646
12364TIP3    H137049   0.370   1.470   5.620
12364TIP3    H237050   0.235   1.535   5.603
12365TIP3   OH237051   0.857   1.354   1.186
12365TIP3    H137052   0.841   1.272   1.139
12365TIP3    H237053   0.849   1.330   1.279
12366TIP3   OH237054   8.234   1.656   5.391
12366TIP3    H137055   8.305   1.617   5.338
12366TIP3    H237056   8.217   1.591   5.459
12367TIP3   OH237057   7.425   6.967   6.056
12367TIP3    H137058   7.501   6.948   6.110
12367TIP3    H237059   7.449   7.045   6.006
12368TIP3   OH237060   4.963   4.789   1.789
12368TIP3    H137061   4.963   4.877   1.751
12368TIP3    H237062   4.871   4.762   1.786
12369TIP3   OH237063   5.262   4.747   0.929
12369TIP3    H137064   5.350   4.784   0.933
12369TIP3    H237065   5.205   4.822   0.916
12370TIP3   OH237066   0.072   0.291   5.209
12370TIP3    H137067   0.138   0.329   5.152
12370TIP3    H237068   0.016   0.240   5.150
12371TIP3   OH237069   2.098   1.227   3.487
12371TIP3    H137070   2.038   1.270   3.425
12371TIP3    H237071   2.155   1.174   3.432
12372TIP3   OH237072   2.917   6.322   0.209
12372TIP3    H137073   2.847   6.285   0.263
12372TIP3    H237074   2.898   6.293   0.120
12373TIP3   OH237075   3.518   4.255   0.108
12373TIP3    H137076   3.574   4.304   0.167
12373TIP3    H237077   3.578   4.200   0.058
12374TIP3   OH237078   0.115   4.559   4.776
12374TIP3    H137079   0.144   4.602   4.857
12374TIP3    H237080   0.033   4.603   4.753
12375TIP3   OH237081   5.158   2.018   4.970
12375TIP3    H137082   5.081   1.966   4.994
12375TIP3    H237083   5.163   2.086   5.037
12376TIP3   OH237084   6.508   7.377   1.325
12376TIP3    H137085   6.556   7.301   1.293
12376TIP3    H237086   6.486   7.356   1.416
12377TIP3   OH237087   0.822   6.481   2.472
12377TIP3    H137088   0.746   6.426   2.493
12377TIP3    H237089   0.897   6.428   2.497
12378TIP3   OH237090   7.087   0.543   5.483
12378TIP3    H137091   7.027   0.528   5.556
12378TIP3    H237092   7.099   0.456   5.444
12379TIP3   OH237093   0.419   6.168   1.939
12379TIP3    H137094   0.449   6.106   1.873
12379TIP3    H237095   0.456   6.252   1.912
12380TIP3   OH237096   2.826   7.532   1.776
12380TIP3    H137097   2.793   7.613   1.735
12380TIP3    H237098   2.910   7.557   1.813
12381TIP3   OH237099   3.386   2.918   2.248
12381TIP3    H137100   3.425   2.873   2.323
12381TIP3    H237101   3.352   2.848   2.193
12382TIP3   OH237102   3.402   2.383   0.772
12382TIP3    H137103   3.311   2.392   0.743
12382TIP3    H237104   3.448   2.455   0.729
12383TIP3   OH237105   6.954   3.841   5.730
12383TIP3    H137106   6.860   3.821   5.734
12383TIP3    H237107   6.997   3.760   5.758
12384TIP3   OH237108   6.785   2.149   4.780
12384TIP3    H137109   6.729   2.072   4.785
12384TIP3    H237110   6.873   2.113   4.768
12385TIP3   OH237111   2.983   2.187   1.826
12385TIP3    H137112   2.960   2.099   1.857
12385TIP3    H237113   2.967   2.183   1.731
12386TIP3   OH237114   7.284   6.784   0.349
12386TIP3    H137115   7.212   6.785   0.411
12386TIP3    H237116   7.298   6.876   0.326
12387TIP3   OH237117   7.660   0.354   5.592
12387TIP3    H137118   7.711   0.430   5.563
12387TIP3    H237119   7.681   0.344   5.685
12388TIP3   OH237120   1.977   1.397   2.407
12388TIP3    H137121   1.941   1.484   2.421
12388TIP3    H237122   2.070   1.405   2.426
12389TIP3   OH237123   2.657   0.340   2.522
12389TIP3    H137124   2.581   0.314   2.470
12389TIP3    H237125   2.650   0.435   2.530
12390TIP3   OH237126   1.839   5.821   6.341
12390TIP3    H137127   1.790   5.751   6.298
12390TIP3    H237128   1.901   5.775   6.398
12391TIP3   OH237129   8.206   7.058   6.633
12391TIP3    H137130   8.250   6.982   6.672
12391TIP3    H237131   8.136   7.079   6.695
12392TIP3   OH237132   6.370   4.753   4.218
12392TIP3    H137133   6.406   4.801   4.143
12392TIP3    H237134   6.432   4.682   4.233
12393TIP3   OH237135   6.347   7.334   2.134
12393TIP3    H137136   6.344   7.415   2.084
12393TIP3    H237137   6.296   7.352   2.213
12394TIP3   OH237138   1.616   4.358   1.930
12394TIP3    H137139   1.669   4.278   1.932
12394TIP3    H237140   1.661   4.416   1.869
12395TIP3   OH237141   4.471   6.696   6.640
12395TIP3    H137142   4.380   6.723   6.652
12395TIP3    H237143   4.521   6.751   6.700
12396TIP3   OH237144   0.940   0.124   0.425
12396TIP3    H137145   0.942   0.110   0.520
12396TIP3    H237146   0.902   0.043   0.390
12397TIP3   OH237147   7.335   6.353   4.588
12397TIP3    H137148   7.240   6.347   4.582
12397TIP3    H237149   7.351   6.442   4.620
12398TIP3   OH237150   3.559   2.138   4.038
12398TIP3    H137151   3.488   2.082   4.007
12398TIP3    H237152   3.571   2.203   3.968
12399TIP3   OH237153   7.227   7.774   2.650
12399TIP3    H137154   7.191   7.839   2.710
12399TIP3    H237155   7.218   7.691   2.696
12400TIP3   OH237156   1.246   1.212   6.331
12400TIP3    H137157   1.152   1.218   6.314
12400TIP3    H237158   1.253   1.161   6.411
12401TIP3   OH237159   0.293   3.161   6.117
12401TIP3    H137160   0.265   3.252   6.116
12401TIP3    H237161   0.229   3.117   6.172
12402TIP3   OH237162   4.361   2.840   1.736
12402TIP3    H137163   4.401   2.920   1.704
12402TIP3    H237164   4.356   2.852   1.831
12403TIP3   OH237165   6.413   6.721   5.334
12403TIP3    H137166   6.507   6.704   5.338
12403TIP3    H237167   6.406   6.816   5.326
12404TIP3   OH237168   5.020   2.487   3.049
12404TIP3    H137169   5.035   2.578   3.074
12404TIP3    H237170   5.019   2.488   2.953
12405TIP3   OH237171   5.756   4.080   3.470
12405TIP3    H137172   5.760   4.063   3.565
12405TIP3    H237173   5.848   4.087   3.443
12406TIP3   OH237174   2.510   1.400   1.475
12406TIP3    H137175   2.445   1.454   1.520
12406TIP3    H237176   2.579   1.387   1.540
12407TIP3   OH237177   7.295   5.683   3.159
12407TIP3    H137178   7.240   5.752   3.122
12407TIP3    H237179   7.275   5.605   3.107
12408TIP3   OH237180   0.414   1.703   2.745
12408TIP3    H137181   0.437   1.610   2.744
12408TIP3    H237182   0.319   1.704   2.758
12409TIP3   OH237183   1.654   5.272   1.161
12409TIP3    H137184   1.749   5.286   1.161
12409TIP3    H237185   1.617   5.350   1.121
12410TIP3   OH237186   7.975   0.171   2.537
12410TIP3    H137187   8.057   0.209   2.567
12410TIP3    H237188   7.908   0.208   2.594
12411TIP3   OH237189   2.323   1.793   0.635
12411TIP3    H137190   2.362   1.867   0.589
12411TIP3    H237191   2.381   1.779   0.711
12412TIP3   OH237192   5.844   6.063   2.181
12412TIP3    H137193   5.768   6.004   2.181
12412TIP3    H237194   5.860   6.081   2.088
12413TIP3   OH237195   5.816   4.031   2.430
12413TIP3    H137196   5.879   4.019   2.501
12413TIP3    H237197   5.808   4.126   2.422
12414TIP3   OH237198   5.031   3.007   2.316
12414TIP3    H137199   4.991   2.927   2.280
12414TIP3    H237200   4.957   3.059   2.346
12415TIP3   OH237201   0.166   3.662   3.794
12415TIP3    H137202   0.204   3.581   3.760
12415TIP3    H237203   0.090   3.677   3.739
12416TIP3   OH237204   4.115   7.808   4.553
12416TIP3    H137205   4.133   7.799   4.647
12416TIP3    H237206   4.050   7.741   4.534
12417TIP3   OH237207   7.912   3.206   0.512
12417TIP3    H137208   7.886   3.298   0.508
12417TIP3    H237209   7.912   3.177   0.421
12418TIP3   OH237210   4.830   6.666   2.301
12418TIP3    H137211   4.742   6.702   2.304
12418TIP3    H237212   4.829   6.605   2.227
12419TIP3   OH237213   1.317   6.265   5.088
12419TIP3    H137214   1.335   6.271   4.995
12419TIP3    H237215   1.322   6.172   5.108
12420TIP3   OH237216   6.544   1.146   4.258
12420TIP3    H137217   6.608   1.216   4.269
12420TIP3    H237218   6.469   1.187   4.215
12421TIP3   OH237219   1.909   5.295   3.074
12421TIP3    H137220   1.853   5.371   3.090
12421TIP3    H237221   1.868   5.224   3.123
12422TIP3   OH237222   2.565   2.769   1.328
12422TIP3    H137223   2.642   2.754   1.272
12422TIP3    H237224   2.599   2.761   1.417
12423TIP3   OH237225   1.637   3.993   2.928
12423TIP3    H137226   1.573   4.064   2.929
12423TIP3    H237227   1.656   3.979   2.835
12424TIP3   OH237228   3.269   5.410   5.884
12424TIP3    H137229   3.266   5.314   5.882
12424TIP3    H237230   3.292   5.435   5.795
12425TIP3   OH237231   2.818   4.655   6.282
12425TIP3    H137232   2.775   4.579   6.320
12425TIP3    H237233   2.896   4.620   6.239
12426TIP3   OH237234   1.861   2.809   0.776
12426TIP3    H137235   1.906   2.729   0.803
12426TIP3    H237236   1.835   2.792   0.685
12427TIP3   OH237237   6.256   0.271   3.202
12427TIP3    H137238   6.321   0.336   3.174
12427TIP3    H237239   6.173   0.302   3.164
12428TIP3   OH237240   0.958   7.742   3.281
12428TIP3    H137241   0.879   7.749   3.335
12428TIP3    H237242   1.008   7.821   3.303
12429TIP3   OH237243   2.693   6.143   0.341
12429TIP3    H137244   2.696   6.053   0.373
12429TIP3    H237245   2.696   6.197   0.421
12430TIP3   OH237246   7.244   5.353   5.762
12430TIP3    H137247   7.276   5.323   5.847
12430TIP3    H237248   7.304   5.424   5.739
12431TIP3   OH237249   8.223   2.998   1.000
12431TIP3    H137250   8.184   2.992   0.913
12431TIP3    H237251   8.315   3.019   0.984
12432TIP3   OH237252   2.281   0.401   6.488
12432TIP3    H137253   2.350   0.432   6.429
12432TIP3    H237254   2.200   0.435   6.450
12433TIP3   OH237255   7.665   3.016   0.344
12433TIP3    H137256   7.748   2.969   0.335
12433TIP3    H237257   7.599   2.948   0.348
12434TIP3   OH237258   1.881   7.758   6.286
12434TIP3    H137259   1.949   7.694   6.307
12434TIP3    H237260   1.813   7.742   6.352
12435TIP3   OH237261   8.239   0.605   1.916
12435TIP3    H137262   8.170   0.631   1.977
12435TIP3    H237263   8.215   0.517   1.888
12436TIP3   OH237264   3.017   3.705   1.090
12436TIP3    H137265   3.055   3.650   1.022
12436TIP3    H237266   3.058   3.676   1.171
12437TIP3   OH237267   1.782   0.895   4.693
12437TIP3    H137268   1.744   0.918   4.608
12437TIP3    H237269   1.870   0.865   4.673
12438TIP3   OH237270   4.080   4.664   0.481
12438TIP3    H137271   4.061   4.577   0.445
12438TIP3    H237272   4.078   4.722   0.406
12439TIP3   OH237273   6.556   2.764   0.006
12439TIP3    H137274   6.460   2.764   0.016
12439TIP3    H237275   6.581   2.856   0.012
12440TIP3   OH237276   5.532   5.183   2.567
12440TIP3    H137277   5.607   5.124   2.576
12440TIP3    H237278   5.461   5.139   2.612
12441TIP3   OH237279   0.174   5.718   1.687
12441TIP3    H137280   0.158   5.624   1.691
12441TIP3    H237281   0.089   5.757   1.670
12442TIP3   OH237282   7.767   6.665   2.323
12442TIP3    H137283   7.822   6.605   2.273
12442TIP3    H237284   7.698   6.691   2.262
12443TIP3   OH237285   0.292   7.617   1.676
12443TIP3    H137286   0.241   7.694   1.700
12443TIP3    H237287   0.296   7.565   1.756
12444TIP3   OH237288   1.839   3.352   1.600
12444TIP3    H137289   1.790   3.331   1.679
12444TIP3    H237290   1.817   3.443   1.581
12445TIP3   OH237291   1.799   5.525   3.745
12445TIP3    H137292   1.837   5.581   3.812
12445TIP3    H237293   1.762   5.586   3.681
12446TIP3   OH237294   6.058   5.411   4.631
12446TIP3    H137295   6.065   5.489   4.577
12446TIP3    H237296   5.967   5.382   4.619
12447TIP3   OH237297   0.891   3.773   3.781
12447TIP3    H137298   0.957   3.728   3.833
12447TIP3    H237299   0.895   3.732   3.695
12448TIP3   OH237300   3.508   6.411   0.033
12448TIP3    H137301   3.581   6.370   0.079
12448TIP3    H237302   3.430   6.382   0.082
12449TIP3   OH237303   8.042   0.433   0.984
12449TIP3    H137304   8.043   0.521   0.946
12449TIP3    H237305   7.952   0.403   0.974
12450TIP3   OH237306   3.661   5.177   4.032
12450TIP3    H137307   3.648   5.259   4.080
12450TIP3    H237308   3.615   5.191   3.949
12451TIP3   OH237309   2.197   1.078   5.069
12451TIP3    H137310   2.250   1.046   5.142
12451TIP3    H237311   2.219   1.171   5.063
12452TIP3   OH237312   4.580   0.742   2.146
12452TIP3    H137313   4.624   0.788   2.218
12452TIP3    H237314   4.510   0.801   2.120
12453TIP3   OH237315   0.593   3.796   1.975
12453TIP3    H137316   0.651   3.873   1.974
12453TIP3    H237317   0.616   3.748   1.895
12454TIP3   OH237318   5.492   1.455   2.451
12454TIP3    H137319   5.446   1.538   2.459
12454TIP3    H237320   5.475   1.426   2.362
12455TIP3   OH237321   3.990   1.741   5.554
12455TIP3    H137322   3.975   1.647   5.553
12455TIP3    H237323   3.968   1.768   5.644
12456TIP3   OH237324   5.824   4.866   1.034
12456TIP3    H137325   5.886   4.794   1.020
12456TIP3    H237326   5.855   4.936   0.977
12457TIP3   OH237327   0.553   3.450   5.880
12457TIP3    H137328   0.623   3.443   5.945
12457TIP3    H237329   0.596   3.432   5.796
12458TIP3   OH237330   7.638   2.226   2.290
12458TIP3    H137331   7.620   2.320   2.291
12458TIP3    H237332   7.733   2.219   2.287
12459TIP3   OH237333   5.781   0.799   5.206
12459TIP3    H137334   5.761   0.716   5.164
12459TIP3    H237335   5.701   0.850   5.198
12460TIP3   OH237336   2.116   5.111   5.017
12460TIP3    H137337   2.172   5.050   5.065
12460TIP3    H237338   2.131   5.196   5.060
12461TIP3   OH237339   1.349   3.104   5.323
12461TIP3    H137340   1.302   3.188   5.333
12461TIP3    H237341   1.405   3.117   5.246
12462TIP3   OH237342   2.561   7.455   1.740
12462TIP3    H137343   2.639   7.509   1.750
12462TIP3    H237344   2.489   7.518   1.733
12463TIP3   OH237345   6.135   7.418   0.742
12463TIP3    H137346   6.063   7.438   0.682
12463TIP3    H237347   6.131   7.324   0.754
12464TIP3   OH237348   0.728   5.793   2.160
12464TIP3    H137349   0.779   5.713   2.175
12464TIP3    H237350   0.793   5.863   2.155
12465TIP3   OH237351   5.862   7.566   3.825
12465TIP3    H137352   5.778   7.533   3.792
12465TIP3    H237353   5.888   7.501   3.890
12466TIP3   OH237354   5.425   2.427   6.469
12466TIP3    H137355   5.511   2.417   6.430
12466TIP3    H237356   5.387   2.504   6.426
12467TIP3   OH237357   3.372   3.693   6.694
12467TIP3    H137358   3.456   3.709   6.737
12467TIP3    H237359   3.359   3.770   6.638
12468TIP3   OH237360   5.557   6.900   4.175
12468TIP3    H137361   5.515   6.953   4.108
12468TIP3    H237362   5.527   6.811   4.158
12469TIP3   OH237363   6.632   4.034   0.643
12469TIP3    H137364   6.683   3.975   0.588
12469TIP3    H237365   6.613   3.984   0.722
12470TIP3   OH237366   3.066   6.662   6.335
12470TIP3    H137367   3.091   6.600   6.266
12470TIP3    H237368   3.104   6.745   6.307
12471TIP3   OH237369   7.369   0.495   5.400
12471TIP3    H137370   7.397   0.574   5.447
12471TIP3    H237371   7.326   0.441   5.466
12472TIP3   OH237372   4.973   1.376   1.135
12472TIP3    H137373   5.037   1.423   1.189
12472TIP3    H237374   5.025   1.334   1.067
12473TIP3   OH237375   6.001   6.956   2.897
12473TIP3    H137376   5.946   6.970   2.819
12473TIP3    H237377   6.041   6.870   2.883
12474TIP3   OH237378   6.264   2.723   4.249
12474TIP3    H137379   6.336   2.781   4.277
12474TIP3    H237380   6.216   2.774   4.184
12475TIP3   OH237381   4.466   5.731   4.577
12475TIP3    H137382   4.559   5.709   4.582
12475TIP3    H237383   4.457   5.809   4.632
12476TIP3   OH237384   3.980   1.292   3.989
12476TIP3    H137385   4.019   1.341   3.917
12476TIP3    H237386   3.960   1.206   3.952
12477TIP3   OH237387   1.386   2.343   0.906
12477TIP3    H137388   1.434   2.425   0.921
12477TIP3    H237389   1.438   2.296   0.841
12478TIP3   OH237390   1.988   1.101   3.981
12478TIP3    H137391   1.900   1.124   3.952
12478TIP3    H237392   2.042   1.111   3.903
12479TIP3   OH237393   6.513   6.327   5.936
12479TIP3    H137394   6.485   6.348   5.847
12479TIP3    H237395   6.579   6.258   5.924
12480TIP3   OH237396   3.813   7.336   4.173
12480TIP3    H137397   3.897   7.346   4.129
12480TIP3    H237398   3.788   7.426   4.198
12481TIP3   OH237399   6.137   6.263   4.983
12481TIP3    H137400   6.204   6.200   5.007
12481TIP3    H237401   6.171   6.347   5.015
12482TIP3   OH237402   4.474   2.018   6.180
12482TIP3    H137403   4.511   1.991   6.096
12482TIP3    H237404   4.399   2.072   6.157
12483TIP3   OH237405   5.251   5.390   4.651
12483TIP3    H137406   5.232   5.324   4.584
12483TIP3    H237407   5.172   5.443   4.656
12484TIP3   OH237408   1.460   0.306   5.417
12484TIP3    H137409   1.380   0.268   5.454
12484TIP3    H237410   1.531   0.261   5.464
12485TIP3   OH237411   8.093   4.131   1.478
12485TIP3    H137412   8.055   4.154   1.393
12485TIP3    H237413   8.038   4.061   1.511
12486TIP3   OH237414   0.510   1.479   3.074
12486TIP3    H137415   0.518   1.429   3.156
12486TIP3    H237416   0.474   1.416   3.011
12487TIP3   OH237417   7.528   7.784   3.329
12487TIP3    H137418   7.619   7.776   3.357
12487TIP3    H237419   7.486   7.840   3.395
12488TIP3   OH237420   5.736   7.664   5.540
12488TIP3    H137421   5.648   7.643   5.509
12488TIP3    H237422   5.733   7.757   5.561
12489TIP3   OH237423   3.716   4.737   2.422
12489TIP3    H137424   3.808   4.751   2.442
12489TIP3    H237425   3.714   4.651   2.378
12490TIP3   OH237426   2.868   3.974   4.682
12490TIP3    H137427   2.945   4.027   4.665
12490TIP3    H237428   2.795   4.036   4.677
12491TIP3   OH237429   5.411   5.652   0.461
12491TIP3    H137430   5.505   5.667   0.472
12491TIP3    H237431   5.370   5.711   0.524
12492TIP3   OH237432   1.291   7.383   1.801
12492TIP3    H137433   1.273   7.430   1.883
12492TIP3    H237434   1.238   7.428   1.735
12493TIP3   OH237435   2.779   0.899   1.818
12493TIP3    H137436   2.861   0.896   1.769
12493TIP3    H237437   2.779   0.818   1.869
12494TIP3   OH237438   7.789   6.105   5.354
12494TIP3    H137439   7.771   6.040   5.285
12494TIP3    H237440   7.830   6.178   5.307
12495TIP3   OH237441   1.027   3.245   0.504
12495TIP3    H137442   0.953   3.185   0.496
12495TIP3    H237443   1.099   3.201   0.458
12496TIP3   OH237444   2.265   4.662   2.298
12496TIP3    H137445   2.172   4.668   2.319
12496TIP3    H237446   2.269   4.666   2.203
12497TIP3   OH237447   1.773   1.994   6.554
12497TIP3    H137448   1.793   2.023   6.465
12497TIP3    H237449   1.759   1.900   6.547
12498TIP3   OH237450   1.417   4.007   4.385
12498TIP3    H137451   1.463   3.940   4.333
12498TIP3    H237452   1.385   3.960   4.462
12499TIP3   OH237453   6.749   0.995   6.202
12499TIP3    H137454   6.819   0.992   6.137
12499TIP3    H237455   6.766   0.921   6.259
12500TIP3   OH237456   4.542   0.307   0.747
12500TIP3    H137457   4.531   0.255   0.668
12500TIP3    H237458   4.582   0.389   0.716
12501TIP3   OH237459   1.285   5.122   2.909
12501TIP3    H137460   1.217   5.151   2.970
12501TIP3    H237461   1.277   5.182   2.835
12502TIP3   OH237462   4.004   2.779   5.507
12502TIP3    H137463   3.939   2.743   5.567
12502TIP3    H237464   3.980   2.743   5.421
12503TIP3   OH237465   5.474   5.946   1.709
12503TIP3    H137466   5.461   5.915   1.798
12503TIP3    H237467   5.394   5.919   1.663
12504TIP3   OH237468  -0.038   7.142   1.286
12504TIP3    H137469  -0.014   7.169   1.374
12504TIP3    H237470   0.015   7.064   1.269
12505TIP3   OH237471   6.562   7.261   4.821
12505TIP3    H137472   6.484   7.264   4.765
12505TIP3    H237473   6.632   7.230   4.763
12506TIP3   OH237474   0.608   0.945   2.898
12506TIP3    H137475   0.569   0.942   2.810
12506TIP3    H237476   0.653   0.860   2.906
12507TIP3   OH237477   5.461   4.376   5.082
12507TIP3    H137478   5.385   4.432   5.098
12507TIP3    H237479   5.530   4.437   5.057
12508TIP3   OH237480   6.262   3.932   1.748
12508TIP3    H137481   6.170   3.918   1.770
12508TIP3    H237482   6.265   3.923   1.652
12509TIP3   OH237483   7.445   6.391   0.681
12509TIP3    H137484   7.355   6.386   0.714
12509TIP3    H237485   7.495   6.332   0.738
12510TIP3   OH237486   3.513   3.558   2.963
12510TIP3    H137487   3.560   3.506   3.028
12510TIP3    H237488   3.570   3.556   2.886
12511TIP3   OH237489   3.993   4.733   0.734
12511TIP3    H137490   4.028   4.710   0.648
12511TIP3    H237491   3.936   4.808   0.717
12512TIP3   OH237492   3.024   0.513   4.453
12512TIP3    H137493   2.933   0.540   4.438
12512TIP3    H237494   3.050   0.557   4.533
12513TIP3   OH237495   1.037   1.467   5.249
12513TIP3    H137496   0.993   1.416   5.181
12513TIP3    H237497   0.969   1.482   5.315
12514TIP3   OH237498   3.329   2.926   3.824
12514TIP3    H137499   3.239   2.931   3.854
12514TIP3    H237500   3.341   3.004   3.770
12515TIP3   OH237501   4.340   2.912   4.751
12515TIP3    H137502   4.360   2.847   4.683
12515TIP3    H237503   4.244   2.918   4.751
12516TIP3   OH237504   7.964   5.668   0.661
12516TIP3    H137505   7.934   5.587   0.620
12516TIP3    H237506   8.058   5.671   0.640
12517TIP3   OH237507   1.753   6.861   2.117
12517TIP3    H137508   1.796   6.853   2.032
12517TIP3    H237509   1.817   6.907   2.172
12518TIP3   OH237510   2.610   1.935   4.783
12518TIP3    H137511   2.631   2.028   4.782
12518TIP3    H237512   2.651   1.901   4.862
12519TIP3   OH237513   6.090   0.809   2.622
12519TIP3    H137514   6.162   0.759   2.583
12519TIP3    H237515   6.132   0.881   2.669
12520TIP3   OH237516   0.222   1.909   4.877
12520TIP3    H137517   0.295   1.851   4.857
12520TIP3    H237518   0.205   1.955   4.795
12521TIP3   OH237519   8.078   1.323   3.456
12521TIP3    H137520   8.112   1.398   3.407
12521TIP3    H237521   8.117   1.247   3.414
12522TIP3   OH237522   1.246   6.342   1.095
12522TIP3    H137523   1.162   6.330   1.137
12522TIP3    H237524   1.281   6.423   1.132
12523TIP3   OH237525   6.166   0.443   6.607
12523TIP3    H137526   6.177   0.526   6.654
12523TIP3    H237527   6.077   0.415   6.627
12524TIP3   OH237528   2.145   6.786   3.733
12524TIP3    H137529   2.099   6.865   3.763
12524TIP3    H237530   2.142   6.727   3.809
12525TIP3   OH237531   5.014   4.575   1.571
12525TIP3    H137532   4.941   4.633   1.550
12525TIP3    H237533   5.061   4.619   1.641
12526TIP3   OH237534   3.235   4.300   1.371
12526TIP3    H137535   3.202   4.220   1.412
12526TIP3    H237536   3.209   4.370   1.431
12527TIP3   OH237537   1.601   6.438   3.107
12527TIP3    H137538   1.638   6.384   3.037
12527TIP3    H237539   1.578   6.520   3.065
12528TIP3   OH237540   5.256   0.359   1.485
12528TIP3    H137541   5.337   0.309   1.493
12528TIP3    H237542   5.283   0.451   1.496
12529TIP3   OH237543   8.185   2.904   3.242
12529TIP3    H137544   8.232   2.852   3.307
12529TIP3    H237545   8.235   2.985   3.235
12530TIP3   OH237546   3.507   5.003   0.669
12530TIP3    H137547   3.543   4.945   0.602
12530TIP3    H237548   3.468   4.943   0.733
12531TIP3   OH237549   2.401   7.855   0.390
12531TIP3    H137550   2.420   7.934   0.439
12531TIP3    H237551   2.483   7.805   0.393
12532TIP3   OH237552   8.256   3.167   2.473
12532TIP3    H137553   8.346   3.174   2.440
12532TIP3    H237554   8.264   3.115   2.553
12533TIP3   OH237555   5.840   6.590   2.422
12533TIP3    H137556   5.885   6.641   2.490
12533TIP3    H237557   5.789   6.526   2.471
12534TIP3   OH237558   1.615   1.064   4.835
12534TIP3    H137559   1.668   1.003   4.784
12534TIP3    H237560   1.679   1.125   4.873
12535TIP3   OH237561   0.931   2.639   4.064
12535TIP3    H137562   0.896   2.563   4.017
12535TIP3    H237563   0.981   2.600   4.136
12536TIP3   OH237564   6.021   1.853   0.575
12536TIP3    H137565   5.934   1.813   0.578
12536TIP3    H237566   6.012   1.934   0.626
12537TIP3   OH237567   5.828   1.957   6.644
12537TIP3    H137568   5.797   1.891   6.582
12537TIP3    H237569   5.789   1.930   6.728
12538TIP3   OH237570   2.049   2.212   3.674
12538TIP3    H137571   2.079   2.303   3.668
12538TIP3    H237572   1.961   2.213   3.635
12539TIP3   OH237573   0.202   1.212   6.462
12539TIP3    H137574   0.127   1.156   6.442
12539TIP3    H237575   0.276   1.152   6.470
12540TIP3   OH237576   2.612   1.047   1.549
12540TIP3    H137577   2.535   1.092   1.583
12540TIP3    H237578   2.640   1.100   1.474
12541TIP3   OH237579   0.693   3.051   3.047
12541TIP3    H137580   0.675   2.973   2.994
12541TIP3    H237581   0.611   3.101   3.043
12542TIP3   OH237582   1.633   3.183   2.961
12542TIP3    H137583   1.610   3.091   2.956
12542TIP3    H237584   1.728   3.184   2.976
12543TIP3   OH237585   6.878   6.750   2.183
12543TIP3    H137586   6.940   6.778   2.116
12543TIP3    H237587   6.846   6.832   2.221
12544TIP3   OH237588   2.644   7.087   2.467
12544TIP3    H137589   2.643   7.175   2.429
12544TIP3    H237590   2.684   7.099   2.553
12545TIP3   OH237591   6.795   4.013   0.413
12545TIP3    H137592   6.774   4.092   0.363
12545TIP3    H237593   6.868   4.040   0.469
12546TIP3   OH237594   0.166   4.389   3.118
12546TIP3    H137595   0.154   4.466   3.173
12546TIP3    H237596   0.163   4.422   3.029
12547TIP3   OH237597   4.945   0.947   2.157
12547TIP3    H137598   4.933   0.929   2.250
12547TIP3    H237599   5.003   0.877   2.126
12548TIP3   OH237600   7.161   7.309   6.212
12548TIP3    H137601   7.201   7.392   6.186
12548TIP3    H237602   7.211   7.282   6.290
12549TIP3   OH237603   7.293   2.677   2.681
12549TIP3    H137604   7.290   2.598   2.627
12549TIP3    H237605   7.304   2.748   2.618
12550TIP3   OH237606   4.104   2.348   6.544
12550TIP3    H137607   4.067   2.314   6.626
12550TIP3    H237608   4.048   2.422   6.522
12551TIP3   OH237609   5.245   4.305   3.287
12551TIP3    H137610   5.232   4.224   3.238
12551TIP3    H237611   5.158   4.345   3.289
12552TIP3   OH237612   3.519   4.334   4.843
12552TIP3    H137613   3.435   4.335   4.797
12552TIP3    H237614   3.577   4.286   4.785
12553TIP3   OH237615   7.140   2.856   1.777
12553TIP3    H137616   7.054   2.832   1.813
12553TIP3    H237617   7.122   2.935   1.725
12554TIP3   OH237618   6.524   3.388   0.440
12554TIP3    H137619   6.453   3.424   0.493
12554TIP3    H237620   6.503   3.295   0.432
12555TIP3   OH237621   2.690   0.845   6.417
12555TIP3    H137622   2.669   0.928   6.373
12555TIP3    H237623   2.613   0.791   6.404
12556TIP3   OH237624   7.109   4.181   3.175
12556TIP3    H137625   7.126   4.204   3.084
12556TIP3    H237626   7.122   4.086   3.178
12557TIP3   OH237627   3.400   4.306   3.795
12557TIP3    H137628   3.345   4.375   3.834
12557TIP3    H237629   3.447   4.268   3.870
12558TIP3   OH237630   0.729   5.891   3.016
12558TIP3    H137631   0.639   5.910   2.989
12558TIP3    H237632   0.772   5.976   3.018
12559TIP3   OH237633   7.882   2.951   0.613
12559TIP3    H137634   7.850   3.036   0.583
12559TIP3    H237635   7.901   2.903   0.532
12560TIP3   OH237636   3.232   6.448   0.167
12560TIP3    H137637   3.298   6.517   0.161
12560TIP3    H237638   3.157   6.490   0.210
12561TIP3   OH237639   5.434   5.708   4.996
12561TIP3    H137640   5.388   5.792   5.001
12561TIP3    H237641   5.493   5.708   5.071
12562TIP3   OH237642   7.304   2.176   6.041
12562TIP3    H137643   7.370   2.212   6.101
12562TIP3    H237644   7.342   2.187   5.954
12563TIP3   OH237645   3.505   4.885   5.573
12563TIP3    H137646   3.562   4.956   5.602
12563TIP3    H237647   3.509   4.821   5.643
12564TIP3   OH237648   3.642   0.350   5.923
12564TIP3    H137649   3.674   0.333   6.011
12564TIP3    H237650   3.714   0.323   5.866
12565TIP3   OH237651   5.889   2.039   1.597
12565TIP3    H137652   5.938   1.958   1.610
12565TIP3    H237653   5.953   2.101   1.561
12566TIP3   OH237654   2.199   0.899   5.460
12566TIP3    H137655   2.104   0.911   5.460
12566TIP3    H237656   2.218   0.865   5.373
12567TIP3   OH237657   1.718   5.856   1.778
12567TIP3    H137658   1.704   5.951   1.778
12567TIP3    H237659   1.781   5.841   1.707
12568TIP3   OH237660   1.443   2.556   4.428
12568TIP3    H137661   1.533   2.586   4.441
12568TIP3    H237662   1.443   2.467   4.463
12569TIP3   OH237663   6.039   2.850   6.216
12569TIP3    H137664   6.041   2.789   6.290
12569TIP3    H237665   5.945   2.864   6.199
12570TIP3   OH237666   4.290   3.568   1.871
12570TIP3    H137667   4.247   3.641   1.917
12570TIP3    H237668   4.328   3.609   1.793
12571TIP3   OH237669   6.415   5.028   5.442
12571TIP3    H137670   6.395   5.108   5.490
12571TIP3    H237671   6.491   4.990   5.489
12572TIP3   OH237672   4.222   1.747   3.358
12572TIP3    H137673   4.235   1.803   3.281
12572TIP3    H237674   4.302   1.760   3.410
12573TIP3   OH237675   7.181   7.210   4.345
12573TIP3    H137676   7.195   7.187   4.253
12573TIP3    H237677   7.215   7.135   4.394
12574TIP3   OH237678   0.751   3.208   6.319
12574TIP3    H137679   0.672   3.155   6.310
12574TIP3    H237680   0.799   3.194   6.238
12575TIP3   OH237681   1.066   6.579   1.158
12575TIP3    H137682   0.973   6.599   1.150
12575TIP3    H237683   1.071   6.515   1.229
12576TIP3   OH237684   7.780   3.240   6.318
12576TIP3    H137685   7.694   3.255   6.279
12576TIP3    H237686   7.809   3.327   6.346
12577TIP3   OH237687   4.462   4.750   6.640
12577TIP3    H137688   4.495   4.732   6.552
12577TIP3    H237689   4.453   4.663   6.679
12578TIP3   OH237690   4.168   4.427   2.482
12578TIP3    H137691   4.204   4.387   2.561
12578TIP3    H237692   4.239   4.418   2.418
12579TIP3   OH237693   6.688   5.416   5.344
12579TIP3    H137694   6.745   5.347   5.376
12579TIP3    H237695   6.688   5.406   5.248
12580TIP3   OH237696   4.797   1.910   3.515
12580TIP3    H137697   4.746   1.975   3.565
12580TIP3    H237698   4.874   1.894   3.569
12581TIP3   OH237699   6.707   1.383   5.821
12581TIP3    H137700   6.634   1.405   5.763
12581TIP3    H237701   6.767   1.458   5.815
12582TIP3   OH237702   4.136   4.232   0.262
12582TIP3    H137703   4.228   4.235   0.234
12582TIP3    H237704   4.089   4.283   0.195
12583TIP3   OH237705   3.765   4.123   2.433
12583TIP3    H137706   3.701   4.192   2.412
12583TIP3    H237707   3.711   4.047   2.454
12584TIP3   OH237708   7.553   7.201   2.034
12584TIP3    H137709   7.646   7.218   2.049
12584TIP3    H237710   7.508   7.243   2.108
12585TIP3   OH237711   5.030   2.802   4.394
12585TIP3    H137712   5.063   2.866   4.457
12585TIP3    H237713   5.048   2.717   4.435
12586TIP3   OH237714   2.896   1.521   2.517
12586TIP3    H137715   2.960   1.571   2.465
12586TIP3    H237716   2.946   1.492   2.594
12587TIP3   OH237717   5.740   3.608   1.481
12587TIP3    H137718   5.832   3.636   1.484
12587TIP3    H237719   5.717   3.612   1.388
12588TIP3   OH237720   0.385   7.358   1.611
12588TIP3    H137721   0.313   7.302   1.641
12588TIP3    H237722   0.353   7.447   1.623
12589TIP3   OH237723   3.907   6.084   6.246
12589TIP3    H137724   3.874   6.167   6.211
12589TIP3    H237725   3.995   6.105   6.278
12590TIP3   OH237726   0.690   4.311   1.252
12590TIP3    H137727   0.710   4.354   1.335
12590TIP3    H237728   0.596   4.291   1.258
12591TIP3   OH237729   7.122   3.625   3.074
12591TIP3    H137730   7.101   3.542   3.031
12591TIP3    H237731   7.198   3.658   3.027
12592TIP3   OH237732   0.327   1.408   1.006
12592TIP3    H137733   0.356   1.317   0.998
12592TIP3    H237734   0.405   1.455   1.035
12593TIP3   OH237735   0.504   7.095   5.261
12593TIP3    H137736   0.553   7.065   5.338
12593TIP3    H237737   0.529   7.187   5.251
12594TIP3   OH237738   1.336   6.831   1.610
12594TIP3    H137739   1.277   6.904   1.595
12594TIP3    H237740   1.351   6.831   1.704
12595TIP3   OH237741   1.388   1.702   1.166
12595TIP3    H137742   1.386   1.781   1.113
12595TIP3    H237743   1.457   1.718   1.230
12596TIP3   OH237744   3.664   6.021   6.334
12596TIP3    H137745   3.633   5.946   6.283
12596TIP3    H237746   3.755   6.033   6.307
12597TIP3   OH237747   7.327   6.530   1.719
12597TIP3    H137748   7.242   6.510   1.681
12597TIP3    H237749   7.308   6.552   1.810
12598TIP3   OH237750   7.356   7.353   4.044
12598TIP3    H137751   7.435   7.332   4.094
12598TIP3    H237752   7.332   7.272   4.000
12599TIP3   OH237753   5.369   7.214   2.121
12599TIP3    H137754   5.323   7.171   2.049
12599TIP3    H237755   5.459   7.183   2.114
12600TIP3   OH237756   3.720   6.582   2.429
12600TIP3    H137757   3.660   6.607   2.359
12600TIP3    H237758   3.756   6.665   2.460
12601TIP3   OH237759   6.052   7.012   4.612
12601TIP3    H137760   6.099   6.984   4.533
12601TIP3    H237761   5.972   7.053   4.578
12602TIP3   OH237762   2.370   3.631   2.620
12602TIP3    H137763   2.307   3.562   2.598
12602TIP3    H237764   2.452   3.604   2.579
12603TIP3   OH237765   6.675   2.392   6.627
12603TIP3    H137766   6.586   2.355   6.630
12603TIP3    H237767   6.709   2.379   6.715
12604TIP3   OH237768   2.182   2.264   4.902
12604TIP3    H137769   2.143   2.290   4.986
12604TIP3    H237770   2.150   2.328   4.840
12605TIP3   OH237771   4.839   4.653   5.094
12605TIP3    H137772   4.870   4.571   5.056
12605TIP3    H237773   4.917   4.709   5.096
12606TIP3   OH237774   1.138   1.108   3.306
12606TIP3    H137775   1.048   1.094   3.277
12606TIP3    H237776   1.147   1.053   3.384
12607TIP3   OH237777   1.767   6.023   2.034
12607TIP3    H137778   1.706   5.950   2.046
12607TIP3    H237779   1.734   6.070   1.957
12608TIP3   OH237780   7.354   5.392   5.430
12608TIP3    H137781   7.432   5.377   5.377
12608TIP3    H237782   7.379   5.461   5.491
12609TIP3   OH237783   3.539   3.642   1.917
12609TIP3    H137784   3.535   3.583   1.992
12609TIP3    H237785   3.515   3.587   1.842
12610TIP3   OH237786   8.088   2.723   5.589
12610TIP3    H137787   8.090   2.691   5.499
12610TIP3    H237788   8.080   2.818   5.580
12611TIP3   OH237789   5.399   7.406   2.335
12611TIP3    H137790   5.401   7.325   2.284
12611TIP3    H237791   5.401   7.476   2.269
12612TIP3   OH237792   4.160   7.586   3.636
12612TIP3    H137793   4.183   7.513   3.693
12612TIP3    H237794   4.210   7.570   3.556
12613TIP3   OH237795   1.031   4.902   4.827
12613TIP3    H137796   0.988   4.892   4.742
12613TIP3    H237797   1.100   4.966   4.810
12614TIP3   OH237798   4.731   3.033   6.397
12614TIP3    H137799   4.673   3.104   6.423
12614TIP3    H237800   4.673   2.967   6.359
12615TIP3   OH237801   5.799   0.245   2.430
12615TIP3    H137802   5.728   0.247   2.365
12615TIP3    H237803   5.865   0.187   2.391
12616TIP3   OH237804   0.292   1.123   5.845
12616TIP3    H137805   0.263   1.143   5.756
12616TIP3    H237806   0.370   1.069   5.833
12617TIP3   OH237807   5.438   6.004   0.551
12617TIP3    H137808   5.513   5.945   0.557
12617TIP3    H237809   5.450   6.066   0.622
12618TIP3   OH237810   5.537   4.187   4.674
12618TIP3    H137811   5.631   4.174   4.686
12618TIP3    H237812   5.530   4.246   4.598
12619TIP3   OH237813   5.536   3.186   3.977
12619TIP3    H137814   5.469   3.209   3.912
12619TIP3    H237815   5.545   3.091   3.970
12620TIP3   OH237816   6.320   2.329   1.827
12620TIP3    H137817   6.250   2.391   1.804
12620TIP3    H237818   6.395   2.358   1.776
12621TIP3   OH237819   5.757   3.871   6.599
12621TIP3    H137820   5.744   3.965   6.609
12621TIP3    H237821   5.697   3.831   6.661
12622TIP3   OH237822   0.782   2.966   4.855
12622TIP3    H137823   0.849   3.021   4.894
12622TIP3    H237824   0.828   2.917   4.786
12623TIP3   OH237825   6.463   0.363   4.937
12623TIP3    H137826   6.512   0.438   4.971
12623TIP3    H237827   6.468   0.297   5.007
12624TIP3   OH237828   0.436   6.766   0.996
12624TIP3    H137829   0.519   6.793   0.956
12624TIP3    H237830   0.443   6.793   1.087
12625TIP3   OH237831   7.765   6.135   3.591
12625TIP3    H137832   7.756   6.080   3.670
12625TIP3    H237833   7.820   6.084   3.532
12626TIP3   OH237834   7.303   2.483   4.116
12626TIP3    H137835   7.221   2.483   4.066
12626TIP3    H237836   7.368   2.446   4.055
12627TIP3   OH237837   0.235   4.527   5.983
12627TIP3    H137838   0.276   4.441   5.983
12627TIP3    H237839   0.284   4.577   5.918
12628TIP3   OH237840   6.465   1.379   5.289
12628TIP3    H137841   6.436   1.468   5.310
12628TIP3    H237842   6.560   1.385   5.285
12629TIP3   OH237843   5.236   1.629   3.936
12629TIP3    H137844   5.298   1.680   3.883
12629TIP3    H237845   5.258   1.538   3.917
12630TIP3   OH237846   1.529   0.267   3.937
12630TIP3    H137847   1.481   0.289   4.017
12630TIP3    H237848   1.549   0.352   3.897
12631TIP3   OH237849   5.257   2.829   4.842
12631TIP3    H137850   5.173   2.830   4.797
12631TIP3    H237851   5.239   2.789   4.927
12632TIP3   OH237852   1.447   5.698   3.446
12632TIP3    H137853   1.503   5.658   3.379
12632TIP3    H237854   1.387   5.754   3.397
12633TIP3   OH237855   1.517   5.868   2.096
12633TIP3    H137856   1.488   5.848   2.007
12633TIP3    H237857   1.457   5.937   2.125
12634TIP3   OH237858   2.587   6.782   6.518
12634TIP3    H137859   2.526   6.855   6.529
12634TIP3    H237860   2.585   6.762   6.424
12635TIP3   OH237861   0.241   7.285   3.893
12635TIP3    H137862   0.188   7.346   3.945
12635TIP3    H237863   0.211   7.297   3.803
12636TIP3   OH237864   4.252   3.130   4.548
12636TIP3    H137865   4.202   3.050   4.529
12636TIP3    H237866   4.220   3.158   4.634
12637TIP3   OH237867   1.837   0.940   6.560
12637TIP3    H137868   1.791   0.869   6.514
12637TIP3    H237869   1.833   1.014   6.499
12638TIP3   OH237870   1.704   6.036   0.933
12638TIP3    H137871   1.729   6.071   0.847
12638TIP3    H237872   1.649   6.105   0.972
12639TIP3   OH237873   3.016   1.178   2.828
12639TIP3    H137874   2.943   1.133   2.870
12639TIP3    H237875   3.062   1.223   2.899
12640TIP3   OH237876   4.319   7.445   0.294
12640TIP3    H137877   4.314   7.354   0.324
12640TIP3    H237878   4.228   7.473   0.285
12641TIP3   OH237879   7.512   4.637   0.572
12641TIP3    H137880   7.587   4.675   0.527
12641TIP3    H237881   7.550   4.575   0.634
12642TIP3   OH237882   0.683   0.886   1.720
12642TIP3    H137883   0.708   0.899   1.811
12642TIP3    H237884   0.634   0.803   1.720
12643TIP3   OH237885   0.679   4.499   2.635
12643TIP3    H137886   0.755   4.552   2.657
12643TIP3    H237887   0.686   4.484   2.541
12644TIP3   OH237888   1.356   1.421   6.477
12644TIP3    H137889   1.419   1.479   6.433
12644TIP3    H237890   1.331   1.357   6.410
12645TIP3   OH237891   6.232   6.969   2.371
12645TIP3    H137892   6.264   6.885   2.338
12645TIP3    H237893   6.310   7.024   2.376
12646TIP3   OH237894   6.874   7.261   5.738
12646TIP3    H137895   6.844   7.266   5.829
12646TIP3    H237896   6.911   7.173   5.730
12647TIP3   OH237897   2.763   1.905  -0.027
12647TIP3    H137898   2.802   1.822   0.003
12647TIP3    H237899   2.788   1.968   0.041
12648TIP3   OH237900   3.653   1.197   4.523
12648TIP3    H137901   3.654   1.196   4.427
12648TIP3    H237902   3.633   1.107   4.548
12649TIP3   OH237903   0.345   6.733   6.274
12649TIP3    H137904   0.412   6.788   6.314
12649TIP3    H237905   0.390   6.651   6.252
12650TIP3   OH237906   0.633   2.222   2.572
12650TIP3    H137907   0.724   2.197   2.557
12650TIP3    H237908   0.582   2.156   2.526
12651TIP3   OH237909   0.482   0.774   4.101
12651TIP3    H137910   0.402   0.813   4.066
12651TIP3    H237911   0.452   0.710   4.166
12652TIP3   OH237912   3.755   6.019   5.560
12652TIP3    H137913   3.758   5.947   5.623
12652TIP3    H237914   3.837   6.012   5.511
12653TIP3   OH237915   1.126   7.797   4.765
12653TIP3    H137916   1.130   7.715   4.717
12653TIP3    H237917   1.077   7.856   4.709
12654TIP3   OH237918   3.120   4.096   4.656
12654TIP3    H137919   3.139   4.176   4.704
12654TIP3    H237920   3.204   4.051   4.649
12655TIP3   OH237921   4.483   5.912   1.533
12655TIP3    H137922   4.461   5.943   1.446
12655TIP3    H237923   4.503   5.819   1.520
12656TIP3   OH237924   8.050   2.664   1.779
12656TIP3    H137925   8.141   2.661   1.750
12656TIP3    H237926   8.053   2.719   1.858
12657TIP3   OH237927   3.185   5.775   2.284
12657TIP3    H137928   3.168   5.845   2.222
12657TIP3    H237929   3.179   5.695   2.232
12658TIP3   OH237930   6.521   1.895   5.478
12658TIP3    H137931   6.475   1.934   5.403
12658TIP3    H237932   6.529   1.967   5.541
12659TIP3   OH237933   2.963   2.159   2.525
12659TIP3    H137934   2.994   2.101   2.595
12659TIP3    H237935   3.040   2.172   2.469
12660TIP3   OH237936   7.208   7.396   6.691
12660TIP3    H137937   7.269   7.462   6.726
12660TIP3    H237938   7.146   7.382   6.762
12661TIP3   OH237939   5.728   1.751   6.492
12661TIP3    H137940   5.769   1.668   6.515
12661TIP3    H237941   5.657   1.727   6.433
12662TIP3   OH237942   6.931   7.664   0.426
12662TIP3    H137943   6.899   7.653   0.516
12662TIP3    H237944   6.868   7.723   0.385
12663TIP3   OH237945   4.976   1.355   2.138
12663TIP3    H137946   4.983   1.349   2.043
12663TIP3    H237947   4.946   1.269   2.166
12664TIP3   OH237948   4.342   4.582   0.794
12664TIP3    H137949   4.304   4.597   0.880
12664TIP3    H237950   4.436   4.594   0.807
12665TIP3   OH237951   4.686   3.589   1.973
12665TIP3    H137952   4.766   3.585   2.024
12665TIP3    H237953   4.712   3.627   1.889
12666TIP3   OH237954   0.386   0.482   4.016
12666TIP3    H137955   0.358   0.525   4.096
12666TIP3    H237956   0.392   0.552   3.951
12667TIP3   OH237957   4.251   6.562   2.046
12667TIP3    H137958   4.212   6.530   2.127
12667TIP3    H237959   4.274   6.483   1.997
12668TIP3   OH237960   5.914   6.990   0.057
12668TIP3    H137961   5.850   6.931   0.097
12668TIP3    H237962   5.895   7.076   0.095
12669TIP3   OH237963   7.555   3.925   0.092
12669TIP3    H137964   7.562   3.914   0.187
12669TIP3    H237965   7.634   3.973   0.068
12670TIP3   OH237966   7.512   1.400   6.130
12670TIP3    H137967   7.578   1.424   6.194
12670TIP3    H237968   7.445   1.468   6.136
12671TIP3   OH237969   7.437   5.083   4.695
12671TIP3    H137970   7.529   5.084   4.723
12671TIP3    H237971   7.389   5.122   4.768
12672TIP3   OH237972   5.062   0.533   5.140
12672TIP3    H137973   5.097   0.526   5.051
12672TIP3    H237974   4.968   0.547   5.127
12673TIP3   OH237975   0.589   5.166   2.639
12673TIP3    H137976   0.662   5.126   2.591
12673TIP3    H237977   0.584   5.116   2.721
12674TIP3   OH237978   4.017   0.363   2.720
12674TIP3    H137979   4.014   0.286   2.778
12674TIP3    H237980   4.018   0.327   2.632
12675TIP3   OH237981   6.238   7.380   2.374
12675TIP3    H137982   6.214   7.472   2.388
12675TIP3    H237983   6.260   7.347   2.461
12676TIP3   OH237984   2.948   5.012   1.257
12676TIP3    H137985   2.932   5.103   1.285
12676TIP3    H237986   3.027   4.986   1.305
12677TIP3   OH237987   6.293   3.070   1.496
12677TIP3    H137988   6.374   3.028   1.467
12677TIP3    H237989   6.235   2.997   1.517
12678TIP3   OH237990   2.530   7.642   2.918
12678TIP3    H137991   2.603   7.683   2.964
12678TIP3    H237992   2.474   7.607   2.987
12679TIP3   OH237993   8.267   1.886   6.707
12679TIP3    H137994   8.329   1.817   6.683
12679TIP3    H237995   8.263   1.943   6.631
12680TIP3   OH237996   6.100   3.066   1.919
12680TIP3    H137997   6.188   3.066   1.881
12680TIP3    H237998   6.048   3.116   1.857
12681TIP3   OH237999   1.333   1.017   2.356
12681TIP3    H138000   1.292   1.020   2.442
12681TIP3    H238001   1.260   1.016   2.294
12682TIP3   OH238002   7.364   4.427   4.325
12682TIP3    H138003   7.400   4.512   4.302
12682TIP3    H238004   7.431   4.364   4.300
12683TIP3   OH238005   2.040   6.105   1.910
12683TIP3    H138006   2.090   6.140   1.837
12683TIP3    H238007   1.957   6.077   1.871
12684TIP3   OH238008   3.197   6.776   1.190
12684TIP3    H138009   3.182   6.710   1.258
12684TIP3    H238010   3.127   6.839   1.202
12685TIP3   OH238011   4.359   2.556   4.913
12685TIP3    H138012   4.326   2.552   5.003
12685TIP3    H238013   4.281   2.570   4.860
12686TIP3   OH238014   0.431   6.753   2.204
12686TIP3    H138015   0.490   6.757   2.279
12686TIP3    H238016   0.481   6.711   2.135
12687TIP3   OH238017   1.665   7.733   5.685
12687TIP3    H138018   1.689   7.659   5.628
12687TIP3    H238019   1.669   7.697   5.773
12688TIP3   OH238020   3.345   2.937   5.572
12688TIP3    H138021   3.417   2.873   5.571
12688TIP3    H238022   3.266   2.884   5.563
12689TIP3   OH238023   1.289   3.202   5.613
12689TIP3    H138024   1.378   3.178   5.588
12689TIP3    H238025   1.264   3.269   5.548
12690TIP3   OH238026   2.863   7.437   2.501
12690TIP3    H138027   2.799   7.492   2.546
12690TIP3    H238028   2.931   7.499   2.471
12691TIP3   OH238029   2.945   6.500   1.608
12691TIP3    H138030   2.866   6.531   1.565
12691TIP3    H238031   2.958   6.562   1.681
12692TIP3   OH238032   1.405   3.686   5.542
12692TIP3    H138033   1.500   3.701   5.547
12692TIP3    H238034   1.394   3.628   5.467
12693TIP3   OH238035   2.771   6.769   2.777
12693TIP3    H138036   2.719   6.731   2.706
12693TIP3    H238037   2.720   6.750   2.856
12694TIP3   OH238038   1.789   1.282   4.901
12694TIP3    H138039   1.860   1.253   4.843
12694TIP3    H238040   1.830   1.288   4.987
12695TIP3   OH238041   5.564   6.343   1.645
12695TIP3    H138042   5.547   6.329   1.738
12695TIP3    H238043   5.614   6.425   1.642
12696TIP3   OH238044   0.590   4.003   3.463
12696TIP3    H138045   0.566   4.084   3.417
12696TIP3    H238046   0.508   3.955   3.473
12697TIP3   OH238047   0.037   5.848   2.785
12697TIP3    H138048   0.062   5.756   2.794
12697TIP3    H238049   0.033   5.863   2.691
12698TIP3   OH238050   0.066   3.580   2.744
12698TIP3    H138051   0.109   3.495   2.741
12698TIP3    H238052   0.138   3.644   2.742
12699TIP3   OH238053   4.991   1.711   2.446
12699TIP3    H138054   4.962   1.678   2.531
12699TIP3    H238055   4.943   1.659   2.382
12700TIP3   OH238056   3.691   3.377   4.221
12700TIP3    H138057   3.624   3.321   4.182
12700TIP3    H238058   3.774   3.338   4.194
12701TIP3   OH238059   3.970   3.934   4.191
12701TIP3    H138060   3.927   3.949   4.275
12701TIP3    H238061   4.036   3.867   4.209
12702TIP3   OH238062   1.826   2.336   2.806
12702TIP3    H138063   1.784   2.357   2.723
12702TIP3    H238064   1.786   2.396   2.869
12703TIP3   OH238065   2.439   0.036   5.930
12703TIP3    H138066   2.461   0.128   5.913
12703TIP3    H238067   2.376   0.013   5.861
12704TIP3   OH238068   2.589   2.167   6.450
12704TIP3    H138069   2.525   2.097   6.467
12704TIP3    H238070   2.537   2.247   6.448
12705TIP3   OH238071   2.088   3.517   5.279
12705TIP3    H138072   2.137   3.560   5.209
12705TIP3    H238073   2.003   3.497   5.240
12706TIP3   OH238074   0.805  -0.006   1.129
12706TIP3    H138075   0.850   0.069   1.168
12706TIP3    H238076   0.862  -0.035   1.058
12707TIP3   OH238077   3.633   7.897   3.645
12707TIP3    H138078   3.567   7.895   3.714
12707TIP3    H238079   3.634   7.807   3.610
12708TIP3   OH238080   6.662   2.809   3.100
12708TIP3    H138081   6.737   2.857   3.062
12708TIP3    H238082   6.645   2.853   3.183
12709TIP3   OH238083   3.438   3.480   5.315
12709TIP3    H138084   3.395   3.463   5.399
12709TIP3    H238085   3.522   3.434   5.321
12710TIP3   OH238086   5.438   6.990   0.651
12710TIP3    H138087   5.448   6.972   0.744
12710TIP3    H238088   5.517   7.038   0.627
12711TIP3   OH238089   0.636   0.165   4.533
12711TIP3    H138090   0.712   0.181   4.589
12711TIP3    H238091   0.563   0.207   4.579
12712TIP3   OH238092   5.601   4.261   4.404
12712TIP3    H138093   5.675   4.321   4.403
12712TIP3    H238094   5.542   4.294   4.336
12713TIP3   OH238095   1.686   1.401   1.754
12713TIP3    H138096   1.706   1.308   1.740
12713TIP3    H238097   1.667   1.434   1.666
12714TIP3   OH238098   0.310   5.581   4.774
12714TIP3    H138099   0.251   5.528   4.721
12714TIP3    H238100   0.262   5.595   4.856
12715TIP3   OH238101   7.704   6.253   1.155
12715TIP3    H138102   7.622   6.228   1.114
12715TIP3    H238103   7.681   6.328   1.211
12716TIP3   OH238104   5.694   2.229   6.533
12716TIP3    H138105   5.681   2.170   6.607
12716TIP3    H238106   5.677   2.175   6.456
12717TIP3   OH238107   6.737   4.647   3.006
12717TIP3    H138108   6.823   4.684   3.022
12717TIP3    H238109   6.685   4.672   3.083
12718TIP3   OH238110   4.319   3.400   1.324
12718TIP3    H138111   4.302   3.424   1.233
12718TIP3    H238112   4.317   3.304   1.324
12719TIP3   OH238113   1.476   1.393   4.701
12719TIP3    H138114   1.386   1.363   4.698
12719TIP3    H238115   1.528   1.314   4.717
12720TIP3   OH238116   7.820   3.340   3.331
12720TIP3    H138117   7.792   3.248   3.330
12720TIP3    H238118   7.887   3.345   3.262
12721TIP3   OH238119   5.771   0.251   4.503
12721TIP3    H138120   5.815   0.219   4.424
12721TIP3    H238121   5.678   0.246   4.483
12722TIP3   OH238122   7.232   6.351   5.041
12722TIP3    H138123   7.239   6.446   5.038
12722TIP3    H238124   7.282   6.326   5.119
12723TIP3   OH238125   2.677   1.580   6.649
12723TIP3    H138126   2.598   1.633   6.653
12723TIP3    H238127   2.747   1.642   6.629
12724TIP3   OH238128   5.771   1.140   1.881
12724TIP3    H138129   5.802   1.206   1.818
12724TIP3    H238130   5.738   1.069   1.826
12725TIP3   OH238131   5.573   6.526   6.214
12725TIP3    H138132   5.522   6.580   6.153
12725TIP3    H238133   5.525   6.443   6.219
12726TIP3   OH238134   2.184   1.737   1.019
12726TIP3    H138135   2.196   1.671   0.951
12726TIP3    H238136   2.222   1.817   0.981
12727TIP3   OH238137   1.895   5.531   4.788
12727TIP3    H138138   1.918   5.623   4.800
12727TIP3    H238139   1.969   5.483   4.825
12728TIP3   OH238140   2.131   6.638   2.089
12728TIP3    H138141   2.225   6.654   2.094
12728TIP3    H238142   2.121   6.544   2.106
12729TIP3   OH238143   0.109   2.256   1.871
12729TIP3    H138144   0.023   2.235   1.833
12729TIP3    H238145   0.136   2.175   1.913
12730TIP3   OH238146   2.021   2.917   6.138
12730TIP3    H138147   2.089   2.919   6.206
12730TIP3    H238148   2.063   2.953   6.060
12731TIP3   OH238149   6.443   6.784   5.863
12731TIP3    H138150   6.477   6.738   5.940
12731TIP3    H238151   6.359   6.820   5.892
12732TIP3   OH238152   1.701   4.847   0.230
12732TIP3    H138153   1.717   4.887   0.144
12732TIP3    H238154   1.787   4.813   0.257
12733TIP3   OH238155   1.327   7.489   2.989
12733TIP3    H138156   1.318   7.501   3.083
12733TIP3    H238157   1.277   7.409   2.971
12734TIP3   OH238158   5.884   1.675   5.579
12734TIP3    H138159   5.868   1.586   5.546
12734TIP3    H238160   5.850   1.732   5.510
12735TIP3   OH238161   5.890   5.646   4.022
12735TIP3    H138162   5.965   5.704   4.013
12735TIP3    H238163   5.814   5.701   4.005
12736TIP3   OH238164   5.315   4.256   1.213
12736TIP3    H138165   5.405   4.286   1.206
12736TIP3    H238166   5.274   4.316   1.275
12737TIP3   OH238167   5.960   3.578   0.304
12737TIP3    H138168   6.054   3.594   0.313
12737TIP3    H238169   5.930   3.565   0.394
12738TIP3   OH238170   4.281   0.652   4.757
12738TIP3    H138171   4.276   0.659   4.852
12738TIP3    H238172   4.191   0.666   4.727
12739TIP3   OH238173   6.692   7.149   1.540
12739TIP3    H138174   6.650   7.233   1.520
12739TIP3    H238175   6.630   7.084   1.508
12740TIP3   OH238176   5.709   4.972   4.588
12740TIP3    H138177   5.695   4.936   4.675
12740TIP3    H238178   5.692   4.899   4.528
12741TIP3   OH238179   8.031   4.898   1.022
12741TIP3    H138180   8.073   4.940   0.947
12741TIP3    H238181   8.102   4.859   1.072
12742TIP3   OH238182   5.171   5.214   4.439
12742TIP3    H138183   5.087   5.173   4.459
12742TIP3    H238184   5.212   5.156   4.375
12743TIP3   OH238185   7.428   6.484   2.721
12743TIP3    H138186   7.452   6.393   2.703
12743TIP3    H238187   7.461   6.500   2.809
12744TIP3   OH238188   1.517   5.472   3.285
12744TIP3    H138189   1.607   5.494   3.261
12744TIP3    H238190   1.469   5.473   3.202
12745TIP3   OH238191   5.526   2.781   0.899
12745TIP3    H138192   5.507   2.832   0.820
12745TIP3    H238193   5.617   2.803   0.920
12746TIP3   OH238194   6.068   5.835   4.035
12746TIP3    H138195   6.129   5.840   4.108
12746TIP3    H238196   6.043   5.925   4.018
12747TIP3   OH238197   0.363   6.134   1.634
12747TIP3    H138198   0.454   6.137   1.605
12747TIP3    H238199   0.323   6.066   1.579
12748TIP3   OH238200   4.126   7.057   0.650
12748TIP3    H138201   4.099   7.103   0.571
12748TIP3    H238202   4.215   7.027   0.631
12749TIP3   OH238203   3.809   6.285   6.083
12749TIP3    H138204   3.745   6.314   6.147
12749TIP3    H238205   3.839   6.366   6.041
12750TIP3   OH238206   5.993   0.077   4.689
12750TIP3    H138207   5.979   0.134   4.764
12750TIP3    H238208   6.083   0.094   4.662
12751TIP3   OH238209   1.430   0.082   1.248
12751TIP3    H138210   1.346   0.089   1.202
12751TIP3    H238211   1.412   0.025   1.323
12752TIP3   OH238212   0.757   3.551   2.452
12752TIP3    H138213   0.842   3.577   2.418
12752TIP3    H238214   0.736   3.470   2.406
12753TIP3   OH238215   5.822   3.198   3.499
12753TIP3    H138216   5.833   3.286   3.535
12753TIP3    H238217   5.819   3.141   3.576
12754TIP3   OH238218   1.550   5.890   6.236
12754TIP3    H138219   1.620   5.834   6.201
12754TIP3    H238220   1.568   5.976   6.198
12755TIP3   OH238221   3.819   7.835   6.446
12755TIP3    H138222   3.837   7.860   6.355
12755TIP3    H238223   3.852   7.745   6.453
12756TIP3   OH238224   4.117   3.844   4.506
12756TIP3    H138225   4.026   3.844   4.535
12756TIP3    H238226   4.153   3.761   4.537
12757TIP3   OH238227   1.097   0.373   1.072
12757TIP3    H138228   1.156   0.442   1.041
12757TIP3    H238229   1.011   0.399   1.038
12758TIP3   OH238230   1.246   4.244   2.602
12758TIP3    H138231   1.178   4.231   2.668
12758TIP3    H238232   1.308   4.172   2.618
12759TIP3   OH238233   6.141   2.952   5.258
12759TIP3    H138234   6.125   2.931   5.166
12759TIP3    H238235   6.220   2.902   5.280
12760TIP3   OH238236   4.484   3.126   1.708
12760TIP3    H138237   4.473   3.064   1.780
12760TIP3    H238238   4.475   3.212   1.750
12761TIP3   OH238239   4.077   6.960   1.586
12761TIP3    H138240   4.152   6.901   1.596
12761TIP3    H238241   4.117   7.047   1.577
12762TIP3   OH238242   3.232   4.084   4.946
12762TIP3    H138243   3.307   4.027   4.962
12762TIP3    H238244   3.159   4.025   4.931
12763TIP3   OH238245   1.210   0.096   5.534
12763TIP3    H138246   1.201   0.020   5.592
12763TIP3    H238247   1.141   0.084   5.469
12764TIP3   OH238248   4.014   5.819   1.207
12764TIP3    H138249   3.934   5.796   1.159
12764TIP3    H238250   3.994   5.903   1.248
12765TIP3   OH238251   6.821   0.214   3.410
12765TIP3    H138252   6.802   0.121   3.417
12765TIP3    H238253   6.766   0.244   3.337
12766TIP3   OH238254   1.729   5.550   6.426
12766TIP3    H138255   1.707   5.465   6.389
12766TIP3    H238256   1.823   5.559   6.412
12767TIP3   OH238257   5.168   5.545   2.261
12767TIP3    H138258   5.088   5.591   2.234
12767TIP3    H238259   5.137   5.458   2.288
12768TIP3   OH238260   3.031  -0.021   5.682
12768TIP3    H138261   3.015  -0.058   5.769
12768TIP3    H238262   3.126  -0.006   5.681
12769TIP3   OH238263   8.183   6.395   0.713
12769TIP3    H138264   8.195   6.300   0.704
12769TIP3    H238265   8.225   6.416   0.797
12770TIP3   OH238266   5.096   6.847   1.551
12770TIP3    H138267   5.136   6.769   1.591
12770TIP3    H238268   5.129   6.920   1.603
12771TIP3   OH238269   5.549   5.394   3.445
12771TIP3    H138270   5.598   5.335   3.387
12771TIP3    H238271   5.463   5.352   3.453
12772TIP3   OH238272   4.173   7.323   4.780
12772TIP3    H138273   4.238   7.259   4.809
12772TIP3    H238274   4.113   7.274   4.724
12773TIP3   OH238275   0.428   3.557   6.577
12773TIP3    H138276   0.521   3.538   6.569
12773TIP3    H238277   0.388   3.510   6.504
12774TIP3   OH238278   1.064   4.726   6.045
12774TIP3    H138279   1.152   4.691   6.055
12774TIP3    H238280   1.062   4.804   6.100
12775TIP3   OH238281   1.189   5.594   3.736
12775TIP3    H138282   1.122   5.539   3.777
12775TIP3    H238283   1.245   5.532   3.689
12776TIP3   OH238284   6.422   5.320   6.666
12776TIP3    H138285   6.477   5.325   6.588
12776TIP3    H238286   6.346   5.269   6.639
12777TIP3   OH238287   3.498   5.137   6.059
12777TIP3    H138288   3.453   5.083   6.124
12777TIP3    H238289   3.445   5.128   5.980
12778TIP3   OH238290   5.517   5.278   4.975
12778TIP3    H138291   5.431   5.319   4.964
12778TIP3    H238292   5.576   5.351   4.995
12779TIP3   OH238293   1.761   7.682   3.856
12779TIP3    H138294   1.809   7.751   3.809
12779TIP3    H238295   1.813   7.603   3.842
12780TIP3   OH238296   4.235   4.544   5.830
12780TIP3    H138297   4.242   4.540   5.735
12780TIP3    H238298   4.209   4.455   5.856
12781TIP3   OH238299   5.372   4.366   5.940
12781TIP3    H138300   5.344   4.377   5.849
12781TIP3    H238301   5.305   4.411   5.991
12782TIP3   OH238302   0.207   7.024   0.486
12782TIP3    H138303   0.208   7.091   0.555
12782TIP3    H238304   0.154   6.953   0.522
12783TIP3   OH238305   0.163   0.769   1.056
12783TIP3    H138306   0.115   0.793   0.977
12783TIP3    H238307   0.130   0.683   1.079
12784TIP3   OH238308   3.091   3.514   4.002
12784TIP3    H138309   3.058   3.570   4.072
12784TIP3    H238310   3.014   3.490   3.952
12785TIP3   OH238311   1.121   2.343   0.738
12785TIP3    H138312   1.102   2.261   0.693
12785TIP3    H238313   1.187   2.319   0.804
12786TIP3   OH238314   4.683   6.185   5.892
12786TIP3    H138315   4.702   6.113   5.831
12786TIP3    H238316   4.769   6.219   5.918
12787TIP3   OH238317   3.641   7.668   3.386
12787TIP3    H138318   3.693   7.610   3.330
12787TIP3    H238319   3.611   7.738   3.328
12788TIP3   OH238320   4.195   1.090   1.889
12788TIP3    H138321   4.228   1.179   1.872
12788TIP3    H238322   4.133   1.101   1.961
12789TIP3   OH238323   4.653   6.980   3.536
12789TIP3    H138324   4.643   6.885   3.527
12789TIP3    H238325   4.741   6.992   3.572
12790TIP3   OH238326   3.600   4.970   6.486
12790TIP3    H138327   3.597   5.055   6.443
12790TIP3    H238328   3.508   4.944   6.495
12791TIP3   OH238329   3.983   1.150   2.782
12791TIP3    H138330   4.047   1.201   2.831
12791TIP3    H238331   3.953   1.084   2.844
12792TIP3   OH238332   1.190   5.708   0.297
12792TIP3    H138333   1.273   5.696   0.252
12792TIP3    H238334   1.204   5.786   0.351
12793TIP3   OH238335   1.286   4.299   0.127
12793TIP3    H138336   1.372   4.263   0.104
12793TIP3    H238337   1.232   4.282   0.050
12794TIP3   OH238338   5.860   5.101   0.897
12794TIP3    H138339   5.927   5.144   0.950
12794TIP3    H238340   5.874   5.135   0.809
12795TIP3   OH238341   2.549   4.872   0.059
12795TIP3    H138342   2.471   4.898   0.010
12795TIP3    H238343   2.567   4.945   0.118
12796TIP3   OH238344   5.376   2.863   0.168
12796TIP3    H138345   5.329   2.829   0.243
12796TIP3    H238346   5.468   2.849   0.188
12797TIP3   OH238347   5.399   0.240   6.742
12797TIP3    H138348   5.452   0.278   6.672
12797TIP3    H238349   5.424   0.148   6.744
12798TIP3   OH238350   6.289   3.015   3.525
12798TIP3    H138351   6.378   2.996   3.554
12798TIP3    H238352   6.273   3.105   3.553
12799TIP3   OH238353   5.530   3.986   2.413
12799TIP3    H138354   5.626   3.988   2.413
12799TIP3    H238355   5.507   3.939   2.333
12800TIP3   OH238356   7.373   3.626   2.639
12800TIP3    H138357   7.329   3.547   2.670
12800TIP3    H238358   7.386   3.611   2.545
12801TIP3   OH238359   3.868   2.736   2.746
12801TIP3    H138360   3.872   2.674   2.674
12801TIP3    H238361   3.957   2.772   2.753
12802TIP3   OH238362   3.853   1.126   2.526
12802TIP3    H138363   3.910   1.135   2.602
12802TIP3    H238364   3.900   1.065   2.468
12803TIP3   OH238365   6.117   5.066   2.526
12803TIP3    H138366   6.166   4.985   2.536
12803TIP3    H238367   6.170   5.132   2.569
12804TIP3   OH238368   8.280   5.386   5.439
12804TIP3    H138369   8.309   5.409   5.527
12804TIP3    H238370   8.268   5.291   5.442
12805TIP3   OH238371   6.035   6.790   1.339
12805TIP3    H138372   5.964   6.728   1.356
12805TIP3    H238373   6.079   6.755   1.262
12806TIP3   OH238374   7.040   5.513   5.704
12806TIP3    H138375   7.106   5.449   5.730
12806TIP3    H238376   7.074   5.597   5.736
12807TIP3   OH238377   0.523   7.076   1.354
12807TIP3    H138378   0.450   7.136   1.339
12807TIP3    H238379   0.601   7.129   1.340
12808TIP3   OH238380   7.255   2.730   3.254
12808TIP3    H138381   7.237   2.788   3.181
12808TIP3    H238382   7.197   2.760   3.324
12809TIP3   OH238383   4.771   4.232   3.804
12809TIP3    H138384   4.803   4.314   3.767
12809TIP3    H238385   4.754   4.252   3.896
12810TIP3   OH238386   0.115   5.878   5.385
12810TIP3    H138387   0.023   5.894   5.404
12810TIP3    H238388   0.125   5.783   5.394
12811TIP3   OH238389   3.137   3.613   0.734
12811TIP3    H138390   3.072   3.656   0.677
12811TIP3    H238391   3.201   3.576   0.673
12812TIP3   OH238392   4.695   1.351   4.209
12812TIP3    H138393   4.658   1.267   4.237
12812TIP3    H238394   4.734   1.388   4.288
12813TIP3   OH238395   1.319   7.688   0.172
12813TIP3    H138396   1.284   7.715   0.088
12813TIP3    H238397   1.328   7.593   0.165
12814TIP3   OH238398   1.032   5.621   1.522
12814TIP3    H138399   0.955   5.576   1.557
12814TIP3    H238400   1.085   5.550   1.485
12815TIP3   OH238401   7.655   0.763   3.544
12815TIP3    H138402   7.572   0.724   3.515
12815TIP3    H238403   7.690   0.806   3.466
12816TIP3   OH238404   1.070   4.942   4.537
12816TIP3    H138405   1.142   4.902   4.489
12816TIP3    H238406   1.106   5.026   4.568
12817TIP3   OH238407   1.746   0.155   4.703
12817TIP3    H138408   1.682   0.131   4.637
12817TIP3    H238409   1.708   0.230   4.748
12818TIP3   OH238410   3.936   5.305   1.778
12818TIP3    H138411   3.870   5.236   1.774
12818TIP3    H238412   4.010   5.265   1.824
12819TIP3   OH238413   4.178   6.056   3.843
12819TIP3    H138414   4.104   6.060   3.782
12819TIP3    H238415   4.147   6.105   3.920
12820TIP3   OH238416   5.297   2.875   4.125
12820TIP3    H138417   5.241   2.799   4.109
12820TIP3    H238418   5.369   2.840   4.178
12821TIP3   OH238419   5.741   7.054   5.540
12821TIP3    H138420   5.756   7.031   5.632
12821TIP3    H238421   5.686   7.133   5.544
12822TIP3   OH238422   6.156   2.186   5.011
12822TIP3    H138423   6.084   2.183   4.948
12822TIP3    H238424   6.217   2.119   4.979
12823TIP3   OH238425   2.989   2.516   2.864
12823TIP3    H138426   2.973   2.522   2.958
12823TIP3    H238427   3.064   2.458   2.855
12824TIP3   OH238428   4.344   1.044   4.076
12824TIP3    H138429   4.344   1.117   4.139
12824TIP3    H238430   4.274   0.987   4.106
12825TIP3   OH238431   4.046   5.976   3.029
12825TIP3    H138432   4.110   6.047   3.033
12825TIP3    H238433   4.094   5.899   3.060
12826TIP3   OH238434   0.665   3.812   5.328
12826TIP3    H138435   0.621   3.882   5.279
12826TIP3    H238436   0.750   3.803   5.286
12827TIP3   OH238437   2.528   0.446   6.328
12827TIP3    H138438   2.461   0.432   6.261
12827TIP3    H238439   2.611   0.441   6.280
12828TIP3   OH238440   0.537   0.937   0.849
12828TIP3    H138441   0.630   0.925   0.866
12828TIP3    H238442   0.502   0.848   0.845
12829TIP3   OH238443   2.075   4.343   4.612
12829TIP3    H138444   2.020   4.307   4.542
12829TIP3    H238445   2.155   4.370   4.567
12830TIP3   OH238446   3.397   2.943   4.745
12830TIP3    H138447   3.302   2.952   4.739
12830TIP3    H238448   3.422   3.002   4.816
12831TIP3   OH238449   1.423   3.444   4.597
12831TIP3    H138450   1.493   3.407   4.651
12831TIP3    H238451   1.443   3.415   4.508
12832TIP3   OH238452   7.256   4.933   2.011
12832TIP3    H138453   7.185   4.878   1.980
12832TIP3    H238454   7.215   5.018   2.031
12833TIP3   OH238455   3.122   4.933   3.807
12833TIP3    H138456   3.188   4.938   3.877
12833TIP3    H238457   3.071   4.855   3.828
12834TIP3   OH238458   7.084   6.649   4.667
12834TIP3    H138459   7.177   6.643   4.643
12834TIP3    H238460   7.058   6.558   4.682
12835TIP3   OH238461   0.963   1.745   4.244
12835TIP3    H138462   0.918   1.662   4.259
12835TIP3    H238463   0.930   1.803   4.313
12836TIP3   OH238464   4.379   0.682   3.590
12836TIP3    H138465   4.344   0.618   3.528
12836TIP3    H238466   4.441   0.734   3.539
12837TIP3   OH238467   0.473   4.645   0.425
12837TIP3    H138468   0.488   4.551   0.437
12837TIP3    H238469   0.379   4.654   0.414
12838TIP3   OH238470   4.720   0.620   6.424
12838TIP3    H138471   4.739   0.704   6.382
12838TIP3    H238472   4.645   0.585   6.375
12839TIP3   OH238473   2.458   5.830   4.886
12839TIP3    H138474   2.406   5.809   4.964
12839TIP3    H238475   2.394   5.866   4.824
12840TIP3   OH238476   5.642   7.165   1.353
12840TIP3    H138477   5.551   7.175   1.328
12840TIP3    H238478   5.656   7.231   1.421
12841TIP3   OH238479   5.108   0.616   5.547
12841TIP3    H138480   5.182   0.565   5.515
12841TIP3    H238481   5.031   0.575   5.508
12842TIP3   OH238482   2.549   0.563   0.577
12842TIP3    H138483   2.490   0.544   0.651
12842TIP3    H238484   2.517   0.507   0.506
12843TIP3   OH238485   5.926   6.227   5.115
12843TIP3    H138486   5.998   6.238   5.052
12843TIP3    H238487   5.848   6.219   5.060
12844TIP3   OH238488   1.836   0.422   3.320
12844TIP3    H138489   1.847   0.382   3.406
12844TIP3    H238490   1.897   0.375   3.264
12845TIP3   OH238491   6.459   0.811   1.582
12845TIP3    H138492   6.508   0.893   1.583
12845TIP3    H238493   6.460   0.783   1.491
12846TIP3   OH238494   1.520   4.158   1.422
12846TIP3    H138495   1.499   4.126   1.509
12846TIP3    H238496   1.514   4.254   1.429
12847TIP3   OH238497   6.921   5.846   5.678
12847TIP3    H138498   6.997   5.886   5.635
12847TIP3    H238499   6.945   5.844   5.771
12848TIP3   OH238500   3.878   1.825   2.404
12848TIP3    H138501   3.804   1.793   2.456
12848TIP3    H238502   3.927   1.746   2.381
12849TIP3   OH238503   0.815   5.716   5.576
12849TIP3    H138504   0.876   5.774   5.531
12849TIP3    H238505   0.739   5.772   5.596
12850TIP3   OH238506   1.760   6.425   4.802
12850TIP3    H138507   1.752   6.498   4.741
12850TIP3    H238508   1.675   6.419   4.844
12851TIP3   OH238509   4.385   5.393   4.914
12851TIP3    H138510   4.461   5.335   4.913
12851TIP3    H238511   4.380   5.425   5.004
12852TIP3   OH238512   1.823   0.313   2.729
12852TIP3    H138513   1.795   0.328   2.639
12852TIP3    H238514   1.900   0.256   2.721
12853TIP3   OH238515   2.512   6.965   0.939
12853TIP3    H138516   2.569   7.024   0.889
12853TIP3    H238517   2.470   7.021   1.004
12854TIP3   OH238518   8.109   7.608   2.585
12854TIP3    H138519   8.156   7.684   2.620
12854TIP3    H238520   8.175   7.539   2.578
12855TIP3   OH238521   5.336   6.400   5.946
12855TIP3    H138522   5.431   6.402   5.948
12855TIP3    H238523   5.314   6.367   5.859
12856TIP3   OH238524   4.573   0.352   1.347
12856TIP3    H138525   4.629   0.282   1.381
12856TIP3    H238526   4.599   0.361   1.255
12857TIP3   OH238527   6.311   5.490   5.645
12857TIP3    H138528   6.334   5.548   5.718
12857TIP3    H238529   6.364   5.522   5.572
12858TIP3   OH238530   3.459   3.128   1.524
12858TIP3    H138531   3.389   3.194   1.523
12858TIP3    H238532   3.539   3.177   1.509
12859TIP3   OH238533   0.894   4.633   3.063
12859TIP3    H138534   0.832   4.705   3.079
12859TIP3    H238535   0.860   4.589   2.986
12860TIP3   OH238536   0.205   1.937   0.592
12860TIP3    H138537   0.200   2.032   0.590
12860TIP3    H238538   0.146   1.909   0.522
12861TIP3   OH238539   2.775   5.363   4.465
12861TIP3    H138540   2.789   5.351   4.371
12861TIP3    H238541   2.737   5.451   4.472
12862TIP3   OH238542   3.034   3.319   0.592
12862TIP3    H138543   2.985   3.295   0.670
12862TIP3    H238544   3.125   3.300   0.614
12863TIP3   OH238545   6.829   4.933   0.300
12863TIP3    H138546   6.878   4.996   0.246
12863TIP3    H238547   6.738   4.963   0.295
12864TIP3   OH238548   7.416   2.020   5.629
12864TIP3    H138549   7.363   1.950   5.667
12864TIP3    H238550   7.506   1.998   5.651
12865TIP3   OH238551   6.147   6.844   5.358
12865TIP3    H138552   6.200   6.872   5.432
12865TIP3    H238553   6.188   6.763   5.328
12866TIP3   OH238554   5.209   7.328   2.852
12866TIP3    H138555   5.262   7.263   2.898
12866TIP3    H238556   5.121   7.290   2.851
12867TIP3   OH238557   3.115   2.922   3.215
12867TIP3    H138558   3.050   2.906   3.284
12867TIP3    H238559   3.199   2.901   3.257
12868TIP3   OH238560   1.919   4.102   3.437
12868TIP3    H138561   1.862   4.161   3.487
12868TIP3    H238562   1.993   4.157   3.412
12869TIP3   OH238563   2.548   5.962   4.199
12869TIP3    H138564   2.508   5.950   4.114
12869TIP3    H238565   2.642   5.971   4.181
12870TIP3   OH238566   6.333   0.516   2.256
12870TIP3    H138567   6.285   0.437   2.231
12870TIP3    H238568   6.404   0.523   2.192
12871TIP3   OH238569   6.112   3.475   0.754
12871TIP3    H138570   6.052   3.477   0.829
12871TIP3    H238571   6.153   3.389   0.759
12872TIP3   OH238572   4.402   2.405   3.672
12872TIP3    H138573   4.352   2.454   3.607
12872TIP3    H238574   4.474   2.365   3.622
12873TIP3   OH238575   1.420   5.903   6.475
12873TIP3    H138576   1.459   5.898   6.388
12873TIP3    H238577   1.326   5.899   6.460
12874TIP3   OH238578   4.561   2.550   6.668
12874TIP3    H138579   4.544   2.644   6.668
12874TIP3    H238580   4.480   2.511   6.701
12875TIP3   OH238581   5.801   5.581   0.808
12875TIP3    H138582   5.841   5.654   0.761
12875TIP3    H238583   5.730   5.622   0.858
12876TIP3   OH238584   1.952   2.049   5.465
12876TIP3    H138585   1.919   2.021   5.550
12876TIP3    H238586   1.939   1.973   5.408
12877TIP3   OH238587   2.034   6.993   3.847
12877TIP3    H138588   2.052   7.038   3.930
12877TIP3    H238589   1.959   6.937   3.866
12878TIP3   OH238590   5.690   1.996   5.925
12878TIP3    H138591   5.724   2.028   5.841
12878TIP3    H238592   5.623   2.060   5.950
12879TIP3   OH238593   0.412   2.316   2.800
12879TIP3    H138594   0.365   2.305   2.883
12879TIP3    H238595   0.495   2.271   2.814
12880TIP3   OH238596   2.778   3.429   5.027
12880TIP3    H138597   2.841   3.493   5.059
12880TIP3    H238598   2.829   3.367   4.976
12881TIP3   OH238599   5.458   1.119   3.613
12881TIP3    H138600   5.544   1.144   3.578
12881TIP3    H238601   5.403   1.196   3.597
12882TIP3   OH238602   4.822   3.397   3.953
12882TIP3    H138603   4.900   3.350   3.981
12882TIP3    H238604   4.749   3.343   3.983
12883TIP3   OH238605   6.512   1.304   2.015
12883TIP3    H138606   6.420   1.298   2.040
12883TIP3    H238607   6.556   1.340   2.093
12884TIP3   OH238608   2.532   2.298   3.006
12884TIP3    H138609   2.614   2.327   2.967
12884TIP3    H238610   2.488   2.378   3.033
12885TIP3   OH238611   5.125   2.970   5.375
12885TIP3    H138612   5.080   3.054   5.382
12885TIP3    H238613   5.201   2.978   5.433
12886TIP3   OH238614   0.030   5.434   2.456
12886TIP3    H138615  -0.061   5.449   2.431
12886TIP3    H238616   0.075   5.414   2.374
12887TIP3   OH238617   1.489   3.423   5.497
12887TIP3    H138618   1.518   3.332   5.506
12887TIP3    H238619   1.477   3.453   5.588
12888TIP3   OH238620   1.209   5.978   1.881
12888TIP3    H138621   1.127   5.930   1.891
12888TIP3    H238622   1.272   5.911   1.855
12889TIP3   OH238623   7.209   2.657   3.816
12889TIP3    H138624   7.168   2.690   3.896
12889TIP3    H238625   7.150   2.587   3.787
12890TIP3   OH238626   4.073   1.533   3.455
12890TIP3    H138627   3.986   1.573   3.457
12890TIP3    H238628   4.133   1.606   3.464
12891TIP3   OH238629   0.892   1.565   5.510
12891TIP3    H138630   0.848   1.541   5.591
12891TIP3    H238631   0.928   1.652   5.527
12892TIP3   OH238632   3.578   6.134   5.744
12892TIP3    H138633   3.615   6.096   5.823
12892TIP3    H238634   3.623   6.091   5.672
12893TIP3   OH238635   6.892   3.707   4.943
12893TIP3    H138636   6.935   3.793   4.940
12893TIP3    H238637   6.927   3.660   4.867
12894TIP3   OH238638   4.007   1.608   4.980
12894TIP3    H138639   3.951   1.678   5.016
12894TIP3    H238640   3.950   1.531   4.977
12895TIP3   OH238641   5.626   3.845   3.982
12895TIP3    H138642   5.558   3.856   4.049
12895TIP3    H238643   5.701   3.894   4.015
12896TIP3   OH238644   7.461   3.571   4.035
12896TIP3    H138645   7.378   3.524   4.046
12896TIP3    H238646   7.439   3.648   3.984
12897TIP3   OH238647   1.635   5.173   2.196
12897TIP3    H138648   1.554   5.134   2.164
12897TIP3    H238649   1.627   5.266   2.174
12898TIP3   OH238650   2.417   5.833   0.832
12898TIP3    H138651   2.365   5.827   0.912
12898TIP3    H238652   2.354   5.825   0.761
12899TIP3   OH238653   8.113   1.011   1.958
12899TIP3    H138654   8.082   0.954   2.029
12899TIP3    H238655   8.042   1.010   1.894
12900TIP3   OH238656   5.212   5.029   3.002
12900TIP3    H138657   5.225   5.107   3.056
12900TIP3    H238658   5.212   4.956   3.064
12901TIP3   OH238659   5.456   3.278   3.736
12901TIP3    H138660   5.381   3.338   3.731
12901TIP3    H238661   5.425   3.197   3.696
12902TIP3   OH238662   3.780   6.321   4.477
12902TIP3    H138663   3.849   6.339   4.541
12902TIP3    H238664   3.826   6.316   4.393
12903TIP3   OH238665   5.498   3.659   5.289
12903TIP3    H138666   5.414   3.681   5.329
12903TIP3    H238667   5.528   3.742   5.251
12904TIP3   OH238668   7.712   7.624   0.334
12904TIP3    H138669   7.750   7.540   0.359
12904TIP3    H238670   7.724   7.679   0.412
12905TIP3   OH238671   5.091   4.688   3.813
12905TIP3    H138672   5.168   4.667   3.760
12905TIP3    H238673   5.119   4.761   3.868
12906TIP3   OH238674   3.147   6.246   5.972
12906TIP3    H138675   3.232   6.256   6.015
12906TIP3    H238676   3.094   6.197   6.034
12907TIP3   OH238677   2.431   6.973   5.720
12907TIP3    H138678   2.379   6.981   5.799
12907TIP3    H238679   2.518   7.007   5.744
12908TIP3   OH238680   2.698   6.844   0.102
12908TIP3    H138681   2.608   6.873   0.087
12908TIP3    H238682   2.693   6.749   0.105
12909TIP3   OH238683   0.139   5.410   2.187
12909TIP3    H138684   0.228   5.443   2.183
12909TIP3    H238685   0.149   5.315   2.189
12910TIP3   OH238686   7.249   7.638   3.047
12910TIP3    H138687   7.287   7.725   3.032
12910TIP3    H238688   7.308   7.596   3.109
12911TIP3   OH238689   3.827   3.309   2.550
12911TIP3    H138690   3.817   3.343   2.461
12911TIP3    H238691   3.755   3.247   2.561
12912TIP3   OH238692   3.198   2.922   1.552
12912TIP3    H138693   3.251   2.845   1.533
12912TIP3    H238694   3.219   2.983   1.481
12913TIP3   OH238695   2.800   1.228   5.995
12913TIP3    H138696   2.781   1.148   6.045
12913TIP3    H238697   2.892   1.246   6.015
12914TIP3   OH238698   6.778   6.488   3.263
12914TIP3    H138699   6.762   6.549   3.191
12914TIP3    H238700   6.869   6.461   3.252
12915TIP3   OH238701   4.255   3.866   4.258
12915TIP3    H138702   4.253   3.774   4.233
12915TIP3    H238703   4.202   3.871   4.337
12916TIP3   OH238704   3.189   2.112   5.269
12916TIP3    H138705   3.255   2.179   5.252
12916TIP3    H238706   3.114   2.138   5.215
12917TIP3   OH238707   1.987   4.344   3.172
12917TIP3    H138708   1.990   4.372   3.080
12917TIP3    H238709   1.996   4.249   3.168
12918TIP3   OH238710   6.028   4.841   2.084
12918TIP3    H138711   6.078   4.885   2.015
12918TIP3    H238712   5.939   4.833   2.048
12919TIP3   OH238713   3.017   0.170   4.728
12919TIP3    H138714   2.996   0.143   4.638
12919TIP3    H238715   3.105   0.208   4.721
12920TIP3   OH238716   4.493   7.446   5.731
12920TIP3    H138717   4.527   7.463   5.819
12920TIP3    H238718   4.442   7.524   5.710
12921TIP3   OH238719   7.652   7.797   3.578
12921TIP3    H138720   7.700   7.799   3.661
12921TIP3    H238721   7.592   7.871   3.583
12922TIP3   OH238722   6.415   5.438   1.768
12922TIP3    H138723   6.345   5.462   1.829
12922TIP3    H238724   6.493   5.431   1.823
12923TIP3   OH238725   4.295   3.179   3.044
12923TIP3    H138726   4.221   3.204   2.990
12923TIP3    H238727   4.367   3.233   3.013
12924TIP3   OH238728   1.236   7.669   2.763
12924TIP3    H138729   1.269   7.629   2.844
12924TIP3    H238730   1.141   7.673   2.776
12925TIP3   OH238731   5.864   5.562   5.741
12925TIP3    H138732   5.956   5.581   5.759
12925TIP3    H238733   5.858   5.560   5.645
12926TIP3   OH238734   2.561   1.518   2.691
12926TIP3    H138735   2.467   1.517   2.712
12926TIP3    H238736   2.565   1.485   2.601
12927TIP3   OH238737   7.942   3.206   0.812
12927TIP3    H138738   7.890   3.168   0.883
12927TIP3    H238739   7.946   3.137   0.746
12928TIP3   OH238740   6.601   2.110   0.138
12928TIP3    H138741   6.656   2.177   0.180
12928TIP3    H238742   6.649   2.088   0.057
12929TIP3   OH238743   3.871   3.012   2.288
12929TIP3    H138744   3.925   2.948   2.334
12929TIP3    H238745   3.877   2.986   2.196
12930TIP3   OH238746   3.752   2.128   0.186
12930TIP3    H138747   3.661   2.110   0.165
12930TIP3    H238748   3.801   2.088   0.114
12931TIP3   OH238749   0.204   6.727   1.350
12931TIP3    H138750   0.131   6.723   1.289
12931TIP3    H238751   0.180   6.795   1.412
12932TIP3   OH238752   7.250   4.561   5.123
12932TIP3    H138753   7.331   4.511   5.125
12932TIP3    H238754   7.275   4.647   5.090
12933TIP3   OH238755   3.422   6.443   1.550
12933TIP3    H138756   3.514   6.469   1.557
12933TIP3    H238757   3.410   6.423   1.457
12934TIP3   OH238758   7.389   4.717   1.558
12934TIP3    H138759   7.358   4.640   1.605
12934TIP3    H238760   7.361   4.791   1.612
12935TIP3   OH238761   0.763   2.369   1.275
12935TIP3    H138762   0.810   2.425   1.213
12935TIP3    H238763   0.721   2.431   1.336
12936TIP3   OH238764   0.345   6.879   3.553
12936TIP3    H138765   0.313   6.867   3.643
12936TIP3    H238766   0.303   6.809   3.503
12937TIP3   OH238767   4.816   5.922   6.563
12937TIP3    H138768   4.744   5.910   6.501
12937TIP3    H238769   4.778   5.973   6.635
12938TIP3   OH238770   6.650   4.991   4.126
12938TIP3    H138771   6.670   4.918   4.068
12938TIP3    H238772   6.696   5.066   4.088
12939TIP3   OH238773   0.661   4.468   1.524
12939TIP3    H138774   0.566   4.459   1.513
12939TIP3    H238775   0.681   4.555   1.490
12940TIP3   OH238776   1.430   0.548   3.892
12940TIP3    H138777   1.499   0.606   3.923
12940TIP3    H238778   1.373   0.537   3.968
12941TIP3   OH238779   7.873   7.604   2.448
12941TIP3    H138780   7.835   7.691   2.460
12941TIP3    H238781   7.955   7.607   2.499
12942TIP3   OH238782   6.418   1.507   6.232
12942TIP3    H138783   6.380   1.591   6.209
12942TIP3    H238784   6.343   1.450   6.249
12943TIP3   OH238785   1.913   5.683   1.307
12943TIP3    H138786   1.877   5.770   1.319
12943TIP3    H238787   1.858   5.642   1.241
12944TIP3   OH238788   8.215   2.813   6.195
12944TIP3    H138789   8.213   2.794   6.288
12944TIP3    H238790   8.277   2.750   6.158
12945TIP3   OH238791   4.822   7.371   0.310
12945TIP3    H138792   4.840   7.457   0.349
12945TIP3    H238793   4.905   7.323   0.320
12946TIP3   OH238794   1.986   2.747   3.578
12946TIP3    H138795   1.968   2.801   3.655
12946TIP3    H238796   1.905   2.751   3.527
12947TIP3   OH238797   5.413   1.575   4.783
12947TIP3    H138798   5.357   1.602   4.855
12947TIP3    H238799   5.495   1.621   4.798
12948TIP3   OH238800   7.662   3.775   4.080
12948TIP3    H138801   7.605   3.851   4.091
12948TIP3    H238802   7.602   3.702   4.064
12949TIP3   OH238803   1.502   4.580   3.408
12949TIP3    H138804   1.511   4.663   3.360
12949TIP3    H238805   1.572   4.524   3.373
12950TIP3   OH238806   7.492   7.649   2.290
12950TIP3    H138807   7.459   7.583   2.350
12950TIP3    H238808   7.528   7.600   2.216
12951TIP3   OH238809   2.523   3.592   4.827
12951TIP3    H138810   2.565   3.655   4.769
12951TIP3    H238811   2.524   3.635   4.913
12952TIP3   OH238812   3.576   7.680   6.128
12952TIP3    H138813   3.649   7.620   6.140
12952TIP3    H238814   3.552   7.672   6.036
12953TIP3   OH238815   1.685   2.562   4.119
12953TIP3    H138816   1.718   2.646   4.150
12953TIP3    H238817   1.596   2.581   4.088
12954TIP3   OH238818   5.899   0.317   3.363
12954TIP3    H138819   5.976   0.267   3.388
12954TIP3    H238820   5.920   0.352   3.277
12955TIP3   OH238821   7.969   4.141   3.797
12955TIP3    H138822   7.882   4.102   3.797
12955TIP3    H238823   8.028   4.067   3.810
12956TIP3   OH238824   2.830   0.779   5.049
12956TIP3    H138825   2.904   0.832   5.078
12956TIP3    H238826   2.864   0.730   4.974
12957TIP3   OH238827   1.764   4.145   6.388
12957TIP3    H138828   1.678   4.156   6.428
12957TIP3    H238829   1.786   4.230   6.352
12958TIP3   OH238830   1.738   1.777   1.633
12958TIP3    H138831   1.816   1.742   1.589
12958TIP3    H238832   1.771   1.846   1.690
12959TIP3   OH238833   7.585   7.376   0.348
12959TIP3    H138834   7.677   7.368   0.374
12959TIP3    H238835   7.537   7.368   0.430
12960TIP3   OH238836   5.025   1.467   3.232
12960TIP3    H138837   4.941   1.505   3.256
12960TIP3    H238838   5.064   1.531   3.172
12961TIP3   OH238839   7.760   0.996   0.268
12961TIP3    H138840   7.733   1.080   0.230
12961TIP3    H238841   7.772   0.938   0.194
12962TIP3   OH238842   4.437   1.869   4.278
12962TIP3    H138843   4.413   1.955   4.314
12962TIP3    H238844   4.408   1.872   4.186
12963TIP3   OH238845   3.113   0.748   2.849
12963TIP3    H138846   3.184   0.691   2.876
12963TIP3    H238847   3.071   0.702   2.777
12964TIP3   OH238848   2.753   4.849   0.817
12964TIP3    H138849   2.781   4.782   0.879
12964TIP3    H238850   2.760   4.931   0.866
12965TIP3   OH238851   3.557   1.528   3.926
12965TIP3    H138852   3.627   1.468   3.951
12965TIP3    H238853   3.571   1.606   3.981
12966TIP3   OH238854   3.369   2.429   2.616
12966TIP3    H138855   3.445   2.425   2.558
12966TIP3    H238856   3.363   2.521   2.641
12967TIP3   OH238857   7.448   4.038   4.724
12967TIP3    H138858   7.381   3.973   4.702
12967TIP3    H238859   7.514   3.989   4.773
12968TIP3   OH238860   5.964   2.072   1.174
12968TIP3    H138861   5.880   2.092   1.131
12968TIP3    H238862   5.953   1.983   1.207
12969TIP3   OH238863   2.306   2.743   4.018
12969TIP3    H138864   2.327   2.654   3.986
12969TIP3    H238865   2.379   2.797   3.986
12970TIP3   OH238866   7.551   0.899   0.046
12970TIP3    H138867   7.463   0.910   0.082
12970TIP3    H238868   7.585   0.821   0.089
12971TIP3   OH238869   1.654   6.282   3.981
12971TIP3    H138870   1.674   6.306   3.891
12971TIP3    H238871   1.592   6.348   4.011
12972TIP3   OH238872   0.810   0.312   6.545
12972TIP3    H138873   0.764   0.259   6.480
12972TIP3    H238874   0.889   0.343   6.500
12973TIP3   OH238875   0.155   6.029   0.843
12973TIP3    H138876   0.186   5.978   0.918
12973TIP3    H238877   0.062   6.044   0.861
12974TIP3   OH238878   2.354   6.865   1.928
12974TIP3    H138879   2.428   6.855   1.988
12974TIP3    H238880   2.351   6.782   1.879
12975TIP3   OH238881   2.737   7.365   2.939
12975TIP3    H138882   2.687   7.302   2.887
12975TIP3    H238883   2.680   7.385   3.013
12976TIP3   OH238884   5.952   7.705   2.967
12976TIP3    H138885   5.947   7.796   2.998
12976TIP3    H238886   5.898   7.656   3.029
12977TIP3   OH238887   0.662   3.757   5.636
12977TIP3    H138888   0.615   3.766   5.553
12977TIP3    H238889   0.700   3.843   5.652
12978TIP3   OH238890   0.828   4.592   6.015
12978TIP3    H138891   0.920   4.619   6.015
12978TIP3    H238892   0.826   4.515   5.958
12979TIP3   OH238893   2.427   1.840   4.318
12979TIP3    H138894   2.455   1.912   4.373
12979TIP3    H238895   2.369   1.880   4.253
12980TIP3   OH238896   6.022   4.353   6.457
12980TIP3    H138897   6.099   4.332   6.510
12980TIP3    H238898   5.947   4.329   6.512
12981TIP3   OH238899   7.244   7.273   5.835
12981TIP3    H138900   7.201   7.341   5.887
12981TIP3    H238901   7.318   7.246   5.888
12982TIP3   OH238902   6.548   4.025   2.321
12982TIP3    H138903   6.633   3.992   2.352
12982TIP3    H238904   6.544   4.115   2.355
12983TIP3   OH238905   2.478   2.406   4.157
12983TIP3    H138906   2.507   2.389   4.068
12983TIP3    H238907   2.462   2.501   4.160
12984TIP3   OH238908   6.195   3.255   3.992
12984TIP3    H138909   6.192   3.259   4.087
12984TIP3    H238910   6.104   3.247   3.965
12985TIP3   OH238911   5.417   1.874   6.660
12985TIP3    H138912   5.482   1.941   6.682
12985TIP3    H238913   5.459   1.791   6.684
12986TIP3   OH238914   2.579   5.249   2.103
12986TIP3    H138915   2.658   5.205   2.074
12986TIP3    H238916   2.565   5.217   2.193
12987TIP3   OH238917   2.343   4.859   5.542
12987TIP3    H138918   2.385   4.874   5.627
12987TIP3    H238919   2.291   4.779   5.556
12988TIP3   OH238920   1.385   3.734   6.689
12988TIP3    H138921   1.333   3.673   6.636
12988TIP3    H238922   1.340   3.818   6.680
12989TIP3   OH238923   8.314   6.704   4.629
12989TIP3    H138924   8.252   6.646   4.585
12989TIP3    H238925   8.384   6.646   4.659
12990TIP3   OH238926   3.606   2.196   3.764
12990TIP3    H138927   3.697   2.169   3.761
12990TIP3    H238928   3.558   2.123   3.725
12991TIP3   OH238929   1.074   0.914   1.740
12991TIP3    H138930   1.004   0.934   1.678
12991TIP3    H238931   1.142   0.980   1.722
12992TIP3   OH238932   1.906   0.564   4.496
12992TIP3    H138933   1.947   0.647   4.473
12992TIP3    H238934   1.968   0.522   4.556
12993TIP3   OH238935   5.147   4.415   1.362
12993TIP3    H138936   5.108   4.339   1.404
12993TIP3    H238937   5.137   4.486   1.426
12994TIP3   OH238938   5.961   0.254   4.897
12994TIP3    H138939   5.934   0.345   4.882
12994TIP3    H238940   5.981   0.250   4.990
12995TIP3   OH238941   8.093   2.591   5.846
12995TIP3    H138942   8.115   2.654   5.777
12995TIP3    H238943   8.078   2.645   5.924
12996TIP3   OH238944   5.321   7.015   4.374
12996TIP3    H138945   5.346   6.930   4.409
12996TIP3    H238946   5.301   6.998   4.282
12997TIP3   OH238947   6.693   5.369   4.375
12997TIP3    H138948   6.750   5.394   4.448
12997TIP3    H238949   6.682   5.274   4.384
12998TIP3   OH238950   7.310   4.016   6.583
12998TIP3    H138951   7.376   3.959   6.623
12998TIP3    H238952   7.227   3.970   6.597
12999TIP3   OH238953   1.125   0.450   0.255
12999TIP3    H138954   1.133   0.467   0.349
12999TIP3    H238955   1.038   0.411   0.246
13000TIP3   OH238956   5.629   0.933   1.000
13000TIP3    H138957   5.657   1.014   0.959
13000TIP3    H238958   5.705   0.875   0.994
13001TIP3   OH238959   3.381   2.647   2.799
13001TIP3    H138960   3.474   2.665   2.805
13001TIP3    H238961   3.338   2.728   2.827
13002TIP3   OH238962   0.894   0.167   3.487
13002TIP3    H138963   0.864   0.255   3.465
13002TIP3    H238964   0.845   0.143   3.565
13003TIP3   OH238965   6.392   1.320   2.887
13003TIP3    H138966   6.415   1.307   2.979
13003TIP3    H238967   6.298   1.336   2.887
13004TIP3   OH238968   1.770   5.404   5.373
13004TIP3    H138969   1.776   5.438   5.283
13004TIP3    H238970   1.851   5.434   5.415
13005TIP3   OH238971   4.194   3.688   3.676
13005TIP3    H138972   4.184   3.745   3.600
13005TIP3    H238973   4.274   3.718   3.719
13006TIP3   OH238974   3.238   1.423   3.267
13006TIP3    H138975   3.211   1.510   3.297
13006TIP3    H238976   3.203   1.364   3.333
13007TIP3   OH238977   5.597   3.130   2.943
13007TIP3    H138978   5.554   3.108   3.025
13007TIP3    H238979   5.647   3.210   2.962
13008TIP3   OH238980   1.460   5.514   1.465
13008TIP3    H138981   1.493   5.424   1.463
13008TIP3    H238982   1.530   5.566   1.427
13009TIP3   OH238983   1.750   2.343   3.766
13009TIP3    H138984   1.718   2.284   3.835
13009TIP3    H238985   1.842   2.357   3.788
13010TIP3   OH238986   3.267   1.562   5.926
13010TIP3    H138987   3.267   1.583   5.833
13010TIP3    H238988   3.360   1.547   5.947
13011TIP3   OH238989   2.864   4.413   0.071
13011TIP3    H138990   2.820   4.456   0.145
13011TIP3    H238991   2.953   4.449   0.072
13012TIP3   OH238992   1.334   0.663   1.569
13012TIP3    H138993   1.337   0.718   1.647
13012TIP3    H238994   1.406   0.695   1.515
13013TIP3   OH238995   1.082   3.786   0.772
13013TIP3    H138996   0.999   3.808   0.814
13013TIP3    H238997   1.072   3.817   0.682
13014TIP3   OH238998   0.111   6.243   1.140
13014TIP3    H138999   0.033   6.191   1.161
13014TIP3    H239000   0.135   6.285   1.223
13015TIP3   OH239001   0.659   4.022   2.654
13015TIP3    H139002   0.752   4.003   2.661
13015TIP3    H239003   0.647   4.103   2.704
13016TIP3   OH239004   7.511   1.579   4.548
13016TIP3    H139005   7.571   1.568   4.623
13016TIP3    H239006   7.569   1.589   4.473
13017TIP3   OH239007   5.011   5.509   4.292
13017TIP3    H139008   4.922   5.476   4.306
13017TIP3    H239009   5.009   5.546   4.204
13018TIP3   OH239010   1.342   1.547   5.971
13018TIP3    H139011   1.374   1.457   5.977
13018TIP3    H239012   1.384   1.592   6.043
13019TIP3   OH239013   5.002   4.475   3.310
13019TIP3    H139014   4.922   4.435   3.344
13019TIP3    H239015   4.971   4.550   3.259
13020TIP3   OH239016   5.951   3.699   6.498
13020TIP3    H139017   5.892   3.638   6.454
13020TIP3    H239018   5.895   3.747   6.559
13021TIP3   OH239019   5.372   6.070   5.582
13021TIP3    H139020   5.343   6.154   5.618
13021TIP3    H239021   5.405   6.021   5.657
13022TIP3   OH239022   4.643   2.141   4.445
13022TIP3    H139023   4.585   2.098   4.382
13022TIP3    H239024   4.612   2.231   4.448
13023TIP3   OH239025   2.912   6.042   5.263
13023TIP3    H139026   2.955   5.985   5.201
13023TIP3    H239027   2.818   6.029   5.248
13024TIP3   OH239028   7.120   2.256   0.847
13024TIP3    H139029   7.083   2.292   0.766
13024TIP3    H239030   7.209   2.292   0.851
13025TIP3   OH239031   5.235   2.340   4.252
13025TIP3    H139032   5.209   2.307   4.338
13025TIP3    H239033   5.153   2.345   4.203
13026TIP3   OH239034   4.504   5.053   4.875
13026TIP3    H139035   4.528   5.146   4.875
13026TIP3    H239036   4.511   5.026   4.966
13027TIP3   OH239037   5.028   6.868   6.076
13027TIP3    H139038   5.074   6.807   6.018
13027TIP3    H239039   5.093   6.892   6.142
13028TIP3   OH239040   7.693   2.635   1.955
13028TIP3    H139041   7.631   2.563   1.967
13028TIP3    H239042   7.640   2.708   1.924
13029TIP3   OH239043   3.758   2.622   2.959
13029TIP3    H139044   3.808   2.663   2.888
13029TIP3    H239045   3.819   2.559   2.998
13030TIP3   OH239046   1.069   0.953   0.331
13030TIP3    H139047   1.028   0.990   0.253
13030TIP3    H239048   1.117   0.877   0.299
13031TIP3   OH239049   0.428   6.528   6.093
13031TIP3    H139050   0.442   6.609   6.044
13031TIP3    H239051   0.505   6.475   6.074
13032TIP3   OH239052   4.362   1.476   0.575
13032TIP3    H139053   4.387   1.388   0.604
13032TIP3    H239054   4.427   1.499   0.508
13033TIP3   OH239055   5.941   2.895   0.565
13033TIP3    H139056   5.932   2.828   0.497
13033TIP3    H239057   6.014   2.949   0.536
13034TIP3   OH239058   4.854   7.527   1.219
13034TIP3    H139059   4.783   7.590   1.232
13034TIP3    H239060   4.815   7.459   1.164
13035TIP3   OH239061   7.452   1.555   0.720
13035TIP3    H139062   7.503   1.566   0.640
13035TIP3    H239063   7.375   1.505   0.692
13036TIP3   OH239064   7.823   7.765   5.233
13036TIP3    H139065   7.853   7.726   5.315
13036TIP3    H239066   7.896   7.819   5.204
13037TIP3   OH239067   6.731   7.169   1.233
13037TIP3    H139068   6.772   7.084   1.250
13037TIP3    H239069   6.779   7.203   1.157
13038TIP3   OH239070   5.700   1.011   3.295
13038TIP3    H139071   5.663   1.094   3.322
13038TIP3    H239072   5.794   1.028   3.286
13039TIP3   OH239073   8.227   1.468   4.105
13039TIP3    H139074   8.288   1.395   4.120
13039TIP3    H239075   8.255   1.535   4.167
13040TIP3   OH239076   4.634   2.068   1.135
13040TIP3    H139077   4.681   1.998   1.181
13040TIP3    H239078   4.604   2.027   1.053
13041TIP3   OH239079   2.842   6.218   1.699
13041TIP3    H139080   2.816   6.198   1.789
13041TIP3    H239081   2.849   6.313   1.697
13042TIP3   OH239082   3.123   0.244   4.491
13042TIP3    H139083   3.217   0.232   4.474
13042TIP3    H239084   3.112   0.338   4.501
13043TIP3   OH239085   4.127   2.099   3.023
13043TIP3    H139086   4.153   2.183   2.986
13043TIP3    H239087   4.100   2.046   2.948
13044TIP3   OH239088   6.662   1.543   0.012
13044TIP3    H139089   6.733   1.489  -0.023
13044TIP3    H239090   6.639   1.603  -0.059
13045TIP3   OH239091   2.387   1.899   5.416
13045TIP3    H139092   2.441   1.876   5.492
13045TIP3    H239093   2.331   1.970   5.446
13046TIP3   OH239094   1.346   1.631   3.469
13046TIP3    H139095   1.360   1.539   3.445
13046TIP3    H239096   1.276   1.628   3.534
13047TIP3   OH239097   3.376   6.249   5.214
13047TIP3    H139098   3.389   6.336   5.252
13047TIP3    H239099   3.285   6.249   5.184
13048TIP3   OH239100   3.197   1.835   4.417
13048TIP3    H139101   3.172   1.745   4.440
13048TIP3    H239102   3.292   1.835   4.418
13049TIP3   OH239103   1.470   1.761   3.229
13049TIP3    H139104   1.471   1.768   3.324
13049TIP3    H239105   1.453   1.669   3.212
13050TIP3   OH239106   7.387   7.293   1.305
13050TIP3    H139107   7.399   7.299   1.210
13050TIP3    H239108   7.412   7.379   1.339
13051TIP3   OH239109   0.019   5.166   4.150
13051TIP3    H139110  -0.074   5.165   4.128
13051TIP3    H239111   0.055   5.235   4.094
13052TIP3   OH239112   7.604   6.479   6.244
13052TIP3    H139113   7.520   6.516   6.274
13052TIP3    H239114   7.579   6.418   6.174
13053TIP3   OH239115   0.209   0.599   0.692
13053TIP3    H139116   0.223   0.543   0.768
13053TIP3    H239117   0.118   0.628   0.699
13054TIP3   OH239118   2.219   4.178   6.165
13054TIP3    H139119   2.127   4.180   6.138
13054TIP3    H239120   2.255   4.262   6.137
13055TIP3   OH239121   3.853   1.353   1.515
13055TIP3    H139122   3.873   1.329   1.605
13055TIP3    H239123   3.820   1.443   1.521
13056TIP3   OH239124   3.735   2.493   1.587
13056TIP3    H139125   3.761   2.426   1.524
13056TIP3    H239126   3.814   2.547   1.598
13057TIP3   OH239127   5.770   2.803   0.956
13057TIP3    H139128   5.780   2.794   1.051
13057TIP3    H239129   5.853   2.771   0.920
13058TIP3   OH239130   7.895   3.725   5.180
13058TIP3    H139131   7.958   3.652   5.182
13058TIP3    H239132   7.944   3.799   5.216
13059TIP3   OH239133   6.324   1.679   5.795
13059TIP3    H139134   6.258   1.657   5.860
13059TIP3    H239135   6.375   1.750   5.834
13060TIP3   OH239136   1.606   4.800   0.857
13060TIP3    H139137   1.674   4.818   0.793
13060TIP3    H239138   1.653   4.791   0.940
13061TIP3   OH239139   6.956   3.458   6.018
13061TIP3    H139140   6.909   3.438   6.098
13061TIP3    H239141   6.923   3.395   5.954
13062TIP3   OH239142   3.893   0.992   2.976
13062TIP3    H139143   3.914   1.026   3.063
13062TIP3    H239144   3.801   0.967   2.982
13063TIP3   OH239145   4.418   7.677   1.788
13063TIP3    H139146   4.364   7.599   1.776
13063TIP3    H239147   4.363   7.749   1.756
13064TIP3   OH239148   0.015   1.140   1.802
13064TIP3    H139149  -0.049   1.096   1.857
13064TIP3    H239150   0.100   1.105   1.830
13065TIP3   OH239151   7.199   6.260   0.240
13065TIP3    H139152   7.231   6.176   0.207
13065TIP3    H239153   7.177   6.243   0.332
13066TIP3   OH239154   2.891   4.762   5.715
13066TIP3    H139155   2.849   4.692   5.664
13066TIP3    H239156   2.970   4.721   5.750
13067TIP3   OH239157   4.669   5.651   6.522
13067TIP3    H139158   4.678   5.602   6.440
13067TIP3    H239159   4.752   5.698   6.531
13068TIP3   OH239160   6.901   6.110   0.079
13068TIP3    H139161   6.854   6.035   0.045
13068TIP3    H239162   6.993   6.082   0.083
13069TIP3   OH239163   1.023   2.399   2.637
13069TIP3    H139164   1.069   2.448   2.569
13069TIP3    H239165   0.980   2.327   2.589
13070TIP3   OH239166   7.285   7.400   0.843
13070TIP3    H139167   7.324   7.399   0.930
13070TIP3    H239168   7.197   7.363   0.856
13071TIP3   OH239169   5.809   2.020   2.367
13071TIP3    H139170   5.810   2.075   2.445
13071TIP3    H239171   5.741   2.058   2.311
13072TIP3   OH239172   0.220   1.517   4.344
13072TIP3    H139173   0.301   1.555   4.312
13072TIP3    H239174   0.205   1.440   4.289
13073TIP3   OH239175   0.631   0.957   3.539
13073TIP3    H139176   0.600   0.983   3.626
13073TIP3    H239177   0.667   0.869   3.551
13074TIP3   OH239178   6.735   3.946   6.447
13074TIP3    H139179   6.723   3.867   6.395
13074TIP3    H239180   6.678   4.011   6.405
13075TIP3   OH239181   8.164   5.868   2.988
13075TIP3    H139182   8.232   5.886   2.923
13075TIP3    H239183   8.123   5.787   2.959
13076TIP3   OH239184   6.814   4.924   3.133
13076TIP3    H139185   6.905   4.925   3.105
13076TIP3    H239186   6.817   4.934   3.228
13077TIP3   OH239187   7.572   5.530   4.909
13077TIP3    H139188   7.530   5.447   4.931
13077TIP3    H239189   7.625   5.552   4.985
13078TIP3   OH239190   5.244   2.629   5.438
13078TIP3    H139191   5.265   2.607   5.347
13078TIP3    H239192   5.310   2.582   5.490
13079TIP3   OH239193   5.270   6.086   6.472
13079TIP3    H139194   5.293   5.994   6.454
13079TIP3    H239195   5.348   6.123   6.513
13080TIP3   OH239196   1.949   0.934   5.560
13080TIP3    H139197   1.946   0.900   5.650
13080TIP3    H239198   1.903   0.867   5.509
13081TIP3   OH239199   5.517   0.551   2.301
13081TIP3    H139200   5.490   0.621   2.361
13081TIP3    H239201   5.586   0.590   2.249
13082TIP3   OH239202   7.744   4.851   4.607
13082TIP3    H139203   7.804   4.830   4.679
13082TIP3    H239204   7.775   4.798   4.534
13083TIP3   OH239205   0.522   7.108   0.702
13083TIP3    H139206   0.432   7.142   0.697
13083TIP3    H239207   0.574   7.171   0.653
13084TIP3   OH239208   4.365   0.344   4.391
13084TIP3    H139209   4.445   0.331   4.441
13084TIP3    H239210   4.300   0.375   4.455
13085TIP3   OH239211   6.929   2.606   5.754
13085TIP3    H139212   6.839   2.624   5.778
13085TIP3    H239213   6.927   2.519   5.715
13086TIP3   OH239214   0.685   6.688   2.564
13086TIP3    H139215   0.738   6.767   2.551
13086TIP3    H239216   0.731   6.620   2.514
13087TIP3   OH239217   5.279   5.371   4.175
13087TIP3    H139218   5.306   5.463   4.171
13087TIP3    H239219   5.215   5.368   4.247
13088TIP3   OH239220   4.917   3.650   2.803
13088TIP3    H139221   5.004   3.623   2.834
13088TIP3    H239222   4.912   3.616   2.713
13089TIP3   OH239223   6.081   4.969   6.763
13089TIP3    H139224   6.073   4.983   6.857
13089TIP3    H239225   6.146   4.898   6.755
13090TIP3   OH239226   7.310   6.486   5.548
13090TIP3    H139227   7.297   6.538   5.469
13090TIP3    H239228   7.403   6.463   5.547
13091TIP3   OH239229   0.893   3.380   6.469
13091TIP3    H139230   0.850   3.321   6.407
13091TIP3    H239231   0.821   3.425   6.512
13092TIP3   OH239232   6.311   2.828   0.260
13092TIP3    H139233   6.293   2.795   0.172
13092TIP3    H239234   6.273   2.915   0.261
13093TIP3   OH239235   3.259   1.669   2.725
13093TIP3    H139236   3.214   1.626   2.798
13093TIP3    H239237   3.318   1.602   2.690
13094TIP3   OH239238   1.329   5.609   5.841
13094TIP3    H139239   1.380   5.670   5.787
13094TIP3    H239240   1.300   5.542   5.780
13095TIP3   OH239241   4.655   2.442   6.428
13095TIP3    H139242   4.639   2.359   6.384
13095TIP3    H239243   4.594   2.442   6.502
13096TIP3   OH239244   5.791   0.411   1.504
13096TIP3    H139245   5.863   0.469   1.529
13096TIP3    H239246   5.731   0.466   1.455
13097TIP3   OH239247   0.426   6.993   5.652
13097TIP3    H139248   0.497   6.946   5.696
13097TIP3    H239249   0.359   7.005   5.719
13098TIP3   OH239250   4.756   4.319   3.091
13098TIP3    H139251   4.692   4.367   3.038
13098TIP3    H239252   4.753   4.361   3.177
13099TIP3   OH239253   6.740   3.276   4.253
13099TIP3    H139254   6.782   3.351   4.210
13099TIP3    H239255   6.646   3.293   4.246
13100TIP3   OH239256   2.676   6.739   6.780
13100TIP3    H139257   2.674   6.776   6.692
13100TIP3    H239258   2.751   6.679   6.779
13101TIP3   OH239259   2.499   6.741   5.046
13101TIP3    H139260   2.532   6.710   5.130
13101TIP3    H239261   2.410   6.708   5.041
13102TIP3   OH239262   5.829   6.233   2.748
13102TIP3    H139263   5.921   6.241   2.721
13102TIP3    H239264   5.815   6.139   2.759
13103TIP3   OH239265   3.722   2.312   4.179
13103TIP3    H139266   3.681   2.246   4.122
13103TIP3    H239267   3.656   2.380   4.188
13104TIP3   OH239268   5.354   5.978   0.304
13104TIP3    H139269   5.368   5.966   0.397
13104TIP3    H239270   5.260   5.994   0.295
13105TIP3   OH239271   0.517   7.374   3.258
13105TIP3    H139272   0.434   7.373   3.306
13105TIP3    H239273   0.496   7.414   3.174
13106TIP3   OH239274   4.385   0.083   4.147
13106TIP3    H139275   4.339   0.163   4.173
13106TIP3    H239276   4.453   0.072   4.214
13107TIP3   OH239277   2.254   0.393   0.917
13107TIP3    H139278   2.217   0.469   0.873
13107TIP3    H239279   2.190   0.323   0.902
13108TIP3   OH239280   6.849   7.669   0.995
13108TIP3    H139281   6.904   7.597   1.027
13108TIP3    H239282   6.784   7.682   1.064
13109TIP3   OH239283   7.210   4.435   0.326
13109TIP3    H139284   7.268   4.496   0.281
13109TIP3    H239285   7.169   4.487   0.396
13110TIP3   OH239286   4.953   4.228   3.487
13110TIP3    H139287   5.032   4.177   3.506
13110TIP3    H239288   4.944   4.287   3.563
13111TIP3   OH239289   4.105   7.798   5.414
13111TIP3    H139290   4.129   7.874   5.361
13111TIP3    H239291   4.031   7.827   5.467
13112TIP3   OH239292   1.495   5.255   0.099
13112TIP3    H139293   1.497   5.175   0.046
13112TIP3    H239294   1.554   5.237   0.172
13113TIP3   OH239295   0.050   5.157   6.456
13113TIP3    H139296  -0.012   5.226   6.477
13113TIP3    H239297  -0.004   5.082   6.431
13114TIP3   OH239298   5.004   0.800   2.568
13114TIP3    H139299   5.009   0.709   2.538
13114TIP3    H239300   4.954   0.845   2.499
13115TIP3   OH239301   6.826   3.538   6.714
13115TIP3    H139302   6.795   3.522   6.803
13115TIP3    H239303   6.770   3.484   6.659
13116TIP3   OH239304   4.018   1.299   6.429
13116TIP3    H139305   4.086   1.322   6.493
13116TIP3    H239306   4.016   1.373   6.369
13117TIP3   OH239307   5.484   1.787   0.738
13117TIP3    H139308   5.418   1.769   0.805
13117TIP3    H239309   5.527   1.702   0.724
13118TIP3   OH239310   4.388   6.720   3.805
13118TIP3    H139311   4.422   6.679   3.885
13118TIP3    H239312   4.301   6.683   3.794
13119TIP3   OH239313   2.011   2.206   1.107
13119TIP3    H139314   1.974   2.272   1.165
13119TIP3    H239315   2.020   2.128   1.163
13120TIP3   OH239316   2.641   5.338   0.625
13120TIP3    H139317   2.578   5.318   0.556
13120TIP3    H239318   2.719   5.287   0.601
13121TIP3   OH239319   5.053   1.804   2.163
13121TIP3    H139320   5.019   1.757   2.239
13121TIP3    H239321   5.061   1.737   2.095
13122TIP3   OH239322   0.126   1.765   2.793
13122TIP3    H139323   0.131   1.847   2.841
13122TIP3    H239324   0.035   1.737   2.803
13123TIP3   OH239325   0.573   0.282   0.577
13123TIP3    H139326   0.552   0.371   0.606
13123TIP3    H239327   0.508   0.264   0.508
13124TIP3   OH239328   5.102   0.641   4.487
13124TIP3    H139329   5.078   0.685   4.569
13124TIP3    H239330   5.179   0.589   4.509
13125TIP3   OH239331   6.025   3.573   3.810
13125TIP3    H139332   6.039   3.539   3.899
13125TIP3    H239333   6.012   3.667   3.822
13126TIP3   OH239334   8.237   5.584   2.698
13126TIP3    H139335   8.266   5.510   2.644
13126TIP3    H239336   8.144   5.595   2.675
13127TIP3   OH239337   6.305   4.645   3.707
13127TIP3    H139338   6.372   4.587   3.742
13127TIP3    H239339   6.354   4.717   3.667
13128TIP3   OH239340   1.046   3.957   2.140
13128TIP3    H139341   1.061   3.865   2.119
13128TIP3    H239342   1.070   4.004   2.060
13129TIP3   OH239343   0.802   0.580   1.615
13129TIP3    H139344   0.877   0.583   1.556
13129TIP3    H239345   0.837   0.604   1.701
13130TIP3   OH239346   7.499   1.755   5.770
13130TIP3    H139347   7.591   1.730   5.774
13130TIP3    H239348   7.491   1.829   5.831
13131TIP3   OH239349   7.649   0.088   0.014
13131TIP3    H139350   7.612   0.024   0.075
13131TIP3    H239351   7.708   0.141   0.067
13132TIP3   OH239352   3.396   6.781   3.407
13132TIP3    H139353   3.428   6.850   3.350
13132TIP3    H239354   3.333   6.733   3.353
13133TIP3   OH239355   7.178   2.182   2.516
13133TIP3    H139356   7.226   2.190   2.434
13133TIP3    H239357   7.137   2.096   2.513
13134TIP3   OH239358   6.639   7.221   6.525
13134TIP3    H139359   6.694   7.299   6.518
13134TIP3    H239360   6.671   7.164   6.454
13135TIP3   OH239361   3.716   3.147   4.009
13135TIP3    H139362   3.623   3.158   4.031
13135TIP3    H239363   3.742   3.067   4.056
13136TIP3   OH239364   7.782   6.176   3.161
13136TIP3    H139365   7.859   6.232   3.161
13136TIP3    H239366   7.723   6.216   3.098
13137TIP3   OH239367   7.350   5.119   0.277
13137TIP3    H139368   7.364   5.027   0.299
13137TIP3    H239369   7.364   5.123   0.182
13138TIP3   OH239370   5.070   1.636   1.924
13138TIP3    H139371   4.994   1.690   1.901
13138TIP3    H239372   5.145   1.686   1.891
13139TIP3   OH239373   0.088   0.575   1.240
13139TIP3    H139374   0.010   0.521   1.230
13139TIP3    H239375   0.152   0.517   1.282
13140TIP3   OH239376   0.205   4.171   1.684
13140TIP3    H139377   0.150   4.143   1.757
13140TIP3    H239378   0.288   4.125   1.697
13141TIP3   OH239379   3.832   7.357   5.164
13141TIP3    H139380   3.878   7.274   5.170
13141TIP3    H239381   3.820   7.372   5.070
13142TIP3   OH239382   4.642   4.663   0.207
13142TIP3    H139383   4.606   4.727   0.268
13142TIP3    H239384   4.588   4.673   0.128
13143TIP3   OH239385   2.884   3.353   0.885
13143TIP3    H139386   2.853   3.431   0.930
13143TIP3    H239387   2.828   3.346   0.807
13144TIP3   OH239388   5.289   3.048   2.211
13144TIP3    H139389   5.198   3.047   2.242
13144TIP3    H239390   5.283   3.024   2.118
13145TIP3   OH239391   4.692   1.052   1.741
13145TIP3    H139392   4.737   0.982   1.693
13145TIP3    H239393   4.757   1.081   1.805
13146TIP3   OH239394   2.615   2.064   5.341
13146TIP3    H139395   2.706   2.077   5.367
13146TIP3    H239396   2.566   2.070   5.423
13147TIP3   OH239397   7.772   4.473   1.082
13147TIP3    H139398   7.810   4.386   1.068
13147TIP3    H239399   7.679   4.457   1.093
13148TIP3   OH239400   7.521   6.431   2.393
13148TIP3    H139401   7.531   6.460   2.303
13148TIP3    H239402   7.437   6.384   2.394
13149TIP3   OH239403   5.883   6.913   4.831
13149TIP3    H139404   5.897   6.951   4.918
13149TIP3    H239405   5.925   6.974   4.771
13150TIP3   OH239406   1.621   0.604   5.147
13150TIP3    H139407   1.625   0.697   5.127
13150TIP3    H239408   1.540   0.574   5.107
13151TIP3   OH239409   1.446   2.086   3.729
13151TIP3    H139410   1.504   2.119   3.797
13151TIP3    H239411   1.487   2.004   3.701
13152TIP3   OH239412   2.999   6.537   5.052
13152TIP3    H139413   2.905   6.529   5.044
13152TIP3    H239414   3.013   6.627   5.082
13153TIP3   OH239415   3.401   0.588   4.637
13153TIP3    H139416   3.426   0.661   4.581
13153TIP3    H239417   3.480   0.534   4.643
13154TIP3   OH239418   8.003   4.123   1.818
13154TIP3    H139419   7.923   4.175   1.812
13154TIP3    H239420   7.989   4.051   1.756
13155TIP3   OH239421   1.706   3.036   5.341
13155TIP3    H139422   1.793   3.055   5.377
13155TIP3    H239423   1.715   2.950   5.301
13156TIP3   OH239424   2.564   4.792   3.503
13156TIP3    H139425   2.514   4.742   3.567
13156TIP3    H239426   2.655   4.780   3.530
13157TIP3   OH239427   0.899   5.130   0.596
13157TIP3    H139428   0.863   5.068   0.661
13157TIP3    H239429   0.837   5.126   0.523
13158TIP3   OH239430   7.588   4.446   0.768
13158TIP3    H139431   7.579   4.351   0.771
13158TIP3    H239432   7.603   4.472   0.859
13159TIP3   OH239433   1.306   5.813   4.568
13159TIP3    H139434   1.312   5.906   4.544
13159TIP3    H239435   1.392   5.793   4.605
13160TIP3   OH239436   2.207   1.704   5.497
13160TIP3    H139437   2.124   1.721   5.453
13160TIP3    H239438   2.270   1.761   5.453
13161TIP3   OH239439   6.350   1.398   4.203
13161TIP3    H139440   6.256   1.415   4.210
13161TIP3    H239441   6.386   1.429   4.287
13162TIP3   OH239442   7.336   5.935   1.860
13162TIP3    H139443   7.331   6.021   1.819
13162TIP3    H239444   7.370   5.952   1.948
13163TIP3   OH239445   0.185   5.613   0.451
13163TIP3    H139446   0.207   5.647   0.537
13163TIP3    H239447   0.090   5.626   0.444
13164TIP3   OH239448   1.201   5.531   0.935
13164TIP3    H139449   1.280   5.524   0.882
13164TIP3    H239450   1.142   5.586   0.883
13165TIP3   OH239451   2.124   1.676   5.068
13165TIP3    H139452   2.210   1.716   5.055
13165TIP3    H239453   2.097   1.704   5.156
13166TIP3   OH239454   4.691   4.635   5.998
13166TIP3    H139455   4.738   4.552   5.986
13166TIP3    H239456   4.760   4.700   6.011
13167TIP3   OH239457   2.884   6.656   1.221
13167TIP3    H139458   2.835   6.727   1.180
13167TIP3    H239459   2.825   6.581   1.220
13168TIP3   OH239460   6.805   4.807   6.632
13168TIP3    H139461   6.772   4.759   6.708
13168TIP3    H239462   6.809   4.742   6.562
13169TIP3   OH239463   6.945   3.111   6.198
13169TIP3    H139464   6.872   3.146   6.146
13169TIP3    H239465   7.022   3.132   6.146
13170TIP3   OH239466   2.252   7.045   0.038
13170TIP3    H139467   2.189   7.035   0.109
13170TIP3    H239468   2.240   7.135   0.008
13171TIP3   OH239469   1.229   6.310   1.686
13171TIP3    H139470   1.240   6.402   1.661
13171TIP3    H239471   1.285   6.261   1.625
13172TIP3   OH239472   2.970   3.979   1.318
13172TIP3    H139473   2.919   3.988   1.399
13172TIP3    H239474   2.955   3.888   1.291
13173TIP3   OH239475   4.855   0.243   2.101
13173TIP3    H139476   4.901   0.324   2.121
13173TIP3    H239477   4.881   0.222   2.011
13174TIP3   OH239478   0.884   1.856   5.581
13174TIP3    H139479   0.948   1.892   5.520
13174TIP3    H239480   0.873   1.923   5.648
13175TIP3   OH239481   2.642   5.832   1.736
13175TIP3    H139482   2.613   5.821   1.826
13175TIP3    H239483   2.566   5.809   1.683
13176TIP3   OH239484   6.736   0.767   1.010
13176TIP3    H139485   6.683   0.824   1.065
13176TIP3    H239486   6.811   0.743   1.065
13177TIP3   OH239487   1.168   1.906   0.166
13177TIP3    H139488   1.099   1.842   0.150
13177TIP3    H239489   1.184   1.902   0.260
13178TIP3   OH239490   3.764   4.357   0.234
13178TIP3    H139491   3.722   4.415   0.298
13178TIP3    H239492   3.818   4.416   0.181
13179TIP3   OH239493   2.703   5.703   2.709
13179TIP3    H139494   2.770   5.651   2.665
13179TIP3    H239495   2.743   5.789   2.722
13180TIP3   OH239496   2.549   4.214   6.135
13180TIP3    H139497   2.464   4.259   6.130
13180TIP3    H239498   2.601   4.255   6.066
13181TIP3   OH239499   1.684   2.925   0.952
13181TIP3    H139500   1.751   2.885   0.896
13181TIP3    H239501   1.665   2.859   1.018
13182TIP3   OH239502   0.561   6.285   3.736
13182TIP3    H139503   0.602   6.249   3.658
13182TIP3    H239504   0.616   6.254   3.808
13183TIP3   OH239505   0.741   2.650   5.266
13183TIP3    H139506   0.805   2.613   5.204
13183TIP3    H239507   0.672   2.687   5.210
13184TIP3   OH239508   2.560   3.072   3.033
13184TIP3    H139509   2.500   3.142   3.057
13184TIP3    H239510   2.504   2.997   3.013
13185TIP3   OH239511   2.014   5.227   6.412
13185TIP3    H139512   2.104   5.206   6.384
13185TIP3    H239513   1.988   5.300   6.357
13186TIP3   OH239514   5.793   5.570   4.278
13186TIP3    H139515   5.872   5.516   4.278
13186TIP3    H239516   5.767   5.575   4.186
13187TIP3   OH239517   1.322   0.217   5.737
13187TIP3    H139518   1.295   0.297   5.691
13187TIP3    H239519   1.302   0.146   5.677
13188TIP3   OH239520   0.972   1.662   6.421
13188TIP3    H139521   0.962   1.757   6.429
13188TIP3    H239522   1.040   1.639   6.484
13189TIP3   OH239523   7.063   2.995   6.560
13189TIP3    H139524   7.031   2.905   6.553
13189TIP3    H239525   7.013   3.032   6.632
13190TIP3   OH239526   7.290   5.790   6.043
13190TIP3    H139527   7.322   5.853   6.107
13190TIP3    H239528   7.342   5.711   6.058
13191TIP3   OH239529   0.878   2.677   1.571
13191TIP3    H139530   0.954   2.651   1.520
13191TIP3    H239531   0.804   2.665   1.512
13192TIP3   OH239532   7.546   6.132   1.655
13192TIP3    H139533   7.496   6.197   1.606
13192TIP3    H239534   7.539   6.052   1.602
13193TIP3   OH239535   4.166   5.054   2.656
13193TIP3    H139536   4.116   5.049   2.575
13193TIP3    H239537   4.241   4.996   2.642
13194TIP3   OH239538   0.480   0.358   6.463
13194TIP3    H139539   0.543   0.351   6.392
13194TIP3    H239540   0.495   0.280   6.517
13195TIP3   OH239541   5.638   2.477   0.933
13195TIP3    H139542   5.689   2.556   0.917
13195TIP3    H239543   5.626   2.438   0.846
13196TIP3   OH239544   3.249   1.299   5.252
13196TIP3    H139545   3.288   1.378   5.290
13196TIP3    H239546   3.319   1.261   5.200
13197TIP3   OH239547   1.381   4.988   2.117
13197TIP3    H139548   1.362   4.905   2.162
13197TIP3    H239549   1.295   5.023   2.096
13198TIP3   OH239550   5.487   2.293   4.875
13198TIP3    H139551   5.551   2.224   4.857
13198TIP3    H239552   5.496   2.354   4.802
13199TIP3   OH239553   8.020   3.595   3.468
13199TIP3    H139554   8.115   3.592   3.484
13199TIP3    H239555   8.006   3.680   3.427
13200TIP3   OH239556   1.395   7.068   1.053
13200TIP3    H139557   1.417   7.026   1.135
13200TIP3    H239558   1.309   7.034   1.030
13201TIP3   OH239559   2.776   5.056   5.374
13201TIP3    H139560   2.811   4.984   5.322
13201TIP3    H239561   2.853   5.111   5.393
13202TIP3   OH239562   3.158   3.332   6.094
13202TIP3    H139563   3.099   3.266   6.130
13202TIP3    H239564   3.180   3.388   6.168
13203TIP3   OH239565   1.144   6.914   5.121
13203TIP3    H139566   1.214   6.921   5.055
13203TIP3    H239567   1.077   6.860   5.079
13204TIP3   OH239568   6.428   7.562   2.535
13204TIP3    H139569   6.407   7.575   2.627
13204TIP3    H239570   6.459   7.471   2.530
13205TIP3   OH239571   1.758   1.271   3.342
13205TIP3    H139572   1.745   1.365   3.344
13205TIP3    H239573   1.840   1.259   3.293
13206TIP3   OH239574   8.201   4.652   2.892
13206TIP3    H139575   8.139   4.690   2.954
13206TIP3    H239576   8.146   4.620   2.820
13207TIP3   OH239577   2.102   1.013   1.414
13207TIP3    H139578   2.019   0.989   1.372
13207TIP3    H239579   2.131   0.931   1.456
13208TIP3   OH239580   0.017   3.277   5.794
13208TIP3    H139581   0.026   3.282   5.889
13208TIP3    H239582   0.022   3.183   5.774
13209TIP3   OH239583   1.592   5.927   4.374
13209TIP3    H139584   1.586   6.008   4.324
13209TIP3    H239585   1.683   5.922   4.403
13210TIP3   OH239586   3.352   2.736   1.395
13210TIP3    H139587   3.435   2.719   1.439
13210TIP3    H239588   3.365   2.820   1.351
13211TIP3   OH239589   4.558   7.555   6.478
13211TIP3    H139590   4.511   7.476   6.451
13211TIP3    H239591   4.650   7.534   6.463
13212TIP3   OH239592   0.856   6.954   0.330
13212TIP3    H139593   0.838   7.048   0.336
13212TIP3    H239594   0.808   6.926   0.252
13213TIP3   OH239595   8.310   5.001   4.425
13213TIP3    H139596   8.217   5.022   4.414
13213TIP3    H239597   8.347   5.080   4.465
13214TIP3   OH239598   6.428   2.366   2.585
13214TIP3    H139599   6.460   2.395   2.671
13214TIP3    H239600   6.478   2.287   2.566
13215TIP3   OH239601   1.669   6.411   6.609
13215TIP3    H139602   1.642   6.349   6.540
13215TIP3    H239603   1.595   6.471   6.617
13216TIP3   OH239604   6.449   0.360   3.816
13216TIP3    H139605   6.416   0.362   3.906
13216TIP3    H239606   6.544   0.352   3.826
13217TIP3   OH239607   3.526   4.977   3.795
13217TIP3    H139608   3.595   5.028   3.838
13217TIP3    H239609   3.557   4.886   3.800
13218TIP3   OH239610   5.907   0.960   4.015
13218TIP3    H139611   5.859   1.031   4.058
13218TIP3    H239612   5.847   0.885   4.020
13219TIP3   OH239613   4.288   7.451   1.680
13219TIP3    H139614   4.346   7.374   1.681
13219TIP3    H239615   4.220   7.429   1.617
13220TIP3   OH239616   0.728   6.153   0.308
13220TIP3    H139617   0.808   6.160   0.361
13220TIP3    H239618   0.668   6.217   0.347
13221TIP3   OH239619   1.138   0.934   2.549
13221TIP3    H139620   1.154   1.007   2.608
13221TIP3    H239621   1.052   0.901   2.574
13222TIP3   OH239622   7.243   0.652   0.399
13222TIP3    H139623   7.212   0.575   0.351
13222TIP3    H239624   7.204   0.644   0.486
13223TIP3   OH239625   5.871   5.469   6.443
13223TIP3    H139626   5.966   5.460   6.457
13223TIP3    H239627   5.836   5.480   6.531
13224TIP3   OH239628   2.745   1.095   1.978
13224TIP3    H139629   2.772   1.025   1.918
13224TIP3    H239630   2.732   1.050   2.062
13225TIP3   OH239631   0.016   2.353   4.209
13225TIP3    H139632   0.036   2.443   4.235
13225TIP3    H239633   0.054   2.344   4.122
13226TIP3   OH239634   0.639   4.043   6.623
13226TIP3    H139635   0.577   3.986   6.577
13226TIP3    H239636   0.584   4.109   6.665
13227TIP3   OH239637   5.177   2.000   6.715
13227TIP3    H139638   5.192   2.083   6.670
13227TIP3    H239639   5.264   1.968   6.735
13228TIP3   OH239640   6.742   2.319   3.577
13228TIP3    H139641   6.706   2.383   3.516
13228TIP3    H239642   6.808   2.271   3.526
13229TIP3   OH239643   3.734   5.205   6.151
13229TIP3    H139644   3.714   5.217   6.244
13229TIP3    H239645   3.651   5.177   6.113
13230TIP3   OH239646   2.264   6.220   3.057
13230TIP3    H139647   2.178   6.220   3.014
13230TIP3    H239648   2.269   6.134   3.100
13231TIP3   OH239649   7.323   3.651   3.300
13231TIP3    H139650   7.397   3.590   3.303
13231TIP3    H239651   7.317   3.676   3.208
13232TIP3   OH239652   0.416   4.769   3.228
13232TIP3    H139653   0.364   4.708   3.281
13232TIP3    H239654   0.488   4.716   3.194
13233TIP3   OH239655   0.006   7.464   0.403
13233TIP3    H139656   0.073   7.503   0.460
13233TIP3    H239657   0.034   7.373   0.392
13234TIP3   OH239658   6.075   6.776   5.731
13234TIP3    H139659   6.147   6.838   5.721
13234TIP3    H239660   6.005   6.812   5.677
13235TIP3   OH239661   4.937   1.295   6.333
13235TIP3    H139662   5.012   1.253   6.292
13235TIP3    H239663   4.942   1.269   6.425
13236TIP3   OH239664   1.396   4.388   5.051
13236TIP3    H139665   1.435   4.448   4.986
13236TIP3    H239666   1.302   4.405   5.045
13237TIP3   OH239667   7.268   2.130   3.037
13237TIP3    H139668   7.250   2.102   2.947
13237TIP3    H239669   7.352   2.092   3.058
13238TIP3   OH239670   3.775   1.974   4.830
13238TIP3    H139671   3.741   1.898   4.875
13238TIP3    H239672   3.723   2.047   4.863
13239TIP3   OH239673   0.735   2.640   4.570
13239TIP3    H139674   0.745   2.547   4.591
13239TIP3    H239675   0.640   2.656   4.579
13240TIP3   OH239676   0.707   0.886   3.851
13240TIP3    H139677   0.778   0.897   3.915
13240TIP3    H239678   0.739   0.817   3.793
13241TIP3   OH239679   7.638   6.044   5.816
13241TIP3    H139680   7.657   5.979   5.748
13241TIP3    H239681   7.547   6.070   5.799
13242TIP3   OH239682   4.782   5.047   4.809
13242TIP3    H139683   4.690   5.071   4.822
13242TIP3    H239684   4.792   4.962   4.852
13243TIP3   OH239685   2.785   4.924   4.654
13243TIP3    H139686   2.864   4.883   4.618
13243TIP3    H239687   2.717   4.906   4.589
13244TIP3   OH239688   1.877   3.308   5.738
13244TIP3    H139689   1.946   3.355   5.783
13244TIP3    H239690   1.796   3.351   5.766
13245TIP3   OH239691   7.739   1.506   4.094
13245TIP3    H139692   7.736   1.561   4.015
13245TIP3    H239693   7.802   1.437   4.072
13246TIP3   OH239694   4.388   7.725   3.157
13246TIP3    H139695   4.294   7.706   3.151
13246TIP3    H239696   4.427   7.671   3.088
13247TIP3   OH239697   3.965   7.744   1.166
13247TIP3    H139698   3.931   7.769   1.080
13247TIP3    H239699   3.889   7.712   1.214
13248TIP3   OH239700   6.041   6.582   0.810
13248TIP3    H139701   5.947   6.587   0.791
13248TIP3    H239702   6.078   6.539   0.733
13249TIP3   OH239703   3.487   4.716   5.790
13249TIP3    H139704   3.449   4.628   5.796
13249TIP3    H239705   3.529   4.730   5.875
13250TIP3   OH239706   2.266   1.017   6.733
13250TIP3    H139707   2.225   0.931   6.742
13250TIP3    H239708   2.201   1.078   6.769
13251TIP3   OH239709   5.799   4.098   3.767
13251TIP3    H139710   5.871   4.161   3.771
13251TIP3    H239711   5.783   4.075   3.859
13252TIP3   OH239712   8.172   2.179   2.143
13252TIP3    H139713   8.244   2.216   2.193
13252TIP3    H239714   8.152   2.245   2.076
13253TIP3   OH239715   5.806   6.872   5.109
13253TIP3    H139716   5.758   6.903   5.186
13253TIP3    H239717   5.878   6.935   5.098
13254TIP3   OH239718   4.946   2.926   1.837
13254TIP3    H139719   4.941   2.944   1.743
13254TIP3    H239720   4.933   3.012   1.878
13255TIP3   OH239721   7.424   0.894   2.893
13255TIP3    H139722   7.364   0.958   2.855
13255TIP3    H239723   7.368   0.835   2.943
13256TIP3   OH239724   5.620   1.949   4.353
13256TIP3    H139725   5.528   1.960   4.329
13256TIP3    H239726   5.618   1.930   4.447
13257TIP3   OH239727   0.916   6.827   4.641
13257TIP3    H139728   0.967   6.768   4.586
13257TIP3    H239729   0.839   6.849   4.589
13258TIP3   OH239730   2.010   6.483   4.094
13258TIP3    H139731   1.957   6.557   4.126
13258TIP3    H239732   1.972   6.406   4.136
13259TIP3   OH239733   3.323   5.734   4.113
13259TIP3    H139734   3.315   5.768   4.202
13259TIP3    H239735   3.257   5.665   4.107
13260TIP3   OH239736   5.959   5.642   0.244
13260TIP3    H139737   6.003   5.683   0.169
13260TIP3    H239738   5.866   5.644   0.221
13261TIP3   OH239739   7.474   0.534   3.052
13261TIP3    H139740   7.552   0.478   3.051
13261TIP3    H239741   7.489   0.598   2.983
13262TIP3   OH239742   1.001   5.066   3.530
13262TIP3    H139743   1.006   5.004   3.603
13262TIP3    H239744   1.055   5.026   3.461
13263TIP3   OH239745   6.220   1.550   3.421
13263TIP3    H139746   6.275   1.618   3.382
13263TIP3    H239747   6.194   1.585   3.506
13264TIP3   OH239748   1.318   3.036   0.962
13264TIP3    H139749   1.383   3.102   0.938
13264TIP3    H239750   1.361   2.982   1.029
13265TIP3   OH239751   0.239   5.064   1.815
13265TIP3    H139752   0.159   5.113   1.834
13265TIP3    H239753   0.250   5.073   1.720
13266TIP3   OH239754   4.436   6.066   3.087
13266TIP3    H139755   4.365   6.108   3.037
13266TIP3    H239756   4.401   6.057   3.175
13267TIP3   OH239757   7.403   2.863   6.521
13267TIP3    H139758   7.499   2.856   6.519
13267TIP3    H239759   7.380   2.889   6.432
13268TIP3   OH239760   2.669   4.311   5.917
13268TIP3    H139761   2.641   4.294   5.827
13268TIP3    H239762   2.747   4.365   5.908
13269TIP3   OH239763   1.905   6.989   2.314
13269TIP3    H139764   1.899   7.076   2.273
13269TIP3    H239765   1.999   6.973   2.323
13270TIP3   OH239766   6.150   1.175   5.472
13270TIP3    H139767   6.160   1.219   5.387
13270TIP3    H239768   6.212   1.220   5.529
13271TIP3   OH239769   4.735   4.071   3.455
13271TIP3    H139770   4.754   4.070   3.362
13271TIP3    H239771   4.797   4.133   3.493
13272TIP3   OH239772   7.862   0.921   1.756
13272TIP3    H139773   7.779   0.935   1.803
13272TIP3    H239774   7.839   0.933   1.664
13273TIP3   OH239775   6.611   4.565   1.658
13273TIP3    H139776   6.590   4.523   1.575
13273TIP3    H239777   6.678   4.629   1.636
13274TIP3   OH239778   4.421   2.052   3.579
13274TIP3    H139779   4.454   2.105   3.506
13274TIP3    H239780   4.499   2.017   3.621
13275TIP3   OH239781   2.793   6.475   4.244
13275TIP3    H139782   2.725   6.446   4.304
13275TIP3    H239783   2.795   6.570   4.253
13276TIP3   OH239784   0.780   2.152   4.514
13276TIP3    H139785   0.785   2.138   4.609
13276TIP3    H239786   0.844   2.090   4.478
13277TIP3   OH239787   7.412   3.841   1.667
13277TIP3    H139788   7.493   3.810   1.627
13277TIP3    H239789   7.397   3.784   1.741
13278TIP3   OH239790   6.583   0.000   4.580
13278TIP3    H139791   6.594   0.073   4.520
13278TIP3    H239792   6.592   0.039   4.667
13279TIP3   OH239793   1.530   3.006   2.242
13279TIP3    H139794   1.482   3.024   2.323
13279TIP3    H239795   1.579   3.086   2.225
13280TIP3   OH239796   2.374   4.794   1.223
13280TIP3    H139797   2.440   4.828   1.162
13280TIP3    H239798   2.334   4.872   1.261
13281TIP3   OH239799   6.066   2.565   5.101
13281TIP3    H139800   6.068   2.629   5.030
13281TIP3    H239801   5.975   2.563   5.130
13282TIP3   OH239802   2.794   3.892   1.770
13282TIP3    H139803   2.761   3.974   1.806
13282TIP3    H239804   2.878   3.915   1.730
13283TIP3   OH239805   6.443   2.863   6.337
13283TIP3    H139806   6.425   2.845   6.429
13283TIP3    H239807   6.530   2.903   6.337
13284TIP3   OH239808   1.450   4.218   2.920
13284TIP3    H139809   1.420   4.178   2.838
13284TIP3    H239810   1.382   4.195   2.984
13285TIP3   OH239811   2.328   0.298   3.798
13285TIP3    H139812   2.333   0.391   3.819
13285TIP3    H239813   2.357   0.253   3.878
13286TIP3   OH239814   5.880   7.694   0.293
13286TIP3    H139815   5.871   7.720   0.385
13286TIP3    H239816   5.967   7.656   0.287
13287TIP3   OH239817   3.459   3.070   5.321
13287TIP3    H139818   3.393   3.079   5.389
13287TIP3    H239819   3.459   3.154   5.275
13288TIP3   OH239820  -0.011   0.028   4.766
13288TIP3    H139821   0.072  -0.019   4.753
13288TIP3    H239822  -0.061   0.011   4.687
13289TIP3   OH239823   5.697   6.106   1.637
13289TIP3    H139824   5.614   6.063   1.657
13289TIP3    H239825   5.674   6.197   1.618
13290TIP3   OH239826   4.438   4.521   6.773
13290TIP3    H139827   4.480   4.537   6.857
13290TIP3    H239828   4.349   4.493   6.795
13291TIP3   OH239829   7.738   3.080   4.564
13291TIP3    H139830   7.679   3.097   4.491
13291TIP3    H239831   7.681   3.048   4.634
13292TIP3   OH239832   7.351   2.741   2.936
13292TIP3    H139833   7.325   2.712   2.849
13292TIP3    H239834   7.279   2.797   2.966
13293TIP3   OH239835   7.640   5.624   1.486
13293TIP3    H139836   7.581   5.573   1.431
13293TIP3    H239837   7.618   5.598   1.576
13294TIP3   OH239838   6.480   4.431   4.384
13294TIP3    H139839   6.565   4.395   4.407
13294TIP3    H239840   6.461   4.395   4.297
13295TIP3   OH239841   5.916   2.778   3.439
13295TIP3    H139842   5.982   2.832   3.395
13295TIP3    H239843   5.952   2.689   3.436
13296TIP3   OH239844   3.495   2.172   2.913
13296TIP3    H139845   3.581   2.133   2.927
13296TIP3    H239846   3.495   2.251   2.968
13297TIP3   OH239847   5.538   3.202   5.139
13297TIP3    H139848   5.449   3.193   5.105
13297TIP3    H239849   5.540   3.146   5.216
13298TIP3   OH239850   2.820   5.310   5.671
13298TIP3    H139851   2.790   5.340   5.757
13298TIP3    H239852   2.894   5.253   5.689
13299TIP3   OH239853   1.871   6.012   5.637
13299TIP3    H139854   1.797   6.068   5.662
13299TIP3    H239855   1.831   5.930   5.609
13300TIP3   OH239856   5.604   6.844   2.989
13300TIP3    H139857   5.514   6.857   3.018
13300TIP3    H239858   5.639   6.932   2.975
13301TIP3   OH239859   4.457   0.699   2.681
13301TIP3    H139860   4.505   0.624   2.718
13301TIP3    H239861   4.365   0.679   2.696
13302TIP3   OH239862   1.390   0.726   4.926
13302TIP3    H139863   1.477   0.733   4.965
13302TIP3    H239864   1.405   0.737   4.832
13303TIP3   OH239865   1.622   7.591   5.899
13303TIP3    H139866   1.587   7.502   5.903
13303TIP3    H239867   1.679   7.598   5.975
13304TIP3   OH239868   2.190   0.809   4.226
13304TIP3    H139869   2.112   0.864   4.233
13304TIP3    H239870   2.164   0.738   4.168
13305TIP3   OH239871   8.006   0.886   6.241
13305TIP3    H139872   7.946   0.903   6.168
13305TIP3    H239873   8.083   0.848   6.201
13306TIP3   OH239874   3.782   2.709   3.559
13306TIP3    H139875   3.752   2.785   3.608
13306TIP3    H239876   3.877   2.717   3.557
13307TIP3   OH239877   0.259   5.031   0.059
13307TIP3    H139878   0.173   5.049   0.020
13307TIP3    H239879   0.248   4.946   0.103
13308TIP3   OH239880   4.807   1.636   0.071
13308TIP3    H139881   4.766   1.712   0.030
13308TIP3    H239882   4.896   1.665   0.090
13309TIP3   OH239883   2.751   0.574   4.201
13309TIP3    H139884   2.808   0.643   4.167
13309TIP3    H239885   2.738   0.515   4.126
13310TIP3   OH239886   7.841   1.864   3.554
13310TIP3    H139887   7.808   1.847   3.466
13310TIP3    H239888   7.879   1.780   3.582
13311TIP3   OH239889   4.377   0.300   2.728
13311TIP3    H139890   4.432   0.349   2.668
13311TIP3    H239891   4.308   0.262   2.673
13312TIP3   OH239892   6.905   7.714   4.949
13312TIP3    H139893   6.819   7.684   4.920
13312TIP3    H239894   6.903   7.809   4.936
13313TIP3   OH239895   5.326   3.991   1.408
13313TIP3    H139896   5.279   4.072   1.390
13313TIP3    H239897   5.397   4.017   1.468
13314TIP3   OH239898   0.893   7.364   5.071
13314TIP3    H139899   0.904   7.341   4.979
13314TIP3    H239900   0.942   7.296   5.118
13315TIP3   OH239901   0.560   4.512   3.471
13315TIP3    H139902   0.617   4.438   3.492
13315TIP3    H239903   0.595   4.547   3.389
13316TIP3   OH239904   4.073   7.450   0.199
13316TIP3    H139905   4.019   7.506   0.143
13316TIP3    H239906   4.067   7.363   0.159
13317TIP3   OH239907   0.737   4.805   4.695
13317TIP3    H139908   0.683   4.772   4.624
13317TIP3    H239909   0.788   4.730   4.724
13318TIP3   OH239910   3.401   6.061   6.066
13318TIP3    H139911   3.336   6.080   6.134
13318TIP3    H239912   3.350   6.019   5.997
13319TIP3   OH239913   0.878   1.923   6.420
13319TIP3    H139914   0.798   1.909   6.370
13319TIP3    H239915   0.898   2.015   6.408
13320TIP3   OH239916   6.931   7.473   0.746
13320TIP3    H139917   6.928   7.433   0.833
13320TIP3    H239918   6.881   7.555   0.756
13321TIP3   OH239919   4.270   6.738   0.306
13321TIP3    H139920   4.315   6.690   0.376
13321TIP3    H239921   4.341   6.765   0.247
13322TIP3   OH239922   7.887   2.370   4.877
13322TIP3    H139923   7.983   2.366   4.880
13322TIP3    H239924   7.862   2.304   4.812
13323TIP3   OH239925   7.788   0.314   1.084
13323TIP3    H139926   7.829   0.261   1.152
13323TIP3    H239927   7.734   0.252   1.034
13324TIP3   OH239928   6.281   0.497   6.183
13324TIP3    H139929   6.336   0.428   6.220
13324TIP3    H239930   6.317   0.513   6.096
13325TIP3   OH239931   0.120   5.711   4.577
13325TIP3    H139932   0.158   5.735   4.662
13325TIP3    H239933   0.053   5.778   4.562
13326TIP3   OH239934   4.090   0.960   1.156
13326TIP3    H139935   4.091   0.986   1.248
13326TIP3    H239936   4.013   0.905   1.148
13327TIP3   OH239937   2.529   4.499   4.647
13327TIP3    H139938   2.566   4.513   4.560
13327TIP3    H239939   2.604   4.477   4.702
13328TIP3   OH239940   3.000   6.130   3.324
13328TIP3    H139941   2.922   6.133   3.378
13328TIP3    H239942   3.066   6.086   3.379
13329TIP3   OH239943   1.263   0.634   2.945
13329TIP3    H139944   1.346   0.619   2.991
13329TIP3    H239945   1.288   0.668   2.859
13330TIP3   OH239946   7.855   7.727   4.775
13330TIP3    H139947   7.809   7.798   4.820
13330TIP3    H239948   7.941   7.764   4.756
13331TIP3   OH239949   4.463   4.960   3.096
13331TIP3    H139950   4.532   5.001   3.044
13331TIP3    H239951   4.498   4.957   3.185
13332TIP3   OH239952   2.650   4.899   3.073
13332TIP3    H139953   2.604   4.982   3.072
13332TIP3    H239954   2.727   4.913   3.019
13333TIP3   OH239955   7.583   6.210   2.967
13333TIP3    H139956   7.672   6.193   2.936
13333TIP3    H239957   7.576   6.306   2.969
13334TIP3   OH239958   7.553   4.470   1.875
13334TIP3    H139959   7.548   4.437   1.786
13334TIP3    H239960   7.462   4.487   1.900
13335TIP3   OH239961   4.840   4.864   5.553
13335TIP3    H139962   4.907   4.796   5.561
13335TIP3    H239963   4.772   4.837   5.615
13336TIP3   OH239964   1.984   1.745   6.408
13336TIP3    H139965   2.066   1.696   6.405
13336TIP3    H239966   1.954   1.736   6.498
13337TIP3   OH239967   4.895   3.946   2.072
13337TIP3    H139968   4.818   3.986   2.114
13337TIP3    H239969   4.929   4.016   2.016
13338TIP3   OH239970   6.095   7.388   0.075
13338TIP3    H139971   6.155   7.320   0.044
13338TIP3    H239972   6.120   7.466   0.026
13339TIP3   OH239973   6.697   5.026   1.125
13339TIP3    H139974   6.749   4.957   1.166
13339TIP3    H239975   6.733   5.032   1.036
13340TIP3   OH239976   0.255   6.451   4.048
13340TIP3    H139977   0.244   6.356   4.048
13340TIP3    H239978   0.228   6.479   3.961
13341TIP3   OH239979   6.357   5.790   4.104
13341TIP3    H139980   6.351   5.883   4.125
13341TIP3    H239981   6.373   5.788   4.009
13342TIP3   OH239982   3.137   5.979   2.077
13342TIP3    H139983   3.085   6.058   2.062
13342TIP3    H239984   3.114   5.921   2.005
13343TIP3   OH239985   5.623   6.930   3.842
13343TIP3    H139986   5.697   6.982   3.872
13343TIP3    H239987   5.612   6.954   3.750
13344TIP3   OH239988   6.537   4.550   5.377
13344TIP3    H139989   6.631   4.535   5.372
13344TIP3    H239990   6.497   4.473   5.337
13345TIP3   OH239991   2.512   2.659   5.825
13345TIP3    H139992   2.484   2.743   5.860
13345TIP3    H239993   2.449   2.639   5.756
13346TIP3   OH239994   7.839   5.726   5.317
13346TIP3    H139995   7.926   5.700   5.347
13346TIP3    H239996   7.797   5.763   5.395
13347TIP3   OH239997   3.173   2.213   3.815
13347TIP3    H139998   3.247   2.165   3.851
13347TIP3    H239999   3.128   2.150   3.759
13348TIP3   OH240000   1.459   6.585   4.693
13348TIP3    H140001   1.377   6.620   4.658
13348TIP3    H240002   1.494   6.531   4.622
13349TIP3   OH240003   2.319   2.049   3.249
13349TIP3    H140004   2.301   2.062   3.343
13349TIP3    H240005   2.240   2.080   3.206
13350TIP3   OH240006   6.712   0.333   2.743
13350TIP3    H140007   6.722   0.427   2.725
13350TIP3    H240008   6.659   0.330   2.823
13351TIP3   OH240009   0.248   0.760   2.493
13351TIP3    H140010   0.243   0.837   2.437
13351TIP3    H240011   0.195   0.782   2.570
13352TIP3   OH240012   5.004   1.223   2.741
13352TIP3    H140013   4.979   1.254   2.828
13352TIP3    H240014   4.986   1.129   2.743
13353TIP3   OH240015   4.721   4.445   3.351
13353TIP3    H140016   4.746   4.483   3.436
13353TIP3    H240017   4.625   4.455   3.348
13354TIP3   OH240018   5.117   2.986   4.573
13354TIP3    H140019   5.045   3.043   4.545
13354TIP3    H240020   5.163   3.037   4.640
13355TIP3   OH240021   3.396   3.187   2.148
13355TIP3    H140022   3.421   3.095   2.153
13355TIP3    H240023   3.364   3.208   2.236
13356TIP3   OH240024   1.135   2.970   5.746
13356TIP3    H140025   1.068   2.978   5.678
13356TIP3    H240026   1.186   3.051   5.739
13357TIP3   OH240027   3.649   3.941   5.383
13357TIP3    H140028   3.634   4.035   5.375
13357TIP3    H240029   3.594   3.914   5.456
13358TIP3   OH240030   3.206   3.689   1.353
13358TIP3    H140031   3.123   3.643   1.357
13358TIP3    H240032   3.220   3.722   1.442
13359TIP3   OH240033   4.884   5.925   1.972
13359TIP3    H140034   4.821   5.955   2.039
13359TIP3    H240035   4.830   5.880   1.907
13360TIP3   OH240036   6.540   3.195   2.153
13360TIP3    H140037   6.533   3.283   2.116
13360TIP3    H240038   6.450   3.163   2.154
13361TIP3   OH240039   5.914   1.620   5.255
13361TIP3    H140040   5.875   1.550   5.307
13361TIP3    H240041   5.840   1.663   5.213
13362TIP3   OH240042   6.508   5.743   0.026
13362TIP3    H140043   6.433   5.729   0.084
13362TIP3    H240044   6.543   5.655   0.012
13363TIP3   OH240045   3.708   1.779   6.067
13363TIP3    H140046   3.781   1.788   6.006
13363TIP3    H240047   3.630   1.778   6.011
13364TIP3   OH240048   4.484   1.205   1.828
13364TIP3    H140049   4.558   1.152   1.799
13364TIP3    H240050   4.509   1.237   1.915
13365TIP3   OH240051   5.647   6.950   5.307
13365TIP3    H140052   5.697   6.943   5.388
13365TIP3    H240053   5.645   7.043   5.287
13366TIP3   OH240054   6.002   5.000   3.301
13366TIP3    H140055   5.950   5.020   3.379
13366TIP3    H240056   6.013   4.905   3.303
13367TIP3   OH240057   0.636   4.864   2.764
13367TIP3    H140058   0.707   4.900   2.711
13367TIP3    H240059   0.679   4.805   2.826
13368TIP3   OH240060   5.457   2.660   2.326
13368TIP3    H140061   5.463   2.751   2.356
13368TIP3    H240062   5.365   2.648   2.305
13369TIP3   OH240063   0.062   4.834   4.157
13369TIP3    H140064   0.067   4.894   4.231
13369TIP3    H240065   0.029   4.753   4.194
13370TIP3   OH240066   4.978   0.636   2.096
13370TIP3    H140067   5.058   0.687   2.108
13370TIP3    H240068   4.999   0.549   2.128
13371TIP3   OH240069   5.904   2.970   3.892
13371TIP3    H140070   5.825   2.975   3.838
13371TIP3    H240071   5.900   2.884   3.933
13372TIP3   OH240072   7.062   1.129   6.274
13372TIP3    H140073   7.139   1.186   6.278
13372TIP3    H240074   7.015   1.158   6.196
13373TIP3   OH240075   5.502   4.483   0.465
13373TIP3    H140076   5.594   4.479   0.438
13373TIP3    H240077   5.504   4.475   0.560
13374TIP3   OH240078   8.075   5.076   6.447
13374TIP3    H140079   7.982   5.063   6.466
13374TIP3    H240080   8.077   5.101   6.355
13375TIP3   OH240081   4.983   4.303   4.115
13375TIP3    H140082   4.962   4.389   4.077
13375TIP3    H240083   4.904   4.279   4.163
13376TIP3   OH240084   0.167   2.891   5.909
13376TIP3    H140085   0.077   2.901   5.877
13376TIP3    H240086   0.213   2.968   5.877
13377TIP3   OH240087   7.305   4.806   6.554
13377TIP3    H140088   7.352   4.827   6.473
13377TIP3    H240089   7.217   4.782   6.525
13378TIP3   OH240090   5.557   4.391   0.108
13378TIP3    H140091   5.620   4.441   0.056
13378TIP3    H240092   5.583   4.407   0.199
13379TIP3   OH240093   5.942   7.708   4.092
13379TIP3    H140094   6.005   7.642   4.119
13379TIP3    H240095   5.910   7.746   4.173
13380TIP3   OH240096   1.501   1.777   5.879
13380TIP3    H140097   1.464   1.694   5.849
13380TIP3    H240098   1.425   1.831   5.899
13381TIP3   OH240099   1.968   6.576   5.784
13381TIP3    H140100   2.023   6.560   5.708
13381TIP3    H240101   1.983   6.669   5.805
13382TIP3   OH240102   3.102   5.650   5.652
13382TIP3    H140103   3.050   5.717   5.607
13382TIP3    H240104   3.101   5.575   5.592
13383TIP3   OH240105   4.274   0.829   5.326
13383TIP3    H140106   4.247   0.919   5.346
13383TIP3    H240107   4.369   0.829   5.338
13384TIP3   OH240108   1.855   2.558   0.885
13384TIP3    H140109   1.825   2.469   0.872
13384TIP3    H240110   1.916   2.552   0.959
13385TIP3   OH240111   0.998   4.602   0.871
13385TIP3    H140112   0.976   4.611   0.963
13385TIP3    H240113   1.047   4.520   0.866
13386TIP3   OH240114   3.966   6.303   5.032
13386TIP3    H140115   3.883   6.343   5.056
13386TIP3    H240116   3.990   6.250   5.108
13387TIP3   OH240117   1.713   7.265   0.818
13387TIP3    H140118   1.654   7.339   0.812
13387TIP3    H240119   1.777   7.279   0.749
13388TIP3   OH240120   0.726   1.683   4.938
13388TIP3    H140121   0.775   1.632   4.874
13388TIP3    H240122   0.793   1.725   4.992
13389TIP3   OH240123   5.684   6.662   5.565
13389TIP3    H140124   5.760   6.681   5.510
13389TIP3    H240125   5.721   6.647   5.652
13390TIP3   OH240126   7.467   3.411   6.450
13390TIP3    H140127   7.484   3.392   6.543
13390TIP3    H240128   7.386   3.365   6.431
13391TIP3   OH240129   6.852   7.541   3.006
13391TIP3    H140130   6.931   7.559   2.955
13391TIP3    H240131   6.872   7.577   3.093
13392TIP3   OH240132   0.147   3.881   4.546
13392TIP3    H140133   0.132   3.965   4.503
13392TIP3    H240134   0.123   3.815   4.481
13393TIP3   OH240135   2.346   3.971   0.995
13393TIP3    H140136   2.427   3.956   0.947
13393TIP3    H240137   2.305   4.046   0.952
13394TIP3   OH240138   4.853   7.151   4.857
13394TIP3    H140139   4.892   7.066   4.838
13394TIP3    H240140   4.925   7.203   4.894
13395TIP3   OH240141   8.104   3.374   6.045
13395TIP3    H140142   8.104   3.422   5.962
13395TIP3    H240143   8.084   3.440   6.111
13396TIP3   OH240144   1.400   5.048   1.609
13396TIP3    H140145   1.455   5.017   1.680
13396TIP3    H240146   1.346   5.116   1.648
13397TIP3   OH240147   7.847   4.177   0.347
13397TIP3    H140148   7.752   4.165   0.339
13397TIP3    H240149   7.872   4.118   0.418
13398TIP3   OH240150   6.067   6.199   0.212
13398TIP3    H140151   6.151   6.194   0.168
13398TIP3    H240152   6.004   6.167   0.148
13399TIP3   OH240153   7.486   2.290   1.728
13399TIP3    H140154   7.392   2.288   1.742
13399TIP3    H240155   7.510   2.382   1.741
13400TIP3   OH240156   3.921   1.044   1.799
13400TIP3    H140157   4.015   1.039   1.819
13400TIP3    H240158   3.918   1.045   1.703
13401TIP3   OH240159   0.316   7.272   6.137
13401TIP3    H140160   0.240   7.322   6.106
13401TIP3    H240161   0.297   7.182   6.111
13402TIP3   OH240162   3.747   1.404   4.045
13402TIP3    H140163   3.821   1.358   4.006
13402TIP3    H240164   3.781   1.439   4.127
13403TIP3   OH240165   5.249   3.188   5.044
13403TIP3    H140166   5.165   3.143   5.040
13403TIP3    H240167   5.227   3.281   5.056
13404TIP3   OH240168   7.451   7.372   5.400
13404TIP3    H140169   7.440   7.416   5.484
13404TIP3    H240170   7.537   7.401   5.369
13405TIP3   OH240171   7.300   3.291   4.342
13405TIP3    H140172   7.220   3.280   4.290
13405TIP3    H240173   7.371   3.277   4.279
13406TIP3   OH240174   1.787   5.773   5.501
13406TIP3    H140175   1.819   5.683   5.505
13406TIP3    H240176   1.798   5.798   5.409
13407TIP3   OH240177   6.991   0.888   5.565
13407TIP3    H140178   7.014   0.874   5.473
13407TIP3    H240179   6.895   0.887   5.566
13408TIP3   OH240180   2.198   6.407   0.712
13408TIP3    H140181   2.236   6.321   0.733
13408TIP3    H240182   2.274   6.465   0.704
13409TIP3   OH240183   5.354   0.557   5.750
13409TIP3    H140184   5.283   0.617   5.725
13409TIP3    H240185   5.372   0.579   5.841
13410TIP3   OH240186   2.997   1.419   5.252
13410TIP3    H140187   2.949   1.365   5.314
13410TIP3    H240188   3.073   1.366   5.229
13411TIP3   OH240189   2.412   7.514   4.617
13411TIP3    H140190   2.408   7.550   4.705
13411TIP3    H240191   2.477   7.444   4.622
13412TIP3   OH240192   6.364   4.660   0.785
13412TIP3    H140193   6.351   4.731   0.847
13412TIP3    H240194   6.382   4.703   0.702
13413TIP3   OH240195   7.451   5.442   4.029
13413TIP3    H140196   7.453   5.533   3.999
13413TIP3    H240197   7.362   5.413   4.012
13414TIP3   OH240198   7.543   5.978   0.999
13414TIP3    H140199   7.600   5.905   1.025
13414TIP3    H240200   7.457   5.954   1.033
13415TIP3   OH240201   3.145   5.012   1.791
13415TIP3    H140202   3.154   5.016   1.886
13415TIP3    H240203   3.068   4.958   1.776
13416TIP3   OH240204   7.523   7.283   6.705
13416TIP3    H140205   7.436   7.249   6.727
13416TIP3    H240206   7.540   7.349   6.771
13417TIP3   OH240207   5.614   5.595   2.359
13417TIP3    H140208   5.647   5.591   2.270
13417TIP3    H240209   5.616   5.504   2.390
13418TIP3   OH240210   3.353   6.151   2.153
13418TIP3    H140211   3.365   6.154   2.058
13418TIP3    H240212   3.258   6.145   2.165
13419TIP3   OH240213   1.954   0.736   0.046
13419TIP3    H140214   1.930   0.691   0.127
13419TIP3    H240215   1.875   0.731  -0.008
13420TIP3   OH240216   6.886   2.043   5.399
13420TIP3    H140217   6.861   2.016   5.310
13420TIP3    H240218   6.953   2.110   5.385
13421TIP3   OH240219   3.941   0.967   1.528
13421TIP3    H140220   3.894   0.910   1.467
13421TIP3    H240221   4.030   0.971   1.493
13422TIP3   OH240222   5.211   4.376   1.813
13422TIP3    H140223   5.241   4.466   1.802
13422TIP3    H240224   5.255   4.327   1.743
13423TIP3   OH240225   7.548   0.324   0.692
13423TIP3    H140226   7.609   0.338   0.619
13423TIP3    H240227   7.471   0.376   0.669
13424TIP3   OH240228   2.509   3.545   3.857
13424TIP3    H140229   2.563   3.487   3.803
13424TIP3    H240230   2.476   3.611   3.796
13425TIP3   OH240231   7.488   3.078   5.152
13425TIP3    H140232   7.452   3.148   5.099
13425TIP3    H240233   7.498   3.116   5.240
13426TIP3   OH240234   0.402   6.186   6.171
13426TIP3    H140235   0.372   6.096   6.158
13426TIP3    H240236   0.364   6.234   6.098
13427TIP3   OH240237   5.750   1.155   4.124
13427TIP3    H140238   5.728   1.234   4.074
13427TIP3    H240239   5.715   1.173   4.211
13428TIP3   OH240240   2.370   2.908   5.705
13428TIP3    H140241   2.369   3.002   5.685
13428TIP3    H240242   2.380   2.904   5.800
13429TIP3   OH240243   5.658   0.381   5.897
13429TIP3    H140244   5.738   0.344   5.936
13429TIP3    H240245   5.688   0.421   5.815
13430TIP3   OH240246   1.620   7.012   1.546
13430TIP3    H140247   1.606   7.079   1.480
13430TIP3    H240248   1.558   6.942   1.524
13431TIP3   OH240249   7.854   3.461   0.179
13431TIP3    H140250   7.838   3.545   0.222
13431TIP3    H240251   7.773   3.443   0.132
13432TIP3   OH240252   6.452   5.740   1.001
13432TIP3    H140253   6.468   5.829   1.032
13432TIP3    H240254   6.370   5.714   1.043
13433TIP3   OH240255   7.419   1.438   1.479
13433TIP3    H140256   7.473   1.447   1.400
13433TIP3    H240257   7.429   1.346   1.505
13434TIP3   OH240258   3.050   0.053   2.893
13434TIP3    H140259   3.037   0.065   2.799
13434TIP3    H240260   2.971   0.008   2.923
13435TIP3   OH240261   2.414   1.607   5.206
13435TIP3    H140262   2.439   1.603   5.113
13435TIP3    H240263   2.452   1.688   5.238
13436TIP3   OH240264   6.949   0.261   6.294
13436TIP3    H140265   7.008   0.327   6.258
13436TIP3    H240266   7.006   0.197   6.336
13437TIP3   OH240267   7.918   3.961   4.370
13437TIP3    H140268   8.006   3.999   4.375
13437TIP3    H240269   7.933   3.872   4.338
13438TIP3   OH240270   6.654   1.225   4.594
13438TIP3    H140271   6.743   1.215   4.560
13438TIP3    H240272   6.657   1.304   4.647
13439TIP3   OH240273   3.523   4.318   5.113
13439TIP3    H140274   3.513   4.410   5.137
13439TIP3    H240275   3.522   4.318   5.017
13440TIP3   OH240276   7.210   1.028   3.934
13440TIP3    H140277   7.125   0.984   3.938
13440TIP3    H240278   7.270   0.960   3.904
13441TIP3   OH240279   6.442   0.785   1.143
13441TIP3    H140280   6.364   0.839   1.153
13441TIP3    H240281   6.436   0.751   1.053
13442TIP3   OH240282   5.945   3.797   4.142
13442TIP3    H140283   5.863   3.789   4.191
13442TIP3    H240284   5.987   3.711   4.151
13443TIP3   OH240285   7.456   5.008   0.793
13443TIP3    H140286   7.450   4.936   0.731
13443TIP3    H240287   7.548   5.034   0.791
13444TIP3   OH240288   4.984   5.050   1.864
13444TIP3    H140289   5.054   5.056   1.929
13444TIP3    H240290   4.973   5.139   1.832
13445TIP3   OH240291   0.296   3.775   1.195
13445TIP3    H140292   0.331   3.691   1.225
13445TIP3    H240293   0.346   3.795   1.116
13446TIP3   OH240294   4.721   5.972   5.662
13446TIP3    H140295   4.643   5.917   5.660
13446TIP3    H240296   4.788   5.918   5.704
13447TIP3   OH240297   2.949   5.079   1.579
13447TIP3    H140298   3.013   5.010   1.562
13447TIP3    H240299   2.968   5.146   1.514
13448TIP3   OH240300   5.064   2.105   4.075
13448TIP3    H140301   5.081   2.011   4.069
13448TIP3    H240302   5.147   2.146   4.051
13449TIP3   OH240303   4.408   7.629   0.651
13449TIP3    H140304   4.318   7.643   0.622
13449TIP3    H240305   4.461   7.648   0.573
13450TIP3   OH240306   6.661   0.037   3.727
13450TIP3    H140307   6.573   0.062   3.698
13450TIP3    H240308   6.689  -0.029   3.664
13451TIP3   OH240309   0.115   3.209   1.224
13451TIP3    H140310   0.020   3.203   1.227
13451TIP3    H240311   0.143   3.129   1.180
13452TIP3   OH240312   2.466   3.667   1.001
13452TIP3    H140313   2.399   3.736   0.993
13452TIP3    H240314   2.432   3.594   0.950
13453TIP3   OH240315   7.671   4.004   5.482
13453TIP3    H140316   7.754   3.965   5.453
13453TIP3    H240317   7.605   3.938   5.460
13454TIP3   OH240318   6.963   2.355   5.686
13454TIP3    H140319   7.031   2.309   5.734
13454TIP3    H240320   6.985   2.343   5.594
13455TIP3   OH240321   1.765   4.725   1.071
13455TIP3    H140322   1.850   4.769   1.061
13455TIP3    H240323   1.776   4.642   1.024
13456TIP3   OH240324   4.268   5.388   1.784
13456TIP3    H140325   4.262   5.437   1.866
13456TIP3    H240326   4.264   5.455   1.716
13457TIP3   OH240327   4.914   3.504   5.602
13457TIP3    H140328   4.994   3.483   5.651
13457TIP3    H240329   4.936   3.585   5.555
13458TIP3   OH240330   3.793   3.242   2.057
13458TIP3    H140331   3.804   3.147   2.054
13458TIP3    H240332   3.748   3.264   1.975
13459TIP3   OH240333   3.346   7.032   6.094
13459TIP3    H140334   3.437   7.048   6.070
13459TIP3    H240335   3.296   7.088   6.034
13460TIP3   OH240336   2.171   7.804   0.643
13460TIP3    H140337   2.118   7.797   0.564
13460TIP3    H240338   2.138   7.882   0.687
13461TIP3   OH240339   3.485   0.486   3.229
13461TIP3    H140340   3.414   0.544   3.200
13461TIP3    H240341   3.526   0.456   3.148
13462TIP3   OH240342   8.207   4.081   5.407
13462TIP3    H140343   8.162   4.164   5.421
13462TIP3    H240344   8.232   4.053   5.495
13463TIP3   OH240345   1.467   5.181   5.120
13463TIP3    H140346   1.376   5.153   5.125
13463TIP3    H240347   1.462   5.274   5.097
13464TIP3   OH240348   8.104   3.174   2.193
13464TIP3    H140349   8.186   3.163   2.242
13464TIP3    H240350   8.037   3.134   2.249
13465TIP3   OH240351   2.508   7.610   3.570
13465TIP3    H140352   2.484   7.702   3.557
13465TIP3    H240353   2.581   7.595   3.510
13466TIP3   OH240354   7.990   6.051   0.342
13466TIP3    H140355   8.039   5.994   0.401
13466TIP3    H240356   7.905   6.064   0.384
13467TIP3   OH240357   1.817   5.346   1.828
13467TIP3    H140358   1.843   5.416   1.888
13467TIP3    H240359   1.744   5.383   1.778
13468TIP3   OH240360   3.068   5.101   0.308
13468TIP3    H140361   3.089   5.067   0.221
13468TIP3    H240362   3.152   5.127   0.345
13469TIP3   OH240363   3.812   4.374   0.568
13469TIP3    H140364   3.834   4.402   0.657
13469TIP3    H240365   3.896   4.368   0.523
13470TIP3   OH240366   7.062   1.266   4.898
13470TIP3    H140367   7.117   1.247   4.822
13470TIP3    H240368   7.074   1.359   4.914
13471TIP3   OH240369   8.242   5.464   5.831
13471TIP3    H140370   8.174   5.399   5.846
13471TIP3    H240371   8.226   5.531   5.897
13472TIP3   OH240372   0.301   6.014   5.537
13472TIP3    H140373   0.238   5.965   5.485
13472TIP3    H240374   0.277   5.997   5.628
13473TIP3   OH240375   0.202   1.262   6.757
13473TIP3    H140376   0.272   1.198   6.772
13473TIP3    H240377   0.199   1.272   6.662
13474TIP3   OH240378   5.467   2.267   2.940
13474TIP3    H140379   5.446   2.196   2.880
13474TIP3    H240380   5.384   2.289   2.982
13475TIP3   OH240381   3.002   1.771   2.929
13475TIP3    H140382   3.097   1.761   2.928
13475TIP3    H240383   2.984   1.816   3.011
13476TIP3   OH240384   3.573   2.873   3.691
13476TIP3    H140385   3.563   2.784   3.725
13476TIP3    H240386   3.505   2.923   3.737
13477TIP3   OH240387   4.016   2.532   0.247
13477TIP3    H140388   4.025   2.539   0.342
13477TIP3    H240389   4.105   2.519   0.215
13478TIP3   OH240390   5.943   7.583   2.160
13478TIP3    H140391   6.023   7.636   2.152
13478TIP3    H240392   5.975   7.495   2.182
13479TIP3   OH240393   3.123   4.022   5.333
13479TIP3    H140394   3.144   3.989   5.420
13479TIP3    H240395   3.207   4.047   5.296
13480TIP3   OH240396   5.451   7.084   0.137
13480TIP3    H140397   5.501   7.007   0.165
13480TIP3    H240398   5.376   7.087   0.196
13481TIP3   OH240399   4.854   5.357   1.144
13481TIP3    H140400   4.790   5.300   1.187
13481TIP3    H240401   4.848   5.440   1.191
13482TIP3   OH240402   3.464   6.117   0.676
13482TIP3    H140403   3.432   6.042   0.726
13482TIP3    H240404   3.385   6.165   0.652
13483TIP3   OH240405   0.980   4.900   5.092
13483TIP3    H140406   0.898   4.851   5.101
13483TIP3    H240407   1.002   4.891   4.999
13484TIP3   OH240408   0.861   4.158   0.087
13484TIP3    H140409   0.829   4.248   0.090
13484TIP3    H240410   0.792   4.106   0.128
13485TIP3   OH240411   5.997   2.719   0.780
13485TIP3    H140412   6.086   2.701   0.812
13485TIP3    H240413   6.009   2.786   0.712
13486TIP3   OH240414   5.137   7.282   6.767
13486TIP3    H140415   5.136   7.188   6.786
13486TIP3    H240416   5.194   7.291   6.691
13487TIP3   OH240417   0.018   6.861   4.103
13487TIP3    H140418   0.095   6.863   4.046
13487TIP3    H240419   0.045   6.907   4.183
13488TIP3   OH240420   6.103   3.716   5.238
13488TIP3    H140421   6.066   3.633   5.206
13488TIP3    H240422   6.037   3.781   5.216
13489TIP3   OH240423   5.689   2.262   5.342
13489TIP3    H140424   5.729   2.181   5.311
13489TIP3    H240425   5.622   2.282   5.276
13490TIP3   OH240426   1.032   5.528   4.786
13490TIP3    H140427   0.940   5.508   4.805
13490TIP3    H240428   1.082   5.460   4.831
13491TIP3   OH240429   7.087   3.913   4.866
13491TIP3    H140430   7.098   3.891   4.774
13491TIP3    H240431   7.083   4.009   4.868
13492TIP3   OH240432   1.269   0.129   0.539
13492TIP3    H140433   1.240   0.204   0.590
13492TIP3    H240434   1.241   0.053   0.590
13493TIP3   OH240435   6.080   2.883   1.567
13493TIP3    H140436   6.030   2.835   1.633
13493TIP3    H240437   6.030   2.964   1.553
13494TIP3   OH240438   7.072   4.750   6.437
13494TIP3    H140439   6.977   4.739   6.444
13494TIP3    H240440   7.107   4.661   6.445
13495TIP3   OH240441   1.389   4.321   5.539
13495TIP3    H140442   1.324   4.288   5.602
13495TIP3    H240443   1.472   4.281   5.567
13496TIP3   OH240444   5.575   2.052   3.968
13496TIP3    H140445   5.562   1.959   3.985
13496TIP3    H240446   5.623   2.084   4.045
13497TIP3   OH240447   1.140   2.506   2.846
13497TIP3    H140448   1.145   2.424   2.896
13497TIP3    H240449   1.097   2.481   2.764
13498TIP3   OH240450   4.295   6.155   6.218
13498TIP3    H140451   4.232   6.151   6.147
13498TIP3    H240452   4.254   6.211   6.284
13499TIP3   OH240453   7.325   5.935   4.249
13499TIP3    H140454   7.420   5.949   4.256
13499TIP3    H240455   7.288   5.979   4.325
13500TIP3   OH240456   6.469   4.794   4.929
13500TIP3    H140457   6.380   4.829   4.928
13500TIP3    H240458   6.472   4.734   4.854
13501TIP3   OH240459   3.312   6.687   2.939
13501TIP3    H140460   3.364   6.687   2.858
13501TIP3    H240461   3.256   6.610   2.931
13502TIP3   OH240462   0.336   3.777   2.399
13502TIP3    H140463   0.336   3.681   2.395
13502TIP3    H240464   0.424   3.802   2.371
13503TIP3   OH240465   7.161   5.207   6.607
13503TIP3    H140466   7.232   5.173   6.661
13503TIP3    H240467   7.137   5.134   6.550
13504TIP3   OH240468   0.630   3.557   3.513
13504TIP3    H140469   0.568   3.615   3.558
13504TIP3    H240470   0.660   3.608   3.438
13505TIP3   OH240471   3.812   6.943   5.871
13505TIP3    H140472   3.813   7.020   5.813
13505TIP3    H240473   3.826   6.869   5.812
13506TIP3   OH240474   3.238   5.239   1.681
13506TIP3    H140475   3.316   5.228   1.625
13506TIP3    H240476   3.224   5.151   1.717
13507TIP3   OH240477   3.704   3.406   4.886
13507TIP3    H140478   3.787   3.362   4.906
13507TIP3    H240479   3.664   3.351   4.820
13508TIP3   OH240480   2.238   1.630   1.316
13508TIP3    H140481   2.143   1.643   1.313
13508TIP3    H240482   2.254   1.559   1.254
13509TIP3   OH240483   0.580   4.574   5.733
13509TIP3    H140484   0.590   4.598   5.641
13509TIP3    H240485   0.624   4.489   5.740
13510TIP3   OH240486   3.105   6.578   4.390
13510TIP3    H140487   3.025   6.608   4.346
13510TIP3    H240488   3.149   6.523   4.325
13511TIP3   OH240489   7.430   3.288   4.583
13511TIP3    H140490   7.511   3.265   4.539
13511TIP3    H240491   7.361   3.254   4.526
13512TIP3   OH240492   2.967   2.035   3.738
13512TIP3    H140493   2.913   2.052   3.815
13512TIP3    H240494   2.913   1.977   3.684
13513TIP3   OH240495   0.943   0.344   4.354
13513TIP3    H140496   0.888   0.353   4.432
13513TIP3    H240497   0.881   0.323   4.284
13514TIP3   OH240498   4.738   1.170   2.514
13514TIP3    H140499   4.814   1.205   2.469
13514TIP3    H240500   4.772   1.134   2.596
13515TIP3   OH240501   3.930   4.093   1.259
13515TIP3    H140502   3.992   4.123   1.192
13515TIP3    H240503   3.947   4.148   1.335
13516TIP3   OH240504   1.384   5.631   0.092
13516TIP3    H140505   1.358   5.572   0.021
13516TIP3    H240506   1.402   5.715   0.049
13517TIP3   OH240507   5.868   4.539   6.249
13517TIP3    H140508   5.880   4.604   6.180
13517TIP3    H240509   5.773   4.533   6.260
13518TIP3   OH240510   7.069   5.017   6.433
13518TIP3    H140511   7.032   5.037   6.346
13518TIP3    H240512   7.092   4.924   6.428
13519TIP3   OH240513   2.091   2.773   2.468
13519TIP3    H140514   2.129   2.716   2.535
13519TIP3    H240515   2.024   2.720   2.426
13520TIP3   OH240516   4.116   3.365   0.583
13520TIP3    H140517   4.189   3.304   0.569
13520TIP3    H240518   4.134   3.405   0.668
13521TIP3   OH240519   2.099   4.281   4.062
13521TIP3    H140520   2.049   4.239   3.992
13521TIP3    H240521   2.182   4.234   4.064
13522TIP3   OH240522   1.304   1.604   0.226
13522TIP3    H140523   1.327   1.647   0.309
13522TIP3    H240524   1.305   1.674   0.161
13523TIP3   OH240525   7.123   1.699   4.271
13523TIP3    H140526   7.169   1.617   4.282
13523TIP3    H240527   7.095   1.700   4.180
13524TIP3   OH240528   8.208   6.632   4.025
13524TIP3    H140529   8.254   6.696   4.078
13524TIP3    H240530   8.199   6.555   4.082
13525TIP3   OH240531   4.798   3.508   1.177
13525TIP3    H140532   4.708   3.499   1.210
13525TIP3    H240533   4.796   3.463   1.093
13526TIP3   OH240534   5.623   6.499   4.029
13526TIP3    H140535   5.712   6.500   3.993
13526TIP3    H240536   5.566   6.484   3.953
13527TIP3   OH240537   2.783   7.143   3.335
13527TIP3    H140538   2.865   7.094   3.345
13527TIP3    H240539   2.811   7.234   3.325
13528TIP3   OH240540   6.604   1.462   2.501
13528TIP3    H140541   6.560   1.390   2.546
13528TIP3    H240542   6.616   1.529   2.569
13529TIP3   OH240543   6.557   0.896   2.047
13529TIP3    H140544   6.466   0.882   2.021
13529TIP3    H240545   6.587   0.967   1.990
13530TIP3   OH240546   4.552   3.475   5.038
13530TIP3    H140547   4.598   3.540   4.985
13530TIP3    H240548   4.605   3.467   5.118
13531TIP3   OH240549   3.621   3.447   0.315
13531TIP3    H140550   3.615   3.542   0.329
13531TIP3    H240551   3.651   3.413   0.399
13532TIP3   OH240552   3.530   5.531   0.277
13532TIP3    H140553   3.475   5.591   0.227
13532TIP3    H240554   3.508   5.444   0.244
13533TIP3   OH240555   4.207   6.805   2.781
13533TIP3    H140556   4.254   6.807   2.865
13533TIP3    H240557   4.197   6.898   2.758
13534TIP3   OH240558   5.583   1.796   5.767
13534TIP3    H140559   5.537   1.724   5.811
13534TIP3    H240560   5.648   1.826   5.831
13535TIP3   OH240561   3.234   1.673   5.672
13535TIP3    H140562   3.256   1.618   5.598
13535TIP3    H240563   3.194   1.751   5.634
13536TIP3   OH240564   7.573   1.949   4.616
13536TIP3    H140565   7.571   2.023   4.555
13536TIP3    H240566   7.666   1.929   4.627
13537TIP3   OH240567   3.225   0.202   0.318
13537TIP3    H140568   3.190   0.272   0.264
13537TIP3    H240569   3.318   0.224   0.329
13538TIP3   OH240570   6.686   2.627   5.861
13538TIP3    H140571   6.595   2.613   5.837
13538TIP3    H240572   6.686   2.709   5.911
13539TIP3   OH240573   6.751   1.892   6.477
13539TIP3    H140574   6.689   1.836   6.524
13539TIP3    H240575   6.792   1.834   6.412
13540TIP3   OH240576   7.029   6.929   2.042
13540TIP3    H140577   7.121   6.912   2.061
13540TIP3    H240578   7.029   7.015   2.000
13541TIP3   OH240579   6.712   6.507   0.449
13541TIP3    H140580   6.623   6.483   0.422
13541TIP3    H240581   6.728   6.592   0.407
13542TIP3   OH240582   0.196   7.559   2.645
13542TIP3    H140583   0.127   7.581   2.707
13542TIP3    H240584   0.200   7.463   2.648
13543TIP3   OH240585   6.344   2.011   5.278
13543TIP3    H140586   6.301   1.978   5.199
13543TIP3    H240587   6.282   1.993   5.349
13544TIP3   OH240588   7.494   3.946   4.178
13544TIP3    H140589   7.496   4.039   4.201
13544TIP3    H240590   7.416   3.937   4.123
13545TIP3   OH240591   5.547   2.106   6.737
13545TIP3    H140592   5.547   2.074   6.827
13545TIP3    H240593   5.506   2.192   6.742
13546TIP3   OH240594   4.784   5.360   0.003
13546TIP3    H140595   4.872   5.365   0.041
13546TIP3    H240596   4.734   5.307   0.065
13547TIP3   OH240597   3.078   7.447   0.955
13547TIP3    H140598   3.095   7.455   0.861
13547TIP3    H240599   3.010   7.380   0.961
13548TIP3   OH240600   4.599   3.014   6.047
13548TIP3    H140601   4.550   3.055   6.118
13548TIP3    H240602   4.651   3.086   6.011
13549TIP3   OH240603   0.288   2.653   2.528
13549TIP3    H140604   0.296   2.703   2.447
13549TIP3    H240605   0.367   2.599   2.531
13550TIP3   OH240606   4.438   6.521   4.015
13550TIP3    H140607   4.522   6.555   4.046
13550TIP3    H240608   4.419   6.447   4.072
13551TIP3   OH240609   6.505   6.172   1.975
13551TIP3    H140610   6.464   6.140   1.895
13551TIP3    H240611   6.599   6.165   1.959
13552TIP3   OH240612   6.816   3.736   0.383
13552TIP3    H140613   6.751   3.737   0.453
13552TIP3    H240614   6.832   3.829   0.363
13553TIP3   OH240615   8.176   0.990   5.336
13553TIP3    H140616   8.153   1.058   5.272
13553TIP3    H240617   8.186   1.038   5.419
13554TIP3   OH240618   6.134   1.870   1.636
13554TIP3    H140619   6.226   1.861   1.660
13554TIP3    H240620   6.135   1.872   1.540
13555TIP3   OH240621   5.890   7.503   5.737
13555TIP3    H140622   5.835   7.539   5.667
13555TIP3    H240623   5.968   7.559   5.737
13556TIP3   OH240624   7.836   1.821   1.459
13556TIP3    H140625   7.845   1.729   1.483
13556TIP3    H240626   7.750   1.847   1.492
13557TIP3   OH240627   6.160   5.462   3.425
13557TIP3    H140628   6.148   5.556   3.407
13557TIP3    H240629   6.241   5.457   3.475
13558TIP3   OH240630   7.567   0.478   5.074
13558TIP3    H140631   7.652   0.504   5.109
13558TIP3    H240632   7.584   0.393   5.033
13559TIP3   OH240633   4.604   7.313   4.324
13559TIP3    H140634   4.592   7.254   4.250
13559TIP3    H240635   4.601   7.401   4.285
13560TIP3   OH240636   1.514   7.575   4.940
13560TIP3    H140637   1.499   7.532   4.856
13560TIP3    H240638   1.505   7.505   5.005
13561TIP3   OH240639   3.296   0.188   2.834
13561TIP3    H140640   3.332   0.104   2.805
13561TIP3    H240641   3.216   0.164   2.881
13562TIP3   OH240642   1.034   5.470   2.760
13562TIP3    H140643   0.987   5.444   2.680
13562TIP3    H240644   0.967   5.513   2.813
13563TIP3   OH240645   4.109   1.331   4.234
13563TIP3    H140646   4.055   1.330   4.154
13563TIP3    H240647   4.074   1.403   4.286
13564TIP3   OH240648   1.018   0.637   6.732
13564TIP3    H140649   1.011   0.728   6.704
13564TIP3    H240650   0.930   0.614   6.762
13565TIP3   OH240651   2.424   1.554   3.243
13565TIP3    H140652   2.466   1.486   3.296
13565TIP3    H240653   2.457   1.637   3.280
13566TIP3   OH240654   3.455   2.238   5.236
13566TIP3    H140655   3.491   2.323   5.212
13566TIP3    H240656   3.527   2.176   5.221
13567TIP3   OH240657   5.488   1.550   2.128
13567TIP3    H140658   5.545   1.473   2.122
13567TIP3    H240659   5.407   1.516   2.167
13568TIP3   OH240660   7.078   6.443   6.388
13568TIP3    H140661   7.118   6.487   6.463
13568TIP3    H240662   7.038   6.364   6.424
13569TIP3   OH240663   1.809   6.382   1.394
13569TIP3    H140664   1.833   6.453   1.335
13569TIP3    H240665   1.837   6.412   1.480
13570TIP3   OH240666   7.186   2.699   5.784
13570TIP3    H140667   7.175   2.791   5.760
13570TIP3    H240668   7.098   2.662   5.779
13571TIP3   OH240669   7.123   1.283   1.546
13571TIP3    H140670   7.112   1.324   1.461
13571TIP3    H240671   7.085   1.346   1.608
13572TIP3   OH240672   1.874   7.103   6.056
13572TIP3    H140673   1.801   7.081   6.000
13572TIP3    H240674   1.941   7.037   6.037
13573TIP3   OH240675   2.994   0.067   2.619
13573TIP3    H140676   3.061  -0.001   2.607
13573TIP3    H240677   2.955   0.079   2.532
13574TIP3   OH240678   1.065   5.931   5.545
13574TIP3    H140679   0.999   5.980   5.594
13574TIP3    H240680   1.020   5.905   5.464
13575TIP3   OH240681   2.269   2.575   5.688
13575TIP3    H140682   2.192   2.522   5.710
13575TIP3    H240683   2.243   2.664   5.709
13576TIP3   OH240684   0.511   2.232   5.839
13576TIP3    H140685   0.463   2.315   5.846
13576TIP3    H240686   0.597   2.257   5.806
13577TIP3   OH240687   6.863   3.810   4.549
13577TIP3    H140688   6.889   3.736   4.604
13577TIP3    H240689   6.942   3.833   4.501
13578TIP3   OH240690   0.096   3.377   0.523
13578TIP3    H140691   0.014   3.337   0.552
13578TIP3    H240692   0.164   3.333   0.575
13579TIP3   OH240693   5.868   2.821   4.972
13579TIP3    H140694   5.843   2.890   5.033
13579TIP3    H240695   5.830   2.741   5.009
13580TIP3   OH240696   0.145   7.521   5.712
13580TIP3    H140697   0.200   7.543   5.637
13580TIP3    H240698   0.182   7.573   5.784
13581TIP3   OH240699   4.239   3.149   6.393
13581TIP3    H140700   4.316   3.202   6.414
13581TIP3    H240701   4.262   3.107   6.309
13582TIP3   OH240702   2.216   6.225   6.474
13582TIP3    H140703   2.159   6.274   6.416
13582TIP3    H240704   2.210   6.135   6.443
13583TIP3   OH240705   5.741   5.292   0.052
13583TIP3    H140706   5.683   5.338   0.112
13583TIP3    H240707   5.685   5.230   0.006
13584TIP3   OH240708   4.264   4.362   0.647
13584TIP3    H140709   4.202   4.333   0.714
13584TIP3    H240710   4.303   4.442   0.682
13585TIP3   OH240711   7.964   6.353   0.494
13585TIP3    H140712   8.020   6.363   0.571
13585TIP3    H240713   7.908   6.279   0.515
13586TIP3   OH240714   4.076   3.445   6.516
13586TIP3    H140715   4.159   3.487   6.492
13586TIP3    H240716   4.058   3.385   6.444
13587TIP3   OH240717   7.496   4.033   2.617
13587TIP3    H140718   7.517   3.970   2.686
13587TIP3    H240719   7.570   4.026   2.556
13588TIP3   OH240720   3.030   1.113   1.525
13588TIP3    H140721   2.985   1.165   1.592
13588TIP3    H240722   3.069   1.178   1.466
13589TIP3   OH240723   3.347   3.605   5.972
13589TIP3    H140724   3.265   3.624   5.927
13589TIP3    H240725   3.324   3.607   6.065
13590TIP3   OH240726   6.531   0.178   2.039
13590TIP3    H140727   6.534   0.260   2.088
13590TIP3    H240728   6.568   0.113   2.099
13591TIP3   OH240729   1.121   1.396   1.148
13591TIP3    H140730   1.174   1.467   1.111
13591TIP3    H240731   1.032   1.431   1.148
13592TIP3   OH240732   7.701   2.770   0.180
13592TIP3    H140733   7.781   2.723   0.157
13592TIP3    H240734   7.673   2.732   0.263
13593TIP3   OH240735   1.601   0.207   0.959
13593TIP3    H140736   1.605   0.164   1.044
13593TIP3    H240737   1.692   0.221   0.934
13594TIP3   OH240738   0.837   5.982   1.356
13594TIP3    H140739   0.807   5.897   1.325
13594TIP3    H240740   0.895   6.014   1.287
13595TIP3   OH240741   1.500   1.399   0.478
13595TIP3    H140742   1.502   1.330   0.544
13595TIP3    H240743   1.549   1.363   0.404
13596TIP3   OH240744   6.933   2.576   2.439
13596TIP3    H140745   6.848   2.550   2.475
13596TIP3    H240746   6.913   2.651   2.383
13597TIP3   OH240747   5.368   1.567   5.590
13597TIP3    H140748   5.375   1.543   5.683
13597TIP3    H240749   5.293   1.626   5.586
13598TIP3   OH240750   3.431   0.147   0.831
13598TIP3    H140751   3.360   0.204   0.800
13598TIP3    H240752   3.424   0.069   0.776
13599TIP3   OH240753   4.602   7.245   4.892
13599TIP3    H140754   4.688   7.209   4.913
13599TIP3    H240755   4.617   7.338   4.877
13600TIP3   OH240756   6.324   6.518   3.307
13600TIP3    H140757   6.362   6.601   3.278
13600TIP3    H240758   6.347   6.456   3.237
13601TIP3   OH240759   1.853   3.841   4.914
13601TIP3    H140760   1.763   3.833   4.946
13601TIP3    H240761   1.846   3.895   4.836
13602TIP3   OH240762   6.037   7.213   3.208
13602TIP3    H140763   6.024   7.206   3.303
13602TIP3    H240764   6.084   7.133   3.185
13603TIP3   OH240765   5.252   1.730   2.745
13603TIP3    H140766   5.277   1.815   2.709
13603TIP3    H240767   5.273   1.667   2.676
13604TIP3   OH240768   2.699   5.624   0.602
13604TIP3    H140769   2.694   5.533   0.630
13604TIP3    H240770   2.668   5.624   0.512
13605TIP3   OH240771   3.947   6.818   2.834
13605TIP3    H140772   4.037   6.794   2.809
13605TIP3    H240773   3.957   6.896   2.888
13606TIP3   OH240774   6.339   4.537   1.995
13606TIP3    H140775   6.301   4.483   2.064
13606TIP3    H240776   6.433   4.537   2.014
13607TIP3   OH240777   3.484   0.577   1.119
13607TIP3    H140778   3.433   0.502   1.089
13607TIP3    H240779   3.557   0.582   1.058
13608TIP3   OH240780   4.156   0.272   1.183
13608TIP3    H140781   4.242   0.298   1.150
13608TIP3    H240782   4.152   0.178   1.167
13609TIP3   OH240783   7.279   3.042   5.490
13609TIP3    H140784   7.328   3.119   5.520
13609TIP3    H240785   7.201   3.078   5.448
13610TIP3   OH240786   3.642   6.052   1.420
13610TIP3    H140787   3.674   5.968   1.452
13610TIP3    H240788   3.608   6.096   1.497
13611TIP3   OH240789   0.100   1.391   6.245
13611TIP3    H140790   0.128   1.316   6.193
13611TIP3    H240791   0.137   1.376   6.332
13612TIP3   OH240792   3.090   4.178   6.000
13612TIP3    H140793   3.018   4.167   6.062
13612TIP3    H240794   3.050   4.167   5.914
13613TIP3   OH240795   3.566   1.771   2.841
13613TIP3    H140796   3.532   1.743   2.926
13613TIP3    H240797   3.494   1.819   2.801
13614TIP3   OH240798   1.506   0.212   6.450
13614TIP3    H140799   1.495   0.152   6.524
13614TIP3    H240800   1.427   0.199   6.397
13615TIP3   OH240801   0.458   6.206   3.301
13615TIP3    H140802   0.503   6.245   3.226
13615TIP3    H240803   0.379   6.260   3.311
13616TIP3   OH240804   4.767   0.410   5.376
13616TIP3    H140805   4.738   0.500   5.389
13616TIP3    H240806   4.775   0.401   5.281
13617TIP3   OH240807   3.621   0.776   5.081
13617TIP3    H140808   3.543   0.729   5.110
13617TIP3    H240809   3.643   0.833   5.154
13618TIP3   OH240810   3.419   1.611   6.535
13618TIP3    H140811   3.509   1.643   6.542
13618TIP3    H240812   3.397   1.620   6.443
13619TIP3   OH240813   5.207   5.576   2.840
13619TIP3    H140814   5.172   5.601   2.925
13619TIP3    H240815   5.211   5.657   2.791
13620TIP3   OH240816   5.754   2.131   0.395
13620TIP3    H140817   5.819   2.130   0.325
13620TIP3    H240818   5.772   2.212   0.443
13621TIP3   OH240819   1.493   7.363   4.760
13621TIP3    H140820   1.568   7.354   4.818
13621TIP3    H240821   1.521   7.320   4.679
13622TIP3   OH240822   4.708   0.190   2.478
13622TIP3    H140823   4.707   0.134   2.555
13622TIP3    H240824   4.798   0.185   2.445
13623TIP3   OH240825   1.344   3.723   6.361
13623TIP3    H140826   1.293   3.659   6.412
13623TIP3    H240827   1.430   3.682   6.350
13624TIP3   OH240828   1.587   1.353   2.483
13624TIP3    H140829   1.626   1.362   2.570
13624TIP3    H240830   1.513   1.414   2.484
13625TIP3   OH240831   4.037   5.122   5.581
13625TIP3    H140832   3.998   5.108   5.667
13625TIP3    H240833   3.977   5.077   5.520
13626TIP3   OH240834   2.801   2.864   3.723
13626TIP3    H140835   2.735   2.815   3.673
13626TIP3    H240836   2.750   2.916   3.785
13627TIP3   OH240837   2.882   0.246   6.457
13627TIP3    H140838   2.821   0.184   6.496
13627TIP3    H240839   2.934   0.278   6.531
13628TIP3   OH240840   4.208   2.396   1.216
13628TIP3    H140841   4.256   2.314   1.228
13628TIP3    H240842   4.213   2.414   1.122
13629TIP3   OH240843   2.578   5.290   1.736
13629TIP3    H140844   2.500   5.300   1.790
13629TIP3    H240845   2.602   5.198   1.745
13630TIP3   OH240846   6.667   6.138   3.388
13630TIP3    H140847   6.705   6.194   3.456
13630TIP3    H240848   6.640   6.059   3.434
13631TIP3   OH240849   4.805   1.971   6.245
13631TIP3    H140850   4.776   1.940   6.160
13631TIP3    H240851   4.772   1.905   6.307
13632TIP3   OH240852   3.655   0.747   4.769
13632TIP3    H140853   3.576   0.746   4.823
13632TIP3    H240854   3.725   0.721   4.828
13633TIP3   OH240855   4.147   0.717   4.410
13633TIP3    H140856   4.207   0.643   4.409
13633TIP3    H240857   4.201   0.791   4.381
13634TIP3   OH240858   1.325   5.756   5.055
13634TIP3    H140859   1.420   5.748   5.046
13634TIP3    H240860   1.291   5.735   4.968
13635TIP3   OH240861   1.019   5.335   3.569
13635TIP3    H140862   1.114   5.346   3.563
13635TIP3    H240863   1.006   5.241   3.572
13636TIP3   OH240864   4.088   6.415   4.308
13636TIP3    H140865   4.087   6.494   4.362
13636TIP3    H240866   3.995   6.397   4.290
13637TIP3   OH240867   6.341   6.435   4.687
13637TIP3    H140868   6.263   6.383   4.665
13637TIP3    H240869   6.392   6.378   4.745
13638TIP3   OH240870   0.360   1.673   2.406
13638TIP3    H140871   0.266   1.686   2.397
13638TIP3    H240872   0.397   1.761   2.401
13639TIP3   OH240873   0.889   6.748   2.276
13639TIP3    H140874   0.805   6.711   2.249
13639TIP3    H240875   0.953   6.680   2.252
13640TIP3   OH240876   6.658   1.104   1.891
13640TIP3    H140877   6.746   1.136   1.869
13640TIP3    H240878   6.618   1.176   1.939
13641TIP3   OH240879   2.129   7.810   2.181
13641TIP3    H140880   2.066   7.821   2.252
13641TIP3    H240881   2.126   7.893   2.134
13642TIP3   OH240882   3.622   6.155   2.864
13642TIP3    H140883   3.570   6.084   2.825
13642TIP3    H240884   3.663   6.199   2.790
13643TIP3   OH240885   7.862   4.009  -0.035
13643TIP3    H140886   7.846   4.102  -0.017
13643TIP3    H240887   7.925   3.983   0.031
13644TIP3   OH240888   1.936   4.585   2.032
13644TIP3    H140889   1.940   4.514   2.096
13644TIP3    H240890   1.973   4.661   2.077
13645TIP3   OH240891   0.379   3.473   6.107
13645TIP3    H140892   0.433   3.441   6.035
13645TIP3    H240893   0.320   3.537   6.066
13646TIP3   OH240894   6.948   6.672   0.588
13646TIP3    H140895   7.002   6.603   0.550
13646TIP3    H240896   6.883   6.626   0.641
13647TIP3   OH240897   6.774   2.632   2.767
13647TIP3    H140898   6.870   2.624   2.771
13647TIP3    H240899   6.753   2.616   2.675
13648TIP3   OH240900   4.356   0.496   6.590
13648TIP3    H140901   4.289   0.493   6.658
13648TIP3    H240902   4.436   0.468   6.634
13649TIP3   OH240903   7.272   7.595   6.232
13649TIP3    H140904   7.233   7.663   6.287
13649TIP3    H240905   7.357   7.577   6.271
13650TIP3   OH240906   6.524   3.336   0.977
13650TIP3    H140907   6.613   3.300   0.983
13650TIP3    H240908   6.475   3.292   1.046
13651TIP3   OH240909   1.100   2.221   1.126
13651TIP3    H140910   1.134   2.310   1.121
13651TIP3    H240911   1.109   2.196   1.218
13652TIP3   OH240912   1.160   7.528   4.682
13652TIP3    H140913   1.106   7.476   4.622
13652TIP3    H240914   1.194   7.465   4.745
13653TIP3   OH240915   6.907   3.515   2.410
13653TIP3    H140916   6.852   3.479   2.340
13653TIP3    H240917   6.916   3.608   2.388
13654TIP3   OH240918   1.187   0.703   5.646
13654TIP3    H140919   1.113   0.758   5.671
13654TIP3    H240920   1.249   0.764   5.605
13655TIP3   OH240921   5.481   1.109   3.937
13655TIP3    H140922   5.532   1.188   3.953
13655TIP3    H240923   5.465   1.109   3.843
13656TIP3   OH240924   1.061   3.806   2.830
13656TIP3    H140925   1.076   3.729   2.776
13656TIP3    H240926   1.012   3.773   2.905
13657TIP3   OH240927   1.613   1.104   6.092
13657TIP3    H140928   1.661   1.037   6.043
13657TIP3    H240929   1.681   1.152   6.140
13658TIP3   OH240930   7.151   6.705   1.438
13658TIP3    H140931   7.119   6.620   1.468
13658TIP3    H240932   7.087   6.733   1.373
13659TIP3   OH240933   6.288   7.807   5.201
13659TIP3    H140934   6.238   7.880   5.165
13659TIP3    H240935   6.238   7.729   5.176
13660TIP3   OH240936   2.435   2.238   0.990
13660TIP3    H140937   2.452   2.282   0.907
13660TIP3    H240938   2.505   2.172   0.997
13661TIP3   OH240939   1.505   4.029   4.098
13661TIP3    H140940   1.534   4.014   4.007
13661TIP3    H240941   1.411   4.043   4.091
13662TIP3   OH240942   7.006   6.886   3.702
13662TIP3    H140943   6.958   6.938   3.766
13662TIP3    H240944   7.098   6.892   3.729
13663TIP3   OH240945   2.452   3.440   1.911
13663TIP3    H140946   2.522   3.472   1.968
13663TIP3    H240947   2.487   3.451   1.822
13664TIP3   OH240948   2.253   5.599   4.527
13664TIP3    H140949   2.339   5.586   4.566
13664TIP3    H240950   2.198   5.631   4.598
13665TIP3   OH240951   7.488   0.760   1.946
13665TIP3    H140952   7.516   0.724   1.862
13665TIP3    H240953   7.524   0.849   1.947
13666TIP3   OH240954   2.974   4.696   2.187
13666TIP3    H140955   2.924   4.650   2.254
13666TIP3    H240956   2.971   4.788   2.214
13667TIP3   OH240957   0.242   6.988   3.967
13667TIP3    H140958   0.320   6.940   3.941
13667TIP3    H240959   0.266   7.080   3.960
13668TIP3   OH240960   3.397   7.021   2.180
13668TIP3    H140961   3.418   6.956   2.113
13668TIP3    H240962   3.302   7.017   2.188
13669TIP3   OH240963   8.092   5.745   1.916
13669TIP3    H140964   8.052   5.778   1.997
13669TIP3    H240965   8.172   5.703   1.944
13670TIP3   OH240966   4.028   4.546   4.187
13670TIP3    H140967   4.042   4.493   4.108
13670TIP3    H240968   4.004   4.481   4.254
13671TIP3   OH240969   1.625   0.564   4.442
13671TIP3    H140970   1.713   0.570   4.477
13671TIP3    H240971   1.619   0.475   4.408
13672TIP3   OH240972   0.491   3.838   6.512
13672TIP3    H140973   0.520   3.751   6.539
13672TIP3    H240974   0.461   3.826   6.422
13673TIP3   OH240975   4.264   7.840   4.794
13673TIP3    H140976   4.323   7.885   4.734
13673TIP3    H240977   4.309   7.758   4.816
13674TIP3   OH240978   3.101   6.550   0.641
13674TIP3    H140979   3.139   6.525   0.725
13674TIP3    H240980   3.036   6.482   0.623
13675TIP3   OH240981   7.996   4.999   1.333
13675TIP3    H140982   7.991   4.910   1.369
13675TIP3    H240983   7.955   4.993   1.247
13676TIP3   OH240984   1.622   1.894   1.880
13676TIP3    H140985   1.608   1.848   1.798
13676TIP3    H240986   1.694   1.954   1.863
13677TIP3   OH240987   2.776   7.777   4.447
13677TIP3    H140988   2.804   7.728   4.370
13677TIP3    H240989   2.855   7.786   4.500
13678TIP3   OH240990   5.116   1.052   4.307
13678TIP3    H140991   5.061   1.043   4.385
13678TIP3    H240992   5.054   1.072   4.236
13679TIP3   OH240993   0.133   1.658   6.643
13679TIP3    H140994   0.192   1.685   6.713
13679TIP3    H240995   0.177   1.582   6.603
13680TIP3   OH240996   5.604   1.495   0.445
13680TIP3    H140997   5.595   1.443   0.366
13680TIP3    H240998   5.673   1.451   0.495
13681TIP3   OH240999   6.939   2.775   1.944
13681TIP3    H141000   6.995   2.811   2.012
13681TIP3    H241001   6.876   2.720   1.990
13682TIP3   OH241002   4.312   1.941   3.183
13682TIP3    H141003   4.375   1.897   3.126
13682TIP3    H241004   4.263   2.000   3.125
13683TIP3   OH241005   2.588   0.268   0.766
13683TIP3    H141006   2.634   0.329   0.824
13683TIP3    H241007   2.658   0.223   0.718
13684TIP3   OH241008   3.046   5.631   5.929
13684TIP3    H141009   3.050   5.625   5.834
13684TIP3    H241010   3.096   5.555   5.960
13685TIP3   OH241011   5.003   0.567   1.511
13685TIP3    H141012   4.940   0.502   1.540
13685TIP3    H241013   4.998   0.565   1.415
13686TIP3   OH241014   3.390   5.325   0.168
13686TIP3    H141015   3.467   5.287   0.125
13686TIP3    H241016   3.329   5.344   0.097
13687TIP3   OH241017   1.238   2.419   1.511
13687TIP3    H141018   1.192   2.336   1.519
13687TIP3    H241019   1.300   2.406   1.440
13688TIP3   OH241020   5.629   3.489   3.692
13688TIP3    H141021   5.579   3.408   3.692
13688TIP3    H241022   5.623   3.521   3.782
13689TIP3   OH241023   8.013   1.545   1.755
13689TIP3    H141024   8.078   1.486   1.795
13689TIP3    H241025   7.938   1.489   1.737
13690TIP3   OH241026   2.931   3.890   6.077
13690TIP3    H141027   2.874   3.875   6.153
13690TIP3    H241028   2.894   3.834   6.008
13691TIP3   OH241029   2.490   2.248   4.986
13691TIP3    H141030   2.533   2.215   4.907
13691TIP3    H241031   2.413   2.294   4.953
13692TIP3   OH241032   4.520   3.057   3.303
13692TIP3    H141033   4.468   3.137   3.304
13692TIP3    H241034   4.497   3.014   3.221
13693TIP3   OH241035   2.303   7.639   3.114
13693TIP3    H141036   2.270   7.727   3.132
13693TIP3    H241037   2.223   7.587   3.101
13694TIP3   OH241038   3.610   7.640   5.758
13694TIP3    H141039   3.528   7.673   5.721
13694TIP3    H241040   3.645   7.712   5.809
13695TIP3   OH241041   2.160   4.175   3.355
13695TIP3    H141042   2.222   4.110   3.320
13695TIP3    H241043   2.208   4.257   3.353
13696TIP3   OH241044   6.124   0.216   3.465
13696TIP3    H141045   6.176   0.245   3.539
13696TIP3    H241046   6.184   0.219   3.390
13697TIP3   OH241047   7.859   0.681   5.634
13697TIP3    H141048   7.948   0.706   5.659
13697TIP3    H241049   7.867   0.649   5.544
13698TIP3   OH241050   7.180   1.483   2.469
13698TIP3    H141051   7.196   1.496   2.563
13698TIP3    H241052   7.266   1.469   2.432
13699TIP3   OH241053   2.485   4.347   0.160
13699TIP3    H141054   2.511   4.439   0.167
13699TIP3    H241055   2.505   4.325   0.069
13700TIP3   OH241056   4.751   0.792   3.136
13700TIP3    H141057   4.659   0.786   3.160
13700TIP3    H241058   4.792   0.719   3.182
13701TIP3   OH241059   3.411   7.177   6.519
13701TIP3    H141060   3.418   7.125   6.599
13701TIP3    H241061   3.459   7.126   6.453
13702TIP3   OH241062   2.395   6.169   3.732
13702TIP3    H141063   2.307   6.152   3.766
13702TIP3    H241064   2.432   6.083   3.714
13703TIP3   OH241065   2.512   4.673   5.395
13703TIP3    H141066   2.453   4.628   5.335
13703TIP3    H241067   2.460   4.745   5.431
13704TIP3   OH241068   5.433   4.705   2.690
13704TIP3    H141069   5.365   4.638   2.687
13704TIP3    H241070   5.461   4.715   2.599
13705TIP3   OH241071   0.078   5.587   1.063
13705TIP3    H141072   0.131   5.602   1.142
13705TIP3    H241073   0.083   5.669   1.015
13706TIP3   OH241074   0.733   1.705   0.259
13706TIP3    H141075   0.688   1.722   0.176
13706TIP3    H241076   0.823   1.685   0.234
13707TIP3   OH241077   2.620   4.058   3.712
13707TIP3    H141078   2.625   4.141   3.760
13707TIP3    H241079   2.545   4.013   3.750
13708TIP3   OH241080   5.424   5.750   0.137
13708TIP3    H141081   5.355   5.749   0.072
13708TIP3    H241082   5.390   5.803   0.209
13709TIP3   OH241083   1.728   6.026   3.192
13709TIP3    H141084   1.738   6.078   3.272
13709TIP3    H241085   1.635   6.033   3.170
13710TIP3   OH241086   6.983   1.683   2.500
13710TIP3    H141087   6.927   1.629   2.556
13710TIP3    H241088   7.044   1.622   2.460
13711TIP3   OH241089   1.670   6.716   6.204
13711TIP3    H141090   1.742   6.743   6.262
13711TIP3    H241091   1.673   6.778   6.132
13712TIP3   OH241092   3.797   2.587   6.775
13712TIP3    H141093   3.770   2.502   6.740
13712TIP3    H241094   3.875   2.567   6.828
13713TIP3   OH241095   2.406   4.618   0.939
13713TIP3    H141096   2.489   4.577   0.915
13713TIP3    H241097   2.430   4.707   0.964
13714TIP3   OH241098   0.147   3.053   6.767
13714TIP3    H141099   0.179   2.995   6.698
13714TIP3    H241100   0.081   3.002   6.814
13715TIP3   OH241101   4.283   1.226   3.727
13715TIP3    H141102   4.361   1.209   3.780
13715TIP3    H241103   4.240   1.140   3.721
13716TIP3   OH241104   4.293   7.630   5.913
13716TIP3    H141105   4.264   7.574   5.841
13716TIP3    H241106   4.311   7.570   5.985
13717TIP3   OH241107   4.011   0.683   3.402
13717TIP3    H141108   4.095   0.715   3.370
13717TIP3    H241109   4.027   0.662   3.494
13718TIP3   OH241110   0.594   6.058   2.239
13718TIP3    H141111   0.545   6.029   2.316
13718TIP3    H241112   0.597   5.980   2.183
13719TIP3   OH241113   7.318   2.662   1.476
13719TIP3    H141114   7.241   2.624   1.435
13719TIP3    H241115   7.386   2.658   1.409
13720TIP3   OH241116   0.277   6.349   2.720
13720TIP3    H141117   0.357   6.401   2.729
13720TIP3    H241118   0.230   6.390   2.648
13721TIP3   OH241119   7.898   1.882   6.565
13721TIP3    H141120   7.874   1.964   6.521
13721TIP3    H241121   7.956   1.909   6.636
13722TIP3   OH241122   5.185   3.833   6.646
13722TIP3    H141123   5.093   3.850   6.628
13722TIP3    H241124   5.202   3.879   6.728
13723TIP3   OH241125   2.171  -0.038   0.110
13723TIP3    H141126   2.157  -0.097   0.184
13723TIP3    H241127   2.158   0.050   0.145
13724TIP3   OH241128   6.831   2.272   3.128
13724TIP3    H141129   6.876   2.301   3.048
13724TIP3    H241130   6.899   2.269   3.195
13725TIP3   OH241131   0.039   0.936   4.585
13725TIP3    H141132   0.006   1.016   4.545
13725TIP3    H241133   0.073   0.964   4.670
13726TIP3   OH241134   7.378   1.341   5.553
13726TIP3    H141135   7.389   1.436   5.558
13726TIP3    H241136   7.449   1.306   5.607
13727TIP3   OH241137   1.881   2.165   4.358
13727TIP3    H141138   1.828   2.243   4.340
13727TIP3    H241139   1.819   2.102   4.394
13728TIP3   OH241140   4.592   6.453   2.988
13728TIP3    H141141   4.684   6.479   2.996
13728TIP3    H241142   4.556   6.512   2.921
13729TIP3   OH241143   4.630   1.001   4.691
13729TIP3    H141144   4.700   0.948   4.652
13729TIP3    H241145   4.551   0.950   4.676
13730TIP3   OH241146   1.698   7.643   3.270
13730TIP3    H141147   1.744   7.699   3.207
13730TIP3    H241148   1.759   7.633   3.342
13731TIP3   OH241149   0.362   0.861   3.049
13731TIP3    H141150   0.403   0.774   3.051
13731TIP3    H241151   0.434   0.920   3.026
13732TIP3   OH241152   5.299   6.321   5.403
13732TIP3    H141153   5.374   6.275   5.365
13732TIP3    H241154   5.237   6.331   5.330
13733TIP3   OH241155   5.170   7.096   0.136
13733TIP3    H141156   5.120   7.108   0.216
13733TIP3    H241157   5.206   7.007   0.143
13734TIP3   OH241158   4.299   2.473   0.223
13734TIP3    H141159   4.349   2.512   0.151
13734TIP3    H241160   4.285   2.382   0.194
13735TIP3   OH241161   6.430   3.146   3.852
13735TIP3    H141162   6.461   3.105   3.933
13735TIP3    H241163   6.344   3.180   3.874
13736TIP3   OH241164   4.242   0.747   6.760
13736TIP3    H141165   4.206   0.763   6.673
13736TIP3    H241166   4.239   0.651   6.770
13737TIP3   OH241167   0.248   4.510   4.405
13737TIP3    H141168   0.246   4.600   4.437
13737TIP3    H241169   0.194   4.511   4.326
13738TIP3   OH241170   0.137   6.442   5.213
13738TIP3    H141171   0.227   6.409   5.213
13738TIP3    H241172   0.141   6.523   5.263
13739TIP3   OH241173   3.983   3.884   2.106
13739TIP3    H141174   3.917   3.844   2.050
13739TIP3    H241175   3.968   3.846   2.192
13740TIP3   OH241176   0.780   4.194   4.114
13740TIP3    H141177   0.747   4.200   4.204
13740TIP3    H241178   0.762   4.280   4.077
13741TIP3   OH241179   0.828   1.435   0.519
13741TIP3    H141180   0.876   1.354   0.507
13741TIP3    H241181   0.893   1.504   0.510
13742TIP3   OH241182   0.230   5.164   2.100
13742TIP3    H141183   0.283   5.191   2.025
13742TIP3    H241184   0.228   5.068   2.094
13743TIP3   OH241185   7.805   5.874   5.981
13743TIP3    H141186   7.897   5.899   5.970
13743TIP3    H241187   7.756   5.949   5.948
13744TIP3   OH241188   2.856   5.395   6.034
13744TIP3    H141189   2.875   5.467   6.094
13744TIP3    H241190   2.902   5.320   6.072
13745TIP3   OH241191   7.460   6.298   3.609
13745TIP3    H141192   7.477   6.217   3.657
13745TIP3    H241193   7.485   6.278   3.518
13746TIP3   OH241194   0.898   0.361   3.874
13746TIP3    H141195   0.945   0.279   3.890
13746TIP3    H241196   0.892   0.402   3.961
13747TIP3   OH241197   6.211   5.381   2.448
13747TIP3    H141198   6.129   5.429   2.455
13747TIP3    H241199   6.223   5.343   2.535
13748TIP3   OH241200   7.222   6.045   0.080
13748TIP3    H141201   7.295   6.061   0.019
13748TIP3    H241202   7.237   5.956   0.112
13749TIP3   OH241203   0.654   3.496   2.168
13749TIP3    H141204   0.729   3.486   2.110
13749TIP3    H241205   0.669   3.580   2.212
13750TIP3   OH241206   7.185   4.546   6.150
13750TIP3    H141207   7.172   4.629   6.104
13750TIP3    H241208   7.097   4.522   6.180
13751TIP3   OH241209   4.127   1.135   0.930
13751TIP3    H141210   4.217   1.160   0.951
13751TIP3    H241211   4.101   1.079   1.003
13752TIP3   OH241212   5.330   5.469   0.237
13752TIP3    H141213   5.369   5.551   0.267
13752TIP3    H241214   5.367   5.403   0.296
13753TIP3   OH241215   6.190   3.664   0.028
13753TIP3    H141216   6.222   3.683   0.116
13753TIP3    H241217   6.124   3.596   0.041
13754TIP3   OH241218   1.476   2.125   5.655
13754TIP3    H141219   1.562   2.127   5.697
13754TIP3    H241220   1.476   2.201   5.596
13755TIP3   OH241221   0.769   2.005   0.454
13755TIP3    H141222   0.680   1.976   0.474
13755TIP3    H241223   0.825   1.933   0.485
13756TIP3   OH241224   6.194   1.531   5.545
13756TIP3    H141225   6.262   1.563   5.603
13756TIP3    H241226   6.127   1.495   5.604
13757TIP3   OH241227   4.862   4.696  -0.024
13757TIP3    H141228   4.829   4.614  -0.060
13757TIP3    H241229   4.817   4.705   0.060
13758TIP3   OH241230   3.275   3.044   2.465
13758TIP3    H141231   3.199   2.990   2.484
13758TIP3    H241232   3.315   3.003   2.388
13759TIP3   OH241233   3.676   4.558   5.604
13759TIP3    H141234   3.605   4.524   5.549
13759TIP3    H241235   3.631   4.606   5.674
13760TIP3   OH241236   3.239   5.842   1.131
13760TIP3    H141237   3.207   5.919   1.179
13760TIP3    H241238   3.195   5.768   1.171
13761TIP3   OH241239   1.747   3.834   2.428
13761TIP3    H141240   1.793   3.874   2.355
13761TIP3    H241241   1.672   3.790   2.388
13762TIP3   OH241242   3.417   3.663   3.851
13762TIP3    H141243   3.495   3.708   3.818
13762TIP3    H241244   3.381   3.722   3.917
13763TIP3   OH241245   1.932   0.282   0.008
13763TIP3    H141246   1.910   0.189   0.020
13763TIP3    H241247   2.008   0.295   0.066
13764TIP3   OH241248   7.247   7.222   6.466
13764TIP3    H141249   7.242   7.287   6.536
13764TIP3    H241250   7.160   7.180   6.466
13765TIP3   OH241251   2.267   5.001   1.384
13765TIP3    H141252   2.260   4.979   1.477
13765TIP3    H241253   2.257   5.096   1.381
13766TIP3   OH241254   0.896   3.752   1.609
13766TIP3    H141255   0.856   3.723   1.691
13766TIP3    H241256   0.890   3.677   1.551
13767TIP3   OH241257   4.056   3.725   1.132
13767TIP3    H141258   4.084   3.785   1.063
13767TIP3    H241259   4.096   3.641   1.109
13768TIP3   OH241260   0.088   5.028   0.555
13768TIP3    H141261   0.079   5.116   0.593
13768TIP3    H241262   0.163   5.036   0.496
13769TIP3   OH241263   0.657   1.119   6.065
13769TIP3    H141264   0.681   1.210   6.084
13769TIP3    H241265   0.603   1.124   5.987
13770TIP3   OH241266   6.510   5.148   3.737
13770TIP3    H141267   6.547   5.229   3.773
13770TIP3    H241268   6.476   5.102   3.814
13771TIP3   OH241269   5.871   0.399   5.242
13771TIP3    H141270   5.812   0.465   5.206
13771TIP3    H241271   5.954   0.445   5.255
13772TIP3   OH241272   1.837   1.800   0.830
13772TIP3    H141273   1.916   1.855   0.836
13772TIP3    H241274   1.871   1.710   0.831
13773TIP3   OH241275   5.087   4.199   1.511
13773TIP3    H141276   5.053   4.116   1.478
13773TIP3    H241277   5.152   4.174   1.576
13774TIP3   OH241278   2.161   2.346   1.360
13774TIP3    H141279   2.216   2.307   1.427
13774TIP3    H241280   2.222   2.389   1.301
13775TIP3   OH241281   5.346   0.535   4.614
13775TIP3    H141282   5.354   0.453   4.664
13775TIP3    H241283   5.435   0.566   4.603
13776TIP3   OH241284   3.264   2.987   5.955
13776TIP3    H141285   3.171   2.965   5.949
13776TIP3    H241286   3.283   2.990   6.049
13777TIP3   OH241287   7.796   4.641   3.482
13777TIP3    H141288   7.819   4.582   3.411
13777TIP3    H241289   7.731   4.593   3.533
13778TIP3   OH241290   4.420   3.495   6.183
13778TIP3    H141291   4.377   3.539   6.110
13778TIP3    H241292   4.512   3.522   6.176
13779TIP3   OH241293   2.800   5.950   4.023
13779TIP3    H141294   2.811   6.008   4.098
13779TIP3    H241295   2.881   5.962   3.972
13780TIP3   OH241296   1.687   2.537   4.730
13780TIP3    H141297   1.621   2.482   4.689
13780TIP3    H241298   1.640   2.581   4.802
13781TIP3   OH241299   7.166   3.668   1.949
13781TIP3    H141300   7.133   3.714   1.871
13781TIP3    H241301   7.087   3.642   1.996
13782TIP3   OH241302   2.362   7.057   3.630
13782TIP3    H141303   2.395   7.014   3.709
13782TIP3    H241304   2.440   7.097   3.590
13783TIP3   OH241305   4.657   3.434   0.278
13783TIP3    H141306   4.638   3.524   0.305
13783TIP3    H241307   4.724   3.405   0.341
13784TIP3   OH241308   1.899   4.522   2.640
13784TIP3    H141309   1.841   4.477   2.701
13784TIP3    H241310   1.861   4.505   2.554
13785TIP3   OH241311   3.253   2.336   3.437
13785TIP3    H141312   3.342   2.360   3.462
13785TIP3    H241313   3.259   2.316   3.344
13786TIP3   OH241314   4.051   3.584   3.071
13786TIP3    H141315   4.050   3.516   3.004
13786TIP3    H241316   3.964   3.623   3.066
13787TIP3   OH241317   3.452   3.434   0.911
13787TIP3    H141318   3.419   3.523   0.904
13787TIP3    H241319   3.493   3.417   0.826
13788TIP3   OH241320   0.287   0.040   3.260
13788TIP3    H141321   0.207   0.056   3.209
13788TIP3    H241322   0.264  -0.031   3.320
13789TIP3   OH241323   5.377   2.829   6.565
13789TIP3    H141324   5.294   2.823   6.613
13789TIP3    H241325   5.360   2.784   6.482
13790TIP3   OH241326   0.305   6.973   0.214
13790TIP3    H141327   0.221   6.932   0.196
13790TIP3    H241328   0.303   6.993   0.308
13791TIP3   OH241329   0.761   6.543   4.464
13791TIP3    H141330   0.674   6.563   4.429
13791TIP3    H241331   0.785   6.461   4.420
13792TIP3   OH241332   6.574   4.615   4.083
13792TIP3    H141333   6.623   4.601   4.164
13792TIP3    H241334   6.597   4.540   4.028
13793TIP3   OH241335   7.354   2.413   4.361
13793TIP3    H141336   7.325   2.459   4.282
13793TIP3    H241337   7.411   2.344   4.328
13794TIP3   OH241338   1.728   3.934   4.491
13794TIP3    H141339   1.706   3.883   4.569
13794TIP3    H241340   1.643   3.967   4.460
13795TIP3   OH241341   1.238   1.318   2.431
13795TIP3    H141342   1.184   1.336   2.508
13795TIP3    H241343   1.215   1.388   2.369
13796TIP3   OH241344   3.148   7.624   6.518
13796TIP3    H141345   3.192   7.540   6.531
13796TIP3    H241346   3.107   7.642   6.603
13797TIP3   OH241347   5.021   6.700   0.337
13797TIP3    H141348   4.947   6.657   0.378
13797TIP3    H241349   5.074   6.732   0.411
13798TIP3   OH241350   0.658   6.944   5.443
13798TIP3    H141351   0.721   6.961   5.513
13798TIP3    H241352   0.711   6.913   5.370
13799TIP3   OH241353   4.595   6.750   4.127
13799TIP3    H141354   4.687   6.739   4.152
13799TIP3    H241355   4.598   6.801   4.047
13800TIP3   OH241356   4.734   3.323   5.199
13800TIP3    H141357   4.671   3.260   5.164
13800TIP3    H241358   4.756   3.289   5.286
13801TIP3   OH241359   8.239   1.318   5.995
13801TIP3    H141360   8.252   1.361   5.910
13801TIP3    H241361   8.328   1.301   6.027
13802TIP3   OH241362   7.815   1.237   4.687
13802TIP3    H141363   7.857   1.191   4.614
13802TIP3    H241364   7.742   1.284   4.646
13803TIP3   OH241365   4.579   5.545   3.011
13803TIP3    H141366   4.633   5.487   2.957
13803TIP3    H241367   4.638   5.577   3.079
13804TIP3   OH241368   2.794   2.668   0.974
13804TIP3    H141369   2.881   2.629   0.966
13804TIP3    H241370   2.791   2.735   0.905
13805TIP3   OH241371   1.211   5.341   4.869
13805TIP3    H141372   1.276   5.348   4.799
13805TIP3    H241373   1.262   5.353   4.950
13806TIP3   OH241374   1.958   7.683   0.460
13806TIP3    H141375   1.891   7.729   0.510
13806TIP3    H241376   1.917   7.599   0.438
13807TIP3   OH241377   7.432   3.906   3.404
13807TIP3    H141378   7.402   3.820   3.374
13807TIP3    H241379   7.525   3.893   3.425
13808TIP3   OH241380   7.116   6.880   4.053
13808TIP3    H141381   7.135   6.831   3.973
13808TIP3    H241382   7.082   6.815   4.114
13809TIP3   OH241383   6.400   3.913   3.245
13809TIP3    H141384   6.452   3.988   3.271
13809TIP3    H241385   6.457   3.864   3.185
13810TIP3   OH241386   4.067   7.688   4.111
13810TIP3    H141387   4.118   7.608   4.121
13810TIP3    H241388   3.978   7.663   4.135
13811TIP3   OH241389   0.110   6.333   3.526
13811TIP3    H141390   0.071   6.420   3.529
13811TIP3    H241391   0.176   6.338   3.457
13812TIP3   OH241392   5.117   3.718   5.963
13812TIP3    H141393   5.176   3.753   6.029
13812TIP3    H241394   5.029   3.729   6.001
13813TIP3   OH241395   7.617   3.193   4.345
13813TIP3    H141396   7.549   3.185   4.277
13813TIP3    H241397   7.689   3.239   4.302
13814TIP3   OH241398   0.401   3.547   4.735
13814TIP3    H141399   0.450   3.627   4.714
13814TIP3    H241400   0.363   3.520   4.651
13815TIP3   OH241401   2.064   6.851   5.758
13815TIP3    H141402   2.107   6.881   5.838
13815TIP3    H241403   2.113   6.891   5.687
13816TIP3   OH241404   1.649   3.214   2.119
13816TIP3    H141405   1.728   3.169   2.090
13816TIP3    H241406   1.675   3.262   2.198
13817TIP3   OH241407   3.850   1.688   2.898
13817TIP3    H141408   3.862   1.672   2.992
13817TIP3    H241409   3.760   1.718   2.891
13818TIP3   OH241410   6.193   6.547   2.436
13818TIP3    H141411   6.126   6.564   2.369
13818TIP3    H241412   6.148   6.493   2.501
13819TIP3   OH241413   4.975   0.954   0.603
13819TIP3    H141414   4.892   1.002   0.606
13819TIP3    H241415   5.001   0.957   0.511
13820TIP3   OH241416   6.111   7.634   5.058
13820TIP3    H141417   6.036   7.623   5.000
13820TIP3    H241418   6.176   7.572   5.024
13821TIP3   OH241419   0.635   7.359   5.231
13821TIP3    H141420   0.719   7.369   5.188
13821TIP3    H241421   0.641   7.414   5.309
13822TIP3   OH241422   7.188   1.082   2.982
13822TIP3    H141423   7.166   0.991   3.002
13822TIP3    H241424   7.149   1.098   2.896
13823TIP3   OH241425   3.216   6.843   4.405
13823TIP3    H141426   3.285   6.818   4.467
13823TIP3    H241427   3.172   6.761   4.383
13824TIP3   OH241428   4.912   0.041   3.130
13824TIP3    H141429   4.825   0.008   3.106
13824TIP3    H241430   4.926   0.116   3.071
13825TIP3   OH241431   1.735   0.647   2.581
13825TIP3    H141432   1.735   0.648   2.486
13825TIP3    H241433   1.662   0.590   2.605
13826TIP3   OH241434   2.678   5.711   0.859
13826TIP3    H141435   2.700   5.670   0.775
13826TIP3    H241436   2.594   5.754   0.844
13827TIP3   OH241437   1.290   6.566   0.066
13827TIP3    H141438   1.266   6.476   0.091
13827TIP3    H241439   1.226   6.621   0.110
13828TIP3   OH241440   4.655   0.316   5.605
13828TIP3    H141441   4.699   0.341   5.524
13828TIP3    H241442   4.618   0.398   5.639
13829TIP3   OH241443   1.554   6.596   1.979
13829TIP3    H141444   1.478   6.558   2.024
13829TIP3    H241445   1.630   6.564   2.028
13830TIP3   OH241446   2.463   6.444   5.951
13830TIP3    H141447   2.420   6.522   5.987
13830TIP3    H241448   2.545   6.437   5.999
13831TIP3   OH241449   8.035   3.659   5.550
13831TIP3    H141450   8.107   3.654   5.613
13831TIP3    H241451   7.957   3.639   5.601
13832TIP3   OH241452   2.963   5.764   5.130
13832TIP3    H141453   2.882   5.766   5.080
13832TIP3    H241454   3.001   5.679   5.111
13833TIP3   OH241455   0.663   6.995   4.879
13833TIP3    H141456   0.663   7.082   4.839
13833TIP3    H241457   0.747   6.989   4.924
13834TIP3   OH241458   4.667   2.862   5.722
13834TIP3    H141459   4.658   2.791   5.785
13834TIP3    H241460   4.746   2.840   5.672
13835TIP3   OH241461   0.627   7.081   2.318
13835TIP3    H141462   0.609   7.079   2.224
13835TIP3    H241463   0.652   7.172   2.336
13836TIP3   OH241464   4.498   7.020   1.289
13836TIP3    H141465   4.551   7.028   1.368
13836TIP3    H241466   4.431   6.956   1.312
13837TIP3   OH241467   0.643   4.050   0.436
13837TIP3    H141468   0.652   4.145   0.444
13837TIP3    H241469   0.553   4.036   0.408
13838TIP3   OH241470   3.556   7.368   5.848
13838TIP3    H141471   3.557   7.461   5.867
13838TIP3    H241472   3.549   7.363   5.752
13839TIP3   OH241473   3.887   7.230   2.507
13839TIP3    H141474   3.920   7.319   2.491
13839TIP3    H241475   3.819   7.241   2.573
13840TIP3   OH241476   0.053   2.653   4.310
13840TIP3    H141477  -0.012   2.680   4.244
13840TIP3    H241478   0.014   2.678   4.394
13841TIP3   OH241479   7.541   0.919   1.204
13841TIP3    H141480   7.616   0.947   1.150
13841TIP3    H241481   7.558   0.958   1.290
13842TIP3   OH241482   3.974   3.998   3.478
13842TIP3    H141483   3.956   3.906   3.460
13842TIP3    H241484   3.952   4.043   3.397
13843TIP3   OH241485   2.604   6.390   4.401
13843TIP3    H141486   2.547   6.330   4.353
13843TIP3    H241487   2.551   6.420   4.475
13844TIP3   OH241488   0.324   5.968   3.324
13844TIP3    H141489   0.395   6.032   3.317
13844TIP3    H241490   0.256   6.001   3.266
13845TIP3   OH241491   2.795   3.925   1.507
13845TIP3    H141492   2.807   3.861   1.577
13845TIP3    H241493   2.700   3.932   1.497
13846TIP3   OH241494   0.962   4.679   1.618
13846TIP3    H141495   0.972   4.772   1.597
13846TIP3    H241496   0.887   4.676   1.677
13847TIP3   OH241497   0.291   6.037   2.165
13847TIP3    H141498   0.303   6.102   2.234
13847TIP3    H241499   0.326   6.079   2.086
13848TIP3   OH241500   7.754   7.761   6.332
13848TIP3    H141501   7.739   7.821   6.258
13848TIP3    H241502   7.813   7.809   6.390
13849TIP3   OH241503   1.000   6.615   5.804
13849TIP3    H141504   1.009   6.657   5.719
13849TIP3    H241505   1.014   6.686   5.867
13850TIP3   OH241506   7.294   1.808   0.667
13850TIP3    H141507   7.250   1.798   0.582
13850TIP3    H241508   7.239   1.870   0.715
13851TIP3   OH241509   5.428   6.232   0.066
13851TIP3    H141510   5.414   6.178   0.144
13851TIP3    H241511   5.391   6.317   0.089
13852TIP3   OH241512   6.365   1.940   3.457
13852TIP3    H141513   6.408   2.010   3.408
13852TIP3    H241514   6.366   1.865   3.398
13853TIP3   OH241515   0.321   7.043   4.255
13853TIP3    H141516   0.380   7.100   4.206
13853TIP3    H241517   0.236   7.054   4.213
13854TIP3   OH241518   6.340   5.144   1.751
13854TIP3    H141519   6.386   5.111   1.828
13854TIP3    H241520   6.357   5.239   1.752
13855TIP3   OH241521   4.725   1.739   3.169
13855TIP3    H141522   4.693   1.704   3.252
13855TIP3    H241523   4.797   1.796   3.192
13856TIP3   OH241524   7.386   4.575   0.170
13856TIP3    H141525   7.348   4.605   0.087
13856TIP3    H241526   7.460   4.519   0.143
13857TIP3   OH241527   3.669   3.661   4.829
13857TIP3    H141528   3.693   3.571   4.851
13857TIP3    H241529   3.667   3.707   4.913
13858TIP3   OH241530   0.085   3.108   1.650
13858TIP3    H141531   0.060   3.081   1.562
13858TIP3    H241532   0.004   3.140   1.690
13859TIP3   OH241533   5.891   1.794   4.276
13859TIP3    H141534   5.906   1.833   4.190
13859TIP3    H241535   5.916   1.702   4.266
13860TIP3   OH241536   3.763   2.005   1.094
13860TIP3    H141537   3.704   1.960   1.033
13860TIP3    H241538   3.849   1.969   1.074
13861TIP3   OH241539   7.082   0.148   1.973
13861TIP3    H141540   7.176   0.128   1.965
13861TIP3    H241541   7.044   0.117   1.891
13862TIP3   OH241542   2.467   3.106   3.692
13862TIP3    H141543   2.450   3.012   3.689
13862TIP3    H241544   2.459   3.128   3.785
13863TIP3   OH241545   0.523   3.458   3.126
13863TIP3    H141546   0.471   3.392   3.080
13863TIP3    H241547   0.589   3.408   3.174
13864TIP3   OH241548   8.245   5.285   3.153
13864TIP3    H141549   8.165   5.313   3.198
13864TIP3    H241550   8.268   5.359   3.097
13865TIP3   OH241551   3.388   4.690   3.674
13865TIP3    H141552   3.362   4.709   3.764
13865TIP3    H241553   3.376   4.773   3.628
13866TIP3   OH241554   1.332   5.389   3.492
13866TIP3    H141555   1.269   5.412   3.424
13866TIP3    H241556   1.417   5.414   3.456
13867TIP3   OH241557   4.827   4.526   6.444
13867TIP3    H141558   4.894   4.460   6.431
13867TIP3    H241559   4.776   4.493   6.518
13868TIP3   OH241560   1.964   6.520   3.106
13868TIP3    H141561   1.937   6.431   3.128
13868TIP3    H241562   1.931   6.574   3.178
13869TIP3   OH241563   1.100   1.002   3.573
13869TIP3    H141564   1.096   1.014   3.667
13869TIP3    H241565   1.036   1.063   3.537
13870TIP3   OH241566   6.134   0.646   5.906
13870TIP3    H141567   6.076   0.573   5.927
13870TIP3    H241568   6.220   0.606   5.895
13871TIP3   OH241569   3.485   1.333   1.952
13871TIP3    H141570   3.502   1.280   1.873
13871TIP3    H241571   3.470   1.421   1.918
13872TIP3   OH241572   6.028   3.398   0.090
13872TIP3    H141573   5.970   3.369   0.019
13872TIP3    H241574   5.977   3.464   0.137
13873TIP3   OH241575   1.711   4.919   1.294
13873TIP3    H141576   1.635   4.893   1.346
13873TIP3    H241577   1.704   4.868   1.213
13874TIP3   OH241578   3.551   1.896   0.379
13874TIP3    H141579   3.461   1.903   0.409
13874TIP3    H241580   3.601   1.948   0.443
13875TIP3   OH241581   5.546   1.888   5.093
13875TIP3    H141582   5.497   1.894   5.011
13875TIP3    H241583   5.480   1.904   5.161
13876TIP3   OH241584   3.618   5.630   2.952
13876TIP3    H141585   3.699   5.675   2.975
13876TIP3    H241586   3.623   5.546   2.996
13877TIP3   OH241587   3.314   6.567   5.009
13877TIP3    H141588   3.282   6.652   5.037
13877TIP3    H241589   3.237   6.510   5.015
13878TIP3   OH241590   0.023   3.756   0.753
13878TIP3    H141591  -0.038   3.796   0.690
13878TIP3    H241592   0.103   3.741   0.703
13879TIP3   OH241593   0.129   0.113   2.604
13879TIP3    H141594   0.067   0.040   2.597
13879TIP3    H241595   0.209   0.074   2.639
13880TIP3   OH241596   2.430   0.548   5.671
13880TIP3    H141597   2.475   0.613   5.725
13880TIP3    H241598   2.360   0.596   5.628
13881TIP3   OH241599   7.404   4.860   0.404
13881TIP3    H141600   7.495   4.889   0.412
13881TIP3    H241601   7.407   4.766   0.420
13882TIP3   OH241602   6.891   6.545   5.405
13882TIP3    H141603   6.839   6.513   5.331
13882TIP3    H241604   6.936   6.623   5.371
13883TIP3   OH241605   7.618   5.650   0.210
13883TIP3    H141606   7.653   5.733   0.242
13883TIP3    H241607   7.523   5.662   0.210
13884TIP3   OH241608   1.335   6.026   5.490
13884TIP3    H141609   1.319   6.120   5.483
13884TIP3    H241610   1.248   5.987   5.494
13885TIP3   OH241611   3.384   3.993   0.127
13885TIP3    H141612   3.444   4.062   0.099
13885TIP3    H241613   3.301   4.014   0.084
13886TIP3   OH241614   2.043   3.484   1.151
13886TIP3    H141615   2.000   3.562   1.186
13886TIP3    H241616   2.052   3.425   1.226
13887TIP3   OH241617   6.014   2.546   2.978
13887TIP3    H141618   6.068   2.531   3.056
13887TIP3    H241619   6.074   2.585   2.914
13888TIP3   OH241620   5.252   5.917   5.386
13888TIP3    H141621   5.298   5.954   5.461
13888TIP3    H241622   5.299   5.951   5.310
13889TIP3   OH241623   0.314   3.633   3.316
13889TIP3    H141624   0.342   3.559   3.370
13889TIP3    H241625   0.271   3.593   3.240
13890TIP3   OH241626   5.568   3.904   5.190
13890TIP3    H141627   5.510   3.878   5.118
13890TIP3    H241628   5.536   3.989   5.217
13891TIP3   OH241629   1.786   1.833   2.693
13891TIP3    H141630   1.839   1.892   2.747
13891TIP3    H241631   1.744   1.890   2.629
13892TIP3   OH241632   0.276   3.893   4.807
13892TIP3    H141633   0.273   3.885   4.712
13892TIP3    H241634   0.289   3.986   4.823
13893TIP3   OH241635   0.374   5.753   3.134
13893TIP3    H141636   0.367   5.829   3.192
13893TIP3    H241637   0.302   5.695   3.161
13894TIP3   OH241638   6.643   0.995   1.641
13894TIP3    H141639   6.634   1.025   1.732
13894TIP3    H241640   6.666   1.074   1.592
13895TIP3   OH241641   7.911   5.292   6.189
13895TIP3    H141642   7.896   5.311   6.096
13895TIP3    H241643   7.823   5.289   6.226
13896TIP3   OH241644   5.625   0.758   0.281
13896TIP3    H141645   5.630   0.670   0.320
13896TIP3    H241646   5.542   0.759   0.234
13897TIP3   OH241647   1.701   5.742   0.263
13897TIP3    H141648   1.771   5.686   0.230
13897TIP3    H241649   1.709   5.823   0.213
13898TIP3   OH241650   5.712   7.657   3.107
13898TIP3    H141651   5.676   7.664   3.196
13898TIP3    H241652   5.665   7.583   3.068
13899TIP3   OH241653   7.869   6.288   4.229
13899TIP3    H141654   7.787   6.334   4.246
13899TIP3    H241655   7.854   6.238   4.149
13900TIP3   OH241656   0.064   1.594   3.104
13900TIP3    H141657   0.026   1.558   3.024
13900TIP3    H241658   0.149   1.630   3.076
13901TIP3   OH241659   1.700  -0.018   2.062
13901TIP3    H141660   1.759   0.039   2.012
13901TIP3    H241661   1.639  -0.052   1.997
13902TIP3   OH241662   2.181   7.273   5.405
13902TIP3    H141663   2.113   7.332   5.374
13902TIP3    H241664   2.223   7.240   5.326
13903TIP3   OH241665   2.583   4.629   2.137
13903TIP3    H141666   2.672   4.602   2.112
13903TIP3    H241667   2.545   4.551   2.176
13904TIP3   OH241668   3.192   3.662   3.675
13904TIP3    H141669   3.198   3.586   3.618
13904TIP3    H241670   3.278   3.668   3.717
13905TIP3   OH241671   0.596   6.272   3.000
13905TIP3    H141672   0.562   6.344   3.053
13905TIP3    H241673   0.651   6.315   2.934
13906TIP3   OH241674   0.108   1.707   0.716
13906TIP3    H141675   0.182   1.655   0.687
13906TIP3    H241676   0.129   1.797   0.689
13907TIP3   OH241677   4.246   1.332   6.586
13907TIP3    H141678   4.327   1.333   6.536
13907TIP3    H241679   4.239   1.242   6.618
13908TIP3   OH241680   3.081   3.381   5.399
13908TIP3    H141681   3.152   3.316   5.400
13908TIP3    H241682   3.095   3.432   5.479
13909TIP3   OH241683   5.901   3.330   1.270
13909TIP3    H141684   5.914   3.422   1.246
13909TIP3    H241685   5.988   3.301   1.298
13910TIP3   OH241686   0.805   4.195   0.965
13910TIP3    H141687   0.787   4.103   0.983
13910TIP3    H241688   0.780   4.241   1.045
13911TIP3   OH241689   3.054   4.315   0.473
13911TIP3    H141690   3.055   4.261   0.394
13911TIP3    H241691   3.146   4.317   0.501
13912TIP3   OH241692   4.653   0.048   5.033
13912TIP3    H141693   4.563   0.036   5.002
13912TIP3    H241694   4.707   0.007   4.966
13913TIP3   OH241695   0.391   3.052   2.095
13913TIP3    H141696   0.440   3.133   2.106
13913TIP3    H241697   0.451   2.994   2.047
13914TIP3   OH241698   0.409   3.062   1.273
13914TIP3    H141699   0.383   3.149   1.304
13914TIP3    H241700   0.436   3.076   1.182
13915TIP3   OH241701   2.323   4.880   0.260
13915TIP3    H141702   2.380   4.955   0.243
13915TIP3    H241703   2.244   4.898   0.210
13916TIP3   OH241704   4.601   0.342   2.017
13916TIP3    H141705   4.594   0.252   2.048
13916TIP3    H241706   4.695   0.362   2.024
13917TIP3   OH241707   1.996   5.471   0.976
13917TIP3    H141708   1.948   5.432   1.049
13917TIP3    H241709   2.050   5.400   0.942
13918TIP3   OH241710   6.055   4.264   0.817
13918TIP3    H141711   5.990   4.255   0.886
13918TIP3    H241712   6.095   4.350   0.833
13919TIP3   OH241713   4.099   0.607   5.587
13919TIP3    H141714   4.138   0.689   5.555
13919TIP3    H241715   4.163   0.572   5.648
13920TIP3   OH241716   7.691   3.747   1.337
13920TIP3    H141717   7.770   3.703   1.370
13920TIP3    H241718   7.620   3.709   1.388
13921TIP3   OH241719   7.832   0.465   6.066
13921TIP3    H141720   7.847   0.548   6.112
13921TIP3    H241721   7.898   0.405   6.102
13922TIP3   OH241722   0.610   3.344   4.278
13922TIP3    H141723   0.518   3.335   4.250
13922TIP3    H241724   0.621   3.437   4.294
13923TIP3   OH241725   2.650   7.333   2.361
13923TIP3    H141726   2.690   7.411   2.400
13923TIP3    H241727   2.557   7.356   2.352
13924TIP3   OH241728   1.684   3.743   3.358
13924TIP3    H141729   1.702   3.753   3.264
13924TIP3    H241730   1.589   3.729   3.362
13925TIP3   OH241731   5.242   0.593   2.661
13925TIP3    H141732   5.327   0.562   2.629
13925TIP3    H241733   5.210   0.651   2.592
13926TIP3   OH241734   2.034   0.913   1.769
13926TIP3    H141735   2.115   0.874   1.801
13926TIP3    H241736   1.998   0.847   1.709
13927TIP3   OH241737   0.287   6.165   4.030
13927TIP3    H141738   0.363   6.141   4.083
13927TIP3    H241739   0.277   6.091   3.969
13928TIP3   OH241740   5.684   2.494   0.114
13928TIP3    H141741   5.668   2.575   0.163
13928TIP3    H241742   5.776   2.473   0.131
13929TIP3   OH241743   2.307   7.382   5.660
13929TIP3    H141744   2.301   7.471   5.625
13929TIP3    H241745   2.281   7.325   5.587
13930TIP3   OH241746   7.331   6.212   2.462
13930TIP3    H141747   7.239   6.236   2.456
13930TIP3    H241748   7.343   6.144   2.396
13931TIP3   OH241749   1.418   7.711   4.625
13931TIP3    H141750   1.495   7.673   4.667
13931TIP3    H241751   1.348   7.703   4.690
13932TIP3   OH241752   0.518   3.139   3.446
13932TIP3    H141753   0.462   3.108   3.375
13932TIP3    H241754   0.578   3.067   3.462
13933TIP3   OH241755   3.174   6.020   5.454
13933TIP3    H141756   3.222   6.088   5.502
13933TIP3    H241757   3.097   6.064   5.419
13934TIP3   OH241758   5.477   0.271   2.621
13934TIP3    H141759   5.462   0.251   2.528
13934TIP3    H241760   5.464   0.188   2.666
13935TIP3   OH241761   1.004   3.275   2.300
13935TIP3    H141762   0.943   3.279   2.373
13935TIP3    H241763   0.984   3.191   2.257
13936TIP3   OH241764   1.926   6.129   1.594
13936TIP3    H141765   1.844   6.121   1.643
13936TIP3    H241766   1.901   6.173   1.513
13937TIP3   OH241767   0.540   1.032   5.805
13937TIP3    H141768   0.591   0.951   5.805
13937TIP3    H241769   0.562   1.074   5.722
13938TIP3   OH241770   5.586   5.167   3.284
13938TIP3    H141771   5.584   5.204   3.195
13938TIP3    H241772   5.564   5.075   3.272
13939TIP3   OH241773   3.753   1.208   3.778
13939TIP3    H141774   3.805   1.287   3.763
13939TIP3    H241775   3.810   1.151   3.829
13940TIP3   OH241776   6.476   0.273   5.990
13940TIP3    H141777   6.412   0.206   5.969
13940TIP3    H241778   6.557   0.243   5.950
13941TIP3   OH241779   4.609   0.611   3.767
13941TIP3    H141780   4.518   0.616   3.738
13941TIP3    H241781   4.653   0.684   3.723
13942TIP3   OH241782   4.517   3.811   5.307
13942TIP3    H141783   4.468   3.795   5.387
13942TIP3    H241784   4.591   3.750   5.311
13943TIP3   OH241785   1.922   5.881   2.248
13943TIP3    H141786   1.871   5.882   2.167
13943TIP3    H241787   2.000   5.933   2.229
13944TIP3   OH241788   4.571   0.236   6.317
13944TIP3    H141789   4.614   0.283   6.245
13944TIP3    H241790   4.557   0.148   6.282
13945TIP3   OH241791   1.485   2.361   2.298
13945TIP3    H141792   1.480   2.432   2.235
13945TIP3    H241793   1.560   2.309   2.269
13946TIP3   OH241794   5.953   0.533   1.084
13946TIP3    H141795   5.868   0.506   1.119
13946TIP3    H241796   6.016   0.474   1.125
13947TIP3   OH241797   5.607   1.858   2.204
13947TIP3    H141798   5.525   1.906   2.188
13947TIP3    H241799   5.585   1.767   2.187
13948TIP3   OH241800   2.001   2.484   2.492
13948TIP3    H141801   2.063   2.471   2.564
13948TIP3    H241802   1.998   2.400   2.447
13949TIP3   OH241803   3.564   2.137   1.915
13949TIP3    H141804   3.549   2.050   1.879
13949TIP3    H241805   3.478   2.178   1.916
13950TIP3   OH241806   3.926   1.168   2.118
13950TIP3    H141807   3.831   1.159   2.130
13950TIP3    H241808   3.963   1.107   2.182
13951TIP3   OH241809   4.620   3.706   4.404
13951TIP3    H141810   4.615   3.780   4.465
13951TIP3    H241811   4.624   3.629   4.460
13952TIP3   OH241812   0.587   3.722   6.023
13952TIP3    H141813   0.671   3.722   5.976
13952TIP3    H241814   0.532   3.661   5.975
13953TIP3   OH241815   8.150   6.831   3.414
13953TIP3    H141816   8.146   6.811   3.320
13953TIP3    H241817   8.163   6.926   3.418
13954TIP3   OH241818   3.820   3.496   5.190
13954TIP3    H141819   3.903   3.510   5.143
13954TIP3    H241820   3.812   3.573   5.247
13955TIP3   OH241821   2.630   3.101   6.646
13955TIP3    H141822   2.660   3.131   6.731
13955TIP3    H241823   2.623   3.180   6.593
13956TIP3   OH241824   6.899   0.287   4.613
13956TIP3    H141825   6.919   0.193   4.620
13956TIP3    H241826   6.842   0.294   4.537
13957TIP3   OH241827   4.114   0.495   2.428
13957TIP3    H141828   4.129   0.586   2.454
13957TIP3    H241829   4.190   0.471   2.376
13958TIP3   OH241830   6.433   1.737   0.885
13958TIP3    H141831   6.408   1.806   0.823
13958TIP3    H241832   6.528   1.745   0.893
13959TIP3   OH241833   2.312   0.451   1.792
13959TIP3    H141834   2.360   0.376   1.758
13959TIP3    H241835   2.293   0.429   1.883
13960TIP3   OH241836   4.945   7.650   1.895
13960TIP3    H141837   4.854   7.659   1.866
13960TIP3    H241838   4.964   7.556   1.886
13961TIP3   OH241839   7.620   0.915   0.754
13961TIP3    H141840   7.548   0.973   0.777
13961TIP3    H241841   7.623   0.916   0.658
13962TIP3   OH241842   3.590   7.724   0.275
13962TIP3    H141843   3.503   7.713   0.314
13962TIP3    H241844   3.572   7.758   0.187
13963TIP3   OH241845   1.277   3.860   0.419
13963TIP3    H141846   1.282   3.806   0.498
13963TIP3    H241847   1.229   3.938   0.447
13964TIP3   OH241848   5.918   7.323   3.968
13964TIP3    H141849   5.826   7.335   3.992
13964TIP3    H241850   5.942   7.238   4.007
13965TIP3   OH241851   4.862   6.799   6.493
13965TIP3    H141852   4.820   6.728   6.444
13965TIP3    H241853   4.870   6.765   6.582
13966TIP3   OH241854   7.476   5.411   4.312
13966TIP3    H141855   7.424   5.400   4.233
13966TIP3    H241856   7.542   5.477   4.289
13967TIP3   OH241857   2.697   7.096   3.736
13967TIP3    H141858   2.776   7.121   3.784
13967TIP3    H241859   2.644   7.049   3.800
13968TIP3   OH241860   4.889   5.815   5.792
13968TIP3    H141861   4.884   5.744   5.728
13968TIP3    H241862   4.982   5.820   5.815
13969TIP3   OH241863   1.076   4.946   6.206
13969TIP3    H141864   1.053   5.023   6.258
13969TIP3    H241865   1.119   4.982   6.128
13970TIP3   OH241866   5.775   3.084   2.143
13970TIP3    H141867   5.693   3.112   2.101
13970TIP3    H241868   5.804   3.009   2.091
13971TIP3   OH241869   3.013   5.883   5.984
13971TIP3    H141870   3.012   5.795   5.946
13971TIP3    H241871   2.930   5.922   5.957
13972TIP3   OH241872   5.529   6.984   5.771
13972TIP3    H141873   5.617   6.947   5.780
13972TIP3    H241874   5.483   6.923   5.712
13973TIP3   OH241875   2.175   0.771   2.281
13973TIP3    H141876   2.131   0.852   2.305
13973TIP3    H241877   2.172   0.718   2.360
13974TIP3   OH241878   4.496   2.850   1.107
13974TIP3    H141879   4.477   2.835   1.200
13974TIP3    H241880   4.584   2.815   1.094
13975TIP3   OH241881   1.442   6.461   4.145
13975TIP3    H141882   1.530   6.500   4.142
13975TIP3    H241883   1.394   6.506   4.076
13976TIP3   OH241884   7.225   3.157   0.115
13976TIP3    H141885   7.235   3.086   0.052
13976TIP3    H241886   7.159   3.215   0.076
13977TIP3   OH241887   3.928   7.778   3.453
13977TIP3    H141888   3.975   7.715   3.398
13977TIP3    H241889   3.848   7.733   3.477
13978TIP3   OH241890   8.080   5.583   6.588
13978TIP3    H141891   7.987   5.560   6.579
13978TIP3    H241892   8.087   5.621   6.675
13979TIP3   OH241893   4.954   3.534   0.253
13979TIP3    H141894   4.938   3.558   0.345
13979TIP3    H241895   5.011   3.457   0.259
13980TIP3   OH241896   2.988   6.204   2.102
13980TIP3    H141897   3.008   6.179   2.192
13980TIP3    H241898   3.039   6.284   2.087
13981TIP3   OH241899   5.969   3.713   3.189
13981TIP3    H141900   5.962   3.732   3.283
13981TIP3    H241901   6.060   3.688   3.177
13982TIP3   OH241902   2.488   5.817   1.386
13982TIP3    H141903   2.523   5.792   1.301
13982TIP3    H241904   2.477   5.912   1.380
13983TIP3   OH241905   1.046   5.311   5.278
13983TIP3    H141906   1.004   5.379   5.225
13983TIP3    H241907   0.974   5.258   5.311
13984TIP3   OH241908   7.075   4.531   0.546
13984TIP3    H141909   7.091   4.587   0.621
13984TIP3    H241910   7.027   4.586   0.484
13985TIP3   OH241911   1.142   1.298   1.981
13985TIP3    H141912   1.067   1.240   1.964
13985TIP3    H241913   1.122   1.378   1.933
13986TIP3   OH241914   7.816   3.069   5.202
13986TIP3    H141915   7.868   3.115   5.136
13986TIP3    H241916   7.726   3.098   5.188
13987TIP3   OH241917   2.017   5.481   6.284
13987TIP3    H141918   2.095   5.500   6.337
13987TIP3    H241919   2.041   5.507   6.195
13988TIP3   OH241920   0.593   1.135   0.646
13988TIP3    H141921   0.588   1.062   0.708
13988TIP3    H241922   0.506   1.140   0.608
13989TIP3   OH241923   0.203   6.736   5.816
13989TIP3    H141924   0.137   6.671   5.793
13989TIP3    H241925   0.168   6.819   5.783
13990TIP3   OH241926   2.808   5.737   4.661
13990TIP3    H141927   2.883   5.705   4.611
13990TIP3    H241928   2.780   5.815   4.613
13991TIP3   OH241929   2.758   6.432   0.474
13991TIP3    H141930   2.775   6.526   0.475
13991TIP3    H241931   2.664   6.426   0.491
13992TIP3   OH241932   6.412   7.408   4.580
13992TIP3    H141933   6.450   7.496   4.589
13992TIP3    H241934   6.443   7.377   4.495
13993TIP3   OH241935   7.526   6.692   1.354
13993TIP3    H141936   7.586   6.666   1.424
13993TIP3    H241937   7.515   6.786   1.365
13994TIP3   OH241938   0.121   3.564   5.231
13994TIP3    H141939   0.053   3.508   5.270
13994TIP3    H241940   0.169   3.506   5.172
13995TIP3   OH241941   3.905   7.284   0.009
13995TIP3    H141942   3.870   7.225   0.076
13995TIP3    H241943   3.909   7.232  -0.071
13996TIP3   OH241944   6.131   5.695   1.530
13996TIP3    H141945   6.043   5.663   1.551
13996TIP3    H241946   6.187   5.618   1.534
13997TIP3   OH241947   5.787   1.552   4.554
13997TIP3    H141948   5.860   1.494   4.575
13997TIP3    H241949   5.812   1.636   4.590
13998TIP3   OH241950   3.780   5.893   3.036
13998TIP3    H141951   3.876   5.887   3.040
13998TIP3    H241952   3.764   5.981   3.000
13999TIP3   OH241953   3.833   6.334   2.400
13999TIP3    H141954   3.807   6.422   2.430
13999TIP3    H241955   3.752   6.297   2.365
14000TIP3   OH241956   2.556   1.857   0.772
14000TIP3    H141957   2.635   1.814   0.740
14000TIP3    H241958   2.588   1.930   0.826
14001TIP3   OH241959   4.474   0.064   0.265
14001TIP3    H141960   4.424   0.061   0.346
14001TIP3    H241961   4.416   0.105   0.201
14002TIP3   OH241962   0.585   3.944   4.161
14002TIP3    H141963   0.638   4.018   4.130
14002TIP3    H241964   0.496   3.980   4.167
14003TIP3   OH241965   1.303   0.371   2.839
14003TIP3    H141966   1.243   0.302   2.867
14003TIP3    H241967   1.280   0.447   2.894
14004TIP3   OH241968   7.468   6.929   5.317
14004TIP3    H141969   7.542   6.940   5.257
14004TIP3    H241970   7.489   6.985   5.391
14005TIP3   OH241971   4.605   4.643   4.315
14005TIP3    H141972   4.631   4.563   4.360
14005TIP3    H241973   4.509   4.640   4.313
14006TIP3   OH241974   6.244   0.256   5.237
14006TIP3    H141975   6.330   0.227   5.209
14006TIP3    H241976   6.260   0.341   5.280
14007TIP3   OH241977   0.847   7.776   0.436
14007TIP3    H141978   0.843   7.737   0.349
14007TIP3    H241979   0.891   7.861   0.422
14008TIP3   OH241980   3.743   5.630   0.053
14008TIP3    H141981   3.705   5.564   0.110
14008TIP3    H241982   3.668   5.679   0.020
14009TIP3   OH241983   7.792   4.200   0.982
14009TIP3    H141984   7.724   4.133   0.972
14009TIP3    H241985   7.823   4.216   0.893
14010TIP3   OH241986   7.883   1.133   4.439
14010TIP3    H141987   7.829   1.158   4.364
14010TIP3    H241988   7.962   1.095   4.400
14011TIP3   OH241989   1.135   5.132   2.052
14011TIP3    H141990   1.094   5.202   2.104
14011TIP3    H241991   1.101   5.144   1.964
14012TIP3   OH241992   5.384   4.741   5.726
14012TIP3    H141993   5.431   4.792   5.660
14012TIP3    H241994   5.452   4.715   5.789
14013TIP3   OH241995   8.001   3.885   1.645
14013TIP3    H141996   7.932   3.838   1.597
14013TIP3    H241997   8.033   3.821   1.708
14014TIP3   OH241998   4.443   0.119   3.316
14014TIP3    H141999   4.511   0.091   3.255
14014TIP3    H242000   4.407   0.199   3.278
14015TIP3   OH242001   6.665   3.811   4.314
14015TIP3    H142002   6.747   3.764   4.327
14015TIP3    H242003   6.625   3.770   4.237
14016TIP3   OH242004   4.582   6.150   6.179
14016TIP3    H142005   4.518   6.133   6.247
14016TIP3    H242006   4.550   6.229   6.135
14017TIP3   OH242007   4.986   0.232   5.386
14017TIP3    H142008   4.899   0.266   5.365
14017TIP3    H242009   4.969   0.153   5.437
14018TIP3   OH242010   1.704   7.461   4.300
14018TIP3    H142011   1.610   7.445   4.294
14018TIP3    H242012   1.718   7.541   4.249
14019TIP3   OH242013   1.050   2.604   0.874
14019TIP3    H142014   1.057   2.537   0.806
14019TIP3    H242015   1.035   2.685   0.827
14020TIP3   OH242016   4.075   6.670   5.177
14020TIP3    H142017   4.049   6.609   5.247
14020TIP3    H242018   4.138   6.620   5.125
14021TIP3   OH242019   6.325   4.546   3.042
14021TIP3    H142020   6.350   4.465   2.999
14021TIP3    H242021   6.372   4.546   3.125
14022TIP3   OH242022   1.359   0.859   3.299
14022TIP3    H142023   1.426   0.810   3.251
14022TIP3    H242024   1.319   0.795   3.357
14023TIP3   OH242025   6.217   0.683   6.718
14023TIP3    H142026   6.175   0.763   6.749
14023TIP3    H242027   6.294   0.673   6.774
14024TIP3   OH242028   6.582   3.735   0.529
14024TIP3    H142029   6.601   3.743   0.623
14024TIP3    H242030   6.498   3.690   0.525
14025TIP3   OH242031   2.002   0.553   6.660
14025TIP3    H142032   2.019   0.543   6.566
14025TIP3    H242033   1.934   0.488   6.679
14026TIP3   OH242034   6.135   5.958   1.433
14026TIP3    H142035   6.183   5.881   1.465
14026TIP3    H242036   6.049   5.951   1.474
14027TIP3   OH242037   7.577   3.665   6.716
14027TIP3    H142038   7.538   3.638   6.799
14027TIP3    H242039   7.539   3.606   6.651
14028TIP3   OH242040   2.985   0.746   3.330
14028TIP3    H142041   2.999   0.742   3.425
14028TIP3    H242042   3.000   0.657   3.299
14029TIP3   OH242043   1.840   2.076   3.084
14029TIP3    H142044   1.822   2.093   3.177
14029TIP3    H242045   1.783   2.002   3.062
14030TIP3   OH242046   4.226   4.879   6.689
14030TIP3    H142047   4.213   4.797   6.642
14030TIP3    H242048   4.321   4.892   6.689
14031TIP3   OH242049   5.457   1.271   3.350
14031TIP3    H142050   5.487   1.337   3.287
14031TIP3    H242051   5.363   1.288   3.360
14032TIP3   OH242052   3.415   3.881   1.199
14032TIP3    H142053   3.485   3.905   1.260
14032TIP3    H242054   3.355   3.827   1.251
14033TIP3   OH242055   5.430   7.602   5.499
14033TIP3    H142056   5.347   7.601   5.546
14033TIP3    H242057   5.422   7.533   5.434
14034TIP3   OH242058   5.067   2.730   1.998
14034TIP3    H142059   5.031   2.791   1.934
14034TIP3    H242060   5.038   2.764   2.082
14035TIP3   OH242061   4.464   0.294   3.902
14035TIP3    H142062   4.522   0.292   3.827
14035TIP3    H242063   4.458   0.202   3.930
14036TIP3   OH242064   8.119   7.486   1.488
14036TIP3    H142065   8.145   7.442   1.407
14036TIP3    H242066   8.039   7.534   1.465
14037TIP3   OH242067   5.834   3.536   4.938
14037TIP3    H142068   5.819   3.627   4.912
14037TIP3    H242069   5.757   3.489   4.907
14038TIP3   OH242070   3.314   3.369   1.520
14038TIP3    H142071   3.262   3.444   1.548
14038TIP3    H242072   3.371   3.404   1.451
14039TIP3   OH242073   2.280   0.309   5.161
14039TIP3    H142074   2.369   0.276   5.148
14039TIP3    H242075   2.286   0.402   5.142
14040TIP3   OH242076   1.696   3.643   5.747
14040TIP3    H142077   1.755   3.590   5.800
14040TIP3    H242078   1.753   3.708   5.706
14041TIP3   OH242079   8.251   3.878   6.438
14041TIP3    H142080   8.268   3.959   6.486
14041TIP3    H242081   8.184   3.833   6.490
14042TIP3   OH242082   5.673   3.438   5.265
14042TIP3    H142083   5.628   3.523   5.268
14042TIP3    H242084   5.620   3.386   5.205
14043TIP3   OH242085   1.689   2.019   2.535
14043TIP3    H142086   1.654   2.107   2.548
14043TIP3    H242087   1.734   2.024   2.450
14044TIP3   OH242088   7.200   0.937   5.767
14044TIP3    H142089   7.139   0.940   5.693
14044TIP3    H242090   7.220   1.029   5.785
14045TIP3   OH242091   5.842   4.410   2.856
14045TIP3    H142092   5.907   4.479   2.844
14045TIP3    H242093   5.890   4.339   2.897
14046TIP3   OH242094   2.645   1.771   6.029
14046TIP3    H142095   2.733   1.803   6.051
14046TIP3    H242096   2.603   1.845   5.985
14047TIP3   OH242097   7.303   6.882   4.894
14047TIP3    H142098   7.297   6.888   4.799
14047TIP3    H242099   7.291   6.971   4.925
14048TIP3   OH242100   4.987   7.187   2.527
14048TIP3    H142101   4.903   7.196   2.571
14048TIP3    H242102   5.034   7.268   2.550
14049TIP3   OH242103   6.007   2.604   3.712
14049TIP3    H142104   6.088   2.572   3.752
14049TIP3    H242105   6.020   2.699   3.704
14050TIP3   OH242106   0.848   4.977   2.638
14050TIP3    H142107   0.866   5.042   2.569
14050TIP3    H242108   0.898   5.008   2.713
14051TIP3   OH242109   7.822   2.710   3.218
14051TIP3    H142110   7.857   2.782   3.167
14051TIP3    H242111   7.802   2.749   3.303
14052TIP3   OH242112   7.788   4.731   2.685
14052TIP3    H142113   7.694   4.720   2.674
14052TIP3    H242114   7.812   4.798   2.620
14053TIP3   OH242115   7.737   6.025   1.302
14053TIP3    H142116   7.706   6.095   1.244
14053TIP3    H242117   7.818   6.059   1.340
14054TIP3   OH242118   2.351   6.872   6.699
14054TIP3    H142119   2.428   6.913   6.738
14054TIP3    H242120   2.277   6.919   6.736
14055TIP3   OH242121   4.544   3.613   4.159
14055TIP3    H142122   4.525   3.527   4.197
14055TIP3    H242123   4.552   3.671   4.235
14056TIP3   OH242124   2.110   0.614   3.837
14056TIP3    H142125   2.183   0.675   3.846
14056TIP3    H242126   2.074   0.606   3.925
14057TIP3   OH242127   6.994   3.318   2.547
14057TIP3    H142128   6.962   3.389   2.492
14057TIP3    H242129   6.916   3.285   2.591
14058TIP3   OH242130   5.650   2.920   3.198
14058TIP3    H142131   5.676   2.891   3.285
14058TIP3    H242132   5.580   2.983   3.213
14059TIP3   OH242133   2.450   5.455   2.434
14059TIP3    H142134   2.379   5.421   2.489
14059TIP3    H242135   2.445   5.403   2.354
14060TIP3   OH242136   6.339   3.567   4.596
14060TIP3    H142137   6.393   3.646   4.589
14060TIP3    H242138   6.378   3.506   4.534
14061TIP3   OH242139   3.161   5.933   4.698
14061TIP3    H142140   3.150   5.854   4.750
14061TIP3    H242141   3.210   5.993   4.755
14062TIP3   OH242142   6.381   5.478   3.593
14062TIP3    H142143   6.393   5.416   3.665
14062TIP3    H242144   6.470   5.502   3.567
14063TIP3   OH242145   0.172   5.673   2.540
14063TIP3    H142146   0.215   5.603   2.492
14063TIP3    H242147   0.108   5.628   2.596
14064TIP3   OH242148   6.861   2.485   1.788
14064TIP3    H142149   6.862   2.397   1.825
14064TIP3    H242150   6.781   2.488   1.736
14065TIP3   OH242151   1.293   5.944   0.389
14065TIP3    H142152   1.373   5.912   0.430
14065TIP3    H242153   1.293   6.038   0.404
14066TIP3   OH242154   3.980   1.689   1.885
14066TIP3    H142155   4.026   1.669   1.967
14066TIP3    H242156   3.896   1.645   1.894
14067TIP3   OH242157   7.809   1.792   0.861
14067TIP3    H142158   7.871   1.828   0.797
14067TIP3    H242159   7.845   1.819   0.946
14068TIP3   OH242160   2.015   7.755   4.813
14068TIP3    H142161   2.027   7.739   4.719
14068TIP3    H242162   2.032   7.670   4.854
14069TIP3   OH242163   2.916   3.640   3.726
14069TIP3    H142164   2.904   3.727   3.688
14069TIP3    H242165   3.011   3.631   3.733
14070TIP3   OH242166   7.197   0.706   2.332
14070TIP3    H142167   7.109   0.745   2.332
14070TIP3    H242168   7.190   0.631   2.391
14071TIP3   OH242169   3.200   6.665   3.220
14071TIP3    H142170   3.186   6.585   3.169
14071TIP3    H242171   3.205   6.735   3.155
14072TIP3   OH242172   3.978   2.872   1.126
14072TIP3    H142173   3.905   2.928   1.152
14072TIP3    H242174   3.963   2.853   1.034
14073TIP3   OH242175   8.002   3.960   0.211
14073TIP3    H142176   7.979   4.050   0.229
14073TIP3    H242177   8.092   3.964   0.177
14074TIP3   OH242178   5.137   4.669   5.337
14074TIP3    H142179   5.183   4.735   5.285
14074TIP3    H242180   5.204   4.602   5.353
14075TIP3   OH242181   0.062   0.373   5.512
14075TIP3    H142182   0.085   0.293   5.559
14075TIP3    H242183  -0.032   0.363   5.493
14076TIP3   OH242184   1.756   5.975   4.669
14076TIP3    H142185   1.800   6.057   4.691
14076TIP3    H242186   1.788   5.953   4.582
14077TIP3   OH242187   4.875   6.729   0.676
14077TIP3    H142188   4.940   6.702   0.740
14077TIP3    H242189   4.808   6.774   0.727
14078TIP3   OH242190   5.513   0.434   4.293
14078TIP3    H142191   5.555   0.371   4.235
14078TIP3    H242192   5.476   0.380   4.364
14079TIP3   OH242193   4.496   4.937   1.814
14079TIP3    H142194   4.526   4.981   1.893
14079TIP3    H242195   4.400   4.941   1.819
14080TIP3   OH242196   7.983   3.246   3.120
14080TIP3    H142197   7.937   3.303   3.057
14080TIP3    H242198   8.075   3.272   3.114
14081TIP3   OH242199   3.199   3.978   5.610
14081TIP3    H142200   3.201   4.073   5.595
14081TIP3    H242201   3.174   3.970   5.702
14082TIP3   OH242202   7.579   4.215   0.468
14082TIP3    H142203   7.566   4.213   0.563
14082TIP3    H242204   7.491   4.220   0.431
14083TIP3   OH242205   2.907   6.186   1.184
14083TIP3    H142206   2.975   6.195   1.118
14083TIP3    H242207   2.869   6.274   1.193
14084TIP3   OH242208   5.493   0.569   6.011
14084TIP3    H142209   5.423   0.536   6.068
14084TIP3    H242210   5.545   0.492   5.989
14085TIP3   OH242211   5.485   0.951   2.924
14085TIP3    H142212   5.419   0.883   2.939
14085TIP3    H242213   5.449   1.029   2.966
14086TIP3   OH242214   4.077   1.504   1.378
14086TIP3    H142215   4.156   1.514   1.431
14086TIP3    H242216   4.012   1.557   1.423
14087TIP3   OH242217   1.729   4.120   4.206
14087TIP3    H142218   1.744   4.163   4.122
14087TIP3    H242219   1.636   4.098   4.206
14088TIP3   OH242220   2.869   1.237   5.421
14088TIP3    H142221   2.899   1.253   5.511
14088TIP3    H242222   2.921   1.162   5.392
14089TIP3   OH242223   0.158   0.617   5.396
14089TIP3    H142224   0.091   0.669   5.440
14089TIP3    H242225   0.137   0.527   5.419
14090TIP3   OH242226   3.027   7.495   0.028
14090TIP3    H142227   3.071   7.494  -0.057
14090TIP3    H242228   3.018   7.403   0.051
14091TIP3   OH242229   1.442   4.747   6.632
14091TIP3    H142230   1.445   4.655   6.608
14091TIP3    H242231   1.529   4.765   6.668
14092TIP3   OH242232   2.314   3.997   3.606
14092TIP3    H142233   2.300   4.085   3.642
14092TIP3    H242234   2.325   4.012   3.512
14093TIP3   OH242235   5.432   1.032   1.902
14093TIP3    H142236   5.428   0.991   1.815
14093TIP3    H242237   5.451   1.124   1.883
14094TIP3   OH242238   0.314   7.642   6.198
14094TIP3    H142239   0.399   7.603   6.217
14094TIP3    H242240   0.300   7.705   6.268
14095TIP3   OH242241   1.524   0.762   1.095
14095TIP3    H142242   1.565   0.686   1.052
14095TIP3    H242243   1.493   0.816   1.022
14096TIP3   OH242244   6.903   6.147   3.619
14096TIP3    H142245   6.916   6.219   3.680
14096TIP3    H242246   6.885   6.071   3.674
14097TIP3   OH242247   6.653   3.687   3.344
14097TIP3    H142248   6.579   3.656   3.397
14097TIP3    H242249   6.701   3.607   3.321
14098TIP3   OH242250   4.266   1.008   2.768
14098TIP3    H142251   4.321   0.997   2.691
14098TIP3    H242252   4.180   1.030   2.734
14099TIP3   OH242253   3.853   3.997   3.944
14099TIP3    H142254   3.943   3.980   3.917
14099TIP3    H242255   3.857   4.002   4.040
14100TIP3   OH242256   0.667   3.163   3.955
14100TIP3    H142257   0.625   3.237   3.912
14100TIP3    H242258   0.686   3.101   3.885
14101TIP3   OH242259   0.013   6.268   2.495
14101TIP3    H142260   0.049   6.277   2.407
14101TIP3    H242261   0.024   6.354   2.536
14102TIP3   OH242262   1.956   5.306   4.099
14102TIP3    H142263   2.000   5.313   4.183
14102TIP3    H242264   2.010   5.357   4.038
14103TIP3   OH242265   0.635   7.319   3.801
14103TIP3    H142266   0.691   7.259   3.850
14103TIP3    H242267   0.587   7.367   3.869
14104TIP3   OH242268   4.242   4.021   4.691
14104TIP3    H142269   4.258   3.938   4.646
14104TIP3    H242270   4.194   3.997   4.770
14105TIP3   OH242271   5.913   0.034   0.208
14105TIP3    H142272   5.874  -0.009   0.284
14105TIP3    H242273   5.996   0.069   0.240
14106TIP3   OH242274   5.977   3.879   2.103
14106TIP3    H142275   5.900   3.842   2.147
14106TIP3    H242276   5.966   3.973   2.109
14107TIP3   OH242277   6.945   0.796   4.210
14107TIP3    H142278   7.003   0.863   4.248
14107TIP3    H242279   6.936   0.824   4.118
14108TIP3   OH242280   3.082   1.722   4.674
14108TIP3    H142281   3.126   1.807   4.676
14108TIP3    H242282   3.012   1.730   4.739
14109TIP3   OH242283   1.338   6.927   4.933
14109TIP3    H142284   1.344   7.003   4.874
14109TIP3    H242285   1.426   6.888   4.929
14110TIP3   OH242286   7.402   6.868   1.093
14110TIP3    H142287   7.424   6.886   1.185
14110TIP3    H242288   7.348   6.789   1.097
14111TIP3   OH242289   2.577   7.184   3.524
14111TIP3    H142290   2.635   7.171   3.599
14111TIP3    H242291   2.631   7.165   3.448
14112TIP3   OH242292   4.068   7.019   2.135
14112TIP3    H142293   4.080   7.103   2.092
14112TIP3    H242294   3.973   7.007   2.139
14113TIP3   OH242295   1.302   1.841   6.639
14113TIP3    H142296   1.363   1.884   6.579
14113TIP3    H242297   1.252   1.781   6.584
14114TIP3   OH242298   2.694   7.600   0.472
14114TIP3    H142299   2.704   7.547   0.552
14114TIP3    H242300   2.610   7.573   0.436
14115TIP3   OH242301   4.928   3.753   1.115
14115TIP3    H142302   4.875   3.681   1.148
14115TIP3    H242303   5.017   3.716   1.109
14116TIP3   OH242304   0.463   0.710   1.760
14116TIP3    H142305   0.437   0.757   1.839
14116TIP3    H242306   0.419   0.757   1.689
14117TIP3   OH242307   8.080   7.833   1.726
14117TIP3    H142308   8.060   7.743   1.701
14117TIP3    H242309   8.174   7.833   1.741
14118TIP3   OH242310   6.278   0.000   3.223
14118TIP3    H142311   6.215  -0.043   3.165
14118TIP3    H242312   6.251   0.092   3.223
14119TIP3   OH242313   6.129   1.352   2.898
14119TIP3    H142314   6.044   1.386   2.927
14119TIP3    H242315   6.109   1.304   2.817
14120TIP3   OH242316   0.251   3.599   1.809
14120TIP3    H142317   0.157   3.618   1.803
14120TIP3    H242318   0.269   3.598   1.903
14121TIP3   OH242319   0.120   5.802   0.111
14121TIP3    H142320   0.072   5.721   0.094
14121TIP3    H242321   0.097   5.825   0.201
14122TIP3   OH242322   4.819   7.555   3.253
14122TIP3    H142323   4.863   7.629   3.210
14122TIP3    H242324   4.758   7.596   3.314
14123TIP3   OH242325   0.139   1.335   5.269
14123TIP3    H142326   0.230   1.307   5.265
14123TIP3    H242327   0.144   1.430   5.281
14124TIP3   OH242328   3.440   4.032   0.417
14124TIP3    H142329   3.361   4.076   0.387
14124TIP3    H242330   3.478   3.995   0.338
14125TIP3   OH242331   4.014   6.193   3.264
14125TIP3    H142332   4.022   6.100   3.241
14125TIP3    H242333   3.950   6.228   3.203
14126TIP3   OH242334   1.864   0.872   0.597
14126TIP3    H142335   1.870   0.925   0.518
14126TIP3    H242336   1.874   0.934   0.669
14127TIP3   OH242337   1.837   6.834   5.187
14127TIP3    H142338   1.827   6.922   5.221
14127TIP3    H242339   1.907   6.795   5.240
14128TIP3   OH242340   0.840   1.791   5.928
14128TIP3    H142341   0.826   1.885   5.945
14128TIP3    H242342   0.904   1.764   5.994
14129TIP3   OH242343   2.457   1.199   0.533
14129TIP3    H142344   2.372   1.161   0.554
14129TIP3    H242345   2.471   1.177   0.441
14130TIP3   OH242346   7.649   5.988  -0.015
14130TIP3    H142347   7.665   5.979  -0.109
14130TIP3    H242348   7.578   6.051  -0.008
14131TIP3   OH242349   6.633   7.149   2.885
14131TIP3    H142350   6.624   7.243   2.902
14131TIP3    H242351   6.547   7.113   2.908
14132TIP3   OH242352   2.317   0.788   3.818
14132TIP3    H142353   2.291   0.865   3.869
14132TIP3    H242354   2.327   0.820   3.729
14133TIP3   OH242355   3.900   3.729   2.318
14133TIP3    H142356   3.825   3.740   2.376
14133TIP3    H242357   3.886   3.645   2.275
14134TIP3   OH242358   4.320   7.584   4.717
14134TIP3    H142359   4.252   7.524   4.688
14134TIP3    H242360   4.395   7.564   4.662
14135TIP3   OH242361   7.479   1.488   4.977
14135TIP3    H142362   7.444   1.516   5.062
14135TIP3    H242363   7.403   1.451   4.932
14136TIP3   OH242364   0.612   2.543   1.442
14136TIP3    H142365   0.553   2.557   1.516
14136TIP3    H242366   0.558   2.562   1.365
14137TIP3   OH242367   1.117   7.465   3.861
14137TIP3    H142368   1.209   7.454   3.839
14137TIP3    H242369   1.074   7.480   3.777
14138TIP3   OH242370   0.192   5.945   5.116
14138TIP3    H142371   0.152   5.917   5.198
14138TIP3    H242372   0.125   6.000   5.074
14139TIP3   OH242373   7.603   5.704   1.775
14139TIP3    H142374   7.573   5.761   1.846
14139TIP3    H242375   7.693   5.733   1.758
14140TIP3   OH242376   5.727   0.683   0.699
14140TIP3    H142377   5.801   0.672   0.639
14140TIP3    H242378   5.680   0.759   0.666
14141TIP3   OH242379   3.161   3.192   1.192
14141TIP3    H142380   3.079   3.172   1.146
14141TIP3    H242381   3.155   3.285   1.213
14142TIP3   OH242382   2.574   7.361   3.930
14142TIP3    H142383   2.550   7.299   3.999
14142TIP3    H242384   2.629   7.310   3.870
14143TIP3   OH242385   7.926   5.261   3.353
14143TIP3    H142386   7.882   5.217   3.280
14143TIP3    H242387   7.935   5.352   3.325
14144TIP3   OH242388   4.818   2.173   5.929
14144TIP3    H142389   4.724   2.187   5.938
14144TIP3    H242390   4.857   2.226   5.999
14145TIP3   OH242391   6.780   1.709   1.845
14145TIP3    H142392   6.712   1.768   1.878
14145TIP3    H242393   6.769   1.629   1.896
14146TIP3   OH242394   2.781   3.674   6.720
14146TIP3    H142395   2.843   3.719   6.776
14146TIP3    H242396   2.836   3.622   6.661
14147TIP3   OH242397   4.973   3.737   5.355
14147TIP3    H142398   4.917   3.805   5.394
14147TIP3    H242399   4.952   3.739   5.262
14148TIP3   OH242400   0.281   3.747   2.688
14148TIP3    H142401   0.293   3.787   2.602
14148TIP3    H242402   0.368   3.747   2.727
14149TIP3   OH242403   8.265   3.939   1.748
14149TIP3    H142404   8.205   3.990   1.693
14149TIP3    H242405   8.334   3.911   1.688
14150TIP3   OH242406   7.959   4.646   3.767
14150TIP3    H142407   7.961   4.730   3.721
14150TIP3    H242408   8.048   4.611   3.756
14151TIP3   OH242409   1.257   4.607   3.493
14151TIP3    H142410   1.349   4.604   3.466
14151TIP3    H242411   1.242   4.699   3.515
14152TIP3   OH242412   1.085   4.516   1.142
14152TIP3    H142413   1.104   4.609   1.135
14152TIP3    H242414   0.990   4.510   1.146
14153TIP3   OH242415   2.732   5.744   5.012
14153TIP3    H142416   2.657   5.757   4.954
14153TIP3    H242417   2.699   5.688   5.082
14154TIP3   OH242418   1.195   1.682   5.243
14154TIP3    H142419   1.139   1.605   5.233
14154TIP3    H242420   1.231   1.674   5.331
14155TIP3   OH242421   4.986   4.391   3.710
14155TIP3    H142422   5.080   4.375   3.695
14155TIP3    H242423   4.982   4.480   3.745
14156TIP3   OH242424   3.951   6.215   1.034
14156TIP3    H142425   3.868   6.170   1.016
14156TIP3    H242426   3.929   6.308   1.027
14157TIP3   OH242427   7.042   5.980   1.819
14157TIP3    H142428   7.066   5.914   1.753
14157TIP3    H242429   6.958   6.014   1.789
14158TIP3   OH242430   6.539   0.585   0.931
14158TIP3    H142431   6.611   0.648   0.941
14158TIP3    H242432   6.580   0.508   0.891
14159TIP3   OH242433   3.792   3.266   1.080
14159TIP3    H142434   3.788   3.358   1.104
14159TIP3    H242435   3.700   3.241   1.064
14160TIP3   OH242436   5.363   0.162   0.622
14160TIP3    H142437   5.325   0.184   0.707
14160TIP3    H242438   5.409   0.079   0.637
14161TIP3   OH242439   0.086   3.599   2.130
14161TIP3    H142440   0.088   3.587   2.225
14161TIP3    H242441   0.127   3.520   2.095
14162TIP3   OH242442   4.605   6.233   4.768
14162TIP3    H142443   4.638   6.317   4.734
14162TIP3    H242444   4.538   6.207   4.705
14163TIP3   OH242445   7.564   4.084   4.434
14163TIP3    H142446   7.532   3.995   4.420
14163TIP3    H242447   7.523   4.112   4.516
14164TIP3   OH242448   6.227   2.914   2.268
14164TIP3    H142449   6.133   2.925   2.254
14164TIP3    H242450   6.236   2.830   2.311
14165TIP3   OH242451   0.968   6.579   3.230
14165TIP3    H142452   0.947   6.669   3.207
14165TIP3    H242453   1.018   6.586   3.312
14166TIP3   OH242454   3.572   5.541   6.583
14166TIP3    H142455   3.620   5.492   6.649
14166TIP3    H242456   3.632   5.610   6.555
14167TIP3   OH242457   7.898   4.211   6.131
14167TIP3    H142458   7.960   4.193   6.202
14167TIP3    H242459   7.819   4.240   6.176
14168TIP3   OH242460   0.243   2.663   5.689
14168TIP3    H142461   0.317   2.687   5.633
14168TIP3    H242462   0.168   2.658   5.629
14169TIP3   OH242463   2.012   0.667   3.300
14169TIP3    H142464   1.965   0.627   3.373
14169TIP3    H242465   2.077   0.601   3.274
14170TIP3   OH242466   5.151   1.205   3.249
14170TIP3    H142467   5.058   1.223   3.265
14170TIP3    H242468   5.170   1.247   3.165
14171TIP3   OH242469   4.961   7.064   1.882
14171TIP3    H142470   4.969   7.139   1.941
14171TIP3    H242471   5.050   7.029   1.876
14172TIP3   OH242472   3.955   0.654   0.751
14172TIP3    H142473   4.027   0.597   0.723
14172TIP3    H242474   3.984   0.742   0.728
14173TIP3   OH242475   6.843   3.538   3.091
14173TIP3    H142476   6.912   3.506   3.032
14173TIP3    H242477   6.851   3.484   3.170
14174TIP3   OH242478   0.741   6.573   4.971
14174TIP3    H142479   0.707   6.530   5.049
14174TIP3    H242480   0.666   6.577   4.912
14175TIP3   OH242481   4.658   1.231   1.491
14175TIP3    H142482   4.648   1.172   1.566
14175TIP3    H242483   4.748   1.216   1.461
14176TIP3   OH242484   4.774   2.399   3.579
14176TIP3    H142485   4.728   2.473   3.617
14176TIP3    H242486   4.844   2.380   3.642
14177TIP3   OH242487   7.484   4.592   2.423
14177TIP3    H142488   7.403   4.642   2.411
14177TIP3    H242489   7.490   4.579   2.518
14178TIP3   OH242490   6.965   4.646   4.098
14178TIP3    H142491   7.059   4.655   4.114
14178TIP3    H242492   6.952   4.685   4.011
14179TIP3   OH242493   8.325   6.287   0.019
14179TIP3    H142494   8.379   6.354  -0.021
14179TIP3    H242495   8.377   6.256   0.093
14180TIP3   OH242496   7.541   2.288   4.205
14180TIP3    H142497   7.588   2.370   4.187
14180TIP3    H242498   7.534   2.246   4.119
14181TIP3   OH242499   4.398   6.707   4.819
14181TIP3    H142500   4.448   6.780   4.782
14181TIP3    H242501   4.394   6.726   4.913
14182TIP3   OH242502   8.251   1.983   4.186
14182TIP3    H142503   8.285   1.902   4.225
14182TIP3    H242504   8.246   2.044   4.259
14183TIP3   OH242505   2.485   1.118   3.612
14183TIP3    H142506   2.558   1.112   3.551
14183TIP3    H242507   2.525   1.110   3.698
14184TIP3   OH242508   5.282   2.612   5.162
14184TIP3    H142509   5.222   2.687   5.168
14184TIP3    H242510   5.257   2.569   5.080
14185TIP3   OH242511   1.603   0.599   0.646
14185TIP3    H142512   1.569   0.687   0.626
14185TIP3    H242513   1.540   0.539   0.607
14186TIP3   OH242514   7.892   1.046   6.684
14186TIP3    H142515   7.905   0.984   6.612
14186TIP3    H242516   7.807   1.086   6.667
14187TIP3   OH242517   1.382   7.338   3.278
14187TIP3    H142518   1.305   7.292   3.313
14187TIP3    H242519   1.368   7.430   3.300
14188TIP3   OH242520   4.658   3.075   3.667
14188TIP3    H142521   4.613   3.005   3.618
14188TIP3    H242522   4.626   3.156   3.627
14189TIP3   OH242523   1.853   1.167   2.541
14189TIP3    H142524   1.771   1.180   2.492
14189TIP3    H242525   1.905   1.245   2.522
14190TIP3   OH242526   7.761   6.914   3.591
14190TIP3    H142527   7.817   6.849   3.547
14190TIP3    H242528   7.802   6.998   3.571
14191TIP3   OH242529   1.060   3.766   1.909
14191TIP3    H142530   0.995   3.785   1.842
14191TIP3    H242531   1.142   3.800   1.873
14192TIP3   OH242532   3.925   5.899   3.297
14192TIP3    H142533   3.849   5.953   3.320
14192TIP3    H242534   3.889   5.810   3.288
14193TIP3   OH242535   3.351   6.178   4.731
14193TIP3    H142536   3.312   6.261   4.705
14193TIP3    H242537   3.433   6.173   4.682
14194TIP3   OH242538   0.609   1.684   1.534
14194TIP3    H142539   0.591   1.662   1.626
14194TIP3    H242540   0.532   1.731   1.504
14195TIP3   OH242541   3.821   3.741   5.787
14195TIP3    H142542   3.735   3.739   5.830
14195TIP3    H242543   3.878   3.787   5.848
14196TIP3   OH242544   7.993   0.539   2.024
14196TIP3    H142545   7.900   0.561   2.036
14196TIP3    H242546   7.996   0.494   1.939
14197TIP3   OH242547   5.501   7.774   2.469
14197TIP3    H142548   5.411   7.784   2.439
14197TIP3    H242549   5.553   7.820   2.403
14198TIP3   OH242550   5.861   5.853   1.216
14198TIP3    H142551   5.844   5.939   1.178
14198TIP3    H242552   5.916   5.809   1.152
14199TIP3   OH242553   6.224   3.213   4.842
14199TIP3    H142554   6.276   3.286   4.877
14199TIP3    H242555   6.145   3.212   4.897
14200TIP3   OH242556   5.396   1.337   0.616
14200TIP3    H142557   5.449   1.389   0.556
14200TIP3    H242558   5.307   1.344   0.583
14201TIP3   OH242559   4.435   5.387   0.239
14201TIP3    H142560   4.440   5.481   0.223
14201TIP3    H242561   4.412   5.350   0.153
14202TIP3   OH242562   3.234   3.452   1.211
14202TIP3    H142563   3.211   3.463   1.119
14202TIP3    H242564   3.283   3.531   1.233
14203TIP3   OH242565   6.304   3.968   3.608
14203TIP3    H142566   6.296   3.909   3.683
14203TIP3    H242567   6.397   3.985   3.601
14204TIP3   OH242568   0.304   2.875   2.838
14204TIP3    H142569   0.335   2.930   2.910
14204TIP3    H242570   0.329   2.786   2.864
14205TIP3   OH242571   3.448   7.759   4.424
14205TIP3    H142572   3.446   7.680   4.477
14205TIP3    H242573   3.511   7.740   4.354
14206TIP3   OH242574   4.041   6.638   4.843
14206TIP3    H142575   4.030   6.654   4.936
14206TIP3    H242576   4.136   6.636   4.830
14207TIP3   OH242577   1.536   4.529   3.927
14207TIP3    H142578   1.580   4.612   3.942
14207TIP3    H242579   1.452   4.553   3.888
14208TIP3   OH242580   5.301   4.365   3.732
14208TIP3    H142581   5.363   4.295   3.711
14208TIP3    H242582   5.294   4.364   3.827
14209TIP3   OH242583   1.615   4.772   3.986
14209TIP3    H142584   1.675   4.762   4.060
14209TIP3    H242585   1.545   4.828   4.020
14210TIP3   OH242586   7.217   0.617   4.151
14210TIP3    H142587   7.197   0.554   4.082
14210TIP3    H242588   7.141   0.675   4.154
14211TIP3   OH242589   2.188   3.025   4.589
14211TIP3    H142590   2.111   3.079   4.574
14211TIP3    H242591   2.161   2.963   4.657
14212TIP3   OH242592   2.618   1.232   5.267
14212TIP3    H142593   2.692   1.240   5.327
14212TIP3    H242594   2.545   1.276   5.311
14213TIP3   OH242595   4.456   1.708   3.841
14213TIP3    H142596   4.534   1.722   3.787
14213TIP3    H242597   4.488   1.657   3.915
14214TIP3   OH242598   4.743   5.405   2.817
14214TIP3    H142599   4.689   5.332   2.786
14214TIP3    H242600   4.833   5.379   2.795
14215TIP3   OH242601   0.840   4.083   1.355
14215TIP3    H142602   0.810   4.174   1.355
14215TIP3    H242603   0.779   4.037   1.297
14216TIP3   OH242604   5.780   3.722   5.892
14216TIP3    H142605   5.743   3.643   5.852
14216TIP3    H242606   5.859   3.739   5.841
14217TIP3   OH242607   1.908   2.750   2.778
14217TIP3    H142608   2.002   2.763   2.774
14217TIP3    H242609   1.884   2.770   2.869
14218TIP3   OH242610   5.251   1.483   0.115
14218TIP3    H142611   5.216   1.509   0.201
14218TIP3    H242612   5.333   1.438   0.136
14219TIP3   OH242613   7.025   5.351   0.566
14219TIP3    H142614   6.937   5.366   0.533
14219TIP3    H242615   7.052   5.268   0.527
14220TIP3   OH242616   1.471   1.692   6.172
14220TIP3    H142617   1.501   1.783   6.172
14220TIP3    H242618   1.500   1.657   6.256
14221TIP3   OH242619   2.847   0.814   4.105
14221TIP3    H142620   2.893   0.822   4.022
14221TIP3    H242621   2.911   0.841   4.171
14222TIP3   OH242622   4.555   7.354   1.772
14222TIP3    H142623   4.500   7.398   1.837
14222TIP3    H242624   4.616   7.302   1.825
14223TIP3   OH242625   5.041   1.804   0.355
14223TIP3    H142626   5.084   1.845   0.280
14223TIP3    H242627   5.034   1.875   0.419
14224TIP3   OH242628   2.484   6.369   1.084
14224TIP3    H142629   2.394   6.338   1.080
14224TIP3    H242630   2.490   6.437   1.017
14225TIP3   OH242631   2.872   5.266   6.750
14225TIP3    H142632   2.828   5.240   6.669
14225TIP3    H242633   2.802   5.272   6.815
14226TIP3   OH242634   4.246   3.840   3.445
14226TIP3    H142635   4.229   3.917   3.390
14226TIP3    H242636   4.280   3.775   3.384
14227TIP3   OH242637   6.193   1.842   1.047
14227TIP3    H142638   6.120   1.844   0.985
14227TIP3    H242639   6.246   1.768   1.020
14228TIP3   OH242640   0.218   3.140   3.501
14228TIP3    H142641   0.299   3.091   3.520
14228TIP3    H242642   0.174   3.145   3.586
14229TIP3   OH242643   3.108   2.783   1.242
14229TIP3    H142644   3.115   2.712   1.305
14229TIP3    H242645   3.166   2.851   1.277
14230TIP3   OH242646   1.704   1.990   4.472
14230TIP3    H142647   1.757   1.916   4.504
14230TIP3    H242648   1.687   2.043   4.550
14231TIP3   OH242649   1.563   4.347   0.764
14231TIP3    H142650   1.582   4.255   0.747
14231TIP3    H242651   1.467   4.351   0.770
14232TIP3   OH242652   1.023   2.930   1.582
14232TIP3    H142653   0.942   2.909   1.628
14232TIP3    H242654   1.034   2.859   1.519
14233TIP3   OH242655   4.912   3.506   4.656
14233TIP3    H142656   4.932   3.599   4.643
14233TIP3    H242657   4.963   3.461   4.589
14234TIP3   OH242658   3.924   3.137   2.850
14234TIP3    H142659   3.893   3.063   2.798
14234TIP3    H242660   3.846   3.170   2.894
14235TIP3   OH242661   7.150   1.979   2.186
14235TIP3    H142662   7.217   2.044   2.206
14235TIP3    H242663   7.108   2.011   2.106
14236TIP3   OH242664   0.970   1.797   4.687
14236TIP3    H142665   1.045   1.739   4.676
14236TIP3    H242666   0.901   1.741   4.723
14237TIP3   OH242667   3.107   2.791   6.328
14237TIP3    H142668   3.081   2.837   6.407
14237TIP3    H242669   3.033   2.800   6.268
14238TIP3   OH242670   2.520   1.519   0.595
14238TIP3    H142671   2.432   1.522   0.632
14238TIP3    H242672   2.534   1.427   0.574
14239TIP3   OH242673   4.860   4.814   3.695
14239TIP3    H142674   4.943   4.777   3.724
14239TIP3    H242675   4.812   4.830   3.776
14240TIP3   OH242676   7.031   0.028   2.879
14240TIP3    H142677   7.122   0.021   2.908
14240TIP3    H242678   7.036   0.029   2.784
14241TIP3   OH242679   2.180   3.784   0.592
14241TIP3    H142680   2.087   3.764   0.596
14241TIP3    H242681   2.222   3.711   0.638
14242TIP3   OH242682   1.233   6.573   6.210
14242TIP3    H142683   1.219   6.597   6.118
14242TIP3    H242684   1.167   6.507   6.228
14243TIP3   OH242685   7.936   5.880   4.224
14243TIP3    H142686   7.950   5.812   4.158
14243TIP3    H242687   7.923   5.833   4.306
14244TIP3   OH242688   2.551   7.197   2.813
14244TIP3    H142689   2.481   7.252   2.776
14244TIP3    H242690   2.514   7.109   2.814
14245TIP3   OH242691   4.596   3.234   3.940
14245TIP3    H142692   4.572   3.146   3.909
14245TIP3    H242693   4.556   3.293   3.877
14246TIP3   OH242694   1.243   3.826   4.116
14246TIP3    H142695   1.329   3.870   4.119
14246TIP3    H242696   1.192   3.869   4.184
14247TIP3   OH242697   2.279   3.894   6.123
14247TIP3    H142698   2.261   3.988   6.114
14247TIP3    H242699   2.196   3.857   6.153
14248TIP3   OH242700   4.936   4.359   4.507
14248TIP3    H142701   4.965   4.380   4.595
14248TIP3    H242702   4.992   4.413   4.450
14249TIP3   OH242703   6.708   4.274   4.767
14249TIP3    H142704   6.768   4.200   4.757
14249TIP3    H242705   6.763   4.352   4.758
14250TIP3   OH242706   2.285   7.131   2.063
14250TIP3    H142707   2.240   7.102   2.142
14250TIP3    H242708   2.361   7.181   2.096
14251TIP3   OH242709   7.986   1.132   5.688
14251TIP3    H142710   7.964   1.154   5.778
14251TIP3    H242711   7.953   1.043   5.676
14252TIP3   OH242712   2.925   0.866   2.989
14252TIP3    H142713   2.996   0.828   2.937
14252TIP3    H242714   2.847   0.851   2.936
14253TIP3   OH242715   4.184   4.662   4.917
14253TIP3    H142716   4.133   4.720   4.974
14253TIP3    H242717   4.185   4.707   4.832
14254TIP3   OH242718   7.928   1.596   2.605
14254TIP3    H142719   7.910   1.640   2.522
14254TIP3    H242720   7.966   1.512   2.580
14255TIP3   OH242721   7.653   1.174   5.570
14255TIP3    H142722   7.663   1.262   5.534
14255TIP3    H242723   7.742   1.139   5.573
14256TIP3   OH242724   5.775   2.457   1.287
14256TIP3    H142725   5.723   2.426   1.212
14256TIP3    H242726   5.745   2.403   1.360
14257TIP3   OH242727   6.259   2.063   6.207
14257TIP3    H142728   6.321   1.992   6.217
14257TIP3    H242729   6.177   2.029   6.242
14258TIP3   OH242730   3.475   3.315   1.161
14258TIP3    H142731   3.403   3.345   1.215
14258TIP3    H242732   3.459   3.355   1.075
14259TIP3   OH242733   4.326   4.240   6.579
14259TIP3    H142734   4.320   4.318   6.523
14259TIP3    H242735   4.402   4.193   6.545
14260TIP3   OH242736   5.932   5.016   2.299
14260TIP3    H142737   5.992   5.031   2.373
14260TIP3    H242738   5.982   4.961   2.239
14261TIP3   OH242739   4.856   5.172   6.134
14261TIP3    H142740   4.775   5.209   6.101
14261TIP3    H242741   4.877   5.225   6.211
14262TIP3   OH242742   0.232   7.677   5.917
14262TIP3    H142743   0.213   7.659   6.009
14262TIP3    H242744   0.327   7.673   5.911
14263TIP3   OH242745   3.194   7.403   0.700
14263TIP3    H142746   3.198   7.308   0.692
14263TIP3    H242747   3.273   7.435   0.656
14264TIP3   OH242748   1.798   6.146   0.695
14264TIP3    H142749   1.719   6.174   0.650
14264TIP3    H242750   1.867   6.201   0.660
14265TIP3   OH242751   1.522   5.787   3.998
14265TIP3    H142752   1.440   5.775   3.949
14265TIP3    H242753   1.518   5.722   4.068
14266TIP3   OH242754   6.658   7.246   5.064
14266TIP3    H142755   6.632   7.269   4.975
14266TIP3    H242756   6.577   7.217   5.105
14267TIP3   OH242757   6.796   2.285   0.726
14267TIP3    H142758   6.830   2.268   0.814
14267TIP3    H242759   6.844   2.224   0.670
14268TIP3   OH242760   0.412   1.571   4.605
14268TIP3    H142761   0.358   1.493   4.589
14268TIP3    H242762   0.366   1.641   4.558
14269TIP3   OH242763   2.283   3.404   6.272
14269TIP3    H142764   2.270   3.492   6.309
14269TIP3    H242765   2.209   3.392   6.213
14270TIP3   OH242766   1.628   7.843   4.957
14270TIP3    H142767   1.577   7.885   4.887
14270TIP3    H242768   1.617   7.749   4.941
14271TIP3   OH242769   6.003   2.974   4.688
14271TIP3    H142770   6.072   3.040   4.678
14271TIP3    H242771   6.037   2.897   4.643
14272TIP3   OH242772   4.113   7.314   2.922
14272TIP3    H142773   4.185   7.284   2.866
14272TIP3    H242774   4.099   7.405   2.898
14273TIP3   OH242775   4.389   4.920   1.534
14273TIP3    H142776   4.429   4.878   1.611
14273TIP3    H242777   4.423   5.010   1.536
14274TIP3   OH242778   2.091   2.179   5.807
14274TIP3    H142779   2.042   2.261   5.802
14274TIP3    H242780   2.031   2.117   5.849
14275TIP3   OH242781   3.983   3.433   5.403
14275TIP3    H142782   3.948   3.480   5.478
14275TIP3    H242783   3.914   3.438   5.336
14276TIP3   OH242784   6.777   5.554   1.610
14276TIP3    H142785   6.757   5.556   1.516
14276TIP3    H242786   6.749   5.468   1.639
14277TIP3   OH242787   2.416   7.778   0.096
14277TIP3    H142788   2.378   7.697   0.062
14277TIP3    H242789   2.355   7.806   0.165
14278TIP3   OH242790   5.668   2.873   3.479
14278TIP3    H142791   5.608   2.803   3.503
14278TIP3    H242792   5.752   2.830   3.465
14279TIP3   OH242793   6.748   2.437   6.047
14279TIP3    H142794   6.680   2.461   6.111
14279TIP3    H242795   6.742   2.506   5.980
14280TIP3   OH242796   2.986   0.477   2.516
14280TIP3    H142797   3.056   0.430   2.470
14280TIP3    H242798   3.021   0.565   2.528
14281TIP3   OH242799   7.053   6.432   1.649
14281TIP3    H142800   7.074   6.352   1.601
14281TIP3    H242801   6.996   6.481   1.590
14282TIP3   OH242802   5.719   1.345   6.575
14282TIP3    H142803   5.749   1.261   6.541
14282TIP3    H242804   5.792   1.405   6.559
14283TIP3   OH242805   6.016   4.298   1.909
14283TIP3    H142806   6.061   4.341   1.837
14283TIP3    H242807   6.017   4.205   1.887
14284TIP3   OH242808   5.784   7.622   1.365
14284TIP3    H142809   5.700   7.578   1.372
14284TIP3    H242810   5.849   7.552   1.375
14285TIP3   OH242811   1.959   0.767   2.740
14285TIP3    H142812   1.967   0.687   2.793
14285TIP3    H242813   1.885   0.749   2.682
14286TIP3   OH242814   5.827   1.611   2.255
14286TIP3    H142815   5.803   1.648   2.340
14286TIP3    H242816   5.748   1.621   2.202
14287TIP3   OH242817   6.041   0.809   5.696
14287TIP3    H142818   6.081   0.754   5.628
14287TIP3    H242819   6.079   0.776   5.778
14288TIP3   OH242820   2.637   3.693   6.057
14288TIP3    H142821   2.619   3.780   6.092
14288TIP3    H242822   2.551   3.659   6.030
14289TIP3   OH242823   6.358   1.783   1.801
14289TIP3    H142824   6.305   1.750   1.873
14289TIP3    H242825   6.446   1.791   1.837
14290TIP3   OH242826   1.989   3.385   1.844
14290TIP3    H142827   1.944   3.469   1.846
14290TIP3    H242828   2.044   3.389   1.765
14291TIP3   OH242829   5.041   5.311   2.332
14291TIP3    H142830   4.962   5.332   2.283
14291TIP3    H242831   5.021   5.339   2.422
14292TIP3   OH242832   8.009   7.334   5.856
14292TIP3    H142833   8.085   7.380   5.892
14292TIP3    H242834   8.021   7.243   5.886
14293TIP3   OH242835   5.359   3.741   1.302
14293TIP3    H142836   5.394   3.688   1.374
14293TIP3    H242837   5.335   3.824   1.344
14294TIP3   OH242838   3.561   0.837   3.793
14294TIP3    H142839   3.603   0.757   3.761
14294TIP3    H242840   3.620   0.908   3.766
14295TIP3   OH242841   3.892   5.626   3.289
14295TIP3    H142842   3.985   5.617   3.308
14295TIP3    H242843   3.848   5.578   3.359
14296TIP3   OH242844   1.816   1.970   3.762
14296TIP3    H142845   1.877   1.898   3.745
14296TIP3    H242846   1.824   1.988   3.856
14297TIP3   OH242847   6.933   0.700   5.837
14297TIP3    H142848   6.955   0.608   5.850
14297TIP3    H242849   6.997   0.731   5.773
14298TIP3   OH242850   6.090   1.694   2.261
14298TIP3    H142851   6.005   1.651   2.249
14298TIP3    H242852   6.135   1.640   2.326
14299TIP3   OH242853   6.832   2.841   0.402
14299TIP3    H142854   6.759   2.790   0.368
14299TIP3    H242855   6.823   2.837   0.497
14300TIP3   OH242856   4.642   7.509   4.869
14300TIP3    H142857   4.618   7.527   4.778
14300TIP3    H242858   4.599   7.578   4.920
14301TIP3   OH242859   0.567   1.766   6.053
14301TIP3    H142860   0.637   1.786   5.991
14301TIP3    H242861   0.489   1.808   6.015
14302TIP3   OH242862   0.359   7.423   4.609
14302TIP3    H142863   0.330   7.351   4.664
14302TIP3    H242864   0.455   7.414   4.606
14303TIP3   OH242865   8.058   0.968   2.822
14303TIP3    H142866   8.055   0.885   2.870
14303TIP3    H242867   8.098   0.945   2.738
14304TIP3   OH242868   1.349   1.856   1.962
14304TIP3    H142869   1.320   1.941   1.930
14304TIP3    H242870   1.440   1.849   1.934
14305TIP3   OH242871   7.286   4.198   2.625
14305TIP3    H142872   7.337   4.118   2.640
14305TIP3    H242873   7.277   4.203   2.530
14306TIP3   OH242874   6.415   2.454   1.238
14306TIP3    H142875   6.445   2.544   1.234
14306TIP3    H242876   6.382   2.435   1.151
14307TIP3   OH242877   0.452   0.465   4.408
14307TIP3    H142878   0.386   0.398   4.429
14307TIP3    H242879   0.410   0.547   4.434
14308TIP3   OH242880   5.257   2.636   1.602
14308TIP3    H142881   5.347   2.636   1.568
14308TIP3    H242882   5.211   2.699   1.547
14309TIP3   OH242883   1.945   4.953   0.509
14309TIP3    H142884   2.023   4.997   0.476
14309TIP3    H242885   1.876   5.019   0.502
14310TIP3   OH242886   3.233   5.813   4.974
14310TIP3    H142887   3.222   5.907   4.986
14310TIP3    H242888   3.161   5.787   4.918
14311TIP3   OH242889   4.592   0.902   4.033
14311TIP3    H142890   4.582   0.875   4.124
14311TIP3    H242891   4.508   0.940   4.009
14312TIP3   OH242892   0.788   2.174   5.088
14312TIP3    H142893   0.755   2.096   5.133
14312TIP3    H242894   0.785   2.243   5.154
14313TIP3   OH242895   2.513   0.287   1.667
14313TIP3    H142896   2.481   0.295   1.577
14313TIP3    H242897   2.572   0.212   1.665
14314TIP3   OH242898   1.929   2.268   5.152
14314TIP3    H142899   1.858   2.215   5.187
14314TIP3    H242900   2.008   2.218   5.172
14315TIP3   OH242901   6.078   0.302   1.150
14315TIP3    H142902   6.150   0.248   1.118
14315TIP3    H242903   6.042   0.253   1.224
14316TIP3   OH242904   3.702   0.946   0.701
14316TIP3    H142905   3.623   0.955   0.754
14316TIP3    H242906   3.772   0.934   0.764
14317TIP3   OH242907   1.069   6.840   0.447
14317TIP3    H142908   0.999   6.894   0.412
14317TIP3    H242909   1.029   6.753   0.458
14318TIP3   OH242910   1.366   6.859   3.009
14318TIP3    H142911   1.323   6.775   3.022
14318TIP3    H242912   1.454   6.836   2.977
14319TIP3   OH242913   0.159   6.685   4.378
14319TIP3    H142914   0.210   6.604   4.376
14319TIP3    H242915   0.068   6.655   4.384
14320TIP3   OH242916   5.760   5.786   5.845
14320TIP3    H142917   5.766   5.839   5.925
14320TIP3    H242918   5.824   5.716   5.858
14321TIP3   OH242919   8.189   2.339   0.563
14321TIP3    H142920   8.172   2.351   0.470
14321TIP3    H242921   8.123   2.393   0.607
14322TIP3   OH242922   8.113   5.419   4.084
14322TIP3    H142923   8.047   5.366   4.128
14322TIP3    H242924   8.168   5.356   4.038
14323TIP3   OH242925   3.513   5.112   4.537
14323TIP3    H142926   3.567   5.100   4.459
14323TIP3    H242927   3.522   5.030   4.586
14324TIP3   OH242928   7.477   3.492   4.754
14324TIP3    H142929   7.557   3.466   4.799
14324TIP3    H242930   7.461   3.423   4.690
14325TIP3   OH242931   6.670   6.983   4.333
14325TIP3    H142932   6.672   6.916   4.401
14325TIP3    H242933   6.760   7.016   4.329
14326TIP3   OH242934   3.314   4.901   1.556
14326TIP3    H142935   3.347   4.812   1.551
14326TIP3    H242936   3.275   4.908   1.644
14327TIP3   OH242937   0.942   6.393   5.633
14327TIP3    H142938   0.930   6.452   5.706
14327TIP3    H242939   0.892   6.432   5.562
14328TIP3   OH242940   6.874   6.366   3.793
14328TIP3    H142941   6.787   6.330   3.776
14328TIP3    H242942   6.867   6.459   3.770
14329TIP3   OH242943   3.668   4.619   6.726
14329TIP3    H142944   3.638   4.572   6.804
14329TIP3    H242945   3.730   4.684   6.760
14330TIP3   OH242946   5.995   1.258   0.407
14330TIP3    H142947   5.982   1.341   0.453
14330TIP3    H242948   5.986   1.280   0.314
14331TIP3   OH242949   4.308   4.300   3.785
14331TIP3    H142950   4.241   4.235   3.766
14331TIP3    H242951   4.359   4.306   3.704
14332TIP3   OH242952   7.718   7.003   1.533
14332TIP3    H142953   7.678   7.003   1.447
14332TIP3    H242954   7.713   7.094   1.562
14333TIP3   OH242955   0.986   7.078   3.215
14333TIP3    H142956   1.052   7.062   3.147
14333TIP3    H242957   0.915   7.123   3.169
14334TIP3   OH242958   4.786   1.527   3.676
14334TIP3    H142959   4.711   1.476   3.707
14334TIP3    H242960   4.801   1.592   3.745
14335TIP3   OH242961   6.980   5.049   6.173
14335TIP3    H142962   6.887   5.060   6.152
14335TIP3    H242963   7.018   5.136   6.162
14336TIP3   OH242964   1.115   5.215   4.379
14336TIP3    H142965   1.123   5.174   4.293
14336TIP3    H242966   1.203   5.211   4.416
14337TIP3   OH242967   0.471   2.559   0.422
14337TIP3    H142968   0.558   2.597   0.439
14337TIP3    H242969   0.450   2.589   0.333
14338TIP3   OH242970   6.686   6.675   6.375
14338TIP3    H142971   6.600   6.634   6.375
14338TIP3    H242972   6.680   6.744   6.442
14339TIP3   OH242973   1.954   0.547   2.032
14339TIP3    H142974   1.989   0.629   2.068
14339TIP3    H242975   2.023   0.517   1.972
14340TIP3   OH242976   5.248   2.318   3.120
14340TIP3    H142977   5.185   2.379   3.083
14340TIP3    H242978   5.194   2.249   3.159
14341TIP3   OH242979   7.070   4.938   3.040
14341TIP3    H142980   7.095   4.848   3.017
14341TIP3    H242981   7.107   4.992   2.970
14342TIP3   OH242982   4.675   5.853   2.368
14342TIP3    H142983   4.675   5.911   2.292
14342TIP3    H242984   4.671   5.912   2.444
14343TIP3   OH242985   3.808   2.058   2.119
14343TIP3    H142986   3.813   2.073   2.213
14343TIP3    H242987   3.714   2.051   2.101
14344TIP3   OH242988   6.053   5.907   2.304
14344TIP3    H142989   6.113   5.908   2.230
14344TIP3    H242990   5.969   5.931   2.267
14345TIP3   OH242991   0.479   1.001   3.768
14345TIP3    H142992   0.540   0.955   3.826
14345TIP3    H242993   0.494   1.094   3.786
14346TIP3   OH242994   3.352   6.228   1.155
14346TIP3    H142995   3.287   6.183   1.209
14346TIP3    H242996   3.320   6.318   1.149
14347TIP3   OH242997   5.107   6.249   2.227
14347TIP3    H142998   5.050   6.247   2.151
14347TIP3    H242999   5.048   6.240   2.302
14348TIP3   OH243000   1.844   2.286   0.872
14348TIP3    H143001   1.906   2.273   0.800
14348TIP3    H243002   1.869   2.221   0.938
14349TIP3   OH243003   6.621   3.438   6.077
14349TIP3    H143004   6.639   3.344   6.076
14349TIP3    H243005   6.645   3.468   5.990
14350TIP3   OH243006   0.700   5.266   5.878
14350TIP3    H143007   0.668   5.244   5.790
14350TIP3    H243008   0.695   5.362   5.882
14351TIP3   OH243009   0.865   0.545   4.079
14351TIP3    H143010   0.911   0.624   4.050
14351TIP3    H243011   0.829   0.568   4.164
14352TIP3   OH243012   1.761   3.518   0.858
14352TIP3    H143013   1.695   3.467   0.811
14352TIP3    H243014   1.720   3.604   0.871
14353TIP3   OH243015   5.957   4.433   0.535
14353TIP3    H143016   5.937   4.495   0.604
14353TIP3    H243017   5.961   4.348   0.579
14354TIP3   OH243018   0.487   4.153   3.963
14354TIP3    H143019   0.498   4.246   3.946
14354TIP3    H243020   0.487   4.113   3.875
14355TIP3   OH243021   4.478   3.178   5.805
14355TIP3    H143022   4.397   3.208   5.847
14355TIP3    H243023   4.518   3.257   5.769
14356TIP3   OH243024   7.728   6.895   5.206
14356TIP3    H143025   7.758   6.986   5.213
14356TIP3    H243026   7.788   6.846   5.263
14357TIP3   OH243027   2.604   1.118   6.437
14357TIP3    H143028   2.554   1.137   6.517
14357TIP3    H243029   2.630   1.204   6.404
14358TIP3   OH243030   4.496   2.459   2.534
14358TIP3    H143031   4.420   2.440   2.589
14358TIP3    H243032   4.458   2.497   2.454
14359TIP3   OH243033   3.151   3.918   6.285
14359TIP3    H143034   3.113   3.891   6.202
14359TIP3    H243035   3.091   3.883   6.352
14360TIP3   OH243036   3.220   1.497   6.213
14360TIP3    H143037   3.306   1.475   6.250
14360TIP3    H243038   3.241   1.537   6.128
14361TIP3   OH243039   1.177   2.142   3.722
14361TIP3    H143040   1.142   2.061   3.687
14361TIP3    H243041   1.272   2.128   3.727
14362TIP3   OH243042   2.160   4.819   5.975
14362TIP3    H143043   2.107   4.891   6.009
14362TIP3    H243044   2.247   4.856   5.963
14363TIP3   OH243045   1.765   1.705   3.992
14363TIP3    H143046   1.858   1.681   3.989
14363TIP3    H243047   1.752   1.743   4.078
14364TIP3   OH243048   6.859   6.350   4.067
14364TIP3    H143049   6.861   6.357   3.971
14364TIP3    H243050   6.918   6.278   4.087
14365TIP3   OH243051   1.995   3.671   4.049
14365TIP3    H143052   1.966   3.608   3.983
14365TIP3    H243053   1.925   3.737   4.051
14366TIP3   OH243054   8.291   3.522   6.245
14366TIP3    H143055   8.257   3.606   6.214
14366TIP3    H243056   8.307   3.536   6.338
14367TIP3   OH243057   2.485   3.039   4.695
14367TIP3    H143058   2.402   3.052   4.649
14367TIP3    H243059   2.471   3.079   4.781
14368TIP3   OH243060   6.075   0.382   2.564
14368TIP3    H143061   5.985   0.412   2.554
14368TIP3    H243062   6.125   0.435   2.501
14369TIP3   OH243063   2.302   4.546   2.883
14369TIP3    H143064   2.217   4.587   2.893
14369TIP3    H243065   2.293   4.489   2.807
14370TIP3   OH243066   3.850   4.217   1.934
14370TIP3    H143067   3.811   4.140   1.893
14370TIP3    H243068   3.859   4.192   2.026
14371TIP3   OH243069   4.974   7.328   3.212
14371TIP3    H143070   5.053   7.352   3.262
14371TIP3    H243071   4.919   7.406   3.215
14372TIP3   OH243072   5.589   6.380   5.038
14372TIP3    H143073   5.517   6.442   5.030
14372TIP3    H243074   5.655   6.412   4.976
14373TIP3   OH243075   2.564   3.790   3.287
14373TIP3    H143076   2.565   3.730   3.361
14373TIP3    H243077   2.656   3.813   3.275
14374TIP3   OH243078   2.233   7.398   4.333
14374TIP3    H143079   2.178   7.472   4.307
14374TIP3    H243080   2.323   7.430   4.321
14375TIP3   OH243081   7.268   4.209   1.460
14375TIP3    H143082   7.225   4.194   1.375
14375TIP3    H243083   7.322   4.287   1.446
14376TIP3   OH243084   0.752   0.704   0.163
14376TIP3    H143085   0.783   0.794   0.169
14376TIP3    H243086   0.667   0.705   0.207
14377TIP3   OH243087   1.143   7.228   5.724
14377TIP3    H143088   1.084   7.212   5.797
14377TIP3    H243089   1.127   7.319   5.699
14378TIP3   OH243090   3.780   1.435   1.161
14378TIP3    H143091   3.732   1.496   1.216
14378TIP3    H243092   3.869   1.435   1.196
14379TIP3   OH243093   6.424   5.103   0.529
14379TIP3    H143094   6.498   5.160   0.548
14379TIP3    H243095   6.374   5.150   0.462
14380TIP3   OH243096   1.825   0.351   6.697
14380TIP3    H143097   1.774   0.391   6.627
14380TIP3    H243098   1.811   0.257   6.685
14381TIP3   OH243099   6.586   1.562   3.053
14381TIP3    H143100   6.560   1.475   3.084
14381TIP3    H243101   6.630   1.602   3.127
14382TIP3   OH243102   2.504   6.372   2.396
14382TIP3    H143103   2.503   6.277   2.382
14382TIP3    H243104   2.591   6.399   2.367
14383TIP3   OH243105   4.300   2.217   0.101
14383TIP3    H143106   4.394   2.224   0.081
14383TIP3    H243107   4.296   2.157   0.176
14384TIP3   OH243108   2.664   1.866   4.170
14384TIP3    H143109   2.750   1.831   4.194
14384TIP3    H243110   2.603   1.822   4.229
14385TIP3   OH243111   2.347   3.880   5.233
14385TIP3    H143112   2.385   3.904   5.317
14385TIP3    H243113   2.330   3.964   5.190
14386TIP3   OH243114   7.602   6.074   4.232
14386TIP3    H143115   7.652   6.076   4.314
14386TIP3    H243116   7.667   6.090   4.164
14387TIP3   OH243117  -0.026   5.488   2.980
14387TIP3    H143118  -0.077   5.530   2.911
14387TIP3    H243119   0.059   5.533   2.979
14388TIP3   OH243120   0.731   6.438   0.815
14388TIP3    H143121   0.806   6.437   0.873
14388TIP3    H243122   0.698   6.527   0.819
14389TIP3   OH243123   7.376   2.794   2.081
14389TIP3    H143124   7.392   2.704   2.109
14389TIP3    H243125   7.434   2.807   2.006
14390TIP3   OH243126   1.851   7.519   3.619
14390TIP3    H143127   1.887   7.529   3.531
14390TIP3    H243128   1.926   7.499   3.674
14391TIP3   OH243129   7.089   7.212   2.652
14391TIP3    H143130   7.161   7.261   2.691
14391TIP3    H243131   7.038   7.180   2.726
14392TIP3   OH243132   3.550   4.510   1.677
14392TIP3    H143133   3.623   4.448   1.686
14392TIP3    H243134   3.570   4.579   1.741
14393TIP3   OH243135   1.170   5.073   3.768
14393TIP3    H143136   1.164   5.062   3.863
14393TIP3    H243137   1.201   5.163   3.756
14394TIP3   OH243138   4.014   4.249   4.857
14394TIP3    H143139   3.955   4.322   4.841
14394TIP3    H243140   3.958   4.172   4.858
14395TIP3   OH243141   4.368   5.245   5.302
14395TIP3    H143142   4.463   5.248   5.304
14395TIP3    H243143   4.345   5.172   5.360
14396TIP3   OH243144   4.716   6.742   0.262
14396TIP3    H143145   4.709   6.690   0.342
14396TIP3    H243146   4.748   6.680   0.196
14397TIP3   OH243147   6.388   4.190   1.203
14397TIP3    H143148   6.388   4.284   1.189
14397TIP3    H243149   6.435   4.178   1.286
14398TIP3   OH243150   3.992   5.065   1.054
14398TIP3    H143151   3.994   5.135   0.989
14398TIP3    H243152   4.035   4.991   1.011
14399TIP3   OH243153   8.096   4.703   1.350
14399TIP3    H143154   8.151   4.685   1.426
14399TIP3    H243155   8.148   4.764   1.297
14400TIP3   OH243156   1.700   1.600   5.180
14400TIP3    H143157   1.793   1.597   5.202
14400TIP3    H243158   1.676   1.509   5.164
14401TIP3   OH243159   4.900   5.571   1.562
14401TIP3    H143160   4.983   5.530   1.537
14401TIP3    H243161   4.859   5.594   1.479
14402TIP3   OH243162   6.994   1.181   0.071
14402TIP3    H143163   7.049   1.106   0.049
14402TIP3    H243164   7.056   1.250   0.094
14403TIP3   OH243165   0.978   1.806   1.450
14403TIP3    H143166   1.054   1.784   1.395
14403TIP3    H243167   0.990   1.899   1.470
14404TIP3   OH243168   4.723   3.670   1.723
14404TIP3    H143169   4.742   3.663   1.629
14404TIP3    H243170   4.761   3.754   1.748
14405TIP3   OH243171   6.063   4.468   3.123
14405TIP3    H143172   6.130   4.498   3.062
14405TIP3    H243173   6.034   4.384   3.088
14406TIP3   OH243174   7.170   6.681   2.910
14406TIP3    H143175   7.093   6.627   2.897
14406TIP3    H243176   7.221   6.669   2.830
14407TIP3   OH243177   7.080   5.323   4.190
14407TIP3    H143178   7.115   5.314   4.278
14407TIP3    H243179   7.126   5.257   4.139
14408TIP3   OH243180   3.821   6.290   0.575
14408TIP3    H143181   3.777   6.238   0.508
14408TIP3    H243182   3.873   6.226   0.624
14409TIP3   OH243183   1.218   2.115   1.379
14409TIP3    H143184   1.204   2.032   1.334
14409TIP3    H243185   1.285   2.097   1.444
14410TIP3   OH243186   2.468   5.569   4.036
14410TIP3    H143187   2.509   5.499   3.986
14410TIP3    H243188   2.533   5.593   4.102
14411TIP3   OH243189   0.712   1.368   6.565
14411TIP3    H143190   0.733   1.311   6.491
14411TIP3    H243191   0.722   1.456   6.531
14412TIP3   OH243192   1.597   7.522   1.066
14412TIP3    H143193   1.634   7.561   1.146
14412TIP3    H243194   1.564   7.436   1.095
14413TIP3   OH243195   6.390   7.583   1.632
14413TIP3    H143196   6.407   7.673   1.605
14413TIP3    H243197   6.295   7.575   1.631
14414TIP3   OH243198   6.439   1.417   3.916
14414TIP3    H143199   6.432   1.427   4.011
14414TIP3    H243200   6.362   1.366   3.891
14415TIP3   OH243201   5.961   6.534   1.799
14415TIP3    H143202   5.977   6.619   1.840
14415TIP3    H243203   5.866   6.524   1.801
14416TIP3   OH243204   3.120   7.595   5.585
14416TIP3    H143205   3.092   7.570   5.498
14416TIP3    H243206   3.094   7.522   5.641
14417TIP3   OH243207   2.384   0.048   2.597
14417TIP3    H143208   2.360   0.117   2.658
14417TIP3    H243209   2.465   0.011   2.633
14418TIP3   OH243210   7.113   0.103   2.611
14418TIP3    H143211   7.085   0.177   2.556
14418TIP3    H243212   7.066   0.028   2.577
14419TIP3   OH243213   6.015   4.122   5.765
14419TIP3    H143214   6.076   4.109   5.693
14419TIP3    H243215   5.935   4.077   5.738
14420TIP3   OH243216   2.513   4.880   1.022
14420TIP3    H143217   2.462   4.942   0.970
14420TIP3    H243218   2.603   4.912   1.016
14421TIP3   OH243219   5.883   6.676   4.359
14421TIP3    H143220   5.808   6.620   4.340
14421TIP3    H243221   5.892   6.671   4.454
14422TIP3   OH243222   0.435   2.547   2.020
14422TIP3    H143223   0.391   2.466   1.992
14422TIP3    H243224   0.411   2.556   2.112
14423TIP3   OH243225   1.491   5.036   3.812
14423TIP3    H143226   1.488   4.948   3.773
14423TIP3    H243227   1.427   5.086   3.762
14424TIP3   OH243228   5.785   4.170   5.403
14424TIP3    H143229   5.788   4.214   5.319
14424TIP3    H243230   5.842   4.093   5.392
14425TIP3   OH243231   8.132   3.482   1.607
14425TIP3    H143232   8.102   3.438   1.528
14425TIP3    H243233   8.196   3.546   1.577
14426TIP3   OH243234   5.114   0.493   4.849
14426TIP3    H143235   5.033   0.542   4.835
14426TIP3    H243236   5.131   0.450   4.766
14427TIP3   OH243237   1.414   1.499   3.182
14427TIP3    H143238   1.451   1.413   3.200
14427TIP3    H243239   1.329   1.481   3.142
14428TIP3   OH243240   6.903   2.100   0.562
14428TIP3    H143241   6.989   2.136   0.585
14428TIP3    H243242   6.911   2.075   0.470
14429TIP3   OH243243   0.208   5.624   2.954
14429TIP3    H143244   0.247   5.710   2.963
14429TIP3    H243245   0.281   5.563   2.963
14430TIP3   OH243246   3.385   1.154   3.257
14430TIP3    H143247   3.320   1.221   3.241
14430TIP3    H243248   3.335   1.078   3.287
14431TIP3   OH243249   2.951   7.232   0.071
14431TIP3    H143250   2.861   7.265   0.071
14431TIP3    H243251   2.947   7.153   0.017
14432TIP3   OH243252   7.032   4.034   6.321
14432TIP3    H143253   6.997   3.983   6.248
14432TIP3    H243254   7.042   3.970   6.392
14433TIP3   OH243255   1.486   7.394   5.151
14433TIP3    H143256   1.454   7.442   5.227
14433TIP3    H243257   1.426   7.320   5.141
14434TIP3   OH243258   2.766   7.840   3.552
14434TIP3    H143259   2.744   7.830   3.645
14434TIP3    H243260   2.818   7.763   3.531
14435TIP3   OH243261   6.143   5.639   1.043
14435TIP3    H143262   6.072   5.690   1.005
14435TIP3    H243263   6.183   5.594   0.969
14436TIP3   OH243264   2.436   3.529   4.297
14436TIP3    H143265   2.391   3.614   4.302
14436TIP3    H243266   2.500   3.533   4.369
14437TIP3   OH243267   2.949   0.733   3.677
14437TIP3    H143268   2.869   0.756   3.630
14437TIP3    H243269   2.995   0.816   3.688
14438TIP3   OH243270   0.221   4.974   1.079
14438TIP3    H143271   0.249   5.062   1.105
14438TIP3    H243272   0.193   4.984   0.988
14439TIP3   OH243273   0.761   7.363   2.934
14439TIP3    H143274   0.761   7.431   2.866
14439TIP3    H243275   0.834   7.388   2.991
14440TIP3   OH243276   6.101   7.715   5.761
14440TIP3    H143277   6.092   7.796   5.711
14440TIP3    H243278   6.120   7.744   5.850
14441TIP3   OH243279   8.284   6.653   2.286
14441TIP3    H143280   8.209   6.695   2.244
14441TIP3    H243281   8.251   6.628   2.373
14442TIP3   OH243282   8.170   0.303   5.750
14442TIP3    H143283   8.147   0.350   5.670
14442TIP3    H243284   8.151   0.211   5.730
14443TIP3   OH243285   4.781   2.265   1.245
14443TIP3    H143286   4.712   2.223   1.194
14443TIP3    H243287   4.737   2.292   1.326
14444TIP3   OH243288   6.940   6.635   0.142
14444TIP3    H143289   7.024   6.680   0.152
14444TIP3    H243290   6.879   6.685   0.198
14445TIP3   OH243291   2.064   1.234   5.501
14445TIP3    H143292   2.034   1.148   5.530
14445TIP3    H243293   2.046   1.235   5.407
14446TIP3   OH243294   0.384   3.395   5.354
14446TIP3    H143295   0.346   3.454   5.420
14446TIP3    H243296   0.308   3.362   5.305
14447TIP3   OH243297   0.843   4.858   5.904
14447TIP3    H143298   0.899   4.852   5.827
14447TIP3    H243299   0.871   4.785   5.960
14448TIP3   OH243300   6.807   3.259   5.904
14448TIP3    H143301   6.816   3.166   5.887
14448TIP3    H243302   6.747   3.291   5.836
14449TIP3   OH243303   5.310   1.716   0.952
14449TIP3    H143304   5.332   1.764   1.031
14449TIP3    H243305   5.319   1.623   0.976
14450TIP3   OH243306   3.388   0.648   6.524
14450TIP3    H143307   3.468   0.631   6.474
14450TIP3    H243308   3.322   0.668   6.458
14451TIP3   OH243309   3.620   4.857   2.164
14451TIP3    H143310   3.557   4.793   2.130
14451TIP3    H243311   3.657   4.816   2.241
14452TIP3   OH243312   0.739   4.294   3.482
14452TIP3    H143313   0.688   4.261   3.408
14452TIP3    H243314   0.801   4.224   3.502
14453TIP3   OH243315   2.511   4.677   3.923
14453TIP3    H143316   2.477   4.765   3.938
14453TIP3    H243317   2.499   4.632   4.007
14454TIP3   OH243318   3.991   6.506   6.084
14454TIP3    H143319   4.004   6.445   6.011
14454TIP3    H243320   3.925   6.567   6.052
14455TIP3   OH243321   3.000   4.396   2.475
14455TIP3    H143322   2.988   4.363   2.386
14455TIP3    H243323   2.946   4.475   2.479
14456TIP3   OH243324   0.977   4.929   2.170
14456TIP3    H143325   1.018   4.992   2.111
14456TIP3    H243326   1.034   4.852   2.166
14457TIP3   OH243327   1.813   2.153   3.334
14457TIP3    H143328   1.854   2.233   3.367
14457TIP3    H243329   1.771   2.114   3.410
14458TIP3   OH243330   3.403   3.162   3.150
14458TIP3    H143331   3.442   3.131   3.231
14458TIP3    H243332   3.309   3.164   3.168
14459TIP3   OH243333   6.579   7.693   4.047
14459TIP3    H143334   6.537   7.702   3.962
14459TIP3    H243335   6.665   7.734   4.035
14460TIP3   OH243336   3.126   3.474   0.964
14460TIP3    H143337   3.062   3.418   0.919
14460TIP3    H243338   3.146   3.543   0.901
14461TIP3   OH243339   5.553   1.178   2.298
14461TIP3    H143340   5.565   1.128   2.379
14461TIP3    H243341   5.460   1.171   2.278
14462TIP3   OH243342   2.604   2.746   6.361
14462TIP3    H143343   2.606   2.652   6.343
14462TIP3    H243344   2.605   2.753   6.456
14463TIP3   OH243345   2.777   5.187   5.083
14463TIP3    H143346   2.695   5.156   5.121
14463TIP3    H243347   2.839   5.116   5.096
14464TIP3   OH243348   7.008   5.634   1.303
14464TIP3    H143349   6.946   5.576   1.347
14464TIP3    H243350   6.954   5.704   1.266
14465TIP3   OH243351   0.322   3.295   1.390
14465TIP3    H143352   0.306   3.309   1.483
14465TIP3    H243353   0.235   3.295   1.350
14466TIP3   OH243354   0.472   2.329   4.736
14466TIP3    H143355   0.568   2.327   4.730
14466TIP3    H243356   0.452   2.274   4.812
14467TIP3   OH243357   4.279   2.524   2.341
14467TIP3    H143358   4.188   2.540   2.317
14467TIP3    H243359   4.293   2.431   2.320
14468TIP3   OH243360   3.041   0.708   4.660
14468TIP3    H143361   2.974   0.775   4.653
14468TIP3    H243362   3.124   0.755   4.656
14469TIP3   OH243363   3.386   6.695   6.621
14469TIP3    H143364   3.439   6.647   6.685
14469TIP3    H243365   3.370   6.633   6.551
14470TIP3   OH243366   6.957   5.834   3.675
14470TIP3    H143367   7.041   5.837   3.628
14470TIP3    H243368   6.893   5.811   3.609
14471TIP3   OH243369   3.813   7.101   1.498
14471TIP3    H143370   3.817   7.049   1.417
14471TIP3    H243371   3.884   7.066   1.552
14472TIP3   OH243372   3.089   7.012   5.920
14472TIP3    H143373   3.026   7.028   5.851
14472TIP3    H243374   3.077   7.084   5.981
14473TIP3   OH243375   6.096   4.573   0.769
14473TIP3    H143376   6.187   4.582   0.741
14473TIP3    H243377   6.049   4.641   0.719
14474TIP3   OH243378   4.100   5.050   4.875
14474TIP3    H143379   4.061   5.130   4.909
14474TIP3    H243380   4.143   5.010   4.951
14475TIP3   OH243381   1.299   2.822   2.182
14475TIP3    H143382   1.312   2.779   2.097
14475TIP3    H243383   1.388   2.847   2.209
14476TIP3   OH243384   7.901   1.295   6.040
14476TIP3    H143385   7.966   1.255   6.097
14476TIP3    H243386   7.913   1.389   6.050
14477TIP3   OH243387   2.441   3.970   0.399
14477TIP3    H143388   2.428   3.879   0.372
14477TIP3    H243389   2.532   3.973   0.429
14478TIP3   OH243390   2.989   1.866   0.350
14478TIP3    H143391   2.994   1.790   0.291
14478TIP3    H243392   3.077   1.873   0.387
14479TIP3   OH243393   0.882   3.462   3.135
14479TIP3    H143394   0.895   3.391   3.072
14479TIP3    H243395   0.816   3.428   3.195
14480TIP3   OH243396   5.637   6.859   0.122
14480TIP3    H143397   5.669   6.810   0.046
14480TIP3    H243398   5.574   6.800   0.164
14481TIP3   OH243399   0.976   6.127   1.611
14481TIP3    H143400   0.993   6.152   1.520
14481TIP3    H243401   1.045   6.065   1.633
14482TIP3   OH243402   3.195   7.250   4.813
14482TIP3    H143403   3.190   7.343   4.791
14482TIP3    H243404   3.287   7.227   4.799
14483TIP3   OH243405   1.550   3.545   0.052
14483TIP3    H143406   1.584   3.613   0.110
14483TIP3    H243407   1.468   3.582   0.017
14484TIP3   OH243408   5.841   7.658   6.642
14484TIP3    H143409   5.929   7.689   6.623
14484TIP3    H243410   5.784   7.725   6.605
14485TIP3   OH243411   4.293   7.044   3.054
14485TIP3    H143412   4.295   6.993   3.135
14485TIP3    H243413   4.319   7.132   3.080
14486TIP3   OH243414   2.230   0.441   4.891
14486TIP3    H143415   2.227   0.477   4.979
14486TIP3    H243416   2.139   0.424   4.869
14487TIP3   OH243417   2.598   4.403   3.063
14487TIP3    H143418   2.592   4.498   3.073
14487TIP3    H243419   2.531   4.369   3.122
14488TIP3   OH243420   6.872   4.491   4.823
14488TIP3    H143421   6.902   4.572   4.782
14488TIP3    H243422   6.944   4.465   4.880
14489TIP3   OH243423   5.735   2.076   5.108
14489TIP3    H143424   5.714   2.107   5.020
14489TIP3    H243425   5.675   2.003   5.122
14490TIP3   OH243426   7.996   7.425   5.279
14490TIP3    H143427   8.011   7.505   5.329
14490TIP3    H243428   8.013   7.451   5.188
14491TIP3   OH243429   3.808   7.634   4.221
14491TIP3    H143430   3.787   7.632   4.314
14491TIP3    H243431   3.728   7.667   4.180
14492TIP3   OH243432   4.684   1.873   0.073
14492TIP3    H143433   4.601   1.832   0.050
14492TIP3    H243434   4.661   1.965   0.091
14493TIP3   OH243435   2.298   3.104   2.103
14493TIP3    H143436   2.344   3.085   2.185
14493TIP3    H243437   2.258   3.190   2.117
14494TIP3   OH243438   1.109   6.116   2.942
14494TIP3    H143439   1.044   6.117   2.871
14494TIP3    H243440   1.150   6.202   2.938
14495TIP3   OH243441   2.679   1.755   2.289
14495TIP3    H143442   2.610   1.703   2.330
14495TIP3    H243443   2.632   1.814   2.230
14496TIP3   OH243444   1.468   6.721   3.496
14496TIP3    H143445   1.542   6.773   3.463
14496TIP3    H243446   1.498   6.630   3.491
14497TIP3   OH243447   1.851   3.431   3.176
14497TIP3    H143448   1.892   3.479   3.248
14497TIP3    H243449   1.839   3.496   3.108
14498TIP3   OH243450   6.928   0.634   2.100
14498TIP3    H143451   6.878   0.654   2.021
14498TIP3    H243452   6.893   0.550   2.130
14499TIP3   OH243453   2.620   0.941   1.216
14499TIP3    H143454   2.649   0.894   1.293
14499TIP3    H243455   2.613   1.032   1.244
14500TIP3   OH243456   7.071   2.660   6.292
14500TIP3    H143457   7.165   2.677   6.296
14500TIP3    H243458   7.057   2.621   6.206
14501TIP3   OH243459   7.983   2.138   6.374
14501TIP3    H143460   7.900   2.185   6.373
14501TIP3    H243461   7.986   2.091   6.291
14502TIP3   OH243462   7.657   7.258   2.912
14502TIP3    H143463   7.617   7.302   2.987
14502TIP3    H243464   7.586   7.244   2.850
14503TIP3   OH243465   6.178   1.078   3.450
14503TIP3    H143466   6.137   1.089   3.536
14503TIP3    H243467   6.251   1.018   3.465
14504TIP3   OH243468   0.717   3.449   0.179
14504TIP3    H143469   0.732   3.367   0.226
14504TIP3    H243470   0.650   3.494   0.229
14505TIP3   OH243471   3.507   3.467   4.678
14505TIP3    H143472   3.539   3.523   4.750
14505TIP3    H243473   3.433   3.516   4.642
14506TIP3   OH243474   1.823   5.135  -0.007
14506TIP3    H143475   1.761   5.157   0.064
14506TIP3    H243476   1.768   5.130  -0.085
14507TIP3   OH243477   3.190   7.224   0.151
14507TIP3    H143478   3.104   7.237   0.111
14507TIP3    H243479   3.204   7.129   0.147
14508TIP3   OH243480   2.640   2.296   2.150
14508TIP3    H143481   2.709   2.281   2.214
14508TIP3    H243482   2.665   2.377   2.106
14509TIP3   OH243483   7.250   5.428   3.809
14509TIP3    H143484   7.244   5.346   3.760
14509TIP3    H243485   7.302   5.486   3.753
14510TIP3   OH243486   3.625   4.210   5.406
14510TIP3    H143487   3.614   4.225   5.500
14510TIP3    H243488   3.715   4.237   5.388
14511TIP3   OH243489   3.141   3.471   3.114
14511TIP3    H143490   3.104   3.415   3.182
14511TIP3    H243491   3.074   3.474   3.046
14512TIP3   OH243492   4.849   1.140   0.952
14512TIP3    H143493   4.778   1.088   0.915
14512TIP3    H243494   4.824   1.230   0.936
14513TIP3   OH243495   1.971   4.883   2.806
14513TIP3    H143496   2.005   4.804   2.849
14513TIP3    H243497   2.049   4.935   2.788
14514TIP3   OH243498   0.619   6.681   0.743
14514TIP3    H143499   0.644   6.754   0.688
14514TIP3    H243500   0.524   6.688   0.752
14515TIP3   OH243501   4.347   5.494   3.150
14515TIP3    H143502   4.424   5.529   3.105
14515TIP3    H243503   4.330   5.410   3.107
14516TIP3   OH243504   2.531   5.096   5.233
14516TIP3    H143505   2.484   5.013   5.236
14516TIP3    H243506   2.609   5.083   5.286
14517TIP3   OH243507   1.821   6.796   3.849
14517TIP3    H143508   1.838   6.718   3.797
14517TIP3    H243509   1.731   6.820   3.828
14518TIP3   OH243510   7.333   0.797   1.470
14518TIP3    H143511   7.261   0.861   1.463
14518TIP3    H243512   7.324   0.742   1.393
14519TIP3   OH243513   3.591   4.486   0.420
14519TIP3    H143514   3.498   4.472   0.436
14519TIP3    H243515   3.635   4.452   0.498
14520TIP3   OH243516   3.612   1.155   4.245
14520TIP3    H143517   3.607   1.082   4.183
14520TIP3    H243518   3.571   1.228   4.199
14521TIP3   OH243519   6.211   2.843   3.183
14521TIP3    H143520   6.140   2.896   3.146
14521TIP3    H243521   6.262   2.904   3.236
14522TIP3   OH243522   2.602   3.984   4.793
14522TIP3    H143523   2.644   3.909   4.751
14522TIP3    H243524   2.621   4.058   4.736
14523TIP3   OH243525   1.325   1.158   4.832
14523TIP3    H143526   1.302   1.189   4.920
14523TIP3    H243527   1.412   1.120   4.843
14524TIP3   OH243528   8.313   5.825   5.886
14524TIP3    H143529   8.259   5.851   5.811
14524TIP3    H243530   8.260   5.761   5.933
14525TIP3   OH243531   1.519   7.842   1.946
14525TIP3    H143532   1.423   7.839   1.955
14525TIP3    H243533   1.543   7.754   1.918
14526TIP3   OH243534   4.492   1.477   5.759
14526TIP3    H143535   4.507   1.398   5.707
14526TIP3    H243536   4.396   1.483   5.765
14527TIP3   OH243537   2.666   4.515   1.304
14527TIP3    H143538   2.694   4.605   1.319
14527TIP3    H243539   2.739   4.462   1.336
14528TIP3   OH243540   5.137   6.397   1.075
14528TIP3    H143541   5.219   6.349   1.063
14528TIP3    H243542   5.133   6.414   1.169
14529TIP3   OH243543   3.894   6.262   6.678
14529TIP3    H143544   3.964   6.281   6.740
14529TIP3    H243545   3.882   6.167   6.684
14530TIP3   OH243546   5.912   3.087   1.513
14530TIP3    H143547   5.822   3.069   1.540
14530TIP3    H243548   5.904   3.135   1.431
14531TIP3   OH243549   2.345   5.596   1.388
14531TIP3    H143550   2.402   5.526   1.420
14531TIP3    H243551   2.402   5.673   1.383
14532TIP3   OH243552   7.692   2.391   0.261
14532TIP3    H143553   7.673   2.396   0.168
14532TIP3    H243554   7.773   2.340   0.266
14533TIP3   OH243555   7.091   3.818   6.494
14533TIP3    H143556   7.039   3.750   6.451
14533TIP3    H243557   7.145   3.771   6.557
14534TIP3   OH243558   2.967   2.786   2.780
14534TIP3    H143559   2.993   2.694   2.794
14534TIP3    H243560   3.007   2.833   2.853
14535TIP3   OH243561   3.370   6.571   2.499
14535TIP3    H143562   3.427   6.646   2.513
14535TIP3    H243563   3.330   6.586   2.414
14536TIP3   OH243564   2.177   2.935   3.809
14536TIP3    H143565   2.189   2.964   3.899
14536TIP3    H243566   2.089   2.896   3.808
14537TIP3   OH243567   4.770   7.253   3.863
14537TIP3    H143568   4.812   7.171   3.835
14537TIP3    H243569   4.803   7.318   3.801
14538TIP3   OH243570   7.957   4.437   1.598
14538TIP3    H143571   8.012   4.375   1.550
14538TIP3    H243572   7.903   4.382   1.655
14539TIP3   OH243573   2.925   6.836   1.517
14539TIP3    H143574   2.984   6.830   1.592
14539TIP3    H243575   2.882   6.921   1.528
14540TIP3   OH243576   3.698   7.673   1.232
14540TIP3    H143577   3.674   7.589   1.193
14540TIP3    H243578   3.719   7.651   1.323
14541TIP3   OH243579   0.208   5.923   1.878
14541TIP3    H143580   0.257   5.985   1.823
14541TIP3    H243581   0.193   5.848   1.822
14542TIP3   OH243582   3.094   3.672   6.759
14542TIP3    H143583   3.116   3.706   6.846
14542TIP3    H243584   3.179   3.648   6.721
14543TIP3   OH243585   6.719   5.970   0.320
14543TIP3    H143586   6.790   5.944   0.261
14543TIP3    H243587   6.651   5.904   0.306
14544TIP3   OH243588   3.875   5.710   0.319
14544TIP3    H143589   3.934   5.635   0.312
14544TIP3    H243590   3.813   5.699   0.246
14545TIP3   OH243591   5.948   2.104   0.221
14545TIP3    H143592   6.035   2.125   0.254
14545TIP3    H243593   5.963   2.064   0.136
14546TIP3   OH243594   2.601   4.842   4.465
14546TIP3    H143595   2.538   4.803   4.525
14546TIP3    H243596   2.566   4.929   4.445
14547TIP3   OH243597   3.544   4.259   4.435
14547TIP3    H143598   3.468   4.301   4.394
14547TIP3    H243599   3.575   4.196   4.370
14548TIP3   OH243600   5.403   3.972   5.907
14548TIP3    H143601   5.475   3.933   5.958
14548TIP3    H243602   5.444   3.997   5.824
14549TIP3   OH243603   2.984   6.296   4.153
14549TIP3    H143604   2.925   6.369   4.171
14549TIP3    H243605   3.049   6.332   4.092
14550TIP3   OH243606   4.230   1.889   1.897
14550TIP3    H143607   4.148   1.908   1.851
14550TIP3    H243608   4.207   1.894   1.990
14551TIP3   OH243609   1.663   2.677   3.373
14551TIP3    H143610   1.666   2.614   3.445
14551TIP3    H243611   1.627   2.757   3.411
14552TIP3   OH243612   3.845   5.746   6.171
14552TIP3    H143613   3.890   5.663   6.186
14552TIP3    H243614   3.915   5.812   6.171
14553TIP3   OH243615   0.166   1.177   6.091
14553TIP3    H143616   0.214   1.161   6.010
14553TIP3    H243617   0.144   1.090   6.124
14554TIP3   OH243618   0.924   1.587   0.985
14554TIP3    H143619   0.883   1.501   0.992
14554TIP3    H243620   0.852   1.648   0.967
14555TIP3   OH243621   6.195   4.920   4.970
14555TIP3    H143622   6.157   4.966   5.045
14555TIP3    H243623   6.150   4.958   4.894
14556TIP3   OH243624   7.092   1.068   2.731
14556TIP3    H143625   7.066   0.997   2.673
14556TIP3    H243626   7.023   1.134   2.719
14557TIP3   OH243627   0.578   4.398   4.869
14557TIP3    H143628   0.485   4.404   4.891
14557TIP3    H243629   0.617   4.352   4.942
14558TIP3   OH243630   6.304   6.476   5.076
14558TIP3    H143631   6.307   6.472   5.172
14558TIP3    H243632   6.393   6.504   5.051
14559TIP3   OH243633   6.507   2.166   0.687
14559TIP3    H143634   6.442   2.201   0.748
14559TIP3    H243635   6.589   2.206   0.713
14560TIP3   OH243636   2.842   6.685   2.417
14560TIP3    H143637   2.765   6.654   2.464
14560TIP3    H243638   2.890   6.737   2.482
14561TIP3   OH243639   3.704   6.057   0.030
14561TIP3    H143640   3.710   6.118   0.104
14561TIP3    H243641   3.790   6.062  -0.012
14562TIP3   OH243642   8.306   4.762   0.895
14562TIP3    H143643   8.304   4.690   0.958
14562TIP3    H243644   8.243   4.737   0.828
14563TIP3   OH243645   1.457   7.134   1.381
14563TIP3    H143646   1.384   7.133   1.442
14563TIP3    H243647   1.488   7.225   1.382
14564TIP3   OH243648   4.741   6.483   3.718
14564TIP3    H143649   4.715   6.398   3.752
14564TIP3    H243650   4.769   6.532   3.795
14565TIP3   OH243651   8.183   1.633   2.852
14565TIP3    H143652   8.160   1.726   2.849
14565TIP3    H243653   8.106   1.591   2.889
14566TIP3   OH243654   5.841   2.638   2.132
14566TIP3    H143655   5.762   2.600   2.094
14566TIP3    H243656   5.860   2.583   2.208
14567TIP3   OH243657   4.395   6.376   4.251
14567TIP3    H143658   4.305   6.397   4.276
14567TIP3    H243659   4.449   6.429   4.310
14568TIP3   OH243660   1.880   3.145   2.783
14568TIP3    H143661   1.909   3.233   2.760
14568TIP3    H243662   1.913   3.131   2.872
14569TIP3   OH243663   6.036   1.531   0.510
14569TIP3    H143664   5.974   1.595   0.475
14569TIP3    H243665   6.025   1.537   0.605
14570TIP3   OH243666   5.197   2.751   0.342
14570TIP3    H143667   5.225   2.680   0.399
14570TIP3    H243668   5.153   2.813   0.400
14571TIP3   OH243669   5.662   2.392   3.251
14571TIP3    H143670   5.624   2.462   3.303
14571TIP3    H243671   5.732   2.435   3.201
14572TIP3   OH243672   5.633   4.503   2.411
14572TIP3    H143673   5.696   4.540   2.349
14572TIP3    H243674   5.582   4.441   2.359
14573TIP3   OH243675   7.791   7.311   2.133
14573TIP3    H143676   7.788   7.266   2.218
14573TIP3    H243677   7.882   7.340   2.125
14574TIP3   OH243678   8.100   5.763   1.334
14574TIP3    H143679   8.022   5.731   1.381
14574TIP3    H243680   8.155   5.686   1.323
14575TIP3   OH243681   6.938   3.848   1.714
14575TIP3    H143682   6.872   3.781   1.697
14575TIP3    H243683   6.963   3.880   1.627
14576TIP3   OH243684   1.955   3.782   4.461
14576TIP3    H143685   1.926   3.846   4.396
14576TIP3    H243686   2.024   3.828   4.510
14577TIP3   OH243687   2.992   4.998   2.200
14577TIP3    H143688   3.083   5.024   2.183
14577TIP3    H243689   2.975   5.026   2.290
14578TIP3   OH243690   5.188   0.184   2.240
14578TIP3    H143691   5.128   0.171   2.314
14578TIP3    H243692   5.215   0.275   2.247
14579TIP3   OH243693   5.605   0.587   3.676
14579TIP3    H143694   5.621   0.671   3.719
14579TIP3    H243695   5.518   0.595   3.638
14580TIP3   OH243696   3.066   3.390   0.214
14580TIP3    H143697   3.104   3.304   0.199
14580TIP3    H243698   2.988   3.393   0.159
14581TIP3   OH243699   3.966   6.671   6.622
14581TIP3    H143700   4.038   6.634   6.570
14581TIP3    H243701   3.937   6.748   6.572
14582TIP3   OH243702   7.761   6.265   5.699
14582TIP3    H143703   7.729   6.221   5.777
14582TIP3    H243704   7.756   6.199   5.630
14583TIP3   OH243705   5.720   6.405   2.583
14583TIP3    H143706   5.794   6.351   2.611
14583TIP3    H243707   5.666   6.413   2.662
14584TIP3   OH243708   4.124   4.760   4.369
14584TIP3    H143709   4.082   4.756   4.283
14584TIP3    H243710   4.152   4.851   4.378
14585TIP3   OH243711   5.672   5.653   0.186
14585TIP3    H143712   5.589   5.699   0.190
14585TIP3    H243713   5.648   5.562   0.167
14586TIP3   OH243714   5.381   3.790   2.287
14586TIP3    H143715   5.306   3.844   2.261
14586TIP3    H243716   5.348   3.701   2.284
14587TIP3   OH243717   2.897   2.380   6.156
14587TIP3    H143718   2.975   2.407   6.205
14587TIP3    H243719   2.931   2.334   6.079
14588TIP3   OH243720   0.350   5.106   3.710
14588TIP3    H143721   0.365   5.097   3.804
14588TIP3    H243722   0.292   5.032   3.688
14589TIP3   OH243723   3.123   4.148   0.260
14589TIP3    H143724   3.103   4.056   0.278
14589TIP3    H243725   3.120   4.155   0.164
14590TIP3   OH243726   5.129   7.827   4.298
14590TIP3    H143727   5.067   7.847   4.228
14590TIP3    H243728   5.075   7.805   4.373
14591TIP3   OH243729   2.283   5.069   1.653
14591TIP3    H143730   2.268   5.031   1.740
14591TIP3    H243731   2.238   5.153   1.656
14592TIP3   OH243732   3.657   1.226   0.640
14592TIP3    H143733   3.734   1.169   0.633
14592TIP3    H243734   3.592   1.173   0.686
14593TIP3   OH243735   3.816   2.220   0.768
14593TIP3    H143736   3.803   2.312   0.742
14593TIP3    H243737   3.888   2.224   0.831
14594TIP3   OH243738   1.078   3.992   0.553
14594TIP3    H143739   1.051   4.029   0.469
14594TIP3    H243740   1.107   4.068   0.604
14595TIP3   OH243741   7.379   6.270   4.290
14595TIP3    H143742   7.436   6.195   4.275
14595TIP3    H243743   7.338   6.252   4.375
14596TIP3   OH243744   3.798   4.436   5.837
14596TIP3    H143745   3.852   4.511   5.862
14596TIP3    H243746   3.766   4.457   5.749
14597TIP3   OH243747   7.125   5.451   6.454
14597TIP3    H143748   7.127   5.362   6.489
14597TIP3    H243749   7.037   5.461   6.417
14598TIP3   OH243750   6.937   0.919   0.590
14598TIP3    H143751   6.887   0.953   0.515
14598TIP3    H243752   6.873   0.867   0.639
14599TIP3   OH243753   3.294   4.084   2.379
14599TIP3    H143754   3.330   4.103   2.293
14599TIP3    H243755   3.282   4.171   2.419
14600TIP3   OH243756   6.577   3.162   2.464
14600TIP3    H143757   6.505   3.100   2.453
14600TIP3    H243758   6.636   3.143   2.391
14601TIP3   OH243759   5.477   3.280   6.689
14601TIP3    H143760   5.488   3.185   6.692
14601TIP3    H243761   5.514   3.306   6.605
14602TIP3   OH243762   2.272   5.598   0.333
14602TIP3    H143763   2.188   5.633   0.306
14602TIP3    H243764   2.251   5.537   0.404
14603TIP3   OH243765   7.909   1.044   5.096
14603TIP3    H143766   7.985   1.102   5.092
14603TIP3    H243767   7.863   1.060   5.013
14604TIP3   OH243768   5.866   7.237   5.395
14604TIP3    H143769   5.788   7.292   5.398
14604TIP3    H243770   5.835   7.151   5.426
14605TIP3   OH243771   3.249   3.662   5.232
14605TIP3    H143772   3.216   3.688   5.317
14605TIP3    H243773   3.321   3.601   5.252
14606TIP3   OH243774   0.645   3.840   1.457
14606TIP3    H143775   0.718   3.815   1.514
14606TIP3    H243776   0.571   3.788   1.488
14607TIP3   OH243777   4.931   6.365   6.720
14607TIP3    H143778   4.951   6.322   6.637
14607TIP3    H243779   4.837   6.385   6.715
14608TIP3   OH243780   7.880   5.117   1.016
14608TIP3    H143781   7.946   5.050   0.998
14608TIP3    H243782   7.904   5.152   1.102
14609TIP3   OH243783   7.760   5.055   1.596
14609TIP3    H143784   7.714   4.985   1.549
14609TIP3    H243785   7.805   5.010   1.668
14610TIP3   OH243786   7.711   1.421   4.367
14610TIP3    H143787   7.743   1.337   4.333
14610TIP3    H243788   7.706   1.477   4.289
14611TIP3   OH243789   0.501   0.513   3.352
14611TIP3    H143790   0.540   0.565   3.281
14611TIP3    H243791   0.447   0.574   3.400
14612TIP3   OH243792   3.485   0.430   6.300
14612TIP3    H143793   3.391   0.411   6.292
14612TIP3    H243794   3.507   0.405   6.390
14613TIP3   OH243795   0.651   5.469   2.348
14613TIP3    H143796   0.570   5.515   2.373
14613TIP3    H243797   0.714   5.539   2.331
14614TIP3   OH243798   2.654   5.247   3.355
14614TIP3    H143799   2.605   5.329   3.353
14614TIP3    H243800   2.678   5.235   3.447
14615TIP3   OH243801   6.832   5.766   5.420
14615TIP3    H143802   6.840   5.785   5.513
14615TIP3    H243803   6.754   5.710   5.414
14616TIP3   OH243804   6.361   4.004   4.791
14616TIP3    H143805   6.318   3.961   4.717
14616TIP3    H243806   6.447   3.963   4.796
14617TIP3   OH243807   6.142   7.275   6.430
14617TIP3    H143808   6.229   7.257   6.467
14617TIP3    H243809   6.084   7.278   6.507
14618TIP3   OH243810   7.486   7.680   0.202
14618TIP3    H143811   7.482   7.627   0.123
14618TIP3    H243812   7.546   7.632   0.259
14619TIP3   OH243813   3.400   5.668   2.787
14619TIP3    H143814   3.475   5.637   2.838
14619TIP3    H243815   3.388   5.760   2.814
14620TIP3   OH243816   5.896   3.561   2.241
14620TIP3    H143817   5.966   3.548   2.305
14620TIP3    H243818   5.940   3.550   2.156
14621TIP3   OH243819   3.317   0.776   3.935
14621TIP3    H143820   3.291   0.718   4.006
14621TIP3    H243821   3.400   0.741   3.903
14622TIP3   OH243822   1.401   1.323   3.546
14622TIP3    H143823   1.419   1.241   3.499
14622TIP3    H243824   1.311   1.345   3.522
14623TIP3   OH243825   7.511   6.846   2.321
14623TIP3    H143826   7.444   6.788   2.356
14623TIP3    H243827   7.523   6.913   2.388
14624TIP3   OH243828   2.751   0.399   4.011
14624TIP3    H143829   2.689   0.339   3.968
14624TIP3    H243830   2.760   0.471   3.949
14625TIP3   OH243831   7.187   4.872   4.107
14625TIP3    H143832   7.242   4.888   4.184
14625TIP3    H243833   7.097   4.884   4.138
14626TIP3   OH243834   1.413   3.385   0.998
14626TIP3    H143835   1.461   3.305   1.023
14626TIP3    H243836   1.360   3.359   0.923
14627TIP3   OH243837   8.269   0.599   0.409
14627TIP3    H143838   8.271   0.691   0.436
14627TIP3    H243839   8.325   0.596   0.331
14628TIP3   OH243840   4.975   3.029   3.620
14628TIP3    H143841   5.006   2.978   3.695
14628TIP3    H243842   4.882   3.009   3.615
14629TIP3   OH243843   6.313   2.654   6.576
14629TIP3    H143844   6.239   2.596   6.589
14629TIP3    H243845   6.389   2.602   6.604
14630TIP3   OH243846   5.389   6.723   0.279
14630TIP3    H143847   5.334   6.801   0.266
14630TIP3    H243848   5.425   6.734   0.367
14631TIP3   OH243849   6.897   4.955   0.662
14631TIP3    H143850   6.946   4.934   0.742
14631TIP3    H243851   6.964   4.961   0.594
14632TIP3   OH243852   4.471   2.989   5.613
14632TIP3    H143853   4.448   3.066   5.666
14632TIP3    H243854   4.560   2.966   5.641
14633TIP3   OH243855   2.630   7.251   1.043
14633TIP3    H143856   2.661   7.215   0.959
14633TIP3    H243857   2.547   7.294   1.022
14634TIP3   OH243858   6.127   0.089   1.407
14634TIP3    H143859   6.131  -0.001   1.375
14634TIP3    H243860   6.036   0.115   1.397
14635TIP3   OH243861   0.877   4.173   2.253
14635TIP3    H143862   0.900   4.115   2.180
14635TIP3    H243863   0.814   4.122   2.304
14636TIP3   OH243864   4.606   2.563   3.755
14636TIP3    H143865   4.656   2.548   3.836
14636TIP3    H243866   4.539   2.495   3.757
14637TIP3   OH243867   1.346   5.641   0.572
14637TIP3    H143868   1.404   5.598   0.510
14637TIP3    H243869   1.368   5.602   0.657
14638TIP3   OH243870   3.862   1.138   5.659
14638TIP3    H143871   3.957   1.153   5.657
14638TIP3    H243872   3.853   1.043   5.659
14639TIP3   OH243873   5.935   3.531   0.568
14639TIP3    H143874   5.998   3.528   0.641
14639TIP3    H243875   5.880   3.607   0.587
14640TIP3   OH243876   3.774   5.445   4.820
14640TIP3    H143877   3.701   5.448   4.881
14640TIP3    H243878   3.776   5.532   4.780
14641TIP3   OH243879   6.414   2.157   0.412
14641TIP3    H143880   6.439   2.248   0.394
14641TIP3    H243881   6.462   2.133   0.491
14642TIP3   OH243882   7.200   6.164   3.545
14642TIP3    H143883   7.108   6.158   3.571
14642TIP3    H243884   7.223   6.256   3.556
14643TIP3   OH243885   2.780   1.329   3.323
14643TIP3    H143886   2.766   1.365   3.235
14643TIP3    H243887   2.874   1.312   3.326
14644TIP3   OH243888   7.517   2.943   0.078
14644TIP3    H143889   7.457   2.912   0.011
14644TIP3    H243890   7.567   2.865   0.104
14645TIP3   OH243891   7.360   5.177   6.234
14645TIP3    H143892   7.348   5.233   6.310
14645TIP3    H243893   7.420   5.108   6.264
14646TIP3   OH243894   0.729   6.637   6.792
14646TIP3    H143895   0.644   6.679   6.805
14646TIP3    H243896   0.741   6.635   6.697
14647TIP3   OH243897   3.569   2.771   3.082
14647TIP3    H143898   3.575   2.747   3.175
14647TIP3    H243899   3.642   2.725   3.040
14648TIP3   OH243900   2.364   7.161   1.126
14648TIP3    H143901   2.335   7.217   1.054
14648TIP3    H243902   2.370   7.220   1.201
14649TIP3   OH243903   5.682   7.609   4.269
14649TIP3    H143904   5.710   7.690   4.312
14649TIP3    H243905   5.658   7.637   4.180
14650TIP3   OH243906   6.759   4.281   1.492
14650TIP3    H143907   6.671   4.245   1.486
14650TIP3    H243908   6.800   4.232   1.564
14651TIP3   OH243909   5.061   1.388   1.749
14651TIP3    H143910   5.099   1.345   1.826
14651TIP3    H243911   5.097   1.477   1.751
14652TIP3   OH243912   2.463   2.342   2.428
14652TIP3    H143913   2.460   2.320   2.521
14652TIP3    H243914   2.550   2.315   2.400
14653TIP3   OH243915   2.671   4.550   3.732
14653TIP3    H143916   2.749   4.604   3.741
14653TIP3    H243917   2.606   4.592   3.788
14654TIP3   OH243918   0.614   5.231   5.614
14654TIP3    H143919   0.691   5.277   5.580
14654TIP3    H243920   0.541   5.262   5.560
14655TIP3   OH243921   3.928   3.433   1.638
14655TIP3    H143922   4.020   3.410   1.647
14655TIP3    H243923   3.882   3.374   1.697
14656TIP3   OH243924   5.142   5.902   5.755
14656TIP3    H143925   5.134   5.998   5.754
14656TIP3    H243926   5.237   5.886   5.760
14657TIP3   OH243927   5.547   0.211   4.130
14657TIP3    H143928   5.478   0.164   4.176
14657TIP3    H243929   5.610   0.142   4.106
14658TIP3   OH243930   4.371   4.119   0.557
14658TIP3    H143931   4.346   4.208   0.581
14658TIP3    H243932   4.291   4.068   0.568
14659TIP3   OH243933   1.348   6.107   1.239
14659TIP3    H143934   1.390   6.142   1.318
14659TIP3    H243935   1.342   6.183   1.180
14660TIP3   OH243936   8.029   6.272   4.788
14660TIP3    H143937   7.990   6.257   4.702
14660TIP3    H243938   8.112   6.315   4.770
14661TIP3   OH243939   5.785   0.286   0.145
14661TIP3    H143940   5.811   0.278   0.053
14661TIP3    H243941   5.825   0.210   0.188
14662TIP3   OH243942   0.079   7.112   2.373
14662TIP3    H143943   0.169   7.128   2.344
14662TIP3    H243944   0.075   7.151   2.460
14663TIP3   OH243945   2.500   5.779   4.610
14663TIP3    H143946   2.493   5.783   4.705
14663TIP3    H243947   2.548   5.859   4.586
14664TIP3   OH243948   2.826   2.377   3.908
14664TIP3    H143949   2.865   2.341   3.987
14664TIP3    H243950   2.865   2.464   3.899
14665TIP3   OH243951   4.418   2.386   4.018
14665TIP3    H143952   4.363   2.380   4.096
14665TIP3    H243953   4.368   2.343   3.950
14666TIP3   OH243954   7.547   5.622   0.802
14666TIP3    H143955   7.564   5.587   0.715
14666TIP3    H243956   7.452   5.636   0.804
14667TIP3   OH243957   5.011   6.239   6.496
14667TIP3    H143958   4.935   6.219   6.442
14667TIP3    H243959   5.068   6.162   6.487
14668TIP3   OH243960   4.140   3.534   0.034
14668TIP3    H143961   4.201   3.471   0.074
14668TIP3    H243962   4.056   3.516   0.077
14669TIP3   OH243963   4.290   2.230   5.167
14669TIP3    H143964   4.251   2.235   5.254
14669TIP3    H243965   4.377   2.193   5.181
14670TIP3   OH243966   0.035   7.220   2.634
14670TIP3    H143967   0.107   7.246   2.691
14670TIP3    H243968  -0.012   7.154   2.685
14671TIP3   OH243969   7.846   6.984   4.510
14671TIP3    H143970   7.909   7.048   4.478
14671TIP3    H243971   7.784   7.035   4.562
14672TIP3   OH243972   3.493   5.481   2.229
14672TIP3    H143973   3.462   5.496   2.318
14672TIP3    H243974   3.423   5.513   2.173
14673TIP3   OH243975   2.597   2.729   3.373
14673TIP3    H143976   2.502   2.727   3.365
14673TIP3    H243977   2.616   2.817   3.408
14674TIP3   OH243978   1.788   4.431   2.403
14674TIP3    H143979   1.710   4.379   2.422
14674TIP3    H243980   1.839   4.377   2.343
14675TIP3   OH243981   2.100   4.442   0.418
14675TIP3    H143982   2.088   4.445   0.323
14675TIP3    H243983   2.044   4.512   0.452
14676TIP3   OH243984   3.475   6.104   3.230
14676TIP3    H143985   3.441   6.140   3.312
14676TIP3    H243986   3.455   6.170   3.164
14677TIP3   OH243987   0.580   4.338   2.074
14677TIP3    H143988   0.547   4.295   1.995
14677TIP3    H243989   0.536   4.293   2.146
14678TIP3   OH243990   1.117   2.679   1.437
14678TIP3    H143991   1.157   2.597   1.465
14678TIP3    H243992   1.144   2.687   1.345
14679TIP3   OH243993   2.432   3.165   5.225
14679TIP3    H143994   2.354   3.167   5.281
14679TIP3    H243995   2.456   3.257   5.215
14680TIP3   OH243996   7.546   2.398   2.014
14680TIP3    H143997   7.503   2.450   2.082
14680TIP3    H243998   7.482   2.330   1.992
14681TIP3   OH243999   4.778   3.461   3.492
14681TIP3    H144000   4.692   3.440   3.529
14681TIP3    H244001   4.840   3.429   3.557
14682TIP3   OH244002   4.637   5.142   2.421
14682TIP3    H144003   4.687   5.087   2.361
14682TIP3    H244004   4.568   5.180   2.366
14683TIP3   OH244005   7.454   7.853   3.067
14683TIP3    H144006   7.496   7.830   3.150
14683TIP3    H244007   7.517   7.911   3.024
14684TIP3   OH244008   7.644   5.179   5.454
14684TIP3    H144009   7.702   5.116   5.496
14684TIP3    H244010   7.701   5.232   5.399
14685TIP3   OH244011   3.284   5.421   4.359
14685TIP3    H144012   3.280   5.445   4.266
14685TIP3    H244013   3.193   5.403   4.383
14686TIP3   OH244014   3.075   2.437   0.186
14686TIP3    H144015   3.038   2.352   0.212
14686TIP3    H244016   3.050   2.447   0.094
14687TIP3   OH244017   1.595   5.980   5.408
14687TIP3    H144018   1.594   5.897   5.359
14687TIP3    H244019   1.503   6.001   5.421
14688TIP3   OH244020   5.379   5.078   5.680
14688TIP3    H144021   5.357   5.054   5.770
14688TIP3    H244022   5.456   5.024   5.659
14689TIP3   OH244023   3.945   5.070   1.378
14689TIP3    H144024   3.991   5.144   1.418
14689TIP3    H244025   3.946   5.089   1.285
14690TIP3   OH244026   4.684   2.185   2.747
14690TIP3    H144027   4.727   2.256   2.699
14690TIP3    H244028   4.684   2.214   2.838
14691TIP3   OH244029   2.342   5.044   0.886
14691TIP3    H144030   2.267   5.012   0.836
14691TIP3    H244031   2.303   5.094   0.958
14692TIP3   OH244032   6.230   5.451   5.930
14692TIP3    H144033   6.277   5.406   5.859
14692TIP3    H244034   6.165   5.505   5.886
14693TIP3   OH244035   5.657   7.241  -0.034
14693TIP3    H144036   5.584   7.221   0.026
14693TIP3    H244037   5.733   7.251   0.024
14694TIP3   OH244038   4.826   2.447   4.564
14694TIP3    H144039   4.811   2.435   4.470
14694TIP3    H244040   4.836   2.541   4.575
14695TIP3   OH244041   0.186   0.483   1.943
14695TIP3    H144042   0.100   0.462   1.907
14695TIP3    H244043   0.248   0.454   1.876
14696TIP3   OH244044   3.961   7.071   2.961
14696TIP3    H144045   3.980   7.047   3.052
14696TIP3    H244046   4.039   7.118   2.932
14697TIP3   OH244047   6.574   4.773   1.287
14697TIP3    H144048   6.598   4.839   1.352
14697TIP3    H244049   6.651   4.765   1.231
14698TIP3   OH244050   5.673   1.545   0.781
14698TIP3    H144051   5.643   1.522   0.869
14698TIP3    H244052   5.765   1.565   0.792
14699TIP3   OH244053   7.272   0.915   3.270
14699TIP3    H144054   7.244   0.876   3.187
14699TIP3    H244055   7.198   0.971   3.296
14700TIP3   OH244056   6.449   1.869   5.912
14700TIP3    H144057   6.435   1.956   5.950
14700TIP3    H244058   6.539   1.871   5.880
14701TIP3   OH244059   2.997   7.319   4.156
14701TIP3    H144060   3.048   7.373   4.217
14701TIP3    H244061   3.059   7.295   4.088
14702TIP3   OH244062   0.148   6.953   1.521
14702TIP3    H144063   0.201   6.919   1.592
14702TIP3    H244064   0.148   7.048   1.534
14703TIP3   OH244065   1.849   7.405   3.899
14703TIP3    H144066   1.940   7.403   3.927
14703TIP3    H244067   1.842   7.337   3.832
14704TIP3   OH244068   2.157   2.033   3.857
14704TIP3    H144069   2.097   1.993   3.920
14704TIP3    H244070   2.101   2.086   3.801
14705TIP3   OH244071   5.966   2.684   4.369
14705TIP3    H144072   5.871   2.692   4.376
14705TIP3    H244073   5.980   2.607   4.313
14706TIP3   OH244074   0.522   7.525   3.974
14706TIP3    H144075   0.496   7.549   3.886
14706TIP3    H244076   0.442   7.533   4.026
14707TIP3   OH244077   6.713   6.205   4.664
14707TIP3    H144078   6.790   6.194   4.609
14707TIP3    H244079   6.639   6.184   4.607
14708TIP3   OH244080   7.827   3.112   2.909
14708TIP3    H144081   7.824   3.200   2.870
14708TIP3    H244082   7.740   3.101   2.948
14709TIP3   OH244083   2.618   5.902   3.477
14709TIP3    H144084   2.691   5.841   3.470
14709TIP3    H244085   2.652   5.984   3.441
14710TIP3   OH244086   6.493   6.359   5.669
14710TIP3    H144087   6.584   6.342   5.693
14710TIP3    H244088   6.492   6.451   5.644
14711TIP3   OH244089   4.463   4.899   3.370
14711TIP3    H144090   4.497   4.842   3.438
14711TIP3    H244091   4.369   4.879   3.366
14712TIP3   OH244092   4.720   1.560   3.413
14712TIP3    H144093   4.667   1.479   3.417
14712TIP3    H244094   4.759   1.567   3.500
14713TIP3   OH244095   2.081   3.842   3.122
14713TIP3    H144096   2.155   3.856   3.062
14713TIP3    H244097   2.020   3.788   3.072
14714TIP3   OH244098   4.854   5.557   5.299
14714TIP3    H144099   4.808   5.640   5.315
14714TIP3    H244100   4.811   5.494   5.356
14715TIP3   OH244101   4.639   4.697   5.728
14715TIP3    H144102   4.669   4.677   5.816
14715TIP3    H244103   4.655   4.617   5.678
14716TIP3   OH244104   0.329   2.984   1.564
14716TIP3    H144105   0.318   2.934   1.483
14716TIP3    H244106   0.241   3.015   1.585
14717TIP3   OH244107   1.107   5.087   6.507
14717TIP3    H144108   1.054   5.119   6.434
14717TIP3    H244109   1.193   5.071   6.468
14718TIP3   OH244110   1.603   4.575   6.295
14718TIP3    H144111   1.684   4.524   6.308
14718TIP3    H244112   1.630   4.665   6.309
14719TIP3   OH244113   3.013   4.880   4.508
14719TIP3    H144114   3.011   4.799   4.459
14719TIP3    H244115   3.040   4.947   4.444
14720TIP3   OH244116   5.518   4.090   3.697
14720TIP3    H144117   5.497   4.127   3.611
14720TIP3    H244118   5.612   4.104   3.706
14721TIP3   OH244119   3.087   2.093   6.804
14721TIP3    H144120   3.077   2.096   6.709
14721TIP3    H244121   3.003   2.127   6.837
14722TIP3   OH244122   4.583   2.032   4.719
14722TIP3    H144123   4.652   2.043   4.785
14722TIP3    H244124   4.612   2.083   4.644
14723TIP3   OH244125   6.844   5.198   2.167
14723TIP3    H144126   6.831   5.287   2.133
14723TIP3    H244127   6.778   5.189   2.235
14724TIP3   OH244128   2.069   3.217   0.299
14724TIP3    H144129   2.147   3.193   0.350
14724TIP3    H244130   2.095   3.203   0.208
14725TIP3   OH244131   7.187   7.586   0.454
14725TIP3    H144132   7.096   7.616   0.451
14725TIP3    H244133   7.181   7.497   0.489
14726TIP3   OH244134   2.470   2.184   5.531
14726TIP3    H144135   2.449   2.276   5.547
14726TIP3    H244136   2.390   2.137   5.552
14727TIP3   OH244137   4.854   0.181   4.391
14727TIP3    H144138   4.865   0.273   4.368
14727TIP3    H244139   4.933   0.159   4.441
14728TIP3   OH244140   7.758   3.420   5.268
14728TIP3    H144141   7.711   3.503   5.276
14728TIP3    H244142   7.845   3.445   5.236
14729TIP3   OH244143   3.132   5.232   4.619
14729TIP3    H144144   3.038   5.236   4.601
14729TIP3    H244145   3.150   5.140   4.635
14730TIP3   OH244146   0.478   1.274   2.879
14730TIP3    H144147   0.419   1.253   2.806
14730TIP3    H244148   0.520   1.191   2.900
14731TIP3   OH244149   2.828   5.202   4.678
14731TIP3    H144150   2.818   5.111   4.650
14731TIP3    H244151   2.805   5.254   4.601
14732TIP3   OH244152   2.444   0.732   4.307
14732TIP3    H144153   2.420   0.658   4.363
14732TIP3    H244154   2.361   0.772   4.283
14733TIP3   OH244155   4.689   1.531   1.824
14733TIP3    H144156   4.729   1.447   1.848
14733TIP3    H244157   4.637   1.512   1.746
14734TIP3   OH244158   5.113   2.380   1.506
14734TIP3    H144159   5.053   2.369   1.580
14734TIP3    H244160   5.177   2.445   1.536
14735TIP3   OH244161   7.961   5.372   2.762
14735TIP3    H144162   8.007   5.318   2.698
14735TIP3    H244163   7.871   5.338   2.761
14736TIP3   OH244164   8.009   4.114   4.079
14736TIP3    H144165   8.054   4.039   4.118
14736TIP3    H244166   8.052   4.126   3.994
14737TIP3   OH244167   1.863   7.503   6.558
14737TIP3    H144168   1.925   7.510   6.486
14737TIP3    H244169   1.916   7.508   6.637
14738TIP3   OH244170   2.796   1.139   4.329
14738TIP3    H144171   2.725   1.075   4.325
14738TIP3    H244172   2.785   1.181   4.414
14739TIP3   OH244173   8.006   2.078   0.521
14739TIP3    H144174   8.041   2.032   0.597
14739TIP3    H244175   7.937   2.134   0.556
14740TIP3   OH244176   5.334   6.360   5.669
14740TIP3    H144177   5.244   6.390   5.687
14740TIP3    H244178   5.341   6.363   5.573
14741TIP3   OH244179   1.930   3.167   2.022
14741TIP3    H144180   1.946   3.239   1.961
14741TIP3    H244181   1.993   3.100   1.995
14742TIP3   OH244182   0.514   0.210   2.658
14742TIP3    H144183   0.583   0.215   2.724
14742TIP3    H244184   0.560   0.182   2.578
14743TIP3   OH244185   6.822   4.396   4.059
14743TIP3    H144186   6.856   4.389   3.970
14743TIP3    H244187   6.868   4.473   4.095
14744TIP3   OH244188   7.209   2.964   6.306
14744TIP3    H144189   7.142   3.008   6.253
14744TIP3    H244190   7.173   2.966   6.395
14745TIP3   OH244191   2.814   0.960   2.710
14745TIP3    H144192   2.818   1.055   2.699
14745TIP3    H244193   2.721   0.939   2.703
14746TIP3   OH244194   7.556   6.975   0.349
14746TIP3    H144195   7.578   7.050   0.294
14746TIP3    H244196   7.483   7.006   0.403
14747TIP3   OH244197   6.341   5.042   5.826
14747TIP3    H144198   6.302   4.973   5.772
14747TIP3    H244199   6.286   5.043   5.905
14748TIP3   OH244200   2.690   4.115   2.573
14748TIP3    H144201   2.721   4.050   2.509
14748TIP3    H244202   2.771   4.154   2.608
14749TIP3   OH244203   5.764   2.548   4.737
14749TIP3    H144204   5.767   2.640   4.761
14749TIP3    H244205   5.846   2.512   4.771
14750TIP3   OH244206   3.622   3.877   4.655
14750TIP3    H144207   3.647   3.789   4.682
14750TIP3    H244208   3.660   3.887   4.568
14751TIP3   OH244209   3.072   1.969   0.013
14751TIP3    H144210   3.001   1.996   0.071
14751TIP3    H244211   3.085   1.877   0.033
14752TIP3   OH244212   7.839   0.283   0.794
14752TIP3    H144213   7.902   0.227   0.749
14752TIP3    H244214   7.758   0.231   0.794
14753TIP3   OH244215   8.068   5.701   4.029
14753TIP3    H144216   8.066   5.613   4.067
14753TIP3    H244217   8.147   5.703   3.976
14754TIP3   OH244218   3.147   2.088   3.219
14754TIP3    H144219   3.148   1.996   3.192
14754TIP3    H244220   3.150   2.084   3.315
14755TIP3   OH244221   3.635   7.179   3.065
14755TIP3    H144222   3.542   7.187   3.044
14755TIP3    H244223   3.677   7.248   3.014
14756TIP3   OH244224   6.329   7.224   4.075
14756TIP3    H144225   6.381   7.148   4.099
14756TIP3    H244226   6.307   7.266   4.158
14757TIP3   OH244227   3.689   0.850   1.895
14757TIP3    H144228   3.614   0.849   1.836
14757TIP3    H244229   3.756   0.901   1.849
14758TIP3   OH244230   6.080   6.001   0.776
14758TIP3    H144231   6.133   6.068   0.819
14758TIP3    H244232   6.139   5.961   0.713
14759TIP3   OH244233   4.381   4.884   4.680
14759TIP3    H144234   4.387   4.945   4.753
14759TIP3    H244235   4.472   4.866   4.656
14760TIP3   OH244236   7.880   5.042   3.858
14760TIP3    H144237   7.819   4.969   3.856
14760TIP3    H244238   7.877   5.079   3.770
14761TIP3   OH244239   3.855   4.472   4.822
14761TIP3    H144240   3.811   4.426   4.750
14761TIP3    H244241   3.787   4.527   4.861
14762TIP3   OH244242   0.343   5.258   1.407
14762TIP3    H144243   0.303   5.345   1.399
14762TIP3    H244244   0.435   5.272   1.383
14763TIP3   OH244245   1.145   4.274   3.788
14763TIP3    H144246   1.075   4.271   3.854
14763TIP3    H244247   1.132   4.357   3.743
14764TIP3   OH244248   6.492   1.915   2.912
14764TIP3    H144249   6.453   1.874   2.988
14764TIP3    H244250   6.544   1.987   2.948
14765TIP3   OH244251   5.578   0.510   3.214
14765TIP3    H144252   5.644   0.576   3.238
14765TIP3    H244253   5.548   0.475   3.297
14766TIP3   OH244254   6.319   5.895   5.816
14766TIP3    H144255   6.346   5.965   5.756
14766TIP3    H244256   6.398   5.843   5.829
14767TIP3   OH244257   3.186   4.600   4.557
14767TIP3    H144258   3.270   4.638   4.582
14767TIP3    H244259   3.198   4.571   4.467
14768TIP3   OH244260   6.586   5.667   6.256
14768TIP3    H144261   6.597   5.576   6.231
14768TIP3    H244262   6.517   5.700   6.200
14769TIP3   OH244263   6.886   6.742   3.189
14769TIP3    H144264   6.917   6.761   3.278
14769TIP3    H244265   6.813   6.803   3.176
14770TIP3   OH244266   2.395   0.749   5.258
14770TIP3    H144267   2.432   0.834   5.234
14770TIP3    H244268   2.460   0.686   5.227
14771TIP3   OH244269   5.187   3.943   2.168
14771TIP3    H144270   5.098   3.934   2.136
14771TIP3    H244271   5.177   3.977   2.257
14772TIP3   OH244272   6.614   2.152   2.622
14772TIP3    H144273   6.670   2.130   2.697
14772TIP3    H244274   6.673   2.195   2.560
14773TIP3   OH244275   1.922   6.272   3.226
14773TIP3    H144276   1.960   6.200   3.277
14773TIP3    H244277   1.904   6.233   3.141
14774TIP3   OH244278   6.078   4.042   4.837
14774TIP3    H144279   6.164   4.013   4.804
14774TIP3    H244280   6.058   4.121   4.786
14775TIP3   OH244281   5.923   6.568   2.166
14775TIP3    H144282   6.004   6.518   2.157
14775TIP3    H244283   5.908   6.573   2.260
14776TIP3   OH244284   8.160   7.455   4.232
14776TIP3    H144285   8.122   7.510   4.163
14776TIP3    H244286   8.167   7.368   4.191
14777TIP3   OH244287   1.052   6.715   5.555
14777TIP3    H144288   1.078   6.789   5.500
14777TIP3    H244289   1.085   6.638   5.508
14778TIP3   OH244290   5.318   4.848   0.081
14778TIP3    H144291   5.323   4.906   0.005
14778TIP3    H244292   5.231   4.864   0.118
14779TIP3   OH244293   6.502   2.322   6.220
14779TIP3    H144294   6.416   2.297   6.185
14779TIP3    H244295   6.525   2.250   6.279
14780TIP3   OH244296   3.568   5.423   4.466
14780TIP3    H144297   3.485   5.466   4.447
14780TIP3    H244298   3.545   5.351   4.524
14781TIP3   OH244299   6.979   1.920   0.032
14781TIP3    H144300   7.039   1.928  -0.042
14781TIP3    H244301   6.892   1.934  -0.004
14782TIP3   OH244302   1.541   5.054   6.349
14782TIP3    H144303   1.499   5.020   6.428
14782TIP3    H244304   1.576   4.976   6.306
14783TIP3   OH244305   0.588   7.872   5.064
14783TIP3    H144306   0.654   7.832   5.007
14783TIP3    H244307   0.510   7.819   5.052
14784TIP3   OH244308   1.739   2.089   1.088
14784TIP3    H144309   1.671   2.070   1.154
14784TIP3    H244310   1.798   2.015   1.093
14785TIP3   OH244311   6.607   0.216   0.178
14785TIP3    H144312   6.643   0.268   0.106
14785TIP3    H244313   6.515   0.204   0.155
14786TIP3   OH244314   3.546   0.529   3.506
14786TIP3    H144315   3.597   0.608   3.525
14786TIP3    H244316   3.526   0.534   3.412
14787TIP3   OH244317   5.578   5.528   1.708
14787TIP3    H144318   5.529   5.558   1.785
14787TIP3    H244319   5.665   5.505   1.742
14788TIP3   OH244320   3.982   5.275   0.873
14788TIP3    H144321   3.962   5.276   0.779
14788TIP3    H244322   4.041   5.349   0.886
14789TIP3   OH244323   8.172   2.927   0.745
14789TIP3    H144324   8.096   2.915   0.689
14789TIP3    H244325   8.246   2.898   0.693
14790TIP3   OH244326   4.706   2.150   5.522
14790TIP3    H144327   4.663   2.070   5.549
14790TIP3    H244328   4.640   2.198   5.472
14791TIP3   OH244329   5.682   7.786   0.116
14791TIP3    H144330   5.732   7.745   0.188
14791TIP3    H244331   5.685   7.879   0.135
14792TIP3   OH244332   1.712   3.052   3.241
14792TIP3    H144333   1.724   3.000   3.320
14792TIP3    H244334   1.619   3.042   3.219
14793TIP3   OH244335   7.973   4.231   2.222
14793TIP3    H144336   8.042   4.169   2.245
14793TIP3    H244337   8.011   4.317   2.239
14794TIP3   OH244338   3.240   5.254   6.457
14794TIP3    H144339   3.195   5.272   6.540
14794TIP3    H244340   3.203   5.171   6.427
14795TIP3   OH244341   2.413   3.067   2.342
14795TIP3    H144342   2.489   3.089   2.396
14795TIP3    H244343   2.338   3.073   2.402
14796TIP3   OH244344   6.966   0.775   3.350
14796TIP3    H144345   6.994   0.865   3.368
14796TIP3    H244346   6.890   0.761   3.406
14797TIP3   OH244347   2.593   2.251   4.370
14797TIP3    H144348   2.519   2.311   4.382
14797TIP3    H244349   2.566   2.170   4.413
14798TIP3   OH244350   2.498   2.312   0.741
14798TIP3    H144351   2.501   2.266   0.657
14798TIP3    H244352   2.587   2.345   0.753
14799TIP3   OH244353   4.588   1.475   6.213
14799TIP3    H144354   4.527   1.480   6.286
14799TIP3    H244355   4.583   1.383   6.184
14800TIP3   OH244356   2.927   5.427   3.543
14800TIP3    H144357   2.950   5.388   3.459
14800TIP3    H244358   2.878   5.359   3.589
14801TIP3   OH244359   3.658   5.979   6.018
14801TIP3    H144360   3.653   5.902   6.075
14801TIP3    H244361   3.585   6.034   6.045
14802TIP3   OH244362   7.212   0.762   3.024
14802TIP3    H144363   7.127   0.766   2.980
14802TIP3    H244364   7.201   0.698   3.094
14803TIP3   OH244365   4.003   4.693   5.634
14803TIP3    H144366   4.074   4.632   5.654
14803TIP3    H244367   3.955   4.702   5.717
14804TIP3   OH244368   6.223   2.219   1.138
14804TIP3    H144369   6.178   2.135   1.133
14804TIP3    H244370   6.154   2.284   1.125
14805TIP3   OH244371   5.130   2.818   6.716
14805TIP3    H144372   5.088   2.804   6.801
14805TIP3    H244373   5.062   2.860   6.663
14806TIP3   OH244374   2.255   6.673   4.161
14806TIP3    H144375   2.332   6.675   4.218
14806TIP3    H244376   2.202   6.748   4.189
14807TIP3   OH244377   5.945   7.439   5.182
14807TIP3    H144378   6.028   7.485   5.192
14807TIP3    H244379   5.939   7.381   5.258
14808TIP3   OH244380   6.305   3.544   0.560
14808TIP3    H144381   6.292   3.506   0.647
14808TIP3    H244382   6.273   3.634   0.568
14809TIP3   OH244383   7.848   6.655   1.803
14809TIP3    H144384   7.763   6.673   1.761
14809TIP3    H244385   7.888   6.741   1.813
14810TIP3   OH244386   7.892   3.462   3.686
14810TIP3    H144387   7.926   3.491   3.601
14810TIP3    H244388   7.879   3.542   3.735
14811TIP3   OH244389   5.999   0.781   5.415
14811TIP3    H144390   5.972   0.857   5.466
14811TIP3    H244391   5.921   0.755   5.367
14812TIP3   OH244392   3.837   3.532   5.604
14812TIP3    H144393   3.800   3.613   5.639
14812TIP3    H244394   3.767   3.468   5.613
14813TIP3   OH244395   0.644   6.389   6.005
14813TIP3    H144396   0.659   6.436   5.923
14813TIP3    H244397   0.733   6.370   6.037
14814TIP3   OH244398   6.611   1.323   6.532
14814TIP3    H144399   6.569   1.238   6.516
14814TIP3    H244400   6.677   1.330   6.463
14815TIP3   OH244401   4.016   0.541   4.780
14815TIP3    H144402   4.070   0.508   4.852
14815TIP3    H244403   3.945   0.589   4.824
14816TIP3   OH244404   4.159  -0.004   3.062
14816TIP3    H144405   4.245   0.006   3.021
14816TIP3    H244406   4.143   0.081   3.105
14817TIP3   OH244407   5.762   7.264   3.675
14817TIP3    H144408   5.686   7.318   3.698
14817TIP3    H244409   5.803   7.243   3.759
14818TIP3   OH244410   8.166   3.081   0.409
14818TIP3    H144411   8.107   3.007   0.407
14818TIP3    H244412   8.118   3.153   0.368
14819TIP3   OH244413   6.944   6.915   1.486
14819TIP3    H144414   6.865   6.905   1.434
14819TIP3    H244415   6.998   6.978   1.438
14820TIP3   OH244416   1.229   3.787   3.609
14820TIP3    H144417   1.197   3.877   3.606
14820TIP3    H244418   1.162   3.736   3.563
14821TIP3   OH244419   7.469   3.197   4.107
14821TIP3    H144420   7.462   3.254   4.030
14821TIP3    H244421   7.400   3.132   4.095
14822TIP3   OH244422   3.872   7.061   3.241
14822TIP3    H144423   3.796   7.059   3.183
14822TIP3    H244424   3.842   7.016   3.321
14823TIP3   OH244425   2.652   7.034   1.232
14823TIP3    H144426   2.700   7.066   1.308
14823TIP3    H244427   2.632   7.112   1.181
14824TIP3   OH244428   1.982   1.461   5.684
14824TIP3    H144429   2.022   1.547   5.697
14824TIP3    H244430   1.965   1.457   5.590
14825TIP3   OH244431   0.875   2.545   1.101
14825TIP3    H144432   0.876   2.634   1.137
14825TIP3    H244433   0.922   2.552   1.018
14826TIP3   OH244434   5.853   3.632   6.245
14826TIP3    H144435   5.779   3.678   6.285
14826TIP3    H244436   5.821   3.544   6.230
14827TIP3   OH244437   0.947   7.554   5.983
14827TIP3    H144438   0.881   7.484   5.989
14827TIP3    H244439   0.983   7.559   6.072
14828TIP3   OH244440   6.938   0.459   3.575
14828TIP3    H144441   6.925   0.457   3.480
14828TIP3    H244442   6.854   0.485   3.611
14829TIP3   OH244443   0.929   3.143   2.060
14829TIP3    H144444   1.012   3.141   2.014
14829TIP3    H244445   0.867   3.177   1.996
14830TIP3   OH244446   2.550   7.218   1.540
14830TIP3    H144447   2.504   7.247   1.461
14830TIP3    H244448   2.547   7.294   1.598
14831TIP3   OH244449   7.300   7.566   4.253
14831TIP3    H144450   7.307   7.487   4.200
14831TIP3    H244451   7.388   7.602   4.253
14832TIP3   OH244452   0.173   3.752   0.236
14832TIP3    H144453   0.125   3.788   0.311
14832TIP3    H244454   0.131   3.667   0.219
14833TIP3   OH244455   4.390   4.755   1.306
14833TIP3    H144456   4.328   4.683   1.318
14833TIP3    H244457   4.375   4.813   1.380
14834TIP3   OH244458   1.597   4.932   3.471
14834TIP3    H144459   1.554   4.901   3.392
14834TIP3    H244460   1.567   4.872   3.540
14835TIP3   OH244461   4.573   6.774   2.339
14835TIP3    H144462   4.519   6.824   2.278
14835TIP3    H244463   4.511   6.744   2.406
14836TIP3   OH244464   1.534   6.080   6.687
14836TIP3    H144465   1.607   6.057   6.629
14836TIP3    H244466   1.461   6.027   6.656
14837TIP3   OH244467   7.339   6.011   1.448
14837TIP3    H144468   7.276   5.939   1.452
14837TIP3    H244469   7.424   5.969   1.459
   8.30930   7.83407   6.78451   0.00000   0.00000  -2.76976   0.00000  -2.76976  -3.91704
