* SET NIONTYPES = 1
* SET NPOSTOT = 44
* SET NNEGTOT = 42
* SET NIONTOT = 86
*  DATE:     6/13/26     12:49:41      CREATED BY USER: charmm-gui
*
        86  EXT
         1         1  SOD       SOD           -37.6806218031        1.1741710071       -9.5925822102  IONS      1               1.0000000000
         2         2  SOD       SOD             9.3567342109      -19.7286245938      -36.7875593989  IONS      2               1.0000000000
         3         3  SOD       SOD            20.9323227815        8.2520012840      -31.8651533984  IONS      3               1.0000000000
         4         4  SOD       SOD            11.4814607016        9.3618579803       12.2919402112  IONS      4               1.0000000000
         5         5  SOD       SOD            30.9031919779       24.3863773075        9.4112019218  IONS      5               1.0000000000
         6         6  SOD       SOD            26.9814852006       -4.1840984315        6.4604871671  IONS      6               1.0000000000
         7         7  SOD       SOD             1.7468426152      -31.2385755993       20.3319051136  IONS      7               1.0000000000
         8         8  SOD       SOD            27.0575557950       17.5110714045       19.5456819292  IONS      8               1.0000000000
         9         9  SOD       SOD           -27.0174879022       12.5713273645       25.2483765138  IONS      9               1.0000000000
        10        10  SOD       SOD            -7.8924069098      -39.6581881115       22.8492040731  IONS      10              1.0000000000
        11        11  SOD       SOD            17.9658870673       18.7031503756        4.9800096647  IONS      11              1.0000000000
        12        12  SOD       SOD            -9.0625537985       -8.1793262961       22.0794290879  IONS      12              1.0000000000
        13        13  SOD       SOD           -31.9575304536       -9.0284551895       -8.3039860565  IONS      13              1.0000000000
        14        14  SOD       SOD           -24.3236142040       -7.5813281529       30.3313911700  IONS      14              1.0000000000
        15        15  SOD       SOD            24.4533666384       33.1498623258        4.6771427798  IONS      15              1.0000000000
        16        16  SOD       SOD           -44.4205500601        0.4924876415      -24.1098356354  IONS      16              1.0000000000
        17        17  SOD       SOD           -23.3644755759      -33.7222172959       11.7887834514  IONS      17              1.0000000000
        18        18  SOD       SOD           -27.4299896906       17.8580754374      -10.1179365990  IONS      18              1.0000000000
        19        19  SOD       SOD           -27.2355516357      -29.5990296579       -4.8755071394  IONS      19              1.0000000000
        20        20  SOD       SOD           -12.8191287739       39.7035657170       21.8299311924  IONS      20              1.0000000000
        21        21  SOD       SOD           -17.7630059797      -11.2131089391       -6.9458341805  IONS      21              1.0000000000
        22        22  SOD       SOD            -9.7698817621       41.3517325217        9.3626887001  IONS      22              1.0000000000
        23        23  SOD       SOD           -10.3048438432      -12.7157242675      -41.2304789927  IONS      23              1.0000000000
        24        24  SOD       SOD            10.0992328077        0.1674766161       40.5862177284  IONS      24              1.0000000000
        25        25  SOD       SOD            13.9836213892       34.2884542870       -0.8187216251  IONS      25              1.0000000000
        26        26  SOD       SOD             1.8774307753      -29.1428922544      -42.4917543889  IONS      26              1.0000000000
        27        27  SOD       SOD           -11.5336463070       17.4015641309       39.4996653270  IONS      27              1.0000000000
        28        28  SOD       SOD            -2.9293709909      -40.2306971860       -2.0421166145  IONS      28              1.0000000000
        29        29  SOD       SOD            11.6939785854      -19.4762963960      -10.7950826848  IONS      29              1.0000000000
        30        30  SOD       SOD            41.1822522221        1.5202839105       23.1630059040  IONS      30              1.0000000000
        31        31  SOD       SOD             3.2295721371      -37.2047497841      -19.8985261080  IONS      31              1.0000000000
        32        32  SOD       SOD            23.9432297867      -23.8575492552        1.7548091320  IONS      32              1.0000000000
        33        33  SOD       SOD            12.4050253077       43.6487439616       -5.7998416286  IONS      33              1.0000000000
        34        34  SOD       SOD           -11.1685332626        2.4756538615        7.3534205279  IONS      34              1.0000000000
        35        35  SOD       SOD           -41.6864216469      -11.6552334862      -15.5595921923  IONS      35              1.0000000000
        36        36  SOD       SOD            24.6246435973       12.4661712431       36.3218263141  IONS      36              1.0000000000
        37        37  SOD       SOD           -22.6033446087      -38.3005563709       -4.2732992093  IONS      37              1.0000000000
        38        38  SOD       SOD            40.2209195973        2.9414803634        9.5945637163  IONS      38              1.0000000000
        39        39  SOD       SOD            -1.6085747066      -18.9312291254        8.9757765167  IONS      39              1.0000000000
        40        40  SOD       SOD            20.5564128610       23.3631948067      -25.7351500223  IONS      40              1.0000000000
        41        41  SOD       SOD           -29.0325684233      -28.1669104857       20.3729060134  IONS      41              1.0000000000
        42        42  SOD       SOD             1.9462684600       17.0397439982       -4.2397988027  IONS      42              1.0000000000
        43        43  SOD       SOD            27.8064755090       31.1065269455       -3.8192253151  IONS      43              1.0000000000
        44        44  SOD       SOD            -9.0255178831      -17.8840114158      -42.7996302801  IONS      44              1.0000000000
        45        45  CLA       CLA           -42.0867838621      -19.8308042033       -8.8115841800  IONS      45             -1.0000000000
        46        46  CLA       CLA            40.3428293366        1.8620553011       -8.3456478962  IONS      46             -1.0000000000
        47        47  CLA       CLA           -12.1114207950      -38.8619337063       25.9064520333  IONS      47             -1.0000000000
        48        48  CLA       CLA           -30.1929153213       22.0726065407       -7.9001742167  IONS      48             -1.0000000000
        49        49  CLA       CLA            37.6356862142       33.7157580574       -1.1993250035  IONS      49             -1.0000000000
        50        50  CLA       CLA            -3.4170411754       43.0915719328        0.7310601007  IONS      50             -1.0000000000
        51        51  CLA       CLA             2.7554996614      -20.2641430285       40.2244914310  IONS      51             -1.0000000000
        52        52  CLA       CLA           -28.0835834737      -35.1616985462       18.6842835535  IONS      52             -1.0000000000
        53        53  CLA       CLA             6.0029836556       23.9621932813        9.8129331819  IONS      53             -1.0000000000
        54        54  CLA       CLA            15.7813922360      -23.0167750635      -39.5558811425  IONS      54             -1.0000000000
        55        55  CLA       CLA             6.9247354909       27.1571393061       -1.3322745888  IONS      55             -1.0000000000
        56        56  CLA       CLA            -3.3938769097      -37.3373614129      -16.1829821918  IONS      56             -1.0000000000
        57        57  CLA       CLA           -38.6404598319      -11.5491176709       32.9978206282  IONS      57             -1.0000000000
        58        58  CLA       CLA            -8.7139955098      -27.5666771174      -11.3418127901  IONS      58             -1.0000000000
        59        59  CLA       CLA            27.7452151169       27.6882884681        9.6198012499  IONS      59             -1.0000000000
        60        60  CLA       CLA           -39.2253762650       -5.1356079061       -8.4062731448  IONS      60             -1.0000000000
        61        61  CLA       CLA            -5.0943415446      -22.5814263425      -18.5752202886  IONS      61             -1.0000000000
        62        62  CLA       CLA            -7.0532514597       -2.5089753448       31.0040786023  IONS      62             -1.0000000000
        63        63  CLA       CLA            -1.9830953206        8.8270250102        2.5612183729  IONS      63             -1.0000000000
        64        64  CLA       CLA           -35.2706854286      -24.8772750439       12.2663058106  IONS      64             -1.0000000000
        65        65  CLA       CLA            -4.2782191765       -4.5912329344      -32.4663953882  IONS      65             -1.0000000000
        66        66  CLA       CLA             2.0295212507      -24.0006323056      -46.5546235644  IONS      66             -1.0000000000
        67        67  CLA       CLA            27.7225357254       25.5254618355       14.5167144726  IONS      67             -1.0000000000
        68        68  CLA       CLA            26.6900984562       15.5862498934       11.6116689002  IONS      68             -1.0000000000
        69        69  CLA       CLA            10.7179103310      -15.8081085640      -14.1782445846  IONS      69             -1.0000000000
        70        70  CLA       CLA           -18.3324171164       32.8487117136       15.3874976040  IONS      70             -1.0000000000
        71        71  CLA       CLA           -44.7037347180      -20.1074327848       15.4540759102  IONS      71             -1.0000000000
        72        72  CLA       CLA           -33.7132254130       19.7255248071       21.1056819852  IONS      72             -1.0000000000
        73        73  CLA       CLA           -23.7266254992       10.3452887939       19.0758575047  IONS      73             -1.0000000000
        74        74  CLA       CLA             5.3145737350      -41.4670944838        1.2038444187  IONS      74             -1.0000000000
        75        75  CLA       CLA           -32.6515919020       17.0482220112      -27.0605464449  IONS      75             -1.0000000000
        76        76  CLA       CLA           -11.1774913856      -30.5089190274      -27.8101480844  IONS      76             -1.0000000000
        77        77  CLA       CLA            17.3301124976        1.8577818339       17.4430862123  IONS      77             -1.0000000000
        78        78  CLA       CLA           -12.1435768972       -2.8024948660        9.3764851067  IONS      78             -1.0000000000
        79        79  CLA       CLA            -8.4257071088       28.4406736284       32.8782829371  IONS      79             -1.0000000000
        80        80  CLA       CLA            40.7623765033       -4.0122883621        5.9284398704  IONS      80             -1.0000000000
        81        81  CLA       CLA            -1.0555029896       18.2627928825      -25.6798096666  IONS      81             -1.0000000000
        82        82  CLA       CLA            43.1833940446        8.8313532499        6.5123494911  IONS      82             -1.0000000000
        83        83  CLA       CLA           -21.8809921198      -24.8134839111       -6.6066022614  IONS      83             -1.0000000000
        84        84  CLA       CLA            22.2027059668       43.8252605282      -11.7283078735  IONS      84             -1.0000000000
        85        85  CLA       CLA           -12.4893091188        2.4328582875       38.3614973764  IONS      85             -1.0000000000
        86        86  CLA       CLA            16.5118786105       -9.7285571958      -31.5477830371  IONS      86             -1.0000000000
