Title
19942
    1ASP      N    1   1.673   4.098   3.588  0.3599 -0.1144  0.1500
    1ASP    HT1    2   1.587   4.153   3.573  0.5528 -0.2431 -1.5714
    1ASP    HT2    3   1.648   3.999   3.605 -2.1427  0.1864 -1.2861
    1ASP    HT3    4   1.726   4.098   3.499  0.7053 -1.1928  0.3365
    1ASP     CA    5   1.766   4.162   3.688  0.0056  0.5984  0.2562
    1ASP     HA    6   1.794   4.254   3.640 -0.1271 -0.8958 -2.9156
    1ASP     CB    7   1.690   4.160   3.820 -0.5494 -0.4810 -0.1739
    1ASP    HB1    8   1.685   4.060   3.870 -0.4219  0.2146  1.2710
    1ASP    HB2    9   1.585   4.194   3.808 -1.4634 -3.3726 -1.2317
    1ASP     CG   10   1.755   4.243   3.931  0.8599 -0.2355 -0.2710
    1ASP    OD1   11   1.720   4.236   4.051 -0.1525 -0.2134  0.0827
    1ASP    OD2   12   1.846   4.319   3.894  0.3688 -0.3094 -0.2214
    1ASP      C   13   1.903   4.083   3.688 -0.1006 -0.4646 -0.0025
    1ASP      O   14   1.924   4.001   3.601 -0.2095  0.1509 -0.1460
    2ALA      N   15   2.002   4.114   3.782  0.1707 -0.0989 -0.2835
    2ALA     HN   16   1.986   4.183   3.853  2.0387  0.0058  0.0782
    2ALA     CA   17   2.137   4.071   3.793 -0.6576  0.1106  0.4044
    2ALA     HA   18   2.183   4.100   3.700 -2.3085  0.9088 -0.2180
    2ALA     CB   19   2.211   4.132   3.909 -0.1822 -0.4041 -0.2460
    2ALA    HB1   20   2.207   4.243   3.900 -0.1149 -0.2007  1.6741
    2ALA    HB2   21   2.319   4.105   3.908 -0.1760 -0.7787  2.5165
    2ALA    HB3   22   2.174   4.116   4.013  1.6105  1.0086  0.6767
    2ALA      C   23   2.146   3.917   3.804 -0.0261  0.0353  0.2789
    2ALA      O   24   2.235   3.862   3.742 -0.2795  0.7329 -0.2003
    3ASP      N   25   2.054   3.847   3.879 -0.0902  0.6146  0.9451
    3ASP     HN   26   1.986   3.887   3.940 -1.0477 -1.0860  1.0424
    3ASP     CA   27   2.061   3.702   3.883 -0.2042  0.5134  0.0947
    3ASP     HA   28   2.163   3.667   3.889 -0.0954  1.0589  2.0498
    3ASP     CB   29   1.986   3.633   3.995  0.2951 -0.0106 -0.1893
    3ASP    HB1   30   1.989   3.523   3.979 -0.8872 -0.2696  1.1000
    3ASP    HB2   31   1.880   3.667   3.993 -0.1143 -1.0722  1.4922
    3ASP     CG   32   2.043   3.657   4.131 -0.4219 -0.9603 -0.6909
    3ASP    OD1   33   2.165   3.688   4.145  0.0606 -0.6758  0.3059
    3ASP    OD2   34   1.962   3.636   4.228  0.1103  0.0505  0.5817
    3ASP      C   35   2.021   3.641   3.747 -0.3056 -0.7229 -0.2725
    3ASP      O   36   1.910   3.678   3.698  0.0744 -1.0327  0.2276
    4GLY      N   37   2.101   3.542   3.697  0.0377 -0.2487 -0.0087
    4GLY     HN   38   2.189   3.527   3.740  1.5108  1.4017 -2.2223
    4GLY     CA   39   2.063   3.474   3.571  0.4520  0.0807 -0.1455
    4GLY    HA1   40   2.157   3.439   3.530  0.1903 -0.0714 -0.6177
    4GLY    HA2   41   2.005   3.540   3.510 -2.6475 -2.3729 -0.0975
    4GLY      C   42   1.970   3.356   3.601  0.3245 -0.1963  0.2045
    4GLY      O   43   1.918   3.329   3.710  0.2291 -0.0881  0.0204
    5PRO      N   44   1.944   3.270   3.497 -0.0106 -0.0221 -0.3878
    5PRO     CD   45   1.991   3.297   3.360  0.3783  0.4380 -0.4907
    5PRO    HD1   46   2.099   3.272   3.348 -0.0598 -1.6251 -0.5301
    5PRO    HD2   47   1.958   3.400   3.336 -1.8100  0.2664  1.4646
    5PRO     CA   48   1.887   3.137   3.508  0.3355  0.2728  0.1224
    5PRO     HA   49   1.783   3.151   3.534 -0.3926 -1.2308 -1.7018
    5PRO     CB   50   1.900   3.081   3.365 -0.1515  0.2919 -0.2241
    5PRO    HB1   51   1.825   3.011   3.323  1.2903 -0.6996 -1.2397
    5PRO    HB2   52   1.996   3.027   3.347 -2.2536 -3.5360 -1.1142
    5PRO     CG   53   1.895   3.207   3.277 -0.1836 -0.6511  0.2001
    5PRO    HG1   54   1.942   3.195   3.177 -1.0512 -1.3380 -0.1479
    5PRO    HG2   55   1.790   3.243   3.271 -0.4657 -1.4710  0.1023
    5PRO      C   56   1.938   3.044   3.624 -0.3091  0.1050 -0.3211
    5PRO      O   57   2.058   3.019   3.633 -0.3780 -0.3411 -0.1759
    6GLY      N   58   1.852   2.999   3.717  0.3461  0.3983 -0.1718
    6GLY     HN   59   1.758   3.031   3.706  0.0668 -0.6521 -0.9473
    6GLY     CA   60   1.880   2.899   3.822  0.6247 -0.0536  0.2046
    6GLY    HA1   61   1.797   2.895   3.891  0.3946  1.2190  0.0223
    6GLY    HA2   62   1.969   2.931   3.875  0.4649  1.4021 -0.3705
    6GLY      C   63   1.899   2.767   3.762 -0.1337 -0.6209 -0.8441
    6GLY      O   64   1.995   2.701   3.798  0.0207 -1.0243 -0.3711
    7ASP      N   65   1.811   2.729   3.670 -0.6422  0.3939 -0.3955
    7ASP     HN   66   1.737   2.787   3.638 -0.8030 -0.4805 -1.7107
    7ASP     CA   67   1.813   2.584   3.630  0.7485 -0.9369 -1.2004
    7ASP     HA   68   1.882   2.528   3.691 -0.6933 -1.2591  0.1970
    7ASP     CB   69   1.667   2.531   3.682 -0.0537 -0.7825  0.3968
    7ASP    HB1   70   1.580   2.582   3.635 -1.0129 -3.0849 -0.4544
    7ASP    HB2   71   1.642   2.540   3.789  0.1043 -0.5050  0.4131
    7ASP     CG   72   1.658   2.381   3.663 -0.4982 -0.4256 -0.7787
    7ASP    OD1   73   1.758   2.308   3.643  0.0149 -0.1610  0.0569
    7ASP    OD2   74   1.541   2.331   3.657  0.1338  0.1430 -0.3166
    7ASP      C   75   1.835   2.562   3.482 -0.3251  0.3531 -0.2710
    7ASP      O   76   1.749   2.591   3.398  0.5108 -0.4749  0.4548
    8PRO      N   77   1.944   2.498   3.441  0.6317 -0.0076  0.0822
    8PRO     CD   78   2.061   2.464   3.525 -1.0911 -0.4529 -0.6120
    8PRO    HD1   79   2.037   2.399   3.612 -0.3263 -1.2008 -0.9424
    8PRO    HD2   80   2.088   2.565   3.560 -0.5045 -0.8023 -0.0450
    8PRO     CA   81   1.974   2.496   3.301 -0.5266 -0.5200  0.3786
    8PRO     HA   82   1.940   2.582   3.245  0.0548 -0.7787 -0.3774
    8PRO     CB   83   2.132   2.510   3.309  0.1929  0.0484 -0.2200
    8PRO    HB1   84   2.154   2.618   3.323 -1.1719  0.3022  0.1016
    8PRO    HB2   85   2.178   2.479   3.213 -1.3663  1.8809 -1.6448
    8PRO     CG   86   2.172   2.422   3.432 -0.1096  0.0371 -0.4255
    8PRO    HG1   87   2.163   2.318   3.396  0.2018  0.3047 -1.2948
    8PRO    HG2   88   2.277   2.440   3.463 -0.3470  3.4137 -1.1213
    8PRO      C   89   1.919   2.371   3.244 -0.9043  0.0738  0.6088
    8PRO      O   90   1.925   2.346   3.123  0.3673  0.2025 -0.1960
    9ASP      N   91   1.882   2.285   3.332  0.2611  0.7308 -0.5949
    9ASP     HN   92   1.878   2.318   3.426 -0.5255 -0.2263 -0.2809
    9ASP     CA   93   1.825   2.152   3.299 -0.5276 -0.6546  0.0207
    9ASP     HA   94   1.813   2.106   3.396 -0.6569  1.0621  0.8586
    9ASP     CB   95   1.687   2.179   3.243 -0.0488 -0.3276 -0.5380
    9ASP    HB1   96   1.650   2.095   3.179  1.4627 -1.5463  0.1278
    9ASP    HB2   97   1.675   2.263   3.172 -3.0959 -0.7568 -0.6819
    9ASP     CG   98   1.582   2.201   3.347  0.2289 -0.1060 -0.6539
    9ASP    OD1   99   1.468   2.247   3.324  0.5384 -0.0224 -0.0313
    9ASP    OD2  100   1.606   2.158   3.464 -0.2390 -0.2073 -0.0896
    9ASP      C  101   1.905   2.058   3.216  0.1084  0.3932  0.7217
    9ASP      O  102   1.869   2.005   3.106 -0.1935 -0.7843 -0.3626
   10ALA      N  103   2.026   2.013   3.257 -0.6548  0.3806 -0.1616
   10ALA     HN  104   2.061   2.045   3.344 -0.7508 -0.1066  0.0586
   10ALA     CA  105   2.126   1.936   3.178  0.4155  0.2283 -0.3489
   10ALA     HA  106   2.104   1.955   3.074  0.7386 -0.3581 -0.5287
   10ALA     CB  107   2.267   1.982   3.212 -0.0750  0.5265  0.4409
   10ALA    HB1  108   2.303   1.960   3.315  0.6296 -0.0734  0.0786
   10ALA    HB2  109   2.282   2.090   3.196  1.1834  0.4245  0.8441
   10ALA    HB3  110   2.341   1.933   3.145 -1.5294  0.9608 -1.5790
   10ALA      C  111   2.108   1.785   3.197 -0.0917  0.4669 -0.1288
   10ALA      O  112   2.111   1.723   3.306 -0.3776  0.3007  0.0778
   11GLY      N  113   2.088   1.722   3.081 -0.5188  0.1452 -0.1361
   11GLY     HN  114   2.074   1.773   2.997  2.9930  0.5159 -0.6702
   11GLY     CA  115   2.086   1.578   3.066 -0.8785 -0.0826 -0.4940
   11GLY    HA1  116   2.151   1.539   3.143 -2.0168 -0.3828  0.3312
   11GLY    HA2  117   2.114   1.550   2.965 -0.5642  0.6160 -0.6030
   11GLY      C  118   1.954   1.512   3.087 -0.2275  0.0711  0.3122
   11GLY    OT1  119   1.856   1.581   3.128 -0.4409 -0.6911  0.1306
   11GLY    OT2  120   1.942   1.387   3.078 -0.2198  0.7508 -0.1891
   12LIT    LIT  121   1.407   2.434   0.876 -1.0621 -0.1275 -0.3743
   13LIT    LIT  122   5.839   3.032   1.282 -1.2175 -0.1962 -0.0650
   14LIT    LIT  123   3.517   1.284   4.937 -1.1856 -0.0213  0.4077
   15LIT    LIT  124   5.688   5.357   4.335 -0.0162  0.2590  0.2921
   16LIT    LIT  125   4.810   2.105   4.557  0.9000 -0.4645  0.1859
   17LIT    LIT  126   5.582   0.802   4.756  0.0155 -0.1849 -0.5157
   18LIT    LIT  127   4.586   3.524   2.610 -0.5826  0.1434 -0.3780
   19LIT    LIT  128   1.661   2.150   3.634 -0.3460  0.4300 -0.0697
   20LIT    LIT  129   2.174   4.305   0.668  0.0908  1.2080 -0.2851
   21LIT    LIT  130   1.425   5.853   2.839 -0.0485  0.4221  0.9195
   22LIT    LIT  131   1.721   4.047   5.020  0.2196 -0.4907  0.6136
   23LIT    LIT  132   1.789   1.406   3.192  0.6999 -0.6956 -0.2827
   24LIT    LIT  133   2.881   4.363   4.290 -0.0652 -0.0727 -0.0969
   25LIT    LIT  134   1.529   5.144   4.483 -0.2628  0.1338  0.0671
   26LIT    LIT  135   5.980   5.387   0.816 -0.5027 -0.0187 -0.7901
   27LIT    LIT  136   2.525   5.599   2.437 -0.3984  0.7510  0.0744
   28LIT    LIT  137   2.373   2.428   4.194 -0.8033 -1.1000  0.2417
   29LIT    LIT  138   1.437   2.255   3.517 -0.4419 -0.3332 -0.7716
   30LIT    LIT  139   2.155   1.517   5.086  0.3944 -0.6803  0.9169
   31LIT    LIT  140   5.522   1.672   1.889 -1.0400  0.4631 -0.4605
   32LIT    LIT  141   4.945   1.636   0.829 -0.2435  1.0937 -0.3610
   33LIT    LIT  142   0.729   4.736   1.081  0.5394  1.6774  0.3810
   34CLA    CLA  143   4.776   1.082   1.804  0.2100 -0.0026  0.3585
   35CLA    CLA  144   4.858   0.908   3.829 -0.1000 -0.1084 -0.0282
   36CLA    CLA  145   6.069   3.020   0.010  0.3573  0.0121 -0.2520
   37CLA    CLA  146   3.473   1.697   3.039 -0.1432  0.0377 -0.2098
   38CLA    CLA  147   1.526   1.106   2.000 -0.0315  0.1988  0.3263
   39CLA    CLA  148   3.561   1.085   4.349  0.0905  0.1836 -0.0309
   40CLA    CLA  149   5.680   2.873   1.287 -0.2001  0.1121  0.2918
   41CLA    CLA  150   1.831   5.329   1.179  0.0941 -0.1588 -0.5793
   42CLA    CLA  151   2.474   5.671   3.533 -0.2194 -0.1758 -0.2405
   43CLA    CLA  152   5.203   4.302   2.312  0.0457  0.2352  0.2084
   44CLA    CLA  153   2.849   3.257   1.325  0.2611 -0.0685  0.1245
   45CLA    CLA  154   0.724   4.289   3.061  0.3484 -0.4097  0.0769
   46CLA    CLA  155   1.127   0.332   0.226  0.0757  0.2228 -0.1325
   47CLA    CLA  156   0.664   1.087   3.435 -0.3607 -0.1595  0.3960
   48CLA    CLA  157   0.709   0.385   2.384 -0.1584 -0.2657  0.2105
   49CLA    CLA  158   0.020   2.191   4.078 -0.2092 -0.0219 -0.2376
   50CLA    CLA  159   1.085   2.984   1.002  0.2980 -0.0398 -0.3057
   51CLA    CLA  160   1.214   2.533   0.810 -0.2032 -0.0731  0.5792
   52TIP3   OH2  161   3.348   5.061   1.112  0.2309  0.3212 -0.4686
   52TIP3    H1  162   3.347   5.101   1.199 -0.2602  1.8634 -1.1461
   52TIP3    H2  163   3.427   5.007   1.111  0.0030 -0.0932  1.0786
   53TIP3   OH2  164   5.661   0.861   3.231 -0.1059  0.1553  0.9080
   53TIP3    H1  165   5.618   0.944   3.208  1.0489  0.6660  0.5112
   53TIP3    H2  166   5.743   0.888   3.273  1.4752 -0.7403 -1.4043
   54TIP3   OH2  167   1.659   4.955   1.859 -0.2631 -0.2343  0.1879
   54TIP3    H1  168   1.611   4.874   1.870  0.5181 -0.7433 -0.0812
   54TIP3    H2  169   1.675   4.961   1.764  1.0679 -0.5980  0.3689
   55TIP3   OH2  170   2.877   3.158   0.864 -0.1172  0.4600  0.2674
   55TIP3    H1  171   2.819   3.222   0.823  0.4203  0.4102 -0.5798
   55TIP3    H2  172   2.921   3.206   0.934  0.2046  0.9883 -0.2971
   56TIP3   OH2  173   1.023   3.461   4.871  0.9855 -0.2737  0.2370
   56TIP3    H1  174   1.057   3.388   4.820  2.2545  0.6681 -0.3303
   56TIP3    H2  175   1.095   3.524   4.873 -0.6162  1.6882 -0.7093
   57TIP3   OH2  176   5.836   0.499   3.493 -0.5893  0.1552  0.2275
   57TIP3    H1  177   5.758   0.492   3.439  1.0485  1.9633 -2.6569
   57TIP3    H2  178   5.808   0.548   3.570 -2.4653  0.0394 -0.3377
   58TIP3   OH2  179   0.623   5.662   1.593 -0.3281  0.1939 -0.4362
   58TIP3    H1  180   0.556   5.707   1.542 -1.5250 -2.2451 -1.1888
   58TIP3    H2  181   0.575   5.617   1.662  0.7183 -0.3873 -0.0552
   59TIP3   OH2  182   3.758   4.043   1.915 -0.0637  0.3570 -0.2076
   59TIP3    H1  183   3.679   4.093   1.936 -0.5292  0.1722 -1.4366
   59TIP3    H2  184   3.758   3.971   1.979 -0.6813  0.5630  0.0359
   60TIP3   OH2  185   4.935   2.188   4.856  0.2904 -0.6661 -0.3163
   60TIP3    H1  186   4.891   2.106   4.879 -0.0195 -0.4482 -0.1385
   60TIP3    H2  187   5.028   2.163   4.849  0.5592 -0.6086  2.0195
   61TIP3   OH2  188   0.152   2.678   1.713 -0.7227 -0.1256  0.2338
   61TIP3    H1  189   0.132   2.590   1.681  2.4818 -1.0815  0.4779
   61TIP3    H2  190   0.073   2.706   1.759 -1.9576 -2.7280 -0.1387
   62TIP3   OH2  191   2.795   3.154   0.181  0.0027  0.3785  0.4755
   62TIP3    H1  192   2.819   3.196   0.099 -0.7655  0.3100  0.2048
   62TIP3    H2  193   2.727   3.210   0.218 -1.1714 -0.6838  0.0193
   63TIP3   OH2  194   3.274   5.141   4.869  0.1390  0.6932  0.0429
   63TIP3    H1  195   3.205   5.190   4.825  1.0010  1.3446 -0.6253
   63TIP3    H2  196   3.249   5.143   4.962 -0.2337  1.7728 -0.0600
   64TIP3   OH2  197   4.184   1.410   2.461  0.3523  0.1350 -0.0000
   64TIP3    H1  198   4.224   1.375   2.381 -1.2139  0.9587 -1.2096
   64TIP3    H2  199   4.251   1.469   2.498  1.0965 -0.2529 -0.6997
   65TIP3   OH2  200   1.206   4.528   2.514  0.1436  0.1687  0.2488
   65TIP3    H1  201   1.274   4.593   2.529 -0.8201  1.0698  0.7705
   65TIP3    H2  202   1.124   4.576   2.521 -0.6794 -1.3833  2.2806
   66TIP3   OH2  203   5.883   0.506   1.937 -0.1779  0.2067 -0.9199
   66TIP3    H1  204   5.921   0.594   1.939  0.6603 -0.1351  1.8570
   66TIP3    H2  205   5.954   0.448   1.964 -1.0635 -1.1988 -1.4943
   67TIP3   OH2  206   6.083   1.234   5.066  0.0546  0.1844 -0.6706
   67TIP3    H1  207   6.016   1.301   5.075  1.4335  1.6232 -0.5853
   67TIP3    H2  208   6.102   1.232   4.972  0.8118  0.7549 -0.5386
   68TIP3   OH2  209   2.907   4.998   4.843  0.5250  0.3628 -0.4130
   68TIP3    H1  210   2.860   5.023   4.923  0.9433  1.9325 -0.6167
   68TIP3    H2  211   2.892   5.071   4.783  2.2506  0.3721 -0.8831
   69TIP3   OH2  212   3.037   4.757   1.019  0.4733  0.0923  0.5539
   69TIP3    H1  213   2.992   4.677   0.992  1.1192  0.0013 -0.2831
   69TIP3    H2  214   3.012   4.768   1.111  2.0050 -2.2300  1.3678
   70TIP3   OH2  215   6.323   5.178   1.540 -0.2785  0.1594  0.2336
   70TIP3    H1  216   6.311   5.093   1.498  0.0236  1.1623 -2.0134
   70TIP3    H2  217   6.407   5.209   1.507  1.4694 -0.1724  3.8671
   71TIP3   OH2  218   1.570   1.147   0.315  0.2681 -0.4423  0.1084
   71TIP3    H1  219   1.583   1.242   0.316 -1.0927 -0.2189  1.5652
   71TIP3    H2  220   1.509   1.131   0.244 -0.4322 -0.0618  0.6159
   72TIP3   OH2  221   0.704   4.375   2.513  0.0949 -0.1767  0.4257
   72TIP3    H1  222   0.625   4.418   2.546  0.3811  0.9847 -0.3350
   72TIP3    H2  223   0.776   4.426   2.551  0.4349  0.3523 -0.8822
   73TIP3   OH2  224   3.818   1.234   2.157  0.4143 -0.2643 -0.5549
   73TIP3    H1  225   3.757   1.163   2.139 -0.5861  0.3938  0.1172
   73TIP3    H2  226   3.763   1.313   2.160  0.9360  0.0995  2.1520
   74TIP3   OH2  227   4.815   1.261   1.134  0.0207 -0.1099  0.1432
   74TIP3    H1  228   4.758   1.196   1.093 -2.2292 -0.0429  2.8995
   74TIP3    H2  229   4.861   1.214   1.203  0.6634  0.6196  0.2342
   75TIP3   OH2  230   0.595   3.611   1.479  0.2965 -0.5493 -0.5751
   75TIP3    H1  231   0.596   3.522   1.443  2.0727 -0.6509 -0.3497
   75TIP3    H2  232   0.596   3.667   1.402 -0.0879 -0.7197 -0.7096
   76TIP3   OH2  233   2.630   4.940   4.717  0.0366  0.4028 -0.4478
   76TIP3    H1  234   2.690   5.014   4.728  1.0300 -0.5771  1.1754
   76TIP3    H2  235   2.651   4.904   4.631 -0.4388  1.9527 -1.2477
   77TIP3   OH2  236   6.131   1.097   2.123  0.0079  0.1227  0.1481
   77TIP3    H1  237   6.083   1.062   2.198  0.0428  1.0913  0.6332
   77TIP3    H2  238   6.184   1.023   2.092  0.4751 -0.1190  1.4640
   78TIP3   OH2  239   0.042   5.050   3.113  0.4371  0.4793 -0.1208
   78TIP3    H1  240   0.048   5.096   3.196  2.1075 -0.4514  0.3125
   78TIP3    H2  241   0.054   4.958   3.135  0.0096  0.1138 -1.2992
   79TIP3   OH2  242   3.451   3.350   2.605 -0.2487 -0.1928  0.1383
   79TIP3    H1  243   3.491   3.406   2.538  2.0053 -2.6643 -0.7794
   79TIP3    H2  244   3.497   3.372   2.686 -1.4368  1.2560  0.4589
   80TIP3   OH2  245   4.550   2.163   4.090 -0.9115  0.2588 -0.1246
   80TIP3    H1  246   4.527   2.225   4.159 -3.1945 -0.1080 -0.4608
   80TIP3    H2  247   4.515   2.202   4.010 -2.3394 -1.3314 -0.3506
   81TIP3   OH2  248   6.145   5.603   2.308 -0.0892  0.0797 -0.5522
   81TIP3    H1  249   6.187   5.635   2.388 -3.2441  0.4427  1.0971
   81TIP3    H2  250   6.188   5.652   2.238  1.3564  1.3129  1.0924
   82TIP3   OH2  251   3.152   3.382   3.802  0.0625 -0.0261 -0.4663
   82TIP3    H1  252   3.063   3.371   3.834  0.5443 -1.7879  0.4387
   82TIP3    H2  253   3.143   3.382   3.706 -0.7236 -3.3071 -0.5222
   83TIP3   OH2  254   0.111   0.991   3.497 -0.5175 -0.0026  0.1014
   83TIP3    H1  255   0.108   0.911   3.549  0.8382  0.7955  1.4627
   83TIP3    H2  256   0.199   0.992   3.460 -0.4126  1.0196  0.3591
   84TIP3   OH2  257   4.527   2.054   1.152 -0.1503  0.0321  0.0005
   84TIP3    H1  258   4.516   2.149   1.150  0.3450  0.0813 -1.0008
   84TIP3    H2  259   4.525   2.032   1.245 -1.1407  0.9086  0.2046
   85TIP3   OH2  260   3.952   4.977   0.423  0.3983 -0.4925  0.3840
   85TIP3    H1  261   3.936   4.884   0.440  0.9256 -0.7445 -0.4544
   85TIP3    H2  262   3.944   4.986   0.328  0.2249  0.3452  0.4720
   86TIP3   OH2  263   0.588   0.360   3.099  0.1021 -0.0549  0.0407
   86TIP3    H1  264   0.550   0.356   3.011  0.6328 -0.5440 -0.1707
   86TIP3    H2  265   0.515   0.338   3.158 -0.0776 -0.4642 -0.3281
   87TIP3   OH2  266   5.842   5.968   3.129  0.0354 -0.6033 -0.2262
   87TIP3    H1  267   5.836   5.953   3.223  1.2661 -1.6874 -0.2871
   87TIP3    H2  268   5.864   5.883   3.092  0.0389 -0.1031 -1.4437
   88TIP3   OH2  269   0.373   5.791   1.455  0.3283  0.0380 -0.2481
   88TIP3    H1  270   0.416   5.765   1.373 -1.7350 -1.6692 -0.8915
   88TIP3    H2  271   0.337   5.878   1.436  1.0386  0.2497 -0.6660
   89TIP3   OH2  272   3.629   4.138   4.328 -0.1495  0.3815 -0.1062
   89TIP3    H1  273   3.545   4.152   4.371 -0.0446  1.5532 -0.2455
   89TIP3    H2  274   3.612   4.073   4.260 -0.5339 -0.7455  1.0298
   90TIP3   OH2  275   3.063   1.749   1.474  0.0459 -0.3446  0.3182
   90TIP3    H1  276   3.091   1.695   1.399 -0.4417 -1.4018  0.8814
   90TIP3    H2  277   2.973   1.772   1.454 -0.1402 -0.7716  0.6562
   91TIP3   OH2  278   4.291  -0.015   0.055  0.1309  0.4286 -0.4098
   91TIP3    H1  279   4.381   0.006   0.032 -0.2298  1.3068 -1.0407
   91TIP3    H2  280   4.261   0.060   0.106  0.0083 -0.2327  0.5314
   92TIP3   OH2  281   2.259   5.653   0.539 -0.6120  0.1570  0.3389
   92TIP3    H1  282   2.263   5.660   0.635 -1.5941 -0.4429  0.4348
   92TIP3    H2  283   2.214   5.571   0.523 -1.6818  0.9019 -0.6336
   93TIP3   OH2  284   4.108   3.331   1.731  0.1156 -0.4025 -0.8362
   93TIP3    H1  285   4.020   3.341   1.695  0.2743  1.3382 -0.8205
   93TIP3    H2  286   4.165   3.329   1.654  0.2150  0.4856 -0.7964
   94TIP3   OH2  287   1.909   0.155   1.484  0.1498  0.3108  0.0239
   94TIP3    H1  288   2.000   0.149   1.515 -0.0011 -0.4639  0.3328
   94TIP3    H2  289   1.883   0.064   1.470 -0.6421  0.5216  0.1165
   95TIP3   OH2  290   6.167   1.354   2.797  0.0379  0.3433 -0.0329
   95TIP3    H1  291   6.156   1.432   2.741 -0.2745 -0.6055 -1.3314
   95TIP3    H2  292   6.084   1.348   2.845  0.9860  2.2421  2.0317
   96TIP3   OH2  293   5.433   5.146   3.173 -0.3467 -0.3513  0.5029
   96TIP3    H1  294   5.486   5.074   3.138  0.0788  0.3000 -0.2602
   96TIP3    H2  295   5.446   5.217   3.109 -0.4013  0.5408  1.4596
   97TIP3   OH2  296   3.984   2.962   2.154  0.1046  0.1098 -0.0492
   97TIP3    H1  297   3.956   2.950   2.063 -0.1616 -1.3065  0.2025
   97TIP3    H2  298   3.998   2.873   2.187  1.0914  0.6409  1.0287
   98TIP3   OH2  299   2.365   3.595   4.766  0.0166 -0.0387 -0.0435
   98TIP3    H1  300   2.323   3.572   4.683 -0.0541  1.4746 -0.4434
   98TIP3    H2  301   2.458   3.579   4.750 -0.1674 -1.7273  0.2907
   99TIP3   OH2  302   2.155   0.949   2.754  0.1389 -0.0944 -0.1128
   99TIP3    H1  303   2.070   0.905   2.754 -0.0738  0.2934  1.0123
   99TIP3    H2  304   2.151   1.010   2.827  1.3682 -0.0226 -0.0824
  100TIP3   OH2  305   2.509   3.986   3.010  0.0014 -0.7365 -0.2331
  100TIP3    H1  306   2.545   3.898   3.011  0.6471 -0.4805 -0.5649
  100TIP3    H2  307   2.478   4.000   3.099 -2.1312 -2.1084 -0.6764
  101TIP3   OH2  308   1.864   5.852   2.013 -0.1412  0.1445 -0.3051
  101TIP3    H1  309   1.948   5.897   2.018 -0.0261 -0.0383 -0.5930
  101TIP3    H2  310   1.813   5.888   2.086  0.5387 -0.4975  0.5076
  102TIP3   OH2  311   0.710   3.991   4.259  0.4271 -0.5986  0.4934
  102TIP3    H1  312   0.772   3.948   4.318 -0.1451  0.2494  1.7440
  102TIP3    H2  313   0.646   4.032   4.317 -0.7272 -0.5776 -0.7421
  103TIP3   OH2  314   4.747   3.085   4.383  0.8118 -0.0690 -0.4544
  103TIP3    H1  315   4.754   3.151   4.314 -2.2996 -0.2686 -1.1037
  103TIP3    H2  316   4.812   3.111   4.448  0.9823  2.5425 -1.5553
  104TIP3   OH2  317   1.434   5.904   2.063 -0.1212 -0.3811 -0.2445
  104TIP3    H1  318   1.376   5.961   2.012  0.9481 -0.9065 -2.1123
  104TIP3    H2  319   1.403   5.816   2.044  0.2394 -0.5838  0.0948
  105TIP3   OH2  320   1.382   1.159   2.400  0.0713 -0.6981 -0.1487
  105TIP3    H1  321   1.444   1.086   2.408  0.6559 -0.0353  1.8323
  105TIP3    H2  322   1.297   1.117   2.390  0.3074 -1.7067  1.6621
  106TIP3   OH2  323   2.760   2.064   3.560 -0.0831 -0.3260 -0.0012
  106TIP3    H1  324   2.760   1.970   3.581 -0.5520 -0.5940 -1.1508
  106TIP3    H2  325   2.688   2.100   3.613 -0.4379 -0.7636 -0.1785
  107TIP3   OH2  326   3.754   1.963   4.231  0.1360  0.3892  0.6007
  107TIP3    H1  327   3.714   1.983   4.316  0.0906 -0.8715  0.8978
  107TIP3    H2  328   3.680   1.946   4.173  0.1877  0.4695  0.5106
  108TIP3   OH2  329   4.551   3.386   3.918 -0.6497  0.0117 -0.2162
  108TIP3    H1  330   4.524   3.445   3.847 -1.5585 -0.8173 -0.5974
  108TIP3    H2  331   4.539   3.298   3.881 -0.7183 -0.4279  0.8259
  109TIP3   OH2  332   0.425   0.276   2.292  0.4072  0.5275 -0.5088
  109TIP3    H1  333   0.476   0.225   2.228  1.5773 -0.1053  0.8770
  109TIP3    H2  334   0.491   0.315   2.350 -0.6547  0.0766  1.0622
  110TIP3   OH2  335   4.030   2.246   4.430  0.2545 -0.3396 -0.0093
  110TIP3    H1  336   4.004   2.337   4.441  0.3317 -0.4309  0.9795
  110TIP3    H2  337   3.952   2.203   4.394  0.3927  0.2107 -1.0151
  111TIP3   OH2  338   1.914   0.173   4.956  0.0234  0.2622 -0.0926
  111TIP3    H1  339   1.880   0.085   4.976 -0.6287  0.9868  2.3441
  111TIP3    H2  340   1.991   0.157   4.901 -0.4912 -1.7943 -0.2966
  112TIP3   OH2  341   0.318   0.539   4.345  0.0953  0.0884  0.5461
  112TIP3    H1  342   0.253   0.596   4.385 -0.5766 -0.1637 -0.1760
  112TIP3    H2  343   0.401   0.586   4.356 -0.3424  0.8552  0.6173
  113TIP3   OH2  344   5.975   4.324   1.373 -0.2120 -0.0225 -0.0403
  113TIP3    H1  345   5.956   4.256   1.439  0.5147 -0.7106 -0.5195
  113TIP3    H2  346   5.946   4.405   1.414  0.1300 -0.4446  1.1040
  114TIP3   OH2  347   3.411   2.651   1.309 -0.9402 -0.2846  0.2620
  114TIP3    H1  348   3.380   2.575   1.260 -1.7589  0.7911 -0.9263
  114TIP3    H2  349   3.343   2.717   1.298 -0.0716  0.7671  0.9564
  115TIP3   OH2  350   5.251   2.779   1.486  0.4356 -0.0135 -0.1981
  115TIP3    H1  351   5.204   2.795   1.568  0.4454 -0.4890 -0.0960
  115TIP3    H2  352   5.335   2.823   1.498 -0.4518  2.0056 -0.9048
  116TIP3   OH2  353   3.415   3.052   3.631  0.3300 -0.5333 -0.1451
  116TIP3    H1  354   3.341   2.997   3.657 -0.4702  0.3438 -0.4676
  116TIP3    H2  355   3.473   2.993   3.582  0.2249 -1.4102  0.7568
  117TIP3   OH2  356   3.353   4.556   4.118  1.3825 -0.4546 -0.1548
  117TIP3    H1  357   3.422   4.490   4.130  0.8713 -0.8503  0.6603
  117TIP3    H2  358   3.346   4.599   4.203 -0.3948 -1.4360  0.2577
  118TIP3   OH2  359   5.629   1.153   0.560 -0.1852 -0.3161  0.0212
  118TIP3    H1  360   5.548   1.200   0.578  0.4352  0.5034  0.8087
  118TIP3    H2  361   5.609   1.096   0.486 -1.1544  0.6826 -0.4966
  119TIP3   OH2  362   4.973   4.560   0.579  0.7854  0.2135 -0.2838
  119TIP3    H1  363   4.912   4.497   0.540  1.0315 -0.0859 -0.1884
  119TIP3    H2  364   4.933   4.645   0.561 -0.1609 -0.0177  0.6308
  120TIP3   OH2  365   2.715   4.302   3.469  0.3440 -0.1829 -0.0821
  120TIP3    H1  366   2.743   4.251   3.545  1.6033  0.7045  0.0915
  120TIP3    H2  367   2.750   4.253   3.394 -0.7208 -0.9474 -0.1058
  121TIP3   OH2  368   0.428   2.098   2.396 -0.0933  0.8776  0.0989
  121TIP3    H1  369   0.503   2.117   2.452  0.6335 -1.2355 -0.0795
  121TIP3    H2  370   0.355   2.085   2.458  0.4897 -0.4769  0.5467
  122TIP3   OH2  371   4.470   4.099   1.131  0.5690 -0.0602  0.2970
  122TIP3    H1  372   4.561   4.109   1.157  1.5026  0.5559 -2.7860
  122TIP3    H2  373   4.454   4.171   1.070 -1.1660 -1.6029 -1.2003
  123TIP3   OH2  374   3.808   5.419   3.487  0.3508 -0.3720 -0.0793
  123TIP3    H1  375   3.729   5.453   3.446 -0.6931 -1.9557  0.5188
  123TIP3    H2  376   3.816   5.468   3.569 -0.2041 -0.4255  0.0090
  124TIP3   OH2  377   4.617   5.324   3.548 -0.6218  0.1344  0.0756
  124TIP3    H1  378   4.590   5.396   3.606 -2.3002 -0.9379  0.6827
  124TIP3    H2  379   4.557   5.253   3.568  0.2440 -1.0603 -1.3728
  125TIP3   OH2  380   4.494   0.180   1.247 -0.3863 -0.1248  0.1223
  125TIP3    H1  381   4.533   0.222   1.171 -1.6879 -1.3494 -1.2946
  125TIP3    H2  382   4.400   0.190   1.234 -0.6862 -2.0340  0.5353
  126TIP3   OH2  383   5.718   0.681   4.289 -0.1779 -0.4031 -0.3543
  126TIP3    H1  384   5.777   0.727   4.229 -1.2757  2.1310  0.3838
  126TIP3    H2  385   5.653   0.640   4.232 -0.6393  1.1396 -0.9864
  127TIP3   OH2  386   1.083   3.687   3.009  0.0185  0.2648 -0.5313
  127TIP3    H1  387   1.123   3.606   2.976  0.4336 -0.0429  0.6807
  127TIP3    H2  388   1.156   3.747   3.019 -0.5941  1.8655 -4.1832
  128TIP3   OH2  389   0.972   4.774   1.466  0.2732 -0.2210  0.0875
  128TIP3    H1  390   1.046   4.834   1.462 -0.6747  0.9296 -1.3260
  128TIP3    H2  391   1.001   4.698   1.415  1.0026 -0.4164  0.7808
  129TIP3   OH2  392   1.841   4.452   4.542  0.7065 -0.9847 -0.0614
  129TIP3    H1  393   1.922   4.426   4.498  1.1447  0.4118 -0.1288
  129TIP3    H2  394   1.854   4.545   4.563 -1.3804 -0.3567 -1.2739
  130TIP3   OH2  395   5.576   3.691   3.513  0.0645 -0.0809 -0.1331
  130TIP3    H1  396   5.591   3.605   3.474 -0.9019 -1.6420  2.6061
  130TIP3    H2  397   5.545   3.746   3.440  0.1495 -2.1953 -1.8614
  131TIP3   OH2  398   2.876   2.686   4.488  0.0268  0.5817 -0.0782
  131TIP3    H1  399   2.910   2.776   4.494 -0.8750  1.0767 -1.6444
  131TIP3    H2  400   2.932   2.645   4.422 -0.2332  0.3241 -0.1343
  132TIP3   OH2  401   2.583   2.186   3.156  0.3620  0.0774 -0.3705
  132TIP3    H1  402   2.508   2.221   3.109  0.6978  1.4298  0.0705
  132TIP3    H2  403   2.600   2.102   3.114  0.0034  0.7699 -1.9582
  133TIP3   OH2  404   0.526   5.350   4.633 -0.2330  0.4702  0.1469
  133TIP3    H1  405   0.614   5.360   4.669  0.9584 -0.2195 -2.3307
  133TIP3    H2  406   0.472   5.410   4.685  2.2645  3.1414 -0.0593
  134TIP3   OH2  407   0.321   5.784   1.990 -0.2857 -0.2450 -0.3146
  134TIP3    H1  408   0.386   5.843   1.951 -0.3421 -0.0675 -0.1399
  134TIP3    H2  409   0.291   5.730   1.916 -0.4533  0.1491 -0.5421
  135TIP3   OH2  410   5.499   5.061   3.936 -0.1355 -0.4117  0.1996
  135TIP3    H1  411   5.462   5.100   4.015 -0.2339  0.0228 -0.0567
  135TIP3    H2  412   5.475   5.122   3.866  3.2182  1.3385  0.3324
  136TIP3   OH2  413   0.792   2.850   1.380 -0.3210 -0.4344 -0.1794
  136TIP3    H1  414   0.859   2.907   1.342 -1.1355  0.5284 -0.2410
  136TIP3    H2  415   0.783   2.778   1.317 -0.3945  0.2133 -0.9259
  137TIP3   OH2  416   4.343   5.301   4.227  0.2557 -0.3748 -0.1224
  137TIP3    H1  417   4.383   5.290   4.141  2.1842  1.0342  0.5292
  137TIP3    H2  418   4.416   5.322   4.285 -1.3115  1.2795  1.3567
  138TIP3   OH2  419   3.686   1.714   1.599  0.1878 -0.0394 -0.2448
  138TIP3    H1  420   3.646   1.630   1.622 -0.5527  0.6101  0.9718
  138TIP3    H2  421   3.767   1.690   1.553 -0.5892 -1.3974 -0.9978
  139TIP3   OH2  422   1.525   4.102   5.001  0.5964 -0.0349 -0.0472
  139TIP3    H1  423   1.476   4.156   5.062  2.8601  1.6428  0.3836
  139TIP3    H2  424   1.458   4.049   4.958 -1.3515  0.6909  1.9008
  140TIP3   OH2  425   5.691   5.472   2.060  0.2912 -0.6332  0.5291
  140TIP3    H1  426   5.778   5.511   2.061 -0.2749  0.7419 -0.4754
  140TIP3    H2  427   5.692   5.411   1.987  0.8318 -1.7308  1.4174
  141TIP3   OH2  428   3.157   3.447   0.047 -0.5591 -0.3840  0.2098
  141TIP3    H1  429   3.127   3.386  -0.020  0.1637 -1.5216  0.8746
  141TIP3    H2  430   3.235   3.487   0.009  1.0571 -2.5075  1.0421
  142TIP3   OH2  431   4.283   2.360   2.404  0.5932  0.5395  0.0794
  142TIP3    H1  432   4.370   2.330   2.430  1.2316  1.1509 -1.2400
  142TIP3    H2  433   4.276   2.449   2.439  0.8270  0.7829 -0.4796
  143TIP3   OH2  434   6.095   3.543   0.713  0.4590  0.3191 -0.4980
  143TIP3    H1  435   6.172   3.489   0.730  1.0958  0.7610 -1.7844
  143TIP3    H2  436   6.116   3.628   0.754 -0.3405 -0.2299  1.1150
  144TIP3   OH2  437   0.351   5.085   3.027 -0.0030 -0.3811 -0.0022
  144TIP3    H1  438   0.380   4.994   3.023  1.8977  0.0128  2.4904
  144TIP3    H2  439   0.282   5.085   3.093  1.3275  0.2025  1.4595
  145TIP3   OH2  440   4.802   1.492   0.192 -0.0104 -0.3279 -0.2447
  145TIP3    H1  441   4.833   1.409   0.158  1.1398 -0.2165  0.4702
  145TIP3    H2  442   4.709   1.478   0.211 -0.4306 -0.6883 -2.4025
  146TIP3   OH2  443   4.552   4.573   0.229  0.2470 -0.0698 -0.7709
  146TIP3    H1  444   4.510   4.534   0.306  1.6112 -0.4546 -0.1971
  146TIP3    H2  445   4.553   4.667   0.247  0.1855 -0.1174 -0.5155
  147TIP3   OH2  446   3.579   3.380   0.822 -0.0810  0.4333  0.5294
  147TIP3    H1  447   3.526   3.460   0.827 -3.1422 -1.3788 -0.3118
  147TIP3    H2  448   3.626   3.378   0.905  0.0295  3.0323  0.6179
  148TIP3   OH2  449   1.079   1.668   0.769 -0.2214 -0.3246 -0.0499
  148TIP3    H1  450   1.078   1.726   0.692  0.5884  2.3071  1.7786
  148TIP3    H2  451   0.986   1.652   0.787 -0.5040  0.9047 -0.2977
  149TIP3   OH2  452   6.065   1.221   2.428 -0.3418 -0.7050  0.3837
  149TIP3    H1  453   6.154   1.201   2.456 -0.8861 -0.8687  2.1155
  149TIP3    H2  454   6.016   1.140   2.445 -0.7406 -0.7588 -0.9552
  150TIP3   OH2  455   2.534   4.910   2.618 -0.1180  0.4198 -0.5267
  150TIP3    H1  456   2.616   4.898   2.570  0.4471 -1.1685  0.7566
  150TIP3    H2  457   2.494   4.823   2.620 -0.9308  0.7953  0.4467
  151TIP3   OH2  458   2.492   1.233   2.732 -0.2755  0.0881 -0.7062
  151TIP3    H1  459   2.551   1.286   2.679 -0.4757  1.1210  0.0787
  151TIP3    H2  460   2.417   1.216   2.676  0.2566 -0.2687 -1.3216
  152TIP3   OH2  461   0.480   0.129   5.040  0.2556 -0.2529 -0.1898
  152TIP3    H1  462   0.576   0.134   5.043  0.2153 -0.0544  1.2265
  152TIP3    H2  463   0.450   0.196   5.100 -0.7287 -1.5822  0.8555
  153TIP3   OH2  464   3.712   5.254   0.925  0.5975 -0.4571 -0.2557
  153TIP3    H1  465   3.705   5.232   1.018  0.7728  2.5611  0.5621
  153TIP3    H2  466   3.806   5.251   0.907  0.5086 -1.8645 -0.6112
  154TIP3   OH2  467   5.194   4.300   0.208 -0.3140 -0.0096  0.8514
  154TIP3    H1  468   5.207   4.374   0.267  0.9730  0.7150 -0.2890
  154TIP3    H2  469   5.152   4.234   0.263  0.5821  0.7148  2.5098
  155TIP3   OH2  470   2.181   2.422   0.889 -0.4795  0.0349 -0.0957
  155TIP3    H1  471   2.117   2.489   0.868 -1.7055 -0.4917  1.7186
  155TIP3    H2  472   2.149   2.343   0.846  0.1999  0.2590 -1.0505
  156TIP3   OH2  473   4.901   0.162   1.703 -0.3473  0.2394  0.4994
  156TIP3    H1  474   4.806   0.169   1.712 -0.6973 -0.3410 -1.9553
  156TIP3    H2  475   4.929   0.251   1.683 -0.4118  0.3587  0.9355
  157TIP3   OH2  476   4.193   5.898   2.643 -0.1471 -0.1087  0.0463
  157TIP3    H1  477   4.273   5.848   2.624  0.2768  1.0196 -1.3605
  157TIP3    H2  478   4.122   5.836   2.628  0.3923 -0.4922 -1.0675
  158TIP3   OH2  479   5.256   3.124   0.367 -0.3516  0.1524 -0.0607
  158TIP3    H1  480   5.204   3.049   0.397 -0.7984  0.8309  0.9146
  158TIP3    H2  481   5.190   3.187   0.337 -0.0029  0.3769 -0.3559
  159TIP3   OH2  482   4.002   0.666   2.423  0.3792  0.7645 -0.4879
  159TIP3    H1  483   4.017   0.757   2.396 -2.0742  1.6525  0.8598
  159TIP3    H2  484   4.007   0.668   2.518  0.2026 -0.5128 -0.4401
  160TIP3   OH2  485   4.928   1.227   4.480  0.5630  0.0442 -0.7779
  160TIP3    H1  486   4.949   1.299   4.421  1.8659 -0.6078 -1.1387
  160TIP3    H2  487   5.007   1.215   4.532 -1.1662  2.0715  2.7893
  161TIP3   OH2  488   3.091   1.569   2.600 -0.1774 -0.5016 -0.5013
  161TIP3    H1  489   3.000   1.568   2.573 -0.3863 -0.8781  0.1862
  161TIP3    H2  490   3.101   1.490   2.654  0.8131 -1.0304 -1.4192
  162TIP3   OH2  491   5.970   5.045   4.795  0.1497  0.0478 -0.1289
  162TIP3    H1  492   5.907   4.974   4.810  0.3092 -0.2143 -0.6679
  162TIP3    H2  493   5.924   5.106   4.737  0.8646 -0.8452 -1.7020
  163TIP3   OH2  494   2.486   1.192   2.447  0.6976 -0.1844  0.7998
  163TIP3    H1  495   2.471   1.215   2.355 -1.3292  1.7821  1.5171
  163TIP3    H2  496   2.412   1.136   2.470  2.0637 -2.0371  0.8630
  164TIP3   OH2  497   4.782   1.830   3.150 -0.2275 -0.2332  0.3948
  164TIP3    H1  498   4.868   1.812   3.188 -0.3944  0.4934  1.1625
  164TIP3    H2  499   4.720   1.785   3.208 -0.3903 -0.4181  0.0794
  165TIP3   OH2  500   4.396   4.882   0.117  0.4744  0.0152 -0.4368
  165TIP3    H1  501   4.352   4.966   0.126  2.1045  0.8702 -0.0103
  165TIP3    H2  502   4.455   4.893   0.042  1.3708 -0.4206  0.1802
  166TIP3   OH2  503   1.496   1.215   4.084 -0.2460  0.6198 -0.0659
  166TIP3    H1  504   1.586   1.182   4.088 -0.4676 -0.0511 -0.4459
  166TIP3    H2  505   1.469   1.200   3.994 -0.0665  2.6784 -0.5077
  167TIP3   OH2  506   1.937   3.280   2.896  0.1984 -0.4787  0.0701
  167TIP3    H1  507   1.891   3.329   2.827 -1.8446 -0.8179  1.1329
  167TIP3    H2  508   1.893   3.195   2.898 -0.1028 -0.3140  2.0927
  168TIP3   OH2  509   0.614   0.163   3.847  0.2014  0.4392 -0.2253
  168TIP3    H1  510   0.705   0.137   3.835  0.8132  0.8929  2.6973
  168TIP3    H2  511   0.568   0.127   3.771  2.1440 -3.0749  0.0601
  169TIP3   OH2  512   5.734   5.218   0.523 -0.2659 -0.3634 -0.4876
  169TIP3    H1  513   5.717   5.151   0.589 -2.3307  0.7407  0.2047
  169TIP3    H2  514   5.661   5.208   0.461  0.3897  0.1145 -1.3594
  170TIP3   OH2  515   3.135   5.425   3.055 -0.4481  0.1094  0.2587
  170TIP3    H1  516   3.156   5.495   2.993 -1.1826  0.9086  0.8968
  170TIP3    H2  517   3.217   5.376   3.063  0.6824  2.0711  1.2920
  171TIP3   OH2  518   2.446   1.619   4.806  0.0606 -0.4990 -0.2004
  171TIP3    H1  519   2.360   1.625   4.763  0.1709  0.0714 -0.3479
  171TIP3    H2  520   2.468   1.710   4.828 -0.0777 -0.7905  1.2350
  172TIP3   OH2  521   4.112   0.702   0.754  0.4669 -0.0903 -0.2221
  172TIP3    H1  522   4.060   0.779   0.733 -1.0209 -1.1693 -0.6131
  172TIP3    H2  523   4.192   0.737   0.792  0.6114  1.7273 -2.0065
  173TIP3   OH2  524   5.382   2.175   3.795  0.1333  0.3072  0.3555
  173TIP3    H1  525   5.453   2.110   3.803  0.5132  0.6580 -0.0939
  173TIP3    H2  526   5.419   2.244   3.740 -0.0727  1.1930  1.3048
  174TIP3   OH2  527   1.794   3.500   2.708  0.0848  0.0314 -0.0434
  174TIP3    H1  528   1.787   3.564   2.637 -0.8483  1.6810  1.4500
  174TIP3    H2  529   1.703   3.481   2.732  0.3864  0.1775  1.2726
  175TIP3   OH2  530   1.024   2.810   0.451  0.6515  0.6339 -0.1185
  175TIP3    H1  531   0.990   2.893   0.416  1.3376  0.5628 -0.9547
  175TIP3    H2  532   1.015   2.820   0.546 -1.9912  0.5027 -0.2782
  176TIP3   OH2  533   2.306   4.424   4.521 -0.0939 -0.4570  0.5904
  176TIP3    H1  534   2.370   4.362   4.487 -0.9962 -0.2937 -1.5920
  176TIP3    H2  535   2.353   4.508   4.523 -0.1130 -0.3835 -0.7649
  177TIP3   OH2  536   0.208   4.634   0.052  0.4555  0.0331 -0.2154
  177TIP3    H1  537   0.192   4.655   0.144  1.7393  0.2382 -0.0134
  177TIP3    H2  538   0.267   4.558   0.055 -1.4134 -1.5111 -0.9070
  178TIP3   OH2  539   3.487   0.587   0.618 -0.3221 -0.5068 -0.2236
  178TIP3    H1  540   3.405   0.596   0.666 -0.0551  2.9597 -0.2233
  178TIP3    H2  541   3.537   0.665   0.641  3.0635 -2.5171 -0.1925
  179TIP3   OH2  542   6.372   3.990   1.338 -0.0501  0.3409  0.2084
  179TIP3    H1  543   6.341   4.079   1.322  0.3221  0.4799  0.2430
  179TIP3    H2  544   6.344   3.971   1.427  0.6384  0.7613  0.5262
  180TIP3   OH2  545   0.498   1.527   1.988  0.1101 -0.0227  0.1009
  180TIP3    H1  546   0.561   1.566   1.927 -0.4939  1.0729  0.1550
  180TIP3    H2  547   0.551   1.498   2.062  0.7597 -0.7048 -0.6140
  181TIP3   OH2  548   1.477   3.334   3.703  0.0395 -0.2572 -0.3873
  181TIP3    H1  549   1.497   3.306   3.792  0.1069 -0.0182 -0.3270
  181TIP3    H2  550   1.396   3.385   3.712  0.3908  0.3031 -0.3701
  182TIP3   OH2  551   4.973   5.607   2.812  0.2199  0.5998  0.2925
  182TIP3    H1  552   4.936   5.669   2.749 -0.8195 -1.6365 -1.4191
  182TIP3    H2  553   5.039   5.558   2.762  0.2810 -0.3658  1.2809
  183TIP3   OH2  554   0.074   0.435   1.355  0.5688 -0.0609 -0.2548
  183TIP3    H1  555   0.088   0.397   1.269 -0.1374  0.8399 -0.7905
  183TIP3    H2  556   0.162   0.445   1.392  0.7506 -2.7163  0.1814
  184TIP3   OH2  557   3.049   3.567   3.213 -0.0373  0.3750 -0.3620
  184TIP3    H1  558   2.991   3.606   3.278 -3.1456 -0.3030 -2.5228
  184TIP3    H2  559   3.042   3.473   3.227  0.8497  0.2809 -0.4549
  185TIP3   OH2  560   2.391   0.356   4.917 -0.9459 -0.4166  0.5951
  185TIP3    H1  561   2.433   0.427   4.967 -1.5090 -0.4310  1.0995
  185TIP3    H2  562   2.348   0.302   4.984  1.1575 -2.4261  0.4695
  186TIP3   OH2  563   3.105   1.585   3.130  0.0917  0.3303  0.3580
  186TIP3    H1  564   3.105   1.617   3.040  0.2190  0.8127  0.5237
  186TIP3    H2  565   3.150   1.654   3.179  0.9909 -0.4280  0.6163
  187TIP3   OH2  566   5.915   2.658   3.783 -0.0996  0.3177 -0.0924
  187TIP3    H1  567   5.949   2.725   3.842  0.9613  1.5199 -1.9370
  187TIP3    H2  568   5.941   2.575   3.823 -1.4169  0.9640  2.2280
  188TIP3   OH2  569   1.932   4.991   4.285  0.2978 -0.5276  0.1049
  188TIP3    H1  570   1.885   4.909   4.268 -1.0907  0.0479  1.0419
  188TIP3    H2  571   1.990   4.970   4.358  0.5175 -0.8689 -0.1615
  189TIP3   OH2  572   2.829   5.837   1.098 -0.5977  0.0080  0.1255
  189TIP3    H1  573   2.777   5.913   1.121 -0.3389  0.0278  0.6401
  189TIP3    H2  574   2.899   5.871   1.043 -1.8413 -0.1852 -1.6721
  190TIP3   OH2  575   3.933   4.078   0.705  0.2115  0.2093  0.5996
  190TIP3    H1  576   3.953   3.990   0.738 -0.0452 -0.2053 -0.3300
  190TIP3    H2  577   3.891   4.063   0.620  2.0932  1.2759 -0.5840
  191TIP3   OH2  578   4.108   1.611   3.084  0.2258  0.3112 -0.1979
  191TIP3    H1  579   4.192   1.651   3.062 -0.2834  0.7079 -1.4776
  191TIP3    H2  580   4.096   1.542   3.018  0.1006 -0.5641  0.7088
  192TIP3   OH2  581   2.541   3.971   0.952  0.5286 -0.4129  0.3743
  192TIP3    H1  582   2.518   3.990   0.861  0.1210 -0.4586  0.4643
  192TIP3    H2  583   2.554   4.057   0.992 -0.8971 -0.3063  0.6751
  193TIP3   OH2  584   2.547   2.988   1.085  0.0058  0.3242  0.4450
  193TIP3    H1  585   2.541   3.044   1.007  0.3049  2.4174  1.8293
  193TIP3    H2  586   2.532   3.048   1.158  2.4494 -0.9870  2.1753
  194TIP3   OH2  587   2.132   0.092   4.797 -0.4405 -0.0860  0.5259
  194TIP3    H1  588   2.174   0.137   4.725 -0.9151  0.5361  0.6239
  194TIP3    H2  589   2.204   0.057   4.850 -0.0286  1.0859  0.7779
  195TIP3   OH2  590   2.333   5.226   1.737 -0.0930 -0.7328  0.0172
  195TIP3    H1  591   2.249   5.268   1.717  0.8787  1.0519 -0.5333
  195TIP3    H2  592   2.382   5.293   1.785  1.6702 -1.0623 -1.2302
  196TIP3   OH2  593   3.814   1.979   3.759 -0.1433  0.7637  1.0343
  196TIP3    H1  594   3.841   2.032   3.684  1.2163 -0.1410  0.8528
  196TIP3    H2  595   3.890   1.977   3.817 -1.0325  1.1064  2.2774
  197TIP3   OH2  596   2.461   4.277   2.162  0.2565  0.2949  0.3053
  197TIP3    H1  597   2.366   4.286   2.163  0.0622 -1.1788 -1.0041
  197TIP3    H2  598   2.490   4.326   2.085  0.1649 -1.8173 -1.1784
  198TIP3   OH2  599   3.461   1.871   4.900  0.3501 -0.2452 -0.5181
  198TIP3    H1  600   3.511   1.930   4.956  0.2135 -0.7988  0.2041
  198TIP3    H2  601   3.437   1.924   4.824  1.8093  0.1114 -0.7649
  199TIP3   OH2  602   1.434   3.837   3.411 -0.5234 -0.1956  0.0516
  199TIP3    H1  603   1.443   3.753   3.365 -0.2122  0.4570 -1.1137
  199TIP3    H2  604   1.396   3.814   3.495 -0.3174 -1.5289 -0.1968
  200TIP3   OH2  605   0.514   1.659   0.500  0.1225  0.5193 -0.1674
  200TIP3    H1  606   0.558   1.725   0.554 -0.2210  0.3608  0.3189
  200TIP3    H2  607   0.569   1.581   0.508 -1.2359 -0.3075  2.0887
  201TIP3   OH2  608   3.170   0.319   0.951  0.3888 -0.1930 -0.1471
  201TIP3    H1  609   3.182   0.385   0.883  0.3799 -1.4031 -1.3483
  201TIP3    H2  610   3.219   0.243   0.920  0.0895 -0.8915  1.0323
  202TIP3   OH2  611   6.363   2.278   1.820 -0.0723  0.1491 -0.2448
  202TIP3    H1  612   6.271   2.265   1.842  0.0720 -0.1233  0.2244
  202TIP3    H2  613   6.388   2.199   1.772  0.3241 -0.5348  1.0183
  203TIP3   OH2  614   4.958   4.553   1.478  0.3071 -0.3735 -0.2526
  203TIP3    H1  615   4.909   4.474   1.502 -0.3379  0.0683 -0.0930
  203TIP3    H2  616   4.917   4.623   1.529  2.3417 -0.2777  1.3879
  204TIP3   OH2  617   6.088   5.613   1.655 -0.4271  0.0437 -0.2872
  204TIP3    H1  618   6.096   5.544   1.721 -1.1723  0.4822  0.2806
  204TIP3    H2  619   6.172   5.659   1.658  0.0386 -0.7733 -0.6052
  205TIP3   OH2  620   0.427   4.062   4.441  0.0256  0.0260  0.1488
  205TIP3    H1  621   0.334   4.080   4.453 -0.1822 -1.6969  1.4054
  205TIP3    H2  622   0.469   4.102   4.517  0.3587  0.8646 -0.4523
  206TIP3   OH2  623   5.572   1.564   4.707 -0.1375 -0.2074  0.3132
  206TIP3    H1  624   5.567   1.617   4.787  0.1164  0.2097  0.0548
  206TIP3    H2  625   5.630   1.613   4.649  1.3747 -1.5214  0.6416
  207TIP3   OH2  626   3.923   1.629   3.281  0.0098  0.1957 -0.2587
  207TIP3    H1  627   3.994   1.652   3.222  0.3290 -0.9228 -0.3266
  207TIP3    H2  628   3.857   1.588   3.226 -0.6596  1.1354 -0.1792
  208TIP3   OH2  629   4.802   5.817   1.157  0.1825 -0.3335 -0.1894
  208TIP3    H1  630   4.737   5.790   1.221  0.0440 -1.6981 -0.8652
  208TIP3    H2  631   4.785   5.909   1.142 -2.1695 -0.8433 -0.9902
  209TIP3   OH2  632   3.375   5.516   4.735  0.6089  0.8261  0.7031
  209TIP3    H1  633   3.296   5.550   4.776  1.1780  0.3735  2.2498
  209TIP3    H2  634   3.388   5.571   4.657 -0.9746  1.1637  0.6556
  210TIP3   OH2  635   2.231   4.342   2.856 -0.1885 -0.2152  0.4292
  210TIP3    H1  636   2.223   4.247   2.853 -1.1490 -0.1740  1.0127
  210TIP3    H2  637   2.141   4.373   2.844 -0.1134  0.5610  1.7664
  211TIP3   OH2  638   3.709   2.863   3.091 -0.3384 -0.3982 -0.2059
  211TIP3    H1  639   3.706   2.934   3.155  0.9536  0.2084 -0.7808
  211TIP3    H2  640   3.662   2.791   3.133 -0.2588  0.2622  1.0593
  212TIP3   OH2  641   2.891   1.219   3.743 -0.1044 -0.2767  0.1402
  212TIP3    H1  642   2.905   1.238   3.836 -0.8540  2.3200 -0.2020
  212TIP3    H2  643   2.978   1.199   3.709  0.4977  0.7963  1.0028
  213TIP3   OH2  644   1.009   3.107   4.988  0.5217 -0.2250 -0.0804
  213TIP3    H1  645   0.924   3.150   4.994  1.5652  1.7309  2.2073
  213TIP3    H2  646   1.048   3.142   4.908 -1.5896 -2.9301 -2.5224
  214TIP3   OH2  647   3.338   1.633   2.222 -0.1809 -0.0244 -0.3857
  214TIP3    H1  648   3.413   1.584   2.258  0.7694  0.5900 -1.4776
  214TIP3    H2  649   3.263   1.575   2.237  0.3811 -0.3982  1.2859
  215TIP3   OH2  650   0.628   3.737   0.030 -0.0743  0.5519 -0.0180
  215TIP3    H1  651   0.594   3.720  -0.057 -0.9354  1.0412  0.2067
  215TIP3    H2  652   0.550   3.758   0.083  0.2441 -1.2018  1.2435
  216TIP3   OH2  653   4.332   5.728   1.476 -0.4500 -0.4383 -0.5975
  216TIP3    H1  654   4.316   5.649   1.424  0.3182 -1.4763  0.6747
  216TIP3    H2  655   4.336   5.696   1.566  0.8901  0.8985 -0.1494
  217TIP3   OH2  656   4.191   1.353   3.268  0.0075  0.2501  0.1000
  217TIP3    H1  657   4.170   1.446   3.273 -0.6037  0.3670 -2.7718
  217TIP3    H2  658   4.236   1.334   3.350  0.4925  3.1491  0.6140
  218TIP3   OH2  659   0.500   1.838   4.385 -0.2171  0.3799 -0.4390
  218TIP3    H1  660   0.510   1.883   4.468  0.8548 -1.2198  0.3678
  218TIP3    H2  661   0.581   1.855   4.338 -0.7481  1.1365 -1.1182
  219TIP3   OH2  662   1.344   1.898   5.169 -0.2395 -0.1985 -0.8805
  219TIP3    H1  663   1.412   1.964   5.163  0.2392 -0.5409  0.4918
  219TIP3    H2  664   1.282   1.921   5.100  0.9852  0.4271 -1.8100
  220TIP3   OH2  665   2.678   5.968   3.404 -0.6905  0.8912  0.1763
  220TIP3    H1  666   2.623   6.018   3.463 -0.2035  0.3850  1.0833
  220TIP3    H2  667   2.618   5.936   3.337 -1.8481 -0.8929  1.9359
  221TIP3   OH2  668   4.266   2.701   2.314 -0.1124 -0.1073 -0.2809
  221TIP3    H1  669   4.287   2.660   2.230 -2.3869  0.2372 -1.1062
  221TIP3    H2  670   4.173   2.725   2.306 -0.4574 -0.2474  2.4157
  222TIP3   OH2  671   5.720   5.273   0.225 -0.1189 -0.1561  0.4727
  222TIP3    H1  672   5.756   5.188   0.201 -1.0877 -0.0577 -1.5182
  222TIP3    H2  673   5.625   5.260   0.221 -0.2860  0.7221  1.3202
  223TIP3   OH2  674   2.703   3.911   1.837 -0.0001  0.2594 -0.8024
  223TIP3    H1  675   2.721   3.887   1.927 -0.3988 -0.7902 -0.9897
  223TIP3    H2  676   2.682   3.828   1.793  0.3436  0.7281 -1.8948
  224TIP3   OH2  677   3.893   3.353   3.784 -0.1173  0.2841 -0.1856
  224TIP3    H1  678   3.975   3.304   3.774  0.5217  1.0506  1.0363
  224TIP3    H2  679   3.871   3.382   3.696  0.9067  0.0296 -0.5330
  225TIP3   OH2  680   4.806   2.305   2.637  0.1662  0.8165 -0.7013
  225TIP3    H1  681   4.711   2.299   2.648  0.2832 -2.4422 -0.4313
  225TIP3    H2  682   4.827   2.239   2.571  2.5871 -1.8036  2.3272
  226TIP3   OH2  683   1.913   5.224   4.458  0.1803 -0.4679 -0.4330
  226TIP3    H1  684   1.895   5.318   4.466 -0.9776 -0.7220  0.2926
  226TIP3    H2  685   2.009   5.217   4.458  0.2929  0.6010  1.2212
  227TIP3   OH2  686   2.852   0.607   0.819 -0.5676 -0.2652 -0.1615
  227TIP3    H1  687   2.932   0.593   0.870 -0.4665 -0.1045 -0.2722
  227TIP3    H2  688   2.782   0.570   0.872 -0.7515  1.6791  1.0465
  228TIP3   OH2  689   1.559   5.781   0.923  0.0992  0.6925  0.3634
  228TIP3    H1  690   1.497   5.854   0.926 -0.2403  0.3803  2.3481
  228TIP3    H2  691   1.640   5.818   0.957  0.8230  0.8955 -1.4940
  229TIP3   OH2  692   1.200   2.146   1.162 -0.4151 -0.3685 -0.1941
  229TIP3    H1  693   1.129   2.114   1.216  0.5333 -0.7630  0.8569
  229TIP3    H2  694   1.265   2.076   1.163  0.2291  0.2057 -0.6582
  230TIP3   OH2  695   4.540   3.996   3.371 -0.0084  0.0433 -0.0973
  230TIP3    H1  696   4.561   4.085   3.342  0.8397  0.6856  2.2840
  230TIP3    H2  697   4.617   3.968   3.421 -0.7503 -1.5761  0.1984
  231TIP3   OH2  698   4.478   3.903   1.390  0.7016 -0.0292 -0.1700
  231TIP3    H1  699   4.499   3.971   1.454 -1.1387  2.6849 -2.2411
  231TIP3    H2  700   4.556   3.899   1.334  0.1553  1.7759 -1.1170
  232TIP3   OH2  701   4.770   5.674   4.201  0.6058 -0.0633 -0.6585
  232TIP3    H1  702   4.754   5.768   4.197 -1.9819 -0.4322 -0.3917
  232TIP3    H2  703   4.770   5.653   4.294 -0.1516 -0.5213 -0.7564
  233TIP3   OH2  704   5.605   5.588   0.690 -0.3961  0.5657 -0.1041
  233TIP3    H1  705   5.628   5.529   0.761 -2.0943  0.2899  0.2628
  233TIP3    H2  706   5.601   5.532   0.612 -1.5087  0.2637  0.1530
  234TIP3   OH2  707   1.568   2.743   1.540 -0.2014 -0.2548 -0.3808
  234TIP3    H1  708   1.631   2.671   1.538 -0.8992 -0.9809  1.3113
  234TIP3    H2  709   1.560   2.765   1.633 -3.1547 -0.8835 -0.3770
  235TIP3   OH2  710   0.435   4.486   4.584 -0.2250  0.1157 -0.6453
  235TIP3    H1  711   0.484   4.564   4.609  1.0285 -0.3272 -1.6325
  235TIP3    H2  712   0.466   4.418   4.643 -0.9074  0.2146 -0.1580
  236TIP3   OH2  713   5.921   3.734   2.633 -0.1063  0.3447  0.4936
  236TIP3    H1  714   5.953   3.745   2.722  0.3200 -1.6014  0.6058
  236TIP3    H2  715   5.841   3.683   2.641 -0.4131  0.6831 -0.2137
  237TIP3   OH2  716   2.542   3.663   1.605 -0.2196 -0.1561  0.1239
  237TIP3    H1  717   2.571   3.642   1.694 -2.1058  0.5261  0.9558
  237TIP3    H2  718   2.611   3.629   1.549  1.4955  0.2154  1.8823
  238TIP3   OH2  719   1.348   3.088   4.013 -0.1101 -0.4357  0.4825
  238TIP3    H1  720   1.325   3.084   4.106  2.2258 -0.2230  1.1341
  238TIP3    H2  721   1.433   3.045   4.008 -0.0677 -0.1989 -1.5399
  239TIP3   OH2  722   0.647   5.949   0.999  0.2081  0.1353  0.3575
  239TIP3    H1  723   0.591   5.918   1.070  0.6189 -0.9541  0.2423
  239TIP3    H2  724   0.672   5.869   0.953  0.7575  0.7338 -0.4075
  240TIP3   OH2  725   0.436   4.715   4.771  0.1455 -0.1508 -0.2450
  240TIP3    H1  726   0.435   4.805   4.804  0.3089 -0.1463 -0.2509
  240TIP3    H2  727   0.518   4.709   4.722  0.4384 -0.4933  0.2856
  241TIP3   OH2  728   1.431   0.318   1.318 -0.2395 -0.3666 -0.2031
  241TIP3    H1  729   1.400   0.395   1.366  2.3452  1.6669 -1.5373
  241TIP3    H2  730   1.419   0.341   1.226 -3.3856 -3.4309 -0.7525
  242TIP3   OH2  731   3.169   1.397   2.823  0.1309 -0.0984 -0.2011
  242TIP3    H1  732   3.188   1.340   2.897  0.4585  0.0462 -0.1689
  242TIP3    H2  733   3.074   1.399   2.817  0.1162 -0.6681 -0.2205
  243TIP3   OH2  734   3.256   2.981   3.274 -0.1613 -0.1788  0.3716
  243TIP3    H1  735   3.282   2.913   3.336  0.4733 -0.8596 -0.6053
  243TIP3    H2  736   3.332   3.039   3.267  0.0488 -0.5181 -0.2946
  244TIP3   OH2  737   2.716   3.800   4.574 -0.7546 -0.1074 -0.2716
  244TIP3    H1  738   2.802   3.760   4.588 -0.5211  0.6449  0.5332
  244TIP3    H2  739   2.656   3.743   4.623 -0.7973 -0.8871 -1.1985
  245TIP3   OH2  740   3.438   2.196   3.509 -0.3458 -0.1796 -0.3413
  245TIP3    H1  741   3.518   2.248   3.522 -0.8258  0.6654 -0.6758
  245TIP3    H2  742   3.467   2.105   3.514  0.5040  0.1209  0.3308
  246TIP3   OH2  743   4.419   4.887   1.934  0.4096  0.1669  0.0545
  246TIP3    H1  744   4.420   4.852   2.023 -1.0511 -0.3996 -0.1272
  246TIP3    H2  745   4.327   4.904   1.916  0.5675 -0.6510 -1.7081
  247TIP3   OH2  746   3.755   5.017   2.818  0.2952  0.8168  0.0475
  247TIP3    H1  747   3.825   5.080   2.831  0.8869  0.6734 -2.0677
  247TIP3    H2  748   3.683   5.068   2.781 -0.9711  1.0533  2.6226
  248TIP3   OH2  749   5.289   2.977   0.789 -0.5759  0.0894 -0.1807
  248TIP3    H1  750   5.206   2.997   0.746 -0.7213 -0.7744 -0.3065
  248TIP3    H2  751   5.269   2.982   0.883 -0.8367 -0.3716 -0.2082
  249TIP3   OH2  752   1.575   3.143   3.157  0.0140  0.0004 -0.2273
  249TIP3    H1  753   1.583   3.049   3.144 -1.1704 -0.1240 -0.2028
  249TIP3    H2  754   1.571   3.154   3.252  0.5561  0.1231 -0.2143
  250TIP3   OH2  755   1.733   5.854   4.475  1.1202 -0.1456  0.5857
  250TIP3    H1  756   1.639   5.857   4.455  0.8637  0.1001  1.7742
  250TIP3    H2  757   1.739   5.879   4.567  2.2088 -1.8198  1.0099
  251TIP3   OH2  758   2.939   3.832   2.402 -0.0465 -0.1546 -0.0900
  251TIP3    H1  759   2.978   3.746   2.386 -0.0686 -0.3753  1.0139
  251TIP3    H2  760   3.010   3.885   2.438 -0.8134 -0.7007  2.4024
  252TIP3   OH2  761   0.388   5.070   0.439  0.2830 -0.2971 -0.2306
  252TIP3    H1  762   0.426   5.121   0.367  0.8652  0.1354  0.3749
  252TIP3    H2  763   0.359   4.989   0.397 -1.4402  0.8380 -1.3762
  253TIP3   OH2  764   5.546   4.550   0.414 -0.5348  0.1282 -0.4002
  253TIP3    H1  765   5.594   4.508   0.485  1.1618 -0.2406 -1.6917
  253TIP3    H2  766   5.470   4.493   0.399 -0.5553 -0.1392  0.6490
  254TIP3   OH2  767   2.900   1.056   0.682  0.3157  0.1925  0.4162
  254TIP3    H1  768   2.810   1.076   0.656  0.8810  0.7022 -1.3015
  254TIP3    H2  769   2.951   1.067   0.602  1.8261 -0.7127  1.2077
  255TIP3   OH2  770   1.738   4.567   1.757  0.6031 -0.4897  0.4253
  255TIP3    H1  771   1.770   4.557   1.846  0.9309  0.7167  0.4728
  255TIP3    H2  772   1.750   4.660   1.738  0.5221 -0.7199 -0.8691
  256TIP3   OH2  773   0.460   2.795   0.903 -0.1268  0.4832 -0.0277
  256TIP3    H1  774   0.503   2.851   0.968  1.3937 -1.8997  1.1515
  256TIP3    H2  775   0.532   2.755   0.855 -1.1464 -0.5703 -0.7197
  257TIP3   OH2  776   0.347   4.266   1.303  0.3028  0.0748 -0.0817
  257TIP3    H1  777   0.348   4.296   1.394 -0.5320  0.4461 -0.1878
  257TIP3    H2  778   0.437   4.240   1.285  0.3924 -0.3716  0.9737
  258TIP3   OH2  779   3.532   0.704   4.047  0.1657  0.1405 -0.1352
  258TIP3    H1  780   3.513   0.613   4.024  1.8077 -0.6379  1.3860
  258TIP3    H2  781   3.452   0.734   4.091 -0.2467 -0.6895 -0.2911
  259TIP3   OH2  782   1.421   1.066   0.093  0.0847 -0.1545 -0.8141
  259TIP3    H1  783   1.424   0.971   0.087  1.0017 -0.1347 -0.7125
  259TIP3    H2  784   1.477   1.097   0.022 -0.2947  0.3193 -0.9174
  260TIP3   OH2  785   0.661   5.889   3.334  0.1481 -0.6344 -0.4024
  260TIP3    H1  786   0.711   5.969   3.351  0.2452 -0.9074  0.6109
  260TIP3    H2  787   0.672   5.874   3.240  0.9486 -0.0094 -0.4156
  261TIP3   OH2  788   0.078   4.346   1.252  0.3999 -0.1440 -0.1376
  261TIP3    H1  789   0.171   4.330   1.269  0.2301  0.7512  1.9536
  261TIP3    H2  790   0.034   4.315   1.331 -0.8780  1.3352 -0.2315
  262TIP3   OH2  791   4.713   2.102   1.478  0.0945  0.1643  0.8629
  262TIP3    H1  792   4.672   2.026   1.435  2.4110 -0.6384 -0.0899
  262TIP3    H2  793   4.664   2.111   1.560 -0.0346 -2.6464  1.2151
  263TIP3   OH2  794   5.329   2.872   2.092  0.4778 -0.4757  0.8664
  263TIP3    H1  795   5.388   2.922   2.035 -0.3972  0.4728  0.7668
  263TIP3    H2  796   5.270   2.938   2.129 -0.3643 -1.3735  1.1669
  264TIP3   OH2  797   0.477   5.680   3.611  0.1277  0.1587 -0.4479
  264TIP3    H1  798   0.563   5.647   3.637 -0.1823 -1.2129 -1.1032
  264TIP3    H2  799   0.449   5.621   3.541 -0.7150  1.4709 -1.2604
  265TIP3   OH2  800   6.232   5.550   3.914  0.1754 -0.4651 -0.0226
  265TIP3    H1  801   6.275   5.622   3.960  0.1276 -0.4954  0.0686
  265TIP3    H2  802   6.163   5.521   3.973 -0.3053 -0.0779 -0.3833
  266TIP3   OH2  803   5.150   0.413   3.229 -0.4684  0.0739 -0.3756
  266TIP3    H1  804   5.116   0.326   3.250 -1.7508  0.2592 -1.5518
  266TIP3    H2  805   5.164   0.454   3.314  0.4817 -1.3941  0.2023
  267TIP3   OH2  806   2.167   4.517   3.979  0.1412  0.7017  0.7292
  267TIP3    H1  807   2.092   4.461   4.001  0.1173 -0.7301 -2.5044
  267TIP3    H2  808   2.237   4.486   4.037 -1.3200  1.1509  2.8483
  268TIP3   OH2  809   4.743   4.163   2.487  0.0712 -0.3993  0.1883
  268TIP3    H1  810   4.754   4.076   2.450  0.3629  0.3167 -1.5531
  268TIP3    H2  811   4.823   4.178   2.538  0.1785 -1.0223  0.2034
  269TIP3   OH2  812   2.134   5.344   1.508  0.1944 -0.0136 -0.0014
  269TIP3    H1  813   2.131   5.437   1.486 -1.2593  0.3651  1.5984
  269TIP3    H2  814   2.166   5.302   1.428 -2.7836  1.4498 -2.1470
  270TIP3   OH2  815   1.901   4.194   1.302 -0.2878  0.6556 -0.3263
  270TIP3    H1  816   1.877   4.194   1.209 -0.0989 -0.7270 -0.3968
  270TIP3    H2  817   1.864   4.112   1.336  1.8566 -0.1570  0.1986
  271TIP3   OH2  818   2.707   3.376   2.131  0.3455  0.8328 -0.6353
  271TIP3    H1  819   2.685   3.323   2.055 -1.3777 -0.0513  0.4056
  271TIP3    H2  820   2.676   3.464   2.109 -2.4492  0.0809 -0.0893
  272TIP3   OH2  821   0.056   5.348   2.923 -0.3857 -0.3897 -0.2686
  272TIP3    H1  822  -0.011   5.345   2.855 -0.0920  1.6321 -0.7310
  272TIP3    H2  823   0.124   5.288   2.893 -1.1995 -1.1225 -0.6748
  273TIP3   OH2  824   1.979   4.754   4.115  0.4669  0.2072  0.3464
  273TIP3    H1  825   1.960   4.689   4.047  1.8637  0.6544 -0.4862
  273TIP3    H2  826   1.923   4.727   4.189 -3.0876  1.1777 -1.7214
  274TIP3   OH2  827   2.112   0.675   4.650 -0.0550 -0.1595  0.2006
  274TIP3    H1  828   2.132   0.768   4.663  1.7290 -0.2990 -1.2127
  274TIP3    H2  829   2.195   0.631   4.663 -0.0531 -1.1696 -2.5920
  275TIP3   OH2  830   5.762   4.145   1.053 -0.0882  0.1406 -0.0140
  275TIP3    H1  831   5.749   4.078   1.120  1.2567 -1.3238 -1.1599
  275TIP3    H2  832   5.855   4.140   1.032 -0.0336  2.0937 -0.4664
  276TIP3   OH2  833   1.762   3.252   4.296  0.1473  0.2978 -0.5587
  276TIP3    H1  834   1.718   3.321   4.345  0.7478  1.8692 -2.1255
  276TIP3    H2  835   1.855   3.276   4.299  0.5897 -1.4035  0.3047
  277TIP3   OH2  836   4.045   5.368   1.874  0.3981  0.2663 -0.2430
  277TIP3    H1  837   4.027   5.449   1.826  1.1346 -0.4618 -1.8516
  277TIP3    H2  838   3.983   5.305   1.838  1.6965 -0.5771 -1.1040
  278TIP3   OH2  839   0.877   1.390   2.030 -0.6411  0.0045  0.5320
  278TIP3    H1  840   0.818   1.362   1.960  1.2383  1.2161 -1.6544
  278TIP3    H2  841   0.819   1.428   2.096 -2.3380  1.0116 -1.4377
  279TIP3   OH2  842   0.444   1.036   1.213  0.1305  0.1674 -0.3681
  279TIP3    H1  843   0.482   0.962   1.167  0.2622 -0.4008  0.6105
  279TIP3    H2  844   0.350   1.028   1.197  0.1439 -0.2093 -0.2853
  280TIP3   OH2  845   4.593   3.142   2.604  0.4885  0.3970 -0.1383
  280TIP3    H1  846   4.519   3.109   2.655 -0.2693  1.2201 -0.6766
  280TIP3    H2  847   4.556   3.164   2.519  1.2490  1.2450 -0.2734
  281TIP3   OH2  848   1.197   1.990   4.134 -0.5191 -0.4359 -0.0028
  281TIP3    H1  849   1.137   2.006   4.207 -2.0028  0.8338 -1.4122
  281TIP3    H2  850   1.280   2.028   4.163 -0.8803 -0.5422  1.2676
  282TIP3   OH2  851   5.345   1.081   2.333 -0.4038  0.1876 -0.5720
  282TIP3    H1  852   5.285   1.096   2.260  0.0477 -0.1445 -1.0147
  282TIP3    H2  853   5.327   1.153   2.394 -1.0903  0.2163 -0.8058
  283TIP3   OH2  854   0.006   4.211   0.193  0.4185 -0.6113  0.3127
  283TIP3    H1  855   0.017   4.265   0.272 -0.3384  0.4342 -0.2781
  283TIP3    H2  856   0.044   4.126   0.217 -1.2585 -0.8618  2.3850
  284TIP3   OH2  857   0.946   1.380   3.654 -0.3500  0.0600  0.3061
  284TIP3    H1  858   0.889   1.388   3.577  1.5191 -0.2323 -1.1872
  284TIP3    H2  859   0.980   1.290   3.649  2.1037  0.9463 -0.2763
  285TIP3   OH2  860   3.649   1.713   2.554  0.0131 -0.1812 -0.2822
  285TIP3    H1  861   3.709   1.640   2.570 -0.8182 -0.6800  0.7293
  285TIP3    H2  862   3.562   1.672   2.554 -0.3927  0.6528 -0.8249
  286TIP3   OH2  863   6.280   4.274   0.991  0.1821  0.4175 -0.8442
  286TIP3    H1  864   6.307   4.189   0.958  1.3967  0.4589  0.0042
  286TIP3    H2  865   6.323   4.282   1.076  0.6217  2.1538 -1.1964
  287TIP3   OH2  866   1.267   5.032   0.064  0.3576 -0.1997 -0.1236
  287TIP3    H1  867   1.353   5.053   0.028  1.2550 -2.3233  0.6038
  287TIP3    H2  868   1.210   5.023  -0.012  0.7135  1.3886 -0.6008
  288TIP3   OH2  869   0.837   2.545   4.816 -0.0411 -0.6221 -0.8853
  288TIP3    H1  870   0.787   2.587   4.747  0.2243  1.9336  0.3652
  288TIP3    H2  871   0.788   2.563   4.896  0.1592 -2.6773 -0.2334
  289TIP3   OH2  872   4.770   1.870   3.807 -0.4797 -0.0623  0.1782
  289TIP3    H1  873   4.693   1.819   3.782 -0.5263 -1.3136  2.5388
  289TIP3    H2  874   4.813   1.892   3.725 -1.3514 -2.5227 -1.0156
  290TIP3   OH2  875   2.299   3.171   3.645  0.0096 -0.8255 -0.0305
  290TIP3    H1  876   2.221   3.116   3.644 -1.1641  0.7621 -0.2257
  290TIP3    H2  877   2.335   3.162   3.556 -0.9086 -0.3222 -0.4759
  291TIP3   OH2  878   4.737   5.637   3.324 -0.6926 -0.1328  0.1785
  291TIP3    H1  879   4.745   5.549   3.360 -0.8379  0.2087  1.0581
  291TIP3    H2  880   4.645   5.660   3.336 -1.0539 -0.5123 -1.6013
  292TIP3   OH2  881   1.462   4.899   1.422 -0.2183  0.1378 -0.2863
  292TIP3    H1  882   1.533   4.910   1.485  0.1083 -1.0702 -0.4358
  292TIP3    H2  883   1.448   4.805   1.417 -0.9080  0.2771 -1.2896
  293TIP3   OH2  884   5.933   5.204   3.024 -0.0550  0.5070 -0.2016
  293TIP3    H1  885   5.877   5.255   3.083 -0.7370 -0.8060  0.3156
  293TIP3    H2  886   6.021   5.217   3.057 -0.4213 -0.1641  1.0999
  294TIP3   OH2  887   0.396   3.873   2.500  0.0924  0.0901  0.4535
  294TIP3    H1  888   0.382   3.788   2.542 -1.0023 -0.1607 -0.3904
  294TIP3    H2  889   0.382   3.937   2.570  0.0708 -0.3891  0.8931
  295TIP3   OH2  890   0.845   0.292   4.744 -0.4448 -0.0672 -0.1463
  295TIP3    H1  891   0.754   0.265   4.756 -0.6278  0.6422  0.1407
  295TIP3    H2  892   0.894   0.210   4.736 -0.9599 -0.4788  0.7594
  296TIP3   OH2  893   0.795   1.962   4.833 -0.1694  0.0223  0.2290
  296TIP3    H1  894   0.702   1.942   4.824 -0.3276  0.2642  1.1672
  296TIP3    H2  895   0.802   2.054   4.806 -0.1561 -0.0653 -0.0715
  297TIP3   OH2  896   0.498   1.305   5.044 -0.2083  0.4937 -0.2865
  297TIP3    H1  897   0.464   1.255   4.970  0.5946  0.9248 -0.9644
  297TIP3    H2  898   0.565   1.363   5.005  0.2446  0.7005  0.7751
  298TIP3   OH2  899   4.525   3.642   1.881 -0.3662  0.2634  0.2063
  298TIP3    H1  900   4.436   3.655   1.914 -0.3663 -0.3305  0.4583
  298TIP3    H2  901   4.523   3.557   1.838  0.6678 -0.9924  2.4155
  299TIP3   OH2  902   2.354   3.333   2.622 -0.3561 -0.2617  0.3818
  299TIP3    H1  903   2.343   3.262   2.559 -0.2585 -0.5338  0.6700
  299TIP3    H2  904   2.265   3.367   2.636 -0.2556  0.4789 -0.6763
  300TIP3   OH2  905   0.339   3.594   1.294  0.0533  0.1518 -0.1806
  300TIP3    H1  906   0.426   3.633   1.287 -0.0455  0.7491  1.5474
  300TIP3    H2  907   0.279   3.663   1.266  0.0604  0.2344  0.0035
  301TIP3   OH2  908   4.441   1.888   2.788 -0.2249  0.0867  0.1223
  301TIP3    H1  909   4.447   1.969   2.839  0.3090  0.8989 -1.1788
  301TIP3    H2  910   4.531   1.869   2.763 -0.4655 -0.3703 -0.4090
  302TIP3   OH2  911   2.056   5.435   0.488  0.2284 -0.5997  0.1536
  302TIP3    H1  912   1.986   5.468   0.544  1.0054  0.2015  0.6935
  302TIP3    H2  913   2.048   5.485   0.407  1.2211  0.7790  0.8608
  303TIP3   OH2  914   0.918   1.102   1.509  0.0886 -0.2737  0.1689
  303TIP3    H1  915   0.979   1.116   1.581 -0.1144  2.5414 -0.0932
  303TIP3    H2  916   0.895   1.190   1.480 -1.6725 -1.2998 -1.8023
  304TIP3   OH2  917   1.587   2.011   3.749  0.1013  0.1577 -0.2889
  304TIP3    H1  918   1.497   2.007   3.780  0.0946 -0.2881 -0.3585
  304TIP3    H2  919   1.638   1.965   3.816 -0.0884 -2.0209 -1.5429
  305TIP3   OH2  920   0.326   3.730   1.716 -0.1401 -0.1647  0.2910
  305TIP3    H1  921   0.299   3.639   1.728  2.3171 -1.1363 -0.7172
  305TIP3    H2  922   0.310   3.772   1.800  1.9352 -2.5034  1.9967
  306TIP3   OH2  923   2.286   4.751   1.375  0.5629 -0.1334 -0.5185
  306TIP3    H1  924   2.229   4.709   1.310 -0.6990 -0.8109  0.9543
  306TIP3    H2  925   2.232   4.820   1.413 -0.2611 -2.2329  2.5082
  307TIP3   OH2  926   5.030   5.867   4.643  0.4532  0.1981 -0.2374
  307TIP3    H1  927   5.089   5.810   4.593 -0.5807 -0.1491 -1.1023
  307TIP3    H2  928   4.965   5.895   4.579 -0.9135 -0.2446  0.9175
  308TIP3   OH2  929   1.378   0.495   1.099 -0.3688 -0.6764  0.3405
  308TIP3    H1  930   1.452   0.508   1.039 -0.1737 -0.5601  0.6036
  308TIP3    H2  931   1.379   0.572   1.155 -1.4456 -0.0579 -0.4418
  309TIP3   OH2  932   5.486   3.919   3.835  0.1525 -0.0741  0.8306
  309TIP3    H1  933   5.397   3.945   3.859 -0.6832 -1.9353 -0.0333
  309TIP3    H2  934   5.514   3.862   3.907 -0.5269 -1.8293 -0.2284
  310TIP3   OH2  935   2.618   3.327   0.309  0.6226 -0.3919 -0.1273
  310TIP3    H1  936   2.625   3.410   0.356 -3.3379  1.1394 -1.7993
  310TIP3    H2  937   2.599   3.263   0.378 -0.6044  0.9588  0.8705
  311TIP3   OH2  938   4.796   3.647   5.163  0.0613  0.3128 -0.5638
  311TIP3    H1  939   4.765   3.633   5.074  0.5249 -0.3403 -0.6299
  311TIP3    H2  940   4.859   3.719   5.156  0.6554 -0.2240 -0.9001
  312TIP3   OH2  941   3.696   2.719   0.370 -0.4996  0.2066  0.1051
  312TIP3    H1  942   3.681   2.657   0.299  0.6256  0.5826 -0.4920
  312TIP3    H2  943   3.636   2.791   0.352  0.0244  0.4592 -0.6900
  313TIP3   OH2  944   5.489   2.861   2.772  0.0275  0.1907 -0.0947
  313TIP3    H1  945   5.568   2.823   2.734  0.3579  0.5036  0.2658
  313TIP3    H2  946   5.417   2.826   2.719  0.4996  1.0065 -1.3211
  314TIP3   OH2  947   5.621   2.604   0.961 -0.6319 -0.0204  0.1751
  314TIP3    H1  948   5.601   2.618   1.054 -1.2477 -0.3641  0.1065
  314TIP3    H2  949   5.556   2.539   0.933 -0.0410 -0.3997 -0.3389
  315TIP3   OH2  950   1.003   5.089   0.241  0.2135  0.0170  0.0907
  315TIP3    H1  951   1.095   5.072   0.223  0.3277 -1.1869  1.6179
  315TIP3    H2  952   0.999   5.182   0.260  0.6777  0.5920 -2.2737
  316TIP3   OH2  953   2.765   4.944   4.267  0.1568 -0.2539  0.2498
  316TIP3    H1  954   2.777   4.856   4.232  2.4768  0.3488 -0.6479
  316TIP3    H2  955   2.850   4.967   4.304 -1.1789  0.5488  3.1151
  317TIP3   OH2  956   0.344   3.653   2.819 -0.1222 -0.4129 -0.4228
  317TIP3    H1  957   0.384   3.740   2.827  1.2836 -1.1436  1.1951
  317TIP3    H2  958   0.349   3.633   2.725  4.3668 -0.8099 -0.3352
  318TIP3   OH2  959   0.340   0.486   4.064  0.0943  0.1526 -0.8301
  318TIP3    H1  960   0.278   0.554   4.038 -0.2891 -0.5381 -1.7834
  318TIP3    H2  961   0.317   0.465   4.155 -0.3517  0.6763 -0.8205
  319TIP3   OH2  962   5.583   5.315   4.180  0.0161  0.5552  0.2620
  319TIP3    H1  963   5.491   5.291   4.174 -0.1888  1.5209 -0.9592
  319TIP3    H2  964   5.600   5.366   4.100  1.9531 -0.7317 -0.2350
  320TIP3   OH2  965   0.051   4.601   0.293  0.7882  0.3931  0.8505
  320TIP3    H1  966  -0.002   4.563   0.223  0.1814  1.5033  0.6809
  320TIP3    H2  967   0.014   4.689   0.306  1.7438  0.6963  1.6443
  321TIP3   OH2  968   0.979   4.073   5.107 -0.1819 -0.1905  1.0323
  321TIP3    H1  969   0.890   4.048   5.083 -0.6822 -0.1329  2.6811
  321TIP3    H2  970   1.029   3.991   5.106 -0.0130 -0.1073 -0.7016
  322TIP3   OH2  971   0.885   4.387   1.606  0.0691 -0.3288  0.0618
  322TIP3    H1  972   0.851   4.470   1.637  0.0020 -0.0787 -0.6577
  322TIP3    H2  973   0.976   4.406   1.583 -0.4044 -0.0125 -1.6976
  323TIP3   OH2  974   3.920   1.920   0.060 -0.0128  0.8879  0.0286
  323TIP3    H1  975   3.940   1.935  -0.032  0.1705  3.3197  0.4002
  323TIP3    H2  976   4.004   1.895   0.099  0.0750  0.6755 -0.2934
  324TIP3   OH2  977   0.730   4.838   2.398 -0.1401 -0.1243  0.3423
  324TIP3    H1  978   0.799   4.839   2.465  0.5087  0.7642 -0.3122
  324TIP3    H2  979   0.727   4.928   2.366  0.1587 -0.6929 -1.3918
  325TIP3   OH2  980   2.327   4.028   4.960 -0.2159 -0.3953 -0.0333
  325TIP3    H1  981   2.270   3.952   4.957 -1.5006  0.4550  1.3012
  325TIP3    H2  982   2.308   4.076   4.879  0.7217 -1.5230 -0.9585
  326TIP3   OH2  983   5.578   0.539   4.046  0.2380 -0.3298  0.3806
  326TIP3    H1  984   5.631   0.467   4.011  0.4150  1.0031 -2.3706
  326TIP3    H2  985   5.520   0.564   3.974 -0.6967  1.4812  1.6556
  327TIP3   OH2  986   3.362   2.273   4.934  0.0156  0.3191 -0.0842
  327TIP3    H1  987   3.416   2.318   4.999  0.4428  0.3511 -0.4610
  327TIP3    H2  988   3.311   2.210   4.985  2.1417 -1.4397  0.0201
  328TIP3   OH2  989   0.341   1.003   3.334 -0.1301  0.1811 -0.1088
  328TIP3    H1  990   0.370   1.081   3.287 -1.0324  0.6126  0.0406
  328TIP3    H2  991   0.417   0.977   3.386  0.1580  0.9985 -0.1122
  329TIP3   OH2  992   6.334   4.290   2.911 -0.3578 -0.0499  0.1425
  329TIP3    H1  993   6.316   4.255   2.823 -0.7456 -0.2745  0.3108
  329TIP3    H2  994   6.414   4.245   2.938  0.6968  1.2043 -0.7437
  330TIP3   OH2  995   4.275   5.298   4.866 -0.9289 -0.4483  0.2511
  330TIP3    H1  996   4.269   5.372   4.805 -1.0582 -0.2636  0.4888
  330TIP3    H2  997   4.304   5.337   4.948 -1.1053 -0.6445  0.4057
  331TIP3   OH2  998   3.299   1.654   4.976 -0.1365 -0.1948  0.3056
  331TIP3    H1  999   3.296   1.665   5.071 -2.1178 -0.0610  0.2886
  331TIP3    H2 1000   3.361   1.720   4.946 -1.3360  1.5232  1.3567
  332TIP3   OH2 1001   3.241   1.274   3.387  0.0372 -0.4697 -0.7543
  332TIP3    H1 1002   3.230   1.366   3.410 -1.5820 -0.6815 -0.5100
  332TIP3    H2 1003   3.200   1.267   3.301 -1.8498 -1.3406  0.1575
  333TIP3   OH2 1004   3.597   4.560   1.291  0.2215  0.2209 -0.4655
  333TIP3    H1 1005   3.552   4.611   1.224  1.1921  0.3045 -1.0711
  333TIP3    H2 1006   3.622   4.479   1.246  0.1550 -0.0841  0.0340
  334TIP3   OH2 1007   2.861   5.447   2.944 -0.0960 -0.2153 -0.2730
  334TIP3    H1 1008   2.789   5.425   2.884 -1.8206  0.1370  1.5696
  334TIP3    H2 1009   2.919   5.370   2.941 -1.0928 -0.9705 -0.9988
  335TIP3   OH2 1010   4.457   4.621   0.625  0.0085 -0.2439  0.2938
  335TIP3    H1 1011   4.428   4.628   0.716  0.2319 -0.4446  0.3791
  335TIP3    H2 1012   4.530   4.683   0.618  0.3558 -0.6371  0.3980
  336TIP3   OH2 1013   3.115   2.571   0.789  0.2910  0.4537  0.2069
  336TIP3    H1 1014   3.058   2.648   0.788  0.4756  0.5906 -1.1925
  336TIP3    H2 1015   3.109   2.535   0.700  0.7708 -0.7358  0.6355
  337TIP3   OH2 1016   1.064   2.968   1.341 -0.1395 -0.0548 -0.0550
  337TIP3    H1 1017   1.081   2.945   1.250  0.5596 -1.9327  0.4948
  337TIP3    H2 1018   1.064   2.884   1.387  0.7764  0.9485  1.8749
  338TIP3   OH2 1019   0.357   5.420   4.888  0.3154 -0.3977  0.7686
  338TIP3    H1 1020   0.442   5.448   4.922  0.5644  1.5416 -1.2472
  338TIP3    H2 1021   0.300   5.497   4.900  0.2220  0.1185 -2.3295
  339TIP3   OH2 1022   1.019   4.451   2.063  0.3314 -0.1651 -0.0584
  339TIP3    H1 1023   1.008   4.541   2.095 -1.7724  0.2407 -1.7028
  339TIP3    H2 1024   1.092   4.456   2.002  1.1418  0.0987  0.9041
  340TIP3   OH2 1025   5.633   1.024   2.770 -0.5834  0.1474  0.2006
  340TIP3    H1 1026   5.647   1.068   2.854 -0.0067 -0.1691  0.2768
  340TIP3    H2 1027   5.601   0.937   2.794 -0.5446  0.1017  0.0880
  341TIP3   OH2 1028   0.317   5.632   4.652 -0.5723  0.1745 -0.1333
  341TIP3    H1 1029   0.406   5.660   4.671 -0.1209 -0.8824 -0.6117
  341TIP3    H2 1030   0.262   5.683   4.712  0.5190 -0.6517  1.6446
  342TIP3   OH2 1031   2.691   4.328   0.118  0.0263 -0.0079  0.0564
  342TIP3    H1 1032   2.784   4.311   0.103 -0.3488 -3.7454  0.9401
  342TIP3    H2 1033   2.652   4.330   0.030  0.7127  0.1203 -0.2520
  343TIP3   OH2 1034   1.310   4.146   4.292 -0.1902  0.1271 -0.5895
  343TIP3    H1 1035   1.311   4.221   4.352  3.0292 -0.3294  0.1333
  343TIP3    H2 1036   1.356   4.176   4.214  0.0666 -0.7388 -0.7848
  344TIP3   OH2 1037   0.621   4.507   4.919 -0.0587 -0.0504  0.0657
  344TIP3    H1 1038   0.546   4.457   4.951 -0.8782  0.5907 -0.7791
  344TIP3    H2 1039   0.671   4.529   4.998 -0.8931 -0.2774  0.6705
  345TIP3   OH2 1040   3.292   1.060   0.832  0.5210 -0.3053  0.2294
  345TIP3    H1 1041   3.265   1.000   0.903  0.4248  0.4283  0.8246
  345TIP3    H2 1042   3.387   1.055   0.831  0.4815 -1.1144 -0.2995
  346TIP3   OH2 1043   2.828   3.503   4.624  0.0046  0.2377 -0.1227
  346TIP3    H1 1044   2.810   3.441   4.553  0.2464 -1.5863  1.3280
  346TIP3    H2 1045   2.907   3.469   4.666  0.1613  1.5559  0.7105
  347TIP3   OH2 1046   1.261   4.187   5.122 -0.5653 -0.1664  0.4557
  347TIP3    H1 1047   1.169   4.161   5.113 -0.8041  1.0251 -0.8619
  347TIP3    H2 1048   1.294   4.133   5.194 -1.6235 -2.4612 -0.6681
  348TIP3   OH2 1049   1.124   3.896   2.661 -0.6666 -0.2519 -0.0730
  348TIP3    H1 1050   1.085   3.966   2.610 -0.6348  0.0550  0.3194
  348TIP3    H2 1051   1.054   3.832   2.673 -1.0287  0.2545  0.5519
  349TIP3   OH2 1052   0.126   5.755   3.176 -0.0795 -0.2968 -0.2915
  349TIP3    H1 1053   0.207   5.776   3.223 -1.1680  1.8713  0.7570
  349TIP3    H2 1054   0.147   5.676   3.126  3.5446  1.6164 -2.1888
  350TIP3   OH2 1055   0.805   5.809   4.274  0.2646  0.0275  0.2065
  350TIP3    H1 1056   0.826   5.900   4.299  0.7289  0.4192 -1.4959
  350TIP3    H2 1057   0.753   5.776   4.347  0.6808  1.4329  1.1922
  351TIP3   OH2 1058   4.078   1.785   5.047  0.1781 -0.8548  0.0096
  351TIP3    H1 1059   4.052   1.870   5.082  2.6695 -0.0022 -0.0441
  351TIP3    H2 1060   4.063   1.723   5.118 -2.3752 -0.5956 -0.1915
  352TIP3   OH2 1061   1.340   1.011   0.545  0.9959  0.1338  0.2910
  352TIP3    H1 1062   1.272   1.076   0.526  0.1896 -0.5636  0.6794
  352TIP3    H2 1063   1.322   0.940   0.483  0.9590 -0.3321  0.8284
  353TIP3   OH2 1064   6.041   4.254   4.327  0.1742  0.1854 -0.4185
  353TIP3    H1 1065   5.979   4.232   4.258  0.6698 -2.2008 -0.1938
  353TIP3    H2 1066   6.127   4.233   4.289  0.8015  2.3272 -0.3162
  354TIP3   OH2 1067   0.038   3.115   0.767 -0.3668 -0.4279  0.3450
  354TIP3    H1 1068   0.008   3.204   0.784  0.0569 -0.0993 -0.5621
  354TIP3    H2 1069   0.015   3.066   0.846  0.6760  0.7906  1.4496
  355TIP3   OH2 1070   1.412   4.966   0.467 -0.0272  0.0594  0.5187
  355TIP3    H1 1071   1.386   4.898   0.529 -0.7256  0.3559  0.5690
  355TIP3    H2 1072   1.478   4.925   0.412  1.3544  0.0916  2.0822
  356TIP3   OH2 1073   4.562   1.467   2.213 -0.3224 -0.4759 -0.0417
  356TIP3    H1 1074   4.556   1.562   2.225 -0.9827 -0.2858 -1.6685
  356TIP3    H2 1075   4.635   1.440   2.270  1.3821  1.3434 -1.2164
  357TIP3   OH2 1076   1.376   5.435   3.543 -0.1686 -0.5626 -0.3453
  357TIP3    H1 1077   1.388   5.526   3.517 -0.2742 -0.4371  0.0238
  357TIP3    H2 1078   1.293   5.436   3.592  0.7927 -0.4782  1.3660
  358TIP3   OH2 1079   3.892   0.979   3.934 -0.2740  0.1955 -0.0437
  358TIP3    H1 1080   3.945   0.909   3.973 -0.0943  0.5969  0.4394
  358TIP3    H2 1081   3.954   1.049   3.916 -0.2197 -0.2399 -1.7511
  359TIP3   OH2 1082   5.406   4.594   4.094 -0.1512  0.3788 -0.4798
  359TIP3    H1 1083   5.449   4.679   4.102 -1.3145  0.8489  1.3350
  359TIP3    H2 1084   5.448   4.553   4.018  1.7364  1.8027 -0.2774
  360TIP3   OH2 1085   5.438   2.230   4.728 -0.5849  0.2411  0.2273
  360TIP3    H1 1086   5.418   2.311   4.775  0.7693  1.0218 -0.4813
  360TIP3    H2 1087   5.525   2.205   4.758 -0.4954 -0.2971 -0.4417
  361TIP3   OH2 1088   1.835   1.023   3.233 -0.2490  0.1557 -0.5525
  361TIP3    H1 1089   1.792   0.975   3.162  0.3671  0.5402 -1.1950
  361TIP3    H2 1090   1.794   1.109   3.232  0.8607  0.6956 -1.5006
  362TIP3   OH2 1091   3.992   0.395   0.265 -0.2049  0.4474  0.0938
  362TIP3    H1 1092   3.974   0.440   0.347  0.9953  1.2882 -0.0731
  362TIP3    H2 1093   3.910   0.401   0.215 -0.8296  0.2263  1.0804
  363TIP3   OH2 1094   6.162   0.562   4.050 -0.5670 -0.4475  0.0883
  363TIP3    H1 1095   6.150   0.605   3.965  0.1081 -0.5564 -0.0640
  363TIP3    H2 1096   6.147   0.470   4.033  0.1573 -0.5462 -0.0414
  364TIP3   OH2 1097   0.579   1.627   1.301 -0.1371 -0.2814 -0.1153
  364TIP3    H1 1098   0.499   1.580   1.325  0.1498  0.3862  2.4430
  364TIP3    H2 1099   0.553   1.719   1.298  0.1429 -0.2262 -1.1855
  365TIP3   OH2 1100   1.214   3.123   2.996  0.0401  0.5923 -0.2714
  365TIP3    H1 1101   1.270   3.047   3.008  1.7695  1.3538 -2.6128
  365TIP3    H2 1102   1.268   3.197   3.025 -1.4374  1.0515  1.5323
  366TIP3   OH2 1103   2.727   2.695   3.203 -0.2766 -0.1836 -0.5227
  366TIP3    H1 1104   2.779   2.758   3.253 -1.6844 -0.3794  1.3002
  366TIP3    H2 1105   2.748   2.610   3.241  0.2274 -0.6428 -1.7481
  367TIP3   OH2 1106   2.374   5.263   4.639 -0.4145 -0.2593 -0.6603
  367TIP3    H1 1107   2.447   5.314   4.605 -0.0665 -1.1412 -1.2663
  367TIP3    H2 1108   2.371   5.284   4.732  0.9806 -0.6393 -0.5041
  368TIP3   OH2 1109   0.121   2.484   2.731  0.3261  0.0621 -0.7114
  368TIP3    H1 1110   0.042   2.459   2.682 -1.2461  2.0251  0.6669
  368TIP3    H2 1111   0.089   2.539   2.802  2.6601 -1.4733  1.7244
  369TIP3   OH2 1112   3.158   3.907   1.182 -0.0300  0.5903  0.3851
  369TIP3    H1 1113   3.078   3.856   1.193  0.0449  0.3886  0.0124
  369TIP3    H2 1114   3.224   3.842   1.157  0.0828  0.8546 -0.0089
  370TIP3   OH2 1115   5.443   4.282   2.498  0.4284  0.6182  0.0904
  370TIP3    H1 1116   5.383   4.295   2.571 -0.9323 -1.1081 -0.6287
  370TIP3    H2 1117   5.387   4.284   2.420  1.4403 -0.1222 -0.6837
  371TIP3   OH2 1118   0.850   4.219   3.669 -0.6768 -0.2000  0.4475
  371TIP3    H1 1119   0.816   4.140   3.626  0.4661 -0.4729  0.0122
  371TIP3    H2 1120   0.805   4.291   3.626  0.2414 -0.4825 -1.0633
  372TIP3   OH2 1121   5.711   2.760   2.619 -0.4437 -0.3678  0.5282
  372TIP3    H1 1122   5.687   2.745   2.528 -1.2706  0.2193  0.6405
  372TIP3    H2 1123   5.711   2.855   2.629 -0.4483 -0.4264  1.1627
  373TIP3   OH2 1124   2.634   0.127   0.106 -0.5149  0.4297  0.1578
  373TIP3    H1 1125   2.553   0.174   0.123  1.0816  3.3894  0.2826
  373TIP3    H2 1126   2.669   0.105   0.193 -0.7573 -0.1445  0.1195
  374TIP3   OH2 1127   3.596   0.047   4.612 -0.0462 -0.5155  0.4820
  374TIP3    H1 1128   3.504   0.074   4.616  0.3530  1.8070 -2.5660
  374TIP3    H2 1129   3.604   0.003   4.527  1.9487  0.8402 -0.1115
  375TIP3   OH2 1130   4.881   3.642   0.585 -0.2521  0.1288  0.1659
  375TIP3    H1 1131   4.907   3.560   0.541  0.4246  0.2332  0.3583
  375TIP3    H2 1132   4.948   3.705   0.560 -1.3507  0.9311 -0.8454
  376TIP3   OH2 1133   0.821   3.316   4.045 -0.1445  0.0344  0.4588
  376TIP3    H1 1134   0.848   3.393   3.995  2.2057  1.2755  3.3504
  376TIP3    H2 1135   0.728   3.330   4.062  0.2845  2.5160  1.2056
  377TIP3   OH2 1136   2.124   5.261   2.587  0.9013  0.1957  0.0175
  377TIP3    H1 1137   2.124   5.171   2.619 -0.7398  0.4217  0.7266
  377TIP3    H2 1138   2.153   5.313   2.663 -2.7498  0.7058  1.2626
  378TIP3   OH2 1139   5.799   0.216   0.389  0.3426 -0.1578  0.2698
  378TIP3    H1 1140   5.823   0.228   0.297 -0.9128  0.2507 -0.0255
  378TIP3    H2 1141   5.867   0.263   0.438  0.1519  1.0095 -0.5327
  379TIP3   OH2 1142   5.641   2.965   0.245  0.1755  0.0458 -0.2984
  379TIP3    H1 1143   5.618   3.046   0.198 -2.1265 -0.7495 -0.6616
  379TIP3    H2 1144   5.589   2.968   0.325 -1.3471 -1.8708 -1.1582
  380TIP3   OH2 1145   3.576   1.471   1.648 -0.0070 -0.7931 -0.3591
  380TIP3    H1 1146   3.617   1.430   1.724 -0.3339 -0.5745 -0.0616
  380TIP3    H2 1147   3.489   1.432   1.643  0.2767 -1.3539 -1.0718
  381TIP3   OH2 1148   4.641   1.698   3.342 -0.4330 -0.3898 -0.2565
  381TIP3    H1 1149   4.547   1.702   3.362 -0.0306 -1.5379  2.3715
  381TIP3    H2 1150   4.651   1.620   3.287 -0.9907 -0.4543 -0.2700
  382TIP3   OH2 1151   5.146   0.422   3.516 -0.5070 -0.2424 -0.6373
  382TIP3    H1 1152   5.171   0.341   3.559 -0.3053  0.5266  0.7340
  382TIP3    H2 1153   5.050   0.421   3.516 -0.5253  0.1669  0.6809
  383TIP3   OH2 1154   5.662   1.203   0.226 -0.2118  0.5382 -0.8289
  383TIP3    H1 1155   5.742   1.165   0.261 -0.2640 -0.5982 -1.8739
  383TIP3    H2 1156   5.690   1.281   0.179  0.0379  1.1844  0.3435
  384TIP3   OH2 1157   2.381   1.861   4.107 -0.9794 -0.1073 -0.0864
  384TIP3    H1 1158   2.395   1.953   4.085  0.3657 -0.2727  0.0286
  384TIP3    H2 1159   2.311   1.863   4.172 -1.5768  0.7574 -0.7278
  385TIP3   OH2 1160   0.174   4.800   1.304 -0.9565 -0.0768 -0.2025
  385TIP3    H1 1161   0.239   4.748   1.350 -1.9674 -0.6735  0.6118
  385TIP3    H2 1162   0.135   4.740   1.241 -2.0513 -0.3370  0.6650
  386TIP3   OH2 1163   2.477   4.973   1.131 -0.4220 -0.0151  0.0584
  386TIP3    H1 1164   2.471   4.985   1.036 -2.3599  0.3333  0.1816
  386TIP3    H2 1165   2.388   4.987   1.163  0.4427  1.2264  2.1157
  387TIP3   OH2 1166   0.193   3.450   2.062  0.7735  0.1339 -0.0359
  387TIP3    H1 1167   0.214   3.454   2.155  0.5405  2.2088 -0.0263
  387TIP3    H2 1168   0.101   3.479   2.057  0.5143 -0.7594 -0.8526
  388TIP3   OH2 1169   0.315   4.127   2.118  0.3148  0.3684 -0.2646
  388TIP3    H1 1170   0.227   4.092   2.109 -0.6914  2.1489  1.7826
  388TIP3    H2 1171   0.311   4.214   2.079  0.8556  0.9024  0.8318
  389TIP3   OH2 1172   4.483   4.974   4.155 -0.0003  0.5675  0.0136
  389TIP3    H1 1173   4.563   5.018   4.183  0.7455 -0.7823  0.0745
  389TIP3    H2 1174   4.445   4.940   4.236  0.7455 -1.0041 -0.2464
  390TIP3   OH2 1175   1.992   4.846   3.541  1.0911  0.0468  0.1391
  390TIP3    H1 1176   1.995   4.849   3.636 -1.0113 -0.0451  0.2552
  390TIP3    H2 1177   1.989   4.753   3.520  0.2274  0.0799  0.0754
  391TIP3   OH2 1178   1.835   1.666   3.399  0.0090 -0.3107  0.0706
  391TIP3    H1 1179   1.834   1.637   3.307  0.4541 -0.6220  0.1634
  391TIP3    H2 1180   1.907   1.728   3.404  1.2149 -1.6971  0.6270
  392TIP3   OH2 1181   1.266   1.966   0.406 -0.5091  0.1326  0.8786
  392TIP3    H1 1182   1.171   1.981   0.412 -0.3835  1.0051  0.7790
  392TIP3    H2 1183   1.303   2.052   0.390  0.1478 -0.4703 -1.1051
  393TIP3   OH2 1184   3.464   4.200   0.702 -0.2002 -0.2640 -0.0126
  393TIP3    H1 1185   3.492   4.241   0.620  0.9179 -0.6910  0.1445
  393TIP3    H2 1186   3.370   4.184   0.689 -0.0454 -0.3439 -1.2133
  394TIP3   OH2 1187   0.731   5.364   0.889 -0.6330 -0.2988 -0.6518
  394TIP3    H1 1188   0.646   5.409   0.888 -0.3550  0.2295 -0.4801
  394TIP3    H2 1189   0.747   5.346   0.982 -0.3634 -0.0334 -0.6476
  395TIP3   OH2 1190   4.505   1.251   2.783 -0.4520  0.0330  0.4102
  395TIP3    H1 1191   4.575   1.205   2.829 -0.4806 -0.5840 -0.1524
  395TIP3    H2 1192   4.534   1.343   2.781  0.5104 -0.2720 -0.1383
  396TIP3   OH2 1193   0.935   0.424   2.635  0.1504 -0.2445  0.1633
  396TIP3    H1 1194   0.887   0.406   2.554  0.6937 -2.7898  0.3096
  396TIP3    H2 1195   0.999   0.353   2.640  1.2270  0.7916  2.0149
  397TIP3   OH2 1196   2.511   3.136   5.002 -0.2965  0.7126 -0.6530
  397TIP3    H1 1197   2.490   3.046   4.981 -0.6229  0.4791  0.5999
  397TIP3    H2 1198   2.526   3.178   4.917  0.7687 -0.7219 -1.2141
  398TIP3   OH2 1199   0.546   0.498   0.623 -0.1691 -0.2836 -0.2779
  398TIP3    H1 1200   0.480   0.475   0.558  1.5557  0.5231 -2.4640
  398TIP3    H2 1201   0.617   0.436   0.608  0.8478  0.8099 -0.1531
  399TIP3   OH2 1202   0.449   0.080   3.578 -0.1265  0.0151  0.1765
  399TIP3    H1 1203   0.468   0.166   3.541  0.7171 -0.2064  0.0612
  399TIP3    H2 1204   0.390   0.039   3.516  0.5457  0.0016 -0.4728
  400TIP3   OH2 1205   3.026   0.095   1.755 -0.2025 -0.5128 -0.2330
  400TIP3    H1 1206   2.960   0.096   1.825  0.1991  1.0905  0.1615
  400TIP3    H2 1207   3.001   0.167   1.697  0.3863 -0.8205 -0.8827
  401TIP3   OH2 1208   0.630   0.836   2.584 -0.0044  0.6833 -0.2137
  401TIP3    H1 1209   0.675   0.756   2.614 -1.5368  0.1195  0.6772
  401TIP3    H2 1210   0.696   0.882   2.532  0.3902 -2.1404 -2.5203
  402TIP3   OH2 1211   2.799   5.042   2.775 -0.2257 -0.7416 -0.0791
  402TIP3    H1 1212   2.748   5.032   2.855  0.7389 -1.5744  0.4554
  402TIP3    H2 1213   2.810   4.953   2.742 -0.0626 -0.4662 -0.7875
  403TIP3   OH2 1214   5.809   2.843   4.613 -0.2766  0.2956 -0.1888
  403TIP3    H1 1215   5.869   2.788   4.663 -0.1254  0.4272 -0.2243
  403TIP3    H2 1216   5.744   2.870   4.677 -0.5393 -0.1923 -0.2456
  404TIP3   OH2 1217   1.330   5.351   0.056 -0.7433 -0.7992 -0.3175
  404TIP3    H1 1218   1.335   5.352   0.152 -0.6645 -0.7140 -0.3224
  404TIP3    H2 1219   1.245   5.312   0.037 -0.3581 -1.7168 -0.2221
  405TIP3   OH2 1220   6.288   0.073   1.096  0.2051  0.0998 -0.2841
  405TIP3    H1 1221   6.209   0.090   1.147 -0.2078  0.4423 -1.0247
  405TIP3    H2 1222   6.333   0.157   1.091 -0.9216  0.6424 -2.4064
  406TIP3   OH2 1223   5.702   2.106   4.024 -0.8744 -0.0272 -0.6208
  406TIP3    H1 1224   5.698   2.023   4.072  1.5779  0.5658  0.7652
  406TIP3    H2 1225   5.623   2.153   4.051 -0.9485 -0.8418  0.6649
  407TIP3   OH2 1226   3.318   2.430   1.974 -0.1843  0.1317  0.3281
  407TIP3    H1 1227   3.245   2.380   2.011 -0.8788  0.2680 -0.7820
  407TIP3    H2 1228   3.337   2.497   2.040 -0.0694 -0.8210  1.2818
  408TIP3   OH2 1229   2.958   4.053   0.902 -0.2141  1.3267  0.2100
  408TIP3    H1 1230   3.053   4.067   0.908  0.4134 -1.4832 -1.4807
  408TIP3    H2 1231   2.947   3.959   0.917 -2.6452  1.4346 -0.5930
  409TIP3   OH2 1232   4.238   2.186   2.739 -0.5808 -0.1462 -0.1941
  409TIP3    H1 1233   4.321   2.165   2.783 -1.0096 -1.7782 -0.0952
  409TIP3    H2 1234   4.196   2.249   2.797  0.6388  0.8166 -0.3143
  410TIP3   OH2 1235   3.085   5.449   2.356  0.1279  0.3682  0.2693
  410TIP3    H1 1236   3.001   5.452   2.309 -0.0080  0.8780  0.5390
  410TIP3    H2 1237   3.143   5.400   2.298  0.5382  2.6478 -1.3725
  411TIP3   OH2 1238   0.628   1.665   3.970  0.5312 -0.3075  0.1094
  411TIP3    H1 1239   0.673   1.598   3.919 -0.5330  1.3292 -3.2554
  411TIP3    H2 1240   0.559   1.617   4.017  0.0256 -1.6646 -1.8873
  412TIP3   OH2 1241   5.628   2.902   4.813 -0.6661  0.4137 -0.1191
  412TIP3    H1 1242   5.613   2.809   4.829 -0.5546  0.3576 -0.3404
  412TIP3    H2 1243   5.608   2.944   4.897  0.0343  0.1097  0.2087
  413TIP3   OH2 1244   4.462   4.589   4.659  0.3433  0.3082  0.2671
  413TIP3    H1 1245   4.511   4.557   4.735  0.0773  1.7163  1.0515
  413TIP3    H2 1246   4.372   4.597   4.690  0.3402  1.4410 -0.0099
  414TIP3   OH2 1247   1.623   5.819   3.736  0.1027 -0.0185  0.1704
  414TIP3    H1 1248   1.577   5.822   3.820 -0.2119  0.6001 -0.0186
  414TIP3    H2 1249   1.688   5.888   3.742  0.3785 -0.2673  0.0705
  415TIP3   OH2 1250   3.461   0.452   1.810 -0.4288 -0.6048  0.2058
  415TIP3    H1 1251   3.482   0.361   1.789 -0.8115 -0.9636  1.3076
  415TIP3    H2 1252   3.524   0.476   1.879 -0.1659  0.0469 -0.2538
  416TIP3   OH2 1253   5.161   0.546   4.136  0.0119 -0.2673 -0.0230
  416TIP3    H1 1254   5.142   0.545   4.042 -2.1087 -1.2395  0.3674
  416TIP3    H2 1255   5.085   0.506   4.176  0.7076  0.4911  2.1777
  417TIP3   OH2 1256   2.384   2.822   2.110 -0.5202 -0.1043 -0.2867
  417TIP3    H1 1257   2.475   2.828   2.080 -0.5836 -0.3228 -0.5282
  417TIP3    H2 1258   2.357   2.913   2.123 -0.8157  0.0549 -1.8703
  418TIP3   OH2 1259   5.752   3.503   4.589  0.1501  0.4377 -0.0431
  418TIP3    H1 1260   5.762   3.458   4.673  0.4239 -1.8788 -1.2328
  418TIP3    H2 1261   5.841   3.514   4.557  0.0156  0.7499 -0.3126
  419TIP3   OH2 1262   1.637   4.515   1.155  0.0802  0.6376  0.5221
  419TIP3    H1 1263   1.629   4.434   1.204  0.8426 -0.4407 -1.0379
  419TIP3    H2 1264   1.549   4.535   1.125 -0.1431  0.5271  1.0889
  420TIP3   OH2 1265   2.114   2.416   1.813 -0.4019 -0.1714 -0.3731
  420TIP3    H1 1266   2.099   2.368   1.894  1.4738 -0.7128 -0.3153
  420TIP3    H2 1267   2.149   2.501   1.842 -1.7092  0.4629 -0.5643
  421TIP3   OH2 1268   4.731   5.413   2.731 -0.0043  0.3018 -0.5322
  421TIP3    H1 1269   4.658   5.390   2.789  0.3394 -0.2161 -0.2998
  421TIP3    H2 1270   4.775   5.486   2.776  2.6351 -2.5534  1.9509
  422TIP3   OH2 1271   6.000   1.458   2.570  0.3642  0.6295  0.3018
  422TIP3    H1 1272   5.953   1.430   2.648  0.6428 -0.0383  0.2342
  422TIP3    H2 1273   6.021   1.377   2.524  1.2917  0.9375  0.1600
  423TIP3   OH2 1274   3.719   1.824   4.581 -0.6463 -0.3724 -0.4954
  423TIP3    H1 1275   3.750   1.768   4.509  0.4040  0.9993 -1.1488
  423TIP3    H2 1276   3.641   1.867   4.547 -1.2805 -1.1738 -0.0975
  424TIP3   OH2 1277   0.700   4.588   1.203  0.3217 -0.0191 -0.0711
  424TIP3    H1 1278   0.731   4.545   1.282 -2.5112 -0.6352  0.8276
  424TIP3    H2 1279   0.659   4.519   1.152  1.9821  0.3883 -2.0977
  425TIP3   OH2 1280   0.991   0.255   2.409  0.6153  0.1327 -0.2063
  425TIP3    H1 1281   0.906   0.273   2.368  0.5762 -0.0209 -0.1928
  425TIP3    H2 1282   0.969   0.206   2.488  0.7692 -0.6145 -0.6246
  426TIP3   OH2 1283   2.543   5.835   1.531 -0.0467  0.2760 -0.4992
  426TIP3    H1 1284   2.583   5.869   1.451 -0.2269  3.7655  0.7220
  426TIP3    H2 1285   2.450   5.832   1.513 -0.1245  1.4285 -0.3401
  427TIP3   OH2 1286   1.889   2.971   3.025  0.2046 -0.3738  0.1336
  427TIP3    H1 1287   1.948   2.947   3.097 -0.6999  0.4598  1.2064
  427TIP3    H2 1288   1.802   2.967   3.064 -0.3246 -0.1181 -0.9988
  428TIP3   OH2 1289   1.121   2.889   3.681  0.1488  0.7983 -0.1456
  428TIP3    H1 1290   1.083   2.811   3.722 -0.1690  0.5622 -0.8655
  428TIP3    H2 1291   1.207   2.860   3.650 -0.1374  0.6049 -0.7821
  429TIP3   OH2 1292   2.120   1.796   3.697 -0.3035 -0.1985 -0.2420
  429TIP3    H1 1293   2.176   1.722   3.720 -1.1228 -1.3286 -1.6906
  429TIP3    H2 1294   2.031   1.763   3.708 -0.7264  1.3881  1.4912
  430TIP3   OH2 1295   4.058   2.020   5.169 -1.1081  0.1556  0.0264
  430TIP3    H1 1296   4.153   2.006   5.172 -1.2177 -0.5242  0.4382
  430TIP3    H2 1297   4.048   2.109   5.135 -0.2727  0.9897  1.8302
  431TIP3   OH2 1298   3.240   5.849   0.861  0.6852  0.0929  0.3856
  431TIP3    H1 1299   3.219   5.759   0.838  1.9844 -0.1389 -0.0212
  431TIP3    H2 1300   3.158   5.887   0.892  0.0312 -1.1012  0.1516
  432TIP3   OH2 1301   0.802   1.011   0.610 -0.2828  0.3598 -0.2505
  432TIP3    H1 1302   0.892   0.981   0.620  0.2025  1.4962 -0.9875
  432TIP3    H2 1303   0.759   0.945   0.556 -0.0751 -0.5038  0.6213
  433TIP3   OH2 1304   0.837   5.705   5.062  0.3064 -0.0909  0.3077
  433TIP3    H1 1305   0.825   5.775   4.997  0.8601  0.2963  0.6127
  433TIP3    H2 1306   0.900   5.646   5.022  0.4677  0.0234  0.3901
  434TIP3   OH2 1307   4.840   0.502   3.518  0.4318 -0.4740  0.0791
  434TIP3    H1 1308   4.792   0.424   3.546  0.1301 -0.0941  0.6277
  434TIP3    H2 1309   4.773   0.561   3.483  0.6435 -0.3999 -0.2131
  435TIP3   OH2 1310   3.388   5.175   3.981 -0.0308 -0.2985  0.4409
  435TIP3    H1 1311   3.426   5.204   3.898 -0.2321 -1.7675 -0.2033
  435TIP3    H2 1312   3.334   5.248   4.010 -0.0493  0.1988 -0.7924
  436TIP3   OH2 1313   5.900   4.130   1.587 -0.0434 -0.1276  0.2027
  436TIP3    H1 1314   5.842   4.087   1.650 -0.3234 -0.8692 -0.5359
  436TIP3    H2 1315   5.946   4.197   1.638 -0.3898 -0.5881  1.1486
  437TIP3   OH2 1316   0.258   4.353   1.558 -0.5708 -0.0209  0.1608
  437TIP3    H1 1317   0.237   4.415   1.629 -1.1922  0.6397 -0.5693
  437TIP3    H2 1318   0.179   4.300   1.549 -0.1262 -0.7726  0.6207
  438TIP3   OH2 1319   4.965   4.191   0.571 -0.0977  0.1410 -0.2136
  438TIP3    H1 1320   4.911   4.115   0.596 -0.5213  0.6454  0.4472
  438TIP3    H2 1321   4.901   4.256   0.542  0.3548 -0.2917 -2.3618
  439TIP3   OH2 1322   4.283   5.332   3.641 -0.4403 -0.4237  0.2423
  439TIP3    H1 1323   4.228   5.316   3.718 -2.1143  0.1540 -0.7750
  439TIP3    H2 1324   4.332   5.251   3.630 -0.3713 -0.6168  1.7487
  440TIP3   OH2 1325   1.404   1.351   4.782  0.4059 -0.5528  0.5075
  440TIP3    H1 1326   1.389   1.323   4.692 -0.6371  0.4185  0.3527
  440TIP3    H2 1327   1.372   1.441   4.785 -0.1612 -0.7654  2.0019
  441TIP3   OH2 1328   1.027   3.730   3.424 -0.0630  0.5116 -0.0226
  441TIP3    H1 1329   1.081   3.772   3.357  1.5680  0.0463  0.9554
  441TIP3    H2 1330   1.047   3.637   3.415  0.2837  0.4570  1.1785
  442TIP3   OH2 1331   1.705   3.476   1.951 -0.4890 -0.7230  0.0570
  442TIP3    H1 1332   1.621   3.492   1.993  0.0707  0.1717  0.8910
  442TIP3    H2 1333   1.746   3.563   1.946  0.3775 -1.1391 -0.3318
  443TIP3   OH2 1334   0.660   3.607   3.856  0.0982 -0.5403  0.2330
  443TIP3    H1 1335   0.754   3.592   3.871 -0.0081 -0.8926  0.5750
  443TIP3    H2 1336   0.629   3.647   3.937  0.3113  1.3162 -0.5573
  444TIP3   OH2 1337   2.242   0.544   0.584  0.1008 -0.2365  0.1227
  444TIP3    H1 1338   2.180   0.490   0.535  0.5590 -1.1801  0.5527
  444TIP3    H2 1339   2.194   0.570   0.662 -0.2554  0.3191 -0.2769
  445TIP3   OH2 1340   0.546   2.001   3.517 -0.1855  0.2389  0.0801
  445TIP3    H1 1341   0.601   1.997   3.438 -1.0229 -1.0664 -0.4674
  445TIP3    H2 1342   0.596   1.953   3.583 -1.0354 -1.8116 -0.6901
  446TIP3   OH2 1343   1.780   4.414   1.532 -0.0119  0.0623  0.0601
  446TIP3    H1 1344   1.811   4.334   1.573 -1.8271 -0.5890  0.2835
  446TIP3    H2 1345   1.770   4.475   1.606 -2.4789 -0.8477  0.5987
  447TIP3   OH2 1346   5.034   2.761   3.258  0.2611  0.4924 -0.4346
  447TIP3    H1 1347   5.057   2.780   3.168  2.5199  0.5565  0.0919
  447TIP3    H2 1348   4.970   2.690   3.253 -1.2212  1.8461 -2.0956
  448TIP3   OH2 1349   5.816   3.407   2.695  0.5551 -0.2994 -0.0939
  448TIP3    H1 1350   5.893   3.398   2.639  0.1745  0.6584 -0.7811
  448TIP3    H2 1351   5.831   3.343   2.765  2.5388  0.6580  0.4452
  449TIP3   OH2 1352   6.031   0.073   4.234 -0.4879 -0.2818  0.4507
  449TIP3    H1 1353   5.944   0.108   4.217 -0.2477 -0.1734 -0.6604
  449TIP3    H2 1354   6.066   0.128   4.304 -1.9332 -1.4036  2.1474
  450TIP3   OH2 1355   0.316   4.347   1.912  0.0091  0.6616 -0.5736
  450TIP3    H1 1356   0.304   4.433   1.953 -1.0135  0.0421  0.4783
  450TIP3    H2 1357   0.407   4.347   1.882  0.4768  1.5477  0.7589
  451TIP3   OH2 1358   0.871   4.489   2.735  0.3260  0.0852  0.3572
  451TIP3    H1 1359   0.853   4.579   2.708 -1.0664 -0.4068 -0.4206
  451TIP3    H2 1360   0.806   4.470   2.802  0.2011 -0.5472  0.0646
  452TIP3   OH2 1361   4.948   4.664   2.713 -0.5442  0.3889 -0.1392
  452TIP3    H1 1362   4.974   4.756   2.717 -0.0935  0.3362 -1.4129
  452TIP3    H2 1363   4.853   4.666   2.727 -0.5785  1.0726 -0.4161
  453TIP3   OH2 1364   5.979   2.908   5.060  0.2307  0.0275  0.5678
  453TIP3    H1 1365   6.025   2.933   4.980 -2.7604 -1.4535 -1.7848
  453TIP3    H2 1366   6.002   2.816   5.073  0.7651  0.2810  1.5096
  454TIP3   OH2 1367   0.124   3.876   4.996  0.7206  0.3464 -0.4922
  454TIP3    H1 1368   0.211   3.845   4.969  0.0223 -0.6878 -1.6667
  454TIP3    H2 1369   0.134   3.897   5.089  1.8039 -1.3776 -0.1700
  455TIP3   OH2 1370   1.883   4.151   2.917 -0.0290 -0.1040 -0.6091
  455TIP3    H1 1371   1.904   4.236   2.957 -0.6170  0.3575 -1.2571
  455TIP3    H2 1372   1.872   4.092   2.991  1.4855  0.1071 -0.1761
  456TIP3   OH2 1373   1.706   0.537   0.349 -0.5413 -0.5673 -0.1439
  456TIP3    H1 1374   1.754   0.483   0.287  1.5923 -0.2342  1.1072
  456TIP3    H2 1375   1.689   0.478   0.423  0.1385 -0.0277  0.4480
  457TIP3   OH2 1376   5.385   3.073   2.539  0.0391  0.3408  0.4000
  457TIP3    H1 1377   5.443   3.000   2.561  0.6704  0.2849 -1.2605
  457TIP3    H2 1378   5.442   3.150   2.541 -0.1311  0.4781  0.0538
  458TIP3   OH2 1379   4.862   1.222   0.092 -0.0127 -0.8030 -0.4233
  458TIP3    H1 1380   4.857   1.128   0.075 -0.6237 -0.6599 -1.0684
  458TIP3    H2 1381   4.956   1.240   0.098  0.0866 -1.7216  1.3127
  459TIP3   OH2 1382   3.977   0.053   0.879 -0.5247 -0.0550  0.0729
  459TIP3    H1 1383   4.020   0.120   0.933  2.8517 -0.2770 -2.0003
  459TIP3    H2 1384   3.987  -0.027   0.930 -1.1349  0.3852  0.9077
  460TIP3   OH2 1385   2.599   1.402   3.277  0.1616  0.0593  0.0146
  460TIP3    H1 1386   2.663   1.414   3.348  0.9466  0.7916 -0.7919
  460TIP3    H2 1387   2.520   1.447   3.309  0.0497 -0.7796  0.9831
  461TIP3   OH2 1388   6.286   4.585   3.592  0.5498 -0.5041  0.2214
  461TIP3    H1 1389   6.195   4.613   3.580  1.7473  3.1634 -1.8972
  461TIP3    H2 1390   6.295   4.507   3.537 -1.4430 -1.4400  1.1221
  462TIP3   OH2 1391   1.426   2.096   2.941  0.1372 -0.0769 -0.2904
  462TIP3    H1 1392   1.361   2.102   3.011 -0.6490 -0.7858 -0.9302
  462TIP3    H2 1393   1.434   2.002   2.925  1.2060  0.0078 -0.3459
  463TIP3   OH2 1394   2.004   3.136   0.120  0.4693  0.1182 -0.6132
  463TIP3    H1 1395   1.986   3.228   0.140  1.1860  0.6660 -2.3043
  463TIP3    H2 1396   2.099   3.129   0.119  0.4352 -0.4376 -1.2874
  464TIP3   OH2 1397   0.081   3.641   4.624  0.1130 -0.2642 -0.8562
  464TIP3    H1 1398   0.047   3.634   4.714 -1.1354  1.1856 -1.1637
  464TIP3    H2 1399   0.156   3.700   4.631 -0.4912  0.5299 -0.8483
  465TIP3   OH2 1400   1.249   1.419   1.039 -0.2689  0.3318 -0.0792
  465TIP3    H1 1401   1.249   1.514   1.044 -1.2267  0.2788  1.8522
  465TIP3    H2 1402   1.322   1.392   1.095 -0.5671 -0.0717  0.1190
  466TIP3   OH2 1403   0.979   5.331   3.235  0.3173 -0.1797  0.0222
  466TIP3    H1 1404   1.055   5.315   3.180  0.1046 -1.4399  0.0729
  466TIP3    H2 1405   0.970   5.252   3.288  0.5857  1.0227  1.9665
  467TIP3   OH2 1406   2.470   5.986   0.101 -0.4222 -0.2954 -0.9223
  467TIP3    H1 1407   2.502   5.899   0.126 -2.2519 -0.6536  0.4082
  467TIP3    H2 1408   2.547   6.043   0.110  0.5264 -1.5599 -0.6564
  468TIP3   OH2 1409   0.027   5.768   4.061  0.2217  0.2993 -0.1387
  468TIP3    H1 1410   0.038   5.848   4.009  1.9297 -0.2587 -0.6989
  468TIP3    H2 1411   0.116   5.746   4.089 -0.4470 -0.4083  1.5620
  469TIP3   OH2 1412   4.244   4.075   0.977  0.5067 -0.8315 -0.3610
  469TIP3    H1 1413   4.199   4.122   1.047  1.2414  2.4415 -1.9181
  469TIP3    H2 1414   4.330   4.053   1.014  0.4473 -0.2093  0.1468
  470TIP3   OH2 1415   2.529   4.217   3.777 -0.1811 -0.1575 -0.2599
  470TIP3    H1 1416   2.472   4.217   3.700  1.0703  0.5758 -1.2175
  470TIP3    H2 1417   2.553   4.309   3.789  0.9413 -0.4690 -0.0065
  471TIP3   OH2 1418   0.776   5.435   1.717 -0.1803  0.1467  0.3229
  471TIP3    H1 1419   0.840   5.388   1.662 -1.0253  0.9633 -1.4318
  471TIP3    H2 1420   0.702   5.374   1.724  0.1051 -0.1338  0.9481
  472TIP3   OH2 1421   2.840   1.133   4.652 -0.2740  0.1554  0.4003
  472TIP3    H1 1422   2.892   1.099   4.725 -2.6642 -1.9358  1.2801
  472TIP3    H2 1423   2.789   1.204   4.690 -0.0655  0.3911  0.2418
  473TIP3   OH2 1424   2.507   3.778   0.325  0.3940  0.2555  0.6494
  473TIP3    H1 1425   2.435   3.716   0.308 -0.8127  1.5048  0.9902
  473TIP3    H2 1426   2.578   3.748   0.268 -1.4224  0.7573 -2.0909
  474TIP3   OH2 1427   2.442   2.857   3.948 -0.4292  0.2977 -0.0800
  474TIP3    H1 1428   2.350   2.834   3.956 -0.4429  0.4376  0.2012
  474TIP3    H2 1429   2.481   2.784   3.900 -0.6165  0.0583  0.1284
  475TIP3   OH2 1430   5.668   1.622   3.577 -0.8681 -0.0015  0.1552
  475TIP3    H1 1431   5.612   1.655   3.646 -0.5204 -0.3161  0.5953
  475TIP3    H2 1432   5.742   1.683   3.574 -0.1120 -0.8446  1.1245
  476TIP3   OH2 1433   1.612   0.805   3.889  0.2252  0.2825 -0.2922
  476TIP3    H1 1434   1.650   0.764   3.811  1.5569 -0.1835  0.5682
  476TIP3    H2 1435   1.537   0.750   3.911 -0.3926  0.6319 -1.4403
  477TIP3   OH2 1436   3.481   2.667   2.943  0.4523  0.2401  0.1126
  477TIP3    H1 1437   3.456   2.580   2.976  0.2625 -0.4745 -1.7677
  477TIP3    H2 1438   3.399   2.707   2.915  0.6182  0.7640  0.3615
  478TIP3   OH2 1439   0.309   3.879   1.009 -0.2756 -0.3243  0.7624
  478TIP3    H1 1440   0.292   3.882   1.103 -1.0186  1.8398  0.6192
  478TIP3    H2 1441   0.334   3.969   0.986  0.6303 -0.9760 -0.9950
  479TIP3   OH2 1442   5.574   0.161   4.668  0.3785 -0.0124 -0.5457
  479TIP3    H1 1443   5.545   0.094   4.606  1.6617 -2.4197  1.3031
  479TIP3    H2 1444   5.512   0.233   4.656 -1.2458 -1.6073 -2.4235
  480TIP3   OH2 1445   4.610   3.445   2.413  0.1613  0.2030  0.0569
  480TIP3    H1 1446   4.601   3.503   2.338 -2.9708  0.7278  0.7017
  480TIP3    H2 1447   4.596   3.357   2.378  0.8058  0.2184 -0.2604
  481TIP3   OH2 1448   2.776   5.354   3.428  0.3795 -0.1907  0.6036
  481TIP3    H1 1449   2.861   5.312   3.413  0.2322 -0.3405  0.1789
  481TIP3    H2 1450   2.796   5.448   3.423  0.8938 -0.1441  2.5430
  482TIP3   OH2 1451   1.047   5.098   0.601 -0.2970  0.2560 -0.1370
  482TIP3    H1 1452   1.058   5.171   0.662  1.8107  0.0968 -0.2467
  482TIP3    H2 1453   1.094   5.125   0.522  0.8800 -1.3267 -0.0424
  483TIP3   OH2 1454   0.624   3.085   4.730 -0.0069  0.2003  0.2564
  483TIP3    H1 1455   0.583   3.099   4.644 -0.1917 -2.1422 -0.1018
  483TIP3    H2 1456   0.672   3.002   4.720 -1.5704 -1.1476  2.9480
  484TIP3   OH2 1457   0.226   3.791   1.960  0.2678 -0.3891 -0.2171
  484TIP3    H1 1458   0.153   3.844   1.992  0.4138  0.3544 -1.0743
  484TIP3    H2 1459   0.273   3.765   2.039 -0.0177  0.4524  0.2441
  485TIP3   OH2 1460   3.633   1.033   2.102 -0.2247 -0.2951  0.4378
  485TIP3    H1 1461   3.607   1.007   2.013 -0.3357  1.1536  0.0199
  485TIP3    H2 1462   3.646   0.951   2.148  3.1943 -1.2135 -1.8354
  486TIP3   OH2 1463   0.433   0.903   4.286  0.2623  0.2043  0.5775
  486TIP3    H1 1464   0.474   0.821   4.315 -2.0809 -1.2042  0.1028
  486TIP3    H2 1465   0.467   0.916   4.198 -0.5290 -1.1308  0.0514
  487TIP3   OH2 1466   4.045   4.210   5.075 -0.7774 -0.2196 -0.2825
  487TIP3    H1 1467   4.000   4.258   5.005 -0.4655  0.6198  0.0823
  487TIP3    H2 1468   4.076   4.130   5.033 -1.5728 -0.2561 -0.8296
  488TIP3   OH2 1469   2.005   2.749   1.759  0.0678  0.5305  0.0380
  488TIP3    H1 1470   2.066   2.720   1.827 -0.8406 -0.1613  0.5818
  488TIP3    H2 1471   1.979   2.669   1.713 -0.0959  0.8679 -0.4764
  489TIP3   OH2 1472   1.084   4.641   4.110 -0.1839 -0.4721 -0.0404
  489TIP3    H1 1473   1.075   4.693   4.189 -2.1664 -2.4749  1.1644
  489TIP3    H2 1474   0.997   4.605   4.094  0.5616 -1.5643 -2.1130
  490TIP3   OH2 1475   4.633   4.637   2.287 -0.0749 -0.1832  0.2616
  490TIP3    H1 1476   4.693   4.701   2.250 -0.6102  0.3530  0.3082
  490TIP3    H2 1477   4.689   4.564   2.314  0.4815  0.0555 -0.2365
  491TIP3   OH2 1478   5.114   1.335   1.030 -0.1098  0.2416  0.6113
  491TIP3    H1 1479   5.144   1.384   1.106  0.5751 -2.5388  2.2823
  491TIP3    H2 1480   5.097   1.247   1.064 -0.6281 -0.8888 -2.3041
  492TIP3   OH2 1481   3.365   2.721   1.893  0.2361  0.3082  0.7038
  492TIP3    H1 1482   3.305   2.689   1.825  1.1756 -0.4481  0.2041
  492TIP3    H2 1483   3.315   2.714   1.974 -0.1440 -0.9202  0.3866
  493TIP3   OH2 1484   4.079   0.262   4.202 -0.0358 -0.0219 -0.5806
  493TIP3    H1 1485   4.171   0.277   4.224  0.2579 -2.9789  0.6609
  493TIP3    H2 1486   4.031   0.328   4.253  1.3275  1.1161 -0.7190
  494TIP3   OH2 1487   5.123   1.237   0.500  0.5466  0.0350  0.2297
  494TIP3    H1 1488   5.211   1.249   0.535  0.6675 -0.6024  0.1564
  494TIP3    H2 1489   5.109   1.313   0.443  1.8877 -0.8932 -1.4295
  495TIP3   OH2 1490   2.239   4.058   2.587 -0.1513 -0.3811 -0.1476
  495TIP3    H1 1491   2.164   4.063   2.527 -0.6331  1.2059  0.5244
  495TIP3    H2 1492   2.315   4.070   2.531 -0.3925 -1.8445 -0.8225
  496TIP3   OH2 1493   5.989   3.894   2.422 -0.2737  0.2318 -0.1446
  496TIP3    H1 1494   5.970   3.841   2.499 -1.6801  0.0061 -0.6123
  496TIP3    H2 1495   6.082   3.877   2.403 -0.1169 -0.3088  1.0205
  497TIP3   OH2 1496   1.810   2.739   4.522 -0.0187  0.1925 -0.6293
  497TIP3    H1 1497   1.747   2.810   4.534  0.3073  0.2441  0.9467
  497TIP3    H2 1498   1.885   2.763   4.577  0.0769 -1.3866 -0.0160
  498TIP3   OH2 1499   4.369   2.479   4.260 -0.4870  0.1581  0.0982
  498TIP3    H1 1500   4.348   2.466   4.167  1.9840 -1.3681 -0.3496
  498TIP3    H2 1501   4.425   2.556   4.262 -1.4152  0.8390  0.5006
  499TIP3   OH2 1502   3.679   5.221   2.143 -0.7409  0.4437 -0.3707
  499TIP3    H1 1503   3.615   5.233   2.212 -1.4832 -0.2958 -0.9081
  499TIP3    H2 1504   3.734   5.299   2.147 -0.3073  0.0898  1.5131
  500TIP3   OH2 1505   1.690   0.297   2.361  0.0726  0.4198 -0.3796
  500TIP3    H1 1506   1.767   0.258   2.402 -0.1765 -0.7352 -0.9701
  500TIP3    H2 1507   1.655   0.227   2.306 -1.6401  0.7820  0.2049
  501TIP3   OH2 1508   1.666   0.771   0.218  0.7635  0.3456  0.3428
  501TIP3    H1 1509   1.668   0.683   0.255  2.2174 -0.0944 -0.6713
  501TIP3    H2 1510   1.694   0.828   0.289 -1.6694  0.2228  1.4672
  502TIP3   OH2 1511   5.789   0.031   1.195 -0.0711  0.0187 -0.0761
  502TIP3    H1 1512   5.872   0.078   1.187  0.1764 -0.3409  0.3517
  502TIP3    H2 1513   5.752   0.032   1.107  1.0005 -0.9438 -0.5668
  503TIP3   OH2 1514   3.325   1.353   1.619 -0.3486 -0.1056 -0.0637
  503TIP3    H1 1515   3.331   1.386   1.529 -2.0737  1.0300  0.1986
  503TIP3    H2 1516   3.278   1.421   1.667  2.1968  0.2050  2.1969
  504TIP3   OH2 1517   4.728   0.977  -0.004  0.1664  0.3979  0.4525
  504TIP3    H1 1518   4.702   0.891  -0.037 -2.5227  0.9766  0.8425
  504TIP3    H2 1519   4.750   0.963   0.088 -0.6116  0.1877  0.6067
  505TIP3   OH2 1520   0.715   3.696   2.100  0.0256 -0.1068 -0.3826
  505TIP3    H1 1521   0.674   3.779   2.075 -2.0349 -0.4936  1.3568
  505TIP3    H2 1522   0.647   3.630   2.084  0.8843 -1.1675  0.2094
  506TIP3   OH2 1523   5.542   3.605   3.974  0.6410  0.2235  0.0173
  506TIP3    H1 1524   5.635   3.606   3.995  0.7457  0.3838 -0.4397
  506TIP3    H2 1525   5.498   3.623   4.058  0.8950 -2.3432  0.7746
  507TIP3   OH2 1526   5.110   3.749   4.846 -0.8447  0.3542 -0.2668
  507TIP3    H1 1527   5.099   3.825   4.903  2.3254  1.7979 -1.3339
  507TIP3    H2 1528   5.149   3.784   4.766 -0.3698 -2.2589 -1.2893
  508TIP3   OH2 1529   4.853   5.038   3.888 -0.1311 -0.0916 -0.3165
  508TIP3    H1 1530   4.852   4.995   3.973 -0.7044  0.2380 -0.1491
  508TIP3    H2 1531   4.943   5.030   3.857  0.3593  0.7545  0.8147
  509TIP3   OH2 1532   4.044   0.086   4.913 -0.3318  0.8045 -0.0420
  509TIP3    H1 1533   4.019   0.064   5.002  0.3937 -1.9465 -0.4187
  509TIP3    H2 1534   4.139   0.078   4.912 -0.4798 -1.8179 -1.5859
  510TIP3   OH2 1535   3.139   2.197   5.061 -0.7817  0.1210  0.3787
  510TIP3    H1 1536   3.112   2.231   5.146 -1.4919  0.6351 -0.0406
  510TIP3    H2 1537   3.082   2.242   4.998  1.2012  1.4593 -0.5812
  511TIP3   OH2 1538   4.898   2.538   2.046  0.4938  0.1015 -0.5676
  511TIP3    H1 1539   4.924   2.448   2.026  2.2290  0.4407  0.0647
  511TIP3    H2 1540   4.854   2.531   2.131  0.7686 -0.1233 -0.4419
  512TIP3   OH2 1541   4.373   1.578   2.544 -0.0622  0.0930 -0.0582
  512TIP3    H1 1542   4.419   1.615   2.468  0.3770 -2.3926 -1.1149
  512TIP3    H2 1543   4.442   1.559   2.607 -0.3213  1.3262  0.6094
  513TIP3   OH2 1544   2.070   2.706   0.847  0.7236  0.5820 -0.0765
  513TIP3    H1 1545   1.982   2.689   0.815  0.5080 -1.2763  1.3296
  513TIP3    H2 1546   2.067   2.796   0.880 -0.3895  0.8262 -0.8004
  514TIP3   OH2 1547   3.359   1.202   4.088 -0.3679  0.9304  0.0467
  514TIP3    H1 1548   3.322   1.281   4.127 -0.2379  0.9979  0.0330
  514TIP3    H2 1549   3.423   1.171   4.152 -1.4210  0.0365  0.7122
  515TIP3   OH2 1550   6.362   5.578   3.374 -0.9035 -0.0665 -0.0130
  515TIP3    H1 1551   6.329   5.632   3.302  1.9182 -0.1611 -1.5268
  515TIP3    H2 1552   6.370   5.638   3.448 -0.9774  0.7812 -0.6757
  516TIP3   OH2 1553   1.240   3.047   0.321  0.1107 -0.6538 -0.2907
  516TIP3    H1 1554   1.248   3.142   0.316 -0.3271 -0.4159  2.0296
  516TIP3    H2 1555   1.331   3.016   0.327  0.2424 -0.3509 -0.6962
  517TIP3   OH2 1556   2.860   5.795   4.467 -0.2027 -0.2435 -0.3664
  517TIP3    H1 1557   2.847   5.804   4.561 -2.1967  0.3790 -0.6486
  517TIP3    H2 1558   2.878   5.702   4.453 -2.3324 -0.8476  0.4477
  518TIP3   OH2 1559   0.817   4.035   3.216  0.4307 -0.1841 -0.1127
  518TIP3    H1 1560   0.809   4.111   3.158 -1.3455 -1.2464 -1.3903
  518TIP3    H2 1561   0.736   4.036   3.267  0.9008 -0.6115  0.6573
  519TIP3   OH2 1562   6.242   4.571   3.000  0.4889 -0.0698  0.5450
  519TIP3    H1 1563   6.262   4.500   2.938 -0.0263  1.3281 -1.3215
  519TIP3    H2 1564   6.238   4.650   2.945  0.4168  1.3191  2.4531
  520TIP3   OH2 1565   3.679   0.170   3.881 -0.3854 -0.5508  0.0123
  520TIP3    H1 1566   3.737   0.136   3.813  0.1621 -1.3979  0.8793
  520TIP3    H2 1567   3.671   0.264   3.862  1.7289 -0.2933  0.1982
  521TIP3   OH2 1568   1.030   0.861   1.395 -0.1815  0.4472  0.2831
  521TIP3    H1 1569   0.980   0.832   1.319  0.5755  1.8139 -0.7858
  521TIP3    H2 1570   0.990   0.944   1.421 -0.1337  0.2316  1.0945
  522TIP3   OH2 1571   2.700   0.222   0.904  0.4419  0.0136 -0.2715
  522TIP3    H1 1572   2.647   0.194   0.830 -1.2165 -0.0513  0.8853
  522TIP3    H2 1573   2.716   0.141   0.954  2.0347 -0.0462 -0.8058
  523TIP3   OH2 1574   0.786   4.188   4.583  0.4401 -0.4438 -0.4449
  523TIP3    H1 1575   0.877   4.207   4.562  1.0360  0.5260  2.5264
  523TIP3    H2 1576   0.777   4.094   4.571  1.5972 -0.4415 -1.5114
  524TIP3   OH2 1577   0.831   1.003   5.056 -0.3060 -0.0144 -0.4055
  524TIP3    H1 1578   0.894   0.931   5.050  0.6597  0.5717  1.7521
  524TIP3    H2 1579   0.766   0.973   5.121 -2.0124 -0.3858 -2.1934
  525TIP3   OH2 1580   3.588   3.685   0.299  0.5300 -0.0029  0.0357
  525TIP3    H1 1581   3.616   3.731   0.220 -0.1747  0.6369  0.1357
  525TIP3    H2 1582   3.590   3.753   0.367  0.5739 -0.4068  0.4392
  526TIP3   OH2 1583   3.536   4.339   2.616  0.7072 -0.1065  0.2093
  526TIP3    H1 1584   3.475   4.408   2.641 -0.2791  0.2160 -2.7549
  526TIP3    H2 1585   3.619   4.384   2.604  0.4240  0.2998 -0.2526
  527TIP3   OH2 1586   4.261   3.627   5.092  0.6083 -0.7799  0.1211
  527TIP3    H1 1587   4.175   3.610   5.055  0.6089  2.6529 -1.8811
  527TIP3    H2 1588   4.245   3.640   5.185 -1.8611  3.2979 -0.6473
  528TIP3   OH2 1589   3.406   1.447   1.903 -0.4506 -0.4488  0.5840
  528TIP3    H1 1590   3.438   1.515   1.962  1.2741  0.4776 -1.3211
  528TIP3    H2 1591   3.316   1.431   1.932 -0.3147  1.3711  2.1966
  529TIP3   OH2 1592   3.197   4.544   3.900  0.0676  0.5889 -0.0853
  529TIP3    H1 1593   3.256   4.551   3.975 -0.8060 -1.5646  0.8774
  529TIP3    H2 1594   3.192   4.451   3.882  0.5765  1.0331 -3.1597
  530TIP3   OH2 1595   5.545   3.598   5.009  0.4670  0.5061  0.7757
  530TIP3    H1 1596   5.576   3.666   4.950  1.8019 -1.8249 -1.4044
  530TIP3    H2 1597   5.485   3.643   5.068  0.5082  3.3436 -1.1537
  531TIP3   OH2 1598   0.718   1.481   0.558 -0.2785  0.0474 -0.0930
  531TIP3    H1 1599   0.791   1.514   0.610  0.1062 -1.7615  0.5844
  531TIP3    H2 1600   0.741   1.390   0.539 -1.8952 -0.2739 -0.7024
  532TIP3   OH2 1601   2.255   2.668   1.091 -0.1245 -0.2647  0.3127
  532TIP3    H1 1602   2.208   2.681   1.008 -0.6932  0.9286  0.7971
  532TIP3    H2 1603   2.342   2.703   1.074  0.2655 -1.4123 -0.2230
  533TIP3   OH2 1604   3.151   0.150   1.409  0.2652  0.3090  0.2071
  533TIP3    H1 1605   3.095   0.087   1.363 -2.0270  2.7798 -0.6862
  533TIP3    H2 1606   3.213   0.179   1.342  0.3122  0.1248  0.1702
  534TIP3   OH2 1607   4.251   3.148   3.399 -0.6223 -0.1871  0.4668
  534TIP3    H1 1608   4.160   3.164   3.423 -1.0606 -1.0552 -0.5307
  534TIP3    H2 1609   4.246   3.093   3.321  0.7608 -0.1323  0.3113
  535TIP3   OH2 1610   5.769   0.262   0.088  0.4592  0.0246  0.0976
  535TIP3    H1 1611   5.724   0.346   0.092  0.7392  0.2686 -1.3296
  535TIP3    H2 1612   5.851   0.281   0.043  1.3301 -0.6996  1.3267
  536TIP3   OH2 1613   5.827   0.220   5.174  0.0802  0.2718 -0.1066
  536TIP3    H1 1614   5.860   0.248   5.259 -0.9473  2.4060 -0.3703
  536TIP3    H2 1615   5.833   0.298   5.119 -2.1042 -0.2376 -1.1432
  537TIP3   OH2 1616   3.353   2.774   3.426  0.4151 -0.4154 -0.2204
  537TIP3    H1 1617   3.325   2.684   3.408  0.5132 -0.4875 -0.0130
  537TIP3    H2 1618   3.439   2.765   3.468 -0.7017 -0.3848  2.2779
  538TIP3   OH2 1619   0.518   2.273   4.127  0.4856 -0.2182 -0.1259
  538TIP3    H1 1620   0.470   2.212   4.183  2.4591 -1.6177  0.1382
  538TIP3    H2 1621   0.460   2.349   4.119 -1.9389 -1.9873 -0.2460
  539TIP3   OH2 1622   1.812   1.453   0.342 -0.4938  0.3853  0.2413
  539TIP3    H1 1623   1.782   1.525   0.287  0.3826 -0.0601 -0.8581
  539TIP3    H2 1624   1.861   1.396   0.283 -0.3304 -0.6066  1.2932
  540TIP3   OH2 1625   5.804   2.960   1.755 -0.3417  0.3678 -0.1429
  540TIP3    H1 1626   5.721   2.913   1.749 -0.8798  1.3178 -0.4487
  540TIP3    H2 1627   5.825   2.960   1.849  0.5095 -1.8351 -0.2701
  541TIP3   OH2 1628   2.792   5.572   1.094 -0.0112  0.0802 -0.0808
  541TIP3    H1 1629   2.790   5.547   1.187  1.2536 -1.1355 -0.3357
  541TIP3    H2 1630   2.792   5.668   1.095 -0.0819  0.0864  1.1694
  542TIP3   OH2 1631   5.118   3.243   3.156 -0.3039  0.2847 -0.4573
  542TIP3    H1 1632   5.057   3.232   3.229 -0.8760  1.5139 -0.7200
  542TIP3    H2 1633   5.097   3.330   3.121  1.9375  0.9478 -0.2596
  543TIP3   OH2 1634   1.375   0.670   3.792 -0.0891  0.5780 -0.2194
  543TIP3    H1 1635   1.284   0.643   3.804  0.0531  0.4802  0.6950
  543TIP3    H2 1636   1.376   0.713   3.706 -1.1478  1.2692  0.0989
  544TIP3   OH2 1637   4.282   0.081   3.553  0.4521 -0.1334  0.7697
  544TIP3    H1 1638   4.365   0.061   3.509 -0.3125 -2.1094  0.1104
  544TIP3    H2 1639   4.299   0.062   3.645  0.6332 -0.9407  0.5771
  545TIP3   OH2 1640   2.794   3.518   4.988 -0.0208  0.3972  0.1450
  545TIP3    H1 1641   2.869   3.459   4.978  0.7165  1.4200 -0.6820
  545TIP3    H2 1642   2.781   3.525   5.082  2.4461  1.9850  0.4752
  546TIP3   OH2 1643   5.442   3.231   3.912  0.1778  0.3093  0.3077
  546TIP3    H1 1644   5.384   3.256   3.840  0.1338  3.1131  1.1994
  546TIP3    H2 1645   5.402   3.270   3.990  2.4396  1.0922  1.1609
  547TIP3   OH2 1646   5.812   0.896   3.520  0.5162  0.5093 -0.2681
  547TIP3    H1 1647   5.732   0.871   3.566  0.7585 -1.4138 -0.7885
  547TIP3    H2 1648   5.817   0.991   3.529  0.0496  0.3397  2.8360
  548TIP3   OH2 1649   4.687   1.133   2.957 -0.0883 -0.1789 -0.3481
  548TIP3    H1 1650   4.708   1.144   3.050  1.7842  0.5766 -0.7952
  548TIP3    H2 1651   4.667   1.040   2.948  0.3656 -0.3973  0.6981
  549TIP3   OH2 1652   2.439   0.176   4.352 -0.0161  0.1627  0.2355
  549TIP3    H1 1653   2.417   0.166   4.445 -0.2656 -0.4139  0.1205
  549TIP3    H2 1654   2.360   0.212   4.312 -1.2328 -2.9188 -0.3703
  550TIP3   OH2 1655   4.838   0.758   4.207 -0.2475 -0.3094 -0.6413
  550TIP3    H1 1656   4.880   0.757   4.121 -0.0151  1.4316 -0.5886
  550TIP3    H2 1657   4.835   0.851   4.231  0.0601 -0.7807  1.4023
  551TIP3   OH2 1658   6.250   4.140   3.299  0.1378  0.1365 -0.1405
  551TIP3    H1 1659   6.262   4.222   3.346 -0.3420  0.0486  0.1454
  551TIP3    H2 1660   6.229   4.076   3.367  0.8027 -0.2892 -0.3258
  552TIP3   OH2 1661   2.314   1.623   0.617 -0.6777 -0.3287  0.1608
  552TIP3    H1 1662   2.263   1.687   0.667 -1.5616  0.0990 -1.2158
  552TIP3    H2 1663   2.287   1.538   0.653 -0.1821  0.0224  1.3882
  553TIP3   OH2 1664   1.614   5.543   4.399 -0.3191 -0.3496 -0.0729
  553TIP3    H1 1665   1.589   5.562   4.490 -1.9699  1.7707 -0.8830
  553TIP3    H2 1666   1.539   5.572   4.347  1.6406  1.0686 -2.3135
  554TIP3   OH2 1667   5.310   3.299   2.017 -0.6980 -0.4924 -0.0329
  554TIP3    H1 1668   5.370   3.355   2.067  0.0146 -0.8741 -0.4313
  554TIP3    H2 1669   5.247   3.267   2.082  0.2986 -1.0980  0.6648
  555TIP3   OH2 1670   3.121   4.626   2.326 -0.0483  0.2419  0.0585
  555TIP3    H1 1671   3.087   4.619   2.415 -2.3479  3.8506 -0.3040
  555TIP3    H2 1672   3.100   4.716   2.300  0.3510 -0.7027 -4.2155
  556TIP3   OH2 1673   4.705   4.527   3.279  0.4482 -0.1520  0.1283
  556TIP3    H1 1674   4.611   4.510   3.272  0.4572 -0.2296  0.1973
  556TIP3    H2 1675   4.718   4.550   3.371  0.3650  0.6430 -0.0517
  557TIP3   OH2 1676   4.418   3.208   5.145  0.4721  0.4994  0.1498
  557TIP3    H1 1677   4.333   3.248   5.128 -0.1327 -0.4683  0.8237
  557TIP3    H2 1678   4.398   3.120   5.174  1.7517 -0.0428 -0.5222
  558TIP3   OH2 1679   2.448   2.288   0.152 -0.3695 -0.1159 -0.6564
  558TIP3    H1 1680   2.358   2.260   0.167 -0.1931 -0.3455 -0.0174
  558TIP3    H2 1681   2.442   2.383   0.140 -0.7377 -0.1782 -0.9608
  559TIP3   OH2 1682   0.913   2.658   3.470  0.2386  0.4298 -0.0944
  559TIP3    H1 1683   0.882   2.746   3.450 -0.9522 -0.1814 -1.0596
  559TIP3    H2 1684   0.867   2.601   3.409 -0.3390 -1.0787  1.6375
  560TIP3   OH2 1685   0.899   4.814   4.714 -0.2324  0.2324 -0.5053
  560TIP3    H1 1686   0.958   4.889   4.704 -0.6331  0.4127 -1.7058
  560TIP3    H2 1687   0.936   4.764   4.787 -0.4171  1.9989  0.8793
  561TIP3   OH2 1688   3.495   2.228   2.319  0.1005  0.4318  0.3715
  561TIP3    H1 1689   3.414   2.242   2.271 -0.9979 -1.5010  1.5424
  561TIP3    H2 1690   3.519   2.138   2.300  0.3838  0.0556  2.2870
  562TIP3   OH2 1691   3.218   4.650   0.365 -0.2648  0.0873  0.7074
  562TIP3    H1 1692   3.241   4.731   0.319 -0.8512  0.1115  0.4504
  562TIP3    H2 1693   3.268   4.654   0.446  0.4054  0.2794  0.2963
  563TIP3   OH2 1694   3.179   5.049   0.091  0.3957  0.4579  0.3129
  563TIP3    H1 1695   3.259   5.097   0.069  1.9841 -2.5861 -1.0752
  563TIP3    H2 1696   3.136   5.034   0.007 -1.7062  1.9662  1.0274
  564TIP3   OH2 1697   3.196   2.509   4.893  0.0361  0.2250 -0.3933
  564TIP3    H1 1698   3.112   2.473   4.864 -0.2357  0.9585 -0.5548
  564TIP3    H2 1699   3.247   2.433   4.920 -1.0797 -0.1521  0.7605
  565TIP3   OH2 1700   1.292   4.233   2.046  0.4555  0.0958  0.0872
  565TIP3    H1 1701   1.269   4.276   1.963 -1.0017  1.6542  1.2363
  565TIP3    H2 1702   1.313   4.305   2.105  1.7167 -1.0140  1.0210
  566TIP3   OH2 1703   5.522   4.382   5.154  0.0977 -0.1770 -0.9459
  566TIP3    H1 1704   5.551   4.304   5.200 -1.0075 -0.1586 -0.1640
  566TIP3    H2 1705   5.434   4.360   5.124 -1.1550  1.4531  1.1954
  567TIP3   OH2 1706   5.571   3.008   3.180 -0.3037  0.1763  0.1942
  567TIP3    H1 1707   5.571   2.975   3.270 -0.9978 -0.1643  0.0755
  567TIP3    H2 1708   5.547   3.100   3.189 -1.8299 -0.2113  0.2477
  568TIP3   OH2 1709   3.570   3.997   2.425  0.2016 -0.2042  0.2131
  568TIP3    H1 1710   3.611   3.960   2.347 -0.2305 -0.1434 -0.0493
  568TIP3    H2 1711   3.563   3.923   2.486  1.5563 -0.0051  0.6352
  569TIP3   OH2 1712   4.190   2.861   1.647  0.5523  0.0018 -0.2344
  569TIP3    H1 1713   4.224   2.931   1.590  0.5389 -0.2782 -0.5867
  569TIP3    H2 1714   4.111   2.831   1.603 -0.8067  1.3992  1.1191
  570TIP3   OH2 1715   4.496   1.739   2.311  0.5164  0.8659 -0.2622
  570TIP3    H1 1716   4.466   1.809   2.369 -2.2396 -0.7642  0.4516
  570TIP3    H2 1717   4.424   1.727   2.248  1.3844 -0.6054 -1.0301
  571TIP3   OH2 1718   5.514   0.829   4.408  0.0632 -0.3878  0.8089
  571TIP3    H1 1719   5.456   0.827   4.332 -0.2005 -0.8856  1.0158
  571TIP3    H2 1720   5.595   0.790   4.377  0.0432 -0.3552  0.7135
  572TIP3   OH2 1721   1.722   2.345   2.538  0.5917 -0.6335  0.1818
  572TIP3    H1 1722   1.695   2.410   2.603  1.4697 -1.5329  1.4888
  572TIP3    H2 1723   1.792   2.388   2.490  0.2101 -0.1052  0.0779
  573TIP3   OH2 1724   6.145   4.420   2.595  0.8607 -0.4308  0.1702
  573TIP3    H1 1725   6.114   4.469   2.671 -1.2516  0.0702 -0.9311
  573TIP3    H2 1726   6.114   4.331   2.608 -0.0194 -0.2126 -0.3448
  574TIP3   OH2 1727   2.925   1.767   0.938 -0.8191 -0.0961  0.0834
  574TIP3    H1 1728   2.944   1.843   0.882 -0.0492  1.4862  2.3410
  574TIP3    H2 1729   3.006   1.715   0.936 -1.1436 -0.6003 -0.9972
  575TIP3   OH2 1730   0.091   0.127   1.500 -0.4898 -0.7406 -0.6192
  575TIP3    H1 1731   0.143   0.061   1.547  1.1299  0.4865 -0.5971
  575TIP3    H2 1732   0.152   0.164   1.436 -0.5507  2.4273  0.9822
  576TIP3   OH2 1733   3.626   4.158   0.330 -0.1588  0.5566 -0.1793
  576TIP3    H1 1734   3.611   4.186   0.240  0.5564 -0.0295 -0.4941
  576TIP3    H2 1735   3.598   4.066   0.331 -0.4634  0.6484  0.2831
  577TIP3   OH2 1736   2.876   5.183   4.590  0.1462  0.0973  0.1729
  577TIP3    H1 1737   2.967   5.189   4.559  0.2013 -1.2375  0.0373
  577TIP3    H2 1738   2.825   5.171   4.510  0.0277 -0.8069  0.3772
  578TIP3   OH2 1739   4.749   2.307   2.227  0.3945 -0.1425  0.8725
  578TIP3    H1 1740   4.684   2.362   2.183  0.3146  0.5989  1.8820
  578TIP3    H2 1741   4.753   2.228   2.174  0.9289  1.0462 -0.9628
  579TIP3   OH2 1742   4.641   5.449   0.991 -0.5216  0.2464  0.4154
  579TIP3    H1 1743   4.607   5.429   0.904 -1.0076  1.1912  0.3783
  579TIP3    H2 1744   4.643   5.544   0.995  2.6591  0.3084  0.2013
  580TIP3   OH2 1745   6.033   3.238   3.395  0.2291  0.2820  0.0453
  580TIP3    H1 1746   6.112   3.286   3.371  1.0050 -1.4337 -1.0652
  580TIP3    H2 1747   6.065   3.154   3.427 -1.1020  0.1103  1.0120
  581TIP3   OH2 1748   0.638   2.201   2.535 -0.2491 -0.1671  0.3444
  581TIP3    H1 1749   0.694   2.154   2.596 -0.2444 -1.0109 -0.2989
  581TIP3    H2 1750   0.697   2.229   2.464 -0.5505 -0.6399 -0.0952
  582TIP3   OH2 1751   5.197   5.474   2.253 -0.2461  0.5021 -0.2343
  582TIP3    H1 1752   5.292   5.462   2.245 -0.1359  0.2033  1.2332
  582TIP3    H2 1753   5.169   5.406   2.313 -1.4543  0.4298 -0.8406
  583TIP3   OH2 1754   5.857   4.709   4.633 -0.3370  0.6877 -0.3722
  583TIP3    H1 1755   5.926   4.674   4.689  1.5775  1.7476 -1.9811
  583TIP3    H2 1756   5.810   4.631   4.601  1.8594 -0.2780 -1.4188
  584TIP3   OH2 1757   0.714   1.265   4.025  0.0043  0.6150 -0.6962
  584TIP3    H1 1758   0.619   1.250   4.025  0.1909 -1.4668 -3.8558
  584TIP3    H2 1759   0.726   1.338   3.965  0.3680  2.2173  1.2224
  585TIP3   OH2 1760   5.200   3.884   1.403  0.0678  0.1722  0.2969
  585TIP3    H1 1761   5.129   3.940   1.373 -0.2725 -0.9431 -1.1115
  585TIP3    H2 1762   5.159   3.797   1.412  1.1867 -0.4432 -0.3295
  586TIP3   OH2 1763   6.236   3.610   1.606 -0.4286 -0.1817  0.2438
  586TIP3    H1 1764   6.207   3.566   1.526 -1.9497  0.2042  0.5576
  586TIP3    H2 1765   6.320   3.650   1.582 -1.4971  1.1141 -1.5979
  587TIP3   OH2 1766   0.229   1.204   1.986  0.2648 -0.2842 -0.1651
  587TIP3    H1 1767   0.218   1.191   1.891  0.5736 -1.3222 -0.0728
  587TIP3    H2 1768   0.250   1.116   2.019  2.3093  0.4280  0.5622
  588TIP3   OH2 1769   4.581   4.521   4.269 -0.3433 -0.1799  0.3389
  588TIP3    H1 1770   4.522   4.539   4.195 -1.2955 -1.6100  0.6959
  588TIP3    H2 1771   4.533   4.553   4.346 -0.1037 -0.2273  0.5086
  589TIP3   OH2 1772   0.403   1.932   1.519  0.0105  0.2459 -0.2340
  589TIP3    H1 1773   0.417   1.889   1.435  1.7614 -0.3004  0.3007
  589TIP3    H2 1774   0.448   1.876   1.583  1.3386  2.1995  0.6530
  590TIP3   OH2 1775   1.191   3.699   3.952 -0.5340  0.0581 -0.1074
  590TIP3    H1 1776   1.276   3.658   3.933 -0.7649  0.5432 -2.4417
  590TIP3    H2 1777   1.208   3.793   3.947 -1.0529  0.1741  0.2354
  591TIP3   OH2 1778   4.016   1.643   1.477  0.2776 -0.2201 -0.2344
  591TIP3    H1 1779   3.963   1.581   1.427 -2.2987  1.9393 -0.4042
  591TIP3    H2 1780   4.027   1.601   1.562 -0.9973 -1.1204 -0.4821
  592TIP3   OH2 1781   0.439   0.615   3.396  0.2890 -0.8415  0.7408
  592TIP3    H1 1782   0.349   0.615   3.427  0.7210 -2.0876  2.1309
  592TIP3    H2 1783   0.478   0.694   3.434 -0.6898  0.8493 -1.5564
  593TIP3   OH2 1784   2.080   1.493   2.676  0.7949  0.6451 -0.6877
  593TIP3    H1 1785   2.061   1.407   2.713  1.2877 -0.1162 -2.1073
  593TIP3    H2 1786   2.166   1.483   2.635 -0.4365  0.8179 -3.5834
  594TIP3   OH2 1787   2.697   1.035   0.089 -0.1948 -0.0562  0.1677
  594TIP3    H1 1788   2.622   0.981   0.115  0.2613 -1.8522 -1.9130
  594TIP3    H2 1789   2.671   1.071   0.004  0.9549  0.0256 -0.1569
  595TIP3   OH2 1790   2.529   0.856   1.933 -0.4683 -0.1746 -0.6435
  595TIP3    H1 1791   2.531   0.761   1.928 -0.3144 -0.2699  0.7579
  595TIP3    H2 1792   2.473   0.875   2.009 -0.4419  0.8487 -0.8594
  596TIP3   OH2 1793   2.410   3.933   1.196  0.3577 -0.2298 -0.2980
  596TIP3    H1 1794   2.443   3.928   1.106  2.0271 -0.7177  0.3073
  596TIP3    H2 1795   2.372   3.847   1.212  3.3758 -1.4974  0.6302
  597TIP3   OH2 1796   1.510   5.266   4.625  0.6694 -0.3674  0.2262
  597TIP3    H1 1797   1.479   5.241   4.712  0.3975  0.3087  0.3303
  597TIP3    H2 1798   1.500   5.361   4.623 -0.4914 -0.4816 -0.9738
  598TIP3   OH2 1799   0.635   1.896   2.533 -0.5048  0.1622 -0.2507
  598TIP3    H1 1800   0.612   1.942   2.615 -2.1765  0.4888 -0.8584
  598TIP3    H2 1801   0.570   1.827   2.526  0.8473 -1.1389 -0.3244
  599TIP3   OH2 1802   4.712   3.617   4.454  0.2520 -0.2115 -0.2480
  599TIP3    H1 1803   4.786   3.676   4.466  0.8427 -1.0051  0.1122
  599TIP3    H2 1804   4.657   3.632   4.531  0.7462 -0.6116  0.1913
  600TIP3   OH2 1805   3.710   4.577   3.014  0.1535  0.0580  0.4366
  600TIP3    H1 1806   3.711   4.559   2.920  0.8350  0.0872  0.4375
  600TIP3    H2 1807   3.718   4.672   3.021  1.5619 -0.0554  0.5508
  601TIP3   OH2 1808   1.909   4.951   0.468  0.0082 -0.4227 -0.0677
  601TIP3    H1 1809   1.871   4.992   0.545  1.5675 -0.1360  0.5812
  601TIP3    H2 1810   1.946   5.024   0.418  2.4740 -0.9287  0.9125
  602TIP3   OH2 1811   5.962   1.516   5.073 -0.3204  0.0050 -0.3143
  602TIP3    H1 1812   5.909   1.476   5.142 -0.9149  0.0682 -0.7204
  602TIP3    H2 1813   6.000   1.594   5.114  0.8858 -0.9752  0.4899
  603TIP3   OH2 1814   4.516   4.900   1.021 -0.1765  0.2456 -0.2001
  603TIP3    H1 1815   4.481   4.989   1.028 -0.2555  0.2058 -0.0858
  603TIP3    H2 1816   4.445   4.844   1.054  0.3636  0.2355  0.9983
  604TIP3   OH2 1817   6.302   3.595   2.065  0.1776 -0.1203  0.1832
  604TIP3    H1 1818   6.238   3.587   2.136 -2.8713 -0.1889 -2.3583
  604TIP3    H2 1819   6.345   3.679   2.081 -0.8900  0.1858  1.7162
  605TIP3   OH2 1820   4.721   5.869   3.793  0.1304  0.1185 -0.0151
  605TIP3    H1 1821   4.806   5.829   3.775  0.3686  0.3410  0.5638
  605TIP3    H2 1822   4.705   5.927   3.719  0.7824  0.5423  0.1624
  606TIP3   OH2 1823   0.708   0.936   2.050 -0.1625  0.2046 -0.0472
  606TIP3    H1 1824   0.647   1.000   2.087 -0.1306 -0.2168  0.7751
  606TIP3    H2 1825   0.653   0.860   2.030  0.0526 -0.1093  0.5254
  607TIP3   OH2 1826   5.814   4.228   4.470  0.1561  0.0634  0.1347
  607TIP3    H1 1827   5.786   4.138   4.486  0.2708  0.0088  0.0248
  607TIP3    H2 1828   5.898   4.220   4.425 -0.4454  0.2008 -1.0513
  608TIP3   OH2 1829   3.580   2.367   1.493  0.0267  0.5018  0.3164
  608TIP3    H1 1830   3.547   2.349   1.581 -0.8218 -0.1877 -0.1248
  608TIP3    H2 1831   3.525   2.314   1.435  1.3809 -0.0267 -0.5355
  609TIP3   OH2 1832   5.807   5.940   4.340  1.0258 -0.1417 -0.6134
  609TIP3    H1 1833   5.896   5.909   4.355  0.8991 -1.2354 -1.9255
  609TIP3    H2 1834   5.792   6.004   4.410  1.5642 -2.4719  1.7904
  610TIP3   OH2 1835   1.569   0.049   0.826  0.2359  0.6665 -0.2429
  610TIP3    H1 1836   1.556   0.144   0.833 -0.6932  0.4945  0.4347
  610TIP3    H2 1837   1.518   0.012   0.897 -0.2148 -0.4219 -1.1097
  611TIP3   OH2 1838   4.383   5.646   0.147 -0.4092  0.6144 -0.1018
  611TIP3    H1 1839   4.466   5.625   0.189 -1.4310 -0.2166  1.6097
  611TIP3    H2 1840   4.316   5.612   0.207 -1.9842  0.5842 -1.7815
  612TIP3   OH2 1841   1.943   2.281   3.837 -0.1535  0.4475  0.6512
  612TIP3    H1 1842   1.878   2.292   3.768 -0.6864  1.8202  1.3200
  612TIP3    H2 1843   2.027   2.275   3.791 -0.6543 -0.4041 -0.1738
  613TIP3   OH2 1844   4.900   3.179   4.579  0.3526  0.7100  0.4119
  613TIP3    H1 1845   4.895   3.201   4.672  1.0332  0.1982  0.5695
  613TIP3    H2 1846   4.993   3.181   4.558  0.2740 -0.0280 -0.0514
  614TIP3   OH2 1847   2.842   5.894   2.367  0.1859  0.4692 -0.1920
  614TIP3    H1 1848   2.871   5.881   2.276  0.3437  1.1354 -0.2390
  614TIP3    H2 1849   2.900   5.838   2.419  0.9510  1.0713 -0.3800
  615TIP3   OH2 1850   4.809   0.712   2.449  0.1781 -0.3693  0.5107
  615TIP3    H1 1851   4.830   0.805   2.440  0.1005 -0.4727 -1.0571
  615TIP3    H2 1852   4.721   0.704   2.412 -0.8476 -0.6927  2.8390
  616TIP3   OH2 1853   2.517   1.724   2.261 -0.4429  0.6487 -0.6184
  616TIP3    H1 1854   2.592   1.752   2.313 -0.7959  0.6907 -0.1284
  616TIP3    H2 1855   2.549   1.647   2.213 -0.8760 -1.1226  1.7410
  617TIP3   OH2 1856   5.297   1.714   5.196 -0.2629 -0.5191  0.3323
  617TIP3    H1 1857   5.283   1.768   5.118 -1.0586  0.2158  0.9516
  617TIP3    H2 1858   5.230   1.646   5.191  1.4701 -2.2271 -1.0456
  618TIP3   OH2 1859   4.898   0.477   0.490 -0.0873 -0.8123 -0.0273
  618TIP3    H1 1860   4.981   0.477   0.539  0.4551  0.7859 -0.8936
  618TIP3    H2 1861   4.838   0.528   0.545  0.8695  2.0590 -1.4719
  619TIP3   OH2 1862   0.042   4.408   4.710 -0.1978  0.0844  0.0584
  619TIP3    H1 1863   0.120   4.449   4.746  0.2234  0.1111 -0.8592
  619TIP3    H2 1864   0.043   4.319   4.746  1.0736 -0.4028 -1.1116
  620TIP3   OH2 1865   6.308   3.387   4.547 -0.1826 -0.0123 -0.7206
  620TIP3    H1 1866   6.320   3.384   4.452  0.7078 -2.9516 -0.6302
  620TIP3    H2 1867   6.353   3.467   4.574  0.9851  0.0651 -2.6408
  621TIP3   OH2 1868   5.961   1.534   1.369 -0.1656  0.2119 -0.4611
  621TIP3    H1 1869   5.965   1.621   1.330 -1.4404 -0.0621 -1.3015
  621TIP3    H2 1870   6.040   1.490   1.338  0.4141  1.0148 -0.1401
  622TIP3   OH2 1871   1.692   3.324   4.997  0.8136  0.1258  0.7725
  622TIP3    H1 1872   1.634   3.396   4.970  0.7288 -0.2069  0.0719
  622TIP3    H2 1873   1.778   3.366   5.008  0.5633  0.5201  1.3232
  623TIP3   OH2 1874   4.669   3.761   1.268 -0.3007 -0.4044 -0.5664
  623TIP3    H1 1875   4.710   3.692   1.320  1.4700  0.0507 -1.2862
  623TIP3    H2 1876   4.712   3.756   1.183 -1.3263  0.5326 -1.1753
  624TIP3   OH2 1877   4.949   5.588   3.074 -0.2322  0.1774 -0.2217
  624TIP3    H1 1878   4.946   5.592   2.979 -3.0714 -1.2179 -0.2921
  624TIP3    H2 1879   5.010   5.658   3.099  0.3249  0.8006 -3.0195
  625TIP3   OH2 1880   5.953   2.825   0.670  0.0292 -0.9754  0.2131
  625TIP3    H1 1881   5.925   2.794   0.756  0.0064 -1.1809  0.1330
  625TIP3    H2 1882   5.886   2.887   0.644 -0.0904 -1.0946  0.2381
  626TIP3   OH2 1883   3.348   1.470   4.179 -0.0572  0.7022  0.1954
  626TIP3    H1 1884   3.319   1.549   4.134  0.4957 -0.4368 -2.3612
  626TIP3    H2 1885   3.434   1.491   4.214  0.4761  1.0056 -1.2427
  627TIP3   OH2 1886   2.569   4.506   3.796 -0.4465 -0.2344  0.0514
  627TIP3    H1 1887   2.501   4.553   3.843  1.0713 -0.1339  2.2811
  627TIP3    H2 1888   2.568   4.544   3.708 -1.0593  2.0575  0.9808
  628TIP3   OH2 1889   5.031   1.729   1.641 -0.0592 -0.1782 -0.1461
  628TIP3    H1 1890   5.010   1.720   1.548  1.7849  1.1096 -0.7441
  628TIP3    H2 1891   4.965   1.791   1.674 -0.2949 -0.0954 -0.7554
  629TIP3   OH2 1892   0.516   4.003   3.356  0.0264 -0.2648 -0.0651
  629TIP3    H1 1893   0.446   4.068   3.363  0.7418  0.3869  4.3663
  629TIP3    H2 1894   0.475   3.921   3.384  0.3700 -0.4830 -0.1931
  630TIP3   OH2 1895   4.231   0.462   4.708 -0.5832  0.1906 -0.3452
  630TIP3    H1 1896   4.230   0.374   4.671  0.0920  0.4905 -1.1383
  630TIP3    H2 1897   4.154   0.466   4.764 -1.0108 -0.6739 -0.8466
  631TIP3   OH2 1898   5.232   5.852   0.132  0.1571 -0.2426 -0.2341
  631TIP3    H1 1899   5.262   5.877   0.219  0.0396  1.8589 -0.7384
  631TIP3    H2 1900   5.162   5.789   0.148  0.8580 -0.7110  1.1331
  632TIP3   OH2 1901   0.049   4.750   0.943  0.2046 -0.4064 -0.2402
  632TIP3    H1 1902  -0.020   4.719   0.884 -0.5403 -0.8252  0.8243
  632TIP3    H2 1903   0.046   4.691   1.017  0.7652  0.4313  0.4785
  633TIP3   OH2 1904   5.950   1.344   3.486  0.1103 -0.5713 -0.0976
  633TIP3    H1 1905   5.912   1.265   3.447  0.3277  0.5982 -2.9318
  633TIP3    H2 1906   6.032   1.357   3.438  0.3527  1.0674  0.6961
  634TIP3   OH2 1907   0.949   2.856   1.778 -0.1572 -0.0363 -0.6516
  634TIP3    H1 1908   0.879   2.814   1.729  0.8854 -2.1310 -0.4856
  634TIP3    H2 1909   0.913   2.870   1.866  0.5260 -4.3255  0.5381
  635TIP3   OH2 1910   0.677   0.729   1.434  0.0792  0.4442  0.4710
  635TIP3    H1 1911   0.700   0.782   1.357 -0.8185  1.4911  0.9048
  635TIP3    H2 1912   0.679   0.790   1.507 -0.3845 -0.2546  1.0780
  636TIP3   OH2 1913   4.581   2.975   1.566 -0.4524 -0.3015 -0.7725
  636TIP3    H1 1914   4.676   2.977   1.556 -0.3667 -2.2030 -0.7675
  636TIP3    H2 1915   4.566   2.986   1.660 -0.2583  0.1609 -0.7934
  637TIP3   OH2 1916   5.502   1.052   2.016 -0.1618 -0.4913 -0.9067
  637TIP3    H1 1917   5.448   1.116   2.063  0.9161  0.1943 -0.5353
  637TIP3    H2 1918   5.441   1.003   1.961 -1.4560 -1.2386  1.1104
  638TIP3   OH2 1919   4.241   4.041   0.233  0.1373 -0.5703  0.2364
  638TIP3    H1 1920   4.286   4.093   0.167 -0.5518 -0.9618 -0.5679
  638TIP3    H2 1921   4.310   4.008   0.290  0.5537  1.5588  1.0191
  639TIP3   OH2 1922   1.870   2.479   1.716 -0.3335 -0.3061  0.2349
  639TIP3    H1 1923   1.950   2.426   1.726 -0.5491 -0.3457  2.1500
  639TIP3    H2 1924   1.832   2.480   1.804 -0.7612  2.3811  0.0807
  640TIP3   OH2 1925   0.351   0.786   2.651 -0.0133  0.5311 -0.4054
  640TIP3    H1 1926   0.444   0.776   2.632 -0.1000 -1.1111 -0.0371
  640TIP3    H2 1927   0.307   0.758   2.572 -0.2261 -0.1435 -0.0519
  641TIP3   OH2 1928   0.259   5.213   2.539  0.1952 -0.6523  0.4573
  641TIP3    H1 1929   0.288   5.122   2.530  1.7242 -0.0912 -0.5945
  641TIP3    H2 1930   0.245   5.225   2.633  0.1823 -1.9016  0.6261
  642TIP3   OH2 1931   4.510   3.442   4.378  0.1289 -0.2694 -0.3407
  642TIP3    H1 1932   4.464   3.503   4.321 -0.7978  0.8418  1.4949
  642TIP3    H2 1933   4.595   3.484   4.395  2.1374 -2.4011 -3.8728
  643TIP3   OH2 1934   1.489   1.041   3.822 -0.2712 -0.0139 -0.2128
  643TIP3    H1 1935   1.528   0.954   3.835 -0.3367 -0.2993 -1.7839
  643TIP3    H2 1936   1.563   1.101   3.826  0.2459 -0.4598 -2.1880
  644TIP3   OH2 1937   4.125   0.854   4.983 -0.1410 -0.2242  0.3417
  644TIP3    H1 1938   4.198   0.859   5.045  0.3548 -1.2661 -0.1306
  644TIP3    H2 1939   4.118   0.942   4.946  0.4277  0.0558  0.8835
  645TIP3   OH2 1940   1.741   0.591   3.226  0.2747 -0.6432  0.6076
  645TIP3    H1 1941   1.833   0.605   3.249  0.2505  2.1136 -0.6031
  645TIP3    H2 1942   1.694   0.602   3.308  0.8857 -0.3552  0.9258
  646TIP3   OH2 1943   6.351   5.922   0.204 -0.4302  0.4389 -0.1901
  646TIP3    H1 1944   6.261   5.902   0.178 -0.8647 -1.2186  2.2928
  646TIP3    H2 1945   6.401   5.921   0.122 -2.5051  0.4964 -1.5069
  647TIP3   OH2 1946   4.474   3.216   1.654 -0.0375  0.2765  0.4473
  647TIP3    H1 1947   4.537   3.165   1.603  0.4894 -0.3991  1.7208
  647TIP3    H2 1948   4.468   3.170   1.738 -1.2760  1.0492  0.8147
  648TIP3   OH2 1949   5.839   1.649   4.285  0.6386 -0.6589  0.1966
  648TIP3    H1 1950   5.889   1.689   4.213  1.1764 -0.9995  0.3724
  648TIP3    H2 1951   5.879   1.563   4.296 -2.0214 -2.3039 -1.7973
  649TIP3   OH2 1952   1.562   0.914   0.683 -0.0733  0.2475 -0.2487
  649TIP3    H1 1953   1.646   0.934   0.642 -0.5369 -0.4811 -1.6358
  649TIP3    H2 1954   1.498   0.964   0.631 -0.4649  1.1858  1.0934
  650TIP3   OH2 1955   4.525   4.129   2.938  0.0272  0.4999  0.1142
  650TIP3    H1 1956   4.508   4.063   3.006  2.7883 -1.6081 -1.0480
  650TIP3    H2 1957   4.486   4.209   2.973 -1.9853 -1.2919  2.4249
  651TIP3   OH2 1958   3.841   2.097   0.654 -0.6311  0.2578 -0.0385
  651TIP3    H1 1959   3.815   2.186   0.629 -3.4836 -0.5798 -0.4899
  651TIP3    H2 1960   3.760   2.057   0.685  0.9739 -1.6061  2.0795
  652TIP3   OH2 1961   0.431   4.846   3.433  0.1943 -0.3586 -0.0976
  652TIP3    H1 1962   0.354   4.797   3.460 -0.4594  1.3845  1.4682
  652TIP3    H2 1963   0.501   4.816   3.491  0.0492 -0.1821  0.1720
  653TIP3   OH2 1964   0.910   0.231   2.888  0.3560 -0.4146 -0.0498
  653TIP3    H1 1965   0.993   0.266   2.919  0.1650  0.3797 -0.4041
  653TIP3    H2 1966   0.859   0.215   2.968  0.5005 -0.0054  0.1266
  654TIP3   OH2 1967   0.328   2.081   4.193  0.5726  0.2343  0.0476
  654TIP3    H1 1968   0.336   1.992   4.160 -0.3288 -1.5877  4.0927
  654TIP3    H2 1969   0.246   2.114   4.155  0.3975 -1.0478 -0.7394
  655TIP3   OH2 1970   1.976   5.782   4.836  0.4070 -0.0659 -0.3496
  655TIP3    H1 1971   2.028   5.799   4.915  1.2357 -0.0392 -0.8899
  655TIP3    H2 1972   1.889   5.817   4.857  0.8030  0.5550  0.3028
  656TIP3   OH2 1973   1.539   4.622   4.009 -0.3237  0.2716 -0.0326
  656TIP3    H1 1974   1.589   4.628   3.927  1.1516  2.6489  0.9240
  656TIP3    H2 1975   1.459   4.671   3.991  1.0010  2.8365  0.4943
  657TIP3   OH2 1976   5.607   1.257   1.901 -0.0014 -0.3304 -0.6341
  657TIP3    H1 1977   5.572   1.174   1.934  1.1493  0.0244  1.6870
  657TIP3    H2 1978   5.581   1.322   1.966  0.4201  0.8610 -1.6200
  658TIP3   OH2 1979   3.669   0.490   0.180 -0.4908  0.0996 -0.3964
  658TIP3    H1 1980   3.677   0.529   0.268  1.7055 -0.8514 -0.0965
  658TIP3    H2 1981   3.660   0.565   0.121  2.7359  1.1523  0.2402
  659TIP3   OH2 1982   5.434   3.497   4.763 -0.2372  0.5383  0.4876
  659TIP3    H1 1983   5.461   3.478   4.853 -2.0798  0.2074  1.0034
  659TIP3    H2 1984   5.389   3.418   4.734 -0.3169  0.9181 -0.4659
  660TIP3   OH2 1985   5.737   2.581   2.107 -0.1814  0.1108 -0.0333
  660TIP3    H1 1986   5.649   2.578   2.068  1.2604  0.1952 -3.6506
  660TIP3    H2 1987   5.775   2.495   2.088  0.9208  0.4637  0.4777
  661TIP3   OH2 1988   4.475   2.425   2.126 -0.0950  0.0455 -0.4353
  661TIP3    H1 1989   4.436   2.443   2.040 -1.7477 -1.5910 -0.0939
  661TIP3    H2 1990   4.469   2.330   2.135 -0.2206  0.2041  1.6133
  662TIP3   OH2 1991   1.901   0.025   4.671 -0.2801  0.4630 -0.1073
  662TIP3    H1 1992   1.946   0.067   4.597  0.6911  0.5472  0.5133
  662TIP3    H2 1993   1.964   0.029   4.743 -0.0989 -2.1034 -0.0132
  663TIP3   OH2 1994   2.370   2.065   3.535 -0.0042 -0.0799  0.2173
  663TIP3    H1 1995   2.392   1.973   3.521  0.3934  0.1982 -1.1251
  663TIP3    H2 1996   2.446   2.113   3.503  0.5382  0.7025  2.4777
  664TIP3   OH2 1997   5.372   1.260   0.248 -0.2918 -0.4805 -0.5915
  664TIP3    H1 1998   5.345   1.175   0.285  1.9972 -0.9709  0.1084
  664TIP3    H2 1999   5.466   1.264   0.264 -0.3552  2.2954 -0.4618
  665TIP3   OH2 2000   1.691   1.694   4.311  0.2049  0.1271  0.2970
  665TIP3    H1 2001   1.613   1.725   4.265  0.1773  1.1196  0.9906
  665TIP3    H2 2002   1.658   1.660   4.394  0.5615  1.1623  0.8782
  666TIP3   OH2 2003   2.062   1.013   4.996  0.6813 -0.2096  0.1539
  666TIP3    H1 2004   2.035   0.927   4.964  1.4335 -0.3418 -0.1373
  666TIP3    H2 2005   2.010   1.074   4.944  0.3025 -0.4789  0.2092
  667TIP3   OH2 2006   0.210   2.797   0.810 -0.6766 -0.2341 -0.0782
  667TIP3    H1 2007   0.149   2.787   0.883 -2.2242  0.6086 -1.1938
  667TIP3    H2 2008   0.296   2.804   0.851 -1.4605 -0.1818  1.6323
  668TIP3   OH2 2009   2.990   0.484   2.420 -0.3931  0.0390  0.5122
  668TIP3    H1 2010   2.956   0.558   2.470 -0.7648  0.5400 -0.4526
  668TIP3    H2 2011   3.077   0.512   2.393  0.0891 -0.5135  1.4463
  669TIP3   OH2 2012   3.883   1.774   1.994 -0.1125 -0.0630  0.0604
  669TIP3    H1 2013   3.966   1.725   1.992 -1.0149 -1.6037 -0.6023
  669TIP3    H2 2014   3.868   1.790   2.088 -0.8694 -3.0106  0.5359
  670TIP3   OH2 2015   6.057   5.566   0.836  0.1584 -0.2733  0.0816
  670TIP3    H1 2016   6.040   5.650   0.794  1.2471  1.2087  2.4463
  670TIP3    H2 2017   6.152   5.563   0.848  0.1379 -1.8441  0.0667
  671TIP3   OH2 2018   6.069   4.780   1.718  0.1723  0.6348  0.1668
  671TIP3    H1 2019   6.035   4.695   1.746 -0.5597  1.5637  2.2818
  671TIP3    H2 2020   6.042   4.788   1.626 -1.3504 -0.6055  0.4686
  672TIP3   OH2 2021   5.185   5.955   1.396 -0.0447  0.1010  0.2173
  672TIP3    H1 2022   5.215   5.925   1.482  0.1866 -0.0283  0.0931
  672TIP3    H2 2023   5.260   6.002   1.360  0.4256 -1.2168 -0.5759
  673TIP3   OH2 2024   0.978   4.874   2.874  0.1722 -0.2519  0.0621
  673TIP3    H1 2025   1.051   4.820   2.906  0.7098  0.0766 -0.5737
  673TIP3    H2 2026   0.900   4.824   2.897  0.5309 -0.0437  1.8325
  674TIP3   OH2 2027   5.985   5.750   0.182  0.6437 -0.4148 -0.8761
  674TIP3    H1 2028   5.951   5.681   0.126  2.4046 -1.0292 -1.2503
  674TIP3    H2 2029   6.030   5.809   0.122  2.0317 -0.7566 -0.2066
  675TIP3   OH2 2030   3.895   2.189   4.764 -0.2180  0.6049 -0.0334
  675TIP3    H1 2031   3.896   2.239   4.682 -0.9075  0.0745 -0.3857
  675TIP3    H2 2032   3.807   2.203   4.799 -0.1984  0.1697  0.1962
  676TIP3   OH2 2033   0.886   3.500   1.497 -0.4619  0.3218  0.0949
  676TIP3    H1 2034   0.791   3.496   1.508 -0.3394  0.5232  1.3608
  676TIP3    H2 2035   0.906   3.429   1.436 -1.2408 -0.8710  1.1799
  677TIP3   OH2 2036   5.311   0.384   4.797  0.1030  0.4400 -0.3354
  677TIP3    H1 2037   5.393   0.387   4.847  0.1433  2.0508 -0.4599
  677TIP3    H2 2038   5.291   0.475   4.777 -0.9542 -0.0289 -1.5802
  678TIP3   OH2 2039   4.786   3.108   0.618 -0.5691 -0.0250 -0.0538
  678TIP3    H1 2040   4.693   3.092   0.635 -1.2586  2.6304 -0.7807
  678TIP3    H2 2041   4.790   3.126   0.524  0.8537 -0.9623 -0.1943
  679TIP3   OH2 2042   4.070   2.591   3.225 -0.1488  0.1932  0.1440
  679TIP3    H1 2043   4.083   2.592   3.131 -0.5668  0.9858  0.0931
  679TIP3    H2 2044   4.061   2.498   3.247 -0.8062  0.0568 -0.6973
  680TIP3   OH2 2045   1.988   2.098   1.121 -0.2714  0.3463  0.5246
  680TIP3    H1 2046   2.017   2.184   1.150 -1.3804  1.2998 -1.0771
  680TIP3    H2 2047   1.916   2.115   1.061 -0.6601 -1.7157  0.3155
  681TIP3   OH2 2048   0.215   5.626   1.789  0.1233 -0.0318  0.2540
  681TIP3    H1 2049   0.290   5.585   1.746 -0.8116 -1.1208 -0.3950
  681TIP3    H2 2050   0.166   5.552   1.827 -2.4604  0.2329 -2.2604
  682TIP3   OH2 2051   2.411   2.830   2.494  0.1512 -0.6861 -0.4481
  682TIP3    H1 2052   2.376   2.743   2.476 -0.4676 -0.9913  1.8573
  682TIP3    H2 2053   2.501   2.827   2.461 -0.1756 -1.8352 -1.3010
  683TIP3   OH2 2054   4.737   3.809   1.996  0.1103  0.0749  0.0393
  683TIP3    H1 2055   4.688   3.880   1.954  0.5014 -0.5359 -1.5400
  683TIP3    H2 2056   4.690   3.729   1.970  1.3988 -0.4546 -0.7704
  684TIP3   OH2 2057   3.344   3.743   3.536  0.3138  0.2259 -0.0669
  684TIP3    H1 2058   3.379   3.832   3.528 -0.0388  0.5539  1.5828
  684TIP3    H2 2059   3.401   3.701   3.600 -0.1841 -0.3761 -0.0150
  685TIP3   OH2 2060   6.153   2.997   4.575  0.5740  0.4820  0.4001
  685TIP3    H1 2061   6.146   2.902   4.564  0.3569  0.3463  1.5255
  685TIP3    H2 2062   6.126   3.012   4.666  0.6761  1.6157  0.2554
  686TIP3   OH2 2063   2.389   3.757   4.019  0.1265 -0.5637 -0.6043
  686TIP3    H1 2064   2.407   3.845   4.052 -1.1323 -0.0296 -1.2802
  686TIP3    H2 2065   2.302   3.736   4.054 -0.4198 -0.7454 -2.0000
  687TIP3   OH2 2066   4.143   3.166   1.116  0.4232 -0.2568  0.0813
  687TIP3    H1 2067   4.232   3.188   1.143  0.3060 -0.2048  0.4379
  687TIP3    H2 2068   4.127   3.217   1.037  0.8968 -0.6661 -0.2849
  688TIP3   OH2 2069   3.694   2.183   3.900 -0.2719  0.1127 -0.3591
  688TIP3    H1 2070   3.720   2.107   3.848 -2.0830 -1.0833  0.3412
  688TIP3    H2 2071   3.759   2.188   3.970 -0.1151 -0.8019 -0.4228
  689TIP3   OH2 2072   2.361   4.387   2.493  0.1955 -0.0615 -0.1900
  689TIP3    H1 2073   2.272   4.374   2.527  0.8813 -0.3928  1.6359
  689TIP3    H2 2074   2.387   4.301   2.461 -0.4907  0.2706 -1.6954
  690TIP3   OH2 2075   4.347   1.789   0.847  0.4617  0.7806 -0.5202
  690TIP3    H1 2076   4.304   1.840   0.915 -0.4528 -0.7571  0.1016
  690TIP3    H2 2077   4.307   1.820   0.765  0.5493  1.6489 -0.2405
  691TIP3   OH2 2078   0.786   1.345   1.417  0.0840  0.0216 -0.1044
  691TIP3    H1 2079   0.720   1.287   1.378 -0.9149  0.6275  0.6539
  691TIP3    H2 2080   0.854   1.352   1.350  0.3809 -2.2510 -0.1056
  692TIP3   OH2 2081   3.866   1.298   1.114  0.3037  0.3976 -0.0315
  692TIP3    H1 2082   3.884   1.327   1.024 -0.3355  3.0090  0.5788
  692TIP3    H2 2083   3.772   1.281   1.116  0.3235  0.3017  0.1360
  693TIP3   OH2 2084   5.681   1.933   2.151  0.2118 -0.0177  0.9100
  693TIP3    H1 2085   5.760   1.887   2.123  0.3676  0.7871 -0.0369
  693TIP3    H2 2086   5.712   2.018   2.183 -0.1201 -0.3340  2.1316
  694TIP3   OH2 2087   6.260   0.442   3.436  0.1116 -0.4936  0.3453
  694TIP3    H1 2088   6.349   0.463   3.407  0.3962 -2.1202 -0.0459
  694TIP3    H2 2089   6.205   0.505   3.389  1.0268  0.3776  0.4053
  695TIP3   OH2 2090   3.795   0.245   1.291 -0.4174 -0.2838  0.6389
  695TIP3    H1 2091   3.822   0.162   1.331 -2.4867 -1.8059 -0.9318
  695TIP3    H2 2092   3.860   0.261   1.223 -1.6549 -2.3824 -1.1712
  696TIP3   OH2 2093   3.615   5.111   4.173  0.3782 -0.0635 -0.2009
  696TIP3    H1 2094   3.677   5.046   4.141 -1.5975 -1.2278 -1.9208
  696TIP3    H2 2095   3.584   5.156   4.095 -1.1979  0.2212  0.5324
  697TIP3   OH2 2096   2.232   0.035   2.520  0.1321 -1.0789  0.3606
  697TIP3    H1 2097   2.309   0.000   2.565 -0.0825 -0.7825  0.9664
  697TIP3    H2 2098   2.191   0.093   2.584  0.6890  0.6041 -0.7612
  698TIP3   OH2 2099   4.919   4.575   4.419 -0.3172 -0.2269  0.1697
  698TIP3    H1 2100   5.013   4.593   4.418 -0.3735  0.0301 -0.6617
  698TIP3    H2 2101   4.887   4.619   4.498  0.2345 -0.1906  0.3767
  699TIP3   OH2 2102   5.997   4.473   3.927  0.2559  0.2860 -0.4791
  699TIP3    H1 2103   6.003   4.391   3.878  0.8309 -0.2479  0.4485
  699TIP3    H2 2104   5.923   4.460   3.986  0.4769  0.3422 -0.1838
  700TIP3   OH2 2105   2.715   1.793   5.066 -0.4309  0.3152 -0.8331
  700TIP3    H1 2106   2.758   1.856   5.124 -4.2190  1.1694  1.4243
  700TIP3    H2 2107   2.694   1.843   4.988  2.9220 -0.3030 -2.3065
  701TIP3   OH2 2108   6.174   4.513   1.611  0.0339 -0.7371 -0.4282
  701TIP3    H1 2109   6.192   4.564   1.532  0.2949 -1.1527 -0.6380
  701TIP3    H2 2110   6.229   4.554   1.678 -1.8573  1.0800  0.1293
  702TIP3   OH2 2111   4.041   0.940   2.428 -0.5293  0.1827 -0.5966
  702TIP3    H1 2112   4.019   1.013   2.370 -2.0272 -0.6198 -1.0665
  702TIP3    H2 2113   4.012   0.969   2.514  1.0808  1.0940 -0.3048
  703TIP3   OH2 2114   5.316   2.316   5.166 -0.3568  0.4281 -0.8089
  703TIP3    H1 2115   5.244   2.277   5.215 -1.3686  1.3786 -1.4959
  703TIP3    H2 2116   5.320   2.265   5.085  0.9996 -0.8243 -0.0341
  704TIP3   OH2 2117   0.505   1.710   1.657  0.5243 -0.3112 -0.5866
  704TIP3    H1 2118   0.503   1.619   1.630 -0.3772 -0.9444  1.4233
  704TIP3    H2 2119   0.593   1.723   1.693  0.6286 -0.3887 -0.8099
  705TIP3   OH2 2120   3.782   1.497   3.688 -0.2497 -0.3042 -0.3293
  705TIP3    H1 2121   3.835   1.521   3.764 -1.2892 -0.5426  0.4809
  705TIP3    H2 2122   3.820   1.415   3.657  0.1153 -0.2548 -0.0216
  706TIP3   OH2 2123   5.373   2.717   5.038 -0.5315  0.4064  0.3733
  706TIP3    H1 2124   5.373   2.736   4.944  0.5858  0.5882  0.3947
  706TIP3    H2 2125   5.461   2.684   5.056  0.2125  2.9031  1.8361
  707TIP3   OH2 2126   0.545   5.208   0.604 -0.3251 -0.2373  0.2333
  707TIP3    H1 2127   0.631   5.170   0.583 -0.8454 -1.9096  1.0446
  707TIP3    H2 2128   0.482   5.152   0.559 -0.9988  1.6040 -1.2447
  708TIP3   OH2 2129   4.416   3.439   2.675  0.2103  0.4469 -0.3456
  708TIP3    H1 2130   4.327   3.420   2.646  0.1443 -0.2178  0.2553
  708TIP3    H2 2131   4.415   3.419   2.769  0.4875  2.2270  0.0839
  709TIP3   OH2 2132   0.878   3.749   4.736 -0.3455 -0.2210  0.1886
  709TIP3    H1 2133   0.934   3.680   4.772 -0.7173 -1.1398 -0.9467
  709TIP3    H2 2134   0.921   3.831   4.762  1.0382 -0.8864  0.0819
  710TIP3   OH2 2135   4.386   2.942   4.193 -0.3663  0.0833 -0.0608
  710TIP3    H1 2136   4.415   2.989   4.115  0.7635  0.1297  0.3547
  710TIP3    H2 2137   4.401   3.004   4.264  2.3581 -1.2302  0.6754
  711TIP3   OH2 2138   4.569   4.010   0.131  0.3310 -0.4199 -0.2602
  711TIP3    H1 2139   4.547   4.043   0.219  0.0974 -0.4094 -0.3234
  711TIP3    H2 2140   4.664   3.995   0.135  0.0491 -2.1639  0.5697
  712TIP3   OH2 2141   5.560   0.124   2.096  0.2759  0.4127  0.8233
  712TIP3    H1 2142   5.559   0.219   2.081  0.7498  0.3277  0.2129
  712TIP3    H2 2143   5.609   0.089   2.022  0.1805 -0.3048  1.0955
  713TIP3   OH2 2144   5.148   2.092   3.689  0.6316  0.2884 -0.5304
  713TIP3    H1 2145   5.135   2.002   3.717 -1.1273  0.8599  0.6371
  713TIP3    H2 2146   5.233   2.116   3.727  1.0072 -0.7905 -0.6570
  714TIP3   OH2 2147   4.167   1.846   3.679 -0.1262 -0.6582  0.3211
  714TIP3    H1 2148   4.080   1.814   3.657  0.5055 -1.4308 -1.2159
  714TIP3    H2 2149   4.221   1.767   3.683  0.6382 -0.1326  0.5639
  715TIP3   OH2 2150   0.721   5.387   2.581 -0.0103  0.3316 -0.2275
  715TIP3    H1 2151   0.754   5.471   2.612  0.4058  0.0491  0.1067
  715TIP3    H2 2152   0.741   5.386   2.487  2.1659 -0.3712  0.1754
  716TIP3   OH2 2153   3.989   5.504   5.034  0.2488  0.4617  0.0083
  716TIP3    H1 2154   3.948   5.447   4.969  1.2610  0.0423 -0.2777
  716TIP3    H2 2155   3.926   5.575   5.048 -0.3936  0.0344 -0.7061
  717TIP3   OH2 2156   4.332   5.586   1.721  0.3081  0.2789 -0.2745
  717TIP3    H1 2157   4.359   5.643   1.793  0.1964 -0.5550  0.4476
  717TIP3    H2 2158   4.245   5.555   1.746  0.9104 -1.2748  0.0263
  718TIP3   OH2 2159   1.971   4.323   0.697  0.0802 -0.3921  0.0066
  718TIP3    H1 2160   1.949   4.298   0.787  1.2230  1.1066  0.7501
  718TIP3    H2 2161   1.928   4.257   0.643 -0.6872 -1.3044  1.6399
  719TIP3   OH2 2162   5.539   4.386   1.871  0.1958 -0.1209 -0.0461
  719TIP3    H1 2163   5.633   4.377   1.887  0.1699  0.8200  0.7141
  719TIP3    H2 2164   5.533   4.419   1.781  0.4901 -2.1543 -0.8586
  720TIP3   OH2 2165   4.172   0.979   3.872  0.2592  0.6213 -0.0038
  720TIP3    H1 2166   4.157   0.946   3.961 -1.9782  1.1242 -0.1306
  720TIP3    H2 2167   4.182   0.900   3.819 -1.3628  0.1979  0.2677
  721TIP3   OH2 2168   3.094   2.996   5.070 -0.0967  0.0043  0.4459
  721TIP3    H1 2169   3.031   3.067   5.064  0.8953  0.7934 -1.2379
  721TIP3    H2 2170   3.089   2.967   5.161 -2.4391  0.4096  0.4874
  722TIP3   OH2 2171   2.630   3.587   4.770 -0.8271 -0.4762  0.4630
  722TIP3    H1 2172   2.675   3.552   4.693 -2.8821 -1.1418 -0.5146
  722TIP3    H2 2173   2.660   3.533   4.843  1.1595  0.1692  0.1829
  723TIP3   OH2 2174   4.434   3.170   4.332  0.0927 -0.1600 -1.2956
  723TIP3    H1 2175   4.460   3.262   4.337  2.3424 -0.7035 -1.7536
  723TIP3    H2 2176   4.484   3.126   4.400 -1.7261 -0.9389 -0.3873
  724TIP3   OH2 2177   1.373   2.600   2.871 -0.8377 -0.3705 -0.2890
  724TIP3    H1 2178   1.362   2.579   2.778  1.8866 -0.9218 -0.5836
  724TIP3    H2 2179   1.308   2.545   2.916 -1.4647 -0.9166 -1.7960
  725TIP3   OH2 2180   5.775   4.015   0.133  0.4989 -0.3350  0.1682
  725TIP3    H1 2181   5.765   3.944   0.196 -0.5228  0.4045  0.8646
  725TIP3    H2 2182   5.836   3.980   0.068  2.5421 -0.6980  2.1529
  726TIP3   OH2 2183   1.163   5.012   2.051  0.3248  0.3608  0.3579
  726TIP3    H1 2184   1.172   4.921   2.023  1.6018 -0.0148  1.8525
  726TIP3    H2 2185   1.251   5.038   2.077 -0.4425  1.2391  2.2396
  727TIP3   OH2 2186   1.556   0.156   2.180 -0.4986  0.1482  0.4364
  727TIP3    H1 2187   1.519   0.091   2.120  0.0351  1.8374 -1.8835
  727TIP3    H2 2188   1.574   0.232   2.124  2.7124  0.8459  2.1570
  728TIP3   OH2 2189   4.739   0.473   2.601 -0.3220  0.9217  0.0116
  728TIP3    H1 2190   4.765   0.509   2.516  1.5066 -1.0957 -0.3853
  728TIP3    H2 2191   4.813   0.493   2.659 -0.3276 -0.0365  0.3771
  729TIP3   OH2 2192   1.114   1.122   4.930 -0.5096  0.1851  0.9530
  729TIP3    H1 2193   1.174   1.163   4.992  1.1310  0.8193 -0.9245
  729TIP3    H2 2194   1.136   1.029   4.932  0.5226  0.4012  0.3446
  730TIP3   OH2 2195   3.466   4.172   1.117 -0.3746 -0.1271 -0.0610
  730TIP3    H1 2196   3.371   4.174   1.100 -0.5742  0.2602  1.0305
  730TIP3    H2 2197   3.502   4.124   1.042 -1.2133  1.3222 -1.4850
  731TIP3   OH2 2198   1.180   0.463   0.596  0.2581 -0.0109  0.5610
  731TIP3    H1 2199   1.186   0.381   0.547 -3.1908 -0.2528  0.2623
  731TIP3    H2 2200   1.253   0.516   0.564  1.3275 -2.1872 -0.7818
  732TIP3   OH2 2201   4.566   4.994   2.439 -0.2532 -0.6245 -0.0259
  732TIP3    H1 2202   4.621   5.017   2.513 -2.1599 -0.8724  1.5649
  732TIP3    H2 2203   4.542   5.078   2.400  1.7779 -0.5409 -1.2224
  733TIP3   OH2 2204   0.888   5.886   4.823  0.1608  0.1441  0.4332
  733TIP3    H1 2205   0.983   5.887   4.811  0.3883  0.5268  1.9404
  733TIP3    H2 2206   0.856   5.818   4.764  1.5281 -0.9569  0.9139
  734TIP3   OH2 2207   1.987   0.474   2.795  1.1449 -0.4065  0.1079
  734TIP3    H1 2208   1.964   0.497   2.885  1.2639 -0.5348  0.1711
  734TIP3    H2 2209   1.936   0.535   2.741 -1.0364 -2.0561  0.1519
  735TIP3   OH2 2210   0.075   5.160   2.135 -0.4474 -0.5012 -0.7741
  735TIP3    H1 2211   0.148   5.179   2.076 -0.3917  2.1980  0.0580
  735TIP3    H2 2212   0.002   5.210   2.099 -1.2809 -1.3600 -0.3031
  736TIP3   OH2 2213   0.092   4.828   1.637 -0.4444 -0.5012 -0.5991
  736TIP3    H1 2214   0.105   4.905   1.692 -1.0915 -0.2391 -0.8005
  736TIP3    H2 2215   0.026   4.855   1.573 -0.5967 -1.1868 -0.7410
  737TIP3   OH2 2216   3.541   4.429   1.806  0.2196 -0.6297  0.1327
  737TIP3    H1 2217   3.516   4.427   1.899  0.8356  0.4401  0.3339
  737TIP3    H2 2218   3.470   4.477   1.764  0.2976 -0.4920  0.1599
  738TIP3   OH2 2219   5.372   4.580   0.132 -0.5820 -0.0507  0.0830
  738TIP3    H1 2220   5.467   4.576   0.136 -0.5953  0.1774  1.1762
  738TIP3    H2 2221   5.342   4.499   0.172 -0.8318  0.3641  0.7684
  739TIP3   OH2 2222   3.402   4.512   4.797 -0.2220 -0.6268  0.4869
  739TIP3    H1 2223   3.371   4.510   4.706 -0.8491 -1.5237  0.7163
  739TIP3    H2 2224   3.491   4.548   4.790 -0.1636 -0.9224 -0.5192
  740TIP3   OH2 2225   5.527   4.322   2.838 -0.4621 -0.3909  0.2585
  740TIP3    H1 2226   5.553   4.230   2.842 -1.4560 -0.6578  0.7502
  740TIP3    H2 2227   5.436   4.320   2.809 -0.2063  0.4909 -0.6584
  741TIP3   OH2 2228   4.960   1.770   2.520 -0.1148 -0.1947  0.0705
  741TIP3    H1 2229   5.056   1.770   2.514 -0.0922 -0.2047  0.4404
  741TIP3    H2 2230   4.931   1.754   2.430  0.2336 -0.4263 -0.0034
  742TIP3   OH2 2231   3.581   0.819   0.320  0.6782  0.2996 -0.5671
  742TIP3    H1 2232   3.546   0.902   0.354 -0.6489 -0.8559  1.0629
  742TIP3    H2 2233   3.504   0.765   0.303  1.4690 -0.2891 -2.5752
  743TIP3   OH2 2234   3.368   0.339   5.128  0.2341  0.2006  0.1121
  743TIP3    H1 2235   3.454   0.297   5.120  1.2980  2.1958  0.6167
  743TIP3    H2 2236   3.352   0.376   5.042 -1.3013 -2.1738 -0.7316
  744TIP3   OH2 2237   1.260   1.039   1.399 -0.4442 -0.1057 -0.2688
  744TIP3    H1 2238   1.187   0.981   1.378  0.4283 -1.6656  0.8279
  744TIP3    H2 2239   1.245   1.066   1.489 -0.9182  1.5732 -0.8038
  745TIP3   OH2 2240   2.205   5.251   1.270 -0.3756 -0.1196 -0.4464
  745TIP3    H1 2241   2.254   5.259   1.189 -0.7136 -2.8571 -1.0100
  745TIP3    H2 2242   2.117   5.225   1.242 -0.1969 -2.2601  0.7504
  746TIP3   OH2 2243   6.195   4.360   3.434  0.0784  0.0391  0.0429
  746TIP3    H1 2244   6.125   4.339   3.495  0.7662  1.7177  1.4955
  746TIP3    H2 2245   6.155   4.421   3.372  0.0751  0.5284  0.5161
  747TIP3   OH2 2246   0.518   2.397   1.957  0.8371  0.3299  0.4639
  747TIP3    H1 2247   0.488   2.338   2.026  1.2409 -0.7788 -0.2711
  747TIP3    H2 2248   0.444   2.455   1.939 -0.4790 -1.5269 -0.4552
  748TIP3   OH2 2249   2.254   0.968   1.071  0.4367 -0.4427 -0.4010
  748TIP3    H1 2250   2.258   0.874   1.087  0.7377 -0.4754 -0.6615
  748TIP3    H2 2251   2.186   1.000   1.131 -1.9103 -1.2820 -2.4437
  749TIP3   OH2 2252   4.511   4.896   4.714  0.2009 -0.8314 -0.3733
  749TIP3    H1 2253   4.447   4.967   4.723  1.2958  0.3214 -1.1895
  749TIP3    H2 2254   4.484   4.849   4.635 -0.0094 -0.7389 -0.3557
  750TIP3   OH2 2255   3.369   4.992   4.189  0.2675 -0.7722  0.0252
  750TIP3    H1 2256   3.341   5.069   4.140  1.8121 -1.3782 -1.9347
  750TIP3    H2 2257   3.460   5.009   4.212  0.1840 -1.4001  0.8897
  751TIP3   OH2 2258   0.486   1.350   2.374  0.8767 -0.0635 -0.4696
  751TIP3    H1 2259   0.408   1.303   2.400 -0.0734  0.5497 -2.0511
  751TIP3    H2 2260   0.556   1.314   2.429  0.0738 -2.7340 -1.0534
  752TIP3   OH2 2261   0.924   5.924   1.970  0.3873 -0.0312  0.1657
  752TIP3    H1 2262   0.865   5.850   1.954  0.1284 -0.5237  2.8542
  752TIP3    H2 2263   0.971   5.935   1.888 -1.7208 -1.1995 -1.3046
  753TIP3   OH2 2264   3.346   1.396   1.345  1.1257 -0.6354  0.1464
  753TIP3    H1 2265   3.439   1.414   1.330  1.0796 -0.7079 -0.2596
  753TIP3    H2 2266   3.305   1.411   1.260  0.3906  1.5913  0.8315
  754TIP3   OH2 2267   0.176   1.028   1.093  0.0734 -0.3404  0.2919
  754TIP3    H1 2268   0.088   1.011   1.062  0.7618 -1.1443 -1.3405
  754TIP3    H2 2269   0.227   1.044   1.013  1.2640  0.8057  1.2356
  755TIP3   OH2 2270   3.357   1.393   4.947  0.3026  0.2769 -0.1103
  755TIP3    H1 2271   3.346   1.488   4.950 -0.0003  0.2553 -0.4864
  755TIP3    H2 2272   3.269   1.360   4.927  0.2776 -0.1175  0.6280
  756TIP3   OH2 2273   5.932   3.041   1.114  0.4682 -0.6415  0.1238
  756TIP3    H1 2274   5.905   3.004   1.030 -1.5876  0.6599  0.1353
  756TIP3    H2 2275   5.950   3.133   1.095  0.6706 -0.4985  0.9688
  757TIP3   OH2 2276   5.560   0.695   0.988  0.0798  0.4247 -0.5212
  757TIP3    H1 2277   5.502   0.634   0.942 -1.3673 -0.1012  1.7920
  757TIP3    H2 2278   5.630   0.640   1.023  0.6223  0.6593 -1.2174
  758TIP3   OH2 2279   1.699   5.913   2.211 -0.1256 -0.1421  0.3304
  758TIP3    H1 2280   1.681   5.959   2.293  0.0168  1.1755 -0.3438
  758TIP3    H2 2281   1.615   5.911   2.165 -0.0533 -0.2421  0.1994
  759TIP3   OH2 2282   5.521   0.637   2.125 -0.1817  0.4218  0.3526
  759TIP3    H1 2283   5.451   0.595   2.175  0.5107  0.3979  1.3316
  759TIP3    H2 2284   5.547   0.712   2.178  0.9294  0.0936  0.2910
  760TIP3   OH2 2285   5.331   2.015   0.211 -0.5820 -0.2901  0.7447
  760TIP3    H1 2286   5.324   2.092   0.268 -0.7347 -0.1821  0.5773
  760TIP3    H2 2287   5.413   1.974   0.238 -1.4957 -1.2201  2.2795
  761TIP3   OH2 2288   0.887   4.851   0.216 -0.1793  0.0650  0.1325
  761TIP3    H1 2289   0.941   4.921   0.252  0.3310  0.2611 -0.9857
  761TIP3    H2 2290   0.944   4.805   0.155 -0.8858 -0.5462 -0.0804
  762TIP3   OH2 2291   3.348   3.716   1.140 -0.1403 -0.4418 -0.3102
  762TIP3    H1 2292   3.408   3.720   1.215  0.0039 -2.8881 -0.2176
  762TIP3    H2 2293   3.299   3.635   1.153 -1.3121 -0.0499 -2.0012
  763TIP3   OH2 2294   4.176   2.108   4.627 -0.1114 -0.0368 -0.2976
  763TIP3    H1 2295   4.131   2.173   4.572  0.9523  1.0406  0.0571
  763TIP3    H2 2296   4.144   2.023   4.595 -0.7908  0.6255 -1.4421
  764TIP3   OH2 2297   6.063   0.891   1.614  0.5490 -0.0836  0.2151
  764TIP3    H1 2298   6.055   0.960   1.549 -0.5639  1.2495  1.6966
  764TIP3    H2 2299   6.151   0.903   1.650  0.1884  0.9069  0.8032
  765TIP3   OH2 2300   2.441   3.138   3.915  0.3251 -0.0650  0.2403
  765TIP3    H1 2301   2.456   3.043   3.909  2.4592  0.2854 -1.5416
  765TIP3    H2 2302   2.431   3.166   3.824  2.0513  1.6913  0.5184
  766TIP3   OH2 2303   1.372   5.543   3.212  0.1885 -0.1289  0.4116
  766TIP3    H1 2304   1.459   5.578   3.231  0.4242 -0.8859  0.7360
  766TIP3    H2 2305   1.312   5.601   3.259  0.3260  1.7453 -1.5544
  767TIP3   OH2 2306   0.962   4.875   3.568  0.5325 -0.5818 -0.1862
  767TIP3    H1 2307   1.056   4.858   3.568  0.4284 -1.1904 -0.0248
  767TIP3    H2 2308   0.930   4.834   3.648  0.4027  1.2707  0.7605
  768TIP3   OH2 2309   2.860   5.013   0.110  0.8015  0.3618 -0.4839
  768TIP3    H1 2310   2.832   4.946   0.048 -1.4026  0.4739  0.2743
  768TIP3    H2 2311   2.935   5.056   0.069 -0.0214 -0.1612 -2.6321
  769TIP3   OH2 2312   5.084   5.199   0.339 -0.1367 -0.2200 -0.1708
  769TIP3    H1 2313   5.142   5.139   0.386 -1.2793 -0.0299  1.5359
  769TIP3    H2 2314   5.114   5.286   0.365  1.2033  0.0286 -2.2684
  770TIP3   OH2 2315   5.115   5.847   3.653  0.3262 -0.3589  0.4416
  770TIP3    H1 2316   5.105   5.821   3.561  1.3476  2.1540 -0.4529
  770TIP3    H2 2317   5.058   5.786   3.701 -0.3617 -1.6446 -1.8431
  771TIP3   OH2 2318   4.240   3.702   1.870 -0.3871 -0.3790 -0.1705
  771TIP3    H1 2319   4.250   3.788   1.828  0.1224 -1.1034 -1.5867
  771TIP3    H2 2320   4.149   3.700   1.899 -0.5417  0.4467 -0.5618
  772TIP3   OH2 2321   0.454   2.735   1.564 -0.4269 -0.1159  0.1865
  772TIP3    H1 2322   0.376   2.684   1.586 -0.8058  0.3302 -0.0994
  772TIP3    H2 2323   0.486   2.695   1.482 -0.6274 -0.0024  0.0518
  773TIP3   OH2 2324   1.081   5.309   3.954 -0.4597  0.0142 -0.0082
  773TIP3    H1 2325   1.128   5.357   4.021 -1.0161 -0.8252  1.0103
  773TIP3    H2 2326   1.035   5.376   3.904 -2.4825  0.5067  2.3517
  774TIP3   OH2 2327   2.253   5.020   4.697 -0.0540 -0.4847  0.2279
  774TIP3    H1 2328   2.307   5.007   4.775 -0.3816  0.2994  0.5986
  774TIP3    H2 2329   2.267   5.112   4.675 -2.2651  0.1242  1.1332
  775TIP3   OH2 2330   1.915   1.585   1.985 -0.1913  0.2791 -0.6877
  775TIP3    H1 2331   1.844   1.620   2.039 -0.9720 -1.6216 -0.4016
  775TIP3    H2 2332   1.876   1.573   1.899  0.2062  0.5002 -0.9062
  776TIP3   OH2 2333   6.318   2.746   3.247  0.2500 -0.0747  0.4598
  776TIP3    H1 2334   6.378   2.689   3.295 -0.9386 -2.0305 -0.2377
  776TIP3    H2 2335   6.240   2.750   3.303 -0.3189 -0.5774 -0.2855
  777TIP3   OH2 2336   0.293   2.206   4.445  0.0435  0.1155  0.5855
  777TIP3    H1 2337   0.287   2.161   4.361 -1.8445  0.9465  0.2261
  777TIP3    H2 2338   0.214   2.181   4.492  0.2084  1.0346  1.3987
  778TIP3   OH2 2339   4.400   1.805   0.160  0.2919  0.0153 -0.3034
  778TIP3    H1 2340   4.450   1.876   0.118  0.3741  0.4584  0.5172
  778TIP3    H2 2341   4.322   1.795   0.105 -0.2640  1.5027  0.1619
  779TIP3   OH2 2342   0.118   1.567   3.817  0.1006  0.5320  0.4751
  779TIP3    H1 2343   0.070   1.612   3.748 -1.3264  2.2189  2.4398
  779TIP3    H2 2344   0.195   1.622   3.834 -0.4698  1.0842  1.3630
  780TIP3   OH2 2345   2.238   4.399   0.274 -0.2256  0.4248 -0.3454
  780TIP3    H1 2346   2.202   4.483   0.302  0.1437  1.0206 -1.5391
  780TIP3    H2 2347   2.179   4.370   0.204  0.7920  0.7283 -1.3576
  781TIP3   OH2 2348   0.304   4.835   0.343 -0.1511  0.2425 -0.7767
  781TIP3    H1 2349   0.211   4.860   0.342 -1.0840 -2.3076  2.5514
  781TIP3    H2 2350   0.305   4.747   0.306  1.0214  0.4009 -1.1487
  782TIP3   OH2 2351   3.256   3.999   1.458  0.0754  0.4727 -0.6410
  782TIP3    H1 2352   3.226   4.090   1.464 -2.0342 -0.2244  0.3925
  782TIP3    H2 2353   3.246   3.976   1.366 -2.8592  0.2665 -0.3543
  783TIP3   OH2 2354   5.018   1.954   2.008  0.7718 -0.1433  0.9643
  783TIP3    H1 2355   5.045   2.036   1.965 -0.2093  0.1758  0.9360
  783TIP3    H2 2356   4.945   1.922   1.955 -0.3361  0.1498  2.2621
  784TIP3   OH2 2357   6.136   1.780   0.222  0.0402  0.1205  0.0865
  784TIP3    H1 2358   6.129   1.758   0.129  0.7857  2.4202 -0.5781
  784TIP3    H2 2359   6.222   1.748   0.248  0.1443  0.1409 -0.2306
  785TIP3   OH2 2360   0.385   0.246   1.385 -0.1897 -0.4608 -0.1208
  785TIP3    H1 2361   0.418   0.254   1.295 -1.3250  0.3410 -0.4997
  785TIP3    H2 2362   0.427   0.318   1.432  0.0643 -0.6099 -0.1184
  786TIP3   OH2 2363   1.577   5.495   1.042 -0.1665  0.0197 -0.5017
  786TIP3    H1 2364   1.579   5.502   0.946 -1.2040  2.7467 -0.4114
  786TIP3    H2 2365   1.651   5.439   1.063  0.1003 -0.6574 -2.8997
  787TIP3   OH2 2366   1.238   5.499   5.118  0.5916 -0.4542 -0.0492
  787TIP3    H1 2367   1.330   5.518   5.137  0.5558 -0.2500 -0.0847
  787TIP3    H2 2368   1.199   5.477   5.202  0.3750  0.6773  0.1611
  788TIP3   OH2 2369   3.719   3.107   3.533  0.6471 -0.2320 -0.3454
  788TIP3    H1 2370   3.667   3.181   3.561 -0.2129 -0.8914 -0.1635
  788TIP3    H2 2371   3.782   3.094   3.604  1.4069  0.8762 -0.7940
  789TIP3   OH2 2372   1.701   3.121   1.367  0.5548 -0.5162 -0.0556
  789TIP3    H1 2373   1.650   3.093   1.444  0.7116 -2.3089 -0.5575
  789TIP3    H2 2374   1.767   3.053   1.357  0.6593 -0.2025 -1.6656
  790TIP3   OH2 2375   2.025   4.069   4.495  0.4500 -0.0187 -0.3421
  790TIP3    H1 2376   1.949   4.103   4.448  0.9391 -0.8911 -1.8610
  790TIP3    H2 2377   2.075   4.021   4.428  2.4133  0.6452  0.5510
  791TIP3   OH2 2378   0.915   4.763   1.049 -0.1403 -0.1255  0.7127
  791TIP3    H1 2379   0.981   4.763   1.118  2.4515 -0.7882 -1.5692
  791TIP3    H2 2380   0.953   4.816   0.979 -1.9364 -0.7075 -0.8220
  792TIP3   OH2 2381   2.814   1.402   1.894 -0.5396 -0.1949  0.5030
  792TIP3    H1 2382   2.792   1.360   1.811  0.9222 -0.4408  0.2174
  792TIP3    H2 2383   2.773   1.345   1.960 -1.0277 -0.4448 -0.0041
  793TIP3   OH2 2384   1.358   0.002   4.820 -0.2938 -0.8758  0.1717
  793TIP3    H1 2385   1.406   0.037   4.895 -0.2653  0.1794 -0.3153
  793TIP3    H2 2386   1.395   0.048   4.745 -1.3927 -0.7671 -0.3192
  794TIP3   OH2 2387   3.909   2.515   0.201  0.3348 -0.3167  0.1654
  794TIP3    H1 2388   3.975   2.463   0.156  0.0096 -0.4304 -0.1796
  794TIP3    H2 2389   3.955   2.549   0.278  0.9464  0.0535 -0.3558
  795TIP3   OH2 2390   3.731   5.097   1.151 -0.0250  0.3544  0.0098
  795TIP3    H1 2391   3.712   5.020   1.204 -0.8242  0.8159  0.4184
  795TIP3    H2 2392   3.749   5.062   1.064 -0.1872 -0.3122  0.2369
  796TIP3   OH2 2393   6.042   0.648   4.745 -0.2797 -0.3142  0.1159
  796TIP3    H1 2394   6.070   0.578   4.687 -1.4662 -0.9375  0.2637
  796TIP3    H2 2395   6.068   0.728   4.699  0.6183 -0.8265 -0.2998
  797TIP3   OH2 2396   6.036   0.730   3.667  0.4452  0.3518  0.5289
  797TIP3    H1 2397   6.089   0.662   3.708  0.0769  0.3504  1.0126
  797TIP3    H2 2398   5.946   0.700   3.678  0.3722 -0.4071 -1.6179
  798TIP3   OH2 2399   3.057   2.361   1.183  0.6053  0.0705 -0.0175
  798TIP3    H1 2400   3.012   2.381   1.265  0.7231 -1.2745  0.4074
  798TIP3    H2 2401   3.003   2.294   1.141  0.6322  0.6313 -0.9727
  799TIP3   OH2 2402   2.684   1.982   0.578 -0.1410  0.0352  0.2076
  799TIP3    H1 2403   2.685   1.981   0.674 -1.1529  0.2858  0.2282
  799TIP3    H2 2404   2.637   1.902   0.554  0.9214 -0.5249 -0.1210
  800TIP3   OH2 2405   0.314   4.431   3.523 -0.3325  0.0156  0.1380
  800TIP3    H1 2406   0.359   4.411   3.605 -0.5649  0.2298  0.3189
  800TIP3    H2 2407   0.242   4.490   3.548  0.6288  1.5022 -0.4366
  801TIP3   OH2 2408   3.492   1.103   2.484 -0.6149  0.0446  0.2016
  801TIP3    H1 2409   3.494   1.134   2.393 -0.8943 -1.1448 -0.2231
  801TIP3    H2 2410   3.552   1.161   2.530  0.4494 -0.0671 -0.9879
  802TIP3   OH2 2411   4.217   5.650   3.857  0.4235 -0.0189 -0.2116
  802TIP3    H1 2412   4.270   5.590   3.806 -0.7324 -2.6247  1.4251
  802TIP3    H2 2413   4.245   5.636   3.948 -0.9034  0.8183  0.3577
  803TIP3   OH2 2414   3.633   3.513   3.178 -0.6138 -0.4241 -0.0466
  803TIP3    H1 2415   3.597   3.462   3.251  0.8115 -2.7057 -0.8414
  803TIP3    H2 2416   3.725   3.525   3.201 -0.5758  0.4636 -0.6251
  804TIP3   OH2 2417   5.328   4.370   4.304  0.3416 -0.0160 -0.9600
  804TIP3    H1 2418   5.421   4.346   4.296  0.6225  0.5769  0.1648
  804TIP3    H2 2419   5.321   4.453   4.256  0.5811  0.3167 -0.4403
  805TIP3   OH2 2420   2.387   2.024   0.506  0.3906  0.0990  0.4288
  805TIP3    H1 2421   2.298   2.055   0.492  0.6849  0.1601 -1.5973
  805TIP3    H2 2422   2.424   2.084   0.570 -0.9209  0.2474  1.0701
  806TIP3   OH2 2423   3.884   3.056   3.734 -0.3904  0.2703 -0.5980
  806TIP3    H1 2424   3.965   3.101   3.709 -0.5105  0.3313 -0.8741
  806TIP3    H2 2425   3.905   2.963   3.724  0.7303  0.0510  2.4388
  807TIP3   OH2 2426   5.340   2.007   0.819 -0.4257  0.3676 -0.2139
  807TIP3    H1 2427   5.262   2.058   0.841 -0.1662  1.0861 -0.9359
  807TIP3    H2 2428   5.408   2.072   0.804  0.1240 -0.2274 -0.3388
  808TIP3   OH2 2429   0.474   0.848   3.034  0.5883 -0.1664  0.0858
  808TIP3    H1 2430   0.535   0.777   3.053  2.7731  1.2761 -1.1601
  808TIP3    H2 2431   0.529   0.920   3.004 -1.6711  1.5667 -0.1716
  809TIP3   OH2 2432   2.332   4.460   1.223 -0.2510 -0.5833 -0.0002
  809TIP3    H1 2433   2.410   4.411   1.248  1.6805 -0.2082 -4.4282
  809TIP3    H2 2434   2.366   4.537   1.177 -3.2552  0.4966 -0.6326
  810TIP3   OH2 2435   3.125   4.579   4.932 -0.4943  0.6528 -0.3468
  810TIP3    H1 2436   3.164   4.627   5.005 -1.9536  0.1112  0.8453
  810TIP3    H2 2437   3.183   4.505   4.917  0.6698  1.6330 -0.8346
  811TIP3   OH2 2438   1.030   1.515   0.482  0.2244  0.3002  0.5701
  811TIP3    H1 2439   1.000   1.501   0.392 -0.2725  0.7175  0.6690
  811TIP3    H2 2440   1.125   1.515   0.475  0.2542 -1.6979  0.3554
  812TIP3   OH2 2441   3.562   5.558   1.849 -0.4114  0.1210  0.3644
  812TIP3    H1 2442   3.494   5.601   1.901 -2.4125  0.6113 -2.4260
  812TIP3    H2 2443   3.560   5.467   1.877  0.1170  0.6968  2.5447
  813TIP3   OH2 2444   1.324   2.759   3.527 -0.2214  0.0873  0.0971
  813TIP3    H1 2445   1.354   2.689   3.585  1.3854  0.2402 -0.4937
  813TIP3    H2 2446   1.276   2.714   3.458  2.3887 -0.7261 -1.3223
  814TIP3   OH2 2447   3.968   3.760   1.911 -0.0270 -0.7346  0.1212
  814TIP3    H1 2448   3.879   3.795   1.911  0.5128  0.7577 -0.4226
  814TIP3    H2 2449   4.020   3.827   1.865  1.5615 -1.0731  1.3187
  815TIP3   OH2 2450   4.632   5.777   2.742  0.6651  0.1222 -0.5363
  815TIP3    H1 2451   4.664   5.774   2.832  1.0767  0.3566 -0.6687
  815TIP3    H2 2452   4.537   5.772   2.749  0.7458 -1.7731 -0.1772
  816TIP3   OH2 2453   3.212   1.729   0.980 -0.2318  0.2810  0.0903
  816TIP3    H1 2454   3.261   1.729   1.062 -0.2861 -0.8077  0.1390
  816TIP3    H2 2455   3.203   1.821   0.958 -0.3108  0.5947  1.3559
  817TIP3   OH2 2456   5.296   5.413   4.404  0.0859  0.0879  0.4689
  817TIP3    H1 2457   5.203   5.427   4.386  0.0574  0.0780  0.6045
  817TIP3    H2 2458   5.337   5.407   4.318 -0.0970 -0.2852  0.4062
  818TIP3   OH2 2459   1.973   1.731   2.779  0.6964 -0.2594 -0.1362
  818TIP3    H1 2460   1.904   1.752   2.716 -0.2904 -0.1435  0.9576
  818TIP3    H2 2461   2.004   1.645   2.751  1.7757  0.6701 -2.0432
  819TIP3   OH2 2462   2.207   0.612   2.210 -0.2840 -0.4378  1.2209
  819TIP3    H1 2463   2.214   0.616   2.115  1.2477  1.5796  1.3378
  819TIP3    H2 2464   2.113   0.604   2.228 -1.0276  2.7007 -0.4676
  820TIP3   OH2 2465   3.872   5.033   3.240  0.5095 -0.3873  0.1933
  820TIP3    H1 2466   3.961   5.059   3.217  0.8169 -0.6311  1.0994
  820TIP3    H2 2467   3.818   5.107   3.211  1.0435 -0.0612  0.0090
  821TIP3   OH2 2468   0.541   2.359   4.905  0.6576  0.0347  0.1340
  821TIP3    H1 2469   0.556   2.453   4.920 -1.4676  0.5142 -0.4062
  821TIP3    H2 2470   0.501   2.328   4.987  0.1024 -0.0843 -0.1822
  822TIP3   OH2 2471   5.941   1.417   3.986  0.7924  0.2394  0.6068
  822TIP3    H1 2472   5.911   1.422   3.895  1.3664  1.6535  0.4741
  822TIP3    H2 2473   5.863   1.391   4.035 -0.0377  1.3721 -0.0613
  823TIP3   OH2 2474   0.813   0.048   3.125  0.8436 -0.5421 -0.0570
  823TIP3    H1 2475   0.772  -0.011   3.188 -2.6955  0.2653 -1.3768
  823TIP3    H2 2476   0.855  -0.010   3.062  2.7788 -1.3819  1.8456
  824TIP3   OH2 2477   1.521   2.532   0.069 -0.8208  0.0439 -0.1813
  824TIP3    H1 2478   1.551   2.478   0.142 -1.4485  1.2391  0.9913
  824TIP3    H2 2479   1.452   2.480   0.028 -1.4560 -0.0454  0.9653
  825TIP3   OH2 2480   5.463   1.367   3.699 -0.0201 -0.3869  0.5828
  825TIP3    H1 2481   5.478   1.456   3.731  1.2083 -0.2848 -0.2070
  825TIP3    H2 2482   5.550   1.331   3.684 -0.5065 -1.0480 -0.9307
  826TIP3   OH2 2483   0.097   3.014   3.461  0.0210 -0.2958  0.7534
  826TIP3    H1 2484   0.107   3.035   3.368  1.1196 -0.5368  0.8024
  826TIP3    H2 2485   0.154   2.938   3.475  0.5655  0.2726  1.8002
  827TIP3   OH2 2486   0.044   4.137   4.772  0.1208 -0.1806 -0.7093
  827TIP3    H1 2487   0.123   4.084   4.766 -0.6472 -1.4756  0.3181
  827TIP3    H2 2488  -0.001   4.106   4.850  0.5388  3.2422  1.1150
  828TIP3   OH2 2489   2.480   2.356   4.732 -0.1689  0.0411  0.0029
  828TIP3    H1 2490   2.392   2.385   4.709  0.0557  0.9039  0.2223
  828TIP3    H2 2491   2.467   2.301   4.810 -0.4300  0.7740  0.4811
  829TIP3   OH2 2492   4.329   0.549   0.636 -0.2059 -0.1852  0.1227
  829TIP3    H1 2493   4.374   0.626   0.601 -1.1333  0.8626  1.1468
  829TIP3    H2 2494   4.245   0.583   0.667 -1.8896 -2.0874 -1.9929
  830TIP3   OH2 2495   1.220   5.140   3.648  0.1813 -0.5418  0.1561
  830TIP3    H1 2496   1.176   5.071   3.698 -1.2135  0.3612  0.2235
  830TIP3    H2 2497   1.304   5.151   3.692  0.0399 -1.5364  0.7179
  831TIP3   OH2 2498   4.527   3.468   1.583  0.0815  0.4353 -0.4912
  831TIP3    H1 2499   4.614   3.454   1.546  0.4279  2.1981 -0.3955
  831TIP3    H2 2500   4.495   3.379   1.602  1.1869 -0.3220 -1.9996
  832TIP3   OH2 2501   5.301   3.158   0.071 -0.4914 -0.1327  0.0408
  832TIP3    H1 2502   5.353   3.128  -0.004 -0.8938 -0.7141 -0.0152
  832TIP3    H2 2503   5.363   3.163   0.143 -0.1114  0.3703 -0.3051
  833TIP3   OH2 2504   4.697   3.386   2.999  0.2392  0.3058  0.2963
  833TIP3    H1 2505   4.700   3.294   2.973 -2.0921 -0.3670  2.0759
  833TIP3    H2 2506   4.678   3.384   3.092 -1.3600  2.5766  0.0916
  834TIP3   OH2 2507   5.041   1.444   4.766 -0.3858  0.2717 -1.0566
  834TIP3    H1 2508   4.960   1.479   4.803 -0.4817 -0.3776 -0.6236
  834TIP3    H2 2509   5.081   1.517   4.720  0.1912  1.4093  1.0868
  835TIP3   OH2 2510   3.276   3.128   1.146  0.3511  0.0856 -0.4897
  835TIP3    H1 2511   3.338   3.176   1.201  0.6700 -1.4769  0.5626
  835TIP3    H2 2512   3.330   3.070   1.093 -0.0001  1.1546 -2.1085
  836TIP3   OH2 2513   5.527   5.257   4.724  0.2156 -0.1461  0.1357
  836TIP3    H1 2514   5.567   5.257   4.811  0.3251 -0.2966  0.0867
  836TIP3    H2 2515   5.515   5.164   4.703 -1.2015 -0.0938  0.6196
  837TIP3   OH2 2516   4.617   5.814   0.604  0.0735 -0.4079 -0.3413
  837TIP3    H1 2517   4.580   5.869   0.535  1.2767 -0.4340 -1.0329
  837TIP3    H2 2518   4.670   5.874   0.657  0.7399 -0.7540 -0.6145
  838TIP3   OH2 2519   2.481   5.337   2.943  0.1747 -0.5589  0.2255
  838TIP3    H1 2520   2.478   5.243   2.925  1.8121 -1.2270  2.8848
  838TIP3    H2 2521   2.541   5.372   2.878  1.0939 -1.7261  0.4017
  839TIP3   OH2 2522   0.705   5.619   1.153 -0.3495  0.0519 -0.3045
  839TIP3    H1 2523   0.758   5.656   1.082  1.2596  0.0470  0.8493
  839TIP3    H2 2524   0.737   5.530   1.163  0.4185  0.4649  1.2922
  840TIP3   OH2 2525   0.191   5.567   2.998  0.1962 -0.2225  0.1453
  840TIP3    H1 2526   0.276   5.525   3.006 -0.6763 -2.0660  0.5167
  840TIP3    H2 2527   0.132   5.496   2.969 -1.5812  0.4516  1.8404
  841TIP3   OH2 2528   5.530   0.032   1.576  0.3788  0.4683 -0.0084
  841TIP3    H1 2529   5.614   0.077   1.567  0.0652  1.0301 -0.1096
  841TIP3    H2 2530   5.478   0.089   1.632  0.4301 -0.3959  0.9464
  842TIP3   OH2 2531   2.508   4.281   4.455  0.5414  0.1197  0.8525
  842TIP3    H1 2532   2.559   4.250   4.380  1.5277 -0.2895  1.6670
  842TIP3    H2 2533   2.570   4.281   4.527 -0.7938 -1.1690  2.0715
  843TIP3   OH2 2534   4.327   2.960   2.026  0.1717  0.0067  0.4599
  843TIP3    H1 2535   4.244   2.990   1.987 -0.9459 -2.8542  0.4067
  843TIP3    H2 2536   4.327   2.999   2.113 -1.4369 -0.1661  0.5781
  844TIP3   OH2 2537   0.182   3.151   3.231  0.4203 -0.1021  0.5379
  844TIP3    H1 2538   0.164   3.244   3.218 -0.0378  0.0660  2.0905
  844TIP3    H2 2539   0.116   3.106   3.178 -0.6889  0.4940  1.3557
  845TIP3   OH2 2540   5.774   5.928   1.178  0.0689  0.4373  0.5742
  845TIP3    H1 2541   5.757   5.924   1.273  0.1126 -3.2338  0.5524
  845TIP3    H2 2542   5.858   5.973   1.171  0.3113  0.3578  2.3400
  846TIP3   OH2 2543   3.787   4.941   0.916 -0.5139  0.3554  0.3985
  846TIP3    H1 2544   3.733   4.873   0.877  0.8720 -1.0160  0.7975
  846TIP3    H2 2545   3.807   5.001   0.844 -1.5566  0.2615  0.0027
  847TIP3   OH2 2546   6.032   3.148   5.163 -0.4571 -0.5565  0.2129
  847TIP3    H1 2547   6.123   3.153   5.134  0.2183 -2.8829  1.6280
  847TIP3    H2 2548   6.000   3.065   5.127 -2.1798  0.4086 -0.5868
  848TIP3   OH2 2549   3.509   2.228   1.034  0.9118 -0.1201  1.0827
  848TIP3    H1 2550   3.434   2.181   0.999 -0.2187  2.2684  0.0776
  848TIP3    H2 2551   3.516   2.198   1.125  0.4504 -2.3543  0.4212
  849TIP3   OH2 2552   5.505   3.640   4.511  0.5868 -0.3304 -0.8348
  849TIP3    H1 2553   5.599   3.626   4.504  0.4342 -2.0212  0.0231
  849TIP3    H2 2554   5.484   3.615   4.601 -0.8373 -0.9474 -1.3227
  850TIP3   OH2 2555   5.952   3.930   5.011  0.5070  0.5181  0.3292
  850TIP3    H1 2556   5.897   3.884   5.075  1.8439 -0.7329  0.6392
  850TIP3    H2 2557   5.890   3.979   4.957 -0.7305  0.9653  2.0549
  851TIP3   OH2 2558   3.783   2.570   4.696  0.2912 -0.4059  0.1869
  851TIP3    H1 2559   3.816   2.535   4.613  0.0302  0.7118 -0.4083
  851TIP3    H2 2560   3.797   2.665   4.689 -3.0640  0.1833 -0.1248
  852TIP3   OH2 2561   2.141   1.438   4.913 -0.3548 -0.3107  0.1189
  852TIP3    H1 2562   2.171   1.475   4.830  0.8755  0.7547  0.9992
  852TIP3    H2 2563   2.072   1.377   4.888 -1.5974  1.6193 -1.5292
  853TIP3   OH2 2564   2.087   5.318   3.559 -0.8654  0.5214 -0.2754
  853TIP3    H1 2565   2.102   5.226   3.535 -0.7676  0.1212  1.2194
  853TIP3    H2 2566   2.136   5.330   3.641 -0.5931  2.0097 -0.6204
  854TIP3   OH2 2567   1.452   3.987   3.089  0.1420  0.2586  0.3269
  854TIP3    H1 2568   1.482   3.896   3.078  0.3772  0.6113 -3.2433
  854TIP3    H2 2569   1.436   3.996   3.183  1.6508 -2.9734  1.0429
  855TIP3   OH2 2570   2.714   5.521   0.544  0.1642 -0.1995  0.4244
  855TIP3    H1 2571   2.658   5.535   0.467  0.9172  0.4515 -0.0229
  855TIP3    H2 2572   2.663   5.556   0.617 -0.3685 -0.4055  0.1610
  856TIP3   OH2 2573   4.884   2.162   1.807  0.0770 -0.3164  0.5450
  856TIP3    H1 2574   4.939   2.239   1.809 -1.9332  1.2673 -0.9625
  856TIP3    H2 2575   4.823   2.174   1.879  0.1323 -0.8252  0.6840
  857TIP3   OH2 2576   1.970   0.108   1.145  0.5732 -0.0068  0.4128
  857TIP3    H1 2577   2.012   0.153   1.218 -0.1437 -0.6781  1.2640
  857TIP3    H2 2578   1.913   0.044   1.186  3.6958 -3.8682 -0.6633
  858TIP3   OH2 2579   0.106   1.220   0.800  0.3487  0.2336  0.3416
  858TIP3    H1 2580   0.058   1.151   0.846  0.7843 -0.0894  0.3209
  858TIP3    H2 2581   0.058   1.301   0.820 -1.1040 -0.2627 -0.9107
  859TIP3   OH2 2582   2.876   3.092   0.589  0.4201  0.4178 -0.7005
  859TIP3    H1 2583   2.950   3.122   0.536  1.4639 -0.6205  0.1251
  859TIP3    H2 2584   2.896   3.123   0.678 -0.3616  0.5204 -0.5570
  860TIP3   OH2 2585   1.858   5.034   2.019 -0.2005 -0.7317 -0.2940
  860TIP3    H1 2586   1.782   5.027   1.961  0.6743 -0.5747 -1.5026
  860TIP3    H2 2587   1.887   5.125   2.009  1.0300 -1.1821 -1.0177
  861TIP3   OH2 2588   1.927   0.587   2.554 -0.2082 -0.3377 -0.2037
  861TIP3    H1 2589   2.017   0.577   2.523 -0.4337 -3.1355 -0.1875
  861TIP3    H2 2590   1.926   0.671   2.600  1.4689  1.4729 -3.1549
  862TIP3   OH2 2591   2.030   2.388   1.479  0.5386  0.6935  0.5012
  862TIP3    H1 2592   2.073   2.308   1.508  2.1083  1.5672  0.6459
  862TIP3    H2 2593   1.953   2.395   1.536  0.1404 -0.8919  0.2305
  863TIP3   OH2 2594   0.414   2.062   1.858 -0.4354  0.0730 -0.2347
  863TIP3    H1 2595   0.408   2.106   1.943  2.1563  1.4774 -0.6751
  863TIP3    H2 2596   0.416   1.969   1.880  2.1723  0.4245  1.5394
  864TIP3   OH2 2597   1.116   2.862   0.171 -0.0736 -0.2941  0.3868
  864TIP3    H1 2598   1.187   2.826   0.117 -1.3661 -3.6258  0.7174
  864TIP3    H2 2599   1.161   2.916   0.236  1.7913  0.9001 -1.7056
  865TIP3   OH2 2600   0.064   3.779   0.014  1.0173  0.2370  0.3644
  865TIP3    H1 2601   0.072   3.683   0.017  0.2028  0.1974  1.8254
  865TIP3    H2 2602   0.142   3.811   0.060  1.1493  0.2707  0.1180
  866TIP3   OH2 2603   4.963   0.311   3.000  0.3640 -0.3911 -0.4672
  866TIP3    H1 2604   4.873   0.318   2.968  0.0798 -0.9148  0.1837
  866TIP3    H2 2605   4.963   0.358   3.083  1.0149  0.6815 -1.0539
  867TIP3   OH2 2606   4.257   5.089   4.367  0.2265  0.1609 -0.2974
  867TIP3    H1 2607   4.284   5.172   4.328 -1.4868  1.0948  0.4070
  867TIP3    H2 2608   4.271   5.100   4.461  0.2549 -0.4555 -0.2237
  868TIP3   OH2 2609   2.318   3.440   3.348 -0.2865  0.4771 -0.3719
  868TIP3    H1 2610   2.292   3.495   3.422 -1.8798 -1.3274  0.5311
  868TIP3    H2 2611   2.304   3.495   3.271 -0.1317  1.8805  0.5598
  869TIP3   OH2 2612   1.789   5.678   3.920 -0.3905 -0.2550 -0.2811
  869TIP3    H1 2613   1.840   5.759   3.909 -0.0772 -0.3504  0.4335
  869TIP3    H2 2614   1.737   5.693   3.999 -1.6874 -0.0536 -1.1553
  870TIP3   OH2 2615   0.114   1.830   4.476  0.2373 -0.1107  0.2096
  870TIP3    H1 2616   0.073   1.863   4.397  0.5637  0.9071  0.4515
  870TIP3    H2 2617   0.171   1.760   4.446  0.0507 -0.0062 -0.4026
  871TIP3   OH2 2618   5.548   3.531   1.092  0.2153  0.0690  0.6608
  871TIP3    H1 2619   5.457   3.547   1.066 -0.5627 -0.1323  2.9791
  871TIP3    H2 2620   5.594   3.514   1.010 -2.2110 -1.6329 -0.4711
  872TIP3   OH2 2621   0.508   1.420   4.368 -0.5485  0.2233 -0.2768
  872TIP3    H1 2622   0.451   1.405   4.292  0.2636  0.7397 -0.9983
  872TIP3    H2 2623   0.554   1.337   4.379  1.3416  0.9341 -2.0818
  873TIP3   OH2 2624   6.285   5.283   2.352 -0.0826 -0.3115 -0.2199
  873TIP3    H1 2625   6.318   5.200   2.318  1.9749  1.0760 -1.8795
  873TIP3    H2 2626   6.364   5.334   2.368 -1.3345  1.9263 -0.8577
  874TIP3   OH2 2627   4.725   1.748   4.715  0.1356 -0.3576 -0.2531
  874TIP3    H1 2628   4.633   1.765   4.737  0.5081  0.5068  0.6946
  874TIP3    H2 2629   4.721   1.706   4.629 -1.1258  0.1135 -0.4501
  875TIP3   OH2 2630   4.358   2.489   3.967 -0.0343 -0.0866 -1.1683
  875TIP3    H1 2631   4.410   2.428   3.914  1.1438  0.0504 -0.1980
  875TIP3    H2 2632   4.374   2.575   3.926  1.9281  0.2197  0.1357
  876TIP3   OH2 2633   1.251   3.892   2.944 -0.1945  0.0468 -0.1185
  876TIP3    H1 2634   1.217   3.943   2.871 -0.0559  0.0118 -0.2074
  876TIP3    H2 2635   1.332   3.937   2.969  1.2744 -1.5008 -1.7826
  877TIP3   OH2 2636   5.161   5.037   4.152 -0.2991  0.8769  0.4553
  877TIP3    H1 2637   5.150   4.942   4.150 -0.4071  0.8660  1.3506
  877TIP3    H2 2638   5.122   5.065   4.235 -0.7383  1.7695 -0.0357
  878TIP3   OH2 2639   1.135   4.456   1.547  0.2573 -0.0167  0.4629
  878TIP3    H1 2640   1.181   4.540   1.542 -1.1888  0.7507 -2.3349
  878TIP3    H2 2641   1.203   4.391   1.533  0.9793  0.9133 -0.6028
  879TIP3   OH2 2642   5.322   0.040   5.133  0.3997 -0.4634  0.2113
  879TIP3    H1 2643   5.376   0.118   5.147 -0.1344 -0.1194  0.3960
  879TIP3    H2 2644   5.327  -0.007   5.217 -0.7655  0.3222  0.7549
  880TIP3   OH2 2645   4.831   2.707   1.246  0.2084  0.2547  0.3263
  880TIP3    H1 2646   4.877   2.625   1.230 -0.5530 -0.4933  1.7905
  880TIP3    H2 2647   4.738   2.684   1.244 -0.0200  1.1010  0.6112
  881TIP3   OH2 2648   2.104   0.179   0.370  0.4352  0.0337 -0.0726
  881TIP3    H1 2649   2.123   0.251   0.310 -1.4112  1.3664  0.8296
  881TIP3    H2 2650   2.080   0.106   0.314 -0.2945  0.9582 -1.0155
  882TIP3   OH2 2651   4.732   2.918   3.679 -0.5329  0.1541 -0.1653
  882TIP3    H1 2652   4.804   2.873   3.723 -0.8825  1.0517  1.4248
  882TIP3    H2 2653   4.704   2.985   3.742 -1.3988  1.1879 -1.5971
  883TIP3   OH2 2654   2.157   5.037   3.471 -0.0191  0.0195  0.0386
  883TIP3    H1 2655   2.220   5.024   3.542 -0.7585  1.1561  0.9363
  883TIP3    H2 2656   2.091   4.969   3.485 -0.6739  0.8557  1.0307
  884TIP3   OH2 2657   4.165   4.721   0.148  0.8118 -0.1928  0.0462
  884TIP3    H1 2658   4.172   4.693   0.240 -0.3806 -1.2362 -0.1529
  884TIP3    H2 2659   4.241   4.777   0.135  1.8237 -1.1921  1.2709
  885TIP3   OH2 2660   1.598   5.192   0.247  0.0582  0.2887 -0.1279
  885TIP3    H1 2661   1.519   5.247   0.251 -0.2714 -0.1466 -0.6110
  885TIP3    H2 2662   1.664   5.242   0.295 -0.3759  0.8825 -0.1388
  886TIP3   OH2 2663   5.370   3.569   2.390  0.3687 -0.2474 -0.1476
  886TIP3    H1 2664   5.337   3.544   2.476  0.1446  2.3568  0.5986
  886TIP3    H2 2665   5.462   3.592   2.405  1.0260 -2.0351 -1.1215
  887TIP3   OH2 2666   4.004   1.164   3.103 -0.1045 -0.1803  0.5754
  887TIP3    H1 2667   3.956   1.213   3.170  1.1227  1.6153  0.1947
  887TIP3    H2 2668   4.084   1.215   3.088  0.8024 -1.8396 -0.5076
  888TIP3   OH2 2669   3.894   4.385   4.900 -0.4406  0.4284 -0.4873
  888TIP3    H1 2670   3.915   4.464   4.850 -0.3910 -0.1965 -1.4850
  888TIP3    H2 2671   3.808   4.358   4.867 -0.2636 -0.1669 -0.4712
  889TIP3   OH2 2672   1.812   5.294   1.776 -0.0210  0.0332 -0.1049
  889TIP3    H1 2673   1.835   5.234   1.704 -0.1530  0.8445 -0.8373
  889TIP3    H2 2674   1.896   5.316   1.816 -0.0185 -1.1226  0.5887
  890TIP3   OH2 2675   3.348   2.236   0.325 -0.0506  0.5807  0.0485
  890TIP3    H1 2676   3.255   2.224   0.340  0.0755 -0.1776  0.2482
  890TIP3    H2 2677   3.353   2.295   0.250 -0.6829  1.1264  0.4223
  891TIP3   OH2 2678   0.468   3.898   4.886  0.2022  0.0505  0.4331
  891TIP3    H1 2679   0.561   3.884   4.869 -0.0454  0.0175 -1.0319
  891TIP3    H2 2680   0.440   3.820   4.933  0.8923  0.0195  0.8023
  892TIP3   OH2 2681   4.793   4.322   1.965 -0.1148 -0.1201 -0.0455
  892TIP3    H1 2682   4.856   4.256   1.934  1.3975  1.1683  0.1902
  892TIP3    H2 2683   4.778   4.298   2.056  0.2677 -0.2609 -0.0151
  893TIP3   OH2 2684   2.877   0.402   2.052 -0.0382 -0.0584  0.6429
  893TIP3    H1 2685   2.889   0.496   2.054 -0.7983  0.0519  0.5105
  893TIP3    H2 2686   2.784   0.389   2.072 -0.7766 -0.5834 -2.5437
  894TIP3   OH2 2687   5.630   5.843   1.773 -0.4836  0.2242 -0.1067
  894TIP3    H1 2688   5.661   5.753   1.759  1.2785  0.4153  2.0831
  894TIP3    H2 2689   5.541   5.832   1.806 -0.2598 -0.7333  0.2262
  895TIP3   OH2 2690   3.030   0.165   0.062  0.1146 -0.2016  0.3866
  895TIP3    H1 2691   3.019   0.261   0.062 -0.8999 -0.2768 -1.6087
  895TIP3    H2 2692   3.026   0.141   0.155  1.8786  1.8188  1.0650
  896TIP3   OH2 2693   1.057   0.064   5.105 -0.1213  0.3379  0.2258
  896TIP3    H1 2694   1.029   0.152   5.081 -1.0600  0.0091  0.0698
  896TIP3    H2 2695   0.991   0.034   5.167 -0.5252 -0.7278 -0.6805
  897TIP3   OH2 2696   1.565   0.339   0.506  0.6050  0.1313  0.0046
  897TIP3    H1 2697   1.570   0.354   0.601  1.2000  1.3525 -0.2052
  897TIP3    H2 2698   1.613   0.257   0.493 -0.8588 -0.9331  0.9290
  898TIP3   OH2 2699   0.531   5.305   2.143 -0.6962 -0.0323 -0.4019
  898TIP3    H1 2700   0.563   5.360   2.071 -1.3148 -0.1585 -0.7817
  898TIP3    H2 2701   0.545   5.359   2.221 -1.0844  0.5822 -0.7423
  899TIP3   OH2 2702   5.560   3.226   0.222 -0.0268 -0.0954 -0.5815
  899TIP3    H1 2703   5.511   3.277   0.286 -0.2785  0.1266 -0.9430
  899TIP3    H2 2704   5.535   3.264   0.137  1.4750  0.6646 -0.7302
  900TIP3   OH2 2705   3.389   2.419   1.716 -0.3334 -0.0617  0.0921
  900TIP3    H1 2706   3.374   2.421   1.810 -0.3575  1.0174  0.0726
  900TIP3    H2 2707   3.421   2.506   1.694  0.7898 -0.6497 -0.7245
  901TIP3   OH2 2708   3.403   2.896   2.262  0.1501  0.1550 -0.1601
  901TIP3    H1 2709   3.407   2.871   2.354 -0.5841  0.4773 -0.0374
  901TIP3    H2 2710   3.492   2.924   2.241 -0.2858  2.9783  1.2812
  902TIP3   OH2 2711   4.627   0.135   2.052  0.3151  0.3817 -0.2376
  902TIP3    H1 2712   4.589   0.223   2.056 -2.3269 -0.7130  0.1098
  902TIP3    H2 2713   4.641   0.110   2.143 -0.0637 -0.0142 -0.2865
  903TIP3   OH2 2714   1.201   5.568   2.911  0.2078 -0.4539 -0.1107
  903TIP3    H1 2715   1.160   5.632   2.969  1.8096 -0.7559  1.4485
  903TIP3    H2 2716   1.147   5.569   2.832 -1.3585  0.8503  0.9105
  904TIP3   OH2 2717   5.592   2.411   0.610  0.3957 -0.0078  0.1090
  904TIP3    H1 2718   5.594   2.420   0.515 -0.9290  0.8407  0.1374
  904TIP3    H2 2719   5.679   2.439   0.638  0.9828 -0.7936 -0.8840
  905TIP3   OH2 2720   1.639   1.880   1.005 -0.1274 -0.1781 -0.1967
  905TIP3    H1 2721   1.691   1.881   1.085  0.7371 -0.0870 -0.7477
  905TIP3    H2 2722   1.573   1.811   1.020  2.0461 -2.5062 -0.6439
  906TIP3   OH2 2723   1.112   5.916   1.630 -0.1107 -0.3580  0.1294
  906TIP3    H1 2724   1.050   5.982   1.661 -0.9745 -1.4062  0.6999
  906TIP3    H2 2725   1.178   5.911   1.699  0.2631  0.2845 -0.1700
  907TIP3   OH2 2726   1.947   2.013   3.896  0.2680 -0.0085  0.7446
  907TIP3    H1 2727   1.948   2.108   3.884 -1.0683  0.1354  1.5475
  907TIP3    H2 2728   2.004   1.998   3.972  1.5383 -0.0136 -0.1724
  908TIP3   OH2 2729   1.743   2.066   5.101  0.3210  0.3346  0.3889
  908TIP3    H1 2730   1.800   2.142   5.094 -1.4666  1.9105  2.0160
  908TIP3    H2 2731   1.736   2.049   5.195 -0.1880 -1.1856  0.1106
  909TIP3   OH2 2732   1.685   3.566   4.216 -0.3522 -0.1829 -0.4716
  909TIP3    H1 2733   1.770   3.599   4.188 -0.2461  1.3417  1.4164
  909TIP3    H2 2734   1.697   3.544   4.308 -2.1613  0.7854  0.0559
  910TIP3   OH2 2735   3.166   1.037   2.896 -0.1595  0.4528  0.0885
  910TIP3    H1 2736   3.111   1.035   2.975 -0.4153  0.5146 -0.0870
  910TIP3    H2 2737   3.253   1.012   2.927 -0.9572 -3.2766 -0.1977
  911TIP3   OH2 2738   0.534   3.893   1.224  0.1331  0.1994  0.1279
  911TIP3    H1 2739   0.604   3.832   1.199  1.0806  0.8727  1.0782
  911TIP3    H2 2740   0.576   3.979   1.223 -1.4221  1.0414 -2.1874
  912TIP3   OH2 2741   5.344   2.132   3.418 -0.2600  0.2765 -0.0265
  912TIP3    H1 2742   5.351   2.038   3.430 -1.6096 -0.2812 -2.7322
  912TIP3    H2 2743   5.415   2.169   3.471  0.7299 -2.2852  0.5697
  913TIP3   OH2 2744   1.642   4.921   2.619 -0.8145 -0.2472  0.0947
  913TIP3    H1 2745   1.733   4.906   2.645 -0.1253  0.2658 -1.8663
  913TIP3    H2 2746   1.621   5.008   2.651  0.4393  0.9020 -2.0133
  914TIP3   OH2 2747   2.631   0.329   2.592  0.3320 -0.3882 -0.7560
  914TIP3    H1 2748   2.646   0.375   2.509 -2.4661  0.3006 -1.0094
  914TIP3    H2 2749   2.548   0.366   2.624  1.5119 -0.3380  2.5891
  915TIP3   OH2 2750   4.181   5.842   0.939  0.1094  0.4945  0.0339
  915TIP3    H1 2751   4.090   5.845   0.908 -1.1630 -2.1072  2.9835
  915TIP3    H2 2752   4.192   5.925   0.987 -0.2186  1.4099 -1.4064
  916TIP3   OH2 2753   6.253   2.380   2.547  0.2180 -0.5361 -0.2221
  916TIP3    H1 2754   6.233   2.426   2.466  2.8421 -0.9000 -1.1799
  916TIP3    H2 2755   6.193   2.306   2.548  1.3431 -1.6142 -2.8942
  917TIP3   OH2 2756   4.562   2.889   0.048 -0.8714  0.7766 -0.0536
  917TIP3    H1 2757   4.623   2.843   0.106 -0.8308 -0.0088 -0.7040
  917TIP3    H2 2758   4.586   2.981   0.057  0.8058  0.4392 -0.7117
  918TIP3   OH2 2759  -0.004   0.146   2.109  1.0706  0.0943  1.0070
  918TIP3    H1 2760   0.065   0.089   2.074  1.2623  1.5979 -1.3005
  918TIP3    H2 2761   0.014   0.232   2.070 -1.4441  0.8148  1.2645
  919TIP3   OH2 2762   6.066   5.849   1.234 -0.1013  0.1240 -0.1164
  919TIP3    H1 2763   6.097   5.763   1.205  0.0714  0.1117  0.1072
  919TIP3    H2 2764   6.037   5.835   1.324 -0.2766  0.2526 -0.1519
  920TIP3   OH2 2765   6.086   4.921   1.232 -0.5314  0.1185  0.0714
  920TIP3    H1 2766   6.048   4.900   1.318  0.3393 -1.3805  0.1342
  920TIP3    H2 2767   6.042   4.861   1.172  0.2415 -0.2181 -0.1782
  921TIP3   OH2 2768   5.759   0.874   1.351 -0.4196  0.2824 -0.0553
  921TIP3    H1 2769   5.758   0.898   1.259  0.1015  0.6372  0.0290
  921TIP3    H2 2770   5.719   0.787   1.354  1.7651 -0.8224 -0.9381
  922TIP3   OH2 2771   4.604   5.083   1.831  0.1530  0.0323 -0.5291
  922TIP3    H1 2772   4.613   5.052   1.741 -2.7202  0.3778 -1.0413
  922TIP3    H2 2773   4.534   5.028   1.868 -0.1033  1.2214  0.8286
  923TIP3   OH2 2774   0.813   5.745   0.107 -0.1343  0.1009 -0.3437
  923TIP3    H1 2775   0.770   5.777   0.027  2.2153  0.8168 -1.4137
  923TIP3    H2 2776   0.901   5.781   0.103  0.9191 -2.0538  1.2389
  924TIP3   OH2 2777   2.947   4.838   0.329  0.3413  0.2115 -0.4613
  924TIP3    H1 2778   2.911   4.915   0.285  0.6088  0.8075  0.3431
  924TIP3    H2 2779   3.036   4.864   0.355  0.8372 -0.7396 -1.1206
  925TIP3   OH2 2780   3.027   3.503   4.094  0.3355  0.0150 -0.3683
  925TIP3    H1 2781   2.947   3.551   4.074 -0.3423 -0.5058  1.0092
  925TIP3    H2 2782   3.031   3.499   4.189  2.2940  0.4852 -0.3780
  926TIP3   OH2 2783   3.452   1.915   2.797  0.3703  0.2316  0.0190
  926TIP3    H1 2784   3.402   1.872   2.728  0.3366 -0.0269  0.2022
  926TIP3    H2 2785   3.457   1.850   2.867  0.7396  0.3514  0.1061
  927TIP3   OH2 2786   1.758   5.456   2.218 -0.2186 -0.6479 -0.3257
  927TIP3    H1 2787   1.836   5.502   2.186  0.4478 -2.0004 -0.7425
  927TIP3    H2 2788   1.736   5.499   2.300  2.8619 -2.1389  1.4580
  928TIP3   OH2 2789   1.699   5.481   0.160 -0.0516  0.0937  0.2175
  928TIP3    H1 2790   1.748   5.441   0.231  0.5488  0.4625  0.0188
  928TIP3    H2 2791   1.712   5.576   0.171  0.8900  0.1233 -0.9553
  929TIP3   OH2 2792   4.194   2.712   4.133  0.0976  0.4213 -0.2188
  929TIP3    H1 2793   4.229   2.699   4.044 -0.4792 -1.0904 -0.2503
  929TIP3    H2 2794   4.257   2.772   4.174  2.4793 -1.7505 -0.4486
  930TIP3   OH2 2795   0.598   4.389   1.861  0.2236 -0.8662  0.0494
  930TIP3    H1 2796   0.637   4.311   1.898 -0.8557 -0.6181  1.8198
  930TIP3    H2 2797   0.654   4.461   1.889 -0.0332 -0.7808  0.3507
  931TIP3   OH2 2798   0.506   2.884   2.904 -0.2770 -0.0635 -0.9076
  931TIP3    H1 2799   0.478   2.804   2.860 -2.3725  0.7105 -1.0702
  931TIP3    H2 2800   0.462   2.882   2.989 -0.3395  0.9101 -0.9040
  932TIP3   OH2 2801   4.267   0.492   2.836  0.1712  0.1649  0.2766
  932TIP3    H1 2802   4.246   0.580   2.806  0.8040  0.5355  0.9061
  932TIP3    H2 2803   4.353   0.473   2.799 -1.0541 -1.2604 -2.1029
  933TIP3   OH2 2804   4.652   4.533   0.972  0.1460 -0.1219  0.7517
  933TIP3    H1 2805   4.599   4.454   0.968 -1.8748  1.2045 -0.0746
  933TIP3    H2 2806   4.721   4.519   0.907 -0.2372 -1.1693  0.5559
  934TIP3   OH2 2807   5.040   0.497   4.942  0.3323  0.1625 -0.2228
  934TIP3    H1 2808   4.951   0.487   4.908  0.4081 -1.5555  0.0078
  934TIP3    H2 2809   5.084   0.554   4.879 -1.2301  2.0364  0.2857
  935TIP3   OH2 2810   2.080   4.682  -0.019  0.1506 -0.0242 -0.3239
  935TIP3    H1 2811   2.042   4.735   0.051  0.8264 -1.0165  0.8030
  935TIP3    H2 2812   2.172   4.674   0.003  0.3297 -0.5604 -1.2091
  936TIP3   OH2 2813   5.120   4.750   4.160 -0.0255  0.4424  0.1508
  936TIP3    H1 2814   5.187   4.683   4.144 -2.1017 -1.3709 -1.7735
  936TIP3    H2 2815   5.101   4.742   4.253  1.8045  0.4293  0.5663
  937TIP3   OH2 2816   1.088   4.182   4.081  0.6145  0.5119  0.9195
  937TIP3    H1 2817   1.101   4.087   4.092 -1.0143  0.0960 -0.3007
  937TIP3    H2 2818   1.163   4.211   4.029  0.4734 -0.3699  0.1925
  938TIP3   OH2 2819   6.145   3.398   3.052 -0.4482  0.2336  0.6485
  938TIP3    H1 2820   6.086   3.361   3.119 -0.6823 -1.0977 -0.2648
  938TIP3    H2 2821   6.184   3.322   3.010 -1.5130  0.9510 -1.8166
  939TIP3   OH2 2822   1.219   0.360   4.795  0.2911  0.1935  0.0942
  939TIP3    H1 2823   1.288   0.345   4.730 -0.5117 -2.4014 -0.2761
  939TIP3    H2 2824   1.259   0.336   4.879  0.0916 -0.5954 -0.0267
  940TIP3   OH2 2825   4.628   0.924   0.378  0.3365 -0.7291  0.3702
  940TIP3    H1 2826   4.699   0.898   0.318  0.9001 -2.1394  1.5651
  940TIP3    H2 2827   4.655   1.009   0.411  0.8352 -0.6690 -0.1686
  941TIP3   OH2 2828   5.574   2.408   4.203 -0.3136 -0.3975  0.1831
  941TIP3    H1 2829   5.535   2.331   4.161 -1.0495 -0.0835  0.2763
  941TIP3    H2 2830   5.616   2.373   4.282  3.5883 -1.4853 -2.1141
  942TIP3   OH2 2831   4.468   3.275   0.167  0.3805 -0.3731  0.5016
  942TIP3    H1 2832   4.436   3.209   0.229 -0.9492  0.6335  0.9185
  942TIP3    H2 2833   4.498   3.347   0.222  0.0767  0.1394 -0.0055
  943TIP3   OH2 2834   1.054   0.652   1.580 -0.2124 -0.8559  0.1313
  943TIP3    H1 2835   0.979   0.670   1.637  0.6365  1.3989  0.6430
  943TIP3    H2 2836   1.073   0.737   1.540  1.2678 -1.6859 -0.9985
  944TIP3   OH2 2837   4.582   1.396   0.938  0.2648  0.1701 -0.0606
  944TIP3    H1 2838   4.561   1.456   0.866  1.2469 -0.1830 -0.6508
  944TIP3    H2 2839   4.499   1.350   0.955 -0.4068  1.4304  0.1664
  945TIP3   OH2 2840   4.976   1.001   1.019 -0.0786 -0.2783  0.0234
  945TIP3    H1 2841   4.954   1.028   0.930 -0.7869 -3.7811 -1.0270
  945TIP3    H2 2842   5.071   0.986   1.017  0.0356  0.4021  0.1161
  946TIP3   OH2 2843   2.249   3.105   4.786  0.2918  0.2819  0.0775
  946TIP3    H1 2844   2.273   3.017   4.816  0.6213  0.0417 -0.8455
  946TIP3    H2 2845   2.272   3.105   4.693 -1.6586  0.6278 -0.4540
  947TIP3   OH2 2846   0.858   0.262   4.283 -0.0163  0.3432  0.2790
  947TIP3    H1 2847   0.888   0.174   4.261 -0.5357  0.6420 -1.8514
  947TIP3    H2 2848   0.885   0.275   4.374  1.1634 -1.5305  0.2388
  948TIP3   OH2 2849   5.423   5.293   3.826  0.7270  0.3356 -0.0182
  948TIP3    H1 2850   5.423   5.378   3.783  0.6813  0.2629 -0.1636
  948TIP3    H2 2851   5.353   5.298   3.891  0.6141  0.3520 -0.1411
  949TIP3   OH2 2852   0.575   0.357   4.013  0.1224  0.4901  0.1624
  949TIP3    H1 2853   0.489   0.396   4.002 -0.4791 -0.7348  0.3666
  949TIP3    H2 2854   0.579   0.288   3.947  0.5000 -0.2118  0.9071
  950TIP3   OH2 2855   4.256   3.472   0.386  0.4058  0.8274  0.2294
  950TIP3    H1 2856   4.232   3.497   0.298 -0.3859  0.7608  0.4184
  950TIP3    H2 2857   4.176   3.482   0.437  0.2154 -1.3697  0.4540
  951TIP3   OH2 2858   0.986   1.691   1.872  0.0511  0.0915  0.4747
  951TIP3    H1 2859   1.027   1.776   1.888  1.6064 -0.3647 -0.7902
  951TIP3    H2 2860   1.045   1.648   1.810 -1.9228 -0.9658 -0.7779
  952TIP3   OH2 2861   0.613   3.632   1.206 -0.1462 -0.5029  0.6010
  952TIP3    H1 2862   0.612   3.646   1.111  0.6828  0.6513  0.7347
  952TIP3    H2 2863   0.660   3.550   1.218  0.0867 -0.4588  0.0251
  953TIP3   OH2 2864   1.240   3.382   2.591 -0.0218  0.0970 -0.9697
  953TIP3    H1 2865   1.155   3.412   2.561  0.3440  1.9723 -0.2522
  953TIP3    H2 2866   1.295   3.460   2.590  1.4054 -0.8545 -0.3816
  954TIP3   OH2 2867   1.540   3.498   4.849 -0.8483  0.0231  0.6827
  954TIP3    H1 2868   1.522   3.547   4.769  1.6093 -1.1523 -0.6934
  954TIP3    H2 2869   1.464   3.441   4.860 -0.4160 -1.2215 -2.0141
  955TIP3   OH2 2870   1.163   4.911   1.730  0.1424 -0.2298  0.1881
  955TIP3    H1 2871   1.100   4.884   1.796  1.2303  0.4912  1.5790
  955TIP3    H2 2872   1.239   4.855   1.744 -0.0195 -0.8394 -1.2200
  956TIP3   OH2 2873   1.944   4.799   1.925 -0.2145  0.1912  0.0785
  956TIP3    H1 2874   1.928   4.879   1.975 -1.1698  0.4018 -0.5294
  956TIP3    H2 2875   2.003   4.825   1.855  0.5315  0.0592  0.6442
  957TIP3   OH2 2876   0.253   2.735   2.376  0.2793  0.1217  0.3814
  957TIP3    H1 2877   0.314   2.807   2.391  0.3404  0.0021  0.7231
  957TIP3    H2 2878   0.180   2.751   2.435 -1.1092  1.4677 -1.6047
  958TIP3   OH2 2879   5.173   5.452   3.990 -0.0599 -0.3086 -0.0360
  958TIP3    H1 2880   5.082   5.457   4.019 -0.3127  0.0719 -0.8635
  958TIP3    H2 2881   5.181   5.520   3.922  1.0400  0.1810  0.5479
  959TIP3   OH2 2882   4.480   5.802   4.320  0.5796 -0.0133  0.0472
  959TIP3    H1 2883   4.549   5.843   4.268  1.1682 -0.2257  0.6494
  959TIP3    H2 2884   4.504   5.821   4.410  0.3189 -0.8267  0.2949
  960TIP3   OH2 2885   4.312   0.437   2.056  0.0706  0.1001  0.3348
  960TIP3    H1 2886   4.286   0.528   2.072  0.7414  0.6116 -1.2863
  960TIP3    H2 2887   4.272   0.416   1.972  1.5097 -0.4568 -0.2321
  961TIP3   OH2 2888   2.369   0.953   0.267  0.3811 -0.3007 -0.2253
  961TIP3    H1 2889   2.428   0.930   0.338 -1.2137 -0.0043  1.2739
  961TIP3    H2 2890   2.373   0.878   0.207  0.5346 -1.3246  1.0181
  962TIP3   OH2 2891   4.220   4.413   0.300  0.1510  0.1795 -0.6435
  962TIP3    H1 2892   4.181   4.487   0.345 -1.1327 -1.0497  0.3448
  962TIP3    H2 2893   4.309   4.407   0.337 -0.2348  0.3475  0.3331
  963TIP3   OH2 2894   1.793   5.881   2.646  0.1967  0.1374  0.2646
  963TIP3    H1 2895   1.815   5.950   2.708  0.6641  0.1471  0.0944
  963TIP3    H2 2896   1.875   5.833   2.633 -0.2798 -0.8959  0.9362
  964TIP3   OH2 2897   1.172   1.113  -0.003  0.5226 -0.5198 -0.3121
  964TIP3    H1 2898   1.257   1.094   0.036 -0.1135 -1.7323  0.5785
  964TIP3    H2 2899   1.112   1.052   0.041 -1.2697  1.9946  0.9353
  965TIP3   OH2 2900   2.528   3.528   2.751 -0.3250 -0.4336 -0.3050
  965TIP3    H1 2901   2.549   3.479   2.830 -2.4780  0.4108  0.8833
  965TIP3    H2 2902   2.464   3.473   2.704 -0.4570 -0.1179 -0.5023
  966TIP3   OH2 2903   6.065   2.033   2.994 -0.4252 -0.0115  0.0196
  966TIP3    H1 2904   6.110   1.959   3.036  1.1010  1.0990  0.4383
  966TIP3    H2 2905   6.125   2.107   3.007 -2.1245  1.4073  0.0346
  967TIP3   OH2 2906   1.690   1.231   3.115 -0.1199  0.3574  0.3475
  967TIP3    H1 2907   1.733   1.212   3.031 -1.1707  1.0227 -0.3592
  967TIP3    H2 2908   1.620   1.165   3.122 -0.7801  1.0242  0.1307
  968TIP3   OH2 2909   3.186   1.553   4.584 -0.1262 -0.4582 -0.1033
  968TIP3    H1 2910   3.187   1.640   4.544 -1.8104 -0.7789 -0.9417
  968TIP3    H2 2911   3.279   1.529   4.592  0.3263  0.8201 -1.1644
  969TIP3   OH2 2912   1.635   2.046   4.779  0.0900  0.1779 -0.1636
  969TIP3    H1 2913   1.697   2.116   4.800 -0.9657  1.4143 -0.9830
  969TIP3    H2 2914   1.663   2.013   4.694 -0.1026  0.4352 -0.3295
  970TIP3   OH2 2915   1.413   2.269   4.083  0.7330 -0.5683 -0.6388
  970TIP3    H1 2916   1.363   2.278   4.164  2.1269 -0.1049  0.2025
  970TIP3    H2 2917   1.415   2.175   4.066 -1.0524 -0.5497 -1.1246
  971TIP3   OH2 2918   3.522   5.123   0.752 -0.8144  0.0298  0.1708
  971TIP3    H1 2919   3.461   5.191   0.725 -0.5645  0.8589  1.5632
  971TIP3    H2 2920   3.588   5.170   0.804  0.6210 -0.9472 -0.7046
  972TIP3   OH2 2921   0.134   2.385   4.290 -0.2334 -0.5803  0.2459
  972TIP3    H1 2922   0.149   2.327   4.365  0.6633 -0.6823 -0.0061
  972TIP3    H2 2923   0.085   2.331   4.228 -0.3127 -0.7362  0.4417
  973TIP3   OH2 2924   0.220   2.239   0.331  0.5757  0.3559  0.0196
  973TIP3    H1 2925   0.297   2.255   0.275  0.7954 -1.5631 -0.2851
  973TIP3    H2 2926   0.148   2.230   0.269  0.3233  0.8593  0.2333
  974TIP3   OH2 2927   2.315   2.961   4.248 -0.1973  0.4721  0.2198
  974TIP3    H1 2928   2.274   3.034   4.200 -0.7610  0.1011  0.1261
  974TIP3    H2 2929   2.405   2.958   4.216 -0.7648 -0.2622 -1.4110
  975TIP3   OH2 2930   3.699   1.901   1.807  0.2591  0.2602 -0.2353
  975TIP3    H1 2931   3.672   1.836   1.742 -0.3843  0.1180  0.1681
  975TIP3    H2 2932   3.745   1.851   1.874  1.0412  0.4254 -0.6413
  976TIP3   OH2 2933   3.557   5.272   1.871 -0.3887 -0.2807  0.1098
  976TIP3    H1 2934   3.475   5.223   1.877  0.2985 -1.5781 -0.6568
  976TIP3    H2 2935   3.595   5.265   1.959 -0.4773 -0.8139  0.1084
  977TIP3   OH2 2936   0.094   0.220   3.448  0.5044  0.1278 -0.3992
  977TIP3    H1 2937   0.107   0.126   3.438 -1.0305 -0.2398  0.6329
  977TIP3    H2 2938   0.000   0.233   3.431  0.0010  0.9576  2.4919
  978TIP3   OH2 2939   5.286   2.991   3.076 -0.0547 -0.5609  0.1671
  978TIP3    H1 2940   5.368   3.004   3.124 -0.7138 -0.3937  1.2736
  978TIP3    H2 2941   5.290   3.055   3.005 -1.5697  3.5098  3.3267
  979TIP3   OH2 2942   1.831   4.671   4.313  0.3306 -0.3744  0.0841
  979TIP3    H1 2943   1.793   4.583   4.303 -1.1875  0.1453  0.8653
  979TIP3    H2 2944   1.778   4.712   4.382  0.0020  1.6873 -1.3013
  980TIP3   OH2 2945   4.875   1.468   0.937 -0.3694 -0.1713 -0.1295
  980TIP3    H1 2946   4.798   1.412   0.929 -1.2227  0.7567  1.1756
  980TIP3    H2 2947   4.929   1.426   1.004 -2.2581  1.7720  2.8667
  981TIP3   OH2 2948   1.197   0.163   1.360 -0.0273 -0.4540 -0.6631
  981TIP3    H1 2949   1.136   0.229   1.327  0.8885  0.4103 -0.6588
  981TIP3    H2 2950   1.283   0.195   1.335  0.6063 -0.4690  1.3557
  982TIP3   OH2 2951   3.679   2.868   0.100  0.5517 -0.1871  0.2250
  982TIP3    H1 2952   3.619   2.931   0.138 -0.9554 -3.3242  3.6296
  982TIP3    H2 2953   3.625   2.814   0.042  1.4585  0.4734 -1.3173
  983TIP3   OH2 2954   2.496   4.656   1.528  0.0819  0.3472 -0.2187
  983TIP3    H1 2955   2.460   4.600   1.597  0.9137 -1.4710 -1.1767
  983TIP3    H2 2956   2.419   4.681   1.476 -0.6008  2.0474  1.5122
  984TIP3   OH2 2957   6.116   1.563   0.953  0.1932 -0.5644 -0.2108
  984TIP3    H1 2958   6.050   1.607   0.900  0.4059 -0.2983 -0.2617
  984TIP3    H2 2959   6.066   1.508   1.013 -0.0781 -0.3082 -0.1974
  985TIP3   OH2 2960   0.561   3.368   4.743  0.0349 -0.0827  0.0564
  985TIP3    H1 2961   0.642   3.396   4.701  0.6259  0.1880  1.3376
  985TIP3    H2 2962   0.572   3.274   4.757  0.1913 -0.0265  0.3321
  986TIP3   OH2 2963   1.361   2.367   4.910  0.3783  0.1069  0.1288
  986TIP3    H1 2964   1.360   2.308   4.834 -0.5367  0.1586  0.0926
  986TIP3    H2 2965   1.330   2.313   4.983 -1.5790  0.8033 -0.1282
  987TIP3   OH2 2966   6.335   1.178   2.383 -0.4065  0.3413  0.0042
  987TIP3    H1 2967   6.395   1.209   2.315 -0.9269 -0.7515 -0.9828
  987TIP3    H2 2968   6.325   1.084   2.366 -1.6232  0.3101  0.7454
  988TIP3   OH2 2969   5.735   3.820   3.710 -0.2535  0.1614 -0.9369
  988TIP3    H1 2970   5.678   3.773   3.649 -0.7300  1.4090 -1.4898
  988TIP3    H2 2971   5.676   3.854   3.777  0.1220 -0.2388 -0.3957
  989TIP3   OH2 2972   1.673   4.824   0.371  0.0552 -0.2362  0.6395
  989TIP3    H1 2973   1.638   4.752   0.424 -1.8073  0.6219  0.6506
  989TIP3    H2 2974   1.761   4.839   0.406  1.2834 -3.6303 -0.5130
  990TIP3   OH2 2975   4.798   2.941   5.100  0.0439  0.4275  0.5914
  990TIP3    H1 2976   4.755   2.867   5.143 -1.2201  0.8441  0.0738
  990TIP3    H2 2977   4.777   3.016   5.155  1.4605  0.4108  1.2069
  991TIP3   OH2 2978   0.681   1.438   1.082 -0.0992  0.3578  0.1415
  991TIP3    H1 2979   0.689   1.350   1.119 -0.7732  0.0716 -0.3732
  991TIP3    H2 2980   0.639   1.489   1.151  0.4109  0.3158  0.4907
  992TIP3   OH2 2981   5.261   1.559   0.218 -0.2298  0.6108  0.1179
  992TIP3    H1 2982   5.320   1.487   0.240 -0.5660  0.9752  2.5314
  992TIP3    H2 2983   5.318   1.627   0.184  0.9541  1.1723  2.9191
  993TIP3   OH2 2984   4.119   3.466   4.702  0.6682 -0.6971 -0.4338
  993TIP3    H1 2985   4.204   3.480   4.661 -0.1946 -1.0542 -2.4268
  993TIP3    H2 2986   4.075   3.401   4.647 -1.1735 -0.0001  0.1137
  994TIP3   OH2 2987   4.927   2.442   4.798  0.3505  0.2919 -0.3918
  994TIP3    H1 2988   4.916   2.349   4.816 -1.3417  0.8919  2.2784
  994TIP3    H2 2989   4.993   2.471   4.862  0.2095  1.0693 -0.5869
  995TIP3   OH2 2990   2.543   2.585   3.419  0.4298 -0.3884 -0.4187
  995TIP3    H1 2991   2.607   2.656   3.424  0.0294  0.0473 -1.1402
  995TIP3    H2 2992   2.485   2.600   3.493  0.5246 -0.1391 -0.3916
  996TIP3   OH2 2993   0.258   3.499   0.697  0.0839 -0.1239  0.2519
  996TIP3    H1 2994   0.335   3.443   0.693  0.4114  0.4024 -1.1793
  996TIP3    H2 2995   0.185   3.441   0.674 -0.0762 -0.7448  2.0824
  997TIP3   OH2 2996   1.031   3.031   2.821  0.9049 -0.3424 -0.0475
  997TIP3    H1 2997   1.123   3.044   2.843  0.7960 -1.3551  1.1734
  997TIP3    H2 2998   0.992   2.994   2.901 -0.6045  0.2443 -0.4702
  998TIP3   OH2 2999   1.250   1.442   0.699 -0.0463  0.3005 -0.4747
  998TIP3    H1 3000   1.216   1.394   0.623 -0.5454  0.6697 -0.4893
  998TIP3    H2 3001   1.176   1.495   0.728 -0.7251 -1.7649  1.8854
  999TIP3   OH2 3002   0.687   2.478   4.396 -0.0861  0.0742 -0.9379
  999TIP3    H1 3003   0.596   2.450   4.409  0.0484 -0.2732 -0.7428
  999TIP3    H2 3004   0.683   2.536   4.320 -0.7740  1.4877  0.1225
 1000TIP3   OH2 3005   3.012   4.276   2.099  0.2379  0.3369  0.4337
 1000TIP3    H1 3006   2.936   4.241   2.146  0.5425 -0.3690  0.4008
 1000TIP3    H2 3007   3.071   4.202   2.088  0.6175  0.7160 -0.1823
 1001TIP3   OH2 3008   3.068   1.533   0.841  0.2252 -0.7761 -0.3364
 1001TIP3    H1 3009   3.093   1.441   0.844  0.1871 -0.7658  0.3674
 1001TIP3    H2 3010   3.149   1.580   0.860 -0.4476 -0.7634  3.2161
 1002TIP3   OH2 3011   4.956   1.841   0.053 -0.2697  1.3137 -0.3562
 1002TIP3    H1 3012   4.882   1.807   0.003 -0.1221  0.7560 -0.1993
 1002TIP3    H2 3013   4.941   1.810   0.142  0.8399  0.0462 -0.5715
 1003TIP3   OH2 3014   4.379   2.233   3.144  0.5898  0.6553  0.2918
 1003TIP3    H1 3015   4.351   2.145   3.172  0.6334  0.2444 -0.9186
 1003TIP3    H2 3016   4.423   2.219   3.060 -1.0001  2.0260 -0.8312
 1004TIP3   OH2 3017   0.856   3.442   4.291  0.0226  0.0299  0.1479
 1004TIP3    H1 3018   0.856   3.380   4.218  2.0361  0.8756 -0.6331
 1004TIP3    H2 3019   0.820   3.523   4.254  1.7493  0.6936 -0.1915
 1005TIP3   OH2 3020   5.921   0.666   0.348  0.6672 -0.1042 -0.2168
 1005TIP3    H1 3021   5.927   0.571   0.351  2.1748 -0.0723 -1.1407
 1005TIP3    H2 3022   5.956   0.695   0.432  0.2088 -0.3587  0.0639
 1006TIP3   OH2 3023   0.779   1.539   3.200 -0.7976  0.4691  0.4906
 1006TIP3    H1 3024   0.847   1.607   3.204  0.2587 -0.4437 -0.9511
 1006TIP3    H2 3025   0.802   1.487   3.123 -2.5046 -0.5610  0.6294
 1007TIP3   OH2 3026   3.379   5.037   2.895 -0.4294 -0.6585 -0.1647
 1007TIP3    H1 3027   3.297   4.987   2.889  0.1742 -1.7744  0.5343
 1007TIP3    H2 3028   3.408   5.046   2.804 -0.1299 -2.3383 -0.2670
 1008TIP3   OH2 3029   4.300   1.177   4.682 -0.2742  0.3037 -0.3158
 1008TIP3    H1 3030   4.347   1.215   4.756 -1.0141 -0.6741  0.7056
 1008TIP3    H2 3031   4.361   1.182   4.609  0.6845  0.7873  0.4936
 1009TIP3   OH2 3032   2.638   1.015   4.509  0.6903 -0.1448  0.2747
 1009TIP3    H1 3033   2.653   0.933   4.461 -0.3714 -0.4439  0.4317
 1009TIP3    H2 3034   2.723   1.034   4.549  0.8580 -1.4013  0.5824
 1010TIP3   OH2 3035   3.487   3.314   3.667  0.0057  0.0261  0.4286
 1010TIP3    H1 3036   3.507   3.284   3.756  0.6253 -0.4243  0.1409
 1010TIP3    H2 3037   3.439   3.242   3.627  0.4665 -0.1181  0.1243
 1011TIP3   OH2 3038   1.593   4.711   4.739  0.5287 -0.3437 -0.3854
 1011TIP3    H1 3039   1.575   4.740   4.828 -0.4527  0.4985 -0.8368
 1011TIP3    H2 3040   1.523   4.650   4.719 -0.6785  1.2887 -1.3883
 1012TIP3   OH2 3041   3.216   0.704   4.364 -0.3161  0.0783 -0.2679
 1012TIP3    H1 3042   3.218   0.799   4.376  0.3284  0.2522 -1.6031
 1012TIP3    H2 3043   3.224   0.691   4.270 -3.6445 -1.2461 -0.5072
 1013TIP3   OH2 3044   3.509   4.964   2.342 -0.0159  0.2137 -0.3460
 1013TIP3    H1 3045   3.441   4.914   2.297  0.2250  0.2465 -0.7491
 1013TIP3    H2 3046   3.493   5.055   2.318 -0.3178  0.3111  0.2082
 1014TIP3   OH2 3047   1.731   0.236   3.233  0.2336  0.0707 -0.3633
 1014TIP3    H1 3048   1.663   0.301   3.212 -1.7479 -1.6655  0.2726
 1014TIP3    H2 3049   1.703   0.156   3.188  2.2243 -0.5471 -0.5746
 1015TIP3   OH2 3050   1.994   5.771   4.394  0.0194 -0.7773 -0.4308
 1015TIP3    H1 3051   2.022   5.800   4.308  3.6866  1.1057  1.1891
 1015TIP3    H2 3052   1.921   5.829   4.417  0.0468 -0.2633 -1.6097
 1016TIP3   OH2 3053   6.146   4.126   1.255 -0.1008  0.4670  0.0630
 1016TIP3    H1 3054   6.098   4.048   1.283  1.8673 -0.2383  1.7271
 1016TIP3    H2 3055   6.090   4.200   1.280 -1.0608 -0.3506  0.3636
 1017TIP3   OH2 3056   2.342   5.305   1.058  0.0391  0.3472 -0.0530
 1017TIP3    H1 3057   2.397   5.383   1.055  0.7477 -0.1364 -0.0088
 1017TIP3    H2 3058   2.365   5.256   0.979 -0.5707  0.2929 -0.2040
 1018TIP3   OH2 3059   3.472   4.177   1.382  0.5635  0.1330  0.5889
 1018TIP3    H1 3060   3.549   4.223   1.414  1.9830  0.0776 -2.4272
 1018TIP3    H2 3061   3.475   4.187   1.287 -1.4698 -2.4868  0.1235
 1019TIP3   OH2 3062   3.151   0.311   3.083  0.0858 -0.4264 -0.6162
 1019TIP3    H1 3063   3.240   0.283   3.062  0.4030 -0.8251  1.0880
 1019TIP3    H2 3064   3.134   0.384   3.024  0.2410 -2.4495 -3.3385
 1020TIP3   OH2 3065   3.553   4.080   3.704 -0.5146 -0.2809 -0.0429
 1020TIP3    H1 3066   3.573   4.173   3.694 -1.8621 -0.1774 -2.4263
 1020TIP3    H2 3067   3.617   4.035   3.650 -0.5437 -0.6767  0.2427
 1021TIP3   OH2 3068   4.495   0.977   0.769  0.3771  0.2318  0.1838
 1021TIP3    H1 3069   4.514   1.071   0.762  1.3617  0.0412  0.2154
 1021TIP3    H2 3070   4.580   0.934   0.760  0.1813 -0.5846  1.8146
 1022TIP3   OH2 3071   2.924   0.983   0.945  0.0796  0.1314 -0.3208
 1022TIP3    H1 3072   2.963   0.895   0.952  0.9640  0.4410 -1.0859
 1022TIP3    H2 3073   2.926   1.002   0.851 -0.8616  0.6475 -0.2461
 1023TIP3   OH2 3074   2.049   1.329   3.948 -1.1262 -0.5031 -0.6291
 1023TIP3    H1 3075   2.065   1.253   3.892 -0.4616 -0.9018  0.0821
 1023TIP3    H2 3076   2.097   1.310   4.029  1.7233  1.9936 -1.5037
 1024TIP3   OH2 3077   4.578   3.473   0.886 -0.0527  0.1813 -0.2021
 1024TIP3    H1 3078   4.492   3.439   0.860  1.0980 -1.9728 -1.5025
 1024TIP3    H2 3079   4.586   3.556   0.838 -1.7526  0.9237  0.6977
 1025TIP3   OH2 3080   2.493   3.898   4.430  0.0955  0.0432 -0.0783
 1025TIP3    H1 3081   2.451   3.943   4.504  0.8674  2.2345 -0.8970
 1025TIP3    H2 3082   2.569   3.854   4.468  0.4769  1.1417  0.4685
 1026TIP3   OH2 3083   4.870   4.492   0.844  0.6150  0.0806  0.5701
 1026TIP3    H1 3084   4.900   4.507   0.755 -0.4849 -0.5150  0.0767
 1026TIP3    H2 3085   4.925   4.421   0.877  0.4957 -0.2434  0.0755
 1027TIP3   OH2 3086   1.013   5.246   4.249  0.4455  0.4039 -0.2745
 1027TIP3    H1 3087   0.971   5.232   4.335  0.5483  0.0414 -0.2834
 1027TIP3    H2 3088   0.943   5.284   4.195  0.8069  2.1656  0.4136
 1028TIP3   OH2 3089   3.251   2.003   3.319 -0.1250 -0.0868 -0.6895
 1028TIP3    H1 3090   3.157   2.006   3.340  0.0195 -0.6738  0.1009
 1028TIP3    H2 3091   3.293   2.051   3.390  0.1809  0.1053 -0.9995
 1029TIP3   OH2 3092   2.013   0.408   0.524 -0.3410 -0.4597 -0.6341
 1029TIP3    H1 3093   2.022   0.328   0.473 -1.1540 -1.1502  0.2530
 1029TIP3    H2 3094   1.932   0.395   0.574  0.0702  0.4763  0.3109
 1030TIP3   OH2 3095   1.497   3.158   3.424  0.0938 -0.1234  0.7878
 1030TIP3    H1 3096   1.498   3.197   3.511 -1.2790  2.5547 -0.2851
 1030TIP3    H2 3097   1.406   3.129   3.412  0.7161 -2.3534  0.9248
 1031TIP3   OH2 3098   4.303   1.786   2.101 -0.3731 -0.4701 -0.0474
 1031TIP3    H1 3099   4.251   1.854   2.144  3.8935  2.1350  1.6742
 1031TIP3    H2 3100   4.292   1.802   2.007 -1.9979  0.4067  0.2636
 1032TIP3   OH2 3101   0.370   4.953   5.208  0.4280 -0.2699 -0.1386
 1032TIP3    H1 3102   0.331   4.978   5.125 -0.8469 -1.5700  0.0142
 1032TIP3    H2 3103   0.394   4.861   5.196  2.3799  0.1528  0.1950
 1033TIP3   OH2 3104   0.920   0.176   0.417 -0.3346  0.3260 -0.2342
 1033TIP3    H1 3105   0.933   0.082   0.412  0.6141  0.4883 -1.1939
 1033TIP3    H2 3106   1.005   0.214   0.395 -0.3835  1.4131  1.2643
 1034TIP3   OH2 3107   6.158   2.214   1.190 -0.0513 -0.6128  0.4139
 1034TIP3    H1 3108   6.184   2.142   1.248 -0.2020 -0.5795  0.5244
 1034TIP3    H2 3109   6.065   2.228   1.209 -0.2752 -1.0538 -0.3290
 1035TIP3   OH2 3110   0.117   0.116   0.289 -0.5084  0.6103  0.5827
 1035TIP3    H1 3111   0.056   0.047   0.263 -0.8989  1.1940 -0.0718
 1035TIP3    H2 3112   0.149   0.152   0.206  1.6707 -0.4949  0.8710
 1036TIP3   OH2 3113   1.173   5.874   4.818  0.0902 -0.8661 -0.0065
 1036TIP3    H1 3114   1.214   5.821   4.886  0.0093 -2.3870 -1.0888
 1036TIP3    H2 3115   1.229   5.862   4.741  0.3086  0.9995 -0.1702
 1037TIP3   OH2 3116   3.741   2.705   3.785  0.0786 -1.0023 -0.1703
 1037TIP3    H1 3117   3.817   2.668   3.740  0.0110 -2.3105  0.7575
 1037TIP3    H2 3118   3.689   2.630   3.810 -1.4525 -0.1251 -0.6137
 1038TIP3   OH2 3119   4.034   5.571   1.707  0.1002  0.1051  0.0234
 1038TIP3    H1 3120   3.957   5.626   1.690  0.3878 -0.0314 -1.9315
 1038TIP3    H2 3121   4.065   5.546   1.620  2.6488  0.5324  0.7365
 1039TIP3   OH2 3122   0.313   3.799   0.139 -0.0002  0.0090  0.7420
 1039TIP3    H1 3123   0.334   3.892   0.146 -0.1070  0.0091  1.0791
 1039TIP3    H2 3124   0.329   3.764   0.227 -1.1178 -0.0444  0.9445
 1040TIP3   OH2 3125   1.995   3.935   2.414  0.4349 -0.5558 -0.1891
 1040TIP3    H1 3126   1.900   3.936   2.430  0.6843  0.1882  1.4990
 1040TIP3    H2 3127   2.013   4.021   2.377  0.6012 -0.1959  0.6927
 1041TIP3   OH2 3128   5.439   5.523   0.935 -0.1268 -0.4322 -0.3445
 1041TIP3    H1 3129   5.433   5.564   1.021  0.8724  0.7832 -0.8227
 1041TIP3    H2 3130   5.368   5.458   0.934 -1.4740  0.9427  0.6296
 1042TIP3   OH2 3131   2.572   6.015   2.308  0.1341 -0.2567  0.0125
 1042TIP3    H1 3132   2.498   5.992   2.364  0.7321  3.0237  2.4434
 1042TIP3    H2 3133   2.644   5.961   2.341  0.4851  1.6182  2.6850
 1043TIP3   OH2 3134   1.778   3.059   2.512  0.6034 -0.0406  0.2628
 1043TIP3    H1 3135   1.743   3.043   2.599  0.6305  2.4742  0.8024
 1043TIP3    H2 3136   1.713   3.113   2.469  1.2844  0.0003 -0.7512
 1044TIP3   OH2 3137   2.780   1.719   4.465  0.0345  0.1103 -0.8024
 1044TIP3    H1 3138   2.733   1.643   4.498 -0.0069  0.4698 -0.0076
 1044TIP3    H2 3139   2.810   1.765   4.544  3.9359 -1.4429 -1.1574
 1045TIP3   OH2 3140   3.094   4.623   3.651  0.5865 -0.1690  0.0207
 1045TIP3    H1 3141   3.126   4.594   3.737  0.6869 -0.1789 -0.0205
 1045TIP3    H2 3142   3.106   4.547   3.594  1.6832  0.2368 -0.3095
 1046TIP3   OH2 3143   3.422   2.954   1.734 -0.2203  0.0274 -0.5376
 1046TIP3    H1 3144   3.412   2.922   1.824 -0.8600  0.9224 -0.2740
 1046TIP3    H2 3145   3.379   2.888   1.680  0.6012 -0.7635 -0.2385
 1047TIP3   OH2 3146   1.483   5.848   4.380 -0.0686  0.1674  0.1979
 1047TIP3    H1 3147   1.464   5.904   4.305  2.6509  1.4772  0.3834
 1047TIP3    H2 3148   1.492   5.760   4.343 -0.6583  0.4659 -0.6873
 1048TIP3   OH2 3149   4.150   4.921   5.063 -0.1033  0.4805  0.1533
 1048TIP3    H1 3150   4.188   4.861   5.128 -1.2548  0.2790  0.6790
 1048TIP3    H2 3151   4.105   4.864   5.001 -1.3909  0.7747  0.7783
 1049TIP3   OH2 3152   3.317   4.892   4.779 -0.0945 -0.3547  0.6402
 1049TIP3    H1 3153   3.306   4.982   4.810 -1.7450 -0.7308  1.2522
 1049TIP3    H2 3154   3.294   4.838   4.854  1.0141 -1.2962  0.3139
 1050TIP3   OH2 3155   6.173   3.317   0.481 -0.3238 -0.5603 -0.1387
 1050TIP3    H1 3156   6.171   3.225   0.505  0.8151 -1.5859 -3.4577
 1050TIP3    H2 3157   6.081   3.344   0.482 -1.0554 -2.6778 -2.0672
 1051TIP3   OH2 3158   3.483   1.029   3.759 -0.3709 -0.0409  0.0000
 1051TIP3    H1 3159   3.492   1.119   3.727  0.6687 -0.1530 -0.0713
 1051TIP3    H2 3160   3.504   1.035   3.852 -4.2285  0.4375  1.0150
 1052TIP3   OH2 3161   1.926   0.918   3.931  0.8354  0.0280 -0.4152
 1052TIP3    H1 3162   1.876   0.839   3.953  0.6271  0.3991  0.5235
 1052TIP3    H2 3163   1.996   0.920   3.996 -0.2071  1.5422  0.7540
 1053TIP3   OH2 3164   4.767   4.383   0.477  0.4627 -0.0890 -0.4700
 1053TIP3    H1 3165   4.794   4.383   0.385 -0.4014  0.4962 -0.7440
 1053TIP3    H2 3166   4.677   4.415   0.475 -0.1661 -1.7262  0.4300
 1054TIP3   OH2 3167   2.350   0.856   4.281  0.0788  0.6996  0.3208
 1054TIP3    H1 3168   2.361   0.775   4.233  0.2412  0.8361  0.1262
 1054TIP3    H2 3169   2.376   0.835   4.371  0.0322  0.5147  0.2907
 1055TIP3   OH2 3170   0.189   0.978   1.434 -0.0934  0.9005  0.1552
 1055TIP3    H1 3171   0.175   0.884   1.439 -1.8722  1.1762  1.0030
 1055TIP3    H2 3172   0.197   0.996   1.340  0.7175 -0.1341  0.0139
 1056TIP3   OH2 3173   3.156   3.833   3.898 -0.0735 -0.0261  0.5912
 1056TIP3    H1 3174   3.242   3.846   3.858 -0.1999 -0.5244  0.1513
 1056TIP3    H2 3175   3.095   3.879   3.841 -0.1620 -0.1000  0.6251
 1057TIP3   OH2 3176   4.960   3.282   4.839 -0.4341 -0.7970  0.4967
 1057TIP3    H1 3177   5.019   3.220   4.881 -0.0647 -0.1016  1.0473
 1057TIP3    H2 3178   4.937   3.343   4.909  1.0979  1.0772 -0.5113
 1058TIP3   OH2 3179   2.094   4.417   1.108 -0.2182  0.0194 -0.3967
 1058TIP3    H1 3180   2.021   4.437   1.166  0.2713 -2.0451  1.0568
 1058TIP3    H2 3181   2.172   4.424   1.164  0.6234  1.1703 -1.6500
 1059TIP3   OH2 3182   2.902   3.646   3.429 -0.0906  0.0499  0.2411
 1059TIP3    H1 3183   2.933   3.618   3.515 -0.2342 -1.0104 -0.0337
 1059TIP3    H2 3184   2.911   3.741   3.429  0.8549 -0.0317  1.0550
 1060TIP3   OH2 3185   4.922   1.253   4.114  0.2804 -0.1208 -0.4088
 1060TIP3    H1 3186   5.012   1.219   4.115 -0.3228 -1.8715  2.0005
 1060TIP3    H2 3187   4.875   1.195   4.054  0.4318 -0.1857 -0.4652
 1061TIP3   OH2 3188   0.775   1.998   3.379 -0.5408  0.2084  0.7151
 1061TIP3    H1 3189   0.814   1.912   3.361 -1.5688 -0.1408  0.0691
 1061TIP3    H2 3190   0.805   2.052   3.306 -0.3299  0.2599  0.8379
 1062TIP3   OH2 3191   2.529   3.807   5.077 -0.3493  0.2669  0.4614
 1062TIP3    H1 3192   2.501   3.885   5.028 -1.4801 -0.5593 -0.2892
 1062TIP3    H2 3193   2.604   3.773   5.028 -1.0266 -0.1482 -0.3173
 1063TIP3   OH2 3194   0.797   5.730   3.749  0.0553 -0.1872  0.3127
 1063TIP3    H1 3195   0.837   5.816   3.737  0.2221 -0.1683  0.9425
 1063TIP3    H2 3196   0.806   5.686   3.665  0.3735  0.2482  0.1214
 1064TIP3   OH2 3197   1.386   3.054   1.051 -0.3110 -0.6532 -0.6321
 1064TIP3    H1 3198   1.291   3.044   1.041 -0.1787 -1.8577 -0.9053
 1064TIP3    H2 3199   1.421   2.967   1.032  0.8102 -0.3707  0.0224
 1065TIP3   OH2 3200   3.622   3.807   0.779  0.1754  0.5453 -0.0947
 1065TIP3    H1 3201   3.590   3.730   0.825  1.3909  0.0954  0.0212
 1065TIP3    H2 3202   3.700   3.777   0.733 -0.4756  1.2232 -1.6863
 1066TIP3   OH2 3203   5.065   1.155   3.846  0.3169 -0.2420  0.7110
 1066TIP3    H1 3204   5.030   1.243   3.830  0.8775  0.0491  1.0621
 1066TIP3    H2 3205   4.989   1.098   3.841 -0.1698  0.3500  1.1919
 1067TIP3   OH2 3206   3.585   1.261   2.977  0.6664 -0.3112 -0.4279
 1067TIP3    H1 3207   3.538   1.310   2.910  0.5457 -1.5248 -1.2635
 1067TIP3    H2 3208   3.545   1.174   2.976  0.1317 -0.1533  1.7656
 1068TIP3   OH2 3209   2.584   5.462   1.464 -0.3567 -0.5274 -0.4891
 1068TIP3    H1 3210   2.633   5.442   1.544 -0.7657 -2.1704 -0.6089
 1068TIP3    H2 3211   2.577   5.378   1.418 -0.4682  0.3025 -2.0766
 1069TIP3   OH2 3212   4.458   2.169   2.894 -0.4762 -0.6454  0.1736
 1069TIP3    H1 3213   4.497   2.242   2.846 -1.5187  1.4633  2.3082
 1069TIP3    H2 3214   4.526   2.141   2.955 -1.0068  0.6282  1.4146
 1070TIP3   OH2 3215   0.717   2.438   3.570 -0.0702  0.0782 -0.6217
 1070TIP3    H1 3216   0.716   2.376   3.643 -2.1191  0.3147 -0.3784
 1070TIP3    H2 3217   0.759   2.516   3.605  2.0227 -0.9272 -0.7548
 1071TIP3   OH2 3218   0.498   5.791   1.206  0.1521 -0.0558  0.1065
 1071TIP3    H1 3219   0.440   5.780   1.131  0.8334  3.3583 -1.0680
 1071TIP3    H2 3220   0.565   5.724   1.194 -0.1833 -0.0878 -1.9380
 1072TIP3   OH2 3221   4.788   1.513   4.878 -0.0300 -0.6154  0.6892
 1072TIP3    H1 3222   4.736   1.442   4.840 -0.3950 -1.0988  2.0546
 1072TIP3    H2 3223   4.752   1.593   4.839  0.9291 -1.1742 -1.5036
 1073TIP3   OH2 3224   4.642   2.043   3.037  0.0130  0.7101 -0.2651
 1073TIP3    H1 3225   4.710   2.110   3.029 -0.9965  2.0379  1.5087
 1073TIP3    H2 3226   4.689   1.966   3.070  0.8359  1.2291 -0.1851
 1074TIP3   OH2 3227   1.870   1.337   3.352 -0.0442  0.1594 -0.4527
 1074TIP3    H1 3228   1.944   1.279   3.334 -0.9172 -1.2429  0.2183
 1074TIP3    H2 3229   1.833   1.304   3.434 -0.6049  1.6755 -0.0631
 1075TIP3   OH2 3230   2.317   4.153   1.878 -0.1295 -0.6086  0.2864
 1075TIP3    H1 3231   2.256   4.222   1.905  1.4378  0.5543  0.9746
 1075TIP3    H2 3232   2.321   4.162   1.783 -0.3136 -0.0827  0.3232
 1076TIP3   OH2 3233   1.159   3.590   0.622  0.2930 -0.0962  0.0290
 1076TIP3    H1 3234   1.077   3.555   0.589  0.1014 -0.0966  0.4910
 1076TIP3    H2 3235   1.210   3.513   0.647  1.0046 -0.1625 -1.5475
 1077TIP3   OH2 3236   2.771   3.867   2.116  0.2318  0.1383 -0.2403
 1077TIP3    H1 3237   2.843   3.805   2.112  1.0238  0.9965  0.1937
 1077TIP3    H2 3238   2.701   3.821   2.161  0.3394 -0.8634 -1.0697
 1078TIP3   OH2 3239   3.678   0.502   1.206  0.6896 -0.4611  0.0353
 1078TIP3    H1 3240   3.714   0.416   1.228  0.2074 -0.4662  0.8324
 1078TIP3    H2 3241   3.651   0.540   1.290  1.7511  0.8655 -0.1884
 1079TIP3   OH2 3242   4.561   3.626   3.740 -0.3070 -0.3634 -0.1999
 1079TIP3    H1 3243   4.485   3.597   3.689  0.2099  0.9599 -1.8277
 1079TIP3    H2 3244   4.632   3.632   3.676  0.8771 -0.4727  1.0678
 1080TIP3   OH2 3245   1.981   4.790   2.948  0.6154  1.0536 -0.0977
 1080TIP3    H1 3246   1.914   4.767   3.012  1.3708  0.6807  0.5878
 1080TIP3    H2 3247   2.000   4.882   2.965  0.4096  1.1095 -0.1701
 1081TIP3   OH2 3248   3.930   2.616   2.481 -0.3621  0.1014  0.0067
 1081TIP3    H1 3249   4.020   2.597   2.507  0.2741  1.9241 -0.6695
 1081TIP3    H2 3250   3.876   2.580   2.551  0.8986 -0.7702  0.5657
 1082TIP3   OH2 3251   3.270   3.329   2.382 -0.0919 -0.1688 -0.0497
 1082TIP3    H1 3252   3.298   3.278   2.459 -0.4279 -1.2022 -0.5939
 1082TIP3    H2 3253   3.351   3.365   2.347 -0.0573  1.5205  1.5864
 1083TIP3   OH2 3254   3.594   4.914   0.239  0.3576  0.1071 -0.1066
 1083TIP3    H1 3255   3.505   4.893   0.212  0.4098  0.6353 -0.7114
 1083TIP3    H2 3256   3.596   4.893   0.332 -0.2671 -0.3299 -0.1845
 1084TIP3   OH2 3257   3.418   0.350   2.935  0.7169  0.1366 -0.1420
 1084TIP3    H1 3258   3.474   0.289   2.984 -0.2392 -0.4377  0.2834
 1084TIP3    H2 3259   3.422   0.431   2.986  0.5831 -0.1286  0.3045
 1085TIP3   OH2 3260   5.169   2.864   1.733 -0.3050 -0.0977 -0.3587
 1085TIP3    H1 3261   5.213   2.944   1.762 -0.2834 -0.7532  1.5842
 1085TIP3    H2 3262   5.078   2.890   1.721 -0.3330  0.2097  0.4296
 1086TIP3   OH2 3263   2.467   1.424   2.978 -0.0800 -0.1309  0.5003
 1086TIP3    H1 3264   2.522   1.379   2.913  0.6217  1.2335  0.1079
 1086TIP3    H2 3265   2.449   1.357   3.044 -1.5077 -1.8158 -1.4531
 1087TIP3   OH2 3266   6.014   1.977   0.364 -0.0350 -0.0151  0.2411
 1087TIP3    H1 3267   6.058   1.921   0.301 -0.8009 -0.1290 -0.1970
 1087TIP3    H2 3268   6.012   2.064   0.323  0.5024  0.1747  0.6079
 1088TIP3   OH2 3269   4.284   5.318   0.547 -0.8127 -0.2381  0.1447
 1088TIP3    H1 3270   4.287   5.410   0.521 -1.7098 -0.5207 -1.0947
 1088TIP3    H2 3271   4.347   5.275   0.490  0.0485 -0.3142  1.1376
 1089TIP3   OH2 3272   2.320   3.493   1.576  0.2189 -0.1097  0.5838
 1089TIP3    H1 3273   2.389   3.560   1.584 -0.7876  0.8837  1.2095
 1089TIP3    H2 3274   2.337   3.433   1.648  2.3039 -1.6941 -1.1160
 1090TIP3   OH2 3275   3.345   0.884   4.835 -0.2257  0.5037  0.1113
 1090TIP3    H1 3276   3.428   0.838   4.838 -0.1666  0.6305  0.3927
 1090TIP3    H2 3277   3.307   0.859   4.750  0.1341  0.5111 -0.0553
 1091TIP3   OH2 3278   3.441   2.400   3.051  0.4026  0.6154  0.2025
 1091TIP3    H1 3279   3.385   2.386   2.974  0.2705  1.0574  0.2154
 1091TIP3    H2 3280   3.457   2.312   3.085 -0.0834  0.4673  0.0557
 1092TIP3   OH2 3281   2.972   5.085   1.246  0.7013  0.0129 -0.0483
 1092TIP3    H1 3282   2.891   5.044   1.217 -0.8641  0.0318  3.6792
 1092TIP3    H2 3283   3.032   5.012   1.263  0.3697 -0.2350  0.0504
 1093TIP3   OH2 3284   4.439   0.856   3.244  0.2650 -0.2362  0.8585
 1093TIP3    H1 3285   4.505   0.799   3.285  0.9010 -0.4265 -0.3652
 1093TIP3    H2 3286   4.478   0.943   3.247  0.8159 -0.4247 -0.3002
 1094TIP3   OH2 3287   5.342   0.159   0.266 -0.5674 -0.0692 -0.0153
 1094TIP3    H1 3288   5.404   0.136   0.335 -0.6431  0.3504  0.1981
 1094TIP3    H2 3289   5.370   0.108   0.190  0.5004  0.6738 -0.1389
 1095TIP3   OH2 3290   3.915   1.774   3.578 -0.4349 -0.2152 -0.4628
 1095TIP3    H1 3291   3.864   1.826   3.516  0.6506  1.3580 -0.0993
 1095TIP3    H2 3292   3.881   1.797   3.664 -0.0500 -0.2124 -0.3074
 1096TIP3   OH2 3293   3.712   5.194   5.056 -0.2209  0.8733  0.2403
 1096TIP3    H1 3294   3.724   5.179   5.150  0.7445  1.2607  0.1893
 1096TIP3    H2 3295   3.639   5.255   5.051 -2.9571 -2.1296  0.5305
 1097TIP3   OH2 3296   1.704   3.994   0.052  0.6113  0.1133 -0.0301
 1097TIP3    H1 3297   1.675   4.084   0.037  0.3082 -0.2040 -1.4992
 1097TIP3    H2 3298   1.702   3.954  -0.035 -2.0049 -2.1427  0.9291
 1098TIP3   OH2 3299   0.541   5.442   1.487 -0.1408 -0.0562 -0.4563
 1098TIP3    H1 3300   0.604   5.375   1.461  0.9454  0.2468  1.2564
 1098TIP3    H2 3301   0.594   5.509   1.530 -1.4951  0.8232 -0.1070
 1099TIP3   OH2 3302   3.676   1.842   0.456  0.2287  0.6540  0.5862
 1099TIP3    H1 3303   3.624   1.914   0.422 -1.8737 -0.7553  0.6428
 1099TIP3    H2 3304   3.764   1.858   0.422 -0.7558  1.8172 -1.6065
 1100TIP3   OH2 3305   3.930   2.660   2.221  0.1273  0.2009  0.2934
 1100TIP3    H1 3306   3.844   2.621   2.204  0.7216 -1.3793  0.7063
 1100TIP3    H2 3307   3.943   2.648   2.315  1.8902 -2.0876 -0.1254
 1101TIP3   OH2 3308   2.360   0.853   2.141 -0.3156  0.5077 -0.1983
 1101TIP3    H1 3309   2.344   0.764   2.169 -0.7801  0.5084 -0.4575
 1101TIP3    H2 3310   2.274   0.895   2.141  0.0518  1.2891  1.0373
 1102TIP3   OH2 3311   3.018   0.613   0.393 -0.7060  0.0045  0.4439
 1102TIP3    H1 3312   2.942   0.562   0.420 -2.0567  1.7212  0.1072
 1102TIP3    H2 3313   2.982   0.698   0.369  0.7088 -0.3194 -3.6718
 1103TIP3   OH2 3314   4.174   4.210   0.677 -0.6682 -0.6105  0.0818
 1103TIP3    H1 3315   4.195   4.153   0.604  0.0386 -0.1041 -0.1210
 1103TIP3    H2 3316   4.090   4.178   0.709 -2.4295  0.8562 -2.6860
 1104TIP3   OH2 3317   2.759   5.920   3.099 -0.1018  0.4001  0.0730
 1104TIP3    H1 3318   2.754   5.826   3.083 -0.2968  0.5074 -0.5394
 1104TIP3    H2 3319   2.841   5.932   3.147 -0.2210 -0.1130  0.4044
 1105TIP3   OH2 3320   0.874   4.772   3.806 -0.4402 -0.4746 -0.0348
 1105TIP3    H1 3321   0.908   4.713   3.874 -1.8779 -0.4561  0.7630
 1105TIP3    H2 3322   0.817   4.832   3.854 -0.5865  0.2795 -1.1256
 1106TIP3   OH2 3323   1.554   0.961   3.371 -0.2298 -0.0027 -0.3735
 1106TIP3    H1 3324   1.543   0.884   3.315  0.8264 -1.2181  1.0169
 1106TIP3    H2 3325   1.597   0.927   3.450  0.0167  1.9793  0.3886
 1107TIP3   OH2 3326   2.610   2.716   5.142  0.0809  0.3149  0.3681
 1107TIP3    H1 3327   2.582   2.699   5.232 -0.4637  1.3896  0.4187
 1107TIP3    H2 3328   2.645   2.805   5.145 -0.4487  0.5572 -0.6030
 1108TIP3   OH2 3329   2.298   2.887   5.145  0.0543 -0.3574 -0.3217
 1108TIP3    H1 3330   2.223   2.901   5.202  0.4385  1.6275 -0.2247
 1108TIP3    H2 3331   2.340   2.807   5.179 -1.9882 -1.5304 -0.4213
 1109TIP3   OH2 3332   1.204   1.386   1.477 -0.2444 -0.2053  0.1310
 1109TIP3    H1 3333   1.146   1.386   1.401 -1.4901  1.2627  1.0239
 1109TIP3    H2 3334   1.146   1.374   1.552  0.6427  0.8367  1.0285
 1110TIP3   OH2 3335   5.345   3.113   2.821 -0.5612 -0.4611  0.0957
 1110TIP3    H1 3336   5.376   3.024   2.835 -0.9481 -0.8535 -1.4330
 1110TIP3    H2 3337   5.331   3.120   2.727 -1.3098  0.9690  0.2794
 1111TIP3   OH2 3338   3.847   2.417   4.929 -0.2229 -0.8413  0.2973
 1111TIP3    H1 3339   3.790   2.352   4.888 -0.2099 -0.1822 -0.8309
 1111TIP3    H2 3340   3.849   2.489   4.866  0.7487 -0.2713  0.9533
 1112TIP3   OH2 3341   0.353   1.686   3.782  0.1561  0.0894  0.0334
 1112TIP3    H1 3342   0.443   1.656   3.774  0.5574  0.9134  1.2251
 1112TIP3    H2 3343   0.359   1.782   3.784 -0.7794  0.1703 -0.2437
 1113TIP3   OH2 3344   5.118   2.496   4.997 -0.3243 -0.8349 -0.3245
 1113TIP3    H1 3345   5.086   2.445   5.072 -1.0337 -2.8696 -1.9066
 1113TIP3    H2 3346   5.099   2.587   5.019  0.7610 -1.1951  2.5435
 1114TIP3   OH2 3347   2.295   3.409   2.094  0.4701  0.5002  0.4052
 1114TIP3    H1 3348   2.375   3.454   2.067 -0.3683  1.9949  0.2956
 1114TIP3    H2 3349   2.301   3.404   2.189  1.4377 -0.9212  0.3112
 1115TIP3   OH2 3350   1.155   2.530   5.063 -0.3429  0.3202  0.0697
 1115TIP3    H1 3351   1.234   2.564   5.021  0.2321 -1.7237 -0.6432
 1115TIP3    H2 3352   1.187   2.493   5.146 -0.5994 -0.1424 -0.0337
 1116TIP3   OH2 3353   1.815   3.899   4.603 -0.0789 -0.0532  0.4675
 1116TIP3    H1 3354   1.731   3.855   4.588 -1.3457  2.4331 -0.3423
 1116TIP3    H2 3355   1.860   3.894   4.519  0.0884 -0.3923  0.5757
 1117TIP3   OH2 3356   4.473   2.829   3.225  0.2418 -0.2930 -0.0298
 1117TIP3    H1 3357   4.544   2.845   3.287  0.7347  0.0726 -0.6746
 1117TIP3    H2 3358   4.482   2.736   3.201  1.6123  0.1537 -1.4274
 1118TIP3   OH2 3359   2.656   4.933   2.985  0.2643  0.1174 -0.1160
 1118TIP3    H1 3360   2.628   4.847   3.015 -1.2553  1.0863  1.4327
 1118TIP3    H2 3361   2.680   4.979   3.065 -0.7052  1.7299 -0.7106
 1119TIP3   OH2 3362   3.383   5.280   3.039  0.3950  0.3321  0.5491
 1119TIP3    H1 3363   3.408   5.238   2.957  1.8198  0.5998  0.8214
 1119TIP3    H2 3364   3.380   5.208   3.103  1.0895  0.3732  0.6377
 1120TIP3   OH2 3365   3.314   1.688   4.014  0.4717  0.6502  0.0567
 1120TIP3    H1 3366   3.393   1.665   3.964  0.0500 -0.0541 -0.3006
 1120TIP3    H2 3367   3.242   1.673   3.953  0.0183  0.7596  0.5602
 1121TIP3   OH2 3368   2.541   2.295   3.420 -0.0563 -0.5623  0.1400
 1121TIP3    H1 3369   2.550   2.246   3.338 -2.3112 -0.4010 -0.2497
 1121TIP3    H2 3370   2.546   2.387   3.394 -0.1322 -0.5169  0.2863
 1122TIP3   OH2 3371   4.016   4.182   1.137 -0.4973 -0.1810 -0.2126
 1122TIP3    H1 3372   3.947   4.202   1.074 -0.5451  2.1195  0.4846
 1122TIP3    H2 3373   3.989   4.223   1.218  0.6072 -1.2328  0.7460
 1123TIP3   OH2 3374   3.377   1.086   3.066 -0.1564 -0.0144  0.1632
 1123TIP3    H1 3375   3.426   1.107   3.145 -0.5844  0.0401  0.4221
 1123TIP3    H2 3376   3.302   1.146   3.067  0.6954  1.1474 -1.1542
 1124TIP3   OH2 3377   0.796   3.299   3.363 -0.1280 -0.0817  0.5853
 1124TIP3    H1 3378   0.889   3.303   3.385 -0.1483 -0.7437  0.8242
 1124TIP3    H2 3379   0.784   3.211   3.328  0.0109  1.0426 -2.6895
 1125TIP3   OH2 3380   1.015   2.395   1.259 -0.0612  0.4629  0.3538
 1125TIP3    H1 3381   1.009   2.300   1.271 -0.0069  0.4108 -0.0356
 1125TIP3    H2 3382   1.027   2.429   1.348  3.0126 -0.1158  0.2711
 1126TIP3   OH2 3383   4.148   2.161   0.851 -0.8186 -0.0416 -0.9269
 1126TIP3    H1 3384   4.069   2.124   0.888 -1.0352  0.0606 -1.2830
 1126TIP3    H2 3385   4.183   2.218   0.920 -0.0471 -1.4901 -0.0708
 1127TIP3   OH2 3386   3.271   2.329   3.674 -0.3000 -0.2709  0.3131
 1127TIP3    H1 3387   3.195   2.277   3.702  0.2106 -1.0092  0.3590
 1127TIP3    H2 3388   3.328   2.266   3.629  0.6889  0.0732  1.0421
 1128TIP3   OH2 3389   4.106   5.107   1.206  0.2814  0.3543  0.5791
 1128TIP3    H1 3390   4.188   5.139   1.242  0.5365  1.0011 -0.5175
 1128TIP3    H2 3391   4.086   5.028   1.256  2.5504 -0.9024 -0.3635
 1129TIP3   OH2 3392   1.245   0.266   0.850 -0.3480 -0.5442 -0.6023
 1129TIP3    H1 3393   1.244   0.207   0.775 -1.3732 -1.8317  0.3735
 1129TIP3    H2 3394   1.267   0.211   0.924  0.1791  0.6098  0.1323
 1130TIP3   OH2 3395   3.538   1.315   3.663 -0.6062 -0.0826 -0.3014
 1130TIP3    H1 3396   3.623   1.316   3.707 -1.3658 -0.5456  1.2191
 1130TIP3    H2 3397   3.553   1.364   3.582  0.6409  1.4983  0.8209
 1131TIP3   OH2 3398   2.047   1.857   2.284 -0.4864 -0.2538  0.6652
 1131TIP3    H1 3399   2.060   1.950   2.303  0.4967 -0.4484  0.9692
 1131TIP3    H2 3400   1.972   1.832   2.338 -0.1381  0.1307  1.3438
 1132TIP3   OH2 3401   3.736   4.833   1.295 -0.3340 -0.0863  0.0500
 1132TIP3    H1 3402   3.724   4.738   1.294  0.2102 -0.1530 -0.2435
 1132TIP3    H2 3403   3.655   4.866   1.334 -1.4678 -0.5446 -1.7419
 1133TIP3   OH2 3404   5.256   3.492   2.615  0.0875  0.0449 -0.6968
 1133TIP3    H1 3405   5.308   3.517   2.692 -1.4264  3.2929 -0.5838
 1133TIP3    H2 3406   5.173   3.461   2.651 -0.4257  1.0584 -0.9932
 1134TIP3   OH2 3407   1.427   1.171   3.313 -0.3203  0.1232  0.2107
 1134TIP3    H1 3408   1.446   1.174   3.219 -0.7304 -0.0753  0.1194
 1134TIP3    H2 3409   1.480   1.098   3.346  1.7533  1.6999  0.5980
 1135TIP3   OH2 3410   5.608   3.135   4.282 -0.3596  0.3194  0.0217
 1135TIP3    H1 3411   5.564   3.167   4.361 -2.5112 -0.9394 -0.5838
 1135TIP3    H2 3412   5.679   3.197   4.267 -0.2223  0.9037  2.6124
 1136TIP3   OH2 3413   2.427   1.244   2.141  0.3316  0.3098 -0.5491
 1136TIP3    H1 3414   2.356   1.214   2.083  1.3757 -1.1277 -1.1294
 1136TIP3    H2 3415   2.395   1.327   2.176 -0.7185  0.8033 -2.5240
 1137TIP3   OH2 3416   0.584   0.099   1.085  0.3812 -1.0274 -0.3649
 1137TIP3    H1 3417   0.659   0.129   1.136 -0.3102  0.8110 -0.3719
 1137TIP3    H2 3418   0.549   0.178   1.045  0.0893 -2.2119 -2.6317
 1138TIP3   OH2 3419   4.563   0.320   1.028  0.1069  0.1873 -0.2814
 1138TIP3    H1 3420   4.561   0.410   1.058 -0.6918 -0.1658  0.7536
 1138TIP3    H2 3421   4.492   0.314   0.964 -1.0242 -0.1358  0.9624
 1139TIP3   OH2 3422   5.353   1.853   4.658  0.4396 -0.5145 -0.4249
 1139TIP3    H1 3423   5.430   1.873   4.711 -0.5141 -0.0412  0.8335
 1139TIP3    H2 3424   5.384   1.791   4.593  1.9486 -0.1070 -0.1226
 1140TIP3   OH2 3425   2.782   0.836   4.367 -0.7146 -0.0021 -0.1737
 1140TIP3    H1 3426   2.847   0.888   4.320 -0.0807 -0.9948 -0.4282
 1140TIP3    H2 3427   2.748   0.775   4.301 -3.7845  2.0801 -0.7652
 1141TIP3   OH2 3428   3.883   1.210   4.798  0.1295  0.4152  0.0018
 1141TIP3    H1 3429   3.866   1.153   4.724 -1.2695 -0.0223  0.6184
 1141TIP3    H2 3430   3.968   1.182   4.832  0.6510  0.4431 -1.2530
 1142TIP3   OH2 3431   1.691   4.007   0.803  0.2376 -0.1911 -0.0685
 1142TIP3    H1 3432   1.747   3.993   0.880 -1.2731 -0.3113  1.0429
 1142TIP3    H2 3433   1.703   3.927   0.751  0.2347 -0.7305  0.7324
 1143TIP3   OH2 3434   1.849   1.015   1.721 -0.5349  0.6166  0.0954
 1143TIP3    H1 3435   1.883   1.036   1.634  0.4854  0.2890  0.4075
 1143TIP3    H2 3436   1.794   1.091   1.744 -2.3401 -0.0915 -1.5871
 1144TIP3   OH2 3437   2.404   4.174   0.168 -0.4765  0.7679  0.3188
 1144TIP3    H1 3438   2.382   4.104   0.230  1.1305  0.9867  1.1944
 1144TIP3    H2 3439   2.409   4.253   0.221  0.2668  1.0783 -0.1922
 1145TIP3   OH2 3440   5.858   0.201   3.114  0.4630  0.2812 -0.1025
 1145TIP3    H1 3441   5.836   0.281   3.162  0.4744  0.1878  0.0571
 1145TIP3    H2 3442   5.938   0.169   3.156  0.5814  0.3023 -0.3052
 1146TIP3   OH2 3443   5.060   2.391   2.760 -0.1981 -0.6283  0.3167
 1146TIP3    H1 3444   5.128   2.361   2.700 -0.6602  0.9061 -1.0105
 1146TIP3    H2 3445   4.980   2.346   2.731  0.1132 -2.1247  1.6316
 1147TIP3   OH2 3446   0.088   2.389   1.199 -0.2697 -0.0837 -0.1494
 1147TIP3    H1 3447   0.117   2.363   1.287  0.0316  0.1177 -0.1916
 1147TIP3    H2 3448   0.025   2.321   1.174 -1.6444  0.7419  0.9102
 1148TIP3   OH2 3449   0.706   4.492   4.345 -0.1532 -0.0479  0.1179
 1148TIP3    H1 3450   0.728   4.429   4.276 -1.5493 -1.1235  0.6000
 1148TIP3    H2 3451   0.611   4.501   4.340 -0.3799 -0.6087  2.2510
 1149TIP3   OH2 3452   1.694   5.059   4.512 -0.7861  0.5685 -0.4725
 1149TIP3    H1 3453   1.685   4.964   4.521 -3.1709  0.8025  0.6914
 1149TIP3    H2 3454   1.762   5.071   4.447  0.3188 -1.9170  0.0958
 1150TIP3   OH2 3455   0.594   5.999   5.049 -0.0695  0.3006  0.5094
 1150TIP3    H1 3456   0.543   6.052   5.110  0.4375 -0.3208  1.4965
 1150TIP3    H2 3457   0.547   5.916   5.044 -0.1469  0.3752 -0.0009
 1151TIP3   OH2 3458   3.287   1.059   1.134  0.3255 -0.1199 -0.2471
 1151TIP3    H1 3459   3.350   1.104   1.191  0.4679 -0.9773  0.2826
 1151TIP3    H2 3460   3.203   1.102   1.153  0.4617 -0.0626  0.2485
 1152TIP3   OH2 3461   0.583   4.899   0.211 -0.4275 -0.0261 -0.9126
 1152TIP3    H1 3462   0.554   4.985   0.241  1.3859 -0.2797  1.9410
 1152TIP3    H2 3463   0.675   4.911   0.188 -0.1412 -1.1605 -0.4564
 1153TIP3   OH2 3464   2.550   1.724   1.922 -0.0703 -0.2252 -0.2752
 1153TIP3    H1 3465   2.609   1.663   1.965  0.9495  1.5469  0.9586
 1153TIP3    H2 3466   2.562   1.708   1.829  2.4593  0.1333 -0.0681
 1154TIP3   OH2 3467   2.684   3.983   0.403 -0.4112 -0.1957  0.5000
 1154TIP3    H1 3468   2.616   3.915   0.404 -0.6182  0.0128  1.0821
 1154TIP3    H2 3469   2.637   4.064   0.423  0.2449 -0.2980  2.7973
 1155TIP3   OH2 3470   2.895   4.533   0.965  0.5943  0.5180 -0.5166
 1155TIP3    H1 3471   2.954   4.467   0.928 -0.6824 -0.4139 -0.9501
 1155TIP3    H2 3472   2.874   4.501   1.052 -1.8112 -0.9261 -1.5184
 1156TIP3   OH2 3473   6.156   2.383   3.975  0.2398 -0.0608 -0.1201
 1156TIP3    H1 3474   6.224   2.323   4.004 -0.4520 -0.8613 -0.1181
 1156TIP3    H2 3475   6.163   2.382   3.879  0.2680 -0.0999 -0.1177
 1157TIP3   OH2 3476   1.239   4.011   4.570 -0.2596 -0.0794  0.2843
 1157TIP3    H1 3477   1.180   4.083   4.591  0.0294  0.0025  0.8276
 1157TIP3    H2 3478   1.280   4.037   4.487 -0.5018  0.1607  0.2392
 1158TIP3   OH2 3479   2.120   5.003   2.276 -0.3270  0.5720 -0.3813
 1158TIP3    H1 3480   2.094   5.094   2.285 -3.5623 -0.3096  0.4781
 1158TIP3    H2 3481   2.199   4.994   2.330 -0.5921  2.5791  0.3993
 1159TIP3   OH2 3482   1.221   1.435   0.124  0.1003  0.6604  0.0047
 1159TIP3    H1 3483   1.289   1.392   0.072 -1.6474 -1.0450 -1.0013
 1159TIP3    H2 3484   1.169   1.483   0.060 -1.8533 -1.1475  0.1583
 1160TIP3   OH2 3485   3.572   4.377   4.137  0.2690  0.1585  0.2651
 1160TIP3    H1 3486   3.659   4.367   4.099  0.2035 -0.4598  0.2752
 1160TIP3    H2 3487   3.587   4.381   4.231  0.1725 -1.5348  0.3860
 1161TIP3   OH2 3488   0.472   5.788   4.936  0.1209  0.0994 -0.1780
 1161TIP3    H1 3489   0.478   5.698   4.968 -1.3038 -0.1061 -0.4233
 1161TIP3    H2 3490   0.511   5.785   4.849 -1.8830 -0.8099 -1.1093
 1162TIP3   OH2 3491   3.330   3.564   4.323  0.0690 -0.1237  0.1337
 1162TIP3    H1 3492   3.311   3.631   4.256  0.9142  0.5386  0.5421
 1162TIP3    H2 3493   3.254   3.505   4.319 -0.8720  1.0466  0.0068
 1163TIP3   OH2 3494   1.880   0.853   0.765  0.7832 -0.2907  0.6260
 1163TIP3    H1 3495   1.883   0.790   0.693  0.7047 -0.6789  0.9568
 1163TIP3    H2 3496   1.896   0.800   0.843  0.5323  0.0715  0.9247
 1164TIP3   OH2 3497  -0.022   5.739   1.706 -0.7456 -0.1995  0.7770
 1164TIP3    H1 3498  -0.028   5.825   1.749  0.6497 -0.0058  0.6209
 1164TIP3    H2 3499   0.060   5.702   1.737  0.3965 -0.0152 -1.7434
 1165TIP3   OH2 3500   0.147   0.477   0.134 -0.1254  0.2169 -0.3357
 1165TIP3    H1 3501   0.199   0.551   0.102  1.6732 -1.0883 -0.6132
 1165TIP3    H2 3502   0.155   0.482   0.229  1.6100 -0.6479 -0.3930
 1166TIP3   OH2 3503   5.209   3.531   3.368  0.2648  0.0896 -0.4007
 1166TIP3    H1 3504   5.215   3.447   3.414 -0.6103  0.7721  1.0361
 1166TIP3    H2 3505   5.277   3.527   3.301  1.0019 -1.3020  0.3913
 1167TIP3   OH2 3506   4.988   5.606   0.235  0.0957 -0.2484 -0.3828
 1167TIP3    H1 3507   5.031   5.546   0.297  0.0535 -0.2257 -0.3314
 1167TIP3    H2 3508   4.924   5.653   0.288  0.9380  0.6929 -0.1659
 1168TIP3   OH2 3509   2.455   2.455   0.846 -1.1174  0.1754 -0.3434
 1168TIP3    H1 3510   2.364   2.449   0.873 -1.4764  0.9096 -1.3162
 1168TIP3    H2 3511   2.486   2.538   0.881 -0.9427  0.1088 -0.3371
 1169TIP3   OH2 3512   5.796   4.292   1.938  0.1675 -0.2034  0.3217
 1169TIP3    H1 3513   5.882   4.322   1.969  0.0843 -0.3849  0.7362
 1169TIP3    H2 3514   5.811   4.202   1.909  0.3449  0.1141 -0.6149
 1170TIP3   OH2 3515   5.924   0.360   4.937  0.0652 -0.2355 -0.0339
 1170TIP3    H1 3516   5.996   0.298   4.927  0.2839  0.0101 -0.0090
 1170TIP3    H2 3517   5.870   0.347   4.859  1.3143  1.0815 -1.1896
 1171TIP3   OH2 3518   4.131   3.150   1.933 -0.1131  0.1387  0.3645
 1171TIP3    H1 3519   4.143   3.211   1.860  0.3221 -0.2161  0.1314
 1171TIP3    H2 3520   4.049   3.176   1.974 -0.5824  0.0667 -0.5177
 1172TIP3   OH2 3521   0.109   5.352   0.765 -0.4618 -0.1946 -0.1057
 1172TIP3    H1 3522   0.105   5.352   0.861  0.1287  2.9368  0.0254
 1172TIP3    H2 3523   0.131   5.261   0.742 -2.3110 -1.4457  2.5722
 1173TIP3   OH2 3524   0.785   2.814   2.481  0.4000 -0.5743 -0.2916
 1173TIP3    H1 3525   0.694   2.840   2.500  1.1229  2.0189  0.0090
 1173TIP3    H2 3526   0.791   2.821   2.386  0.7663  1.3000 -0.1778
 1174TIP3   OH2 3527   5.322   1.560   4.926 -0.1425 -0.3285  0.1571
 1174TIP3    H1 3528   5.348   1.473   4.955 -0.3689 -0.7424 -0.8389
 1174TIP3    H2 3529   5.394   1.617   4.951  2.2312 -1.5589 -3.2670
 1175TIP3   OH2 3530   3.382   3.299   3.980  0.6730 -0.1299  0.0888
 1175TIP3    H1 3531   3.319   3.258   4.039  1.6072  0.4815  1.5652
 1175TIP3    H2 3532   3.338   3.300   3.895 -1.2731  0.2197  1.0469
 1176TIP3   OH2 3533   0.757   3.647   0.635 -0.5588  0.1922 -0.2826
 1176TIP3    H1 3534   0.822   3.678   0.572  1.0080 -0.7481  0.8241
 1176TIP3    H2 3535   0.790   3.674   0.720 -0.6190 -1.8807  0.4613
 1177TIP3   OH2 3536   1.293   2.826   0.805  0.2508 -0.3248 -0.1204
 1177TIP3    H1 3537   1.263   2.739   0.779 -0.3163 -0.0075 -0.5386
 1177TIP3    H2 3538   1.213   2.873   0.829  0.5674  0.0387  0.2480
 1178TIP3   OH2 3539   4.423   2.532   5.090 -0.5718  0.2801 -0.0927
 1178TIP3    H1 3540   4.336   2.552   5.055  0.3664  1.4682 -1.9416
 1178TIP3    H2 3541   4.443   2.445   5.055 -1.5131 -0.5905  1.4464
 1179TIP3   OH2 3542   1.530   3.211   2.524  0.5462 -0.3288 -0.6309
 1179TIP3    H1 3543   1.512   3.171   2.610  1.0228  0.0839 -0.3391
 1179TIP3    H2 3544   1.557   3.300   2.544 -1.3723  0.4733 -1.3192
 1180TIP3   OH2 3545   6.341   1.178   3.344 -0.2257 -0.4372  0.2787
 1180TIP3    H1 3546   6.304   1.118   3.279 -0.7121  1.2277 -1.0435
 1180TIP3    H2 3547   6.385   1.121   3.407 -2.2054 -2.2945  0.0858
 1181TIP3   OH2 3548   1.068   4.223   4.647 -0.2250 -0.6296 -0.1344
 1181TIP3    H1 3549   1.104   4.245   4.733 -2.2917 -0.0853  0.6510
 1181TIP3    H2 3550   1.074   4.305   4.597  2.0076 -1.2238 -0.9676
 1182TIP3   OH2 3551   3.447   5.484   1.610 -0.1950  0.1530  0.2246
 1182TIP3    H1 3552   3.490   5.503   1.693 -1.0708  0.7284  0.5592
 1182TIP3    H2 3553   3.396   5.562   1.590  0.4334  0.2478 -1.1438
 1183TIP3   OH2 3554   2.799   1.745   2.901  0.3091  0.0342  0.3713
 1183TIP3    H1 3555   2.894   1.739   2.892  0.2744 -1.8299  0.8534
 1183TIP3    H2 3556   2.767   1.755   2.811  1.0299  3.3833  0.3548
 1184TIP3   OH2 3557   0.091   4.018   4.461 -0.9038 -0.3633  0.1516
 1184TIP3    H1 3558   0.082   4.049   4.551 -1.7956  1.3488 -0.4966
 1184TIP3    H2 3559   0.011   3.968   4.445 -1.2763  0.2935 -0.0512
 1185TIP3   OH2 3560   4.577   0.186   3.839 -0.2884 -0.0226 -0.0568
 1185TIP3    H1 3561   4.580   0.199   3.934  0.9934 -0.5828  0.0071
 1185TIP3    H2 3562   4.528   0.105   3.827 -1.1121  0.4511  0.0718
 1186TIP3   OH2 3563   5.683   2.001   1.296 -0.0329 -0.6385  0.3392
 1186TIP3    H1 3564   5.670   1.911   1.327  0.8364 -1.3834 -1.3303
 1186TIP3    H2 3565   5.659   1.998   1.203 -0.2090  0.9189  0.3098
 1187TIP3   OH2 3566   5.177   0.633   4.738  1.1059 -0.0574 -0.0719
 1187TIP3    H1 3567   5.145   0.720   4.717  1.6415 -0.0242 -0.7615
 1187TIP3    H2 3568   5.138   0.576   4.672 -0.4012 -0.5940  1.2097
 1188TIP3   OH2 3569   5.513   1.854   2.360  0.2091 -0.0861 -0.3949
 1188TIP3    H1 3570   5.590   1.864   2.304  0.3948  1.0476  0.0340
 1188TIP3    H2 3571   5.535   1.903   2.439  0.5899 -2.8968  1.3997
 1189TIP3   OH2 3572   5.205   2.090   1.834  0.2463  0.1057  0.8745
 1189TIP3    H1 3573   5.268   2.073   1.905  0.3186 -0.5215  0.6665
 1189TIP3    H2 3574   5.260   2.107   1.757  0.1889 -1.1758  0.5163
 1190TIP3   OH2 3575   0.636   1.815   0.940  0.2976  0.2504 -0.0943
 1190TIP3    H1 3576   0.690   1.775   1.008  0.4674  0.3680 -0.1589
 1190TIP3    H2 3577   0.553   1.767   0.944  0.4128  0.0562 -0.0076
 1191TIP3   OH2 3578   4.742   2.229   4.424 -0.0145 -0.8873  0.4961
 1191TIP3    H1 3579   4.778   2.313   4.395 -2.4908 -0.5735 -2.0323
 1191TIP3    H2 3580   4.761   2.169   4.352 -1.6836 -1.4894  0.5322
 1192TIP3   OH2 3581   4.703   2.136   2.017 -0.0726 -0.1253  0.0579
 1192TIP3    H1 3582   4.619   2.114   1.978 -0.9721 -0.6265  2.1529
 1192TIP3    H2 3583   4.735   2.054   2.054 -0.5565  0.7581  2.6381
 1193TIP3   OH2 3584   0.078   2.264   3.138  0.2463 -0.1575 -0.5619
 1193TIP3    H1 3585   0.124   2.185   3.166  1.7042  1.3284  1.5909
 1193TIP3    H2 3586   0.140   2.309   3.081 -0.2443 -0.1687 -1.1095
 1194TIP3   OH2 3587   3.046   2.733   3.383 -0.0596  0.0938  0.6930
 1194TIP3    H1 3588   3.063   2.692   3.468 -1.2736 -0.7215  0.5562
 1194TIP3    H2 3589   3.083   2.672   3.319  0.4452  0.4859  0.6063
 1195TIP3   OH2 3590   1.941   1.299   1.591  0.3906  0.2606 -0.3938
 1195TIP3    H1 3591   1.862   1.281   1.642  0.7666  0.9799  0.4809
 1195TIP3    H2 3592   1.930   1.249   1.510  0.0153 -1.3147  0.6051
 1196TIP3   OH2 3593   1.186   3.989   1.282 -0.3463 -0.1919  0.4899
 1196TIP3    H1 3594   1.112   4.027   1.331  0.2281 -0.2521  1.4352
 1196TIP3    H2 3595   1.256   3.981   1.347  1.3624  2.1510 -0.9045
 1197TIP3   OH2 3596   1.731   4.741   3.775 -0.1225 -0.3475  0.2197
 1197TIP3    H1 3597   1.811   4.694   3.751  0.9112  0.9929  0.8449
 1197TIP3    H2 3598   1.760   4.803   3.842 -1.6316  0.3912  0.2200
 1198TIP3   OH2 3599   2.387   3.413   2.347 -0.1390 -0.1910 -0.0660
 1198TIP3    H1 3600   2.419   3.330   2.383 -1.7656 -0.2512  1.3448
 1198TIP3    H2 3601   2.406   3.477   2.415  2.0386  0.8825 -1.5430
 1199TIP3   OH2 3602   0.344   5.152   4.913  0.4840  0.2102  0.6814
 1199TIP3    H1 3603   0.351   5.247   4.913 -0.1881  0.3259  3.1918
 1199TIP3    H2 3604   0.279   5.133   4.981  1.0386 -2.0664  0.6485
 1200TIP3   OH2 3605   1.040   0.631   3.282 -0.4661 -0.5796 -0.4713
 1200TIP3    H1 3606   0.949   0.612   3.261 -0.7792  0.0701  0.2594
 1200TIP3    H2 3607   1.044   0.727   3.287 -0.2685 -0.6617  1.7177
 1201TIP3   OH2 3608   1.185   4.299   0.612  0.2735  0.0934 -0.3503
 1201TIP3    H1 3609   1.182   4.234   0.682 -0.5923 -0.0639 -0.5225
 1201TIP3    H2 3610   1.138   4.375   0.648 -0.0458  0.0651 -0.7058
 1202TIP3   OH2 3611   6.319   1.060   4.750 -0.5112 -0.0611 -0.3108
 1202TIP3    H1 3612   6.360   1.082   4.833  2.7885  0.8569 -2.0257
 1202TIP3    H2 3613   6.275   1.140   4.723 -1.5629 -0.3510  0.4833
 1203TIP3   OH2 3614   2.326   4.952   2.462  0.0993 -0.4860  0.3678
 1203TIP3    H1 3615   2.314   4.860   2.483 -0.7193  0.0279  2.3642
 1203TIP3    H2 3616   2.398   4.980   2.518 -0.1472  0.2507  0.3269
 1204TIP3   OH2 3617   2.411   2.851   4.869  0.0807 -0.0040  0.0026
 1204TIP3    H1 3618   2.382   2.837   4.959  1.5482 -0.7665  0.3798
 1204TIP3    H2 3619   2.459   2.772   4.846 -0.0647  0.2767 -1.3803
 1205TIP3   OH2 3620   1.065   2.689   3.063  0.0082  0.3027  0.3889
 1205TIP3    H1 3621   0.971   2.706   3.068 -0.3261 -1.6254  3.2580
 1205TIP3    H2 3622   1.072   2.594   3.053  1.6498  0.4004  0.2180
 1206TIP3   OH2 3623   2.895   5.445   1.865 -0.0062 -0.0028 -0.0459
 1206TIP3    H1 3624   2.898   5.540   1.851  0.5576  0.1149  0.7641
 1206TIP3    H2 3625   2.883   5.436   1.959 -0.7727 -0.7406 -0.2133
 1207TIP3   OH2 3626   6.141   0.377   1.411  0.1711  0.1595  0.4762
 1207TIP3    H1 3627   6.101   0.463   1.409  0.3426  0.3844  3.0030
 1207TIP3    H2 3628   6.233   0.392   1.387 -0.0660  0.4685 -0.2545
 1208TIP3   OH2 3629   1.839   2.512   0.795 -0.3184 -0.3995 -0.4761
 1208TIP3    H1 3630   1.768   2.574   0.777  0.8655  0.8814 -0.8800
 1208TIP3    H2 3631   1.810   2.464   0.872 -0.7024  1.5892  0.6749
 1209TIP3   OH2 3632   2.665   0.641   4.635 -0.5782 -0.1879  0.7495
 1209TIP3    H1 3633   2.664   0.616   4.728  0.5569 -0.3047  0.7386
 1209TIP3    H2 3634   2.732   0.708   4.629  0.7517 -1.5365 -0.3060
 1210TIP3   OH2 3635   3.930   5.530   0.333 -0.3974 -0.1949  0.4012
 1210TIP3    H1 3636   3.956   5.451   0.380 -2.8638 -1.7676 -0.6740
 1210TIP3    H2 3637   3.880   5.580   0.398 -1.7570 -1.2190  0.1952
 1211TIP3   OH2 3638   4.180   5.286   3.881  0.3448 -0.2328 -0.0575
 1211TIP3    H1 3639   4.168   5.338   3.960  0.1863 -0.1731 -0.1215
 1211TIP3    H2 3640   4.195   5.197   3.913 -0.1016 -0.2801  0.0264
 1212TIP3   OH2 3641   3.012   5.011   4.358  0.2207 -0.1772  0.3455
 1212TIP3    H1 3642   3.091   5.023   4.410  0.6717 -0.1676 -0.3348
 1212TIP3    H2 3643   3.042   5.013   4.267 -0.5725 -0.0818  0.0776
 1213TIP3   OH2 3644   6.242   1.135   1.402  0.6784 -0.2597  0.2102
 1213TIP3    H1 3645   6.336   1.129   1.383  0.8375  1.3777  0.2969
 1213TIP3    H2 3646   6.236   1.126   1.497  0.5977 -1.6037  0.0950
 1214TIP3   OH2 3647   1.627   3.834   3.679  0.9125  0.0299 -0.1851
 1214TIP3    H1 3648   1.705   3.815   3.731 -0.1975  0.7092  1.8564
 1214TIP3    H2 3649   1.599   3.748   3.647  3.0896 -0.1084 -1.9963
 1215TIP3   OH2 3650   5.007   2.914   2.992  0.2599 -0.1201 -0.1804
 1215TIP3    H1 3651   5.093   2.954   2.977  0.1051  0.6734  0.9386
 1215TIP3    H2 3652   4.998   2.850   2.921  0.9812  1.0578 -1.3825
 1216TIP3   OH2 3653   0.204   1.328   2.245  0.3697 -0.7979 -0.4776
 1216TIP3    H1 3654   0.251   1.298   2.167  2.3564  0.1430  0.2797
 1216TIP3    H2 3655   0.196   1.422   2.235  0.0780 -0.7443  0.1661
 1217TIP3   OH2 3656   0.858   1.286   4.549  0.1934 -0.5833 -0.0769
 1217TIP3    H1 3657   0.842   1.253   4.637 -1.0860  0.8252  0.2764
 1217TIP3    H2 3658   0.876   1.379   4.561 -0.6091 -0.2394 -1.3290
 1218TIP3   OH2 3659   5.129   4.273   1.680  0.0401 -0.3855  0.0088
 1218TIP3    H1 3660   5.126   4.190   1.728 -0.8481  0.7481  2.0488
 1218TIP3    H2 3661   5.141   4.247   1.589 -1.2590 -2.8268  0.4283
 1219TIP3   OH2 3662   0.721   4.090   3.901  0.1178  0.1369 -0.3231
 1219TIP3    H1 3663   0.752   4.109   3.813 -0.8616  1.3897 -0.4302
 1219TIP3    H2 3664   0.800   4.071   3.951  0.8098  0.6702 -1.1890
 1220TIP3   OH2 3665   5.305   2.438   3.211  0.5193 -0.1127  0.3047
 1220TIP3    H1 3666   5.300   2.523   3.167  0.1022 -0.5895 -0.5942
 1220TIP3    H2 3667   5.367   2.388   3.159 -0.5622 -0.9490 -0.2183
 1221TIP3   OH2 3668   3.699   5.393   2.913 -0.7145  0.1943 -0.8232
 1221TIP3    H1 3669   3.675   5.351   2.830  0.6798 -1.7828 -0.2977
 1221TIP3    H2 3670   3.768   5.456   2.889  0.4023 -1.0819 -1.0849
 1222TIP3   OH2 3671   2.496   4.364   2.782  0.0469 -0.2260 -0.0182
 1222TIP3    H1 3672   2.506   4.460   2.782  0.4628 -0.2078 -2.1770
 1222TIP3    H2 3673   2.404   4.349   2.804  0.2005  0.6043  1.2880
 1223TIP3   OH2 3674   3.716   5.064   4.826 -0.0580  0.0319  0.0660
 1223TIP3    H1 3675   3.627   5.066   4.791 -0.0896 -0.1354  0.1367
 1223TIP3    H2 3676   3.710   5.108   4.911 -0.4089 -1.4558  0.8359
 1224TIP3   OH2 3677   3.462   2.274   0.606  0.1936  0.1942 -0.4766
 1224TIP3    H1 3678   3.428   2.253   0.519  1.0177  0.1250 -0.7857
 1224TIP3    H2 3679   3.523   2.346   0.592  2.0067 -1.2475 -0.2797
 1225TIP3   OH2 3680   5.382   1.828   3.436 -0.6103  0.0471 -0.2789
 1225TIP3    H1 3681   5.400   1.806   3.527 -1.9312 -0.1281 -0.0288
 1225TIP3    H2 3682   5.372   1.743   3.392 -0.9931  0.1292 -0.3554
 1226TIP3   OH2 3683  -0.009   1.422   4.827  0.2429 -0.1467 -0.2173
 1226TIP3    H1 3684   0.079   1.417   4.864  1.1036  0.4703 -2.0677
 1226TIP3    H2 3685  -0.001   1.382   4.741 -1.7011 -1.5571  0.1863
 1227TIP3   OH2 3686   3.664   4.340   1.491 -0.2113  0.0901  0.3961
 1227TIP3    H1 3687   3.709   4.377   1.567 -0.4147  0.2856  0.4228
 1227TIP3    H2 3688   3.728   4.348   1.419  1.0256 -2.5030  1.0661
 1228TIP3   OH2 3689   1.303   2.224   4.348 -0.3129  0.7431  0.2279
 1228TIP3    H1 3690   1.226   2.251   4.298 -0.6727 -0.3355  0.1778
 1228TIP3    H2 3691   1.300   2.277   4.428 -0.0377  2.0814 -0.6079
 1229TIP3   OH2 3692   2.278   1.772   0.257 -0.0028  0.0790  0.5431
 1229TIP3    H1 3693   2.197   1.801   0.301 -1.6364 -0.9541 -1.5858
 1229TIP3    H2 3694   2.309   1.699   0.310 -1.3948 -0.5535  0.5367
 1230TIP3   OH2 3695   4.229   3.946   4.580  0.3098  0.8410  0.3926
 1230TIP3    H1 3696   4.305   3.896   4.551  0.4544  1.2571  0.0468
 1230TIP3    H2 3697   4.178   3.962   4.500 -0.5371 -0.0883  0.7286
 1231TIP3   OH2 3698   3.625   1.270   2.650  0.2374 -0.0277 -0.4478
 1231TIP3    H1 3699   3.700   1.326   2.629 -0.1725  0.6398 -0.1775
 1231TIP3    H2 3700   3.571   1.324   2.709 -0.3134 -0.6001 -0.4205
 1232TIP3   OH2 3701   5.324   1.711   0.886  0.0910 -0.0334 -0.4960
 1232TIP3    H1 3702   5.385   1.675   0.950  0.2407  2.2865  0.8063
 1232TIP3    H2 3703   5.368   1.790   0.854 -1.6318  0.9669 -0.5016
 1233TIP3   OH2 3704   1.630   5.458   0.706  0.1935 -0.3420 -0.3341
 1233TIP3    H1 3705   1.608   5.398   0.635 -0.6300 -0.4281 -0.0189
 1233TIP3    H2 3706   1.585   5.539   0.683  3.2959  1.0826 -2.0791
 1234TIP3   OH2 3707   3.765   4.715   1.609 -0.1989  0.0807  0.7000
 1234TIP3    H1 3708   3.676   4.744   1.585  0.1209  0.6442  0.1655
 1234TIP3    H2 3709   3.811   4.796   1.631  1.6790  0.5475 -3.9319
 1235TIP3   OH2 3710   2.252   1.558   3.766 -0.0185  0.1618  0.4438
 1235TIP3    H1 3711   2.294   1.494   3.824  2.4977  0.2457 -1.1295
 1235TIP3    H2 3712   2.191   1.506   3.713  0.3079 -0.5395  0.7477
 1236TIP3   OH2 3713   1.301   2.125   3.571  0.7077  0.5254 -0.3667
 1236TIP3    H1 3714   1.286   2.039   3.609  0.2248  0.1902 -1.3000
 1236TIP3    H2 3715   1.214   2.165   3.566  0.9925  1.3442  0.6569
 1237TIP3   OH2 3716   0.168   1.011   2.627  0.7759 -0.3878 -0.2185
 1237TIP3    H1 3717   0.217   0.957   2.688  0.0717 -0.7201  0.0728
 1237TIP3    H2 3718   0.131   0.948   2.564  1.2539 -0.0812 -0.8218
 1238TIP3   OH2 3719   5.519   1.818   3.724  0.2841 -0.5199 -0.5127
 1238TIP3    H1 3720   5.573   1.897   3.725  0.7011 -0.8067 -0.2514
 1238TIP3    H2 3721   5.456   1.831   3.795 -0.0803 -0.1308 -0.8976
 1239TIP3   OH2 3722   3.153   3.373   3.533 -0.0895  0.1548 -0.5364
 1239TIP3    H1 3723   3.188   3.362   3.445  0.1351  0.1122 -0.4436
 1239TIP3    H2 3724   3.161   3.467   3.551 -1.4216  0.4040 -1.0872
 1240TIP3   OH2 3725   3.536   0.145   4.267  0.0396  0.3567 -0.3223
 1240TIP3    H1 3726   3.471   0.205   4.305  0.2074  0.8126 -0.7502
 1240TIP3    H2 3727   3.615   0.198   4.258  0.7559 -0.4316  1.0207
 1241TIP3   OH2 3728   2.511   3.835   3.756 -0.3782 -0.2307  0.2860
 1241TIP3    H1 3729   2.444   3.821   3.823  0.4976 -1.3800  0.9655
 1241TIP3    H2 3730   2.477   3.793   3.678 -0.1212 -1.5117  0.8497
 1242TIP3   OH2 3731   3.877   3.026   0.357 -0.5402  0.0344 -0.0573
 1242TIP3    H1 3732   3.852   2.953   0.300 -3.2576 -0.9333  2.1496
 1242TIP3    H2 3733   3.809   3.092   0.341 -0.9346  0.0244  1.4665
 1243TIP3   OH2 3734   2.768   1.248   1.014  0.4812 -0.3116  0.1264
 1243TIP3    H1 3735   2.749   1.154   1.012 -1.7806  0.0689  0.9768
 1243TIP3    H2 3736   2.690   1.289   0.977  0.7304  1.3134  1.3055
 1244TIP3   OH2 3737   2.171   2.298   0.161 -0.2983  0.5309 -0.3920
 1244TIP3    H1 3738   2.108   2.272   0.094  0.7466  1.3783 -1.7485
 1244TIP3    H2 3739   2.145   2.387   0.185 -1.1952 -0.0775  1.0033
 1245TIP3   OH2 3740   3.847   5.074   0.684 -0.0358  0.1857  0.2604
 1245TIP3    H1 3741   3.860   5.034   0.598  0.2573 -0.0384  0.4095
 1245TIP3    H2 3742   3.897   5.155   0.680  2.3346 -1.1536  1.1862
 1246TIP3   OH2 3743   0.917   5.330   2.027  0.5242 -0.4883  0.3025
 1246TIP3    H1 3744   0.882   5.396   1.967 -0.6627  0.9005  2.3963
 1246TIP3    H2 3745   1.010   5.325   2.005  0.1710  0.0418 -1.5314
 1247TIP3   OH2 3746   4.398   5.199   1.011 -0.4248  0.1380 -0.0272
 1247TIP3    H1 3747   4.361   5.192   0.923 -0.8028  0.8280  0.0657
 1247TIP3    H2 3748   4.382   5.290   1.036  0.3784  0.1523  0.4510
 1248TIP3   OH2 3749   0.186   2.898   2.033  0.0368  0.3365 -0.8837
 1248TIP3    H1 3750   0.141   2.887   2.117  0.7486  0.5909 -0.4610
 1248TIP3    H2 3751   0.192   2.993   2.021 -0.3217  0.3030 -1.3736
 1249TIP3   OH2 3752   5.216   3.615   0.215 -0.0082  0.2374 -0.4947
 1249TIP3    H1 3753   5.213   3.566   0.132  0.4035 -0.8975  0.1340
 1249TIP3    H2 3754   5.231   3.705   0.189  1.3021 -0.2705 -1.6201
 1250TIP3   OH2 3755   0.274   2.817   0.126 -0.5033  0.1415  0.7037
 1250TIP3    H1 3756   0.217   2.755   0.172 -1.7345  1.7131  1.3658
 1250TIP3    H2 3757   0.307   2.875   0.194 -1.2102  1.6166 -0.1581
 1251TIP3   OH2 3758   1.915   2.511   2.450 -0.1164  0.1681  0.0725
 1251TIP3    H1 3759   1.931   2.590   2.503  0.4272  0.3442 -0.3426
 1251TIP3    H2 3760   2.003   2.474   2.437 -0.3080 -0.1761 -0.2417
 1252TIP3   OH2 3761   2.854   2.629   0.754 -0.4359 -0.0888  0.0233
 1252TIP3    H1 3762   2.803   2.584   0.687 -0.4223 -2.1032  1.2979
 1252TIP3    H2 3763   2.827   2.721   0.746 -0.7465 -0.3236 -2.4141
 1253TIP3   OH2 3764   6.108   1.817   3.843 -0.3342 -0.0639 -0.0742
 1253TIP3    H1 3765   6.127   1.907   3.871 -0.0417 -0.1976  0.1712
 1253TIP3    H2 3766   6.092   1.770   3.925 -2.2452  0.1347 -0.2909
 1254TIP3   OH2 3767   4.315   4.837   3.179  0.2865 -0.2596  0.6837
 1254TIP3    H1 3768   4.261   4.764   3.147 -1.7124  1.3551  0.1801
 1254TIP3    H2 3769   4.311   4.902   3.109 -1.6229  2.0878  2.7845
 1255TIP3   OH2 3770   2.782   2.025   1.761  0.8327  0.2630 -0.1425
 1255TIP3    H1 3771   2.781   2.116   1.789  1.1715 -0.0968  1.0970
 1255TIP3    H2 3772   2.864   2.016   1.712 -0.3203  1.1923 -2.4148
 1256TIP3   OH2 3773   4.246   3.131   2.241  0.1360 -1.0580  0.3494
 1256TIP3    H1 3774   4.197   3.113   2.322  0.2654 -0.1409  0.6476
 1256TIP3    H2 3775   4.188   3.186   2.189  0.4738 -0.7382  0.3006
 1257TIP3   OH2 3776   3.130   4.509   3.394 -0.2355  0.0238 -0.1418
 1257TIP3    H1 3777   3.180   4.466   3.325  1.5715 -1.4623  1.9329
 1257TIP3    H2 3778   3.061   4.447   3.416  0.3336 -0.3725  0.5926
 1258TIP3   OH2 3779   1.679   2.863   1.181  0.1641 -0.0234 -0.3437
 1258TIP3    H1 3780   1.604   2.819   1.140 -1.2665  0.4851  1.5600
 1258TIP3    H2 3781   1.689   2.817   1.265  1.6545  0.2875 -0.3408
 1259TIP3   OH2 3782   0.799   5.713   0.909 -0.5175 -0.2963 -0.7211
 1259TIP3    H1 3783   0.803   5.742   0.818 -1.9315 -2.1866 -1.4550
 1259TIP3    H2 3784   0.890   5.694   0.932  0.1239  2.1402 -1.0046
 1260TIP3   OH2 3785   5.049   1.503  -0.026  0.4175 -0.1280  0.4122
 1260TIP3    H1 3786   5.090   1.420   0.001 -2.0555 -1.1300  1.4546
 1260TIP3    H2 3787   5.043   1.553   0.055  0.1214  0.2489  0.1563
 1261TIP3   OH2 3788   4.377   0.863   4.720  0.5933  0.2754  0.3255
 1261TIP3    H1 3789   4.378   0.768   4.730  2.3490  0.3055  0.6233
 1261TIP3    H2 3790   4.427   0.879   4.640 -0.0127  0.9428  0.0682
 1262TIP3   OH2 3791   1.133   1.351   2.463 -0.0090  0.3283  0.5795
 1262TIP3    H1 3792   1.199   1.405   2.419 -0.2606 -0.5300 -0.9336
 1262TIP3    H2 3793   1.165   1.342   2.553  3.0195 -1.6367 -0.5351
 1263TIP3   OH2 3794   2.452   4.478   5.101 -0.0935 -0.1624  0.2909
 1263TIP3    H1 3795   2.459   4.413   5.031  0.7630  0.5901 -0.3514
 1263TIP3    H2 3796   2.519   4.453   5.165 -0.4472 -0.4834  0.5412
 1264TIP3   OH2 3797   0.205   5.114   0.654 -0.6221  0.3418 -0.5309
 1264TIP3    H1 3798   0.220   5.042   0.715 -2.6018  2.1624  2.3618
 1264TIP3    H2 3799   0.272   5.102   0.586  1.7248 -1.8795  1.9234
 1265TIP3   OH2 3800   1.715   5.109   2.247  0.2967 -0.1521  0.5390
 1265TIP3    H1 3801   1.686   5.179   2.188  0.8651 -0.3842 -0.0356
 1265TIP3    H2 3802   1.786   5.066   2.199  0.5405 -0.5653  1.2555
 1266TIP3   OH2 3803   0.128   1.217   1.304  0.2856  0.0853 -0.4797
 1266TIP3    H1 3804   0.123   1.167   1.223  0.8757  0.4257 -0.7359
 1266TIP3    H2 3805   0.133   1.309   1.274  0.3203  0.2217 -0.0552
 1267TIP3   OH2 3806   4.899   1.908   4.873 -0.4265  0.2386  0.1503
 1267TIP3    H1 3807   4.831   1.858   4.827 -0.9332  1.4375 -0.4485
 1267TIP3    H2 3808   4.900   1.871   4.961 -0.7070 -0.8944 -0.3037
 1268TIP3   OH2 3809   6.293   0.180   3.942  0.0954 -0.0266  0.0741
 1268TIP3    H1 3810   6.366   0.241   3.935  1.2480 -1.2352  0.9047
 1268TIP3    H2 3811   6.298   0.128   3.861  1.0762 -1.0409  0.7611
 1269TIP3   OH2 3812   2.604   3.210   0.902  0.3955  0.3735 -0.1004
 1269TIP3    H1 3813   2.599   3.246   0.990 -0.6485  0.8272 -0.3333
 1269TIP3    H2 3814   2.619   3.285   0.845  1.2392  0.0628 -0.3138
 1270TIP3   OH2 3815   4.973   4.086   1.935 -0.1996  0.0580 -0.1127
 1270TIP3    H1 3816   4.956   4.050   2.022 -1.4192 -0.0053 -0.3550
 1270TIP3    H2 3817   5.068   4.091   1.929 -0.0962  1.7082  1.9021
 1271TIP3   OH2 3818   0.658   0.440   1.364  0.6439  0.2898 -0.1324
 1271TIP3    H1 3819   0.655   0.531   1.393 -0.5223  0.4757 -0.7603
 1271TIP3    H2 3820   0.644   0.389   1.444 -0.3092  0.7252  0.0006
 1272TIP3   OH2 3821   1.696   5.764   3.485 -0.2380 -0.0760 -0.1695
 1272TIP3    H1 3822   1.653   5.792   3.566 -1.7294 -0.9982 -0.6085
 1272TIP3    H2 3823   1.787   5.791   3.496 -0.4584  0.0488  1.7038
 1273TIP3   OH2 3824   2.639   2.655   4.108 -0.1877  0.5927 -0.6679
 1273TIP3    H1 3825   2.666   2.572   4.069  0.8765 -0.5171  2.1640
 1273TIP3    H2 3826   2.710   2.716   4.087  1.0977 -0.3809  0.6946
 1274TIP3   OH2 3827   5.429   2.186   4.080 -0.2985  0.2259 -0.4815
 1274TIP3    H1 3828   5.352   2.148   4.123 -0.6163 -0.0011 -1.2338
 1274TIP3    H2 3829   5.392   2.235   4.007  0.2979 -0.0986 -0.9984
 1275TIP3   OH2 3830   6.211   5.798   3.012 -0.1884 -0.3106 -0.5410
 1275TIP3    H1 3831   6.299   5.782   3.048 -0.5236  0.0711  0.4620
 1275TIP3    H2 3832   6.225   5.866   2.946  0.9223 -2.9994 -3.3772
 1276TIP3   OH2 3833   5.035   2.283   3.152 -0.6179  0.1200 -0.2352
 1276TIP3    H1 3834   5.105   2.227   3.118 -0.4147  0.9269 -1.2131
 1276TIP3    H2 3835   5.071   2.320   3.232  0.1152  0.5785 -0.7633
 1277TIP3   OH2 3836   3.359   5.985   4.461  0.7828  0.2201 -0.0183
 1277TIP3    H1 3837   3.271   5.956   4.437  0.2122  0.2191  1.8889
 1277TIP3    H2 3838   3.410   5.904   4.468  0.6433  0.1282 -0.0628
 1278TIP3   OH2 3839   3.849   3.505   3.577 -0.0217 -0.2523 -0.2007
 1278TIP3    H1 3840   3.836   3.596   3.604 -0.3895  0.0541 -1.3460
 1278TIP3    H2 3841   3.887   3.511   3.490 -2.5937 -1.1554 -1.4819
 1279TIP3   OH2 3842   0.640   5.155   4.213  0.1178  0.7852 -0.3889
 1279TIP3    H1 3843   0.624   5.221   4.280  0.3548  0.0227  0.4223
 1279TIP3    H2 3844   0.624   5.201   4.130 -0.9914  1.4949  0.2077
 1280TIP3   OH2 3845   1.010   3.262   1.090  0.0220 -0.0952  0.8283
 1280TIP3    H1 3846   1.101   3.291   1.081  0.3470 -1.1486  0.4944
 1280TIP3    H2 3847   1.016   3.166   1.083 -0.8673 -0.3329  2.7624
 1281TIP3   OH2 3848   5.119   3.289   1.489 -0.3690 -0.1593  0.1769
 1281TIP3    H1 3849   5.159   3.373   1.509 -2.9346  1.2124  0.0103
 1281TIP3    H2 3850   5.141   3.272   1.398  0.3891  0.1854  0.2906
 1282TIP3   OH2 3851   2.231   1.105   5.180  0.1127  0.2760 -0.0186
 1282TIP3    H1 3852   2.191   1.074   5.099  0.1750 -1.1857  0.4783
 1282TIP3    H2 3853   2.316   1.062   5.183  0.3829  0.8314  0.4961
 1283TIP3   OH2 3854   2.906   4.582   0.133 -0.8511 -0.8711  0.6086
 1283TIP3    H1 3855   2.842   4.583   0.061  1.9452  0.2402 -2.1208
 1283TIP3    H2 3856   2.880   4.654   0.190 -1.8830 -0.2912 -0.5468
 1284TIP3   OH2 3857   2.074   4.353   0.071 -0.2841 -0.2899  0.4697
 1284TIP3    H1 3858   2.089   4.273   0.021 -3.1110 -0.0780 -0.8891
 1284TIP3    H2 3859   2.126   4.420   0.026  1.3090 -1.1042  1.0258
 1285TIP3   OH2 3860   2.220   4.426   1.494  0.0567 -0.3848  0.1439
 1285TIP3    H1 3861   2.257   4.425   1.406  0.8899 -1.7196  0.4891
 1285TIP3    H2 3862   2.180   4.339   1.505  0.3451 -0.3961  1.2367
 1286TIP3   OH2 3863   2.268   2.086   2.050 -0.0336  0.4364  0.1598
 1286TIP3    H1 3864   2.260   2.010   1.991 -0.6159  0.3268  0.3772
 1286TIP3    H2 3865   2.296   2.048   2.133  1.2899  0.6448 -0.1637
 1287TIP3   OH2 3866   0.258   5.526   1.512  0.5353  0.0728 -0.1169
 1287TIP3    H1 3867   0.279   5.615   1.486 -0.9979  0.2008 -1.0343
 1287TIP3    H2 3868   0.343   5.483   1.524  1.3438  0.7390 -2.8774
 1288TIP3   OH2 3869   3.566   3.772   3.169 -0.1630  0.0577 -0.1056
 1288TIP3    H1 3870   3.472   3.765   3.187 -0.0314  0.1623  0.6669
 1288TIP3    H2 3871   3.590   3.687   3.131 -0.6203  0.1231 -0.5372
 1289TIP3   OH2 3872   3.671   0.486   2.001 -0.4050 -0.1697  0.5251
 1289TIP3    H1 3873   3.662   0.471   2.095 -0.3579 -1.1615  0.3781
 1289TIP3    H2 3874   3.750   0.438   1.977 -0.6927 -0.3291 -0.1136
 1290TIP3   OH2 3875   0.224   3.396   3.972 -0.4659  0.1913 -0.2647
 1290TIP3    H1 3876   0.284   3.399   4.047  0.1499  0.6635 -0.7639
 1290TIP3    H2 3877   0.193   3.306   3.969  0.7029 -0.2302 -0.3591
 1291TIP3   OH2 3878   0.852   0.666   0.496  0.0565  0.5698 -0.2434
 1291TIP3    H1 3879   0.848   0.615   0.577 -0.9588  1.4898  0.3084
 1291TIP3    H2 3880   0.913   0.738   0.516 -1.5403  1.8093  0.3296
 1292TIP3   OH2 3881   1.352   3.857   0.755  0.4877  0.2902 -0.2211
 1292TIP3    H1 3882   1.361   3.866   0.850  0.3754  1.7562 -0.3182
 1292TIP3    H2 3883   1.284   3.791   0.743 -0.6998  1.2880  0.7577
 1293TIP3   OH2 3884   3.673   3.085   3.262  0.6072 -0.1156 -0.2068
 1293TIP3    H1 3885   3.682   3.078   3.357 -0.0285 -1.5336 -0.2249
 1293TIP3    H2 3886   3.707   3.172   3.241  0.8524  0.1802  1.2996
 1294TIP3   OH2 3887   5.850   3.323   4.789  0.1577  0.2814  0.9173
 1294TIP3    H1 3888   5.837   3.347   4.881  1.8811  0.4898  1.1233
 1294TIP3    H2 3889   5.944   3.328   4.775 -0.0507  0.0473 -0.8189
 1295TIP3   OH2 3890   1.491   1.499   2.000  0.8550  0.1568 -0.3659
 1295TIP3    H1 3891   1.400   1.527   2.014  0.8032  0.4415 -1.1875
 1295TIP3    H2 3892   1.497   1.486   1.906  2.2725  2.3373 -0.6518
 1296TIP3   OH2 3893   2.654   5.839   4.287 -0.6962  0.2189  0.2049
 1296TIP3    H1 3894   2.725   5.817   4.348 -1.2229 -0.5105  0.5752
 1296TIP3    H2 3895   2.603   5.758   4.281 -1.5203  0.7500 -0.0268
 1297TIP3   OH2 3896   4.899   5.978   2.817  0.0125 -0.5071  0.4889
 1297TIP3    H1 3897   4.951   5.927   2.879 -0.7216 -0.4784  1.1373
 1297TIP3    H2 3898   4.890   5.921   2.741  1.8521 -0.1168 -0.0609
 1298TIP3   OH2 3899   1.696   3.477   4.461 -0.4779  0.6846 -0.0217
 1298TIP3    H1 3900   1.623   3.514   4.511 -0.8547  0.1414 -0.1671
 1298TIP3    H2 3901   1.767   3.469   4.525  0.4453  3.9000 -0.4761
 1299TIP3   OH2 3902   4.941   4.096   3.343  0.2071  0.4391 -0.2600
 1299TIP3    H1 3903   5.014   4.091   3.405 -1.6754 -2.2181  1.9724
 1299TIP3    H2 3904   4.864   4.069   3.393 -2.2584  2.2342 -2.7109
 1300TIP3   OH2 3905   2.432   2.378   2.244 -0.0565 -0.6498 -0.2676
 1300TIP3    H1 3906   2.421   2.345   2.154  0.5786 -1.0445 -0.2114
 1300TIP3    H2 3907   2.416   2.301   2.299  1.2319 -0.8508 -0.1244
 1301TIP3   OH2 3908   2.540   1.184   3.423 -0.6595 -0.0431 -0.4797
 1301TIP3    H1 3909   2.564   1.221   3.337  0.7516  0.5161  0.1219
 1301TIP3    H2 3910   2.493   1.255   3.467 -0.2457  0.1350 -0.3156
 1302TIP3   OH2 3911   5.863   5.502   0.313 -0.2742 -0.4502  1.0232
 1302TIP3    H1 3912   5.913   5.523   0.235  0.5789  1.4575  2.0152
 1302TIP3    H2 3913   5.841   5.409   0.303 -0.6964 -0.1446 -1.7068
 1303TIP3   OH2 3914   4.775   2.192   3.740  0.7643 -0.3092 -0.6055
 1303TIP3    H1 3915   4.835   2.162   3.671 -0.3631 -0.9312 -1.3510
 1303TIP3    H2 3916   4.719   2.116   3.759 -0.1340  0.3967 -0.3272
 1304TIP3   OH2 3917   4.039   3.890   4.265 -0.3580 -0.5751 -0.1940
 1304TIP3    H1 3918   4.066   3.982   4.266  0.2221 -0.7190 -1.2441
 1304TIP3    H2 3919   3.944   3.893   4.253 -0.5678 -0.1014  1.3882
 1305TIP3   OH2 3920   1.468   4.474   1.715  0.0512  0.2006  0.4304
 1305TIP3    H1 3921   1.468   4.380   1.735  1.4111  0.4609  1.8460
 1305TIP3    H2 3922   1.560   4.500   1.723 -0.0374  1.3372 -1.6437
 1306TIP3   OH2 3923   3.473   2.669   0.966  0.2430 -0.0479  0.0067
 1306TIP3    H1 3924   3.390   2.696   0.926  0.4102  1.5901  0.6931
 1306TIP3    H2 3925   3.447   2.619   1.044 -0.0719 -0.6280 -0.4565
 1307TIP3   OH2 3926   2.431   1.588   0.957 -0.1521 -0.1291 -0.2497
 1307TIP3    H1 3927   2.415   1.619   0.868 -0.6585 -0.6515 -0.3490
 1307TIP3    H2 3928   2.473   1.661   1.001 -0.5236  0.3794 -0.7271
 1308TIP3   OH2 3929   0.211   5.958   3.952 -0.2883 -0.0066 -0.4531
 1308TIP3    H1 3930   0.253   5.926   4.032 -0.5021 -1.4389 -0.8891
 1308TIP3    H2 3931   0.272   5.935   3.882  0.8757  3.0223 -0.5860
 1309TIP3   OH2 3932   5.278   3.398   1.166  0.6537 -0.0683 -0.0117
 1309TIP3    H1 3933   5.298   3.382   1.074 -1.8954  0.2409 -0.6915
 1309TIP3    H2 3934   5.333   3.336   1.214  3.4810  1.0652 -1.5629
 1310TIP3   OH2 3935   4.100   5.422   2.138  0.0556 -0.1236  0.1064
 1310TIP3    H1 3936   4.167   5.360   2.167  0.2163  0.5521  1.2498
 1310TIP3    H2 3937   4.095   5.409   2.044 -0.6043 -2.5508  0.3899
 1311TIP3   OH2 3938   0.463   0.843   4.686  0.3692  0.4182  0.0309
 1311TIP3    H1 3939   0.371   0.842   4.714  0.2945  0.0340 -0.2198
 1311TIP3    H2 3940   0.502   0.769   4.732  0.5961  0.6782  0.2635
 1312TIP3   OH2 3941   2.406   4.709   4.742  0.0502  0.1038  0.0725
 1312TIP3    H1 3942   2.436   4.773   4.677  1.0182  1.5525  1.8634
 1312TIP3    H2 3943   2.484   4.686   4.792 -0.5863 -1.3164  0.4762
 1313TIP3   OH2 3944   3.660   1.288   4.135 -0.5895  0.0882 -0.2392
 1313TIP3    H1 3945   3.647   1.248   4.221  0.9422  0.4911  0.2050
 1313TIP3    H2 3946   3.656   1.214   4.074 -0.6055 -0.3454  0.2829
 1314TIP3   OH2 3947   5.973   5.960   5.085 -0.2978  0.2409  0.4362
 1314TIP3    H1 3948   5.945   5.918   5.004 -0.3804  2.7563 -0.9572
 1314TIP3    H2 3949   5.941   5.903   5.155 -0.4272 -1.8948 -1.2552
 1315TIP3   OH2 3950   2.660   1.675   4.073 -0.1215 -0.1615  0.1093
 1315TIP3    H1 3951   2.661   1.769   4.090 -0.2190 -0.1341 -0.0375
 1315TIP3    H2 3952   2.737   1.660   4.018  0.6870 -0.3815  1.2617
 1316TIP3   OH2 3953   3.133   0.379   4.238  0.3996 -0.0772 -0.2879
 1316TIP3    H1 3954   3.053   0.388   4.288 -0.0620  1.2113 -1.2007
 1316TIP3    H2 3955   3.146   0.465   4.197  2.6072 -0.0275  0.3551
 1317TIP3   OH2 3956   5.068   5.671   3.445 -0.0220 -0.1032  0.5395
 1317TIP3    H1 3957   5.136   5.611   3.414 -0.0077 -0.7123  1.7033
 1317TIP3    H2 3958   4.990   5.616   3.451 -0.2131  0.2003  0.8217
 1318TIP3   OH2 3959   3.692   0.997   3.316 -0.5196  1.0444 -0.0210
 1318TIP3    H1 3960   3.689   0.933   3.387  0.0872  1.8146  0.7193
 1318TIP3    H2 3961   3.607   1.041   3.319 -0.6444  0.8051 -0.0340
 1319TIP3   OH2 3962   2.866   1.832   4.695  0.0549  0.6594 -0.2210
 1319TIP3    H1 3963   2.909   1.917   4.702  0.6386  0.4600 -1.1784
 1319TIP3    H2 3964   2.931   1.770   4.727  0.7370  0.3048 -2.1187
 1320TIP3   OH2 3965   4.018   5.502   1.113 -0.1940  0.5334 -0.2021
 1320TIP3    H1 3966   3.973   5.584   1.135 -1.5502  0.4630 -2.4622
 1320TIP3    H2 3967   3.993   5.442   1.184 -2.0993  1.0742 -0.3431
 1321TIP3   OH2 3968   3.516   5.225   4.413  0.1200 -0.3918  0.3637
 1321TIP3    H1 3969   3.541   5.147   4.462 -1.7005 -2.5995 -1.9291
 1321TIP3    H2 3970   3.547   5.208   4.324 -1.6860  0.7427 -0.5461
 1322TIP3   OH2 3971   1.076   0.665   2.985  0.5627  0.1906  0.6079
 1322TIP3    H1 3972   1.032   0.626   2.910  0.6575 -0.8363  1.0691
 1322TIP3    H2 3973   1.007   0.682   3.048  0.0702  3.4414 -0.6207
 1323TIP3   OH2 3974   2.519   0.878   3.732  0.2059 -0.7009  0.0842
 1323TIP3    H1 3975   2.614   0.873   3.720  0.2877 -1.4764  0.9878
 1323TIP3    H2 3976   2.484   0.874   3.643  0.9884 -1.2699 -0.2083
 1324TIP3   OH2 3977   3.954   0.761   4.370 -0.2673  0.2000  0.1426
 1324TIP3    H1 3978   3.864   0.790   4.381 -0.7615 -0.1861 -2.3138
 1324TIP3    H2 3979   4.007   0.835   4.402 -1.3604 -0.0149  2.6890
 1325TIP3   OH2 3980   3.358   1.120   1.426  0.1204 -0.1352 -0.4422
 1325TIP3    H1 3981   3.362   1.210   1.391 -0.4468  0.2769  0.5347
 1325TIP3    H2 3982   3.422   1.119   1.497  0.8760 -0.8170 -1.1141
 1326TIP3   OH2 3983   2.373   1.216   0.224  0.6706 -0.4695  0.2125
 1326TIP3    H1 3984   2.374   1.122   0.244  0.4432 -0.1027  2.1829
 1326TIP3    H2 3985   2.344   1.257   0.306  1.6480  1.3855 -0.3223
 1327TIP3   OH2 3986   4.129   0.353   0.645  0.1317 -0.1553  0.9691
 1327TIP3    H1 3987   4.128   0.349   0.741  1.8873 -1.3623  0.9832
 1327TIP3    H2 3988   4.204   0.409   0.624 -1.2365  1.5061  0.2688
 1328TIP3   OH2 3989   5.864   2.637   0.494 -1.0943  0.9147 -0.2631
 1328TIP3    H1 3990   5.918   2.703   0.539 -0.9638  1.2558 -0.9100
 1328TIP3    H2 3991   5.780   2.640   0.540 -0.9032  1.1203  0.0822
 1329TIP3   OH2 3992   3.829   5.887   3.976  0.0514  0.1307  0.1222
 1329TIP3    H1 3993   3.904   5.851   4.023  0.7927 -0.6383 -1.5399
 1329TIP3    H2 3994   3.817   5.975   4.012  0.9714 -0.1997  1.2677
 1330TIP3   OH2 3995   0.022   5.358   4.818 -0.3144 -0.9819  0.3777
 1330TIP3    H1 3996   0.078   5.355   4.740  0.5618  2.5401  0.6903
 1330TIP3    H2 3997  -0.061   5.320   4.790  0.4542 -1.2014 -1.7917
 1331TIP3   OH2 3998   2.336   3.758   2.216  0.5566 -0.6088 -0.0446
 1331TIP3    H1 3999   2.427   3.727   2.215  0.8678  0.2074  0.9807
 1331TIP3    H2 4000   2.342   3.852   2.205  0.1012 -0.1272  2.8813
 1332TIP3   OH2 4001   1.780   4.557   2.023  0.0745  0.5753 -0.0148
 1332TIP3    H1 4002   1.803   4.473   2.064  0.6184  1.0808  0.7473
 1332TIP3    H2 4003   1.752   4.612   2.096  2.2930  1.9190 -0.0721
 1333TIP3   OH2 4004   5.391   1.677   4.452 -0.2796  0.1464 -0.3213
 1333TIP3    H1 4005   5.457   1.677   4.383  0.4920 -0.1689  0.3948
 1333TIP3    H2 4006   5.350   1.591   4.447  0.1095 -0.0544 -0.0795
 1334TIP3   OH2 4007   2.838   5.256   1.008 -0.3604 -0.4167  0.2509
 1334TIP3    H1 4008   2.824   5.168   0.974  1.8737  0.1364 -2.4958
 1334TIP3    H2 4009   2.792   5.313   0.945 -1.2906  0.4532  1.6595
 1335TIP3   OH2 4010   4.780   3.808   4.116 -0.4721  0.2013  0.5454
 1335TIP3    H1 4011   4.825   3.726   4.137 -0.1567 -0.6717 -2.8788
 1335TIP3    H2 4012   4.840   3.876   4.146 -0.1436 -0.8149  2.3120
 1336TIP3   OH2 4013   5.320   4.847   3.701 -0.5273 -0.2662  0.1326
 1336TIP3    H1 4014   5.404   4.891   3.709 -0.7254 -0.0136  0.9713
 1336TIP3    H2 4015   5.342   4.755   3.689 -0.1126 -0.4079  1.6815
 1337TIP3   OH2 4016   2.962   1.967   1.256 -0.0193  0.7307  0.0289
 1337TIP3    H1 4017   2.918   2.051   1.262  0.9057  1.1756  0.9060
 1337TIP3    H2 4018   3.022   1.977   1.181  0.0691  0.8426  0.1146
 1338TIP3   OH2 4019   4.806   3.246   1.477 -0.9821 -0.4078  0.0559
 1338TIP3    H1 4020   4.823   3.185   1.549 -1.5003 -0.5380  0.0740
 1338TIP3    H2 4021   4.885   3.243   1.423 -0.9988 -1.0726  0.0703
 1339TIP3   OH2 4022   5.422   0.631   3.822  0.1132 -0.1462 -0.1173
 1339TIP3    H1 4023   5.450   0.574   3.750 -0.2934  0.2836 -0.6310
 1339TIP3    H2 4024   5.328   0.641   3.810  0.1509  0.4950  0.0564
 1340TIP3   OH2 4025   6.076   3.881   3.884  0.0521  0.4711  0.3940
 1340TIP3    H1 4026   6.039   3.794   3.899  0.0706  0.3291 -0.3411
 1340TIP3    H2 4027   6.148   3.887   3.947 -0.0473  0.0141  0.5602
 1341TIP3   OH2 4028   5.198   5.298   2.873 -0.1934 -0.1516  0.0777
 1341TIP3    H1 4029   5.259   5.230   2.843 -0.8907 -0.2715 -1.1196
 1341TIP3    H2 4030   5.186   5.355   2.797 -1.0657  0.2475  0.5044
 1342TIP3   OH2 4031   1.772   3.670   4.918  0.1151  0.3714 -0.3579
 1342TIP3    H1 4032   1.699   3.614   4.890  0.0511  0.4517 -0.3525
 1342TIP3    H2 4033   1.795   3.637   5.005  1.1634 -0.7192 -1.0144
 1343TIP3   OH2 4034   1.136   3.207   4.735  0.0126  0.3497 -0.3853
 1343TIP3    H1 4035   1.209   3.157   4.697 -0.2086  0.1277 -0.5259
 1343TIP3    H2 4036   1.071   3.210   4.665 -1.5053 -2.3175  0.7508
 1344TIP3   OH2 4037   4.596   0.578   1.120  0.2988 -0.4016  0.4682
 1344TIP3    H1 4038   4.650   0.607   1.194  1.8678 -0.9053 -0.4458
 1344TIP3    H2 4039   4.617   0.640   1.050  0.3854 -1.1423 -0.1722
 1345TIP3   OH2 4040   1.356   1.791   0.585 -0.3101 -0.1674 -0.3102
 1345TIP3    H1 4041   1.301   1.844   0.643 -0.2757 -0.4808  0.0121
 1345TIP3    H2 4042   1.330   1.817   0.497 -0.2222  0.4638 -0.1571
 1346TIP3   OH2 4043   4.762   3.968   3.530 -0.4455 -0.2590  0.0711
 1346TIP3    H1 4044   4.791   3.881   3.557  2.5005  0.4084 -0.6261
 1346TIP3    H2 4045   4.738   4.012   3.611 -1.0338 -1.3579  0.5234
 1347TIP3   OH2 4046   4.031   4.720   4.467  0.0929 -0.2166 -0.1985
 1347TIP3    H1 4047   4.047   4.632   4.431 -0.3892  0.6179 -2.5784
 1347TIP3    H2 4048   3.946   4.745   4.433  0.7591  1.6713 -0.6034
 1348TIP3   OH2 4049   2.454   0.840   1.663 -0.6429  0.4187 -0.0626
 1348TIP3    H1 4050   2.402   0.807   1.736 -0.8870 -0.0699 -0.4511
 1348TIP3    H2 4051   2.457   0.935   1.677 -0.2230  0.2793  0.8805
 1349TIP3   OH2 4052   2.838   3.684   4.024  0.1988  0.1576  0.0576
 1349TIP3    H1 4053   2.753   3.663   4.063  0.2764 -0.0368  0.1200
 1349TIP3    H2 4054   2.818   3.710   3.934  0.1352 -0.4310 -0.0964
 1350TIP3   OH2 4055   3.320   5.811   5.004 -0.5625  0.1260 -0.7068
 1350TIP3    H1 4056   3.371   5.777   5.078  0.4503  0.4535 -1.2265
 1350TIP3    H2 4057   3.331   5.906   5.009 -3.2603  0.4542  0.6587
 1351TIP3   OH2 4058   0.588   5.658   4.712 -0.2398  0.2777  0.1726
 1351TIP3    H1 4059   0.618   5.710   4.637  0.2133  1.4532  1.1319
 1351TIP3    H2 4060   0.668   5.620   4.749 -0.2815  0.8436  0.8683
 1352TIP3   OH2 4061   4.978   4.321   2.552  0.4996 -0.2469  0.1636
 1352TIP3    H1 4062   5.039   4.306   2.479  0.9909  0.3946  0.4324
 1352TIP3    H2 4063   4.943   4.409   2.536  0.7394 -0.0338  0.7975
 1353TIP3   OH2 4064   0.127   3.985   0.261  0.3221 -0.0196 -0.1021
 1353TIP3    H1 4065   0.106   3.894   0.282 -0.7252  0.6873  2.2693
 1353TIP3    H2 4066   0.176   4.017   0.338  2.4669  0.9091 -1.7384
 1354TIP3   OH2 4067   4.831   1.516   1.231 -0.0990 -0.3130 -0.0103
 1354TIP3    H1 4068   4.794   1.584   1.174  0.5857  0.1655  0.0996
 1354TIP3    H2 4069   4.815   1.434   1.185  1.7291  0.1687 -1.6288
 1355TIP3   OH2 4070   0.456   5.480   0.127  0.1161 -0.0298  0.3482
 1355TIP3    H1 4071   0.468   5.522   0.212  1.4594  0.5183 -0.0882
 1355TIP3    H2 4072   0.361   5.474   0.117 -0.0702  0.6179  1.5396
 1356TIP3   OH2 4073   0.310   5.944   4.187  0.1015  0.0459  0.0486
 1356TIP3    H1 4074   0.304   6.008   4.258  1.2730 -2.0224  2.1580
 1356TIP3    H2 4075   0.397   5.906   4.197 -0.9835 -2.7636 -0.2370
 1357TIP3   OH2 4076   3.847   5.928   3.608  0.1266  0.7565 -0.8348
 1357TIP3    H1 4077   3.767   5.889   3.571 -0.3994 -0.1518  1.0968
 1357TIP3    H2 4078   3.895   5.854   3.644  1.0663  1.4811 -0.5599
 1358TIP3   OH2 4079   2.698   0.506   2.369  0.1458  0.5970  0.2979
 1358TIP3    H1 4080   2.668   0.585   2.414  0.7810  0.6451  0.6644
 1358TIP3    H2 4081   2.791   0.499   2.394  0.7220  1.0243 -1.5972
 1359TIP3   OH2 4082   2.185   4.972   1.162 -0.0505  0.3542 -0.2567
 1359TIP3    H1 4083   2.124   4.965   1.235 -1.5482  0.0702 -1.4868
 1359TIP3    H2 4084   2.129   4.989   1.086  1.2776 -1.1413 -1.6355
 1360TIP3   OH2 4085   5.389   1.163   3.259  0.7162 -0.3459  0.7742
 1360TIP3    H1 4086   5.442   1.226   3.211  0.3178 -1.2353 -0.9152
 1360TIP3    H2 4087   5.311   1.212   3.284  0.9569  0.1540  0.5497
 1361TIP3   OH2 4088   0.254   1.106   4.273 -0.0197 -0.0704 -0.3275
 1361TIP3    H1 4089   0.309   1.030   4.289 -0.3153 -0.5739 -1.6046
 1361TIP3    H2 4090   0.175   1.090   4.324  0.3628 -0.0847  0.2710
 1362TIP3   OH2 4091   1.325   5.296   3.297 -0.2255  0.4793  0.0525
 1362TIP3    H1 4092   1.316   5.346   3.379 -1.5080  0.7987 -0.2509
 1362TIP3    H2 4093   1.344   5.362   3.231 -1.1563  0.5022 -0.2165
 1363TIP3   OH2 4094   1.631   5.606   3.225 -0.4918  0.2922  0.0249
 1363TIP3    H1 4095   1.712   5.589   3.176 -1.2629  0.7434 -1.4672
 1363TIP3    H2 4096   1.660   5.648   3.306  0.7658  0.5338 -0.5261
 1364TIP3   OH2 4097   5.379   5.921   3.711 -0.1852 -0.0326  0.2055
 1364TIP3    H1 4098   5.289   5.917   3.678  0.0417  0.4135 -0.4854
 1364TIP3    H2 4099   5.430   5.873   3.647 -0.0304 -0.9312  0.9885
 1365TIP3   OH2 4100   2.206   1.547   1.141  0.3999  0.3972  0.4368
 1365TIP3    H1 4101   2.271   1.601   1.096  0.6126  0.9923  1.4276
 1365TIP3    H2 4102   2.255   1.468   1.167 -0.1298 -0.7520 -1.8137
 1366TIP3   OH2 4103   2.646   3.589   1.099  0.6600  0.0265 -0.1924
 1366TIP3    H1 4104   2.625   3.586   1.192 -2.1953  0.3536 -0.7613
 1366TIP3    H2 4105   2.575   3.541   1.056  1.8609 -0.0584 -2.2440
 1367TIP3   OH2 4106   0.760   1.196   0.096 -0.2134  0.2384  0.1102
 1367TIP3    H1 4107   0.683   1.253   0.092 -1.1151 -1.0082 -1.1916
 1367TIP3    H2 4108   0.826   1.242   0.044 -0.7146  0.4053 -0.3894
 1368TIP3   OH2 4109   0.900   5.072   2.130 -0.1295 -0.1537  0.5283
 1368TIP3    H1 4110   0.993   5.057   2.150  0.1323  0.8890  0.1381
 1368TIP3    H2 4111   0.898   5.159   2.089 -1.0031 -1.0682 -1.4839
 1369TIP3   OH2 4112   0.671   0.108   2.125 -0.1858  0.2739 -0.3875
 1369TIP3    H1 4113   0.694   0.061   2.205  2.8985  0.2051 -1.2028
 1369TIP3    H2 4114   0.621   0.044   2.073  0.7705 -0.8622  0.0512
 1370TIP3   OH2 4115   0.323   1.370   1.108 -0.2841  0.6217  0.0295
 1370TIP3    H1 4116   0.231   1.394   1.112 -0.6947 -0.9984  1.6831
 1370TIP3    H2 4117   0.341   1.358   1.015 -1.8432  0.5518 -0.2832
 1371TIP3   OH2 4118   1.519   4.208   0.773 -0.5726 -0.1402  0.3278
 1371TIP3    H1 4119   1.574   4.133   0.747  0.3025  1.4670 -3.0640
 1371TIP3    H2 4120   1.570   4.253   0.840  1.3205  0.0711 -1.1603
 1372TIP3   OH2 4121   1.262   4.744   1.208 -0.3495 -0.0340 -0.3326
 1372TIP3    H1 4122   1.251   4.837   1.188  0.7121  0.2723  0.4084
 1372TIP3    H2 4123   1.294   4.706   1.126  1.9073  0.8059  0.0913
 1373TIP3   OH2 4124   4.775   2.490   4.335 -0.2487  0.0587  0.2064
 1373TIP3    H1 4125   4.708   2.481   4.403 -0.2143 -1.0898  0.0944
 1373TIP3    H2 4126   4.808   2.580   4.347 -0.7791  0.1402  1.2050
 1374TIP3   OH2 4127   0.145   3.329   1.518 -0.0032 -0.2718  0.1388
 1374TIP3    H1 4128   0.075   3.331   1.582 -0.2533 -0.3049 -0.1309
 1374TIP3    H2 4129   0.196   3.408   1.536  0.3941 -0.6994  0.8893
 1375TIP3   OH2 4130   0.896   3.007   3.561 -0.1475  0.6852 -0.5560
 1375TIP3    H1 4131   0.990   3.023   3.552 -0.0908 -0.0552 -1.4796
 1375TIP3    H2 4132   0.882   2.993   3.654  0.6445  0.8884 -0.4019
 1376TIP3   OH2 4133   4.796   4.755   0.939 -0.6678 -0.6587  0.1634
 1376TIP3    H1 4134   4.716   4.704   0.929 -0.5241 -0.5164 -2.2714
 1376TIP3    H2 4135   4.867   4.691   0.931 -0.5162 -0.3537 -1.1442
 1377TIP3   OH2 4136   5.536   2.386   0.329  0.2578 -0.3650 -0.7870
 1377TIP3    H1 4137   5.613   2.370   0.274 -0.0588 -0.8381 -1.1004
 1377TIP3    H2 4138   5.497   2.466   0.293  1.9406  1.3068  0.8886
 1378TIP3   OH2 4139   2.529   5.616   5.139  0.6985  0.3395 -0.1001
 1378TIP3    H1 4140   2.483   5.694   5.169  1.2922 -0.1045  2.1128
 1378TIP3    H2 4141   2.596   5.649   5.080 -0.2742  1.3022 -0.7051
 1379TIP3   OH2 4142   1.490   5.509   1.860  0.0662  0.2781  0.1600
 1379TIP3    H1 4143   1.566   5.566   1.856 -0.2884  0.8066  0.8286
 1379TIP3    H2 4144   1.514   5.434   1.804  1.0292  0.4765  0.2828
 1380TIP3   OH2 4145   4.763   2.105   0.215  0.1662 -0.4824 -0.0607
 1380TIP3    H1 4146   4.812   2.171   0.165 -2.2298  0.9720 -0.6404
 1380TIP3    H2 4147   4.708   2.062   0.150 -1.2549 -0.2377  0.9436
 1381TIP3   OH2 4148   5.036   4.153   3.093  0.3470 -0.8094  0.6746
 1381TIP3    H1 4149   5.004   4.119   3.177 -0.5351 -2.2428 -0.2065
 1381TIP3    H2 4150   4.960   4.191   3.051  1.0402  1.0754  1.0120
 1382TIP3   OH2 4151   4.268   1.949   1.067 -0.2402 -0.2698 -0.3865
 1382TIP3    H1 4152   4.340   1.961   1.129  1.2130 -0.0362 -2.0528
 1382TIP3    H2 4153   4.199   2.008   1.100  0.7292  0.3513  0.6143
 1383TIP3   OH2 4154   0.009   1.564   1.865  0.0564  0.3950 -0.5780
 1383TIP3    H1 4155  -0.022   1.512   1.791  0.5903  0.6356 -0.9787
 1383TIP3    H2 4156   0.103   1.551   1.866  0.1307  0.9168 -0.3497
 1384TIP3   OH2 4157   3.879   0.686   1.872  0.2832 -0.0144 -0.1823
 1384TIP3    H1 4158   3.799   0.661   1.917  0.4362 -2.1289 -0.9997
 1384TIP3    H2 4159   3.932   0.729   1.939 -0.5960 -0.6469  0.9411
 1385TIP3   OH2 4160   1.526   2.397   4.608  0.2816 -0.1535  0.4890
 1385TIP3    H1 4161   1.557   2.432   4.525 -0.7914 -1.5285 -0.5469
 1385TIP3    H2 4162   1.469   2.466   4.644  0.5714  0.3558 -0.0228
 1386TIP3   OH2 4163   2.926   5.818   4.713 -0.9578  0.1735  0.7399
 1386TIP3    H1 4164   2.874   5.834   4.792 -0.0671 -0.5343  1.5017
 1386TIP3    H2 4165   3.013   5.852   4.734 -0.5645 -0.5152  0.2840
 1387TIP3   OH2 4166   2.437   5.361   2.010 -0.0810 -0.3017 -0.2349
 1387TIP3    H1 4167   2.363   5.304   2.033 -0.0452 -1.1454 -2.0432
 1387TIP3    H2 4168   2.512   5.324   2.056 -0.9143  1.2495  2.5865
 1388TIP3   OH2 4169   3.440   1.092   3.348  0.4465 -0.2774  0.1551
 1388TIP3    H1 4170   3.380   1.158   3.383  0.2170 -0.4159  0.0168
 1388TIP3    H2 4171   3.396   1.008   3.363 -0.2982 -0.2581 -1.7253
 1389TIP3   OH2 4172   2.893   0.841   4.711 -0.2731 -0.3379 -0.3096
 1389TIP3    H1 4173   2.886   0.909   4.778 -0.8293  2.4157 -2.9192
 1389TIP3    H2 4174   2.950   0.775   4.750  0.2597  1.5576  2.4698
 1390TIP3   OH2 4175   1.244   0.871   2.612  0.1184  0.0823  0.2970
 1390TIP3    H1 4176   1.211   0.891   2.700 -2.5966 -3.2417  0.2338
 1390TIP3    H2 4177   1.191   0.927   2.554 -0.4491 -0.1083  0.6211
 1391TIP3   OH2 4178   5.428   0.407   0.249 -0.9710  0.2162 -0.2205
 1391TIP3    H1 4179   5.435   0.312   0.241  0.9373  0.4040 -1.4163
 1391TIP3    H2 4180   5.334   0.424   0.257 -1.2695 -1.8383  1.4118
 1392TIP3   OH2 4181   1.362   4.797   3.085 -0.3979  0.9047 -0.1268
 1392TIP3    H1 4182   1.389   4.850   3.010  0.7840 -2.7881 -2.6544
 1392TIP3    H2 4183   1.306   4.729   3.047 -0.8297 -0.3795  2.5907
 1393TIP3   OH2 4184   2.321   5.847   1.823 -0.5360  0.5786 -0.0711
 1393TIP3    H1 4185   2.409   5.855   1.786  0.3988  0.1138  1.9425
 1393TIP3    H2 4186   2.314   5.756   1.851 -1.3452  0.8202  0.5481
 1394TIP3   OH2 4187   3.036   2.451   1.851 -0.2310 -0.2355  0.8734
 1394TIP3    H1 4188   3.002   2.415   1.769 -1.4118  1.4556  0.5932
 1394TIP3    H2 4189   3.131   2.434   1.846 -0.1550  0.4969 -1.1898
 1395TIP3   OH2 4190   3.005   5.943   3.201 -0.1944 -0.0074  0.3799
 1395TIP3    H1 4191   3.062   5.922   3.127  0.0011  0.1963  0.4706
 1395TIP3    H2 4192   3.036   5.887   3.272  0.1395  0.3785  0.5389
 1396TIP3   OH2 4193   0.417   2.197   2.117 -0.0896  0.0725  0.2226
 1396TIP3    H1 4194   0.324   2.219   2.130  0.3477  1.8929  0.5185
 1396TIP3    H2 4195   0.445   2.164   2.203  0.4122  3.0544  1.3070
 1397TIP3   OH2 4196   5.580   1.094   4.485 -0.1131 -0.8140  0.5552
 1397TIP3    H1 4197   5.674   1.076   4.494 -0.0909 -1.0740 -0.0950
 1397TIP3    H2 4198   5.542   1.009   4.461 -0.5274 -0.7268  0.9035
 1398TIP3   OH2 4199   5.150   1.721   4.029 -0.3728  0.0228  0.0115
 1398TIP3    H1 4200   5.233   1.680   4.007  0.2548  1.7727 -1.1343
 1398TIP3    H2 4201   5.158   1.743   4.122 -0.2916 -1.3989  0.3557
 1399TIP3   OH2 4202   5.145   5.813   2.959 -0.2617  0.1836  0.0649
 1399TIP3    H1 4203   5.153   5.751   2.886  1.2565  1.5016 -0.9544
 1399TIP3    H2 4204   5.222   5.795   3.014  0.0186  0.9469 -0.0729
 1400TIP3   OH2 4205   3.141   5.610   0.808 -0.1481 -0.2098 -0.1794
 1400TIP3    H1 4206   3.095   5.593   0.725  0.8232 -2.1712 -0.3865
 1400TIP3    H2 4207   3.103   5.547   0.869 -1.6130  1.9154  1.2593
 1401TIP3   OH2 4208   5.690   4.277   4.817 -0.4239 -0.1148 -0.1029
 1401TIP3    H1 4209   5.687   4.347   4.883  0.1690  0.0947 -0.2953
 1401TIP3    H2 4210   5.598   4.260   4.797 -0.6585 -0.7756  1.3905
 1402TIP3   OH2 4211   1.037   1.197   2.171  0.1972 -0.5848 -0.6724
 1402TIP3    H1 4212   1.010   1.271   2.118 -0.4478 -0.2890  0.0528
 1402TIP3    H2 4213   1.098   1.148   2.115 -0.6553 -0.4286 -1.7646
 1403TIP3   OH2 4214   0.207   4.504   5.144 -0.0986  0.3197  0.9539
 1403TIP3    H1 4215   0.254   4.425   5.168  1.0959  0.6569 -0.1213
 1403TIP3    H2 4216   0.149   4.522   5.218  1.6396  0.0045  2.4661
 1404TIP3   OH2 4217   5.719   4.364   0.533 -0.4311 -0.1629 -0.4933
 1404TIP3    H1 4218   5.653   4.319   0.585  0.7549 -0.7028  0.6162
 1404TIP3    H2 4219   5.725   4.313   0.452 -0.6742 -0.6908 -0.1801
 1405TIP3   OH2 4220   4.055   4.364   2.066 -0.6675  0.1840 -0.0230
 1405TIP3    H1 4221   4.048   4.440   2.124 -1.2406 -0.2668  0.5120
 1405TIP3    H2 4222   3.965   4.334   2.056 -0.7257  0.8848 -2.0167
 1406TIP3   OH2 4223   4.770   0.139   4.393 -0.1203  0.0805 -0.2007
 1406TIP3    H1 4224   4.676   0.129   4.410  0.1271 -0.8400  0.6891
 1406TIP3    H2 4225   4.796   0.057   4.351  0.0931  0.7508 -1.4320
 1407TIP3   OH2 4226   0.796   4.512   3.567  0.2306  0.3376 -0.6334
 1407TIP3    H1 4227   0.814   4.486   3.476  0.4689 -0.7536 -0.2885
 1407TIP3    H2 4228   0.718   4.567   3.561 -0.0119 -0.0759 -1.4558
 1408TIP3   OH2 4229   2.867   3.690   2.659  0.5944 -0.7514 -0.2478
 1408TIP3    H1 4230   2.780   3.721   2.635 -0.3317 -0.2966  3.1234
 1408TIP3    H2 4231   2.912   3.675   2.576 -1.8245  1.4477 -2.0967
 1409TIP3   OH2 4232   0.466   4.495   2.552  0.5076  0.4855 -0.2068
 1409TIP3    H1 4233   0.424   4.442   2.483 -0.8843  0.7323  0.4130
 1409TIP3    H2 4234   0.483   4.579   2.510 -0.4015  0.6595 -0.2606
 1410TIP3   OH2 4235   2.965   3.624   1.754 -0.1155  0.5732  0.4214
 1410TIP3    H1 4236   3.021   3.575   1.693  1.0097  1.3129  0.8238
 1410TIP3    H2 4237   2.999   3.714   1.751 -2.5496  1.5273 -0.8038
 1411TIP3   OH2 4238   3.548   2.460   5.098  0.0604 -0.2678  0.3609
 1411TIP3    H1 4239   3.481   2.445   5.165  0.2341  1.5932  1.0373
 1411TIP3    H2 4240   3.551   2.556   5.089  0.7685 -0.4308 -1.5831
 1412TIP3   OH2 4241   4.711   1.435   3.632  0.1550  0.3280  0.1941
 1412TIP3    H1 4242   4.730   1.386   3.712 -1.1665  1.2739  1.1209
 1412TIP3    H2 4243   4.719   1.370   3.562  2.6537 -0.2380  0.9043
 1413TIP3   OH2 4244   3.820   3.159   2.243  0.5357 -0.2734  0.5989
 1413TIP3    H1 4245   3.836   3.228   2.179 -0.3376  0.2094  0.8897
 1413TIP3    H2 4246   3.899   3.105   2.240  0.8192  0.1722 -0.3395
 1414TIP3   OH2 4247   1.183   2.212   0.733  0.0957  0.3803 -0.3369
 1414TIP3    H1 4248   1.253   2.248   0.679 -0.1435  0.9344 -0.2836
 1414TIP3    H2 4249   1.186   2.262   0.814  0.2588 -0.2499  0.0467
 1415TIP3   OH2 4250   4.496   2.752   0.595  0.8070  0.4446 -0.4205
 1415TIP3    H1 4251   4.410   2.792   0.581  0.0726 -1.1287 -0.6208
 1415TIP3    H2 4252   4.534   2.747   0.507 -0.7771 -2.8258 -1.0498
 1416TIP3   OH2 4253   2.945   2.198   4.222  0.5902 -0.3675 -0.1735
 1416TIP3    H1 4254   2.887   2.182   4.147  0.8916  0.6638 -0.6490
 1416TIP3    H2 4255   3.010   2.129   4.217  1.0182  0.0885 -1.2986
 1417TIP3   OH2 4256   3.044   3.263   1.979 -0.1605 -0.6350 -0.3176
 1417TIP3    H1 4257   3.096   3.210   1.919 -2.3438 -0.4842 -2.5080
 1417TIP3    H2 4258   2.954   3.253   1.948 -1.1096  1.3800  1.5104
 1418TIP3   OH2 4259   3.575   3.837   1.593 -0.2314 -0.1895  0.8820
 1418TIP3    H1 4260   3.512   3.908   1.605 -1.2902 -1.1829  1.2771
 1418TIP3    H2 4261   3.661   3.880   1.604 -0.8209  1.1280  0.5645
 1419TIP3   OH2 4262   2.669   1.519   4.609  0.0272  0.0977 -0.6055
 1419TIP3    H1 4263   2.595   1.555   4.561 -1.3569 -2.4243 -0.5254
 1419TIP3    H2 4264   2.663   1.559   4.696 -0.2851  1.0962 -1.0729
 1420TIP3   OH2 4265   3.768   2.383   4.122 -0.1070  0.1670  0.5832
 1420TIP3    H1 4266   3.829   2.313   4.094  1.0604  0.6469  1.8152
 1420TIP3    H2 4267   3.812   2.464   4.097  0.1226  0.5454  2.1054
 1421TIP3   OH2 4268   5.819   0.418   1.649  0.1794 -0.1491  0.2964
 1421TIP3    H1 4269   5.824   0.436   1.743  1.8453 -0.4149  0.2937
 1421TIP3    H2 4270   5.882   0.478   1.610  1.8651 -2.1487 -0.2643
 1422TIP3   OH2 4271   6.316   3.740   0.336  0.0807 -1.0491  0.3880
 1422TIP3    H1 4272   6.389   3.678   0.339 -0.1201 -1.2780  0.6546
 1422TIP3    H2 4273   6.324   3.789   0.418  0.3149 -0.6275  0.1198
 1423TIP3   OH2 4274   0.474   2.064   4.579 -0.5477  0.2957 -0.0650
 1423TIP3    H1 4275   0.558   2.109   4.590 -0.4446  0.0387  0.2082
 1423TIP3    H2 4276   0.416   2.130   4.541 -0.4898  0.7669  0.6439
 1424TIP3   OH2 4277   3.344   1.795   1.446  0.4127 -0.0923 -0.3924
 1424TIP3    H1 4278   3.258   1.813   1.483  0.4693 -0.8557  0.1286
 1424TIP3    H2 4279   3.405   1.805   1.519  0.5638 -1.2460 -0.3348
 1425TIP3   OH2 4280   3.220   0.750   1.652 -0.4977  0.0661  0.3934
 1425TIP3    H1 4281   3.224   0.818   1.584 -0.4082  0.5989  0.9222
 1425TIP3    H2 4282   3.172   0.678   1.611  1.9735 -0.7747 -1.2204
 1426TIP3   OH2 4283   1.091   1.916   1.996  0.6113  0.5033  0.6532
 1426TIP3    H1 4284   1.060   2.005   1.982  0.0805  0.3829  1.0463
 1426TIP3    H2 4285   1.054   1.890   2.080  1.4203  0.1943  0.9240
 1427TIP3   OH2 4286   4.352   4.092   2.194  0.4674 -0.0619 -0.1680
 1427TIP3    H1 4287   4.396   4.116   2.112  0.4614 -2.1177 -0.8270
 1427TIP3    H2 4288   4.384   4.004   2.213  0.0626  0.1755  1.7817
 1428TIP3   OH2 4289   5.895   2.779   4.337  0.0307  0.4386 -0.1488
 1428TIP3    H1 4290   5.848   2.813   4.414 -0.8860 -1.2814  0.0856
 1428TIP3    H2 4291   5.826   2.744   4.281  0.8601  0.0267 -0.9155
 1429TIP3   OH2 4292   2.873   0.646   5.005  0.3468 -0.3010 -0.3182
 1429TIP3    H1 4293   2.887   0.723   5.060 -0.8160  0.3623 -0.9172
 1429TIP3    H2 4294   2.944   0.648   4.942 -0.5631  1.2117 -1.3350
 1430TIP3   OH2 4295   4.569   4.661   1.569 -0.2217 -0.0279  0.1267
 1430TIP3    H1 4296   4.631   4.668   1.642  1.2361  1.3678 -1.1821
 1430TIP3    H2 4297   4.546   4.568   1.567  2.3831 -0.7706  0.2583
 1431TIP3   OH2 4298   0.635   3.849   4.030  0.2651  0.3260 -0.3550
 1431TIP3    H1 4299   0.634   3.902   4.109  0.4218 -0.8066  0.4242
 1431TIP3    H2 4300   0.680   3.902   3.965 -2.0970  2.3702 -0.4870
 1432TIP3   OH2 4301   4.377   0.711   4.072 -0.0163  0.5079  0.1224
 1432TIP3    H1 4302   4.354   0.638   4.014 -1.0088  2.0270 -1.4935
 1432TIP3    H2 4303   4.446   0.758   4.025  0.3727  0.8138  0.9813
 1433TIP3   OH2 4304   4.349   3.495   2.151 -0.1022 -0.0574  0.2883
 1433TIP3    H1 4305   4.339   3.477   2.058 -0.7572  0.5159  0.2416
 1433TIP3    H2 4306   4.439   3.528   2.159  0.1894 -0.7471 -0.0258
 1434TIP3   OH2 4307   3.745   5.593   3.732  0.3597  0.9117 -0.7086
 1434TIP3    H1 4308   3.677   5.615   3.669  0.5710 -1.5244 -1.9258
 1434TIP3    H2 4309   3.709   5.618   3.817 -1.0835  1.7301 -1.5300
 1435TIP3   OH2 4310   6.097   5.423   3.338  0.4031 -0.4634  0.5902
 1435TIP3    H1 4311   6.162   5.493   3.337 -1.3891  1.2856 -1.2425
 1435TIP3    H2 4312   6.124   5.365   3.267  1.1133 -0.9270  1.2194
 1436TIP3   OH2 4313   3.742   3.765   1.107 -0.5464  0.0261  0.4052
 1436TIP3    H1 4314   3.797   3.833   1.068 -1.5008 -0.3579 -1.7207
 1436TIP3    H2 4315   3.684   3.813   1.166 -0.8896  1.0309 -0.7047
 1437TIP3   OH2 4316   2.128   5.514   2.484 -0.7259 -0.1935  0.1939
 1437TIP3    H1 4317   2.121   5.420   2.469  0.3770 -0.4703  1.2584
 1437TIP3    H2 4318   2.047   5.537   2.529 -1.4918 -0.4065 -1.0298
 1438TIP3   OH2 4319   2.932   4.098   4.956  0.1433 -0.1730  0.0734
 1438TIP3    H1 4320   2.997   4.041   4.916 -0.0145 -0.1465 -0.2264
 1438TIP3    H2 4321   2.982   4.160   5.008  0.3689 -0.0014 -0.3513
 1439TIP3   OH2 4322   0.194   0.505   1.669  0.4114  0.7165 -0.1879
 1439TIP3    H1 4323   0.193   0.420   1.714  1.6832  1.2692  0.9499
 1439TIP3    H2 4324   0.216   0.484   1.578  0.4154 -0.2004  0.0182
 1440TIP3   OH2 4325   1.081   5.919   0.091 -0.0750  0.4173  0.2091
 1440TIP3    H1 4326   1.013   5.985   0.076 -1.5274 -1.0248  0.1635
 1440TIP3    H2 4327   1.147   5.964   0.144 -1.1100  1.8370  0.3611
 1441TIP3   OH2 4328   3.044   3.345   4.702 -0.3459 -0.0962 -0.0634
 1441TIP3    H1 4329   3.061   3.252   4.713 -1.9629 -0.5603 -1.0768
 1441TIP3    H2 4330   3.119   3.389   4.743  0.9569 -1.8367 -0.4825
 1442TIP3   OH2 4331   0.232   5.218   1.354  0.2383 -0.0952  0.3133
 1442TIP3    H1 4332   0.197   5.157   1.290  1.7789 -1.1101  0.3785
 1442TIP3    H2 4333   0.240   5.301   1.307  0.0625 -0.4732 -0.3962
 1443TIP3   OH2 4334   2.813   2.761   0.447  0.0069  0.1242  0.6323
 1443TIP3    H1 4335   2.805   2.816   0.525  1.5446  2.3211 -0.6595
 1443TIP3    H2 4336   2.729   2.771   0.402 -0.7708 -0.9042  1.7879
 1444TIP3   OH2 4337   0.739   3.040   3.320 -0.2181  0.5201  0.0114
 1444TIP3    H1 4338   0.791   3.038   3.400  0.4679  0.1523 -0.4368
 1444TIP3    H2 4339   0.730   2.948   3.294  1.0416  0.7184 -1.2591
 1445TIP3   OH2 4340   3.268   0.754   4.093 -0.5206  0.5758  0.4327
 1445TIP3    H1 4341   3.248   0.843   4.062 -2.4868  0.4200  1.1255
 1445TIP3    H2 4342   3.200   0.699   4.054 -0.0176 -0.4409  0.9502
 1446TIP3   OH2 4343   5.086   2.283   1.967  0.1037  0.1759 -0.2347
 1446TIP3    H1 4344   5.108   2.198   1.929  0.5487  0.2757 -0.2043
 1446TIP3    H2 4345   5.160   2.339   1.945 -0.3109  0.6285 -0.4783
 1447TIP3   OH2 4346   0.545   4.028   0.087 -0.1993  0.5908  0.2508
 1447TIP3    H1 4347   0.575   4.036  -0.003 -2.4484 -0.9822 -0.7506
 1447TIP3    H2 4348   0.538   4.118   0.119  0.7769  1.1620 -1.0799
 1448TIP3   OH2 4349   0.815   2.925   1.988 -0.1807  0.4319  0.6629
 1448TIP3    H1 4350   0.878   2.993   1.965  0.2517  0.1017  0.8660
 1448TIP3    H2 4351   0.730   2.968   1.983 -0.2151  0.2220 -2.3370
 1449TIP3   OH2 4352   0.386   5.549   3.382 -0.1828 -0.0771  0.9400
 1449TIP3    H1 4353   0.413   5.608   3.312 -0.1830 -0.9815  0.1517
 1449TIP3    H2 4354   0.328   5.486   3.339 -0.7719 -0.2201  1.9075
 1450TIP3   OH2 4355   4.832   3.705   0.266  0.2365 -0.3040 -0.5264
 1450TIP3    H1 4356   4.839   3.722   0.172  0.5507 -1.8058 -0.8051
 1450TIP3    H2 4357   4.752   3.652   0.274  0.4922 -0.6144 -0.0266
 1451TIP3   OH2 4358   5.993   5.292   5.045  0.0613 -0.0818  0.0918
 1451TIP3    H1 4359   6.042   5.346   5.107  0.0479  0.6621 -0.5427
 1451TIP3    H2 4360   6.061   5.247   4.994  0.0740 -0.1970  0.2096
 1452TIP3   OH2 4361   4.743   0.265   3.620 -0.2374  0.4473  0.2264
 1452TIP3    H1 4362   4.689   0.227   3.551  0.2598  2.0207 -1.1128
 1452TIP3    H2 4363   4.728   0.210   3.696 -0.7704 -1.3996 -1.1479
 1453TIP3   OH2 4364   2.575   5.153   1.374  0.2715  0.2629  0.0052
 1453TIP3    H1 4365   2.667   5.179   1.370  0.3631 -0.2115 -1.5778
 1453TIP3    H2 4366   2.542   5.168   1.286 -1.2984  0.8136  0.6411
 1454TIP3   OH2 4367   1.602   2.927   0.048 -0.1687  0.6638 -0.0105
 1454TIP3    H1 4368   1.612   3.017   0.016  1.4344  0.4807 -0.0891
 1454TIP3    H2 4369   1.641   2.873  -0.020 -0.3836 -0.0385  0.4157
 1455TIP3   OH2 4370   2.242   3.031   0.302 -0.0929 -0.5377  0.3127
 1455TIP3    H1 4371   2.294   2.951   0.305 -0.5282 -0.7992  2.2394
 1455TIP3    H2 4372   2.274   3.078   0.224  1.3227 -1.7910  0.0945
 1456TIP3   OH2 4373   0.260   1.022   2.194 -0.4259  0.0785  0.3085
 1456TIP3    H1 4374   0.248   0.955   2.127 -0.6561  0.3305  0.0948
 1456TIP3    H2 4375   0.321   0.983   2.257  1.0939  0.4540 -0.8728
 1457TIP3   OH2 4376   3.403   1.385   0.584 -0.1306  0.5620  0.5958
 1457TIP3    H1 4377   3.464   1.436   0.531 -0.2726 -0.5230 -0.6887
 1457TIP3    H2 4378   3.317   1.423   0.565 -0.0025  1.2447  1.3685
 1458TIP3   OH2 4379   1.122   1.042   2.384 -0.1622  0.0405  0.1781
 1458TIP3    H1 4380   1.070   1.088   2.318 -1.5038 -1.7266 -0.0653
 1458TIP3    H2 4381   1.120   0.950   2.357 -0.5074 -0.7093  2.4891
 1459TIP3   OH2 4382   1.646   0.797   2.766  0.2954 -0.5772  0.0428
 1459TIP3    H1 4383   1.571   0.740   2.747  0.2667 -1.8020  3.2094
 1459TIP3    H2 4384   1.639   0.868   2.703 -0.0455 -3.6508 -3.7451
 1460TIP3   OH2 4385   0.383   3.195   1.791 -0.2693  0.0237 -0.1729
 1460TIP3    H1 4386   0.343   3.136   1.727  0.2285  0.2957 -0.7495
 1460TIP3    H2 4387   0.476   3.191   1.772  0.2239 -1.8460  2.2070
 1461TIP3   OH2 4388   4.411   3.643   3.138 -0.4318 -0.0380  0.8993
 1461TIP3    H1 4389   4.433   3.606   3.052  1.4118  0.3777  1.1419
 1461TIP3    H2 4390   4.406   3.568   3.196  0.9108 -0.1285  0.9211
 1462TIP3   OH2 4391   5.051   3.995   4.980  0.6454 -0.2653  0.3741
 1462TIP3    H1 4392   4.968   4.044   4.984  0.6148 -0.1948 -0.6419
 1462TIP3    H2 4393   5.078   3.984   5.071 -1.4205 -1.8914  0.8754
 1463TIP3   OH2 4394   5.321   2.431   1.920  0.4116  0.4848  0.0498
 1463TIP3    H1 4395   5.346   2.492   1.989 -1.0409  0.9655  0.1830
 1463TIP3    H2 4396   5.261   2.481   1.864 -1.0172 -0.8398  0.3116
 1464TIP3   OH2 4397   1.975   0.705   2.990  0.0543 -0.4505 -0.2831
 1464TIP3    H1 4398   1.904   0.756   3.028  0.8781  1.1175 -0.7627
 1464TIP3    H2 4399   2.007   0.650   3.062 -2.4751 -2.2460 -0.3825
 1465TIP3   OH2 4400   1.164   5.489   4.151 -0.5401 -0.3447 -0.1666
 1465TIP3    H1 4401   1.133   5.445   4.231 -2.7255 -0.3285 -0.9488
 1465TIP3    H2 4402   1.108   5.566   4.143 -0.2775 -0.2872 -1.6607
 1466TIP3   OH2 4403   6.321   1.095   0.490 -0.0904 -0.0595  0.0599
 1466TIP3    H1 4404   6.321   1.127   0.400  1.0946 -2.5036 -0.8941
 1466TIP3    H2 4405   6.263   1.155   0.537 -0.4118  1.5302 -2.2162
 1467TIP3   OH2 4406   1.433   2.981   3.755  0.3289 -0.1730 -0.3854
 1467TIP3    H1 4407   1.410   3.056   3.811 -2.5337 -0.9779 -0.3304
 1467TIP3    H2 4408   1.382   2.908   3.791 -0.0671 -1.1923 -2.8393
 1468TIP3   OH2 4409   4.695   1.119   2.247 -0.0145  0.0431  0.1660
 1468TIP3    H1 4410   4.629   1.101   2.314  0.5369 -0.5744  0.5457
 1468TIP3    H2 4411   4.644   1.130   2.166 -0.5881 -0.3577  0.4650
 1469TIP3   OH2 4412   3.313   2.359   4.175 -0.8548 -0.5175 -0.3516
 1469TIP3    H1 4413   3.371   2.420   4.129 -1.1911 -0.0279 -0.1351
 1469TIP3    H2 4414   3.230   2.365   4.129 -1.6498  1.0949  1.1721
 1470TIP3   OH2 4415   6.137   5.619   4.625  0.2607  0.8750 -0.3005
 1470TIP3    H1 4416   6.111   5.559   4.694 -1.4006 -0.8541 -2.2599
 1470TIP3    H2 4417   6.102   5.704   4.652  0.6677  0.5027  1.4681
 1471TIP3   OH2 4418   5.328   3.823   4.367 -0.5121 -0.2219 -0.0674
 1471TIP3    H1 4419   5.260   3.763   4.336 -0.3767 -0.9366  1.0041
 1471TIP3    H2 4420   5.404   3.767   4.383  0.6328  0.6574 -1.9811
 1472TIP3   OH2 4421   0.880   5.977   1.190 -0.2893 -0.1818  0.2356
 1472TIP3    H1 4422   0.814   5.964   1.257 -0.5534  1.3539  0.2925
 1472TIP3    H2 4423   0.837   5.951   1.108 -0.2727 -1.1431  0.5177
 1473TIP3   OH2 4424   5.339   3.522   4.338  0.0081 -0.1283  0.1207
 1473TIP3    H1 4425   5.262   3.516   4.395  0.8091 -2.3458  1.1028
 1473TIP3    H2 4426   5.410   3.547   4.397  0.6224 -1.2843 -0.1104
 1474TIP3   OH2 4427   3.641   0.492   3.281 -0.0980  0.7264 -0.3263
 1474TIP3    H1 4428   3.547   0.486   3.261 -0.4206 -1.2101  1.4002
 1474TIP3    H2 4429   3.651   0.576   3.325 -1.3168  0.3987  0.6443
 1475TIP3   OH2 4430   0.006   3.573   3.954 -0.2639 -0.1528  0.0436
 1475TIP3    H1 4431   0.033   3.624   3.877  0.6132 -0.9097 -0.1706
 1475TIP3    H2 4432   0.067   3.499   3.957  0.2438  0.2798  1.9314
 1476TIP3   OH2 4433   1.696   1.847   4.947 -0.0937 -0.3985 -0.1361
 1476TIP3    H1 4434   1.682   1.905   4.871 -0.9508 -0.2486  0.1323
 1476TIP3    H2 4435   1.722   1.907   5.017  1.1722 -0.5847 -0.4072
 1477TIP3   OH2 4436   4.924   1.044   1.290  0.3814 -0.5269 -0.0014
 1477TIP3    H1 4437   4.943   0.962   1.336  1.2606 -0.2749  0.0965
 1477TIP3    H2 4438   4.932   1.021   1.197  2.0026 -0.2497  0.0456
 1478TIP3   OH2 4439   1.258   2.685   0.342 -0.3647 -0.1114 -0.1724
 1478TIP3    H1 4440   1.240   2.706   0.250  0.2274 -2.0446 -0.7683
 1478TIP3    H2 4441   1.202   2.745   0.391 -0.1840  1.4590 -1.7543
 1479TIP3   OH2 4442   4.706   2.615   4.811 -0.6228 -0.4704  0.1048
 1479TIP3    H1 4443   4.788   2.567   4.806 -1.0429 -1.1423 -0.5074
 1479TIP3    H2 4444   4.724   2.688   4.871  1.0158  0.5369 -1.5069
 1480TIP3   OH2 4445   0.280   0.719   0.110  0.5334 -0.4077 -0.3404
 1480TIP3    H1 4446   0.329   0.770   0.175  0.1302 -1.7194  1.0604
 1480TIP3    H2 4447   0.311   0.751   0.025  1.7313  0.7513  0.4970
 1481TIP3   OH2 4448   3.006   2.956   3.688 -0.2615  0.0558  0.0611
 1481TIP3    H1 4449   3.065   2.968   3.614 -0.9617  0.8076 -0.3847
 1481TIP3    H2 4450   3.053   2.993   3.763 -0.7610  2.0659 -0.5677
 1482TIP3   OH2 4451   1.430   0.855   4.186  0.5631 -0.1580 -0.1922
 1482TIP3    H1 4452   1.478   0.904   4.119  0.3050 -0.4420 -0.5884
 1482TIP3    H2 4453   1.380   0.790   4.137 -0.3120  0.1998  0.2059
 1483TIP3   OH2 4454   5.527   2.252   1.032  0.3677  0.4146 -0.3873
 1483TIP3    H1 4455   5.506   2.297   0.951  1.3520 -2.7036 -2.5619
 1483TIP3    H2 4456   5.443   2.243   1.077 -0.3520  1.4197 -1.4758
 1484TIP3   OH2 4457   2.917   1.084   4.920 -0.7409 -0.4630 -0.7011
 1484TIP3    H1 4458   2.924   1.166   4.968  0.4663 -0.5012 -0.7793
 1484TIP3    H2 4459   2.824   1.060   4.926 -0.9251  0.4098  0.1253
 1485TIP3   OH2 4460   0.214   0.667   2.431  0.3277  0.1207 -0.1819
 1485TIP3    H1 4461   0.299   0.623   2.425  0.6673  0.8110 -0.5280
 1485TIP3    H2 4462   0.192   0.690   2.341  0.7406  1.7378  0.1043
 1486TIP3   OH2 4463   1.491   5.499   2.941  0.3450  0.2155 -0.1479
 1486TIP3    H1 4464   1.530   5.528   3.024 -0.3168 -2.3771  1.1610
 1486TIP3    H2 4465   1.398   5.523   2.949  0.4189  0.6207 -0.4761
 1487TIP3   OH2 4466   5.773   5.665   4.640 -0.2105  0.0461 -0.0875
 1487TIP3    H1 4467   5.806   5.612   4.712 -0.4957  0.7508  0.5779
 1487TIP3    H2 4468   5.833   5.739   4.634 -0.5138  0.2872 -0.2019
 1488TIP3   OH2 4469   2.512   5.183   5.086 -0.2951  0.4243  0.1652
 1488TIP3    H1 4470   2.511   5.128   5.165  0.8439  1.8800  1.2461
 1488TIP3    H2 4471   2.539   5.269   5.117 -1.7590  1.5580 -1.5346
 1489TIP3   OH2 4472   6.091   2.254   1.792 -0.2548 -0.2910 -0.0720
 1489TIP3    H1 4473   6.000   2.276   1.812 -0.0070  2.3034 -1.4739
 1489TIP3    H2 4474   6.086   2.205   1.710 -0.4718 -1.8687  0.8374
 1490TIP3   OH2 4475   2.469   0.170   1.740  0.1058 -0.2216  0.6107
 1490TIP3    H1 4476   2.469   0.190   1.834  0.0781 -0.6352  0.6994
 1490TIP3    H2 4477   2.377   0.178   1.714  0.2885  1.2946  0.3091
 1491TIP3   OH2 4478   2.721   4.497   4.291 -0.1697 -0.1636  0.2514
 1491TIP3    H1 4479   2.654   4.511   4.358  0.7108  0.2442  1.0702
 1491TIP3    H2 4480   2.721   4.579   4.240  0.2683  0.1720  0.7757
 1492TIP3   OH2 4481   1.153   1.174   4.079 -0.3791 -0.6975  0.0980
 1492TIP3    H1 4482   1.191   1.122   4.008 -0.4825 -0.6952  0.0418
 1492TIP3    H2 4483   1.106   1.111   4.133  0.8341 -0.9304  0.9354
 1493TIP3   OH2 4484   3.462   3.325   2.149 -0.3958  0.0075 -0.2052
 1493TIP3    H1 4485   3.529   3.332   2.081 -0.7445 -2.2825 -0.8658
 1493TIP3    H2 4486   3.512   3.327   2.231  0.2615  0.5121 -0.6062
 1494TIP3   OH2 4487   4.160   5.795   3.109  0.1869  0.0702  0.6305
 1494TIP3    H1 4488   4.093   5.760   3.167  1.3746 -0.8285  1.4914
 1494TIP3    H2 4489   4.128   5.882   3.086 -1.1867 -0.2760  1.1518
 1495TIP3   OH2 4490   3.434   5.618   0.959  0.5992 -0.9399  0.1946
 1495TIP3    H1 4491   3.351   5.652   0.925  1.6404  1.3121 -0.2783
 1495TIP3    H2 4492   3.413   5.530   0.990 -1.6363 -0.9743 -1.2132
 1496TIP3   OH2 4493   0.195   5.599   2.222  0.0383  0.1763 -0.1714
 1496TIP3    H1 4494   0.212   5.508   2.243 -0.8543 -0.1915 -0.9735
 1496TIP3    H2 4495   0.278   5.631   2.187  0.9622  0.2659  1.9504
 1497TIP3   OH2 4496   4.863   3.599   2.192 -0.2052 -0.3005 -0.0015
 1497TIP3    H1 4497   4.895   3.611   2.103  0.4479  0.2182  0.2974
 1497TIP3    H2 4498   4.927   3.643   2.247 -1.7847  1.3799  0.5886
 1498TIP3   OH2 4499   4.797   0.456   3.875 -0.3748  0.5013 -0.2846
 1498TIP3    H1 4500   4.869   0.396   3.853 -0.5112  0.7593 -1.5030
 1498TIP3    H2 4501   4.724   0.398   3.897 -0.2382  0.2255 -0.5463
 1499TIP3   OH2 4502   5.744   5.199   4.931 -0.4343  0.0026 -0.6892
 1499TIP3    H1 4503   5.831   5.237   4.936 -0.6534  0.5198 -0.7225
 1499TIP3    H2 4504   5.759   5.106   4.911  0.1055  0.0647 -0.5895
 1500TIP3   OH2 4505   0.735   5.968   1.432  0.6989 -0.4855  0.2809
 1500TIP3    H1 4506   0.696   6.036   1.377  0.2747 -1.1311 -0.2370
 1500TIP3    H2 4507   0.679   5.963   1.509 -0.0457 -1.1496 -0.2878
 1501TIP3   OH2 4508   3.416   4.824   3.642 -0.0494 -0.2698 -0.1000
 1501TIP3    H1 4509   3.404   4.816   3.736 -1.2131 -1.9429 -0.3263
 1501TIP3    H2 4510   3.330   4.852   3.609 -0.5711 -2.5214 -0.8687
 1502TIP3   OH2 4511   0.919   3.347   5.151  0.2205 -0.5153 -0.4983
 1502TIP3    H1 4512   0.965   3.390   5.080  1.0900 -0.1185  0.2869
 1502TIP3    H2 4513   0.835   3.393   5.156 -0.1023 -0.9459 -1.6405
 1503TIP3   OH2 4514   5.504   4.310   3.451 -0.0712  0.0371 -1.2223
 1503TIP3    H1 4515   5.417   4.292   3.487  0.3921  1.2510  0.6081
 1503TIP3    H2 4516   5.564   4.258   3.505  0.5362  0.9434 -1.0072
 1504TIP3   OH2 4517   4.718   2.803   4.000  0.0374 -0.1056 -0.0938
 1504TIP3    H1 4518   4.802   2.834   3.965 -0.1439  0.3971 -0.0937
 1504TIP3    H2 4519   4.737   2.780   4.091 -0.2738  2.0652  0.5818
 1505TIP3   OH2 4520   5.427   5.266   0.319  0.2307  0.7302  1.2526
 1505TIP3    H1 4521   5.394   5.298   0.403 -0.5292 -1.6967  1.9517
 1505TIP3    H2 4522   5.402   5.173   0.317  2.0111  0.2211 -0.7646
 1506TIP3   OH2 4523   1.583   2.685   3.229  0.4214 -0.1008 -0.1976
 1506TIP3    H1 4524   1.645   2.650   3.293 -0.1246 -0.0087  0.3911
 1506TIP3    H2 4525   1.532   2.610   3.200 -0.2923  0.0738  0.5578
 1507TIP3   OH2 4526   3.944   1.603   4.843  0.3973 -0.4743 -0.3988
 1507TIP3    H1 4527   4.016   1.648   4.888 -2.5981  2.2656  2.1876
 1507TIP3    H2 4528   3.911   1.667   4.781 -0.0840 -1.5716 -1.3065
 1508TIP3   OH2 4529   3.149   4.304   0.466  0.8279 -0.3413 -0.4436
 1508TIP3    H1 4530   3.086   4.325   0.397  0.4497  1.4034  0.3895
 1508TIP3    H2 4531   3.127   4.214   0.492 -0.5827 -0.1572 -0.9186
 1509TIP3   OH2 4532   3.106   0.452   5.181  0.4519  0.4894 -0.2597
 1509TIP3    H1 4533   3.182   0.395   5.167 -0.3371 -0.7688  0.4558
 1509TIP3    H2 4534   3.048   0.434   5.107 -1.3965 -2.3664  1.6749
 1510TIP3   OH2 4535   4.453   2.780   4.894 -0.4184  0.3606  0.7857
 1510TIP3    H1 4536   4.390   2.707   4.901 -0.3950  0.4508  2.6777
 1510TIP3    H2 4537   4.530   2.749   4.942  1.1652  0.1370 -1.7526
 1511TIP3   OH2 4538   5.385   0.692   5.142  0.7285 -0.3214 -0.0869
 1511TIP3    H1 4539   5.292   0.670   5.148  0.0825  1.5570 -1.9414
 1511TIP3    H2 4540   5.393   0.775   5.189  1.3366 -0.1303 -0.5165
 1512TIP3   OH2 4541   3.311   5.326   2.674  0.7320 -0.0552  0.2735
 1512TIP3    H1 4542   3.272   5.391   2.732  1.2539  0.4382  0.0884
 1512TIP3    H2 4543   3.326   5.373   2.592  2.6963  0.0973  0.6750
 1513TIP3   OH2 4544   5.177   1.846   4.982 -0.3289  0.4626  0.4736
 1513TIP3    H1 4545   5.185   1.777   4.916  0.1760 -0.1553  1.1737
 1513TIP3    H2 4546   5.101   1.897   4.953 -1.7848 -1.3750  0.8166
 1514TIP3   OH2 4547   1.398   1.602   2.738 -0.2987 -0.7449 -0.3954
 1514TIP3    H1 4548   1.420   1.531   2.677 -0.3401  0.6636 -2.1353
 1514TIP3    H2 4549   1.427   1.570   2.823  0.8616 -2.3279 -1.3238
 1515TIP3   OH2 4550   5.113   1.710   4.734 -0.0022  0.9569  0.3258
 1515TIP3    H1 4551   5.185   1.753   4.687 -0.6302  0.2063 -1.4273
 1515TIP3    H2 4552   5.035   1.756   4.703 -0.5567 -0.4678 -0.4853
 1516TIP3   OH2 4553   6.021   3.870   0.603  0.2081  0.0013 -0.5038
 1516TIP3    H1 4554   5.936   3.843   0.639 -0.3298 -0.1719 -1.8419
 1516TIP3    H2 4555   6.084   3.843   0.669 -0.8870  1.6690  1.3337
 1517TIP3   OH2 4556   2.997   0.005   3.716  0.0222 -0.0313  0.0960
 1517TIP3    H1 4557   2.935   0.077   3.709 -1.0109 -0.9027 -0.1171
 1517TIP3    H2 4558   3.081   0.046   3.736 -0.6849  1.1658  0.7159
 1518TIP3   OH2 4559   5.523   4.821   1.587  0.2323 -0.3768 -0.4501
 1518TIP3    H1 4560   5.506   4.773   1.668  0.3197 -0.8151 -0.6842
 1518TIP3    H2 4561   5.579   4.762   1.537  0.3720 -0.0054 -0.7267
 1519TIP3   OH2 4562   2.501   3.531   1.982  0.3224  0.0784  0.2621
 1519TIP3    H1 4563   2.567   3.511   1.916 -0.0271  0.7695 -0.3023
 1519TIP3    H2 4564   2.435   3.583   1.936 -0.3840 -0.2043  0.9309
 1520TIP3   OH2 4565   2.698   5.316   2.755  0.2274  0.5164  0.5297
 1520TIP3    H1 4566   2.715   5.221   2.754 -1.2132  0.2150  1.6774
 1520TIP3    H2 4567   2.753   5.350   2.685 -1.4781 -1.5482 -1.9741
 1521TIP3   OH2 4568   1.043   5.308   4.826 -0.4502 -0.8460 -0.2902
 1521TIP3    H1 4569   1.075   5.263   4.747  1.2657 -2.2874  1.1313
 1521TIP3    H2 4570   1.086   5.263   4.898 -2.1998  0.2343  1.5301
 1522TIP3   OH2 4571   0.582   0.734   1.879 -0.0816  0.1185  0.6480
 1522TIP3    H1 4572   0.666   0.744   1.834 -1.1031  0.1227 -1.4082
 1522TIP3    H2 4573   0.564   0.640   1.875 -1.0649  0.3310 -0.7709
 1523TIP3   OH2 4574   3.452   0.863   0.982  0.1290  0.2126  0.2480
 1523TIP3    H1 4575   3.399   0.853   1.061  0.5379  0.0933  0.5149
 1523TIP3    H2 4576   3.510   0.936   1.002  1.2836 -0.7727  0.6735
 1524TIP3   OH2 4577   4.797   3.169   0.364 -0.0977  0.1153 -0.0572
 1524TIP3    H1 4578   4.810   3.256   0.327 -0.2308  1.0284  1.8756
 1524TIP3    H2 4579   4.776   3.113   0.289 -0.3325  1.8106 -1.3125
 1525TIP3   OH2 4580   5.783   5.432   2.926  0.7645 -0.4721 -0.0054
 1525TIP3    H1 4581   5.758   5.443   2.835 -0.1551  2.9297  0.5165
 1525TIP3    H2 4582   5.876   5.455   2.928  0.4696  0.7530  0.0754
 1526TIP3   OH2 4583   5.306   4.438   0.706  0.1125 -0.3872 -0.2851
 1526TIP3    H1 4584   5.365   4.364   0.688  1.0956  0.3123 -0.0116
 1526TIP3    H2 4585   5.275   4.423   0.795  0.3471 -0.4420 -0.2126
 1527TIP3   OH2 4586   2.076   3.842   1.024  0.1126  0.2198  0.4434
 1527TIP3    H1 4587   2.105   3.831   1.114  0.2398 -0.4217  0.3316
 1527TIP3    H2 4588   2.107   3.763   0.979 -1.1727 -0.1291  0.1540
 1528TIP3   OH2 4589   3.089   5.244   5.085 -0.2270  0.0517 -0.2885
 1528TIP3    H1 4590   3.078   5.279   4.997 -0.1061 -0.9050 -0.6970
 1528TIP3    H2 4591   3.063   5.316   5.143  3.2487  2.0871 -0.9622
 1529TIP3   OH2 4592   3.415   5.216   2.333  0.0553  0.4222 -0.1459
 1529TIP3    H1 4593   3.346   5.269   2.294  0.6723 -0.0849 -2.0087
 1529TIP3    H2 4594   3.368   5.150   2.384 -0.8316  0.3557 -1.0172
 1530TIP3   OH2 4595   2.563   3.003   0.222 -0.6189  0.1505 -0.5716
 1530TIP3    H1 4596   2.548   2.987   0.315 -0.6376 -2.2945 -0.9417
 1530TIP3    H2 4597   2.656   3.025   0.217 -0.4872 -0.2642 -0.0382
 1531TIP3   OH2 4598   0.848   1.716   4.398 -0.4870 -0.2882 -0.0340
 1531TIP3    H1 4599   0.882   1.787   4.453 -1.9034  0.2392  0.2245
 1531TIP3    H2 4600   0.804   1.762   4.326 -0.9053 -0.9210 -0.1871
 1532TIP3   OH2 4601   3.767   4.292   4.536  0.5340  0.2434  0.3332
 1532TIP3    H1 4602   3.734   4.227   4.474  1.1424  1.3918 -1.2383
 1532TIP3    H2 4603   3.852   4.259   4.564  1.2602  0.7724 -1.1704
 1533TIP3   OH2 4604   5.015   2.497   1.294  0.4580  0.6693 -0.2319
 1533TIP3    H1 4605   4.932   2.467   1.332 -0.8425  3.8772 -0.1884
 1533TIP3    H2 4606   5.078   2.430   1.319 -1.3719 -0.1042  3.0278
 1534TIP3   OH2 4607   5.947   4.735   2.644 -0.0849  0.0998  0.1610
 1534TIP3    H1 4608   5.998   4.668   2.689 -2.0162 -1.1057  0.7007
 1534TIP3    H2 4609   5.964   4.815   2.692 -0.4345 -0.7390  1.7677
 1535TIP3   OH2 4610   5.962   4.420   0.301 -0.2602 -0.2817  0.3020
 1535TIP3    H1 4611   5.978   4.325   0.306  3.2411  0.1556 -0.0816
 1535TIP3    H2 4612   5.969   4.440   0.208  1.5358  0.6546  0.6107
 1536TIP3   OH2 4613   3.909   4.687   0.077  0.2505  0.3058 -0.0427
 1536TIP3    H1 4614   3.994   4.691   0.119  0.0174  0.1586  0.4491
 1536TIP3    H2 4615   3.852   4.642   0.140 -1.1109  3.5473  1.2699
 1537TIP3   OH2 4616   3.248   0.927   2.280 -0.0179 -0.4798  0.2508
 1537TIP3    H1 4617   3.220   0.978   2.205  0.2503  0.1735  0.5846
 1537TIP3    H2 4618   3.325   0.878   2.249  0.4586  0.2517  0.2669
 1538TIP3   OH2 4619   1.370   0.346   5.017 -0.1330 -0.0241 -0.0135
 1538TIP3    H1 4620   1.390   0.253   5.007 -0.9837 -0.1288 -0.9668
 1538TIP3    H2 4621   1.390   0.365   5.108 -2.8362 -1.9213  1.1326
 1539TIP3   OH2 4622   3.242   0.104   2.369 -0.2007  0.1010  0.1013
 1539TIP3    H1 4623   3.211   0.033   2.426 -0.8076 -1.1879 -1.7254
 1539TIP3    H2 4624   3.166   0.127   2.316  0.5547  0.6626 -0.7711
 1540TIP3   OH2 4625   2.012   5.069   5.180  0.0060 -0.1240  0.2928
 1540TIP3    H1 4626   1.989   5.114   5.098 -1.0068  0.2239  0.7493
 1540TIP3    H2 4627   2.078   5.005   5.154 -0.7117 -0.4164 -0.9204
 1541TIP3   OH2 4628   2.999   3.894   2.880  0.2861 -0.1082  0.2421
 1541TIP3    H1 4629   2.994   3.922   2.789  0.0187  1.3524  0.6747
 1541TIP3    H2 4630   2.928   3.830   2.890 -0.4052  0.5502 -0.3108
 1542TIP3   OH2 4631   4.521   5.437   4.397 -0.5009 -0.5164 -0.2620
 1542TIP3    H1 4632   4.462   5.484   4.456 -1.0444 -0.3940 -0.8822
 1542TIP3    H2 4633   4.590   5.500   4.377 -0.7431 -0.2858 -0.3784
 1543TIP3   OH2 4634   1.372   2.192   4.686  0.1162 -0.2835  0.0390
 1543TIP3    H1 4635   1.438   2.246   4.642  0.1654 -1.1984 -1.0899
 1543TIP3    H2 4636   1.401   2.102   4.669 -1.3177 -0.6964 -0.3197
 1544TIP3   OH2 4637   4.865   2.110   4.221  0.2521  0.1002 -0.4491
 1544TIP3    H1 4638   4.886   2.040   4.160  0.5570 -0.6273  0.4606
 1544TIP3    H2 4639   4.916   2.185   4.190  0.4591 -0.2790 -1.0366
 1545TIP3   OH2 4640   4.387   3.435   4.614 -0.4452 -0.1846  0.9613
 1545TIP3    H1 4641   4.400   3.470   4.526 -1.9029 -1.6575  0.1015
 1545TIP3    H2 4642   4.468   3.390   4.635  0.1483  0.7161  0.6492
 1546TIP3   OH2 4643   5.001   5.290   4.726 -0.0657  0.6180  0.0321
 1546TIP3    H1 4644   4.991   5.253   4.814  3.6046 -0.5063  0.1809
 1546TIP3    H2 4645   5.093   5.316   4.722 -0.4663  1.9661 -3.0373
 1547TIP3   OH2 4646   4.248   0.765   2.770 -0.5411 -0.0206  0.1755
 1547TIP3    H1 4647   4.319   0.807   2.816  0.2973  1.6542 -2.4144
 1547TIP3    H2 4648   4.169   0.805   2.805  0.0735  1.3726  0.0308
 1548TIP3   OH2 4649   0.959   2.396   1.948  0.4271 -0.4266  0.1192
 1548TIP3    H1 4650   0.890   2.357   1.894  0.8685  1.9711 -2.3693
 1548TIP3    H2 4651   0.914   2.418   2.030 -1.6345  0.3467 -1.1291
 1549TIP3   OH2 4652   2.727   5.112   1.843  0.2237 -0.0033  0.5698
 1549TIP3    H1 4653   2.647   5.098   1.792  1.2114  0.6705 -1.2710
 1549TIP3    H2 4654   2.795   5.065   1.795  1.6071  2.4145 -0.0344
 1550TIP3   OH2 4655   0.502   0.898   2.278  0.3245 -0.0941 -0.5576
 1550TIP3    H1 4656   0.590   0.900   2.315 -0.5436 -0.6389  1.7454
 1550TIP3    H2 4657   0.473   0.808   2.291 -0.8694  0.2876 -0.4839
 1551TIP3   OH2 4658   5.083   3.742   1.851  0.0489 -0.2665  0.4179
 1551TIP3    H1 4659   4.992   3.731   1.880 -0.1656  0.0328 -0.1219
 1551TIP3    H2 4660   5.118   3.653   1.850  0.4208 -0.2129  2.6347
 1552TIP3   OH2 4661   2.717   3.622   0.199  0.5659 -0.2655 -0.2950
 1552TIP3    H1 4662   2.800   3.636   0.153 -0.1537  3.1160 -0.8365
 1552TIP3    H2 4663   2.672   3.555   0.148  1.1777  0.9978 -2.6568
 1553TIP3   OH2 4664   0.985   5.386   0.290 -0.5387 -0.1493  0.5152
 1553TIP3    H1 4665   1.046   5.458   0.273  0.0360 -0.7755 -0.1551
 1553TIP3    H2 4666   0.912   5.402   0.229 -1.6054  1.1902  2.0462
 1554TIP3   OH2 4667   6.277   3.986   3.008  0.2678 -0.0252  0.4939
 1554TIP3    H1 4668   6.372   3.992   3.011  0.2873 -0.5288  0.9689
 1554TIP3    H2 4669   6.247   4.032   3.087  0.2189 -1.7424  1.5180
 1555TIP3   OH2 4670   3.223   3.762   0.178 -0.0116 -0.0348 -0.1449
 1555TIP3    H1 4671   3.266   3.721   0.103 -2.0129 -0.9636 -0.8529
 1555TIP3    H2 4672   3.256   3.851   0.179 -1.0596  0.5135 -3.1630
 1556TIP3   OH2 4673   3.164   2.585   3.589 -0.3649  0.2554 -0.6145
 1556TIP3    H1 4674   3.225   2.640   3.639 -0.0498  1.5157 -2.3126
 1556TIP3    H2 4675   3.209   2.500   3.583  0.6162  0.7582 -0.6550
 1557TIP3   OH2 4676   1.174   3.467   4.592  0.0765  0.3343 -0.2052
 1557TIP3    H1 4677   1.140   3.532   4.531  0.1606  0.9786  0.4356
 1557TIP3    H2 4678   1.135   3.384   4.562 -1.3068  0.9087 -0.0459
 1558TIP3   OH2 4679   4.475   0.939   4.443  0.1047  0.0693 -0.6486
 1558TIP3    H1 4680   4.560   0.916   4.479  0.5736  0.3614 -1.5304
 1558TIP3    H2 4681   4.477   0.905   4.353 -1.3535 -1.4142 -0.1847
 1559TIP3   OH2 4682   3.063   1.297   3.973  0.1396 -0.4810  0.1227
 1559TIP3    H1 4683   3.143   1.335   3.936  0.3207  0.1502  1.1123
 1559TIP3    H2 4684   3.052   1.342   4.057 -1.5628 -0.1604 -0.2377
 1560TIP3   OH2 4685   6.235   5.057   3.909 -0.0285 -0.1246 -0.1579
 1560TIP3    H1 4686   6.175   4.991   3.875  0.9146  0.3386 -3.0564
 1560TIP3    H2 4687   6.185   5.139   3.906  0.3047  0.0526 -1.3405
 1561TIP3   OH2 4688   2.663   0.973   4.924  0.0582 -0.4283 -0.4033
 1561TIP3    H1 4689   2.621   0.939   4.845  0.8844  0.0672 -1.0649
 1561TIP3    H2 4690   2.605   1.042   4.956  0.6506  0.7018 -1.6795
 1562TIP3   OH2 4691   1.107   5.962   4.262 -0.6406  0.4900 -0.2416
 1562TIP3    H1 4692   1.150   5.989   4.344  0.3475  0.5946 -0.7769
 1562TIP3    H2 4693   1.031   6.019   4.255  0.6614  2.2409 -0.6678
 1563TIP3   OH2 4694   2.641   5.462   0.882  0.2392  0.3104  0.3441
 1563TIP3    H1 4695   2.633   5.535   0.820 -0.1751 -0.6372 -0.7629
 1563TIP3    H2 4696   2.685   5.500   0.958  2.4452  1.1544 -1.2303
 1564TIP3   OH2 4697   4.382   5.709   2.749  0.5873  0.3588  0.3025
 1564TIP3    H1 4698   4.353   5.660   2.826  1.4609 -0.7662 -0.0598
 1564TIP3    H2 4699   4.346   5.661   2.675 -0.3500  1.5008 -0.0155
 1565TIP3   OH2 4700   1.607   0.340   1.988  0.4806  0.2038  0.4330
 1565TIP3    H1 4701   1.632   0.433   1.984 -2.3289  0.9885 -1.5316
 1565TIP3    H2 4702   1.591   0.316   1.897 -1.2994 -1.4641  1.1246
 1566TIP3   OH2 4703   6.001   0.992   4.854 -0.3955  0.1197 -0.3242
 1566TIP3    H1 4704   6.023   1.019   4.765  0.2351  1.4957  0.2203
 1566TIP3    H2 4705   6.085   0.963   4.891 -0.2495  1.4536  0.4422
 1567TIP3   OH2 4706   1.264   5.871   3.666 -0.4753 -0.3074 -0.4020
 1567TIP3    H1 4707   1.184   5.845   3.621 -0.7018  0.3030 -0.3617
 1567TIP3    H2 4708   1.299   5.789   3.702 -1.0621 -0.5843 -0.4492
 1568TIP3   OH2 4709   3.981   2.924   1.860 -0.0739 -0.2582  0.2456
 1568TIP3    H1 4710   4.074   2.944   1.848  0.0403 -0.3226  0.9491
 1568TIP3    H2 4711   3.954   2.884   1.777  0.4145  0.1608 -0.1217
 1569TIP3   OH2 4712   3.613   4.735   4.132 -0.3167  0.0852 -0.0794
 1569TIP3    H1 4713   3.638   4.727   4.040 -0.0286 -2.8181  0.1759
 1569TIP3    H2 4714   3.690   4.707   4.181 -0.6742  1.0098  1.0601
 1570TIP3   OH2 4715   2.982   5.760   2.746 -0.0697 -0.2386 -0.3058
 1570TIP3    H1 4716   2.894   5.781   2.779  0.0871  0.2430 -0.1948
 1570TIP3    H2 4717   2.967   5.736   2.655 -0.2273  0.5464 -0.4916
 1571TIP3   OH2 4718   5.721   1.758   1.464 -0.0310  0.4117  0.7565
 1571TIP3    H1 4719   5.628   1.770   1.445 -0.2327 -0.5926  1.0409
 1571TIP3    H2 4720   5.730   1.664   1.484  1.3773  0.0877 -1.1116
 1572TIP3   OH2 4721   2.720   2.838   2.673 -0.0152  0.2565 -0.5820
 1572TIP3    H1 4722   2.637   2.883   2.694  0.9144  2.8581 -1.9551
 1572TIP3    H2 4723   2.787   2.903   2.694  1.9330 -2.3321  2.0217
 1573TIP3   OH2 4724   2.457   3.630   4.377 -0.7553 -0.7161 -0.2261
 1573TIP3    H1 4725   2.477   3.722   4.394  0.5622 -1.0531  0.0999
 1573TIP3    H2 4726   2.379   3.633   4.320 -0.4861  0.6047 -0.5552
 1574TIP3   OH2 4727   3.832   0.280   2.305 -0.4005 -0.0042 -0.6364
 1574TIP3    H1 4728   3.797   0.216   2.243 -1.6979 -0.7303  0.7486
 1574TIP3    H2 4729   3.829   0.234   2.390 -0.5849  1.6080  0.2671
 1575TIP3   OH2 4730   1.103   0.283   4.543  0.1665  0.5613  0.5195
 1575TIP3    H1 4731   1.159   0.357   4.520  0.3361  0.6583  1.2491
 1575TIP3    H2 4732   1.066   0.306   4.628  0.3973 -0.2965  0.8554
 1576TIP3   OH2 4733   3.073   1.745   0.142 -0.0872 -0.0908 -0.0327
 1576TIP3    H1 4734   3.050   1.735   0.234  0.7906  2.0471  0.4743
 1576TIP3    H2 4735   3.036   1.668   0.100 -0.6676 -1.0369  2.0641
 1577TIP3   OH2 4736   1.197   4.317   3.783  0.1606 -0.0191 -0.0387
 1577TIP3    H1 4737   1.251   4.364   3.846 -0.6951  4.0549 -1.9805
 1577TIP3    H2 4738   1.121   4.374   3.768 -1.9334 -2.8814 -1.4833
 1578TIP3   OH2 4739   2.703   3.006   5.172 -0.9161  0.3892 -0.3260
 1578TIP3    H1 4740   2.773   3.071   5.181 -1.3981  0.8898 -0.0856
 1578TIP3    H2 4741   2.624   3.058   5.159 -1.4141 -0.1241  0.5372
 1579TIP3   OH2 4742   3.027   3.127   4.474  0.0477  0.0794  0.0222
 1579TIP3    H1 4743   3.030   3.032   4.471 -1.5420  0.0055 -1.6432
 1579TIP3    H2 4744   3.040   3.150   4.566  0.2306 -1.7480  0.4744
 1580TIP3   OH2 4745   3.834   3.930   1.650 -0.2341 -0.0473  0.1709
 1580TIP3    H1 4746   3.812   3.974   1.732  2.4508  2.4545 -0.2950
 1580TIP3    H2 4747   3.920   3.891   1.666 -1.1544 -2.5714 -0.4764
 1581TIP3   OH2 4748   4.404   1.178   5.156  0.7405  0.2996  0.3751
 1581TIP3    H1 4749   4.423   1.086   5.141 -0.6204  0.1529 -0.6157
 1581TIP3    H2 4750   4.347   1.179   5.233 -0.9028  0.1015 -0.7963
 1582TIP3   OH2 4751   0.987   5.102   3.414  0.4272  0.3770 -0.5296
 1582TIP3    H1 4752   1.073   5.103   3.457  1.4163 -0.5739 -2.3622
 1582TIP3    H2 4753   0.963   5.009   3.412  0.7689  0.2834 -2.5882
 1583TIP3   OH2 4754   0.275   2.027   1.092 -0.1238  0.7039 -0.3193
 1583TIP3    H1 4755   0.327   2.067   1.022  0.3802  0.7801  0.0974
 1583TIP3    H2 4756   0.190   2.071   1.086  0.1436  1.2119 -0.4361
 1584TIP3   OH2 4757   1.047   1.370   3.936 -0.1970  0.8432  0.2212
 1584TIP3    H1 4758   1.065   1.325   3.853  1.1069  2.7609 -0.6128
 1584TIP3    H2 4759   1.076   1.309   4.003 -1.0404 -0.6507 -0.7249
 1585TIP3   OH2 4760   2.218   3.502   4.543 -0.0586  0.2992  0.5575
 1585TIP3    H1 4761   2.176   3.457   4.616  0.7532 -0.4561  0.5830
 1585TIP3    H2 4762   2.268   3.433   4.498  1.2515  1.1662  0.6222
 1586TIP3   OH2 4763   5.437   0.721   4.653  0.0724  0.3649 -0.3304
 1586TIP3    H1 4764   5.355   0.676   4.632  1.4404 -1.6101 -1.7346
 1586TIP3    H2 4765   5.457   0.771   4.574  0.7788 -0.0554 -0.4216
 1587TIP3   OH2 4766   3.420   0.389   0.320 -0.1182  0.3773  0.1787
 1587TIP3    H1 4767   3.498   0.362   0.369  0.8465 -1.3607 -2.0896
 1587TIP3    H2 4768   3.371   0.307   0.306 -1.2663  1.1064 -0.1948
 1588TIP3   OH2 4769   5.740   2.565   0.013 -0.0838 -0.2933  0.3698
 1588TIP3    H1 4770   5.737   2.656  -0.014  0.0270 -0.6460 -0.9121
 1588TIP3    H2 4771   5.726   2.567   0.107 -0.0731  1.0413  0.3595
 1589TIP3   OH2 4772   4.637   3.968   4.362 -0.0112  0.1680  0.0019
 1589TIP3    H1 4773   4.641   3.960   4.457  0.5597 -0.9235 -0.0950
 1589TIP3    H2 4774   4.727   3.951   4.333 -0.3327 -0.2875 -0.7690
 1590TIP3   OH2 4775   4.825   1.349   5.086 -0.3445 -0.1539 -0.5169
 1590TIP3    H1 4776   4.835   1.414   5.016 -0.3369  0.9488  0.4744
 1590TIP3    H2 4777   4.915   1.327   5.110 -0.3473 -0.7047 -1.0043
 1591TIP3   OH2 4778  -0.013   0.050   4.470  0.0398  0.1131 -0.1365
 1591TIP3    H1 4779   0.029   0.053   4.556 -1.3211 -0.9047  0.6227
 1591TIP3    H2 4780   0.031  -0.022   4.424  0.6538  0.5454 -0.2331
 1592TIP3   OH2 4781   1.367   3.321   2.069  0.2829 -0.2387  0.2340
 1592TIP3    H1 4782   1.350   3.270   1.989  0.1769 -0.1766  0.2179
 1592TIP3    H2 4783   1.281   3.344   2.102  0.2326  2.9297 -1.6463
 1593TIP3   OH2 4784   4.931   3.888   4.481 -0.0116 -0.5400 -0.7501
 1593TIP3    H1 4785   4.941   3.861   4.572 -0.2128  1.9290  0.0715
 1593TIP3    H2 4786   4.961   3.978   4.479 -2.3411  0.3137 -2.5795
 1594TIP3   OH2 4787   3.329   0.542   2.216  0.5785  0.0661  0.2460
 1594TIP3    H1 4788   3.365   0.457   2.188 -0.6011 -0.0102 -1.1347
 1594TIP3    H2 4789   3.331   0.537   2.312  0.0284 -1.7644  0.2138
 1595TIP3   OH2 4790   2.595   2.409   4.496 -0.9027 -0.1566 -0.2917
 1595TIP3    H1 4791   2.586   2.422   4.590 -1.0758  0.5669 -0.4048
 1595TIP3    H2 4792   2.590   2.497   4.459  0.9621 -0.2415 -0.8398
 1596TIP3   OH2 4793   0.705   5.058   4.767  0.3723  0.1571  0.4936
 1596TIP3    H1 4794   0.740   4.972   4.743 -1.2186 -0.3108 -0.2758
 1596TIP3    H2 4795   0.615   5.057   4.735  0.9524  2.9641 -1.6571
 1597TIP3   OH2 4796   0.883   1.074   4.200 -0.6875  0.3069  0.1095
 1597TIP3    H1 4797   0.865   1.124   4.121 -3.6551  0.9418  1.0568
 1597TIP3    H2 4798   0.900   0.985   4.169 -1.1841  0.6682 -1.2689
 1598TIP3   OH2 4799   0.286   4.595   2.021  0.4986 -0.2695 -0.0988
 1598TIP3    H1 4800   0.332   4.679   2.016  0.7885 -0.4154  0.1167
 1598TIP3    H2 4801   0.202   4.617   2.062  0.2018  0.0639 -0.8650
 1599TIP3   OH2 4802   0.298   0.288   1.985 -0.6232 -0.2255  0.7893
 1599TIP3    H1 4803   0.265   0.323   2.067  0.0725 -0.6828  1.2727
 1599TIP3    H2 4804   0.344   0.208   2.010  1.6993  0.8691  0.2836
 1600TIP3   OH2 4805   3.244   4.194   1.891 -0.0634 -0.3529  0.0972
 1600TIP3    H1 4806   3.270   4.131   1.825 -2.0800 -1.5250  0.3207
 1600TIP3    H2 4807   3.300   4.175   1.967 -0.5030 -1.7814  0.0936
 1601TIP3   OH2 4808   3.349   4.259   0.137 -0.0436  0.2986 -0.3569
 1601TIP3    H1 4809   3.371   4.290   0.048 -0.7184  1.4741 -0.1391
 1601TIP3    H2 4810   3.290   4.326   0.171 -0.8814 -0.8379  0.4893
 1602TIP3   OH2 4811   6.273   2.753   1.922 -0.0125  0.8666 -0.3004
 1602TIP3    H1 4812   6.332   2.713   1.986  2.0216  2.0854 -1.2893
 1602TIP3    H2 4813   6.229   2.823   1.969  0.8783  1.2570 -0.0338
 1603TIP3   OH2 4814   5.593   2.213   1.514  0.0628  0.5822 -0.1976
 1603TIP3    H1 4815   5.610   2.307   1.507  1.1461  0.5948  1.8611
 1603TIP3    H2 4816   5.626   2.177   1.431  0.1554  1.9321 -0.7814
 1604TIP3   OH2 4817   2.214   1.175   0.469 -0.2029 -0.5810  0.3124
 1604TIP3    H1 4818   2.273   1.129   0.529 -0.4906 -1.7579 -0.2784
 1604TIP3    H2 4819   2.130   1.130   0.477 -1.4561  1.8432  2.0615
 1605TIP3   OH2 4820   5.574   4.970   0.223 -0.2446 -0.2384  0.1392
 1605TIP3    H1 4821   5.548   4.928   0.305  1.2887 -0.0614  0.7312
 1605TIP3    H2 4822   5.659   4.933   0.202 -0.3910  0.0847 -1.1276
 1606TIP3   OH2 4823   4.638   1.336   4.503 -0.6037 -0.0868 -0.0979
 1606TIP3    H1 4824   4.713   1.285   4.473  0.1671  1.0059 -0.0911
 1606TIP3    H2 4825   4.609   1.293   4.583 -1.2050 -1.6467 -1.1114
 1607TIP3   OH2 4826   3.909   5.164   4.365  0.7794 -0.4309 -0.2512
 1607TIP3    H1 4827   3.916   5.159   4.461 -0.1445 -2.3029 -0.2424
 1607TIP3    H2 4828   3.971   5.098   4.333 -0.8747 -1.7997 -0.8083
 1608TIP3   OH2 4829   0.184   3.669   3.334  0.2264 -0.4075  0.4160
 1608TIP3    H1 4830   0.253   3.604   3.324  0.5808  0.1157 -0.5897
 1608TIP3    H2 4831   0.226   3.741   3.380 -0.1148 -0.7855  1.3491
 1609TIP3   OH2 4832   1.424   2.177   0.341  0.4642  0.6335 -0.0183
 1609TIP3    H1 4833   1.406   2.159   0.249  1.8462 -0.0676 -0.1901
 1609TIP3    H2 4834   1.509   2.222   0.340 -0.3693  2.3030  0.8042
 1610TIP3   OH2 4835   5.934   4.860   1.475 -0.1822 -0.1590 -0.0642
 1610TIP3    H1 4836   5.908   4.952   1.469 -1.3083 -0.5118 -0.9844
 1610TIP3    H2 4837   5.860   4.811   1.438 -0.3107 -1.5619  1.8978
 1611TIP3   OH2 4838   6.349   4.920   4.160  0.8872  0.4085 -0.3244
 1611TIP3    H1 4839   6.347   4.827   4.137 -0.3717  0.4435 -0.4439
 1611TIP3    H2 4840   6.270   4.956   4.120  0.7998  1.3076  0.6065
 1612TIP3   OH2 4841   5.081   5.815   1.159 -0.0553  0.1124  0.0884
 1612TIP3    H1 4842   5.081   5.853   1.247  0.7295 -0.5182  0.3607
 1612TIP3    H2 4843   4.991   5.828   1.129 -0.3014  0.4534  0.9245
 1613TIP3   OH2 4844   4.326   5.659   4.817  0.1031  0.3869  0.0416
 1613TIP3    H1 4845   4.387   5.656   4.890  0.4517  0.5287 -0.2397
 1613TIP3    H2 4846   4.272   5.736   4.833  1.9175  1.9981 -1.2089
 1614TIP3   OH2 4847   5.565   2.787   4.439  0.0244 -0.6814 -0.6654
 1614TIP3    H1 4848   5.544   2.879   4.457 -0.0762 -0.8816  0.2628
 1614TIP3    H2 4849   5.625   2.762   4.509  0.3438 -1.2225 -1.1245
 1615TIP3   OH2 4850   5.759   1.433   0.837  0.1420  0.4012  0.7854
 1615TIP3    H1 4851   5.679   1.387   0.811  1.2357 -2.2895  1.8210
 1615TIP3    H2 4852   5.749   1.520   0.799 -1.6618 -0.9274 -2.2096
 1616TIP3   OH2 4853   4.472   2.005   3.428 -0.3663 -0.1862  0.5665
 1616TIP3    H1 4854   4.509   2.066   3.364  0.2798 -1.5616 -0.4079
 1616TIP3    H2 4855   4.415   1.948   3.376 -1.3108 -0.1539  1.5381
 1617TIP3   OH2 4856   6.133   1.239   4.043 -0.3286  0.5776 -0.1498
 1617TIP3    H1 4857   6.067   1.302   4.015 -0.0523  0.7362 -0.4639
 1617TIP3    H2 4858   6.216   1.275   4.010 -0.2998 -0.5411 -1.3900
 1618TIP3   OH2 4859   5.861   1.405   0.084 -0.0911  0.1125 -0.5524
 1618TIP3    H1 4860   5.897   1.489   0.113 -0.6779  0.1498  0.1015
 1618TIP3    H2 4861   5.937   1.348   0.072  0.1918  0.0926  1.0991
 1619TIP3   OH2 4862   4.769   4.376   2.259  0.2696 -0.3574 -0.2074
 1619TIP3    H1 4863   4.741   4.322   2.333  0.9579  1.2092  1.2564
 1619TIP3    H2 4864   4.854   4.411   2.285 -0.5667  2.2094 -0.6135
 1620TIP3   OH2 4865   3.956   4.691   2.464  0.0864  0.0764  0.3287
 1620TIP3    H1 4866   4.020   4.735   2.521 -0.3958  1.1924  0.0496
 1620TIP3    H2 4867   3.874   4.739   2.479  0.0949  0.8520 -1.7818
 1621TIP3   OH2 4868   1.661   0.814   3.591 -0.1239  0.0628  0.2531
 1621TIP3    H1 4869   1.583   0.774   3.553  0.2952 -0.3954 -0.1400
 1621TIP3    H2 4870   1.718   0.740   3.612  0.8246  0.4581 -0.8198
 1622TIP3   OH2 4871   4.125   3.553   0.905 -0.2255  0.0073  0.1365
 1622TIP3    H1 4872   4.082   3.574   0.988 -0.2155  0.5349  0.0113
 1622TIP3    H2 4873   4.137   3.638   0.862 -2.3756 -0.4333 -1.4839
 1623TIP3   OH2 4874   2.002   5.970   1.415  0.2193 -0.0851 -0.6818
 1623TIP3    H1 4875   2.025   5.969   1.508 -1.4562  0.2462 -0.2180
 1623TIP3    H2 4876   1.929   5.908   1.409  0.2484 -0.0266 -1.7688
 1624TIP3   OH2 4877   2.934   2.374   4.901 -0.1947  0.2926 -0.0204
 1624TIP3    H1 4878   2.917   2.386   4.808  1.0952  0.8734 -0.2071
 1624TIP3    H2 4879   2.878   2.439   4.945 -0.4098  0.3801 -0.4267
 1625TIP3   OH2 4880   2.690   4.314   1.628 -0.6386  0.9610 -0.0920
 1625TIP3    H1 4881   2.657   4.317   1.718 -1.8545  1.1445 -0.5234
 1625TIP3    H2 4882   2.752   4.387   1.623  0.1026  0.4145  0.8313
 1626TIP3   OH2 4883   1.926   1.307   0.136  0.1367 -0.7061  1.2326
 1626TIP3    H1 4884   1.899   1.285   0.047 -0.2337 -1.2948  1.4824
 1626TIP3    H2 4885   1.988   1.238   0.160  3.1965  1.4193  0.1161
 1627TIP3   OH2 4886   4.908   0.558   4.559  0.0189  0.3309 -0.0254
 1627TIP3    H1 4887   4.969   0.490   4.532  0.0991  0.9087 -1.3952
 1627TIP3    H2 4888   4.825   0.532   4.520 -0.0091  0.8805 -0.3352
 1628TIP3   OH2 4889   4.814   2.844   2.280 -0.2513 -0.1476 -0.1462
 1628TIP3    H1 4890   4.898   2.801   2.261 -0.1577 -0.3367  0.6478
 1628TIP3    H2 4891   4.838   2.920   2.333 -0.4653  0.5815 -1.0914
 1629TIP3   OH2 4892   3.540   5.154   1.608  0.7329  0.1174  0.4689
 1629TIP3    H1 4893   3.564   5.229   1.662  1.0704 -0.4319  1.0949
 1629TIP3    H2 4894   3.499   5.192   1.530  1.0296  0.9508  0.7147
 1630TIP3   OH2 4895   3.227   4.453   0.686  0.2421  0.1479 -0.5087
 1630TIP3    H1 4896   3.270   4.532   0.652 -2.5486  2.1653  0.2531
 1630TIP3    H2 4897   3.215   4.397   0.610 -1.4346  2.3842 -2.0312
 1631TIP3   OH2 4898   5.444   2.962   4.167  0.3698 -0.3438  0.4079
 1631TIP3    H1 4899   5.496   3.013   4.230  1.5148  0.3232 -1.0026
 1631TIP3    H2 4900   5.506   2.944   4.096 -0.9884 -0.7239 -0.7033
 1632TIP3   OH2 4901   4.420   5.593   0.617 -0.0157 -0.3543  0.3852
 1632TIP3    H1 4902   4.364   5.595   0.694 -0.2062 -1.5060  0.2926
 1632TIP3    H2 4903   4.486   5.661   0.633 -0.9854  0.5066  0.8306
 1633TIP3   OH2 4904   1.434   1.963   4.442  0.5351  0.2124  0.7595
 1633TIP3    H1 4905   1.401   1.907   4.372 -1.0308  0.3040  1.3678
 1633TIP3    H2 4906   1.419   2.052   4.410  0.4155  0.2569  0.9366
 1634TIP3   OH2 4907   4.487   4.743   2.543  0.2602 -0.5284  0.4679
 1634TIP3    H1 4908   4.526   4.678   2.485 -0.5050 -0.9118  0.3668
 1634TIP3    H2 4909   4.510   4.827   2.504  0.8745 -0.7451  0.3514
 1635TIP3   OH2 4910   2.431   1.166   4.462 -0.2657  0.0738 -0.1286
 1635TIP3    H1 4911   2.507   1.130   4.508 -1.5570 -1.5497  0.8420
 1635TIP3    H2 4912   2.441   1.135   4.372  0.6187  0.5616 -0.2118
 1636TIP3   OH2 4913   5.049   3.093   2.085  0.3400  0.0271  0.0213
 1636TIP3    H1 4914   5.078   3.057   2.001  0.2520  0.3252 -0.1394
 1636TIP3    H2 4915   5.120   3.073   2.146  0.9571  0.8529 -0.3929
 1637TIP3   OH2 4916   0.577   1.449   1.594 -0.4243 -0.1745 -0.5798
 1637TIP3    H1 4917   0.673   1.448   1.585 -0.5157 -0.3631 -1.6285
 1637TIP3    H2 4918   0.545   1.452   1.504 -1.4130 -0.4572 -0.2418
 1638TIP3   OH2 4919   0.995   2.656   3.744  0.3051  0.1845 -0.0840
 1638TIP3    H1 4920   1.072   2.601   3.758  1.2219  1.2483 -0.7873
 1638TIP3    H2 4921   0.986   2.660   3.648  0.7762  1.9182 -0.0951
 1639TIP3   OH2 4922   4.328   2.188   2.136  0.4408  0.2842 -0.2060
 1639TIP3    H1 4923   4.281   2.261   2.175 -1.4044 -0.4271 -0.9738
 1639TIP3    H2 4924   4.297   2.111   2.184  0.0854 -0.3053 -1.3371
 1640TIP3   OH2 4925   2.113   5.506   0.214 -0.0977 -0.1849  0.4135
 1640TIP3    H1 4926   2.140   5.595   0.237  0.4452 -0.3165  0.3075
 1640TIP3    H2 4927   2.177   5.478   0.148  0.5612 -1.1411  1.4282
 1641TIP3   OH2 4928   5.635   2.615   5.131  0.4683 -0.0316  0.0333
 1641TIP3    H1 4929   5.700   2.667   5.178 -0.0440  0.5816  0.0742
 1641TIP3    H2 4930   5.623   2.537   5.184  1.0267 -0.0609  0.1238
 1642TIP3   OH2 4931   5.041   2.656   2.658 -0.6585  0.8727  0.1585
 1642TIP3    H1 4932   4.985   2.658   2.581 -0.0410  1.0609 -0.2927
 1642TIP3    H2 4933   5.015   2.577   2.705 -0.1024 -0.0025 -0.9563
 1643TIP3   OH2 4934   2.206   1.580   4.681 -0.3445 -0.0917 -0.0147
 1643TIP3    H1 4935   2.219   1.491   4.646  2.1188 -0.1364  0.7876
 1643TIP3    H2 4936   2.193   1.634   4.604  1.2241 -0.7354 -0.7838
 1644TIP3   OH2 4937   0.069   3.506   0.062 -0.4325 -0.7888  0.3855
 1644TIP3    H1 4938   0.036   3.454  -0.012 -2.0686 -0.9230  1.1610
 1644TIP3    H2 4939   0.044   3.456   0.140  4.5783 -2.6748  1.1531
 1645TIP3   OH2 4940   2.935   4.156   2.951 -0.2188  0.2236 -0.4386
 1645TIP3    H1 4941   2.847   4.193   2.958  0.0465  0.6573  1.0373
 1645TIP3    H2 4942   2.924   4.062   2.966 -0.2927  0.4719  1.2785
 1646TIP3   OH2 4943   2.488   4.138   2.398  0.3017 -0.1259  0.5579
 1646TIP3    H1 4944   2.536   4.055   2.399 -1.1872 -1.0231  1.4061
 1646TIP3    H2 4945   2.501   4.173   2.310  1.0480 -1.1866  0.2274
 1647TIP3   OH2 4946   5.838   3.521   3.182  0.4347 -0.1328  0.0513
 1647TIP3    H1 4947   5.857   3.556   3.269  2.6096 -1.4604  0.1800
 1647TIP3    H2 4948   5.821   3.598   3.128  1.9252  0.9243  1.0239
 1648TIP3   OH2 4949   4.454   2.851   1.342  0.2428  0.1850  0.0560
 1648TIP3    H1 4950   4.508   2.881   1.415  0.7844 -0.9789  0.1561
 1648TIP3    H2 4951   4.380   2.913   1.340  1.3268  1.5280  0.1991
 1649TIP3   OH2 4952   1.229   4.823   0.253  0.5015 -0.5469  0.3173
 1649TIP3    H1 4953   1.209   4.751   0.192 -0.2081 -0.1043  0.0087
 1649TIP3    H2 4954   1.249   4.897   0.196 -2.0822  0.4210  0.5255
 1650TIP3   OH2 4955   2.798   0.268   2.774 -0.2805 -0.0361  0.0467
 1650TIP3    H1 4956   2.740   0.301   2.705  0.2594  1.1053  0.1152
 1650TIP3    H2 4957   2.767   0.312   2.854 -0.9811 -1.4394  0.5855
 1651TIP3   OH2 4958   2.673   4.239   4.657 -0.1182  0.0592  0.0913
 1651TIP3    H1 4959   2.651   4.153   4.693 -0.2086 -0.0495 -0.2283
 1651TIP3    H2 4960   2.687   4.293   4.735 -0.2465 -0.1939  0.2955
 1652TIP3   OH2 4961   4.433   3.928   4.165 -0.3168  0.2863  0.6227
 1652TIP3    H1 4962   4.481   3.863   4.114 -0.9068  0.6655 -0.4531
 1652TIP3    H2 4963   4.495   3.958   4.231  0.5489 -0.0537 -0.0221
 1653TIP3   OH2 4964   1.318   4.884   4.188  0.3118 -0.0245  0.1897
 1653TIP3    H1 4965   1.338   4.841   4.105  0.9034 -0.7176  0.6766
 1653TIP3    H2 4966   1.261   4.957   4.164  0.1060 -0.4815 -0.7711
 1654TIP3   OH2 4967   3.991   5.230   0.117 -0.1495 -0.0022  0.3835
 1654TIP3    H1 4968   3.919   5.247   0.179 -0.7008 -2.4354  0.4939
 1654TIP3    H2 4969   3.972   5.287   0.042 -0.7013  1.3389  1.4909
 1655TIP3   OH2 4970   3.328   0.330   1.545  0.5790  0.1587  0.2655
 1655TIP3    H1 4971   3.410   0.302   1.587  0.3971 -0.6486  0.0988
 1655TIP3    H2 4972   3.294   0.251   1.504 -0.0719  0.5859 -0.0354
 1656TIP3   OH2 4973   1.827   1.021   3.696  0.0370 -0.2042  0.2906
 1656TIP3    H1 4974   1.867   0.996   3.779 -1.2792  0.5264  1.1864
 1656TIP3    H2 4975   1.762   0.953   3.679 -0.0240 -0.1034  0.1210
 1657TIP3   OH2 4976   4.971   4.401   4.824 -0.0159  0.2382  0.2546
 1657TIP3    H1 4977   4.991   4.452   4.902 -0.0727  0.1078  0.3559
 1657TIP3    H2 4978   4.881   4.423   4.803 -0.2260 -0.2507  0.6326
 1658TIP3   OH2 4979   5.500   1.611   0.521  0.1418  0.3655  0.0550
 1658TIP3    H1 4980   5.568   1.623   0.454 -0.5603  1.0285 -0.5447
 1658TIP3    H2 4981   5.440   1.683   0.508 -1.0082 -0.5402  0.2076
 1659TIP3   OH2 4982   2.176   1.421   0.724 -0.1114 -0.2323 -0.1971
 1659TIP3    H1 4983   2.111   1.450   0.661  0.4481  0.1960 -0.5805
 1659TIP3    H2 4984   2.134   1.432   0.809 -0.6025 -0.1233 -0.4541
 1660TIP3   OH2 4985   0.782   2.266   2.844 -0.4892 -0.1526 -0.1734
 1660TIP3    H1 4986   0.758   2.174   2.859  0.8548 -0.7060 -1.1917
 1660TIP3    H2 4987   0.700   2.307   2.816 -1.3019 -0.8232  1.0776
 1661TIP3   OH2 4988   6.269   0.593   0.048 -0.2109  0.3722 -0.1609
 1661TIP3    H1 4989   6.340   0.535   0.077  0.8953  1.3428 -0.8709
 1661TIP3    H2 4990   6.302   0.681   0.065 -0.2052  0.9316 -2.7845
 1662TIP3   OH2 4991   6.089   0.332   2.384 -0.1257 -0.4531 -0.3376
 1662TIP3    H1 4992   6.136   0.279   2.449 -0.5206  0.0817  0.4025
 1662TIP3    H2 4993   6.017   0.275   2.355  0.1714 -0.7714 -0.4579
 1663TIP3   OH2 4994   6.000   1.733   2.328  0.2299 -0.1390 -0.0191
 1663TIP3    H1 4995   5.921   1.706   2.374 -0.0788  0.6796 -0.0497
 1663TIP3    H2 4996   6.066   1.669   2.354 -0.6609 -1.4103 -0.7488
 1664TIP3   OH2 4997   5.244   2.601   3.814  0.1636  0.5911  0.2991
 1664TIP3    H1 4998   5.284   2.580   3.898 -0.3304 -1.1904  0.1403
 1664TIP3    H2 4999   5.157   2.563   3.819  0.3129 -0.0130 -1.1944
 1665TIP3   OH2 5000   2.070   5.861   4.152 -0.0706  0.3134 -0.0831
 1665TIP3    H1 5001   1.984   5.852   4.111  0.2042  2.2048 -1.2127
 1665TIP3    H2 5002   2.101   5.947   4.123  2.7012 -0.7750 -0.6478
 1666TIP3   OH2 5003   5.110   4.012   3.580  0.3400 -0.1615 -0.4297
 1666TIP3    H1 5004   5.072   4.083   3.632 -0.5272  0.1345 -1.4383
 1666TIP3    H2 5005   5.100   3.934   3.635 -1.2455  0.0057 -0.4532
 1667TIP3   OH2 5006   0.340   0.008   0.398  0.4284 -0.1524 -0.5168
 1667TIP3    H1 5007   0.258   0.026   0.353  0.3510  0.9732  0.0226
 1667TIP3    H2 5008   0.399   0.078   0.370  0.5758  0.1983  0.5871
 1668TIP3   OH2 5009   0.349   1.785   4.143  0.0224  0.9260  0.0150
 1668TIP3    H1 5010   0.401   1.708   4.118  0.8540  1.0708  1.1921
 1668TIP3    H2 5011   0.390   1.815   4.224 -0.5439  2.3812 -0.2185
 1669TIP3   OH2 5012   1.341   2.428   3.471 -0.0147 -0.1535  0.1744
 1669TIP3    H1 5013   1.278   2.389   3.411  0.2512 -0.2336 -0.0521
 1669TIP3    H2 5014   1.379   2.501   3.422  1.0819 -0.9604 -0.2031
 1670TIP3   OH2 5015   5.788   1.062   2.092  0.0598  0.3997 -0.9401
 1670TIP3    H1 5016   5.837   1.021   2.021 -1.7295 -1.4192 -1.2101
 1670TIP3    H2 5017   5.701   1.078   2.055 -0.5350  0.5915  0.4618
 1671TIP3   OH2 5018   3.734   3.804   2.046  0.3101 -0.1947 -0.1328
 1671TIP3    H1 5019   3.747   3.800   2.141  0.4619 -1.3659 -0.1862
 1671TIP3    H2 5020   3.641   3.782   2.034  0.2444  0.1413 -0.2468
 1672TIP3   OH2 5021   0.493   1.031   1.530  0.2994  0.1098  0.5135
 1672TIP3    H1 5022   0.477   1.085   1.607  0.9670 -0.0743  0.7889
 1672TIP3    H2 5023   0.417   1.046   1.474  0.3629  1.1484  0.6829
 1673TIP3   OH2 5024   4.730   4.519   5.102 -0.1244 -0.1525  1.0591
 1673TIP3    H1 5025   4.640   4.541   5.076  0.2757  1.4352  0.9402
 1673TIP3    H2 5026   4.741   4.560   5.187  0.0587 -1.5193  1.7085
 1674TIP3   OH2 5027   3.994   3.803   4.678 -0.2325  0.4950 -0.1777
 1674TIP3    H1 5028   4.078   3.842   4.698 -0.7868  2.0784 -0.8171
 1674TIP3    H2 5029   4.010   3.748   4.601  0.7367 -1.3432  1.2514
 1675TIP3   OH2 5030   2.470   5.908   1.061 -0.3593 -0.3787  0.3147
 1675TIP3    H1 5031   2.466   5.873   0.972  2.3134  0.4886 -0.2655
 1675TIP3    H2 5032   2.384   5.946   1.076 -1.6519 -2.6131 -0.9654
 1676TIP3   OH2 5033   5.985   0.624   1.574  0.3092 -0.1720  0.4602
 1676TIP3    H1 5034   5.999   0.715   1.598  0.4127 -0.4708  1.6050
 1676TIP3    H2 5035   5.997   0.622   1.479  0.7597  0.9132  0.4768
 1677TIP3   OH2 5036   0.564   4.795   0.489  0.3234 -0.1412 -0.0391
 1677TIP3    H1 5037   0.563   4.817   0.396 -0.8582  1.7099  0.3609
 1677TIP3    H2 5038   0.479   4.754   0.505  0.3931 -0.1613  0.2842
 1678TIP3   OH2 5039   4.125   5.426   4.090  0.2549  0.0434  0.0443
 1678TIP3    H1 5040   4.046   5.409   4.141 -0.2462  2.4716  0.1714
 1678TIP3    H2 5041   4.197   5.398   4.147 -0.4402 -2.0821 -0.0305
 1679TIP3   OH2 5042   6.203   1.012   3.099 -0.0177  0.0636 -0.6656
 1679TIP3    H1 5043   6.193   0.949   3.027  0.4929 -0.5138 -0.2347
 1679TIP3    H2 5044   6.281   0.982   3.147 -0.7132  0.0798  0.4999
 1680TIP3   OH2 5045   0.460   1.089   4.580  0.3845 -0.1816  0.2637
 1680TIP3    H1 5046   0.472   0.997   4.606 -0.0963  0.1450  1.6933
 1680TIP3    H2 5047   0.524   1.102   4.510  1.9011 -1.0502  1.4234
 1681TIP3   OH2 5048   1.478   5.007   1.167  0.9138 -0.3082  0.4912
 1681TIP3    H1 5049   1.392   4.997   1.125  0.9030  0.8038  0.2109
 1681TIP3    H2 5050   1.471   4.957   1.248 -0.0322 -0.1767  0.5008
 1682TIP3   OH2 5051   5.876   1.866   3.648 -0.2179  0.2693  0.2318
 1682TIP3    H1 5052   5.908   1.826   3.730  0.1877 -0.4720 -0.2774
 1682TIP3    H2 5053   5.952   1.910   3.611 -0.3780  0.5218  0.2037
 1683TIP3   OH2 5054   3.593   1.565   0.445  0.2595  0.7826 -0.2715
 1683TIP3    H1 5055   3.633   1.645   0.412 -0.1966  0.5129 -1.5287
 1683TIP3    H2 5056   3.614   1.499   0.378 -0.2616  0.0983  0.2313
 1684TIP3   OH2 5057   1.238   1.883   1.627 -0.1557  0.1695 -0.1232
 1684TIP3    H1 5058   1.156   1.838   1.608 -1.2719  2.5613 -1.4923
 1684TIP3    H2 5059   1.264   1.850   1.713 -1.7791 -1.7180 -0.2854
 1685TIP3   OH2 5060   0.989   4.179   4.345 -0.2187  0.2176 -0.8426
 1685TIP3    H1 5061   1.021   4.175   4.255  2.2120 -0.1434 -0.0195
 1685TIP3    H2 5062   0.962   4.270   4.357  1.8999  0.9433 -1.1821
 1686TIP3   OH2 5063   0.472   5.476   1.778 -0.4016  0.1581 -0.6505
 1686TIP3    H1 5064   0.510   5.396   1.743 -2.0278 -0.8302 -0.2311
 1686TIP3    H2 5065   0.535   5.505   1.844 -0.7146 -1.9030  0.6403
 1687TIP3   OH2 5066   1.320   4.402   4.533  0.4190 -0.3677  0.7993
 1687TIP3    H1 5067   1.412   4.387   4.510 -0.4048 -1.6503 -2.1590
 1687TIP3    H2 5068   1.323   4.458   4.611  3.6762 -0.2894  0.7410
 1688TIP3   OH2 5069   3.826   2.948   2.718  0.0285  0.1160 -0.0948
 1688TIP3    H1 5070   3.863   2.896   2.790  1.9791  0.9616 -0.4249
 1688TIP3    H2 5071   3.814   3.036   2.756  0.5912  0.4371 -0.6483
 1689TIP3   OH2 5072   4.304   0.833   0.901 -0.2298 -0.1107  0.2780
 1689TIP3    H1 5073   4.366   0.902   0.878  1.8005 -1.9442 -0.0250
 1689TIP3    H2 5074   4.314   0.822   0.995  1.4717 -1.7638 -0.0468
 1690TIP3   OH2 5075   1.182   4.995   1.093 -0.2479  0.2855  0.0762
 1690TIP3    H1 5076   1.158   5.087   1.103  0.0691  0.4330 -0.4439
 1690TIP3    H2 5077   1.154   4.972   1.004  0.2968  0.0767 -0.0475
 1691TIP3   OH2 5078   2.589   5.421   2.398 -0.0102  0.5533 -0.3532
 1691TIP3    H1 5079   2.661   5.396   2.340  1.2080  0.8254  1.0017
 1691TIP3    H2 5080   2.552   5.338   2.428 -1.4471  0.3763 -2.3802
 1692TIP3   OH2 5081   5.935   4.774   0.670 -0.2329  0.0573 -0.0609
 1692TIP3    H1 5082   5.884   4.698   0.697  1.6280 -0.9735  0.7497
 1692TIP3    H2 5083   6.004   4.737   0.614  0.0062  1.3079 -0.6234
 1693TIP3   OH2 5084   1.768   4.372   3.042 -0.4504  0.7891 -0.3760
 1693TIP3    H1 5085   1.692   4.319   3.017 -0.3257  0.6226 -0.3963
 1693TIP3    H2 5086   1.730   4.457   3.065 -0.4458  1.4390 -2.5731
 1694TIP3   OH2 5087   4.986   0.793   1.470 -0.3213  0.0276 -0.1627
 1694TIP3    H1 5088   4.997   0.700   1.490 -2.4683  0.0244  1.2745
 1694TIP3    H2 5089   5.033   0.838   1.541 -0.8644  0.0299  0.1977
 1695TIP3   OH2 5090   6.063   2.167   1.538 -0.3208 -0.5323 -0.4111
 1695TIP3    H1 5091   6.015   2.183   1.456 -0.6665  0.8447  0.0361
 1695TIP3    H2 5092   6.145   2.124   1.510 -0.7515 -0.7312 -1.3995
 1696TIP3   OH2 5093   1.906   4.530   3.761 -0.2724  0.0839  1.1554
 1696TIP3    H1 5094   1.854   4.457   3.797 -1.3157 -0.1879 -0.7890
 1696TIP3    H2 5095   1.997   4.506   3.781 -0.7290 -0.4337  2.8438
 1697TIP3   OH2 5096   0.914   3.691   0.863  0.2403  0.1379  0.1806
 1697TIP3    H1 5097   0.966   3.719   0.939  0.7457  0.1802 -0.1747
 1697TIP3    H2 5098   0.920   3.596   0.864  0.7266  0.1605 -0.1303
 1698TIP3   OH2 5099   2.503   0.525   5.150  0.1518  0.1004 -0.0607
 1698TIP3    H1 5100   2.558   0.468   5.204  0.2630 -0.0604 -0.3372
 1698TIP3    H2 5101   2.475   0.595   5.209 -0.3469 -0.4807  0.4046
 1699TIP3   OH2 5102   1.507   4.615   1.425  0.0708 -0.2947  0.0586
 1699TIP3    H1 5103   1.568   4.576   1.487  0.1247 -0.2065  0.0620
 1699TIP3    H2 5104   1.544   4.595   1.339 -0.5296 -1.2843  0.0150
 1700TIP3   OH2 5105   5.890   2.680   1.721 -0.2873  0.3840 -0.5241
 1700TIP3    H1 5106   5.981   2.682   1.750  0.5035 -1.3440 -2.6255
 1700TIP3    H2 5107   5.868   2.771   1.704  1.5424  0.7181 -1.3052
 1701TIP3   OH2 5108   1.453   5.813   3.970  0.7982  0.1877 -0.2944
 1701TIP3    H1 5109   1.403   5.892   3.990  1.4327  0.3718  0.6159
 1701TIP3    H2 5110   1.387   5.748   3.947  0.0780  0.2767  1.4007
 1702TIP3   OH2 5111   0.849   1.169   4.836  0.3280  0.3042  0.2479
 1702TIP3    H1 5112   0.940   1.184   4.862 -0.0329  1.5364  0.9054
 1702TIP3    H2 5113   0.813   1.114   4.906  0.0396  1.5339  1.1141
 1703TIP3   OH2 5114   5.077   3.287   0.204 -0.5165 -0.1513  0.2752
 1703TIP3    H1 5115   5.022   3.219   0.164 -1.5915  0.4264  0.7305
 1703TIP3    H2 5116   5.142   3.308   0.137 -1.8035  0.2305 -0.8980
 1704TIP3   OH2 5117   1.584   5.066   3.421 -0.3181 -0.0095  0.4430
 1704TIP3    H1 5118   1.494   5.041   3.400 -0.3558  1.4452 -1.3943
 1704TIP3    H2 5119   1.574   5.139   3.482 -0.3767 -0.0569  0.4907
 1705TIP3   OH2 5120   5.594   3.780   2.425  0.0106  0.6879 -0.3317
 1705TIP3    H1 5121   5.517   3.824   2.460 -1.6547 -1.0075 -1.6625
 1705TIP3    H2 5122   5.644   3.849   2.382 -1.4165  1.6308 -0.5359
 1706TIP3   OH2 5123   0.970   2.332   0.958 -0.1681 -0.0376 -0.2107
 1706TIP3    H1 5124   1.000   2.372   1.040  1.0927 -1.5256  0.0846
 1706TIP3    H2 5125   1.028   2.367   0.891 -1.1073  1.0663 -0.4808
 1707TIP3   OH2 5126   2.016   3.434   1.963 -0.4936 -0.3467  0.5650
 1707TIP3    H1 5127   2.074   3.393   2.026  3.1139  1.8962 -0.9187
 1707TIP3    H2 5128   1.996   3.365   1.900 -1.0287 -1.6470  2.0997
 1708TIP3   OH2 5129   1.130   3.041   1.641 -0.3301 -0.0489 -0.5170
 1708TIP3    H1 5130   1.186   2.983   1.589 -1.4005  0.5249 -2.3948
 1708TIP3    H2 5131   1.067   2.982   1.682  0.6532 -0.5341  0.3223
 1709TIP3   OH2 5132   3.888   2.228   3.625  0.5269  0.2407  0.3205
 1709TIP3    H1 5133   3.983   2.226   3.613  0.8890 -0.9143  2.7833
 1709TIP3    H2 5134   3.875   2.268   3.710 -1.1315 -0.7380  0.5870
 1710TIP3   OH2 5135   4.839   5.600   1.686  0.0682 -0.1536 -0.5589
 1710TIP3    H1 5136   4.879   5.533   1.631  2.6586  0.4167  0.4759
 1710TIP3    H2 5137   4.858   5.572   1.775 -0.1400  1.1767 -0.0734
 1711TIP3   OH2 5138   0.924   0.299   1.559  0.0433 -0.1803 -0.2916
 1711TIP3    H1 5139   0.976   0.230   1.601 -2.8890 -1.7339  1.1020
 1711TIP3    H2 5140   0.891   0.352   1.631 -0.9452  0.2588 -1.0401
 1712TIP3   OH2 5141   4.458   2.901   0.927 -0.2767 -0.1427  0.4524
 1712TIP3    H1 5142   4.499   2.817   0.904 -0.7397  0.1682 -1.7482
 1712TIP3    H2 5143   4.381   2.876   0.979 -0.8303 -1.1746 -0.7991
 1713TIP3   OH2 5144   2.736   1.025   1.961 -0.5352 -0.6223 -0.0096
 1713TIP3    H1 5145   2.665   0.960   1.955 -1.4893  0.3680  0.2326
 1713TIP3    H2 5146   2.815   0.972   1.975 -0.9559 -1.8649 -1.8573
 1714TIP3   OH2 5147   5.663   3.599   0.279 -0.1520 -0.0343 -0.4395
 1714TIP3    H1 5148   5.686   3.692   0.273  0.1344  0.0320  1.2276
 1714TIP3    H2 5149   5.706   3.569   0.359  0.4753 -1.8281 -1.3938
 1715TIP3   OH2 5150   2.327   0.213   3.581  0.2615  0.1969 -0.6875
 1715TIP3    H1 5151   2.401   0.181   3.632  0.7274  0.5325 -1.1415
 1715TIP3    H2 5152   2.250   0.184   3.629  0.6936  0.5530  0.2328
 1716TIP3   OH2 5153   2.947   5.317   2.561  0.1371  0.5810  0.1702
 1716TIP3    H1 5154   2.882   5.291   2.496  1.7173 -0.2051 -1.2017
 1716TIP3    H2 5155   3.016   5.360   2.509 -0.2342  3.4503  1.8139
 1717TIP3   OH2 5156   1.659   2.741   0.781 -0.3211 -0.2054 -0.2631
 1717TIP3    H1 5157   1.660   2.829   0.818  0.4413  0.1390 -1.0720
 1717TIP3    H2 5158   1.606   2.750   0.701 -2.1285 -0.9813  0.7768
 1718TIP3   OH2 5159   0.207   0.292   4.461  0.4241  0.7291 -0.2071
 1718TIP3    H1 5160   0.238   0.375   4.425  0.2832  0.9956  0.2775
 1718TIP3    H2 5161   0.184   0.240   4.385  0.7081  1.0604 -0.5223
 1719TIP3   OH2 5162   5.878   0.662   1.088  0.0748 -0.3144 -0.2015
 1719TIP3    H1 5163   5.928   0.624   1.017  0.4160 -0.9090  0.3459
 1719TIP3    H2 5164   5.848   0.746   1.054  0.0279 -0.6951 -1.1222
 1720TIP3   OH2 5165   4.677   1.731   1.096 -0.0437 -0.0915 -0.6108
 1720TIP3    H1 5166   4.655   1.790   1.025  1.0595  1.9062  0.6038
 1720TIP3    H2 5167   4.596   1.722   1.146 -0.2977  0.1462 -0.9780
 1721TIP3   OH2 5168   2.364   4.644   4.239 -0.4819  0.4719  0.3224
 1721TIP3    H1 5169   2.405   4.638   4.325 -1.1369 -0.2472  0.5995
 1721TIP3    H2 5170   2.271   4.628   4.256 -0.6061  0.2462 -0.5272
 1722TIP3   OH2 5171   2.612   5.836   2.078 -0.5500  0.1268 -0.0312
 1722TIP3    H1 5172   2.615   5.927   2.109 -0.5527  0.1250 -0.0260
 1722TIP3    H2 5173   2.566   5.841   1.995  0.9051  0.3667 -0.8511
 1723TIP3   OH2 5174   0.192   0.268   3.871 -0.5121  0.0061 -0.1539
 1723TIP3    H1 5175   0.220   0.336   3.931 -1.7176 -0.6105  1.1737
 1723TIP3    H2 5176   0.251   0.194   3.888 -0.5074  0.0159 -0.1279
 1724TIP3   OH2 5177   2.959   4.654   2.826 -0.4890 -0.1765 -0.4034
 1724TIP3    H1 5178   2.956   4.646   2.921 -0.4219 -3.6249 -0.5736
 1724TIP3    H2 5179   2.875   4.694   2.803 -0.1876  1.4168  1.1015
 1725TIP3   OH2 5180   4.529   5.240   2.864 -0.0124  0.5123 -0.3045
 1725TIP3    H1 5181   4.536   5.323   2.911  1.2904  0.8310 -0.9876
 1725TIP3    H2 5182   4.587   5.180   2.911  1.1913  0.7944 -1.3603
 1726TIP3   OH2 5183   1.515   4.206   1.785 -0.2410 -0.0261 -0.2986
 1726TIP3    H1 5184   1.579   4.138   1.804  0.4551  0.9116  0.8893
 1726TIP3    H2 5185   1.430   4.166   1.806  0.0323 -0.9521 -0.9316
 1727TIP3   OH2 5186   4.876   5.348   3.820 -0.1047 -0.1060 -0.1582
 1727TIP3    H1 5187   4.833   5.266   3.795 -0.5115  0.0476  0.0282
 1727TIP3    H2 5188   4.950   5.355   3.760  0.0486 -0.7080 -0.0479
 1728TIP3   OH2 5189   2.614   0.485   0.926 -0.1439  0.2515  0.5271
 1728TIP3    H1 5190   2.645   0.394   0.925 -0.2829  0.1797 -1.3256
 1728TIP3    H2 5191   2.564   0.494   0.844 -1.2721  1.6237  1.3178
 1729TIP3   OH2 5192   4.257   1.459   4.090 -0.0079  0.3291  0.4942
 1729TIP3    H1 5193   4.326   1.507   4.045 -0.7408  0.4927 -0.5080
 1729TIP3    H2 5194   4.277   1.468   4.183  0.4566  1.6812  0.2839
 1730TIP3   OH2 5195   2.234   4.592   0.926  0.1615 -0.5928  0.3965
 1730TIP3    H1 5196   2.298   4.625   0.989 -0.6821 -0.2638  1.0967
 1730TIP3    H2 5197   2.168   4.549   0.979 -1.9002  1.8820  0.0245
 1731TIP3   OH2 5198   4.509   0.410   3.349  0.5427  0.7451  0.4284
 1731TIP3    H1 5199   4.546   0.410   3.261 -0.9431 -2.0110 -0.3250
 1731TIP3    H2 5200   4.451   0.487   3.351  1.4968  1.5211 -0.5307
 1732TIP3   OH2 5201   3.607   3.245   2.361  0.3309  0.2784 -0.0726
 1732TIP3    H1 5202   3.589   3.172   2.419  1.6046  0.4277  0.5465
 1732TIP3    H2 5203   3.678   3.215   2.304  0.5421  0.8633 -0.1318
 1733TIP3   OH2 5204   2.279   5.532   0.786 -0.0612  0.7858 -0.1229
 1733TIP3    H1 5205   2.239   5.505   0.869  1.4102  1.1553  0.7440
 1733TIP3    H2 5206   2.313   5.451   0.749  0.3389  0.7886  0.2330
 1734TIP3   OH2 5207   6.013   3.826   4.710  0.3126  0.7272  0.8307
 1734TIP3    H1 5208   6.028   3.852   4.620 -2.2864 -0.4409 -0.0415
 1734TIP3    H2 5209   6.002   3.908   4.758  0.0194  1.3561 -0.2801
 1735TIP3   OH2 5210   3.504   0.471   4.788 -0.3653 -0.4338 -0.4056
 1735TIP3    H1 5211   3.548   0.514   4.714 -0.2988  0.6538  0.2400
 1735TIP3    H2 5212   3.573   0.461   4.854 -0.8344  0.3695  0.2321
 1736TIP3   OH2 5213   0.239   4.145   1.750  0.3974 -0.0893  0.4491
 1736TIP3    H1 5214   0.268   4.188   1.830  0.4814 -1.2987  1.1052
 1736TIP3    H2 5215   0.289   4.187   1.681 -0.2838  1.5501  0.9091
 1737TIP3   OH2 5216   3.086   4.713   2.015  0.5937 -0.1002  0.5442
 1737TIP3    H1 5217   3.149   4.643   2.034  0.8220  0.0223  0.2424
 1737TIP3    H2 5218   3.001   4.671   2.021  0.6838 -0.1886  1.3146
 1738TIP3   OH2 5219   5.407   0.394   1.321  0.4381  0.2145 -0.1519
 1738TIP3    H1 5220   5.396   0.430   1.409  2.0996  0.8295 -0.1614
 1738TIP3    H2 5221   5.468   0.321   1.332 -0.0579 -0.2910 -0.6741
 1739TIP3   OH2 5222   3.109   3.838   1.669  0.3026  0.1060 -0.3616
 1739TIP3    H1 5223   3.044   3.907   1.682  0.9331  1.2410 -2.5955
 1739TIP3    H2 5224   3.138   3.850   1.579  1.9260 -1.8402 -0.1662
 1740TIP3   OH2 5225   3.869   2.522   3.010 -0.2842 -0.4221  0.4190
 1740TIP3    H1 5226   3.799   2.483   2.957 -1.3135 -1.4944  2.4072
 1740TIP3    H2 5227   3.856   2.483   3.097  1.0225  1.5674  1.5717
 1741TIP3   OH2 5228   1.615   3.188   4.669  0.0174 -0.0819  0.0113
 1741TIP3    H1 5229   1.533   3.212   4.624 -0.0191 -1.7378 -0.8578
 1741TIP3    H2 5230   1.601   3.218   4.759 -1.0670  0.7204 -0.3850
 1742TIP3   OH2 5231   5.125   2.545   1.744  0.1403 -0.2480 -0.2522
 1742TIP3    H1 5232   5.095   2.468   1.695 -0.7010 -0.7833  1.0422
 1742TIP3    H2 5233   5.061   2.613   1.723  0.8092  0.0651 -1.2950
 1743TIP3   OH2 5234   3.652   1.156   0.024  0.5244  0.1902  1.3372
 1743TIP3    H1 5235   3.683   1.072   0.057  2.7285  0.8369  1.0857
 1743TIP3    H2 5236   3.628   1.205   0.103  0.7700 -0.1110  1.6013
 1744TIP3   OH2 5237   4.614   1.061   1.512  0.3215 -0.1334 -0.2143
 1744TIP3    H1 5238   4.659   1.012   1.442  0.5103  0.7961 -0.7574
 1744TIP3    H2 5239   4.666   1.043   1.590  1.0037  0.0402 -0.6196
 1745TIP3   OH2 5240   0.757   1.010   2.392 -0.6948  0.2267  0.5621
 1745TIP3    H1 5241   0.779   1.098   2.425  1.2076 -0.0888  0.2564
 1745TIP3    H2 5242   0.793   1.009   2.304 -1.4283 -0.6064  0.2647
 1746TIP3   OH2 5243   3.351   0.657   0.887  0.2793 -0.7188 -0.3133
 1746TIP3    H1 5244   3.403   0.732   0.913 -0.6905 -0.8352  2.3393
 1746TIP3    H2 5245   3.385   0.585   0.940 -1.3502 -1.1918  0.1719
 1747TIP3   OH2 5246   3.276   0.362   3.802  0.2317  0.1195  0.2484
 1747TIP3    H1 5247   3.235   0.276   3.806  1.4919 -0.6442 -1.7632
 1747TIP3    H2 5248   3.205   0.422   3.780 -0.0547 -1.0014 -2.0645
 1748TIP3   OH2 5249   0.983   4.422   0.283 -0.2168  0.0989 -0.2545
 1748TIP3    H1 5250   1.071   4.459   0.283  1.0181 -2.3232  3.4226
 1748TIP3    H2 5251   0.990   4.342   0.231 -0.4040  0.1725 -0.3973
 1749TIP3   OH2 5252   3.783   0.548   4.134  0.7239  0.0003  0.0906
 1749TIP3    H1 5253   3.834   0.610   4.186 -1.9546  0.7722  2.0036
 1749TIP3    H2 5254   3.780   0.587   4.047  0.6411  1.6702  0.7932
 1750TIP3   OH2 5255   3.820   1.183   5.118 -0.5620  0.3192 -0.2098
 1750TIP3    H1 5256   3.778   1.164   5.034 -0.4506 -0.2440 -0.1411
 1750TIP3    H2 5257   3.857   1.099   5.146 -1.4502  0.2751  0.8814
 1751TIP3   OH2 5258   4.421   2.895   5.154  0.2945 -0.1614  0.1715
 1751TIP3    H1 5259   4.443   2.805   5.180  2.4445  0.1908 -0.2656
 1751TIP3    H2 5260   4.422   2.892   5.058  0.2166  0.3052  0.1573
 1752TIP3   OH2 5261   5.389   4.170   0.039  0.1756 -0.2189  0.2673
 1752TIP3    H1 5262   5.323   4.207   0.097  1.1327 -1.7235  2.4786
 1752TIP3    H2 5263   5.349   4.089   0.007  0.1532 -0.0595 -0.1084
 1753TIP3   OH2 5264   4.171   1.052   1.788  0.5499 -0.5325 -0.5474
 1753TIP3    H1 5265   4.243   1.052   1.725 -0.0027 -0.2393 -1.1852
 1753TIP3    H2 5266   4.118   1.128   1.764  1.4903  0.9108  1.6072
 1754TIP3   OH2 5267   1.598   4.288   1.379  0.5901  0.3690  0.3492
 1754TIP3    H1 5268   1.609   4.197   1.405 -0.6676  0.2216  0.3884
 1754TIP3    H2 5269   1.667   4.335   1.427  0.1149 -0.3065  1.7131
 1755TIP3   OH2 5270   5.479   4.022   4.934  1.0069  0.1668  0.2059
 1755TIP3    H1 5271   5.452   4.036   4.843 -0.5248 -1.0501  0.4403
 1755TIP3    H2 5272   5.573   4.038   4.933  1.1708 -0.6150 -1.7802
 1756TIP3   OH2 5273   6.035   0.735   2.009  0.0447 -0.5805 -0.0183
 1756TIP3    H1 5274   6.121   0.772   2.029 -0.6948 -0.2367  3.0032
 1756TIP3    H2 5275   5.981   0.810   1.987 -0.3497 -0.2755  1.7935
 1757TIP3   OH2 5276   5.557  -0.014   2.824  0.0985 -0.0816 -0.2224
 1757TIP3    H1 5277   5.587   0.067   2.865  0.0036  0.3028 -0.8989
 1757TIP3    H2 5278   5.462  -0.006   2.824  0.0770 -0.3198 -0.0507
 1758TIP3   OH2 5279   4.649   5.020   3.011  0.0808 -0.3209 -0.9058
 1758TIP3    H1 5280   4.729   4.972   2.989  0.4046 -1.0813  1.5822
 1758TIP3    H2 5281   4.615   4.976   3.089 -1.4577  1.4575 -0.4878
 1759TIP3   OH2 5282   1.536   3.429   2.745  0.3525  0.1122 -0.0587
 1759TIP3    H1 5283   1.545   3.436   2.840  0.5548 -2.4956  0.1865
 1759TIP3    H2 5284   1.474   3.499   2.721 -2.6843 -1.4626  2.5160
 1760TIP3   OH2 5285   3.097   3.192   0.432 -0.1316 -0.0448  0.3583
 1760TIP3    H1 5286   3.170   3.248   0.460 -0.6287  0.3573  0.8639
 1760TIP3    H2 5287   3.061   3.236   0.355 -0.4308  0.2570  0.6689
 1761TIP3   OH2 5288   2.539   1.256  -0.024  0.5417  0.5752  0.2564
 1761TIP3    H1 5289   2.561   1.348  -0.011 -2.5685  1.4249  0.1480
 1761TIP3    H2 5290   2.477   1.235   0.046  0.7292 -1.3113 -0.0692
 1762TIP3   OH2 5291   5.454   0.081   1.106  0.0589  0.0057  0.3023
 1762TIP3    H1 5292   5.494   0.102   1.190 -1.3480 -1.7522  1.4833
 1762TIP3    H2 5293   5.391   0.152   1.091  2.1630  1.8053 -0.6968
 1763TIP3   OH2 5294   0.594   5.240   1.698  0.0428  0.0717  0.1529
 1763TIP3    H1 5295   0.529   5.219   1.631  0.4949  2.3030 -1.0780
 1763TIP3    H2 5296   0.621   5.155   1.733  0.4484 -1.2789 -3.1174
 1764TIP3   OH2 5297   2.621   1.855   4.800 -0.2068  0.0296 -0.2373
 1764TIP3    H1 5298   2.575   1.915   4.742 -1.0294 -2.7598 -2.7349
 1764TIP3    H2 5299   2.706   1.841   4.758 -0.1886 -0.8329  0.0622
 1765TIP3   OH2 5300   4.622   5.425   4.090  0.2917  0.3629 -0.6217
 1765TIP3    H1 5301   4.671   5.497   4.129 -0.5200  0.8945 -0.5594
 1765TIP3    H2 5302   4.571   5.465   4.020 -1.7113  0.2489  0.6921
 1766TIP3   OH2 5303   5.157   5.702   2.401  0.0845  0.0295 -0.0391
 1766TIP3    H1 5304   5.241   5.747   2.395  0.5600 -0.7518  0.6507
 1766TIP3    H2 5305   5.164   5.630   2.338  1.4655 -2.4135  2.6993
 1767TIP3   OH2 5306   0.902   5.258   2.767  0.1408  0.4393 -0.2703
 1767TIP3    H1 5307   0.825   5.262   2.710  0.3313  3.3128 -0.4676
 1767TIP3    H2 5308   0.973   5.298   2.716  2.3046 -3.4936 -0.6818
 1768TIP3   OH2 5309   1.324   0.620   1.688 -0.3779  0.5759  0.4152
 1768TIP3    H1 5310   1.407   0.591   1.651 -1.6291 -1.7554 -0.8500
 1768TIP3    H2 5311   1.258   0.590   1.625 -2.1620  3.2956  0.8101
 1769TIP3   OH2 5312   5.347   5.101   0.858  0.0571  0.5571  0.1234
 1769TIP3    H1 5313   5.332   5.065   0.946  0.9051  1.9289  0.8701
 1769TIP3    H2 5314   5.260   5.117   0.823 -0.3132 -1.1985  0.1862
 1770TIP3   OH2 5315   4.665   0.684   3.449  0.4297 -0.3889 -0.0463
 1770TIP3    H1 5316   4.704   0.710   3.532  0.8747 -0.3373 -0.2653
 1770TIP3    H2 5317   4.579   0.649   3.472  0.4331 -0.1114  0.4034
 1771TIP3   OH2 5318   4.498   3.720   2.825 -0.7824  0.7587  0.2969
 1771TIP3    H1 5319   4.567   3.727   2.890  0.7586  0.8323 -1.2607
 1771TIP3    H2 5320   4.471   3.811   2.809  0.7122  1.0192 -1.0171
 1772TIP3   OH2 5321   5.126   0.505   1.973  0.6405 -0.2351 -0.2618
 1772TIP3    H1 5322   5.149   0.521   2.064  1.6297 -1.2711 -0.3146
 1772TIP3    H2 5323   5.072   0.426   1.975  0.5885 -0.2103 -0.5634
 1773TIP3   OH2 5324   5.897   3.299   0.405  0.1687 -0.4646  0.1030
 1773TIP3    H1 5325   5.922   3.382   0.364  0.1996  0.1735  1.3948
 1773TIP3    H2 5326   5.908   3.234   0.335  1.5543  0.3903 -0.5069
 1774TIP3   OH2 5327   5.375   1.237   4.011  0.0253 -0.0704  0.0133
 1774TIP3    H1 5328   5.361   1.159   3.957  0.3015 -0.6607  0.7814
 1774TIP3    H2 5329   5.466   1.261   3.994 -0.0530  0.0749 -0.2056
 1775TIP3   OH2 5330   3.087   3.602   2.433  0.7659  0.4443  0.2743
 1775TIP3    H1 5331   3.050   3.523   2.394 -0.8567  2.0951 -1.7324
 1775TIP3    H2 5332   3.137   3.570   2.508  2.0007 -2.6868 -1.6835
 1776TIP3   OH2 5333   3.547   5.873   4.727 -0.4787  0.3213  0.4452
 1776TIP3    H1 5334   3.476   5.908   4.780 -0.6263  1.7112 -0.6074
 1776TIP3    H2 5335   3.624   5.923   4.753 -0.1553 -0.2615  0.6367
 1777TIP3   OH2 5336   3.684   0.457   4.985  0.1553 -0.2984 -0.0215
 1777TIP3    H1 5337   3.767   0.500   4.964  0.4366 -0.7495  0.1753
 1777TIP3    H2 5338   3.680   0.459   5.081 -0.1148 -0.1807 -0.0348
 1778TIP3   OH2 5339   5.598   1.940   0.199 -0.0660  0.4894 -0.1870
 1778TIP3    H1 5340   5.675   1.932   0.142 -0.2604  1.1263 -0.5507
 1778TIP3    H2 5341   5.620   2.010   0.260  0.1897 -0.2774  0.6137
 1779TIP3   OH2 5342   4.065   4.625   2.208 -0.2925  0.1647 -0.5156
 1779TIP3    H1 5343   4.053   4.686   2.134 -1.7341  0.3180 -0.1924
 1779TIP3    H2 5344   4.003   4.655   2.274  0.5886 -0.3108  0.5641
 1780TIP3   OH2 5345   1.249   1.762   3.085 -0.2274 -0.1722  0.2695
 1780TIP3    H1 5346   1.319   1.788   3.025 -0.8957  0.8640 -0.1037
 1780TIP3    H2 5347   1.275   1.797   3.170  1.9626 -3.7720  1.2709
 1781TIP3   OH2 5348   1.920   5.610   1.261 -0.2291  0.3322 -0.5055
 1781TIP3    H1 5349   1.842   5.665   1.267 -0.9075 -0.5040 -1.3269
 1781TIP3    H2 5350   1.887   5.525   1.231  1.0228  0.0276 -1.0658
 1782TIP3   OH2 5351   3.653   1.160   1.487 -0.0295 -0.5428  0.2652
 1782TIP3    H1 5352   3.678   1.076   1.449 -0.7611 -0.1151 -1.2368
 1782TIP3    H2 5353   3.704   1.165   1.568  3.0620 -0.7154 -1.4944
 1783TIP3   OH2 5354   5.658   5.781   4.157 -0.6364 -0.3920 -0.4862
 1783TIP3    H1 5355   5.578   5.834   4.159  0.3904  1.2517 -1.1638
 1783TIP3    H2 5356   5.703   5.803   4.239 -1.0931 -1.7577  0.1796
 1784TIP3   OH2 5357   1.387   0.185   0.387  0.0410  0.3498  0.7476
 1784TIP3    H1 5358   1.332   0.223   0.319  0.2049  0.0106  0.4228
 1784TIP3    H2 5359   1.462   0.244   0.393  0.6761 -0.3092 -0.2989
 1785TIP3   OH2 5360   2.730   3.780   0.862  0.0174  0.2675 -0.1121
 1785TIP3    H1 5361   2.684   3.852   0.906 -0.4090 -1.2186  2.0332
 1785TIP3    H2 5362   2.732   3.710   0.926  3.3461 -0.5631 -0.9140
 1786TIP3   OH2 5363   3.643   5.909   0.454 -0.1573  0.6705  0.2923
 1786TIP3    H1 5364   3.648   5.985   0.396 -2.2659  0.0355 -0.8233
 1786TIP3    H2 5365   3.562   5.921   0.503 -0.3634 -0.6854  0.3270
 1787TIP3   OH2 5366   6.114   4.817   2.043 -0.9864  0.9757  0.3393
 1787TIP3    H1 5367   6.189   4.837   2.098 -0.2410 -1.1686  0.2018
 1787TIP3    H2 5368   6.111   4.888   1.979  1.6517  0.5805 -0.3476
 1788TIP3   OH2 5369   1.844   2.645   1.496  0.5608  0.2858 -0.2392
 1788TIP3    H1 5370   1.842   2.626   1.590 -0.2258 -1.2448 -0.5332
 1788TIP3    H2 5371   1.796   2.572   1.456  0.1037  1.3768 -1.7574
 1789TIP3   OH2 5372   2.179   1.618   1.413 -0.0928  0.3512  0.2878
 1789TIP3    H1 5373   2.165   1.613   1.318  0.0392 -0.5322  0.3073
 1789TIP3    H2 5374   2.210   1.531   1.437  0.3338  0.7065  1.0718
 1790TIP3   OH2 5375   0.119   5.690   4.840 -0.1511 -0.0606 -0.7183
 1790TIP3    H1 5376   0.029   5.659   4.837  0.3462 -1.5003 -1.8576
 1790TIP3    H2 5377   0.150   5.664   4.927 -0.5736 -0.2805 -0.6320
 1791TIP3   OH2 5378   4.891   1.750   5.109  0.1408 -0.3111  0.1813
 1791TIP3    H1 5379   4.847   1.682   5.057  1.6137  0.9274 -2.9670
 1791TIP3    H2 5380   4.974   1.711   5.135  0.6570 -0.0561 -0.9824
 1792TIP3   OH2 5381   0.894   5.311   5.153  0.5163 -0.0199 -0.4638
 1792TIP3    H1 5382   0.822   5.262   5.114  0.4372 -0.5459  0.3221
 1792TIP3    H2 5383   0.968   5.294   5.095  0.2407 -0.2717 -0.7455
 1793TIP3   OH2 5384   4.944   4.934   4.576 -0.9057  0.7021 -0.3112
 1793TIP3    H1 5385   4.917   4.983   4.654 -1.9032  2.0584 -1.4374
 1793TIP3    H2 5386   4.888   4.857   4.576 -0.2393  0.1882  0.7932
 1794TIP3   OH2 5387   0.029   3.474   5.156  0.6815 -0.4768  0.6202
 1794TIP3    H1 5388  -0.045   3.535   5.163  0.1368 -1.0044 -0.3170
 1794TIP3    H2 5389   0.091   3.504   5.222 -0.1784  0.2476  1.1229
 1795TIP3   OH2 5390   3.717   2.353   2.253 -0.0092 -0.3977 -0.3395
 1795TIP3    H1 5391   3.637   2.310   2.282 -0.0596  0.8496  1.6016
 1795TIP3    H2 5392   3.710   2.442   2.288  1.7095  0.0905 -1.1136
 1796TIP3   OH2 5393   6.200   5.512   0.507  0.5835  0.0970  0.4862
 1796TIP3    H1 5394   6.197   5.528   0.602 -2.8795  1.9432  0.2218
 1796TIP3    H2 5395   6.188   5.598   0.468  0.7371 -0.7873 -1.6177
 1797TIP3   OH2 5396   0.384   2.864   1.300  0.2364 -0.0092  0.3891
 1797TIP3    H1 5397   0.321   2.927   1.336  0.6079  1.0860 -0.7713
 1797TIP3    H2 5398   0.332   2.786   1.280 -0.2855 -0.0017  1.6183
 1798TIP3   OH2 5399   2.837   0.086   3.968 -0.7579  0.5228  0.0710
 1798TIP3    H1 5400   2.931   0.084   3.983 -0.4620 -1.8086 -1.4974
 1798TIP3    H2 5401   2.818   0.177   3.946  1.3450  0.8183 -0.7568
 1799TIP3   OH2 5402   0.164   3.935   2.382  0.8004  0.1874  0.6331
 1799TIP3    H1 5403   0.250   3.895   2.392  1.1193  1.1122  1.6849
 1799TIP3    H2 5404   0.174   4.024   2.413 -0.7314  0.0868  1.5264
 1800TIP3   OH2 5405   0.753   3.938   5.023  0.2923 -0.6290 -0.4373
 1800TIP3    H1 5406   0.799   3.878   5.082  1.5017  0.1754 -0.5284
 1800TIP3    H2 5407   0.673   3.962   5.070  1.3587  0.2109  1.0121
 1801TIP3   OH2 5408   3.248   2.952   1.504  0.3243  0.8767  0.5196
 1801TIP3    H1 5409   3.342   2.961   1.491  0.2582  1.5379  0.4562
 1801TIP3    H2 5410   3.212   2.958   1.415  0.2082  0.8661  0.5667
 1802TIP3   OH2 5411   3.589   2.109   0.771 -0.3588 -0.3434 -0.1081
 1802TIP3    H1 5412   3.559   2.122   0.861 -1.5366 -0.5445 -0.4566
 1802TIP3    H2 5413   3.551   2.183   0.723  0.0363 -0.3919 -0.5048
 1803TIP3   OH2 5414   2.113   0.263   2.678  0.0225  0.3751 -0.0671
 1803TIP3    H1 5415   2.081   0.339   2.727  2.3302  0.7649  0.9874
 1803TIP3    H2 5416   2.144   0.202   2.745  0.1561 -0.5719 -0.9706
 1804TIP3   OH2 5417   3.842   5.367   4.198  0.5080  0.3425  1.0384
 1804TIP3    H1 5418   3.803   5.331   4.118  1.1274  0.7246  0.5530
 1804TIP3    H2 5419   3.851   5.292   4.256 -1.8219  0.3998  1.5464
 1805TIP3   OH2 5420   1.684   4.881   0.754 -0.4944  0.5964 -0.0747
 1805TIP3    H1 5421   1.589   4.872   0.753 -0.3772 -0.9845 -1.5677
 1805TIP3    H2 5422   1.717   4.793   0.737  1.2833  0.9717  1.1167
 1806TIP3   OH2 5423   3.025   0.544   3.356  0.4456 -0.0773  0.5235
 1806TIP3    H1 5424   3.014   0.467   3.301  0.2647  0.8672 -0.8045
 1806TIP3    H2 5425   3.057   0.612   3.297  1.2681  0.6935  1.7995
 1807TIP3   OH2 5426   0.017   1.917   2.449 -0.2822  0.4316  0.0167
 1807TIP3    H1 5427  -0.068   1.887   2.480  0.6374 -0.5986  1.6900
 1807TIP3    H2 5428   0.080   1.856   2.487  1.2253  1.1976 -1.1268
 1808TIP3   OH2 5429   3.741   3.119   1.597  0.1276 -0.2368  0.0717
 1808TIP3    H1 5430   3.734   3.214   1.606  0.1090 -0.4445  3.5673
 1808TIP3    H2 5431   3.824   3.106   1.553 -0.4859  1.3712 -1.7174
 1809TIP3   OH2 5432   3.436   0.786   2.123  0.3671  0.0972 -0.0807
 1809TIP3    H1 5433   3.400   0.699   2.139 -0.4709  0.3969 -0.3176
 1809TIP3    H2 5434   3.528   0.778   2.149 -0.2700 -0.1742  2.3721
 1810TIP3   OH2 5435   0.546   2.868   1.837 -0.2946 -0.2348 -0.4458
 1810TIP3    H1 5436   0.494   2.789   1.819  0.2861 -1.1262  1.4869
 1810TIP3    H2 5437   0.631   2.849   1.799 -0.1898 -0.5047 -0.0837
 1811TIP3   OH2 5438   4.949   3.924   2.150 -0.3076  0.0792  0.0051
 1811TIP3    H1 5439   4.868   3.884   2.120 -0.9414  1.5013 -0.2781
 1811TIP3    H2 5440   4.942   3.925   2.245 -0.7017  0.3464 -0.0258
 1812TIP3   OH2 5441   6.057   2.716   3.413 -0.4034  0.0571 -0.2323
 1812TIP3    H1 5442   5.962   2.731   3.419 -0.5238  0.1386 -1.8570
 1812TIP3    H2 5443   6.071   2.634   3.462 -1.0743  0.7579  1.2109
 1813TIP3   OH2 5444   1.125   1.606   3.680  0.3398  0.1829  0.4349
 1813TIP3    H1 5445   1.100   1.516   3.663 -0.5759  0.2970  1.1091
 1813TIP3    H2 5446   1.045   1.648   3.711  1.0226  0.9331  1.2403
 1814TIP3   OH2 5447   4.717   2.592   0.086  0.1646 -0.2434 -0.2052
 1814TIP3    H1 5448   4.632   2.571   0.125 -0.4373 -0.1207 -1.4194
 1814TIP3    H2 5449   4.780   2.575   0.156 -0.9166  0.3713  0.9570
 1815TIP3   OH2 5450   2.563   1.113   1.230 -0.1331 -0.0983 -0.6841
 1815TIP3    H1 5451   2.560   1.021   1.255  0.2081 -0.0737 -0.5471
 1815TIP3    H2 5452   2.568   1.111   1.134 -1.7851 -0.1852 -0.8026
 1816TIP3   OH2 5453   4.907   0.845   2.024  0.4252  0.2694  0.7643
 1816TIP3    H1 5454   4.843   0.775   2.013  1.3808 -0.5061 -0.0266
 1816TIP3    H2 5455   4.871   0.918   1.975  1.1468 -0.8558 -1.5674
 1817TIP3   OH2 5456   5.447   5.544   4.997 -0.8203 -0.0048 -0.2288
 1817TIP3    H1 5457   5.448   5.626   5.047  2.2390  0.0440 -0.1877
 1817TIP3    H2 5458   5.485   5.566   4.912 -0.5824 -1.2494 -0.4727
 1818TIP3   OH2 5459   5.200   1.189   1.259  0.6239 -0.1162  0.3496
 1818TIP3    H1 5460   5.130   1.125   1.244 -0.4034  1.4865 -2.4438
 1818TIP3    H2 5461   5.224   1.178   1.351  0.1917 -4.1536  0.1656
 1819TIP3   OH2 5462   3.064   4.214   1.613  0.1513  0.1094  0.1486
 1819TIP3    H1 5463   3.085   4.289   1.669 -0.3909  1.0035 -0.8033
 1819TIP3    H2 5464   3.004   4.161   1.665 -1.6645  1.7675 -0.1363
 1820TIP3   OH2 5465   2.217   3.637   1.929 -0.2780  0.0901  0.1658
 1820TIP3    H1 5466   2.179   3.564   1.881 -0.9673  1.5594 -1.6651
 1820TIP3    H2 5467   2.203   3.615   2.021 -2.5183 -1.0402 -0.3599
 1821TIP3   OH2 5468   5.833   3.751   2.243  0.0009  0.4509 -0.2923
 1821TIP3    H1 5469   5.760   3.808   2.216 -0.3574  0.6759  1.0993
 1821TIP3    H2 5470   5.891   3.809   2.292 -1.1619 -0.6311  2.5752
 1822TIP3   OH2 5471   5.539   1.574   4.254  0.2021  0.1205  0.1707
 1822TIP3    H1 5472   5.632   1.563   4.238  0.4292  0.5517  1.1200
 1822TIP3    H2 5473   5.514   1.497   4.305  0.5040  0.9679  1.6709
 1823TIP3   OH2 5474   2.793   4.498   3.956 -0.0899 -0.6102  0.0565
 1823TIP3    H1 5475   2.801   4.422   4.013 -0.2861 -1.0625 -0.5189
 1823TIP3    H2 5476   2.708   4.487   3.913  0.6336 -0.9535 -1.3091
 1824TIP3   OH2 5477   3.990   0.941   0.658  0.1367  0.6297  0.5330
 1824TIP3    H1 5478   3.964   0.950   0.566 -1.2418  0.4589  0.8844
 1824TIP3    H2 5479   3.932   1.002   0.705  0.9290  0.8243  1.2737
 1825TIP3   OH2 5480   0.571   3.061   1.422  0.2677 -0.0816  0.9177
 1825TIP3    H1 5481   0.520   2.986   1.392  0.1199  0.1891  0.4883
 1825TIP3    H2 5482   0.661   3.029   1.425  0.6481  0.4743 -1.9198
 1826TIP3   OH2 5483   3.946   4.470   3.104  0.0516 -0.2528  0.3679
 1826TIP3    H1 5484   3.878   4.534   3.081  0.4981 -0.0665 -0.4927
 1826TIP3    H2 5485   3.908   4.385   3.080  0.2922 -0.1080 -0.5910
 1827TIP3   OH2 5486   2.768   0.895   3.265  0.2436 -0.6079 -0.0600
 1827TIP3    H1 5487   2.781   0.979   3.308  0.0547 -0.6264  0.0338
 1827TIP3    H2 5488   2.733   0.918   3.178  0.2385 -0.5879 -0.0526
 1828TIP3   OH2 5489   4.468   3.989   0.395  0.8243 -0.8730  0.4169
 1828TIP3    H1 5490   4.418   3.973   0.474  0.6805 -3.3598 -0.0885
 1828TIP3    H2 5491   4.560   3.982   0.422  0.8964  1.4645  0.9190
 1829TIP3   OH2 5492   5.946   3.127   2.732 -0.0748 -0.0620  0.1370
 1829TIP3    H1 5493   5.984   3.185   2.665 -0.0490  0.1953  0.3728
 1829TIP3    H2 5494   6.010   3.057   2.741  0.5206  0.5411  0.7741
 1830TIP3   OH2 5495   0.536   3.796   3.660 -0.0822 -0.2686 -0.1891
 1830TIP3    H1 5496   0.582   3.730   3.713 -1.1015 -1.0198 -0.2157
 1830TIP3    H2 5497   0.484   3.746   3.598 -1.9901  0.4862  0.7126
 1831TIP3   OH2 5498   0.285   5.236   1.991 -0.0631 -0.5939 -0.3748
 1831TIP3    H1 5499   0.296   5.206   1.900  0.5737  1.8780 -1.1943
 1831TIP3    H2 5500   0.374   5.241   2.025  0.0359  1.8829 -0.8520
 1832TIP3   OH2 5501   3.899   5.016   4.109  0.4645  0.4272 -0.2759
 1832TIP3    H1 5502   3.852   5.068   4.044 -0.2590 -0.7272 -0.7022
 1832TIP3    H2 5503   3.991   5.020   4.081  0.7451  2.9223  0.7164
 1833TIP3   OH2 5504   3.334   4.467   4.462 -0.5711 -0.0028  0.1794
 1833TIP3    H1 5505   3.282   4.513   4.528  0.1183  0.8847  0.1251
 1833TIP3    H2 5506   3.407   4.526   4.444 -0.2261 -0.6689 -0.6693
 1834TIP3   OH2 5507   0.957   1.645   3.901 -0.8554 -0.1453 -0.3839
 1834TIP3    H1 5508   0.955   1.549   3.896 -1.4916 -0.1211 -0.7794
 1834TIP3    H2 5509   0.988   1.664   3.989 -0.8041 -0.7180 -0.2750
 1835TIP3   OH2 5510   0.859   0.146   3.735  0.5050 -0.1430  0.2668
 1835TIP3    H1 5511   0.852   0.108   3.648 -0.5925  0.2660  0.1574
 1835TIP3    H2 5512   0.935   0.204   3.730  1.4233 -1.3295  0.0692
 1836TIP3   OH2 5513   4.646   2.580   3.288  0.0396 -0.5851  0.0474
 1836TIP3    H1 5514   4.725   2.547   3.247 -0.9642 -1.3213 -1.3862
 1836TIP3    H2 5515   4.667   2.587   3.381  1.8320 -0.5465 -0.3366
 1837TIP3   OH2 5516   0.779   0.550   3.442 -0.7727 -0.0116  0.1315
 1837TIP3    H1 5517   0.758   0.495   3.518  2.0705  0.2331  1.1883
 1837TIP3    H2 5518   0.819   0.490   3.379  0.3990  0.4261  0.4303
 1838TIP3   OH2 5519   4.425   3.265   1.156  0.2842  0.1271 -0.9136
 1838TIP3    H1 5520   4.415   3.354   1.191  1.3845  1.1952 -3.1245
 1838TIP3    H2 5521   4.517   3.243   1.172 -0.5103 -1.7356  1.8664
 1839TIP3   OH2 5522   1.891   0.182   2.493  0.2379  0.6274 -0.3044
 1839TIP3    H1 5523   1.870   0.111   2.555 -0.5910  1.2323  0.1314
 1839TIP3    H2 5524   1.979   0.210   2.518  1.4650 -1.5841 -1.7908
 1840TIP3   OH2 5525   2.262   0.698   1.140  0.1189 -0.0763  0.1286
 1840TIP3    H1 5526   2.318   0.642   1.193 -0.2154 -0.2106  0.3435
 1840TIP3    H2 5527   2.181   0.706   1.191  0.1554  0.5853  0.0941
 1841TIP3   OH2 5528   1.031   5.567   4.955  0.3197  0.5354 -0.0579
 1841TIP3    H1 5529   1.107   5.577   5.012  0.0483  2.5038  0.0030
 1841TIP3    H2 5530   1.046   5.483   4.910  1.1849 -0.4030  1.8758
 1842TIP3   OH2 5531   5.194   5.453   3.113  0.4357  0.6090  0.5189
 1842TIP3    H1 5532   5.224   5.397   3.041  0.8599 -1.6334  2.3139
 1842TIP3    H2 5533   5.104   5.476   3.090  0.8405  0.6767 -1.1150
 1843TIP3   OH2 5534   3.045   2.036   2.305  0.2334  0.7390  0.0959
 1843TIP3    H1 5535   2.960   2.061   2.268  0.5375 -0.6056 -1.7070
 1843TIP3    H2 5536   3.082   2.117   2.339 -0.3130  2.0475 -2.2098
 1844TIP3   OH2 5537   5.470   2.786   0.763  0.0365 -0.6044  0.0216
 1844TIP3    H1 5538   5.524   2.788   0.841  0.1603 -0.9764 -0.0530
 1844TIP3    H2 5539   5.408   2.858   0.775  0.8433  0.1327 -0.1118
 1845TIP3   OH2 5540   4.808   4.311   3.059  0.4733 -0.7909  0.0170
 1845TIP3    H1 5541   4.847   4.388   3.100  0.8614 -1.0388  0.1100
 1845TIP3    H2 5542   4.748   4.347   2.994 -0.5466 -0.3708  1.1459
 1846TIP3   OH2 5543   0.480   0.119   1.725  0.5283 -0.1064  0.0565
 1846TIP3    H1 5544   0.454   0.058   1.655 -0.5430  0.9727 -0.5249
 1846TIP3    H2 5545   0.554   0.167   1.688  0.9465 -0.5921  0.2584
 1847TIP3   OH2 5546   1.134   5.166   5.031 -0.7246  0.0691 -0.2893
 1847TIP3    H1 5547   1.092   5.084   5.057  0.1827 -0.7304 -1.2124
 1847TIP3    H2 5548   1.225   5.157   5.061 -0.9440  1.3444  0.8201
 1848TIP3   OH2 5549   3.070   5.022   4.095 -0.1326  0.6780 -0.3852
 1848TIP3    H1 5550   3.132   4.949   4.086 -1.0187 -0.2142  0.5277
 1848TIP3    H2 5551   2.998   4.998   4.037 -1.9120 -0.8383  2.2445
 1849TIP3   OH2 5552   0.558   1.004   0.848  0.6215 -0.5005  0.1672
 1849TIP3    H1 5553   0.513   0.980   0.767 -1.4825  1.5898  0.6021
 1849TIP3    H2 5554   0.646   1.029   0.820  0.5644 -1.7142 -1.1861
 1850TIP3   OH2 5555   1.474   2.283   1.493  0.0911  0.1474  0.4724
 1850TIP3    H1 5556   1.394   2.266   1.543  0.2438  0.6138  0.8874
 1850TIP3    H2 5557   1.544   2.250   1.550  0.1492 -0.9809 -0.2270
 1851TIP3   OH2 5558   3.344   3.870   1.808  0.1772  0.4423 -0.3507
 1851TIP3    H1 5559   3.265   3.860   1.754 -0.8764 -0.0513  1.1891
 1851TIP3    H2 5560   3.387   3.948   1.773 -0.6862  0.3907 -1.6047
 1852TIP3   OH2 5561   1.250   0.796   0.382  0.2648  0.5694 -0.1505
 1852TIP3    H1 5562   1.170   0.771   0.336 -0.2053  0.2370  0.8102
 1852TIP3    H2 5563   1.289   0.713   0.410 -0.2358  0.7765  1.2871
 1853TIP3   OH2 5564   5.621   0.531   3.198 -0.6212  0.3218 -0.3881
 1853TIP3    H1 5565   5.688   0.581   3.151 -0.2545  1.2622  1.0966
 1853TIP3    H2 5566   5.538   0.572   3.173 -0.4566  0.6098 -0.4667
 1854TIP3   OH2 5567   4.153   3.178   0.636  0.0327  1.0284 -0.3440
 1854TIP3    H1 5568   4.144   3.193   0.730 -0.8294 -0.8547 -0.0705
 1854TIP3    H2 5569   4.081   3.226   0.596 -0.4657  0.6710  0.1138
 1855TIP3   OH2 5570   4.343   0.961   0.544  0.1914  0.5725 -0.0553
 1855TIP3    H1 5571   4.328   1.038   0.598  1.9413  0.9708 -0.0608
 1855TIP3    H2 5572   4.409   0.910   0.592 -0.6205 -0.7141 -0.2622
 1856TIP3   OH2 5573   4.535   1.134   2.532 -0.2002 -0.2198 -0.4798
 1856TIP3    H1 5574   4.536   1.183   2.615 -0.7779 -0.1409 -0.5160
 1856TIP3    H2 5575   4.442   1.121   2.513 -0.0621 -0.6356 -0.8841
 1857TIP3   OH2 5576   2.096   2.583   4.897  0.0449 -0.4757  0.4347
 1857TIP3    H1 5577   2.153   2.575   4.974 -0.3407  4.4429  1.5092
 1857TIP3    H2 5578   2.009   2.597   4.933 -0.1193  2.1297 -0.7911
 1858TIP3   OH2 5579   6.085   4.751   4.186  0.0507  0.0793 -0.4188
 1858TIP3    H1 5580   6.141   4.707   4.122 -1.1500 -0.9668 -0.7924
 1858TIP3    H2 5581   6.140   4.762   4.263  0.0693 -3.3296  0.1864
 1859TIP3   OH2 5582   0.032   2.115   3.509  0.3036  0.2000 -0.3277
 1859TIP3    H1 5583   0.114   2.067   3.512  0.5578  0.6653  0.6353
 1859TIP3    H2 5584   0.056   2.205   3.533 -0.4310  0.4290 -0.4127
 1860TIP3   OH2 5585   2.425   5.013   4.903  0.3315  0.2776 -0.0153
 1860TIP3    H1 5586   2.447   5.087   4.960  1.1974 -0.1245  0.1856
 1860TIP3    H2 5587   2.509   4.982   4.869 -0.1413  0.2554 -1.2023
 1861TIP3   OH2 5588   0.129   0.266   2.832 -0.7626  0.1313  0.4082
 1861TIP3    H1 5589   0.034   0.275   2.835 -0.8893 -1.0313  0.3990
 1861TIP3    H2 5590   0.162   0.340   2.884 -1.5707  1.6712 -1.1755
 1862TIP3   OH2 5591   0.262   3.837   0.715 -0.2642 -0.1219 -0.5341
 1862TIP3    H1 5592   0.262   3.864   0.807  1.7176 -0.1503 -0.4712
 1862TIP3    H2 5593   0.334   3.774   0.709  0.4545  0.7933 -2.3212
 1863TIP3   OH2 5594   1.280   4.150   2.769  0.5966 -0.0166 -0.2067
 1863TIP3    H1 5595   1.291   4.245   2.775 -0.3102  0.0529  0.6581
 1863TIP3    H2 5596   1.209   4.139   2.705 -2.2877  0.1666  2.6810
 1864TIP3   OH2 5597   0.096   0.981   3.181 -0.2810  0.0878 -0.1143
 1864TIP3    H1 5598   0.151   1.029   3.119 -0.8147 -0.6085 -1.1488
 1864TIP3    H2 5599   0.154   0.962   3.255  0.7583 -0.2797 -1.0051
 1865TIP3   OH2 5600   5.286   2.348   1.370  0.2623 -0.8421 -0.2994
 1865TIP3    H1 5601   5.307   2.396   1.290 -1.3060 -0.6612 -0.6269
 1865TIP3    H2 5602   5.345   2.385   1.436 -1.2022  1.9630 -0.3966
 1866TIP3   OH2 5603   3.410   1.887   2.263  0.1123  0.3927 -0.5916
 1866TIP3    H1 5604   3.472   1.932   2.207  2.3072 -2.2332 -0.4445
 1866TIP3    H2 5605   3.414   1.796   2.236 -1.3623 -0.3851  1.5446
 1867TIP3   OH2 5606   5.080   2.755   4.694 -0.5572  0.3244  0.3395
 1867TIP3    H1 5607   5.002   2.761   4.749 -0.0830  0.8909  0.9743
 1867TIP3    H2 5608   5.047   2.729   4.608 -1.3338 -0.4346  0.8475
 1868TIP3   OH2 5609   4.876   5.462   3.526 -0.0971 -0.4199  0.3401
 1868TIP3    H1 5610   4.907   5.440   3.439 -0.4246  1.5800 -0.3400
 1868TIP3    H2 5611   4.808   5.398   3.545 -1.1432  0.0555 -1.5675
 1869TIP3   OH2 5612   2.440   3.434   0.978 -0.1726 -0.0978 -0.4829
 1869TIP3    H1 5613   2.451   3.440   0.883  1.1483  0.2114 -0.3262
 1869TIP3    H2 5614   2.359   3.384   0.990  0.0683 -0.8201 -1.7592
 1870TIP3   OH2 5615   4.405   4.821   2.227  0.1141 -0.3951  0.3120
 1870TIP3    H1 5616   4.452   4.899   2.256 -0.2829  0.0081 -0.0928
 1870TIP3    H2 5617   4.458   4.748   2.256  0.6278  0.0380  0.4725
 1871TIP3   OH2 5618   5.829   2.453   4.795 -0.4050  0.5151 -0.4191
 1871TIP3    H1 5619   5.895   2.409   4.741  0.4119  2.3188 -0.9594
 1871TIP3    H2 5620   5.874   2.473   4.877 -0.2885  1.6516 -0.7464
 1872TIP3   OH2 5621   0.438   1.163   0.045 -0.0517  0.0242  0.3232
 1872TIP3    H1 5622   0.504   1.115  -0.004  1.0558 -0.0531  1.8065
 1872TIP3    H2 5623   0.477   1.249   0.061 -0.9153  0.4971  0.0006
 1873TIP3   OH2 5624   0.438   5.124   1.520 -0.0503  0.2348 -0.6653
 1873TIP3    H1 5625   0.461   5.038   1.485  1.0795  1.1607 -2.3188
 1873TIP3    H2 5626   0.389   5.166   1.449 -1.9488  0.4400  0.6915
 1874TIP3   OH2 5627   3.452   1.142   4.806  0.4512 -0.1268  0.3056
 1874TIP3    H1 5628   3.428   1.050   4.807  1.8123 -0.5443  2.7014
 1874TIP3    H2 5629   3.431   1.172   4.717 -2.1291 -2.1201  0.1408
 1875TIP3   OH2 5630   1.817   2.256   2.209  0.2339 -0.1437 -0.0863
 1875TIP3    H1 5631   1.897   2.218   2.247 -0.4243 -1.8769 -0.3322
 1875TIP3    H2 5632   1.762   2.180   2.190 -0.9233  0.9344 -1.1788
 1876TIP3   OH2 5633   4.366   3.493   1.300  0.6341  0.0787 -0.3004
 1876TIP3    H1 5634   4.431   3.518   1.366  1.4450  1.1071 -1.4408
 1876TIP3    H2 5635   4.332   3.577   1.267 -0.8364 -0.4393 -0.1554
 1877TIP3   OH2 5636   2.688   4.328   2.568  0.2978 -0.4157 -0.3186
 1877TIP3    H1 5637   2.701   4.233   2.566 -1.6885 -0.8493  2.1266
 1877TIP3    H2 5638   2.596   4.339   2.591  0.5120  2.1280 -0.4159
 1878TIP3   OH2 5639   5.960   1.140   3.315  0.5060  0.0270 -0.0303
 1878TIP3    H1 5640   6.038   1.154   3.260  1.6292 -2.2259  0.8779
 1878TIP3    H2 5641   5.931   1.052   3.293 -2.5660  1.1984 -1.1527
 1879TIP3   OH2 5642   2.659   2.091   5.094  0.0117  0.5581 -0.1578
 1879TIP3    H1 5643   2.724   2.102   5.163  0.2374 -0.3584 -0.2094
 1879TIP3    H2 5644   2.708   2.098   5.012 -0.2610  1.6743 -0.2492
 1880TIP3   OH2 5645   0.310   0.285   3.186 -0.7332  0.3685  0.6540
 1880TIP3    H1 5646   0.343   0.232   3.258  1.0450  0.4394 -0.0488
 1880TIP3    H2 5647   0.280   0.221   3.121  1.1746  0.1524 -0.0866
 1881TIP3   OH2 5648   1.753   0.791   1.598 -0.3653 -0.3521 -0.2101
 1881TIP3    H1 5649   1.775   0.861   1.659 -0.6398 -0.9274  0.5642
 1881TIP3    H2 5650   1.659   0.800   1.584 -0.3732 -0.4693 -0.2352
 1882TIP3   OH2 5651   3.615   2.281   4.343 -0.7930 -0.0590 -0.4349
 1882TIP3    H1 5652   3.534   2.254   4.300 -1.2083  1.6792 -0.8161
 1882TIP3    H2 5653   3.670   2.315   4.272 -0.9054  1.4719  0.1749
 1883TIP3   OH2 5654   4.018   4.095   2.037 -0.3704  0.0420  0.2881
 1883TIP3    H1 5655   4.049   4.168   2.092 -0.4734  0.0043  0.3967
 1883TIP3    H2 5656   3.926   4.114   2.022 -0.3885 -0.0470  0.2858
 1884TIP3   OH2 5657   5.415   0.511   3.564 -0.3481  0.3134  0.0411
 1884TIP3    H1 5658   5.321   0.498   3.569 -0.1968 -0.4761  1.1390
 1884TIP3    H2 5659   5.427   0.574   3.493 -1.6745  0.2154 -0.2863
 1885TIP3   OH2 5660   1.675   5.015   4.978 -0.4165  0.0577 -0.2069
 1885TIP3    H1 5661   1.677   5.081   4.909  0.8022  1.9206  1.4937
 1885TIP3    H2 5662   1.760   4.971   4.972  0.6170  1.7047  1.3633
 1886TIP3   OH2 5663   3.303   3.402   0.529  0.3546 -0.2196 -0.0459
 1886TIP3    H1 5664   3.236   3.426   0.593 -0.4555  0.5056 -1.1239
 1886TIP3    H2 5665   3.305   3.476   0.468  1.3695 -0.7227 -0.6441
 1887TIP3   OH2 5666   3.843   3.864   2.975  0.0408  0.0516  0.6817
 1887TIP3    H1 5667   3.813   3.785   2.931 -0.2874  0.1756  0.6762
 1887TIP3    H2 5668   3.907   3.833   3.039 -1.4949 -0.4710  2.0419
 1888TIP3   OH2 5669   0.041   5.498   4.363 -0.4036 -0.3056  0.2036
 1888TIP3    H1 5670   0.106   5.456   4.420 -1.6450 -0.7881  1.3385
 1888TIP3    H2 5671   0.087   5.513   4.281  1.1278 -0.6427  0.9534
 1889TIP3   OH2 5672   0.515   4.891   2.808 -0.2305 -0.2847 -0.3175
 1889TIP3    H1 5673   0.554   4.979   2.803 -0.8797 -0.0507 -1.5637
 1889TIP3    H2 5674   0.495   4.880   2.901  0.9373  0.3926  0.0464
 1890TIP3   OH2 5675   5.853   1.305   0.576 -0.7269  0.6466 -0.4083
 1890TIP3    H1 5676   5.763   1.273   0.570 -0.6833  0.5824 -0.7249
 1890TIP3    H2 5677   5.858   1.345   0.663 -0.9875  0.4227 -0.2860
 1891TIP3   OH2 5678   1.206   4.928   2.520 -0.2485 -0.0231  0.2167
 1891TIP3    H1 5679   1.174   4.987   2.589 -2.8822  1.0446 -1.7399
 1891TIP3    H2 5680   1.260   4.983   2.464  0.0297 -0.3279  0.1814
 1892TIP3   OH2 5681   3.105   5.962   1.265 -0.0127  0.0005  0.2323
 1892TIP3    H1 5682   3.045   5.889   1.250  0.0340  0.1279 -0.6558
 1892TIP3    H2 5683   3.176   5.924   1.318  0.1713 -0.6859 -0.4864
 1893TIP3   OH2 5684   6.079   1.908   1.089  0.0594  0.5230  0.0123
 1893TIP3    H1 5685   5.992   1.869   1.095  1.5640 -3.0037  1.6260
 1893TIP3    H2 5686   6.092   1.924   0.996 -0.7680 -3.0846 -0.8888
 1894TIP3   OH2 5687   3.231   5.948   4.084 -0.4787  0.0472 -0.6117
 1894TIP3    H1 5688   3.278   5.986   4.010  0.9945  0.4509  0.4770
 1894TIP3    H2 5689   3.196   6.024   4.131 -1.1476 -0.1874 -0.7244
 1895TIP3   OH2 5690   2.019   0.230   3.999 -0.0744 -0.3819 -0.0735
 1895TIP3    H1 5691   1.978   0.244   3.913  0.5479  1.1592 -0.1476
 1895TIP3    H2 5692   1.967   0.160   4.038 -1.7324  0.3432 -0.8485
 1896TIP3   OH2 5693   1.915   3.695   1.647 -0.3373 -0.2852 -0.9129
 1896TIP3    H1 5694   1.868   3.660   1.723  0.8406  0.1151  0.0363
 1896TIP3    H2 5695   1.947   3.617   1.600  1.0474 -0.5651  0.4007
 1897TIP3   OH2 5696   5.256   2.161   3.084 -0.5880 -0.0123 -0.1691
 1897TIP3    H1 5697   5.305   2.201   3.012 -1.3425  2.0194  0.3711
 1897TIP3    H2 5698   5.314   2.093   3.118 -0.6764 -1.8395 -3.3601
 1898TIP3   OH2 5699   5.651   2.589   3.775 -0.0029 -0.4067 -0.4856
 1898TIP3    H1 5700   5.743   2.614   3.772  0.1563 -1.0413 -2.0977
 1898TIP3    H2 5701   5.603   2.669   3.754  0.1801 -0.1272  0.1419
 1899TIP3   OH2 5702   4.789   0.507   4.828 -0.0756 -0.1498 -0.2730
 1899TIP3    H1 5703   4.792   0.542   4.739 -2.3142  1.9059  0.3656
 1899TIP3    H2 5704   4.720   0.441   4.826  0.3510 -0.6015 -0.2143
 1900TIP3   OH2 5705   1.423   5.071   2.043  0.2717  0.4591  0.2954
 1900TIP3    H1 5706   1.462   4.990   2.074 -0.6527 -0.5379 -1.0370
 1900TIP3    H2 5707   1.497   5.124   2.013  0.8658  0.0718  1.0372
 1901TIP3   OH2 5708   5.928   5.531   4.004 -0.4155 -0.4173  0.1173
 1901TIP3    H1 5709   5.833   5.521   3.998 -0.3680 -0.4935 -0.6465
 1901TIP3    H2 5710   5.943   5.624   3.988 -0.4792 -0.0475  2.0275
 1902TIP3   OH2 5711   1.030   3.154   2.213 -0.1208  0.4552  0.4258
 1902TIP3    H1 5712   0.973   3.169   2.288  1.4207  2.5845  1.2623
 1902TIP3    H2 5713   1.118   3.146   2.250  0.3947 -0.9017 -0.9728
 1903TIP3   OH2 5714   4.000   5.251   0.987 -0.2215 -0.3414 -0.4895
 1903TIP3    H1 5715   4.024   5.169   1.031  0.3908 -0.1400 -0.4406
 1903TIP3    H2 5716   3.989   5.314   1.057 -4.2386 -1.1699 -0.1663
 1904TIP3   OH2 5717   4.021   1.447   2.875 -0.2619 -0.4389 -0.1357
 1904TIP3    H1 5718   4.038   1.504   2.800  1.2410 -1.5620 -0.7171
 1904TIP3    H2 5719   3.978   1.370   2.838 -0.3936 -0.5876  0.3142
 1905TIP3   OH2 5720   2.274   5.318   4.917 -0.4320  0.7487  0.3451
 1905TIP3    H1 5721   2.262   5.390   4.979 -2.3766  0.1148  0.7636
 1905TIP3    H2 5722   2.325   5.253   4.966 -2.0282  0.2108  1.3898
 1906TIP3   OH2 5723   0.132   1.068   1.747 -0.1709 -0.4505 -0.2479
 1906TIP3    H1 5724   0.189   1.016   1.804 -0.2962  0.0714  0.3662
 1906TIP3    H2 5725   0.164   1.050   1.658  0.4508 -0.7676  0.0331
 1907TIP3   OH2 5726   2.416   1.110   4.175  0.4071 -0.2512  0.2717
 1907TIP3    H1 5727   2.394   1.018   4.191  0.0831 -0.2129  0.0573
 1907TIP3    H2 5728   2.456   1.109   4.088 -1.1026  0.0323 -0.4533
 1908TIP3   OH2 5729   6.330   0.376   1.928 -0.1760 -0.3273 -0.0347
 1908TIP3    H1 5730   6.361   0.332   1.849  1.7162  0.8740 -0.0166
 1908TIP3    H2 5731   6.280   0.452   1.896 -0.6606 -0.6540 -0.0625
 1909TIP3   OH2 5732   1.703   1.339   4.872 -0.3698  0.3662 -0.0244
 1909TIP3    H1 5733   1.647   1.357   4.796 -2.0899  2.3098  1.5799
 1909TIP3    H2 5734   1.695   1.417   4.927  2.3081 -0.1896  1.3136
 1910TIP3   OH2 5735   3.249   5.184   0.679  0.3323  0.1485  0.2264
 1910TIP3    H1 5736   3.191   5.223   0.745  0.3653 -1.2540  1.1349
 1910TIP3    H2 5737   3.269   5.097   0.714 -0.1529 -0.9041 -1.9427
 1911TIP3   OH2 5738   3.979   0.626   3.477 -0.7134  0.1754  0.2262
 1911TIP3    H1 5739   4.005   0.550   3.425 -0.0843  0.8112 -0.4300
 1911TIP3    H2 5740   3.963   0.695   3.412  0.0700  0.9885  0.8624
 1912TIP3   OH2 5741   3.361   5.757   1.573  0.1587 -0.0350  0.1069
 1912TIP3    H1 5742   3.304   5.752   1.497  1.0380 -0.1212 -0.5615
 1912TIP3    H2 5743   3.383   5.850   1.581  0.4711 -0.0908 -0.0630
 1913TIP3   OH2 5744   1.331   5.736   1.144  0.2226  0.2449  0.8677
 1913TIP3    H1 5745   1.293   5.764   1.227 -0.1979  2.1633  0.0799
 1913TIP3    H2 5746   1.413   5.784   1.138 -0.1973  0.8572 -0.2338
 1914TIP3   OH2 5747   3.464   1.458   3.264 -0.2363 -0.0714 -0.0653
 1914TIP3    H1 5748   3.457   1.529   3.201  0.9673 -0.2364 -0.4073
 1914TIP3    H2 5749   3.510   1.389   3.216 -0.9399 -0.9013  0.4214
 1915TIP3   OH2 5750   3.770   2.552   1.335  0.4917 -0.2642 -0.3775
 1915TIP3    H1 5751   3.783   2.529   1.428  0.2554  0.8289 -0.0619
 1915TIP3    H2 5752   3.679   2.529   1.317  0.9329 -1.8276 -0.7618
 1916TIP3   OH2 5753   4.709   1.705  -0.001 -0.5526 -0.0180  0.7101
 1916TIP3    H1 5754   4.674   1.636  -0.058 -0.4607 -0.3329  1.0347
 1916TIP3    H2 5755   4.714   1.665   0.085  0.3489  0.1069  0.7268
 1917TIP3   OH2 5756   5.060   3.827   3.205  0.0099 -0.5671 -0.6280
 1917TIP3    H1 5757   5.005   3.759   3.245 -0.3173  0.4376  0.6917
 1917TIP3    H2 5758   5.009   3.908   3.215  1.1762  0.1730 -0.5336
 1918TIP3   OH2 5759   6.255   0.525   0.537  0.3098 -0.4247 -0.5730
 1918TIP3    H1 5760   6.310   0.562   0.468  2.0262 -2.5622 -0.4247
 1918TIP3    H2 5761   6.316   0.490   0.601 -1.2473 -0.7211  0.8248
 1919TIP3   OH2 5762   1.079   1.455   4.244 -0.3214 -0.2805  0.3786
 1919TIP3    H1 5763   1.054   1.401   4.169 -2.4557 -1.1408  1.6353
 1919TIP3    H2 5764   1.095   1.542   4.206  3.2556 -1.6119 -1.7027
 1920TIP3   OH2 5765   1.916   0.616   2.193  0.4344 -0.1681  0.2686
 1920TIP3    H1 5766   1.872   0.588   2.273  1.6644  1.9304  1.7705
 1920TIP3    H2 5767   1.923   0.536   2.141 -0.3273 -1.6361  2.2766
 1921TIP3   OH2 5768   4.170   2.250   1.885 -0.2017 -0.0068 -0.1541
 1921TIP3    H1 5769   4.209   2.336   1.891  0.3523 -0.3175  0.9248
 1921TIP3    H2 5770   4.175   2.215   1.974 -1.2191 -0.8009 -0.3881
 1922TIP3   OH2 5771   4.144   3.461   2.290 -0.0837  0.0075  0.3578
 1922TIP3    H1 5772   4.219   3.487   2.237  0.6409  1.5298  2.0482
 1922TIP3    H2 5773   4.073   3.519   2.261  0.0994  0.3113  0.5123
 1923TIP3   OH2 5774   4.159   4.623   1.550  0.1293  0.1513 -0.7220
 1923TIP3    H1 5775   4.234   4.565   1.543 -0.8586 -1.5815  1.5672
 1923TIP3    H2 5776   4.197   4.709   1.572  1.4706 -0.4909 -0.4493
 1924TIP3   OH2 5777   5.451   2.492   1.532  0.0186  0.2133  0.2363
 1924TIP3    H1 5778   5.539   2.527   1.547 -0.0709  0.6873 -0.3178
 1924TIP3    H2 5779   5.397   2.532   1.600  0.1366  0.3129  0.2718
 1925TIP3   OH2 5780   2.817   0.684   2.055 -0.4530 -0.9029 -0.2556
 1925TIP3    H1 5781   2.770   0.735   2.121  0.6047  0.1676 -0.2927
 1925TIP3    H2 5782   2.881   0.746   2.019 -0.1663 -1.8315 -1.3955
 1926TIP3   OH2 5783   1.944   0.897   3.450 -0.0086  0.1100 -0.1604
 1926TIP3    H1 5784   1.917   0.934   3.534 -2.0867 -1.4385 -0.0830
 1926TIP3    H2 5785   1.903   0.953   3.385 -1.1979 -0.6455 -0.0769
 1927TIP3   OH2 5786   1.987   4.352   4.090  0.1910  0.2367 -0.1345
 1927TIP3    H1 5787   1.922   4.339   4.022  0.0268  0.7543 -0.0819
 1927TIP3    H2 5788   1.936   4.370   4.169  0.3896  0.7907 -0.1253
 1928TIP3   OH2 5789   0.891   2.849   3.993 -0.5861  0.0777 -0.1158
 1928TIP3    H1 5790   0.874   2.932   3.948  2.1927 -0.6551 -2.7928
 1928TIP3    H2 5791   0.981   2.857   4.025 -0.7340 -1.4441  0.7781
 1929TIP3   OH2 5792   5.455   4.987   2.080 -0.1696 -0.1249  0.7904
 1929TIP3    H1 5793   5.488   4.952   1.998 -1.8051  3.2238 -1.5047
 1929TIP3    H2 5794   5.390   4.922   2.109  0.9506 -1.7167 -0.1031
 1930TIP3   OH2 5795   3.103   1.905   3.742  0.0443  0.0238  0.4159
 1930TIP3    H1 5796   3.035   1.843   3.717 -0.0035  0.0882  0.3856
 1930TIP3    H2 5797   3.185   1.862   3.717  0.0635 -0.3857  1.1566
 1931TIP3   OH2 5798   3.947   4.244   1.425 -0.0102 -0.2917  0.5558
 1931TIP3    H1 5799   3.975   4.331   1.453  2.6215 -0.4256 -1.3872
 1931TIP3    H2 5800   3.967   4.188   1.500  3.5889 -0.0694 -0.0724
 1932TIP3   OH2 5801   6.189   0.566   1.787  0.8305 -0.0748 -0.4224
 1932TIP3    H1 5802   6.160   0.535   1.701 -1.1241 -1.0731  0.5259
 1932TIP3    H2 5803   6.125   0.633   1.811 -0.4242 -1.8234  1.4317
 1933TIP3   OH2 5804   2.011   3.947   1.621 -0.3800  0.5720  0.6405
 1933TIP3    H1 5805   2.099   3.937   1.655  0.3334 -0.3696 -1.3081
 1933TIP3    H2 5806   1.970   3.861   1.634 -0.4206  0.4940  0.0324
 1934TIP3   OH2 5807   3.801   1.118   0.729 -0.5732  0.1633  0.6740
 1934TIP3    H1 5808   3.750   1.145   0.652 -0.0517 -0.9369 -0.0813
 1934TIP3    H2 5809   3.736   1.110   0.799 -1.8597 -3.0648 -0.7062
 1935TIP3   OH2 5810   3.729   4.026   3.436  0.2093 -0.4167  0.1654
 1935TIP3    H1 5811   3.817   4.061   3.448  0.2872 -0.2743 -0.7623
 1935TIP3    H2 5812   3.742   3.931   3.431  0.4223 -0.3330 -0.9067
 1936TIP3   OH2 5813   1.216   0.876   4.418  0.5903 -0.8420 -0.4428
 1936TIP3    H1 5814   1.235   0.891   4.325 -0.5035 -1.5793 -0.8211
 1936TIP3    H2 5815   1.154   0.945   4.441  0.2292 -1.1440 -0.4975
 1937TIP3   OH2 5816   1.271   2.126   3.215 -0.1923  1.0017 -0.3281
 1937TIP3    H1 5817   1.344   2.173   3.256 -0.4387  0.9411  0.1845
 1937TIP3    H2 5818   1.201   2.191   3.209 -0.9029  0.4268  1.3748
 1938TIP3   OH2 5819   4.781   1.933   4.447  0.1620  0.4002 -0.1425
 1938TIP3    H1 5820   4.832   1.914   4.368 -2.5685  0.1922 -2.0023
 1938TIP3    H2 5821   4.762   1.847   4.485 -1.5854  0.1931 -1.3942
 1939TIP3   OH2 5822   1.885   0.270   0.918  0.5726  0.4012 -0.5121
 1939TIP3    H1 5823   1.896   0.342   0.980 -0.0431 -0.2569  0.3867
 1939TIP3    H2 5824   1.910   0.191   0.967 -2.0024 -0.4054 -0.3535
 1940TIP3   OH2 5825   3.599   0.842   4.566 -0.0146 -0.1134 -0.3651
 1940TIP3    H1 5826   3.628   0.917   4.619  0.0115  1.0301 -1.9293
 1940TIP3    H2 5827   3.560   0.882   4.489 -3.8395 -1.6057  0.5805
 1941TIP3   OH2 5828   3.688   5.567   4.033 -0.2905 -0.0876 -0.6943
 1941TIP3    H1 5829   3.764   5.594   4.084 -1.0227 -0.9650  0.9353
 1941TIP3    H2 5830   3.614   5.610   4.076 -0.8072  0.3288 -1.9360
 1942TIP3   OH2 5831   1.277   3.147   2.704 -0.4187 -0.8739  0.1456
 1942TIP3    H1 5832   1.267   3.228   2.654 -0.7752 -0.6786  0.5319
 1942TIP3    H2 5833   1.280   3.078   2.638 -0.7509 -0.6042 -0.1536
 1943TIP3   OH2 5834   5.594   1.003   4.758 -0.3778 -0.5277  0.7959
 1943TIP3    H1 5835   5.639   1.058   4.822  1.0678 -0.0832 -0.5472
 1943TIP3    H2 5836   5.521   1.057   4.727  1.6579  1.1984 -1.3246
 1944TIP3   OH2 5837   0.088   5.408   5.078 -0.2296  0.1521 -0.1150
 1944TIP3    H1 5838   0.073   5.391   4.985 -0.4230  0.3119 -0.1138
 1944TIP3    H2 5839   0.126   5.496   5.080 -2.2430  1.0619  0.1079
 1945TIP3   OH2 5840   5.526   1.816   1.756  0.2339  0.1206  0.2678
 1945TIP3    H1 5841   5.577   1.891   1.725 -1.0861  1.5982  1.5174
 1945TIP3    H2 5842   5.442   1.824   1.710  0.1580 -0.7609  0.2276
 1946TIP3   OH2 5843   4.663   5.700   4.764  0.6696  0.1945  0.2570
 1946TIP3    H1 5844   4.592   5.683   4.827 -0.6351 -1.3527 -1.4843
 1946TIP3    H2 5845   4.743   5.678   4.811 -0.3430 -2.0022  1.1088
 1947TIP3   OH2 5846   5.581   5.838   0.580  0.5326 -0.1442 -0.4721
 1947TIP3    H1 5847   5.626   5.757   0.604 -0.0350 -0.7168 -1.2731
 1947TIP3    H2 5848   5.592   5.844   0.486  0.8708  0.9151 -0.3762
 1948TIP3   OH2 5849   5.269   5.200   3.403 -0.3850 -0.4104  0.0628
 1948TIP3    H1 5850   5.355   5.210   3.363 -1.5324  0.5992 -2.2891
 1948TIP3    H2 5851   5.257   5.280   3.455 -0.5143  0.2073 -0.8910
 1949TIP3   OH2 5852   2.914   3.322   3.260  0.0495  0.6258 -0.3738
 1949TIP3    H1 5853   2.892   3.310   3.352  1.7848  0.8653  0.1087
 1949TIP3    H2 5854   2.830   3.313   3.214 -0.7950  0.1712  1.1770
 1950TIP3   OH2 5855   2.793   1.950   0.249 -0.9641 -0.1815 -0.3265
 1950TIP3    H1 5856   2.850   1.900   0.307  0.2085  3.1517  1.7210
 1950TIP3    H2 5857   2.705   1.916   0.265 -0.2505 -1.5027  0.9850
 1951TIP3   OH2 5858   0.952   4.438   4.412 -0.1796  0.8471 -0.3515
 1951TIP3    H1 5859   0.861   4.466   4.412 -0.0277  1.3605 -0.9516
 1951TIP3    H2 5860   1.000   4.512   4.448  0.1531  1.1417 -1.3686
 1952TIP3   OH2 5861   5.452   5.699   1.387  0.1340  0.2322 -0.3420
 1952TIP3    H1 5862   5.365   5.687   1.426  1.1553  1.1151  2.4952
 1952TIP3    H2 5863   5.440   5.682   1.294 -2.3103 -3.5498  0.4366
 1953TIP3   OH2 5864   3.101   3.642   3.663 -0.0084  0.0905  0.5900
 1953TIP3    H1 5865   3.160   3.712   3.634  2.4152 -1.4612  1.5076
 1953TIP3    H2 5866   3.104   3.646   3.758  0.5828 -1.5645  0.6660
 1954TIP3   OH2 5867   0.457   3.741   3.391  0.2258 -0.1229  0.0849
 1954TIP3    H1 5868   0.551   3.732   3.410  0.4442 -1.4256 -1.3889
 1954TIP3    H2 5869   0.451   3.733   3.296 -1.3266  0.6974  0.0903
 1955TIP3   OH2 5870   6.327   3.492   2.468 -0.0168 -0.4206  0.2594
 1955TIP3    H1 5871   6.290   3.568   2.513  1.4982  0.3653  0.2280
 1955TIP3    H2 5872   6.367   3.440   2.538  1.2253  0.1595  0.0107
 1956TIP3   OH2 5873   4.032   4.536   3.381  0.3696 -0.2672  0.2907
 1956TIP3    H1 5874   4.020   4.554   3.288 -0.6405 -1.6079  0.1256
 1956TIP3    H2 5875   4.015   4.620   3.424  1.3260  0.4938 -0.7403
 1957TIP3   OH2 5876   1.179   2.390   2.357  0.1204  0.0976 -0.4690
 1957TIP3    H1 5877   1.115   2.456   2.332  0.1651  0.4667  0.3500
 1957TIP3    H2 5878   1.141   2.348   2.434  0.6879  0.0704 -0.1941
 1958TIP3   OH2 5879   1.478   3.584   3.959 -0.0661 -0.8565  0.2194
 1958TIP3    H1 5880   1.517   3.531   4.029  2.0536 -0.8094 -0.8347
 1958TIP3    H2 5881   1.536   3.570   3.884 -0.3124  1.7426 -0.5489
 1959TIP3   OH2 5882   0.911   0.607   1.264  0.5474  0.3534 -0.2391
 1959TIP3    H1 5883   0.863   0.642   1.339  0.3689 -0.5006  0.0485
 1959TIP3    H2 5884   0.913   0.680   1.201  1.0711  1.2115  0.7498
 1960TIP3   OH2 5885   0.080   0.645   0.368 -0.3812 -0.4595 -0.0454
 1960TIP3    H1 5886   0.158   0.693   0.397 -0.2895  0.1503 -1.2772
 1960TIP3    H2 5887   0.015   0.712   0.351 -0.7459 -0.8783 -0.3124
 1961TIP3   OH2 5888   2.141   4.666   4.377  0.1395  0.0140  0.0770
 1961TIP3    H1 5889   2.118   4.740   4.433  0.4130 -1.0205  1.6107
 1961TIP3    H2 5890   2.058   4.623   4.359 -0.0186  0.6510 -0.8089
 1962TIP3   OH2 5891   3.832   3.603   2.490 -0.5695 -0.2117  0.1381
 1962TIP3    H1 5892   3.885   3.538   2.535  0.5207 -0.5754 -1.5828
 1962TIP3    H2 5893   3.760   3.553   2.451 -0.7130 -0.1198  0.2848
 1963TIP3   OH2 5894   5.179   5.556   4.958  0.1618 -0.2869 -0.3118
 1963TIP3    H1 5895   5.271   5.541   4.980  0.3348 -2.2211 -1.9992
 1963TIP3    H2 5896   5.137   5.471   4.972 -1.0382  0.1826 -0.9487
 1964TIP3   OH2 5897   1.443   3.929   2.680 -0.0639  0.2031 -0.4966
 1964TIP3    H1 5898   1.423   3.911   2.588 -0.7005 -0.1678 -0.2938
 1964TIP3    H2 5899   1.369   3.982   2.711 -0.8702 -1.3023  0.3051
 1965TIP3   OH2 5900   3.292   1.814   1.758 -0.1552  0.1272 -0.0051
 1965TIP3    H1 5901   3.213   1.856   1.793 -0.2505 -0.7203  0.8362
 1965TIP3    H2 5902   3.262   1.727   1.731  0.4925 -0.2126  0.3552
 1966TIP3   OH2 5903   4.733   1.188   3.209 -0.1535  0.2542  0.2278
 1966TIP3    H1 5904   4.800   1.167   3.275 -0.5597  1.2808  0.9978
 1966TIP3    H2 5905   4.650   1.173   3.254 -0.4474  2.0084  0.3623
 1967TIP3   OH2 5906   4.165   1.595   1.064 -0.3467  0.2171 -0.5509
 1967TIP3    H1 5907   4.259   1.604   1.077 -0.1921  0.5066 -1.6889
 1967TIP3    H2 5908   4.148   1.641   0.981 -1.8190  2.0248  0.6606
 1968TIP3   OH2 5909   2.505   0.329   3.899  0.0258  0.0933 -0.2310
 1968TIP3    H1 5910   2.506   0.262   3.831 -2.3471  2.1816 -2.5610
 1968TIP3    H2 5911   2.436   0.301   3.959 -0.1053 -0.1778 -0.5036
 1969TIP3   OH2 5912   3.879   3.521   1.715 -0.0585  0.0044  0.5128
 1969TIP3    H1 5913   3.865   3.553   1.626 -0.4692 -1.8161 -0.1189
 1969TIP3    H2 5914   3.807   3.558   1.765 -0.9005 -0.4360 -0.3385
 1970TIP3   OH2 5915   0.556   3.384   4.195  0.1707 -0.1119  0.6765
 1970TIP3    H1 5916   0.571   3.349   4.283  0.4493  0.0346  0.6886
 1970TIP3    H2 5917   0.462   3.373   4.181  0.5106 -2.6074 -0.0766
 1971TIP3   OH2 5918   1.817   5.259   2.486 -0.5284 -0.2553  0.2615
 1971TIP3    H1 5919   1.828   5.225   2.574  0.2012 -1.6689 -0.3493
 1971TIP3    H2 5920   1.755   5.200   2.444 -1.3957  0.7941  0.0093
 1972TIP3   OH2 5921   5.565   5.537   0.429 -0.8102 -0.3133 -0.1828
 1972TIP3    H1 5922   5.521   5.584   0.358  1.6592  1.7190 -0.5387
 1972TIP3    H2 5923   5.623   5.474   0.385 -0.0192  0.2527  0.0102
 1973TIP3   OH2 5924   4.561   4.199   4.208 -0.8958  0.2754 -0.0141
 1973TIP3    H1 5925   4.500   4.223   4.277 -0.9089 -0.6983  0.3324
 1973TIP3    H2 5926   4.629   4.148   4.252 -0.4873  0.3119 -0.5886
 1974TIP3   OH2 5927   0.585   3.970   0.363 -0.6896  0.0927  0.0433
 1974TIP3    H1 5928   0.565   3.999   0.274 -1.7707 -1.4613 -0.2674
 1974TIP3    H2 5929   0.641   4.038   0.398  0.2736  0.4608 -2.0353
 1975TIP3   OH2 5930   3.426   3.738   4.504  0.1834  0.1530 -0.3865
 1975TIP3    H1 5931   3.388   3.746   4.416 -0.3425 -1.4550 -0.3338
 1975TIP3    H2 5932   3.521   3.743   4.489  0.0873  0.2789 -0.9829
 1976TIP3   OH2 5933   1.802   2.965   2.245  0.1496 -0.3256 -0.1743
 1976TIP3    H1 5934   1.800   2.990   2.338  2.6036 -2.1064  0.4600
 1976TIP3    H2 5935   1.765   2.877   2.244  1.6053 -0.9571 -0.5998
 1977TIP3   OH2 5936   6.161   3.001   3.507  0.0297 -0.0634  0.8627
 1977TIP3    H1 5937   6.121   2.916   3.485  1.2057 -0.4702  0.1798
 1977TIP3    H2 5938   6.254   2.990   3.485 -0.0463  1.9154 -0.7846
 1978TIP3   OH2 5939   4.369   2.049   3.676 -0.2857 -0.1900  0.1381
 1978TIP3    H1 5940   4.398   2.034   3.587 -1.6942  0.0210 -0.3962
 1978TIP3    H2 5941   4.310   1.976   3.695 -0.7850  0.2934  0.5041
 1979TIP3   OH2 5942   0.221   5.486   3.614 -0.6287  0.1202 -0.0300
 1979TIP3    H1 5943   0.176   5.401   3.613 -1.3143  0.4734  0.1894
 1979TIP3    H2 5944   0.260   5.493   3.527 -2.0002  0.3204 -0.6641
 1980TIP3   OH2 5945   4.248   5.877   0.556  0.0134 -0.3590 -0.2030
 1980TIP3    H1 5946   4.329   5.830   0.537  0.2317 -0.3074  0.5623
 1980TIP3    H2 5947   4.185   5.808   0.578 -0.0433 -0.3770 -0.4236
 1981TIP3   OH2 5948   3.289   4.741   0.618 -0.4487  0.2086 -0.5159
 1981TIP3    H1 5949   3.367   4.776   0.661  2.0376  0.0399 -4.4063
 1981TIP3    H2 5950   3.233   4.817   0.603  0.2414  0.8108 -0.0987
 1982TIP3   OH2 5951   3.573   2.729   5.045 -0.5517 -0.3311  0.6733
 1982TIP3    H1 5952   3.481   2.718   5.022 -0.5383  0.7757  0.0142
 1982TIP3    H2 5953   3.592   2.820   5.023  0.9126 -0.7679  0.0226
 1983TIP3   OH2 5954   1.104   2.528   2.776 -0.5291  0.1811  0.3580
 1983TIP3    H1 5955   1.051   2.603   2.749 -3.1120 -1.5184  0.3461
 1983TIP3    H2 5956   1.174   2.523   2.711 -1.3482  1.5153 -0.6746
 1984TIP3   OH2 5957   5.368   2.155   2.125 -0.0831 -0.0897  0.0256
 1984TIP3    H1 5958   5.443   2.124   2.074  0.0988  0.7888 -0.2697
 1984TIP3    H2 5959   5.392   2.245   2.150 -0.9024  0.0948  0.1857
 1985TIP3   OH2 5960   3.129   3.384   4.363  0.1810 -0.4351 -0.5157
 1985TIP3    H1 5961   3.103   3.465   4.406  1.4929  0.0596 -0.6055
 1985TIP3    H2 5962   3.108   3.315   4.426  2.2590  0.2866  1.0778
 1986TIP3   OH2 5963   0.559   4.547   3.847 -0.5277  0.2877 -0.0263
 1986TIP3    H1 5964   0.528   4.472   3.796 -0.6399 -0.2273  0.7842
 1986TIP3    H2 5965   0.479   4.591   3.876 -0.4702  1.5305 -1.6335
 1987TIP3   OH2 5966   3.807   4.593   4.229 -0.0697  0.4624 -0.2332
 1987TIP3    H1 5967   3.880   4.651   4.205 -0.7507  0.7686 -1.7292
 1987TIP3    H2 5968   3.833   4.507   4.195 -0.6460  0.7063 -1.3515
 1988TIP3   OH2 5969   4.086   0.518   1.485 -0.1866  0.3652  0.7502
 1988TIP3    H1 5970   4.143   0.446   1.512 -0.2644  0.3698  0.9260
 1988TIP3    H2 5971   4.025   0.530   1.558  1.5005  2.4174  1.9528
 1989TIP3   OH2 5972   0.946   5.533   4.428  0.2639 -0.1231  0.1128
 1989TIP3    H1 5973   0.895   5.611   4.408 -0.6346 -0.1697  1.9829
 1989TIP3    H2 5974   0.887   5.460   4.411  0.1147 -0.2346  1.0244
 1990TIP3   OH2 5975   5.309   2.326   2.646  0.0351  0.8405 -0.3260
 1990TIP3    H1 5976   5.342   2.284   2.726  1.1179  1.7461 -0.2633
 1990TIP3    H2 5977   5.289   2.253   2.587  0.2964  0.1945  0.3655
 1991TIP3   OH2 5978   5.817   2.975   2.921  0.1667  0.2957 -0.2889
 1991TIP3    H1 5979   5.733   2.985   2.968  0.7232  0.7760  0.6430
 1991TIP3    H2 5980   5.826   3.056   2.872 -0.2430 -0.0544 -0.9547
 1992TIP3   OH2 5981   2.860   1.130   4.049 -0.7794 -0.1334  0.1077
 1992TIP3    H1 5982   2.834   1.159   4.137 -0.6184  1.1438 -0.2449
 1992TIP3    H2 5983   2.933   1.188   4.026  0.0400 -1.3061 -0.3604
 1993TIP3   OH2 5984   6.197   0.850   3.864  0.7211 -0.6607 -0.3681
 1993TIP3    H1 5985   6.128   0.875   3.926 -0.4399  0.9761 -2.2300
 1993TIP3    H2 5986   6.150   0.827   3.784  2.1801 -2.8703 -0.6687
 1994TIP3   OH2 5987   3.812   3.198   0.794 -0.5990  0.0211  0.9562
 1994TIP3    H1 5988   3.784   3.120   0.747 -0.2097 -0.1303  0.9723
 1994TIP3    H2 5989   3.736   3.223   0.847 -1.1724  0.4125 -0.0276
 1995TIP3   OH2 5990   4.551   1.074   1.999 -0.0091 -0.5047 -0.0031
 1995TIP3    H1 5991   4.504   0.995   1.973  1.6098 -2.0378  1.4674
 1995TIP3    H2 5992   4.618   1.085   1.931  1.0755 -1.6381  0.8470
 1996TIP3   OH2 5993   4.924   2.094   3.508  0.3849 -0.1573  0.0046
 1996TIP3    H1 5994   5.004   2.097   3.560 -0.1264 -1.1212  0.8572
 1996TIP3    H2 5995   4.903   2.001   3.501  0.6471 -0.1013 -2.2771
 1997TIP3   OH2 5996   2.820   4.468   1.225  0.8808  0.0036  0.3099
 1997TIP3    H1 5997   2.742   4.442   1.273  0.7141 -2.0350 -0.9397
 1997TIP3    H2 5998   2.889   4.410   1.259  1.8259  1.6110  1.2249
 1998TIP3   OH2 5999   5.557   1.038   5.126 -0.0003  0.1017 -0.3446
 1998TIP3    H1 6000   5.568   1.040   5.221 -2.0819 -0.7138 -0.0289
 1998TIP3    H2 6001   5.645   1.023   5.092  0.6533 -0.5202  1.4904
 1999TIP3   OH2 6002   4.763   5.443   1.236 -0.9735  0.2691  0.8411
 1999TIP3    H1 6003   4.727   5.525   1.269 -2.2027  0.8678 -1.7347
 1999TIP3    H2 6004   4.754   5.449   1.141  3.0694 -0.9165  0.1558
 2000TIP3   OH2 6005   0.258   1.456   1.867 -0.4134 -0.0229  0.0620
 2000TIP3    H1 6006   0.229   1.379   1.916 -2.3700  0.8394  0.3191
 2000TIP3    H2 6007   0.344   1.477   1.905 -0.4701 -1.2390  0.9265
 2001TIP3   OH2 6008   1.153   4.610   2.959  0.1475 -0.2163  0.3673
 2001TIP3    H1 6009   1.239   4.630   2.922 -0.7439  1.6188 -0.8706
 2001TIP3    H2 6010   1.112   4.550   2.896 -0.5249  1.1753 -0.5828
 2002TIP3   OH2 6011   3.319   3.028   0.540 -0.1211 -0.4517  0.0300
 2002TIP3    H1 6012   3.298   2.948   0.588 -1.9708  0.0053  0.0435
 2002TIP3    H2 6013   3.234   3.063   0.513  0.7155  0.9447 -0.9035
 2003TIP3   OH2 6014   4.366   2.486   3.293  0.5957 -0.0613 -0.1045
 2003TIP3    H1 6015   4.362   2.400   3.253  0.2896 -0.3636  0.5557
 2003TIP3    H2 6016   4.453   2.491   3.333  1.1464  0.4935 -1.3423
 2004TIP3   OH2 6017   6.074   0.049   5.064 -0.1894  0.3598 -0.3420
 2004TIP3    H1 6018   6.101   0.076   5.152 -1.4382  0.8836 -0.0929
 2004TIP3    H2 6019   6.116  -0.036   5.051  0.7562  0.6915  0.3893
 2005TIP3   OH2 6020   3.625   3.898   0.499 -0.0132 -0.4466  0.2828
 2005TIP3    H1 6021   3.699   3.959   0.495  0.2536 -0.8246 -1.4080
 2005TIP3    H2 6022   3.634   3.854   0.584  1.6610 -0.4125  0.1575
 2006TIP3   OH2 6023   3.116   5.185   3.659  0.2500  0.4873  0.2057
 2006TIP3    H1 6024   3.092   5.092   3.655 -0.8918  0.7852  0.0142
 2006TIP3    H2 6025   3.101   5.218   3.571  0.0786  0.9929  0.4216
 2007TIP3   OH2 6026   6.205   2.953   2.096 -0.2845  0.1085  0.2502
 2007TIP3    H1 6027   6.199   3.043   2.129  1.4324  0.1038  0.6599
 2007TIP3    H2 6028   6.267   2.910   2.155 -1.1777 -1.3937  0.1380
 2008TIP3   OH2 6029   5.630   3.656   1.345 -0.5866 -0.1426 -0.2986
 2008TIP3    H1 6030   5.545   3.653   1.301 -0.4545  0.2930 -0.5787
 2008TIP3    H2 6031   5.622   3.590   1.415 -0.6438 -1.1510 -1.2257
 2009TIP3   OH2 6032   1.206   1.049   3.862 -0.0866  0.1636  0.1471
 2009TIP3    H1 6033   1.159   1.042   3.780 -0.7107  1.5841  0.3692
 2009TIP3    H2 6034   1.298   1.031   3.839 -0.5637 -1.8201 -0.4104
 2010TIP3   OH2 6035   0.917   3.774   0.415  0.4418  0.4168 -0.0458
 2010TIP3    H1 6036   0.857   3.816   0.353 -2.8084 -2.5024  0.8353
 2010TIP3    H2 6037   0.960   3.706   0.365  0.7635  0.5622  0.0296
 2011TIP3   OH2 6038   2.830   0.902   2.743  0.3352 -0.0198  0.6545
 2011TIP3    H1 6039   2.884   0.849   2.801  0.0702  1.2023  2.0857
 2011TIP3    H2 6040   2.893   0.954   2.694  0.5350 -0.4008  0.5032
 2012TIP3   OH2 6041   6.390   2.157   1.029 -0.1080  0.0403 -0.1415
 2012TIP3    H1 6042   6.310   2.155   1.081  0.4886  2.7778  1.0346
 2012TIP3    H2 6043   6.360   2.178   0.940 -0.7218  0.8621  0.2501
 2013TIP3   OH2 6044   2.621   1.738   1.145  0.2493  0.2773 -0.0445
 2013TIP3    H1 6045   2.668   1.675   1.091  2.0204  2.5193 -1.3156
 2013TIP3    H2 6046   2.643   1.714   1.235 -0.9810 -2.2008 -0.3289
 2014TIP3   OH2 6047   1.001   2.768   2.669 -0.1794 -0.9898 -0.2844
 2014TIP3    H1 6048   1.034   2.851   2.703  0.6079 -1.5935  0.4728
 2014TIP3    H2 6049   0.917   2.789   2.630 -1.0584 -0.2217  1.8887
 2015TIP3   OH2 6050   1.458   2.888   1.877  0.2668 -0.4256 -0.3578
 2015TIP3    H1 6051   1.550   2.913   1.884  0.5665 -1.3356 -0.8527
 2015TIP3    H2 6052   1.448   2.815   1.939 -0.1646 -0.2331 -0.1945
 2016TIP3   OH2 6053   3.795   4.475   1.762  0.0989 -0.5909  0.7179
 2016TIP3    H1 6054   3.703   4.455   1.783 -0.1502  0.3667  0.6015
 2016TIP3    H2 6055   3.790   4.557   1.714  1.0975 -0.0882  1.4550
 2017TIP3   OH2 6056   0.012   0.418   4.806  0.6491  0.5269 -0.0151
 2017TIP3    H1 6057  -0.035   0.495   4.773  2.0029  0.9609 -1.0453
 2017TIP3    H2 6058   0.082   0.454   4.860  0.1160 -0.0846  1.1109
 2018TIP3   OH2 6059   4.918   5.458   2.197  0.2274 -0.6833 -0.2843
 2018TIP3    H1 6060   5.011   5.471   2.180  0.1522 -0.0699 -0.2639
 2018TIP3    H2 6061   4.915   5.392   2.267  0.6792 -0.0080  0.3883
 2019TIP3   OH2 6062   5.905   0.026   0.652 -0.1064 -0.5619  0.2401
 2019TIP3    H1 6063   5.865  -0.032   0.588 -2.4245  0.3816  0.7177
 2019TIP3    H2 6064   5.951   0.092   0.599 -2.9829  0.9108 -0.6416
 2020TIP3   OH2 6065   3.463   3.215   2.844 -0.2035 -0.1844 -0.5078
 2020TIP3    H1 6066   3.392   3.203   2.781 -0.1834 -1.6530 -0.2722
 2020TIP3    H2 6067   3.496   3.127   2.860 -0.5656  0.0732  1.9726
 2021TIP3   OH2 6068   4.095   5.690   4.514 -0.3228 -0.5194  0.0908
 2021TIP3    H1 6069   4.075   5.716   4.425 -4.2554  2.4599  1.5533
 2021TIP3    H2 6070   4.184   5.722   4.529  0.5288 -1.2926 -2.6821
 2022TIP3   OH2 6071   3.135   3.369   0.751  0.0161 -0.4161  0.0174
 2022TIP3    H1 6072   3.205   3.304   0.755  1.3753  0.9047 -1.0707
 2022TIP3    H2 6073   3.163   3.438   0.812  1.1845  1.4658 -2.4974
 2023TIP3   OH2 6074   3.316   3.585   1.802 -0.3938 -0.2817  0.0515
 2023TIP3    H1 6075   3.284   3.675   1.805  0.8610  0.1592  1.5781
 2023TIP3    H2 6076   3.297   3.550   1.889  1.6659 -0.5513  0.4248
 2024TIP3   OH2 6077   5.942   4.497   0.667 -0.3333  0.8475 -0.5000
 2024TIP3    H1 6078   6.033   4.476   0.691  0.1220  1.7396 -1.3580
 2024TIP3    H2 6079   5.915   4.424   0.611 -0.7005 -0.2056  0.9860
 2025TIP3   OH2 6080   0.733   4.144   1.584 -0.1458  0.2875  0.1960
 2025TIP3    H1 6081   0.733   4.073   1.648 -0.1751  0.7452  0.7099
 2025TIP3    H2 6082   0.768   4.220   1.632  1.4768  0.2142 -0.8084
 2026TIP3   OH2 6083   3.416   3.869   3.821  0.6386 -0.3221 -0.6106
 2026TIP3    H1 6084   3.436   3.951   3.775  2.3395  0.2112  0.9646
 2026TIP3    H2 6085   3.499   3.822   3.823  0.0530 -1.3533 -0.0600
 2027TIP3   OH2 6086   6.329   2.697   3.741 -0.2415  0.0894 -0.6692
 2027TIP3    H1 6087   6.378   2.669   3.664  0.0041 -1.0213 -0.1294
 2027TIP3    H2 6088   6.248   2.646   3.738 -1.1805  1.5382 -1.2758
 2028TIP3   OH2 6089   5.276   4.737   4.694 -0.2199  0.2389 -0.0036
 2028TIP3    H1 6090   5.286   4.648   4.729 -0.4350  1.3716  3.2451
 2028TIP3    H2 6091   5.358   4.754   4.647  1.7424 -0.2351  3.0041
 2029TIP3   OH2 6092   6.229   1.616   2.588 -0.3029 -0.4423  0.0998
 2029TIP3    H1 6093   6.138   1.589   2.573 -0.2777 -1.0957  1.0511
 2029TIP3    H2 6094   6.279   1.534   2.587  0.3166 -0.0766 -0.5916
 2030TIP3   OH2 6095   5.162   2.365   3.439  0.4470  0.4971 -0.1054
 2030TIP3    H1 6096   5.213   2.283   3.442  1.5311  1.0354 -1.8404
 2030TIP3    H2 6097   5.211   2.421   3.379 -0.8524  2.0405  0.2030
 2031TIP3   OH2 6098   5.236   5.810   1.645 -0.1871 -0.7827 -0.2854
 2031TIP3    H1 6099   5.282   5.760   1.713  1.2433  0.9645  0.0910
 2031TIP3    H2 6100   5.210   5.744   1.581 -2.4216 -2.6667  2.2833
 2032TIP3   OH2 6101   6.097   3.538   2.813  0.7341  0.1152  0.1684
 2032TIP3    H1 6102   6.142   3.498   2.888 -0.1690 -1.1969  0.0417
 2032TIP3    H2 6103   6.045   3.609   2.852  0.8659 -0.0562  0.6672
 2033TIP3   OH2 6104   3.214   4.476   2.115 -0.2685  0.1754  0.6219
 2033TIP3    H1 6105   3.144   4.412   2.098  0.0933  0.0401 -0.4808
 2033TIP3    H2 6106   3.192   4.515   2.199 -1.6361  0.0861  0.3201
 2034TIP3   OH2 6107   1.678   4.434   4.857 -0.2622 -0.2889  0.4843
 2034TIP3    H1 6108   1.730   4.463   4.782  0.0222 -0.1385  0.7355
 2034TIP3    H2 6109   1.593   4.410   4.820 -0.3883  0.5461  0.2249
 2035TIP3   OH2 6110   2.063   1.439   2.233 -0.3217  0.2107 -0.4718
 2035TIP3    H1 6111   2.093   1.501   2.167  0.6471 -0.8027 -1.0037
 2035TIP3    H2 6112   2.036   1.362   2.184 -1.5318  0.1879  0.1860
 2036TIP3   OH2 6113   5.528   4.545   3.835 -0.5994 -0.4848 -0.1215
 2036TIP3    H1 6114   5.514   4.638   3.856 -0.5068 -0.8578  1.7438
 2036TIP3    H2 6115   5.485   4.533   3.751  0.1289  1.4454 -0.8275
 2037TIP3   OH2 6116   3.209   0.107   2.751  0.7266 -0.4194 -0.2702
 2037TIP3    H1 6117   3.141   0.078   2.690 -0.3638 -0.2046  0.8194
 2037TIP3    H2 6118   3.213   0.202   2.739 -0.0728 -0.2732  0.5691
 2038TIP3   OH2 6119   4.444   2.250   3.845 -0.0250  0.2605 -0.3194
 2038TIP3    H1 6120   4.519   2.274   3.791  0.0053 -0.5814 -0.6617
 2038TIP3    H2 6121   4.395   2.188   3.791 -0.3916 -0.0185  0.3340
 2039TIP3   OH2 6122   3.085   4.017   2.083 -0.2626  0.1114  0.3086
 2039TIP3    H1 6123   3.023   3.947   2.102 -0.7708  0.9285  1.8830
 2039TIP3    H2 6124   3.158   4.001   2.142  0.3787 -0.0128 -0.5016
 2040TIP3   OH2 6125   4.535   2.959   4.494 -0.2242 -0.3280 -0.1758
 2040TIP3    H1 6126   4.548   2.987   4.585 -3.4648  3.6480 -0.6450
 2040TIP3    H2 6127   4.611   2.993   4.447  0.6529 -0.9527  0.7395
 2041TIP3   OH2 6128   1.212   0.829   1.833 -0.0320  0.1191  0.2531
 2041TIP3    H1 6129   1.163   0.771   1.891 -1.4252  1.6701  0.6850
 2041TIP3    H2 6130   1.266   0.770   1.780 -0.8168 -1.4993  1.1974
 2042TIP3   OH2 6131   2.717   2.972   1.343 -0.1729  0.0633 -0.1528
 2042TIP3    H1 6132   2.696   2.951   1.252 -0.1587  0.8002 -0.3274
 2042TIP3    H2 6133   2.755   3.059   1.340 -0.8955  0.4273  0.6510
 2043TIP3   OH2 6134   1.512   1.878   3.431 -0.1797 -0.5624 -0.1983
 2043TIP3    H1 6135   1.545   1.813   3.492 -1.9302 -0.7490  0.6020
 2043TIP3    H2 6136   1.561   1.958   3.451  0.0120 -0.9071  0.7293
 2044TIP3   OH2 6137   3.511   3.211   1.753 -0.0752 -0.0524 -0.4509
 2044TIP3    H1 6138   3.471   3.125   1.771 -2.0901  1.0554  0.7111
 2044TIP3    H2 6139   3.558   3.198   1.670 -0.5683 -2.1884 -0.4703
 2045TIP3   OH2 6140   5.464   2.566   3.997  0.1326  0.4986  0.0174
 2045TIP3    H1 6141   5.523   2.510   4.049 -0.2894 -1.0879 -1.1393
 2045TIP3    H2 6142   5.514   2.585   3.918 -1.6036 -2.9472 -2.1692
 2046TIP3   OH2 6143   2.306   0.961   3.066  0.0550  0.3283 -0.3816
 2046TIP3    H1 6144   2.218   0.990   3.044 -0.0100  0.3706 -0.0589
 2046TIP3    H2 6145   2.311   0.966   3.161  0.5593  0.7673 -0.4234
 2047TIP3   OH2 6146   4.092   0.831   1.500 -0.2809 -0.0903  0.6718
 2047TIP3    H1 6147   4.178   0.839   1.542 -0.2505  0.3627  0.5288
 2047TIP3    H2 6148   4.096   0.747   1.454  0.7060  0.6487 -0.6900
 2048TIP3   OH2 6149   5.329   3.294   4.174  0.2200 -0.5259  0.7904
 2048TIP3    H1 6150   5.351   3.366   4.234 -1.7559 -0.6247  1.7109
 2048TIP3    H2 6151   5.362   3.215   4.218  1.2843 -0.3429  0.3626
 2049TIP3   OH2 6152   5.194   0.879   1.926  0.6656  0.3091 -0.3762
 2049TIP3    H1 6153   5.128   0.850   1.989  2.0290 -1.5472  0.2953
 2049TIP3    H2 6154   5.146   0.887   1.844 -0.3563 -1.3501  0.0124
 2050TIP3   OH2 6155   5.056   0.508   1.442 -0.2957 -0.1371  0.1856
 2050TIP3    H1 6156   4.974   0.473   1.477 -0.6749  1.5963  1.1417
 2050TIP3    H2 6157   5.120   0.497   1.512  0.2867 -1.3606 -0.5087
 2051TIP3   OH2 6158   1.669   2.136   1.627 -0.2182 -0.2517  0.3413
 2051TIP3    H1 6159   1.748   2.142   1.680 -0.8452  0.7332  1.2103
 2051TIP3    H2 6160   1.606   2.089   1.682 -0.8976  0.8383  0.5428
 2052TIP3   OH2 6161   3.269   1.334   3.101 -0.1494 -0.0318 -0.6836
 2052TIP3    H1 6162   3.187   1.382   3.100  0.0644  0.3690 -2.1343
 2052TIP3    H2 6163   3.327   1.387   3.155 -1.1868 -1.0002  1.4733
 2053TIP3   OH2 6164   6.020   1.090   0.805  0.3437  0.2864 -0.2686
 2053TIP3    H1 6165   5.926   1.075   0.801  0.5988 -1.5239 -0.4852
 2053TIP3    H2 6166   6.059   1.002   0.797  2.1050  1.1287 -1.8166
 2054TIP3   OH2 6167   3.850   3.312   2.500 -0.2872 -0.2396  0.0519
 2054TIP3    H1 6168   3.910   3.248   2.462  0.0323  0.0756  0.0134
 2054TIP3    H2 6169   3.787   3.331   2.431  1.4699  1.8510 -1.1126
 2055TIP3   OH2 6170   0.913   1.820   1.311 -0.2440 -0.1165  0.0608
 2055TIP3    H1 6171   0.849   1.761   1.350 -0.9258 -0.4077 -1.4184
 2055TIP3    H2 6172   0.940   1.777   1.230  1.7087  0.0910  0.5276
 2056TIP3   OH2 6173   6.018   1.683   4.064  0.1196  0.1502 -0.3983
 2056TIP3    H1 6174   6.006   1.594   4.031 -0.4825 -0.0605  0.3403
 2056TIP3    H2 6175   6.107   1.683   4.099 -0.4596 -0.7533  1.2344
 2057TIP3   OH2 6176   3.942   1.846   2.922 -0.1350 -0.1442  0.1807
 2057TIP3    H1 6177   3.901   1.762   2.898 -0.0870 -0.0784 -0.1415
 2057TIP3    H2 6178   3.868   1.906   2.933 -0.1422 -0.1012 -0.0980
 2058TIP3   OH2 6179   1.487   3.890   4.590 -0.0834 -0.4323  0.2104
 2058TIP3    H1 6180   1.522   3.944   4.519  1.4316  0.7637  1.8032
 2058TIP3    H2 6181   1.396   3.920   4.599 -0.1129 -0.1723 -0.8158
 2059TIP3   OH2 6182   5.002   3.471   0.397 -0.2913 -0.2840  0.2664
 2059TIP3    H1 6183   5.032   3.416   0.325  0.9286 -0.6079  0.9982
 2059TIP3    H2 6184   4.968   3.550   0.354  0.3080 -0.5164 -0.6693
 2060TIP3   OH2 6185   2.994   2.547   2.347 -0.6944  0.5429 -0.3290
 2060TIP3    H1 6186   2.980   2.627   2.397 -1.0241 -0.3163  1.0060
 2060TIP3    H2 6187   2.956   2.565   2.261 -1.6490  1.4833  0.2661
 2061TIP3   OH2 6188   0.247   0.867   2.888 -0.1580 -0.0614  0.0042
 2061TIP3    H1 6189   0.322   0.873   2.948 -0.7740 -0.4536  0.8415
 2061TIP3    H2 6190   0.278   0.811   2.817  0.2627 -0.4536  0.4805
 2062TIP3   OH2 6191   2.039   4.713   1.205 -0.5027  0.4398  0.1056
 2062TIP3    H1 6192   2.022   4.731   1.113 -0.4988 -0.3079 -0.0512
 2062TIP3    H2 6193   1.996   4.629   1.222  1.0989 -0.3903  0.2698
 2063TIP3   OH2 6194   5.185   4.105   0.444 -0.4591  0.0051  0.2418
 2063TIP3    H1 6195   5.233   4.030   0.478 -0.4082 -0.3874 -0.6667
 2063TIP3    H2 6196   5.106   4.109   0.498  0.0521 -0.0282  1.0103
 2064TIP3   OH2 6197   0.588   3.832   2.947 -0.5026 -0.0611  0.3181
 2064TIP3    H1 6198   0.580   3.918   2.906 -0.7785 -0.2711 -0.0719
 2064TIP3    H2 6199   0.674   3.834   2.990  0.8414 -0.6242 -2.1675
 2065TIP3   OH2 6200   2.295   2.061   3.912 -0.2966 -0.5720  0.6166
 2065TIP3    H1 6201   2.300   1.971   3.879 -0.3847 -0.4816  0.3507
 2065TIP3    H2 6202   2.249   2.109   3.843 -0.1380 -0.2964  0.7012
 2066TIP3   OH2 6203   0.247   4.486   4.843  0.2510  0.2691  0.0294
 2066TIP3    H1 6204   0.305   4.555   4.809 -0.4084  1.2360  0.8005
 2066TIP3    H2 6205   0.238   4.507   4.936 -0.0513 -0.8120  0.2537
 2067TIP3   OH2 6206   6.235   2.409   3.730  0.4813 -0.1055 -0.1960
 2067TIP3    H1 6207   6.192   2.393   3.646 -0.5689  0.1876  0.2661
 2067TIP3    H2 6208   6.328   2.420   3.708  0.2023  0.1142 -1.3252
 2068TIP3   OH2 6209   1.032   0.768   3.742  0.4707  0.9838 -0.4233
 2068TIP3    H1 6210   0.945   0.790   3.708 -0.1577 -0.5430  0.0822
 2068TIP3    H2 6211   1.041   0.820   3.822 -1.0839 -0.6706  0.9025
 2069TIP3   OH2 6212   1.895   3.587   1.011 -0.1670  0.0495 -0.4202
 2069TIP3    H1 6213   1.940   3.578   1.095 -1.5416  1.3893  0.4951
 2069TIP3    H2 6214   1.901   3.499   0.971  0.0743 -0.7415  1.2880
 2070TIP3   OH2 6215   1.263   3.358   1.033  0.0457  0.1765 -0.0533
 2070TIP3    H1 6216   1.310   3.418   1.090  1.8308  0.7033 -1.9406
 2070TIP3    H2 6217   1.300   3.271   1.053  1.7755  0.5572 -1.3680
 2071TIP3   OH2 6218   0.944   1.911   0.843 -0.6813 -0.2877 -0.3458
 2071TIP3    H1 6219   0.923   1.944   0.930  1.0031 -0.5562  0.2064
 2071TIP3    H2 6220   0.933   1.987   0.786 -3.4679 -0.5094 -0.2446
 2072TIP3   OH2 6221   5.809   4.272   3.147  0.5263 -0.2781  0.6742
 2072TIP3    H1 6222   5.797   4.302   3.056  0.6536 -0.7759  0.4925
 2072TIP3    H2 6223   5.887   4.319   3.177  2.4666 -2.5231 -0.5437
 2073TIP3   OH2 6224   1.101   3.623   2.385 -0.1967  0.1592  0.4102
 2073TIP3    H1 6225   1.037   3.610   2.455 -0.9902 -0.3117 -0.3743
 2073TIP3    H2 6226   1.054   3.677   2.320  0.0674 -0.4987 -0.3424
 2074TIP3   OH2 6227   5.934   5.314   3.544  0.1624 -0.5459  0.1614
 2074TIP3    H1 6228   5.966   5.354   3.463  1.2007 -1.0558  0.3096
 2074TIP3    H2 6229   5.882   5.383   3.586  0.6009  0.1125 -0.3597
 2075TIP3   OH2 6230   3.863   3.270   3.206 -0.4569  0.4000  0.6582
 2075TIP3    H1 6231   3.891   3.353   3.246  0.8965 -0.2201  1.0389
 2075TIP3    H2 6232   3.886   3.203   3.270 -0.0806 -0.4160 -0.3114
 2076TIP3   OH2 6233   4.360   1.905   3.169 -0.2927  0.3805 -0.0709
 2076TIP3    H1 6234   4.321   1.874   3.088 -1.0487 -0.0991  0.4587
 2076TIP3    H2 6235   4.446   1.862   3.173 -0.5321 -0.1234 -0.2934
 2077TIP3   OH2 6236   6.017   3.089   4.342  0.0546  0.4452  0.0112
 2077TIP3    H1 6237   5.951   3.020   4.350 -0.5896  0.9795 -0.4851
 2077TIP3    H2 6238   6.078   3.074   4.414 -0.8517  0.1912  0.7403
 2078TIP3   OH2 6239   5.760   4.438   4.101  0.1488  0.0303 -0.1261
 2078TIP3    H1 6240   5.665   4.445   4.111  0.0371 -1.2804 -0.0738
 2078TIP3    H2 6241   5.796   4.494   4.170 -0.5626  1.0783 -0.5756
 2079TIP3   OH2 6242   0.128   4.939   3.750 -0.5457  0.5149  0.1075
 2079TIP3    H1 6243   0.211   4.951   3.796  0.1211 -1.4385 -0.4861
 2079TIP3    H2 6244   0.061   4.963   3.814  0.4211 -0.0960  1.3918
 2080TIP3   OH2 6245   5.225   2.711   0.961  0.5066 -0.6043  0.1371
 2080TIP3    H1 6246   5.217   2.710   1.057  1.2023 -0.2855  0.1994
 2080TIP3    H2 6247   5.254   2.799   0.940  0.0515 -0.5786 -0.4014
 2081TIP3   OH2 6248   5.042   1.566   2.789  0.1699 -0.2000  0.3064
 2081TIP3    H1 6249   4.969   1.504   2.791  0.6627 -0.8094 -0.1104
 2081TIP3    H2 6250   5.004   1.647   2.753 -0.3121 -0.4909  0.1494
 2082TIP3   OH2 6251   1.553   0.824   0.954 -0.4763  0.4810  0.2848
 2082TIP3    H1 6252   1.485   0.873   0.999 -3.4595 -1.8471 -1.3183
 2082TIP3    H2 6253   1.548   0.854   0.863 -0.1941 -0.5606 -0.0870
 2083TIP3   OH2 6254   0.989   0.049   3.978 -0.3743  0.7188  0.3219
 2083TIP3    H1 6255   0.931   0.121   3.951 -0.8479  0.0724 -0.4293
 2083TIP3    H2 6256   1.001  -0.003   3.899 -1.5680 -1.0738  1.2468
 2084TIP3   OH2 6257   0.830   1.536   2.459  0.3565  0.2515  0.0164
 2084TIP3    H1 6258   0.873   1.452   2.444  1.4279  0.3564  2.1541
 2084TIP3    H2 6259   0.775   1.521   2.536 -1.4448  0.8629 -1.0817
 2085TIP3   OH2 6260   0.147   5.143   5.124  0.1874 -0.4915  0.3239
 2085TIP3    H1 6261   0.121   5.230   5.096 -0.9281 -1.0518 -0.4753
 2085TIP3    H2 6262   0.097   5.127   5.204  0.0999 -0.5433  0.2592
 2086TIP3   OH2 6263   0.435   1.932   3.008  0.3438 -0.3309  0.0643
 2086TIP3    H1 6264   0.456   1.951   3.100  1.4646  2.8490 -0.7101
 2086TIP3    H2 6265   0.447   1.837   3.000  0.3022 -0.7084  3.1444
 2087TIP3   OH2 6266   4.528   3.187   3.399  0.5895 -0.3063 -0.6579
 2087TIP3    H1 6267   4.526   3.110   3.456 -0.2545  0.6307  0.6342
 2087TIP3    H2 6268   4.436   3.212   3.388  0.8995  1.9873  1.0759
 2088TIP3   OH2 6269   3.655   5.169   0.428 -0.2040  0.2484  0.1663
 2088TIP3    H1 6270   3.651   5.076   0.450  0.3296  0.4266  1.0708
 2088TIP3    H2 6271   3.744   5.196   0.451 -0.7675  1.2967  1.2876
 2089TIP3   OH2 6272   3.786   3.495   0.366 -0.3413 -0.4625  0.0182
 2089TIP3    H1 6273   3.858   3.548   0.400 -0.4526 -1.1013  1.3294
 2089TIP3    H2 6274   3.715   3.557   0.352  0.7162  0.3342 -2.2119
 2090TIP3   OH2 6275   4.173   3.444   3.633  0.5708  0.2449  0.1778
 2090TIP3    H1 6276   4.266   3.468   3.630  0.6690  0.0707  1.2343
 2090TIP3    H2 6277   4.129   3.524   3.663  0.5721 -0.0948  1.1155
 2091TIP3   OH2 6278   3.834   3.375   4.642 -0.6509 -0.4645  0.2784
 2091TIP3    H1 6279   3.805   3.450   4.694  0.5434  0.9867 -1.0519
 2091TIP3    H2 6280   3.834   3.407   4.552 -0.9720 -2.3676 -0.4521
 2092TIP3   OH2 6281   3.918   4.216   1.755  0.4123  0.0398 -0.3552
 2092TIP3    H1 6282   3.861   4.173   1.818  0.1908  1.2874  0.3450
 2092TIP3    H2 6283   3.887   4.307   1.753  1.2770  0.3370 -1.2560
 2093TIP3   OH2 6284   0.542   3.001   1.062  0.1828 -0.1804 -0.4517
 2093TIP3    H1 6285   0.491   2.984   1.141  0.1873  2.1932  0.1438
 2093TIP3    H2 6286   0.633   2.989   1.088  0.1326 -0.3905 -0.3749
 2094TIP3   OH2 6287   3.418   0.564   3.114  0.5393  0.3173 -0.1650
 2094TIP3    H1 6288   3.482   0.630   3.085 -1.4898  1.8018 -1.5447
 2094TIP3    H2 6289   3.344   0.614   3.147 -0.1819 -1.3344  0.8675
 2095TIP3   OH2 6290   5.090   3.064   2.639  0.4943 -0.9120 -0.1026
 2095TIP3    H1 6291   5.083   3.150   2.597  1.9556 -0.7403 -0.0474
 2095TIP3    H2 6292   5.019   3.063   2.704 -0.7633 -0.5355 -1.4170
 2096TIP3   OH2 6293   0.868   4.348   3.321 -0.1038  0.6785  0.2148
 2096TIP3    H1 6294   0.807   4.313   3.256 -2.1812  2.4929  1.0689
 2096TIP3    H2 6295   0.930   4.401   3.270 -1.8909  2.3371 -0.3513
 2097TIP3   OH2 6296   2.342   4.713   3.283  0.0242 -0.2240 -0.0624
 2097TIP3    H1 6297   2.260   4.716   3.232  0.6816  0.6901 -1.1171
 2097TIP3    H2 6298   2.393   4.644   3.241 -0.0366 -0.5167  0.3408
 2098TIP3   OH2 6299   3.709   3.231   0.313  0.4289  0.3431  0.9794
 2098TIP3    H1 6300   3.641   3.230   0.380 -1.9879  0.9742 -1.2853
 2098TIP3    H2 6301   3.751   3.316   0.323 -0.9940  1.1113  0.7351
 2099TIP3   OH2 6302   5.772   2.343   3.681 -0.0923  0.1033 -0.0064
 2099TIP3    H1 6303   5.745   2.418   3.733 -1.5974 -1.2050  1.2453
 2099TIP3    H2 6304   5.831   2.293   3.738  0.3749 -0.0027 -0.5689
 2100TIP3   OH2 6305   5.457   3.109   1.513  0.4459  0.7202 -0.3677
 2100TIP3    H1 6306   5.501   3.163   1.448  2.1695 -0.2274 -0.0480
 2100TIP3    H2 6307   5.456   3.162   1.593 -0.6776  1.4485 -0.8382
 2101TIP3   OH2 6308   0.243   0.710   3.123 -0.8193  0.4573 -0.4122
 2101TIP3    H1 6309   0.309   0.775   3.148 -1.5486  0.3653  2.0542
 2101TIP3    H2 6310   0.196   0.751   3.050  1.8785  0.5071 -2.2708
 2102TIP3   OH2 6311   0.328   4.606   4.002 -0.0913  0.4580  0.3731
 2102TIP3    H1 6312   0.371   4.678   4.048  1.6373 -0.2265 -0.0754
 2102TIP3    H2 6313   0.273   4.564   4.068 -0.6463  1.7934  0.7862
 2103TIP3   OH2 6314   0.054   3.186   4.298  0.3644  0.1632  0.3708
 2103TIP3    H1 6315   0.048   3.091   4.311  0.7782  0.1605  0.5624
 2103TIP3    H2 6316  -0.037   3.216   4.300  0.2279 -0.2310  0.2914
 2104TIP3   OH2 6317   0.739   2.272   3.792  0.6916  0.7089  0.3687
 2104TIP3    H1 6318   0.778   2.198   3.745 -0.9837 -0.1831  0.2910
 2104TIP3    H2 6319   0.808   2.303   3.849  2.0694  0.3712 -1.0489
 2105TIP3   OH2 6320   5.529   0.849   2.983 -0.8062  0.5827  0.2337
 2105TIP3    H1 6321   5.501   0.773   2.932 -1.1688 -0.4287  1.8574
 2105TIP3    H2 6322   5.465   0.854   3.055  0.2352  1.3476  1.1383
 2106TIP3   OH2 6323   1.362   3.704   1.615  0.0046  0.1081  0.2105
 2106TIP3    H1 6324   1.270   3.682   1.630 -0.0685 -0.6356 -1.1528
 2106TIP3    H2 6325   1.409   3.658   1.685 -0.6803  0.9204  1.2380
 2107TIP3   OH2 6326   5.380   0.460   1.867 -0.0566  0.0401  0.0890
 2107TIP3    H1 6327   5.422   0.546   1.874 -0.2301  0.1173  0.1777
 2107TIP3    H2 6328   5.289   0.475   1.891 -0.0634 -0.1895  0.2098
 2108TIP3   OH2 6329   5.477   2.554   3.493  0.2239  0.6043  0.2375
 2108TIP3    H1 6330   5.406   2.610   3.462  0.2810  0.4906 -0.1044
 2108TIP3    H2 6331   5.516   2.603   3.565  1.0072  1.5530 -0.7980
 2109TIP3   OH2 6332   1.700   1.626   1.353 -0.1055 -0.0603  0.0781
 2109TIP3    H1 6333   1.759   1.553   1.335 -0.2991 -0.6563  1.7732
 2109TIP3    H2 6334   1.615   1.596   1.321  0.0993  0.0456 -0.6001
 2110TIP3   OH2 6335   1.159   0.473   2.296 -0.1915  0.0917  0.1271
 2110TIP3    H1 6336   1.124   0.385   2.312 -0.9894  0.3109 -0.3930
 2110TIP3    H2 6337   1.091   0.533   2.325  1.1499  0.6211  2.4526
 2111TIP3   OH2 6338   1.394   1.577   4.037  0.0532  0.1023  0.4249
 2111TIP3    H1 6339   1.391   1.585   3.942  0.6275  0.8966  0.4595
 2111TIP3    H2 6340   1.411   1.484   4.053 -0.5708 -0.1268 -0.2287
 2112TIP3   OH2 6341   3.947   5.681   4.768  0.1577 -0.1961  0.1952
 2112TIP3    H1 6342   3.861   5.722   4.765  0.5097  0.5751  0.2122
 2112TIP3    H2 6343   3.981   5.689   4.679  0.2606 -0.3874  0.2172
 2113TIP3   OH2 6344   5.095   3.217   4.060  0.4727 -0.3831 -0.5710
 2113TIP3    H1 6345   5.107   3.127   4.029  1.8845 -0.5122  0.2262
 2113TIP3    H2 6346   5.182   3.243   4.090 -0.0532  1.0325 -0.1970
 2114TIP3   OH2 6347   2.482   4.363   3.274 -0.0196  0.1310  0.2616
 2114TIP3    H1 6348   2.444   4.376   3.361 -0.4502 -1.2936  0.3137
 2114TIP3    H2 6349   2.412   4.385   3.213 -0.3728 -0.7742  0.3261
 2115TIP3   OH2 6350   3.036   4.978   2.603  0.6757  0.0703 -0.0457
 2115TIP3    H1 6351   2.996   4.913   2.545  0.2748 -0.2793  0.6130
 2115TIP3    H2 6352   2.965   5.008   2.659  1.3775 -0.8858  1.4313
 2116TIP3   OH2 6353   0.373   5.373   3.071  0.0457 -0.3521 -0.4132
 2116TIP3    H1 6354   0.319   5.379   3.150 -0.5150  0.8274 -0.8779
 2116TIP3    H2 6355   0.365   5.281   3.044 -2.4803 -0.0317 -0.9863
 2117TIP3   OH2 6356   0.978   3.365   2.475  0.4738 -0.2445  0.1461
 2117TIP3    H1 6357   0.936   3.290   2.517  0.1382 -0.1215  0.0353
 2117TIP3    H2 6358   0.962   3.438   2.534 -1.7630  0.3757 -1.1021
 2118TIP3   OH2 6359   2.436   0.351   2.883 -0.7605  0.2500  0.1568
 2118TIP3    H1 6360   2.438   0.309   2.797 -3.1387  0.3341 -0.0217
 2118TIP3    H2 6361   2.381   0.428   2.870  0.6049  1.4748  1.2967
 2119TIP3   OH2 6362   3.505   2.943   4.539  0.0224  0.0102 -0.1246
 2119TIP3    H1 6363   3.451   2.936   4.618  0.8507 -0.2280  0.4362
 2119TIP3    H2 6364   3.473   3.021   4.494 -1.3263 -0.5827 -0.2316
 2120TIP3   OH2 6365   2.290   0.042   3.360  0.0951  0.0062  0.5563
 2120TIP3    H1 6366   2.315   0.108   3.424 -0.4305 -0.0802  0.8560
 2120TIP3    H2 6367   2.353  -0.029   3.374  0.0757  0.0491  0.8802
 2121TIP3   OH2 6368   5.815   0.958   2.529 -0.2203  0.3254 -0.0102
 2121TIP3    H1 6369   5.759   0.995   2.597  2.4242  1.5398  1.6847
 2121TIP3    H2 6370   5.807   0.863   2.540 -1.1129  0.4840  0.8848
 2122TIP3   OH2 6371   5.870   5.799   3.991  0.6391  0.3820  0.1618
 2122TIP3    H1 6372   5.784   5.823   4.026  0.1174  0.6306 -1.2071
 2122TIP3    H2 6373   5.928   5.871   4.018  0.3961  0.2970  0.9452
 2123TIP3   OH2 6374   5.152   4.801   0.949 -0.7333  0.3407 -0.2056
 2123TIP3    H1 6375   5.206   4.863   0.998 -1.1357  1.6574 -1.3431
 2123TIP3    H2 6376   5.063   4.817   0.980 -0.7214 -0.4050  0.2268
 2124TIP3   OH2 6377   0.110   3.284   1.256 -0.3151  0.3557  0.1056
 2124TIP3    H1 6378   0.115   3.303   1.349  0.6005 -0.7652  0.3153
 2124TIP3    H2 6379   0.199   3.302   1.223 -0.4097 -0.0336 -0.3808
 2125TIP3   OH2 6380   1.391   4.595   2.857  0.1432 -0.0656 -0.1402
 2125TIP3    H1 6381   1.430   4.651   2.789 -0.1910  0.6620  0.2490
 2125TIP3    H2 6382   1.415   4.506   2.832  1.3048  0.2981 -0.3818
 2126TIP3   OH2 6383   4.487   2.154   0.828  0.2236  0.0386  0.6562
 2126TIP3    H1 6384   4.406   2.129   0.872  0.0126  0.7867  0.7059
 2126TIP3    H2 6385   4.459   2.188   0.743  0.5239 -0.0984  0.5000
 2127TIP3   OH2 6386   1.999   5.784   0.371  0.0625 -0.1752 -0.3560
 2127TIP3    H1 6387   2.079   5.793   0.319 -1.2301 -1.9401 -2.8910
 2127TIP3    H2 6388   2.029   5.772   0.460  2.6641 -1.0751 -1.2691
 2128TIP3   OH2 6389   0.004   3.094   1.070 -0.4288 -0.1393 -0.1671
 2128TIP3    H1 6390   0.032   3.005   1.090  0.7327  0.0537 -0.8522
 2128TIP3    H2 6391   0.046   3.148   1.136 -1.6284 -0.1468  0.6244
 2129TIP3   OH2 6392   2.230   0.800   5.185 -0.0316 -0.3246  0.4046
 2129TIP3    H1 6393   2.272   0.780   5.101 -0.1197 -0.0600  0.2978
 2129TIP3    H2 6394   2.145   0.838   5.161 -0.4701 -1.1361  0.6189
 2130TIP3   OH2 6395   6.280   1.870   3.084  0.0817 -0.4917  0.5293
 2130TIP3    H1 6396   6.363   1.839   3.049  0.1353  0.4628 -0.2367
 2130TIP3    H2 6397   6.304   1.923   3.160  0.0236 -1.8337  1.5132
 2131TIP3   OH2 6398   2.462   2.005   4.604 -0.1385 -0.3859  0.1985
 2131TIP3    H1 6399   2.404   2.058   4.549 -0.3876 -0.6351  0.2154
 2131TIP3    H2 6400   2.539   2.060   4.619 -1.0150  0.5650  1.4197
 2132TIP3   OH2 6401  -0.011   1.909   4.974  0.2154 -0.2472 -0.1165
 2132TIP3    H1 6402  -0.015   1.872   4.886  0.6974 -1.0303  0.1828
 2132TIP3    H2 6403   0.026   1.839   5.028 -0.3634  0.1088  0.7706
 2133TIP3   OH2 6404   4.264   1.165   2.040  0.8187 -0.2507  0.2887
 2133TIP3    H1 6405   4.359   1.149   2.043  0.6665 -1.0360  1.2654
 2133TIP3    H2 6406   4.240   1.144   1.950  1.3791 -1.2341  0.3492
 2134TIP3   OH2 6407   3.280   3.812   2.965  0.2460  0.1610  0.1094
 2134TIP3    H1 6408   3.207   3.848   2.915  0.2049 -0.0262  0.0360
 2134TIP3    H2 6409   3.247   3.806   3.054  0.1847  0.1163  0.0840
 2135TIP3   OH2 6410   5.306   3.216   4.746 -0.4069 -0.1430  0.7784
 2135TIP3    H1 6411   5.247   3.142   4.761 -0.9030  0.0649 -0.0654
 2135TIP3    H2 6412   5.387   3.191   4.790 -0.5230 -1.2503  0.4020
 2136TIP3   OH2 6413   2.571   3.408   2.994 -0.1575  0.0146  0.5395
 2136TIP3    H1 6414   2.611   3.323   3.011  0.0595  0.0909  0.4122
 2136TIP3    H2 6415   2.478   3.396   3.017 -0.3084 -0.5080 -0.3282
 2137TIP3   OH2 6416   6.075   3.209   0.871  0.1380  0.4198  0.1292
 2137TIP3    H1 6417   6.157   3.258   0.859 -0.0931  0.7850  0.0366
 2137TIP3    H2 6418   6.104   3.120   0.893  0.5676  0.8663  1.4660
 2138TIP3   OH2 6419   5.704   4.550   0.771  0.2166 -0.4587  0.5720
 2138TIP3    H1 6420   5.687   4.467   0.815 -0.7725 -0.3778  0.3568
 2138TIP3    H2 6421   5.784   4.535   0.721 -0.0159 -1.3147  0.4458
 2139TIP3   OH2 6422   1.235   0.270   1.910  0.0190 -0.3109 -0.3711
 2139TIP3    H1 6423   1.294   0.334   1.950  0.2123  0.1103 -1.3075
 2139TIP3    H2 6424   1.254   0.275   1.816 -0.7488 -0.9446 -0.5702
 2140TIP3   OH2 6425   2.640   2.694   3.820  0.2490 -0.0828  0.2522
 2140TIP3    H1 6426   2.658   2.787   3.803  1.1050 -0.6088 -2.0682
 2140TIP3    H2 6427   2.727   2.654   3.825 -0.1234 -0.8159  1.0666
 2141TIP3   OH2 6428   1.362   4.614   0.987 -0.1920  0.3069 -0.0254
 2141TIP3    H1 6429   1.274   4.582   0.968  0.4685 -2.5269  1.1444
 2141TIP3    H2 6430   1.385   4.667   0.911 -2.4392  0.0914 -0.9274
 2142TIP3   OH2 6431   4.400   3.601   4.183  0.1691  0.7297 -0.2094
 2142TIP3    H1 6432   4.460   3.615   4.110  0.0664  0.0219 -0.4476
 2142TIP3    H2 6433   4.320   3.647   4.157  0.3299  0.9748 -0.2726
 2143TIP3   OH2 6434   0.833   0.739   1.774  0.3018 -0.4612  0.3527
 2143TIP3    H1 6435   0.800   0.825   1.749 -1.9975 -1.0735  1.0891
 2143TIP3    H2 6436   0.911   0.758   1.828  1.4781  1.0123 -1.7439
 2144TIP3   OH2 6437   3.521   4.084   3.159 -0.1058  0.0747  0.2628
 2144TIP3    H1 6438   3.565   4.125   3.085  0.3318  0.0891  0.5277
 2144TIP3    H2 6439   3.574   4.006   3.178 -0.7725 -0.4609 -0.0657
 2145TIP3   OH2 6440   2.085   2.020   3.534  0.1514  0.0026 -0.4526
 2145TIP3    H1 6441   2.107   1.948   3.593  1.7865 -0.0338 -1.0584
 2145TIP3    H2 6442   2.166   2.069   3.524 -0.7538  1.5191 -0.6314
 2146TIP3   OH2 6443   4.439   4.407   0.473 -0.1316 -0.0916 -0.0136
 2146TIP3    H1 6444   4.430   4.481   0.533 -1.0086 -0.1481 -0.0559
 2146TIP3    H2 6445   4.459   4.332   0.529  0.7269  0.1628  0.0321
 2147TIP3   OH2 6446   4.164   5.736   4.221  0.5481 -0.1771 -0.3220
 2147TIP3    H1 6447   4.233   5.685   4.179 -0.0081  1.4087 -3.4295
 2147TIP3    H2 6448   4.176   5.825   4.189 -2.3822  0.3231 -0.3033
 2148TIP3   OH2 6449   0.560   5.308   2.832 -0.4261 -0.1271  0.4035
 2148TIP3    H1 6450   0.611   5.248   2.887  0.7649 -0.5297 -1.0588
 2148TIP3    H2 6451   0.623   5.375   2.805 -0.8002 -0.2559 -0.9033
 2149TIP3   OH2 6452   3.292   3.921   4.670 -0.0166  0.3381 -0.4074
 2149TIP3    H1 6453   3.266   3.991   4.610  0.7745 -0.1671 -1.3648
 2149TIP3    H2 6454   3.345   3.861   4.616  2.2143  0.7610  1.1766
 2150TIP3   OH2 6455   4.137   4.961   0.648  0.3847 -0.1299  0.1440
 2150TIP3    H1 6456   4.069   4.952   0.581 -0.7143  2.7073  0.7424
 2150TIP3    H2 6457   4.097   4.929   0.728  0.3573 -0.0277  0.1713
 2151TIP3   OH2 6458   5.270   5.334   4.666 -0.1667  0.6904  0.4491
 2151TIP3    H1 6459   5.288   5.366   4.578 -1.4068 -0.9836 -0.4772
 2151TIP3    H2 6460   5.350   5.289   4.692 -0.2579 -0.0104 -0.4225
 2152TIP3   OH2 6461   4.354   2.033   0.457 -0.0193  0.1364 -0.2753
 2152TIP3    H1 6462   4.406   2.068   0.384 -1.3874  1.0827 -0.8394
 2152TIP3    H2 6463   4.355   2.102   0.523 -0.5503  0.1694 -0.2971
 2153TIP3   OH2 6464   2.540   2.825   0.433 -0.0687  0.0284 -0.0673
 2153TIP3    H1 6465   2.461   2.771   0.439 -0.3508  0.2797 -1.2286
 2153TIP3    H2 6466   2.535   2.883   0.509 -1.8066  1.0671 -0.8935
 2154TIP3   OH2 6467   4.831   3.862   2.692 -0.0066  0.6347 -0.2690
 2154TIP3    H1 6468   4.851   3.954   2.713 -1.1744  0.6427  0.9379
 2154TIP3    H2 6469   4.864   3.813   2.768 -0.5641  0.1999 -0.3043
 2155TIP3   OH2 6470   1.473   4.750   5.014  0.6265 -0.1864  0.3777
 2155TIP3    H1 6471   1.455   4.656   5.009  1.5784 -0.3114 -1.1292
 2155TIP3    H2 6472   1.510   4.762   5.102  0.0159 -1.1160  0.7795
 2156TIP3   OH2 6473   3.283   5.952   3.538  0.1488  0.2716 -0.2194
 2156TIP3    H1 6474   3.220   5.938   3.467 -0.8438  2.8102  0.0590
 2156TIP3    H2 6475   3.361   5.987   3.494 -1.2920  4.1600 -0.0087
 2157TIP3   OH2 6476   3.805   0.305   4.254  0.2966 -0.0542  0.4390
 2157TIP3    H1 6477   3.817   0.331   4.345 -2.3955 -0.1558  0.8912
 2157TIP3    H2 6478   3.792   0.387   4.207 -2.4316 -0.1229  0.9108
 2158TIP3   OH2 6479   4.887   5.418   1.498 -0.6031 -0.1591 -0.2605
 2158TIP3    H1 6480   4.823   5.351   1.473  0.8780 -1.8353  0.2678
 2158TIP3    H2 6481   4.906   5.464   1.416  0.1012 -1.9741 -1.1806
 2159TIP3   OH2 6482   1.135   1.715   4.105 -0.1567  0.4485  0.2115
 2159TIP3    H1 6483   1.216   1.668   4.085 -0.6179 -0.5457  0.6017
 2159TIP3    H2 6484   1.155   1.807   4.087  0.5836  0.0456 -1.2038
 2160TIP3   OH2 6485   3.515   1.934   3.251 -0.4153  0.1740  0.3349
 2160TIP3    H1 6486   3.426   1.968   3.244  0.5409  2.7179 -0.5685
 2160TIP3    H2 6487   3.520   1.865   3.185 -1.3810  0.7837 -0.3939
 2161TIP3   OH2 6488   5.952   5.808   0.818 -0.1462  0.5004  0.5030
 2161TIP3    H1 6489   5.903   5.889   0.808  1.2168  1.2695 -0.2329
 2161TIP3    H2 6490   5.932   5.778   0.906 -0.9463  1.4386  0.6517
 2162TIP3   OH2 6491   3.163   0.486   0.736 -0.1141 -0.0887 -0.2520
 2162TIP3    H1 6492   3.068   0.481   0.719 -0.4573  2.1909  0.7175
 2162TIP3    H2 6493   3.172   0.552   0.804  2.1333 -1.0066  0.4170
 2163TIP3   OH2 6494   6.074   1.204   1.032  0.0009 -0.0467  0.0233
 2163TIP3    H1 6495   5.996   1.237   1.076  0.1077 -0.3032  0.4124
 2163TIP3    H2 6496   6.043   1.172   0.948 -0.2279  0.3413 -0.0389
 2164TIP3   OH2 6497   1.256   3.921   4.139  0.3685 -0.3521  0.2313
 2164TIP3    H1 6498   1.295   4.004   4.167 -2.5373  1.0545  0.5249
 2164TIP3    H2 6499   1.322   3.855   4.159  2.7209  1.8571  0.1654
 2165TIP3   OH2 6500   5.120   1.303   5.163  0.4553  0.1347 -0.4197
 2165TIP3    H1 6501   5.125   1.270   5.253 -0.1992 -1.0950 -0.8080
 2165TIP3    H2 6502   5.190   1.256   5.117  1.7410  1.8133 -0.2764
 2166TIP3   OH2 6503   3.718   0.298   0.831 -0.1779 -0.4839  0.0507
 2166TIP3    H1 6504   3.690   0.315   0.741  1.2289 -1.7824 -0.6811
 2166TIP3    H2 6505   3.690   0.375   0.880 -1.2000  0.1376 -1.4448
 2167TIP3   OH2 6506   1.035   4.850   0.495  0.4643  0.6827 -0.5399
 2167TIP3    H1 6507   1.060   4.932   0.538  3.4731 -1.4768  2.2902
 2167TIP3    H2 6508   1.104   4.837   0.429  0.2132  0.2467 -0.7128
 2168TIP3   OH2 6509   6.154   5.238   2.107  0.2097 -0.0488  0.2051
 2168TIP3    H1 6510   6.118   5.255   2.019  0.2360 -1.0463 -0.0089
 2168TIP3    H2 6511   6.181   5.324   2.139  1.5585  0.1503 -1.3530
 2169TIP3   OH2 6512   6.042   1.197   4.322  0.3370  0.0680  0.7468
 2169TIP3    H1 6513   6.029   1.102   4.325 -0.1139  0.1350  1.1550
 2169TIP3    H2 6514   6.093   1.212   4.243 -0.4191 -0.4208  0.1473
 2170TIP3   OH2 6515   5.704   3.046   2.613  0.2314 -0.0427 -0.5055
 2170TIP3    H1 6516   5.704   3.094   2.530  1.2202 -0.4198 -0.7370
 2170TIP3    H2 6517   5.783   3.076   2.658 -0.0462 -0.1990  0.0930
 2171TIP3   OH2 6518   3.780   4.007   2.739  0.0606 -0.1268  0.4042
 2171TIP3    H1 6519   3.769   4.011   2.834  0.3728  0.2300  0.4240
 2171TIP3    H2 6520   3.691   3.993   2.706 -0.0759 -0.0466  0.7347
 2172TIP3   OH2 6521   4.242   4.611   4.816  0.1332 -0.6185 -0.2117
 2172TIP3    H1 6522   4.282   4.694   4.791 -0.8171  0.1222  0.6098
 2172TIP3    H2 6523   4.163   4.605   4.763  0.8438 -1.6513 -1.2053
 2173TIP3   OH2 6524   3.945   1.264   0.133  0.1219  0.2741  0.1677
 2173TIP3    H1 6525   3.880   1.230   0.194  0.0368 -1.1095 -0.6487
 2173TIP3    H2 6526   3.899   1.334   0.086  0.2231  1.4311  1.7064
 2174TIP3   OH2 6527   4.290   0.822   1.181  0.0801 -0.3685  0.7709
 2174TIP3    H1 6528   4.230   0.892   1.204  0.5700  1.0535 -1.7954
 2174TIP3    H2 6529   4.243   0.741   1.200 -1.9344  0.6981  0.5383
 2175TIP3   OH2 6530   6.185   2.694   0.525 -0.5082 -0.3538  0.0718
 2175TIP3    H1 6531   6.124   2.764   0.548  0.0780  0.1132  0.2014
 2175TIP3    H2 6532   6.270   2.725   0.555 -0.3347 -1.3944  0.7171
 2176TIP3   OH2 6533   0.179   4.434   0.895 -0.1622 -0.6712  0.0323
 2176TIP3    H1 6534   0.156   4.468   0.808 -0.7361  0.8747  0.7385
 2176TIP3    H2 6535   0.095   4.421   0.938  0.1436 -0.1094  0.8168
 2177TIP3   OH2 6536   0.414   4.236   3.086  0.1618 -0.5310  0.1245
 2177TIP3    H1 6537   0.391   4.240   3.179  1.0087  0.9660  0.3026
 2177TIP3    H2 6538   0.510   4.233   3.086  0.1449 -1.3986 -0.7032
 2178TIP3   OH2 6539   5.406   4.265   0.470  0.2140  0.0708  0.1747
 2178TIP3    H1 6540   5.319   4.226   0.459 -0.5186  1.6897 -0.0514
 2178TIP3    H2 6541   5.448   4.255   0.384  0.1991 -0.5640  0.2360
 2179TIP3   OH2 6542   0.603   3.968   2.334 -0.5038  0.1698  0.0089
 2179TIP3    H1 6543   0.559   3.916   2.402  0.0762  0.0519  0.3039
 2179TIP3    H2 6544   0.556   3.947   2.253 -1.2857  0.4083  0.3882
 2180TIP3   OH2 6545   3.521   4.750   2.680  0.0791  0.3238  0.1679
 2180TIP3    H1 6546   3.519   4.840   2.648  0.5222  0.8353  1.5089
 2180TIP3    H2 6547   3.608   4.740   2.717 -0.2317 -0.4059  0.7181
 2181TIP3   OH2 6548   2.015   5.259   2.011 -0.5631 -0.6282 -0.3109
 2181TIP3    H1 6549   2.042   5.317   1.940 -1.9445  1.8517  1.0119
 2181TIP3    H2 6550   2.092   5.206   2.030  0.0896 -0.8126 -3.0533
 2182TIP3   OH2 6551   2.458   5.528   1.181 -0.5856  0.3191 -0.1252
 2182TIP3    H1 6552   2.488   5.614   1.210 -1.8986  0.8571 -0.2708
 2182TIP3    H2 6553   2.421   5.488   1.259  1.2729 -0.7223  0.2728
 2183TIP3   OH2 6554   4.397   3.711   1.562 -0.1503 -0.2922 -0.1987
 2183TIP3    H1 6555   4.456   3.637   1.579  0.9647  1.0099  2.0579
 2183TIP3    H2 6556   4.442   3.760   1.493  0.3992 -0.3751  0.0909
 2184TIP3   OH2 6557   0.712   1.676   1.855 -0.4528 -0.0139 -0.0446
 2184TIP3    H1 6558   0.805   1.653   1.846 -0.3434  0.2455  0.3882
 2184TIP3    H2 6559   0.711   1.743   1.923 -1.0445 -0.5906  0.5325
 2185TIP3   OH2 6560   4.781   0.409   1.796  0.4377 -0.2640 -0.2942
 2185TIP3    H1 6561   4.833   0.369   1.866 -0.8201 -0.3493  0.6151
 2185TIP3    H2 6562   4.691   0.398   1.824 -0.1168 -0.4926 -2.0463
 2186TIP3   OH2 6563   1.027   3.415   0.432  0.5631 -0.2007 -0.4254
 2186TIP3    H1 6564   1.029   3.457   0.346  0.3296  1.0097  0.1336
 2186TIP3    H2 6565   0.933   3.403   0.450  0.6307 -1.3612 -0.7405
 2187TIP3   OH2 6566   3.125   1.286   4.868 -0.2176  0.0047 -0.0090
 2187TIP3    H1 6567   3.041   1.296   4.914 -1.2285 -0.7299 -1.6077
 2187TIP3    H2 6568   3.111   1.329   4.784  0.8206 -0.6447 -0.5335
 2188TIP3   OH2 6569   4.085   5.714   2.331 -0.3426 -0.6481 -0.0760
 2188TIP3    H1 6570   4.097   5.787   2.270 -0.2941 -1.9714 -1.7336
 2188TIP3    H2 6571   4.025   5.654   2.285 -0.8366 -1.3944  1.4730
 2189TIP3   OH2 6572   4.183   5.048   4.074 -0.2316 -0.0491 -0.0092
 2189TIP3    H1 6573   4.265   4.998   4.075  0.6616  1.3454  0.7047
 2189TIP3    H2 6574   4.189   5.105   4.150 -2.3746 -0.6357  0.6649
 2190TIP3   OH2 6575   0.533   3.359   3.808  0.5720 -0.6570 -0.1013
 2190TIP3    H1 6576   0.457   3.415   3.793  1.5226  0.6804 -0.1124
 2190TIP3    H2 6577   0.601   3.419   3.838  1.1808 -2.0435  1.4527
 2191TIP3   OH2 6578   6.023   0.307   3.543 -0.6682  0.2022 -0.3417
 2191TIP3    H1 6579   5.942   0.358   3.539 -0.8144  0.4105  2.6665
 2191TIP3    H2 6580   6.093   0.372   3.552 -0.3651 -0.0191 -1.0547
 2192TIP3   OH2 6581   0.535   2.923   5.041 -0.5000  0.8278 -0.1593
 2192TIP3    H1 6582   0.507   2.896   4.954  0.4917 -0.0758 -0.2136
 2192TIP3    H2 6583   0.593   2.998   5.025 -0.3685  0.7017 -0.2786
 2193TIP3   OH2 6584   0.937   1.756   5.016 -0.4950  0.2370  0.0510
 2193TIP3    H1 6585   0.996   1.682   5.033 -1.4176 -0.3894  0.6271
 2193TIP3    H2 6586   0.995   1.830   4.999  0.4522 -0.8082 -1.4082
 2194TIP3   OH2 6587   5.368   3.652   1.253 -0.1050  0.1311 -0.2653
 2194TIP3    H1 6588   5.281   3.684   1.277  0.0556 -0.6896  1.5227
 2194TIP3    H2 6589   5.352   3.584   1.187 -0.8718 -0.3939  0.4509
 2195TIP3   OH2 6590   0.643   2.461   3.098  0.5333  0.1952 -0.0222
 2195TIP3    H1 6591   0.605   2.375   3.080 -0.4937  0.2219  1.8062
 2195TIP3    H2 6592   0.574   2.522   3.072  0.8328  0.4266 -0.2799
 2196TIP3   OH2 6593   5.073   4.822   0.320 -0.5210 -0.2736  0.0656
 2196TIP3    H1 6594   5.057   4.774   0.239 -0.5999 -1.9876  1.0590
 2196TIP3    H2 6595   5.091   4.755   0.385  1.2244  1.1344  1.1379
 2197TIP3   OH2 6596   5.417   5.537   2.852  0.0727 -0.5092  0.6768
 2197TIP3    H1 6597   5.383   5.624   2.831  0.1057 -0.5350  0.5074
 2197TIP3    H2 6598   5.435   5.498   2.766  1.8798  0.0331  0.7768
 2198TIP3   OH2 6599   4.483   5.484   0.360  0.1246  0.1961  0.0008
 2198TIP3    H1 6600   4.578   5.494   0.369 -0.0779  2.8867  0.2192
 2198TIP3    H2 6601   4.447   5.528   0.438 -1.3053  0.9285 -1.0158
 2199TIP3   OH2 6602   4.046   2.750   2.709 -0.2041  0.0908 -0.6866
 2199TIP3    H1 6603   3.995   2.757   2.790  1.6003 -0.7047  0.5705
 2199TIP3    H2 6604   4.076   2.839   2.692 -0.8793  0.3262 -0.7055
 2200TIP3   OH2 6605   4.512   1.960   4.855  0.2300  0.4567 -0.2397
 2200TIP3    H1 6606   4.538   1.907   4.930  0.4080  1.0114  0.0927
 2200TIP3    H2 6607   4.416   1.959   4.856  0.2311  0.0138 -0.3303
 2201TIP3   OH2 6608   0.846   4.387   1.330 -0.0326  0.4844 -0.0917
 2201TIP3    H1 6609   0.865   4.380   1.423  0.3544  0.3297 -0.1827
 2201TIP3    H2 6610   0.912   4.448   1.296  0.0785  0.2263 -0.3392
 2202TIP3   OH2 6611   1.856   5.564   0.592  0.2180  0.6811 -0.2009
 2202TIP3    H1 6612   1.775   5.557   0.643  1.4382  1.3549  1.9583
 2202TIP3    H2 6613   1.884   5.655   0.604  0.6767  0.8154 -1.9786
 2203TIP3   OH2 6614   2.020   5.576   2.882  0.4168 -0.1979  0.1488
 2203TIP3    H1 6615   2.010   5.609   2.793 -1.5705  1.3222  0.8780
 2203TIP3    H2 6616   2.038   5.654   2.935  1.0644 -1.0104  1.1554
 2204TIP3   OH2 6617   4.501   5.928   1.030  0.2298 -0.3821 -0.0914
 2204TIP3    H1 6618   4.441   5.900   1.100 -0.6300 -1.1818 -1.0987
 2204TIP3    H2 6619   4.483   6.021   1.019 -2.1908 -0.9161 -1.5361
 2205TIP3   OH2 6620   4.061   1.987   3.893  0.7643 -0.0652  0.0428
 2205TIP3    H1 6621   4.108   1.945   3.821  0.0870  0.8000 -0.9326
 2205TIP3    H2 6622   4.130   2.025   3.948  1.2477  0.3148 -0.8149
 2206TIP3   OH2 6623   5.208   4.924   1.454  0.5640  0.5016 -0.4577
 2206TIP3    H1 6624   5.166   4.965   1.378  1.5347  1.3433 -0.5613
 2206TIP3    H2 6625   5.163   4.963   1.530  0.0883  0.2054 -0.5831
 2207TIP3   OH2 6626   0.595   4.558   2.923  0.3087 -0.4446 -0.2560
 2207TIP3    H1 6627   0.647   4.616   2.978 -1.2421 -0.2193  1.0781
 2207TIP3    H2 6628   0.598   4.473   2.967 -1.2640 -0.1690  0.4682
 2208TIP3   OH2 6629   3.245   1.452   1.093 -0.0990 -0.1535  0.1739
 2208TIP3    H1 6630   3.193   1.386   1.045 -0.5970 -1.2910  2.1745
 2208TIP3    H2 6631   3.325   1.461   1.041 -0.9718 -0.6654 -1.3417
 2209TIP3   OH2 6632   3.601   5.680   3.541 -0.5233 -0.3255  0.2803
 2209TIP3    H1 6633   3.623   5.723   3.459  1.0377 -1.0842  0.2714
 2209TIP3    H2 6634   3.506   5.664   3.535 -0.9576  2.1020 -0.1447
 2210TIP3   OH2 6635   0.762   2.774   2.224  0.6182  0.4962 -0.0574
 2210TIP3    H1 6636   0.682   2.726   2.204  0.0295  1.4972 -0.1197
 2210TIP3    H2 6637   0.790   2.812   2.141  0.1940  1.5928  0.2902
 2211TIP3   OH2 6638   5.999   3.020   1.397 -0.2783 -0.4057  0.1969
 2211TIP3    H1 6639   6.094   3.007   1.389  0.0219  1.5776 -0.0643
 2211TIP3    H2 6640   5.986   3.050   1.487 -0.5088  0.2962 -0.0610
 2212TIP3   OH2 6641   3.271   2.181   0.827 -0.1859 -0.0299  0.0829
 2212TIP3    H1 6642   3.314   2.190   0.741  1.0494  0.9166  0.7683
 2212TIP3    H2 6643   3.179   2.201   0.809 -0.1306 -0.7774 -1.1859
 2213TIP3   OH2 6644   3.091   5.526   3.975 -0.5792  0.5798  0.2513
 2213TIP3    H1 6645   3.036   5.452   3.949  0.8896 -0.8653  1.0547
 2213TIP3    H2 6646   3.142   5.546   3.896  0.9154 -1.0792  0.7302
 2214TIP3   OH2 6647   4.461   4.781   4.479 -0.1224  0.0402  0.3309
 2214TIP3    H1 6648   4.373   4.787   4.441  0.4000  1.3576 -0.7447
 2214TIP3    H2 6649   4.457   4.705   4.538 -1.1322 -1.8206 -1.9762
 2215TIP3   OH2 6650   0.549  -0.014   0.760  0.4796  0.4466  0.2038
 2215TIP3    H1 6651   0.635  -0.022   0.801  0.4847 -0.8198 -0.0040
 2215TIP3    H2 6652   0.550   0.072   0.718  1.5541  0.5432  0.3966
 2216TIP3   OH2 6653   4.895   0.740   3.271 -0.3295  0.6426  0.7335
 2216TIP3    H1 6654   4.913   0.805   3.339 -1.8654  1.7849  0.0937
 2216TIP3    H2 6655   4.809   0.705   3.293 -0.7636  0.8847 -0.4872
 2217TIP3   OH2 6656   3.150   1.559   1.676  0.5225  0.3390 -0.0518
 2217TIP3    H1 6657   3.098   1.478   1.680  0.6982  0.2593  0.6704
 2217TIP3    H2 6658   3.110   1.609   1.604 -0.7312  0.4027  0.6595
 2218TIP3   OH2 6659   2.013   5.143   4.926 -0.5879 -0.2723 -0.6534
 2218TIP3    H1 6660   2.087   5.163   4.870 -0.5965 -1.0311 -0.9415
 2218TIP3    H2 6661   1.936   5.172   4.876 -0.4566  1.3432  0.0156
 2219TIP3   OH2 6662   3.510   2.499   4.068  0.1485 -0.7090  0.0070
 2219TIP3    H1 6663   3.573   2.516   3.998 -1.3550  0.4997 -1.1258
 2219TIP3    H2 6664   3.562   2.507   4.149  1.2182  1.7001 -0.8075
 2220TIP3   OH2 6665   3.928   5.369   2.631  0.0370 -0.3372  0.1268
 2220TIP3    H1 6666   3.972   5.441   2.586  2.1522 -1.7960 -0.2813
 2220TIP3    H2 6667   3.872   5.329   2.565  2.1407 -1.6615 -0.9834
 2221TIP3   OH2 6668   2.682   2.214   1.332  0.0201 -0.6314 -0.6504
 2221TIP3    H1 6669   2.697   2.143   1.395 -1.0069 -0.0216  0.3289
 2221TIP3    H2 6670   2.595   2.248   1.355 -0.3129 -0.2807 -2.3179
 2222TIP3   OH2 6671   1.781   3.328   2.205 -0.2893 -0.3615 -1.0066
 2222TIP3    H1 6672   1.827   3.350   2.123  0.6027  0.6375 -0.2647
 2222TIP3    H2 6673   1.723   3.256   2.181  0.7567 -0.8209 -2.2760
 2223TIP3   OH2 6674   1.464   2.932   2.209 -0.3522 -0.2286 -0.1993
 2223TIP3    H1 6675   1.486   2.842   2.236 -0.0880 -0.3316 -0.7459
 2223TIP3    H2 6676   1.370   2.929   2.193 -0.5667 -0.1040  0.9289
 2224TIP3   OH2 6677   2.830   5.419   4.733 -0.4704 -0.0516 -0.8767
 2224TIP3    H1 6678   2.871   5.344   4.691 -1.7077 -0.1194 -2.0400
 2224TIP3    H2 6679   2.898   5.486   4.735  0.0528 -0.5464 -1.6601
 2225TIP3   OH2 6680   0.393   4.854   4.175 -0.0317  0.0469  0.2037
 2225TIP3    H1 6681   0.380   4.837   4.269 -1.1438  1.3020  0.3122
 2225TIP3    H2 6682   0.484   4.830   4.159 -0.2567 -1.6772  1.2430
 2226TIP3   OH2 6683   4.137   1.837   0.258 -0.5404  0.5877  0.4755
 2226TIP3    H1 6684   4.115   1.844   0.351 -0.2388  1.2344  0.5038
 2226TIP3    H2 6685   4.231   1.818   0.258 -0.7034 -0.2505  0.3175
 2227TIP3   OH2 6686   1.012   0.342   1.289 -0.3546 -0.2534 -0.2293
 2227TIP3    H1 6687   0.988   0.428   1.254  0.5060 -0.1570 -0.5901
 2227TIP3    H2 6688   0.965   0.337   1.372  0.1864  0.8923  0.1737
 2228TIP3   OH2 6689   3.840   0.996   4.622 -0.1168 -0.5018 -0.2003
 2228TIP3    H1 6690   3.831   1.049   4.543  0.2792 -2.1072 -1.3726
 2228TIP3    H2 6691   3.927   0.958   4.616 -0.0705 -0.6394  1.0419
 2229TIP3   OH2 6692   2.205   1.698   2.414  0.3836  0.1164  0.1247
 2229TIP3    H1 6693   2.146   1.736   2.349  0.8243 -0.5971 -0.7055
 2229TIP3    H2 6694   2.213   1.606   2.389 -0.5333 -0.5363  2.0072
 2230TIP3   OH2 6695   5.808   1.817   4.871 -0.4194 -0.0149 -0.0221
 2230TIP3    H1 6696   5.870   1.851   4.936  0.7587 -0.7156 -0.7208
 2230TIP3    H2 6697   5.863   1.797   4.795 -0.8943 -3.7820  0.4384
 2231TIP3   OH2 6698   2.584   4.651   3.038  0.7512 -0.0245 -0.2861
 2231TIP3    H1 6699   2.658   4.596   3.066 -0.1985 -0.4707  1.4883
 2231TIP3    H2 6700   2.507   4.599   3.059 -0.1060  1.0286 -0.7757
 2232TIP3   OH2 6701   5.712   4.691   1.429  0.3144  0.0930  0.3816
 2232TIP3    H1 6702   5.645   4.642   1.381  0.2547 -1.9622  2.4059
 2232TIP3    H2 6703   5.783   4.629   1.442  3.0390  2.3860 -2.2387
 2233TIP3   OH2 6704   3.327   1.888   4.215  0.4791  0.2484  0.0583
 2233TIP3    H1 6705   3.385   1.945   4.164  0.6480 -0.1717 -0.2279
 2233TIP3    H2 6706   3.303   1.819   4.153  1.8897 -1.1139  0.9492
 2234TIP3   OH2 6707   4.337   5.513   4.557  0.6894 -0.0325  0.3654
 2234TIP3    H1 6708   4.254   5.528   4.512 -0.0974 -1.4726  1.2383
 2234TIP3    H2 6709   4.321   5.540   4.647  0.8796 -1.0957  0.7340
 2235TIP3   OH2 6710   0.766   2.924   2.935 -0.0671 -0.0435 -0.8810
 2235TIP3    H1 6711   0.679   2.913   2.897  0.1784 -0.3763 -1.3509
 2235TIP3    H2 6712   0.781   2.844   2.986 -0.4232  0.4301 -0.0164
 2236TIP3   OH2 6713   5.948   5.078   4.304  0.0018  0.2438 -0.0609
 2236TIP3    H1 6714   5.941   5.002   4.362  2.2506 -1.7687 -2.1869
 2236TIP3    H2 6715   5.915   5.047   4.219 -0.9915  2.3493 -0.5210
 2237TIP3   OH2 6716   3.699   4.464   0.199  0.3350 -0.3250 -0.6216
 2237TIP3    H1 6717   3.705   4.384   0.148  2.4876 -1.2256  0.9040
 2237TIP3    H2 6718   3.633   4.517   0.154 -1.9341 -3.3204 -1.1301
 2238TIP3   OH2 6719   1.216   0.798   2.257 -0.1645 -0.5777  0.4678
 2238TIP3    H1 6720   1.233   0.867   2.193  1.3572 -1.2187  0.1454
 2238TIP3    H2 6721   1.191   0.722   2.204 -0.1977 -0.7420  0.7176
 2239TIP3   OH2 6722   2.118   5.977   2.025 -0.3073  0.9229 -0.2034
 2239TIP3    H1 6723   2.199   5.980   1.975 -0.6923  1.3457 -0.8228
 2239TIP3    H2 6724   2.144   5.951   2.113  0.4618  0.7895 -0.4660
 2240TIP3   OH2 6725   5.211   0.553   4.484 -0.3190  0.0302 -0.2485
 2240TIP3    H1 6726   5.279   0.489   4.467 -0.4801 -0.4628  0.9086
 2240TIP3    H2 6727   5.210   0.608   4.405  2.0316  0.6314  0.0564
 2241TIP3   OH2 6728   1.762   3.929   4.877  0.0999  0.7107 -0.0952
 2241TIP3    H1 6729   1.777   3.941   4.783 -3.2667 -0.4640 -0.9226
 2241TIP3    H2 6730   1.761   3.834   4.889  0.6433  0.8543  1.1690
 2242TIP3   OH2 6731   5.362   2.752   4.758  0.8500 -0.2832  0.2130
 2242TIP3    H1 6732   5.266   2.749   4.764  0.8951 -0.7012  0.7783
 2242TIP3    H2 6733   5.384   2.683   4.696  0.8718 -1.1722  1.1898
 2243TIP3   OH2 6734   2.787   0.650   3.385 -0.2206 -0.6850 -0.3803
 2243TIP3    H1 6735   2.790   0.730   3.333 -2.2336 -0.9954 -1.0868
 2243TIP3    H2 6736   2.877   0.618   3.385  0.8139  1.9457  0.5906
 2244TIP3   OH2 6737   5.820   3.056   0.593 -0.1467  0.0090 -0.2246
 2244TIP3    H1 6738   5.832   3.119   0.522 -0.7176 -0.6769 -0.9673
 2244TIP3    H2 6739   5.726   3.038   0.592  0.0274 -0.9548 -0.1339
 2245TIP3   OH2 6740   1.345   3.598   3.254  0.1470  0.0522 -0.6498
 2245TIP3    H1 6741   1.259   3.557   3.257  1.1893 -2.4418 -1.8141
 2245TIP3    H2 6742   1.341   3.660   3.181 -1.1654  1.3999  0.5077
 2246TIP3   OH2 6743   4.858   4.790   1.575  0.2077 -0.6755 -0.5695
 2246TIP3    H1 6744   4.887   4.879   1.557 -0.7040 -0.2616 -0.0724
 2246TIP3    H2 6745   4.868   4.779   1.669 -0.3987 -0.8221 -0.5146
 2247TIP3   OH2 6746   1.520   2.708   0.548  0.4844 -0.1491  0.0880
 2247TIP3    H1 6747   1.582   2.635   0.541  1.2424  0.5594 -0.8074
 2247TIP3    H2 6748   1.435   2.669   0.526  0.6654 -1.0340  0.8775
 2248TIP3   OH2 6749   5.436   1.335   5.004  0.1989 -0.0410  0.2582
 2248TIP3    H1 6750   5.453   1.286   5.085 -0.3243 -0.6297  0.0190
 2248TIP3    H2 6751   5.507   1.310   4.945  0.8454  0.7481  0.6846
 2249TIP3   OH2 6752   3.640   0.772   0.798  0.7609 -0.1533 -0.0918
 2249TIP3    H1 6753   3.678   0.704   0.853 -0.0955  0.2415  1.0183
 2249TIP3    H2 6754   3.552   0.786   0.834  0.8718  1.4454 -0.3701
 2250TIP3   OH2 6755   5.490   2.967   3.881 -0.2585 -0.4240 -1.1232
 2250TIP3    H1 6756   5.477   3.060   3.901  1.0451 -0.5288  0.4027
 2250TIP3    H2 6757   5.563   2.966   3.819 -2.8621 -0.2548 -4.5147
 2251TIP3   OH2 6758   6.347   3.821   1.112 -0.4201 -0.5050 -0.0520
 2251TIP3    H1 6759   6.360   3.870   1.194  1.9789  0.0546 -0.7173
 2251TIP3    H2 6760   6.333   3.731   1.141  2.2815 -0.6648  0.9755
 2252TIP3   OH2 6761   1.832   2.671   5.046 -0.1540 -0.1598  0.0092
 2252TIP3    H1 6762   1.777   2.593   5.055 -4.2870  2.2082 -2.0335
 2252TIP3    H2 6763   1.852   2.696   5.136 -1.9910 -1.4840  0.8695
 2253TIP3   OH2 6764   2.086   4.760   0.756 -0.3542 -0.2277 -0.0047
 2253TIP3    H1 6765   2.153   4.703   0.795 -2.0181 -2.7218 -0.5756
 2253TIP3    H2 6766   2.090   4.840   0.808 -0.0831 -2.0640  3.0659
 2254TIP3   OH2 6767   5.707   1.155   3.632  0.1472 -0.3620 -0.4601
 2254TIP3    H1 6768   5.742   1.198   3.553 -1.6902  0.0465 -1.0930
 2254TIP3    H2 6769   5.621   1.122   3.605  0.3190 -1.9703  0.8406
 2255TIP3   OH2 6770   0.791   5.247   1.463  0.4214 -0.0796  0.0213
 2255TIP3    H1 6771   0.742   5.165   1.457  0.5475 -0.0632 -2.3153
 2255TIP3    H2 6772   0.865   5.226   1.520  0.4503 -1.6147 -0.5191
 2256TIP3   OH2 6773   5.264   4.258   4.537  0.0021 -0.3433  0.2079
 2256TIP3    H1 6774   5.181   4.297   4.566  0.3292  0.2398  0.3749
 2256TIP3    H2 6775   5.282   4.299   4.453 -0.9801 -2.0833 -0.9300
 2257TIP3   OH2 6776   4.266   1.099   2.473  0.1957  0.1760  0.4885
 2257TIP3    H1 6777   4.234   1.170   2.417  0.0031  1.3801  2.0424
 2257TIP3    H2 6778   4.200   1.030   2.464  1.0236 -0.3974 -2.0247
 2258TIP3   OH2 6779   4.893   4.057   3.925 -0.4020 -0.0516  0.0586
 2258TIP3    H1 6780   4.806   4.095   3.939  0.5662  2.3908  0.0865
 2258TIP3    H2 6781   4.926   4.041   4.014  0.1378  1.5530  0.1867
 2259TIP3   OH2 6782   2.156   0.380   3.259 -0.7218 -0.5078 -0.4762
 2259TIP3    H1 6783   2.214   0.427   3.199  1.3150 -2.6721 -0.3431
 2259TIP3    H2 6784   2.211   0.313   3.299 -2.8319 -1.3239  1.3223
 2260TIP3   OH2 6785   6.221   3.217   2.211 -0.2422 -0.3461  0.0503
 2260TIP3    H1 6786   6.183   3.156   2.274  2.0284 -0.0746  1.8092
 2260TIP3    H2 6787   6.245   3.293   2.262  0.0620  0.6459 -1.4941
 2261TIP3   OH2 6788   4.081   4.361   2.662 -0.0423 -0.7032 -0.2066
 2261TIP3    H1 6789   4.099   4.293   2.596 -2.1010 -0.2238 -1.3519
 2261TIP3    H2 6790   4.142   4.432   2.640  0.1081 -1.0258 -0.8538
 2262TIP3   OH2 6791   3.179   4.980   0.893 -0.4230  0.0920  0.0034
 2262TIP3    H1 6792   3.147   4.891   0.873  2.3902 -1.1727  0.6055
 2262TIP3    H2 6793   3.231   4.969   0.972 -0.4698  2.4595  0.4294
 2263TIP3   OH2 6794   2.973   4.268   3.351 -0.4500  0.2967 -0.1538
 2263TIP3    H1 6795   2.999   4.311   3.270  0.6783  0.7890  0.4389
 2263TIP3    H2 6796   3.019   4.184   3.349  1.8782  1.4053  1.1673
 2264TIP3   OH2 6797   5.306   3.353   0.879  0.6478 -0.1642  0.3182
 2264TIP3    H1 6798   5.321   3.428   0.821  1.6074  0.6976  1.6177
 2264TIP3    H2 6799   5.212   3.338   0.875  0.5209  0.7097 -0.4386
 2265TIP3   OH2 6800   5.224   5.456   3.663 -0.8472 -0.3637 -0.4897
 2265TIP3    H1 6801   5.175   5.377   3.686 -4.2727  2.2114  2.1807
 2265TIP3    H2 6802   5.201   5.472   3.571 -2.5182 -0.9703 -0.2166
 2266TIP3   OH2 6803   1.861   3.980   1.042 -0.1778 -0.4593  0.3372
 2266TIP3    H1 6804   1.789   3.939   1.089 -1.4282  0.9108 -0.3098
 2266TIP3    H2 6805   1.913   3.906   1.009 -0.1037 -1.4444  2.5371
 2267TIP3   OH2 6806   3.244   0.656   5.060 -0.3725 -0.5691  0.6160
 2267TIP3    H1 6807   3.214   0.592   5.125  0.6625 -0.4128  1.2700
 2267TIP3    H2 6808   3.315   0.703   5.103 -0.3645  0.2654 -0.2622
 2268TIP3   OH2 6809   5.721   0.272   2.327 -0.1403 -0.2784 -0.3776
 2268TIP3    H1 6810   5.641   0.248   2.373 -0.8237  1.6134 -0.4774
 2268TIP3    H2 6811   5.693   0.293   2.238  0.5576 -0.1906 -0.5864
 2269TIP3   OH2 6812   2.809   5.087   5.113 -0.2273 -0.1031  0.0347
 2269TIP3    H1 6813   2.794   5.179   5.136  1.9787 -0.0259  1.5766
 2269TIP3    H2 6814   2.741   5.039   5.160  1.5865  0.4416  3.5634
 2270TIP3   OH2 6815   2.166   4.074   3.101 -0.8615  0.2622  0.6903
 2270TIP3    H1 6816   2.159   3.983   3.130 -2.6164 -0.0395 -0.5175
 2270TIP3    H2 6817   2.184   4.068   3.007 -0.5457  1.1826  0.6785
 2271TIP3   OH2 6818   3.905   2.140   4.068  0.0257  0.5586 -0.2470
 2271TIP3    H1 6819   3.969   2.083   4.025 -0.3918 -0.4463  0.4169
 2271TIP3    H2 6820   3.857   2.081   4.127 -2.2844  1.0285 -1.5493
 2272TIP3   OH2 6821   6.134   3.188   3.737  0.8475  0.0199 -0.5135
 2272TIP3    H1 6822   6.094   3.156   3.656  0.2549  0.9584 -0.6079
 2272TIP3    H2 6823   6.223   3.212   3.712  1.0545 -0.8125 -0.6075
 2273TIP3   OH2 6824   3.509   0.423   0.992 -0.2990  0.0416 -0.1564
 2273TIP3    H1 6825   3.500   0.331   1.016  1.8589 -0.6087 -1.5951
 2273TIP3    H2 6826   3.557   0.462   1.065 -1.2667  0.0694  0.4819
 2274TIP3   OH2 6827   4.560   5.373   0.713 -0.3904  0.1064 -0.2132
 2274TIP3    H1 6828   4.504   5.436   0.669 -1.7537 -0.9660 -0.0563
 2274TIP3    H2 6829   4.529   5.288   0.684  1.2648 -0.5287 -0.2400
 2275TIP3   OH2 6830   1.189   3.839   5.081 -0.1574 -0.3503  0.1011
 2275TIP3    H1 6831   1.260   3.779   5.102 -1.0318 -1.2652  0.5230
 2275TIP3    H2 6832   1.224   3.895   5.012  2.0804  1.3319  2.4227
 2276TIP3   OH2 6833   1.629   1.817   1.759 -0.6553  0.5861 -0.3529
 2276TIP3    H1 6834   1.568   1.830   1.832 -1.2798 -1.8627 -0.3290
 2276TIP3    H2 6835   1.574   1.781   1.689  0.6373 -1.4286 -0.4263
 2277TIP3   OH2 6836   5.592   0.695   0.397 -0.1011  0.5526 -0.1175
 2277TIP3    H1 6837   5.687   0.684   0.400  0.1771  2.2860 -1.1538
 2277TIP3    H2 6838   5.578   0.788   0.419 -1.2047  1.3865 -3.6421
 2278TIP3   OH2 6839   1.077   5.846   2.520  0.1813 -0.1634 -0.4055
 2278TIP3    H1 6840   0.985   5.829   2.537 -0.0978  1.2254 -0.4626
 2278TIP3    H2 6841   1.103   5.777   2.459 -1.2558  0.3667 -1.6743
 2279TIP3   OH2 6842   4.887   5.336   4.474  0.1660  0.0756 -0.5404
 2279TIP3    H1 6843   4.911   5.311   4.563  0.6439 -1.0089 -0.9497
 2279TIP3    H2 6844   4.821   5.404   4.485 -2.0798 -2.1177  0.7223
 2280TIP3   OH2 6845   6.163   2.847   1.131 -0.3261  0.2764 -0.2242
 2280TIP3    H1 6846   6.155   2.832   1.225  0.6639  0.0941 -0.1561
 2280TIP3    H2 6847   6.081   2.889   1.106 -0.9616 -0.4658  0.5592
 2281TIP3   OH2 6848   1.652   0.229   1.058  0.3647  0.1504 -0.6376
 2281TIP3    H1 6849   1.647   0.306   1.115  2.6027 -1.4710  1.9820
 2281TIP3    H2 6850   1.723   0.249   0.998  2.4220 -0.5581  1.4147
 2282TIP3   OH2 6851   4.548   3.749   3.974  0.3879 -0.2881  0.4118
 2282TIP3    H1 6852   4.565   3.723   3.883 -0.5571  0.6657 -0.0526
 2282TIP3    H2 6853   4.635   3.746   4.016  0.8507 -0.6468 -0.5381
 2283TIP3   OH2 6854   3.034   2.368   4.418 -0.0027  0.8066 -0.0027
 2283TIP3    H1 6855   2.986   2.327   4.346 -2.3588 -0.1156  1.9445
 2283TIP3    H2 6856   3.074   2.446   4.378 -0.2377 -0.2509 -2.5118
 2284TIP3   OH2 6857   2.956   1.379   0.404  0.0336  0.0828 -0.2310
 2284TIP3    H1 6858   2.895   1.334   0.463  0.1572  0.7355  0.4012
 2284TIP3    H2 6859   2.900   1.437   0.352 -0.2454 -1.4000 -1.6631
 2285TIP3   OH2 6860   1.208   4.163   0.358 -0.1254 -0.1965  0.2900
 2285TIP3    H1 6861   1.200   4.187   0.451  0.4452 -1.2591  0.6222
 2285TIP3    H2 6862   1.119   4.172   0.324 -0.0545  1.8505  0.5120
 2286TIP3   OH2 6863   3.027   0.942   4.258 -0.2959 -0.0021  0.1368
 2286TIP3    H1 6864   3.099   0.986   4.303 -0.6745  0.1968  0.5578
 2286TIP3    H2 6865   3.067   0.902   4.182  0.1753  0.5221  0.1041
 2287TIP3   OH2 6866   1.308   4.590   3.715  0.0927  0.1762  0.0703
 2287TIP3    H1 6867   1.276   4.565   3.629 -0.7591 -0.7195  0.6288
 2287TIP3    H2 6868   1.371   4.660   3.698 -0.8150  0.7115 -1.1905
 2288TIP3   OH2 6869   2.339   3.593   0.185 -0.2856 -0.2687  0.4650
 2288TIP3    H1 6870   2.278   3.530   0.147  0.0815 -0.3729  0.0369
 2288TIP3    H2 6871   2.370   3.644   0.110  1.1075 -1.0371  0.4932
 2289TIP3   OH2 6872   1.538   3.565   3.471 -0.2538  0.1317 -0.1134
 2289TIP3    H1 6873   1.510   3.517   3.550 -1.1804 -2.9079 -2.1040
 2289TIP3    H2 6874   1.459   3.568   3.417  0.2940  2.4086 -0.8785
 2290TIP3   OH2 6875   2.329   5.895   1.347  0.4601  0.2059  0.4472
 2290TIP3    H1 6876   2.314   5.989   1.359 -1.0490 -0.2186  2.5988
 2290TIP3    H2 6877   2.418   5.888   1.313  1.8591  2.3003  3.2861
 2291TIP3   OH2 6878   1.709   4.357   0.938  0.8621 -0.2022  0.2553
 2291TIP3    H1 6879   1.794   4.314   0.931  1.2602  0.5980  0.0681
 2291TIP3    H2 6880   1.721   4.424   1.005  0.3037 -0.2588  0.4172
 2292TIP3   OH2 6881   5.903   1.788   2.080 -0.4854  0.0704  0.7143
 2292TIP3    H1 6882   5.912   1.719   2.014 -1.6098  0.8979 -0.3578
 2292TIP3    H2 6883   5.965   1.764   2.149  0.5783 -0.9376 -0.5423
 2293TIP3   OH2 6884   5.172   4.953   3.471  0.3111 -0.1325 -0.2568
 2293TIP3    H1 6885   5.221   5.032   3.452 -0.3555  0.4753  0.4572
 2293TIP3    H2 6886   5.229   4.901   3.527  0.9099 -0.3488 -1.0608
 2294TIP3   OH2 6887   1.334   0.135   3.303  0.3045  0.5912  0.0619
 2294TIP3    H1 6888   1.261   0.195   3.315  0.1991  0.5116 -0.1692
 2294TIP3    H2 6889   1.292   0.051   3.281  0.4835  0.6870 -0.6635
 2295TIP3   OH2 6890   1.991   2.625   2.187 -0.4577  0.4776  0.8808
 2295TIP3    H1 6891   1.957   2.592   2.270 -1.4006 -0.2279  0.2357
 2295TIP3    H2 6892   1.944   2.707   2.174 -2.3662 -0.7008 -0.2202
 2296TIP3   OH2 6893   4.644   4.360   0.063  0.4847  0.3509 -0.6765
 2296TIP3    H1 6894   4.603   4.420   0.126 -1.2747 -0.9139 -0.5483
 2296TIP3    H2 6895   4.650   4.411  -0.018  0.2407  1.1362 -0.2095
 2297TIP3   OH2 6896   3.404   1.771   1.173  0.6422 -0.6405 -0.2240
 2297TIP3    H1 6897   3.375   1.810   1.256 -0.5291 -1.2809 -0.3060
 2297TIP3    H2 6898   3.449   1.690   1.198  0.1980 -0.8861 -0.2093
 2298TIP3   OH2 6899   4.810   4.805   2.181 -0.3676 -0.4123  0.2347
 2298TIP3    H1 6900   4.835   4.854   2.259  1.1424 -2.5496  1.2109
 2298TIP3    H2 6901   4.886   4.814   2.123  0.7467 -2.8737  1.1558
 2299TIP3   OH2 6902   4.590   4.894   0.710  0.2068 -0.7539 -0.0079
 2299TIP3    H1 6903   4.674   4.937   0.724  0.1243 -0.2362 -1.0205
 2299TIP3    H2 6904   4.552   4.887   0.797  1.5416 -1.5300  0.5508
 2300TIP3   OH2 6905   2.451   2.560   0.142 -0.4068  0.4029 -0.4085
 2300TIP3    H1 6906   2.426   2.640   0.187 -0.9430 -0.2033  0.4077
 2300TIP3    H2 6907   2.545   2.567   0.130 -0.1033  0.2222  1.5603
 2301TIP3   OH2 6908   3.758   2.990   0.631  0.0608 -0.3017 -0.3719
 2301TIP3    H1 6909   3.804   3.012   0.550 -0.2126 -1.0083 -0.7249
 2301TIP3    H2 6910   3.783   2.900   0.650 -2.2140 -1.1944 -1.3218
 2302TIP3   OH2 6911   3.056   2.124   0.243  0.0027  0.1644 -0.2276
 2302TIP3    H1 6912   3.036   2.080   0.160  0.0260  2.5484 -1.5859
 2302TIP3    H2 6913   2.981   2.104   0.300  0.1419 -1.7735 -0.6643
 2303TIP3   OH2 6914   0.431   2.493   0.212 -0.7827  0.6315  0.6065
 2303TIP3    H1 6915   0.495   2.500   0.283  0.6517  0.9015 -0.6590
 2303TIP3    H2 6916   0.431   2.580   0.172 -0.0019 -0.0520 -0.9855
 2304TIP3   OH2 6917   0.581   5.673   2.849  0.3319 -0.3269  0.1537
 2304TIP3    H1 6918   0.658   5.634   2.808 -0.3722 -1.6187 -0.0066
 2304TIP3    H2 6919   0.584   5.645   2.940  1.7868  2.3840  1.0762
 2305TIP3   OH2 6920   1.014   2.307   3.862 -0.8926 -0.0466 -0.4778
 2305TIP3    H1 6921   1.052   2.368   3.925 -0.3164  0.7507 -1.5656
 2305TIP3    H2 6922   1.019   2.222   3.906 -0.0848  0.4199  0.3739
 2306TIP3   OH2 6923   3.518   3.616   0.946 -0.1812 -0.8185 -0.0894
 2306TIP3    H1 6924   3.441   3.648   0.993 -0.1684  0.0252 -0.6130
 2306TIP3    H2 6925   3.590   3.627   1.008 -0.1516  0.3617 -0.3057
 2307TIP3   OH2 6926   5.631   3.520   1.591 -0.1610  0.4568  0.3433
 2307TIP3    H1 6927   5.537   3.521   1.605 -0.1567  2.4583  0.5156
 2307TIP3    H2 6928   5.669   3.513   1.678 -0.1294  0.3582  0.3229
 2308TIP3   OH2 6929   2.222   2.312   3.785  0.2879  0.4618  0.3688
 2308TIP3    H1 6930   2.199   2.401   3.809  0.5601  0.3964  0.8860
 2308TIP3    H2 6931   2.315   2.304   3.807  0.5708  0.4136 -0.7777
 2309TIP3   OH2 6932   2.639   2.341  -0.032 -0.0404  0.0221 -0.0923
 2309TIP3    H1 6933   2.692   2.398   0.023 -0.1541  0.3498 -0.3198
 2309TIP3    H2 6934   2.566   2.314   0.025  1.0609 -1.5022  0.6458
 2310TIP3   OH2 6935   1.664   1.261   1.009  0.1322 -0.2159 -0.5695
 2310TIP3    H1 6936   1.742   1.265   0.954  0.9404 -1.7477  0.3751
 2310TIP3    H2 6937   1.592   1.245   0.947  0.8520 -0.7845 -1.2887
 2311TIP3   OH2 6938   3.076   5.734   3.744 -0.2516  0.1860 -0.0821
 2311TIP3    H1 6939   3.027   5.767   3.819 -1.6592 -1.5183 -0.1831
 2311TIP3    H2 6940   3.168   5.747   3.768 -0.6602 -0.3493  1.9773
 2312TIP3   OH2 6941   6.194   1.792   1.801 -0.3041  0.2389 -0.4417
 2312TIP3    H1 6942   6.269   1.733   1.808 -1.0314 -0.6729 -0.2646
 2312TIP3    H2 6943   6.192   1.838   1.885 -0.1861 -0.0261 -0.2935
 2313TIP3   OH2 6944   2.441   0.749   4.530 -0.0821  0.0912 -0.1937
 2313TIP3    H1 6945   2.522   0.712   4.564 -0.7593 -0.0540  1.3218
 2313TIP3    H2 6946   2.374   0.721   4.592 -1.0393  1.5471 -0.5296
 2314TIP3   OH2 6947   2.962   0.244   2.542  0.0383  0.3705 -0.1878
 2314TIP3    H1 6948   2.960   0.280   2.631 -1.8225  0.8899 -0.4005
 2314TIP3    H2 6949   2.978   0.319   2.485 -0.8785  0.3981 -0.4242
 2315TIP3   OH2 6950   1.665   1.058   2.277  0.0584 -0.0633 -0.5767
 2315TIP3    H1 6951   1.609   1.079   2.203  0.0731  0.9750 -0.3069
 2315TIP3    H2 6952   1.647   0.966   2.296 -1.0405  0.0704 -0.9263
 2316TIP3   OH2 6953   1.680   5.274   2.042 -0.4373 -0.5602  0.0854
 2316TIP3    H1 6954   1.710   5.280   1.951 -0.9752 -0.0525 -0.0594
 2316TIP3    H2 6955   1.720   5.350   2.085  0.7895 -1.4380  0.5675
 2317TIP3   OH2 6956   2.947   1.422   4.682  0.2634  0.4368 -0.1535
 2317TIP3    H1 6957   2.869   1.461   4.644  0.9552  1.6124 -0.4326
 2317TIP3    H2 6958   3.018   1.448   4.623  1.2062  1.4151  1.3392
 2318TIP3   OH2 6959   2.784   0.191   1.257 -0.0486  0.8208  0.5318
 2318TIP3    H1 6960   2.860   0.201   1.201  0.4037  1.4673  1.2370
 2318TIP3    H2 6961   2.742   0.277   1.255 -0.3465  0.6827  0.7343
 2319TIP3   OH2 6962   4.110   4.381   4.030 -0.1018  0.4743  0.1807
 2319TIP3    H1 6963   4.193   4.335   4.018  0.3670  1.3634 -0.1076
 2319TIP3    H2 6964   4.044   4.323   3.992  0.6135  0.5436 -1.2357
 2320TIP3   OH2 6965   0.834   2.403   3.313  0.2170  0.0310  0.1310
 2320TIP3    H1 6966   0.752   2.392   3.265 -0.2928  0.2524  0.9334
 2320TIP3    H2 6967   0.812   2.383   3.404  0.8160  1.0151  0.5179
 2321TIP3   OH2 6968   4.087   3.868   2.253  0.0483 -0.0811  0.0327
 2321TIP3    H1 6969   4.163   3.836   2.302 -0.3339 -0.3588  0.4544
 2321TIP3    H2 6970   4.123   3.935   2.194  0.2176  1.8955  2.2502
 2322TIP3   OH2 6971   5.213   1.934  -0.025  0.6588  0.1345  0.3352
 2322TIP3    H1 6972   5.120   1.920  -0.008 -0.1691  1.9335 -2.1771
 2322TIP3    H2 6973   5.247   1.968   0.058 -2.1956  4.5797  0.0251
 2323TIP3   OH2 6974   3.662   4.392   4.761 -0.1805 -0.6836 -1.1388
 2323TIP3    H1 6975   3.577   4.355   4.736 -0.5883  0.2901 -1.2754
 2323TIP3    H2 6976   3.713   4.392   4.680 -0.4911 -0.1704 -1.3461
 2324TIP3   OH2 6977   5.949   2.563   4.074  0.0058  0.1499 -0.4364
 2324TIP3    H1 6978   6.002   2.486   4.052  1.4716  0.1730  2.4913
 2324TIP3    H2 6979   5.874   2.528   4.121  1.9645  0.4088  3.2768
 2325TIP3   OH2 6980   6.089   4.754   0.954 -0.1005  0.2076  0.3839
 2325TIP3    H1 6981   6.036   4.772   0.877  0.5975  1.0392  0.0784
 2325TIP3    H2 6982   6.130   4.669   0.935  0.2022  0.4848 -0.2447
 2326TIP3   OH2 6983   3.531   3.908   2.844 -0.3160  0.1119 -0.4812
 2326TIP3    H1 6984   3.452   3.963   2.838 -0.5364 -0.0459  0.7834
 2326TIP3    H2 6985   3.525   3.866   2.930  2.2048  1.7460  0.6100
 2327TIP3   OH2 6986   5.345   1.601   3.287 -0.0553 -0.2539  0.1680
 2327TIP3    H1 6987   5.287   1.525   3.293 -0.9207  0.3782 -0.0734
 2327TIP3    H2 6988   5.364   1.608   3.193  0.4719 -0.4922  0.2519
 2328TIP3   OH2 6989   3.057   3.076   4.746 -0.1180 -0.1476 -0.7304
 2328TIP3    H1 6990   3.136   3.025   4.766 -0.3735 -0.8057 -1.3594
 2328TIP3    H2 6991   3.003   3.070   4.824  0.3245  0.0656 -0.4049
 2329TIP3   OH2 6992   5.898   2.452   5.061  0.7971 -0.0248 -0.0898
 2329TIP3    H1 6993   5.828   2.396   5.027 -0.6390  2.3052 -1.2163
 2329TIP3    H2 6994   5.902   2.431   5.154  0.6125 -2.2431 -0.5266
 2330TIP3   OH2 6995   4.713   2.620   1.834  0.5177  0.0826  0.3023
 2330TIP3    H1 6996   4.630   2.654   1.866 -0.0721 -2.4443  1.6566
 2330TIP3    H2 6997   4.763   2.598   1.912  0.7105 -2.3813 -0.4108
 2331TIP3   OH2 6998   2.848   1.661   1.821 -0.4904 -0.3457  0.1278
 2331TIP3    H1 6999   2.822   1.569   1.822 -0.2980 -0.4000  1.1587
 2331TIP3    H2 7000   2.767   1.709   1.800 -0.6884 -0.7240  0.0272
 2332TIP3   OH2 7001   1.458   1.367   2.585  0.5859 -0.3867  0.0018
 2332TIP3    H1 7002   1.540   1.375   2.536  0.6994 -0.5128  0.1710
 2332TIP3    H2 7003   1.407   1.302   2.537 -0.6362  1.7280 -1.8023
 2333TIP3   OH2 7004   5.572   5.772   0.905 -0.2263  0.6628 -0.0004
 2333TIP3    H1 7005   5.594   5.753   0.814 -1.9563  0.9909 -0.5328
 2333TIP3    H2 7006   5.531   5.691   0.936 -3.0881  1.6893 -0.7453
 2334TIP3   OH2 7007   5.715   2.252   5.051  0.2741  0.0313 -0.1117
 2334TIP3    H1 7008   5.665   2.287   5.125  1.7484  1.8670  0.0878
 2334TIP3    H2 7009   5.739   2.164   5.078 -2.1159 -0.6211  0.1031
 2335TIP3   OH2 7010   1.833   4.626   3.248  0.2626  0.5571  0.3102
 2335TIP3    H1 7011   1.801   4.715   3.259 -1.9127 -0.0085 -0.8025
 2335TIP3    H2 7012   1.771   4.586   3.186  1.7894 -1.4010 -0.0448
 2336TIP3   OH2 7013   1.987   5.394   4.705 -0.3418 -0.4705 -0.8285
 2336TIP3    H1 7014   2.066   5.401   4.652 -0.6005 -0.6792 -1.2477
 2336TIP3    H2 7015   1.937   5.472   4.685 -0.1026 -0.1857 -0.3273
 2337TIP3   OH2 7016   3.857   5.204   3.931  0.3911  0.0290 -0.3323
 2337TIP3    H1 7017   3.912   5.252   3.870 -0.5087 -2.2677 -3.1582
 2337TIP3    H2 7018   3.767   5.227   3.906 -0.0032 -1.1089 -0.0377
 2338TIP3   OH2 7019   4.965   5.725   4.879  0.7499  0.3456  0.2447
 2338TIP3    H1 7020   5.007   5.768   4.804  0.8652 -1.3682 -0.7118
 2338TIP3    H2 7021   5.029   5.661   4.909  0.7953  1.1511  2.0007
 2339TIP3   OH2 7022   3.431   4.885   3.905 -0.3856 -0.2374  0.1905
 2339TIP3    H1 7023   3.518   4.849   3.925 -0.1437 -0.6060 -1.3646
 2339TIP3    H2 7024   3.428   4.969   3.951  0.8412 -0.1686  0.1704
 2340TIP3   OH2 7025   5.790   5.509   2.422  0.1835 -0.3271 -0.5449
 2340TIP3    H1 7026   5.848   5.454   2.370  0.8737  0.3596 -0.5303
 2340TIP3    H2 7027   5.821   5.598   2.406 -1.5770  0.1861 -1.4240
 2341TIP3   OH2 7028   4.225   1.809   2.952  0.2837  0.3810 -0.3656
 2341TIP3    H1 7029   4.274   1.841   2.876 -0.5498  0.1448 -1.0295
 2341TIP3    H2 7030   4.134   1.829   2.931 -0.1277 -1.1640 -0.1902
 2342TIP3   OH2 7031   1.854   4.103   0.541  0.5861 -0.1045 -0.3173
 2342TIP3    H1 7032   1.868   4.020   0.586 -2.3171 -1.5801 -1.8934
 2342TIP3    H2 7033   1.909   4.098   0.463  0.9959 -0.1923 -0.0245
 2343TIP3   OH2 7034   2.509   0.717   3.250 -0.0249 -0.1326  0.1496
 2343TIP3    H1 7035   2.464   0.797   3.274 -1.0751 -0.4679 -0.6505
 2343TIP3    H2 7036   2.595   0.725   3.290  0.1171  1.6715 -0.4513
 2344TIP3   OH2 7037   5.079   0.806   2.219  0.3001  0.6179  0.0327
 2344TIP3    H1 7038   5.014   0.826   2.152  1.8123 -0.3251 -1.7911
 2344TIP3    H2 7039   5.094   0.890   2.264  0.3604  1.6432 -1.8316
 2345TIP3   OH2 7040   1.564   2.536   1.235 -0.0675  0.1375 -0.4346
 2345TIP3    H1 7041   1.472   2.533   1.261 -0.3698  4.1523 -0.4444
 2345TIP3    H2 7042   1.611   2.553   1.317  0.5202 -0.5340 -0.6289
 2346TIP3   OH2 7043   2.909   2.932   3.287 -0.1789  0.0830 -0.2235
 2346TIP3    H1 7044   2.975   2.866   3.308  0.1681  0.3274 -0.5445
 2346TIP3    H2 7045   2.944   3.013   3.324  0.0959  0.3768 -1.1052
 2347TIP3   OH2 7046   6.206   0.073   1.381  0.1601  0.1866  0.1619
 2347TIP3    H1 7047   6.169   0.161   1.377  1.3898  0.6906 -1.2991
 2347TIP3    H2 7048   6.289   0.084   1.427  0.2243 -0.2421  0.1531
 2348TIP3   OH2 7049   0.783   4.199   0.433 -0.8338 -0.0007  1.0355
 2348TIP3    H1 7050   0.856   4.162   0.482 -0.5488  1.3359  1.6402
 2348TIP3    H2 7051   0.784   4.292   0.453 -1.6778  0.3210 -0.2875
 2349TIP3   OH2 7052   5.841   4.076   3.675 -0.4887 -0.1239 -0.2072
 2349TIP3    H1 7053   5.813   3.985   3.688 -1.0155  0.0635 -0.0007
 2349TIP3    H2 7054   5.857   4.082   3.581 -3.0837  0.2630 -0.7185
 2350TIP3   OH2 7055   2.921   1.363   2.478 -0.1140  0.4130 -0.4525
 2350TIP3    H1 7056   2.906   1.426   2.408 -0.1259 -1.1025 -1.8842
 2350TIP3    H2 7057   2.840   1.364   2.530 -0.1013  1.5524 -0.4441
 2351TIP3   OH2 7058   1.165   3.640   1.338 -0.2539 -0.7869 -0.2597
 2351TIP3    H1 7059   1.192   3.555   1.375  2.2478  0.2947  0.6190
 2351TIP3    H2 7060   1.136   3.690   1.414  1.3375  0.1869 -0.2582
 2352TIP3   OH2 7061   5.257   3.302   5.026 -0.5640 -0.1187 -0.1630
 2352TIP3    H1 7062   5.220   3.243   5.091 -0.6846  1.5792  1.3754
 2352TIP3    H2 7063   5.343   3.264   5.005  0.0148 -0.0514  1.9288
 2353TIP3   OH2 7064   1.531   3.143   2.818 -0.1958 -0.0060  0.6924
 2353TIP3    H1 7065   1.438   3.159   2.803  0.2979  1.3647 -1.3182
 2353TIP3    H2 7066   1.568   3.230   2.834  0.7120 -0.5611  1.7483
 2354TIP3   OH2 7067   1.717   1.352   4.356  0.5003  0.4567 -0.1287
 2354TIP3    H1 7068   1.731   1.427   4.415  0.7842 -0.3689  0.8883
 2354TIP3    H2 7069   1.649   1.301   4.399  0.8673 -0.2792 -0.4119
 2355TIP3   OH2 7070   4.126   3.177   3.687  0.0029  0.4408 -0.5896
 2355TIP3    H1 7071   4.151   3.185   3.778 -1.2731 -0.3657 -0.1358
 2355TIP3    H2 7072   4.178   3.243   3.641  1.1473  0.4056  0.6101
 2356TIP3   OH2 7073   1.073   5.576   3.288  0.0690 -0.4027 -0.2104
 2356TIP3    H1 7074   1.035   5.605   3.205 -0.3798  0.8728  0.4138
 2356TIP3    H2 7075   1.039   5.487   3.301 -1.0493 -0.0473 -0.6697
 2357TIP3   OH2 7076   3.049   4.892   5.164  0.2108  0.4163 -0.2846
 2357TIP3    H1 7077   2.999   4.914   5.085  0.2373  3.2266  0.4028
 2357TIP3    H2 7078   2.988   4.908   5.236  1.4460  2.0387  0.4635
 2358TIP3   OH2 7079   0.956   3.901   3.610  0.2127 -0.4043  0.3296
 2358TIP3    H1 7080   1.012   3.848   3.553 -1.3199 -1.7287  0.0035
 2358TIP3    H2 7081   0.876   3.913   3.561 -0.1382  0.7191  1.1425
 2359TIP3   OH2 7082   1.978   4.478   2.387  0.4219  0.4858  0.4257
 2359TIP3    H1 7083   1.908   4.508   2.445 -1.2682 -0.6478 -0.9232
 2359TIP3    H2 7084   2.005   4.557   2.338  0.7474  1.1084  1.5778
 2360TIP3   OH2 7085   1.953   4.707   4.622  0.5912  0.0255  0.8080
 2360TIP3    H1 7086   1.904   4.763   4.682  0.4654  0.9064 -0.0757
 2360TIP3    H2 7087   2.021   4.667   4.676  0.5902  0.9296  1.5099
 2361TIP3   OH2 7088   5.953   2.712   2.692  0.3705 -0.2486 -0.4906
 2361TIP3    H1 7089   5.966   2.643   2.757  0.7818  0.1792 -0.1155
 2361TIP3    H2 7090   5.858   2.727   2.691  0.0442 -1.9845 -1.7900
 2362TIP3   OH2 7091   5.224   3.822   2.077  0.6091 -0.0983 -0.3116
 2362TIP3    H1 7092   5.152   3.877   2.108  1.4354  1.2073 -0.6194
 2362TIP3    H2 7093   5.200   3.797   1.988 -0.5055 -1.6037  0.3626
 2363TIP3   OH2 7094   2.234   5.111   2.025 -0.6813 -0.1209 -0.1541
 2363TIP3    H1 7095   2.322   5.111   2.063 -0.9656  0.9659  0.5409
 2363TIP3    H2 7096   2.197   5.027   2.051 -0.5028  0.1741  1.1416
 2364TIP3   OH2 7097   0.800   0.359   0.221  0.1301  0.0108  0.0455
 2364TIP3    H1 7098   0.791   0.367   0.316 -0.3894 -1.5013  0.1551
 2364TIP3    H2 7099   0.893   0.343   0.207  0.0422 -0.8700  0.4122
 2365TIP3   OH2 7100   3.849   1.243   3.627 -0.0735 -0.3805 -0.2047
 2365TIP3    H1 7101   3.860   1.150   3.609 -1.3760 -0.9724  1.7439
 2365TIP3    H2 7102   3.889   1.255   3.714  1.3909  1.2145 -1.0359
 2366TIP3   OH2 7103   0.591   4.245   0.230  0.3131 -0.0072 -0.3105
 2366TIP3    H1 7104   0.654   4.271   0.296 -0.6799 -1.5137  1.3107
 2366TIP3    H2 7105   0.581   4.323   0.175 -0.1184  1.9635  2.3430
 2367TIP3   OH2 7106   2.467   0.800   0.803  0.2791 -0.2217 -0.0995
 2367TIP3    H1 7107   2.484   0.777   0.894 -0.8611 -0.9573 -0.0450
 2367TIP3    H2 7108   2.553   0.801   0.761  0.6898 -1.3372  0.6649
 2368TIP3   OH2 7109   4.171   2.605   4.965  0.2816  0.3300 -0.1327
 2368TIP3    H1 7110   4.133   2.688   4.935 -1.0764 -0.4146 -0.5491
 2368TIP3    H2 7111   4.112   2.576   5.034 -0.5873 -1.4082 -1.5417
 2369TIP3   OH2 7112   3.927   4.556   1.421 -0.1505 -0.1098 -0.2722
 2369TIP3    H1 7113   3.861   4.606   1.469 -0.3046  1.4409 -1.9901
 2369TIP3    H2 7114   4.007   4.564   1.474 -0.8891 -0.5709  0.9590
 2370TIP3   OH2 7115   4.182   0.255   0.921  0.1876  0.3919  0.3333
 2370TIP3    H1 7116   4.208   0.201   0.996 -0.1853  2.3258  1.9670
 2370TIP3    H2 7117   4.265   0.273   0.876  0.3607 -1.1786 -0.0298
 2371TIP3   OH2 7118   0.331   4.942   2.554  0.5408  0.4263  0.0402
 2371TIP3    H1 7119   0.300   4.897   2.632  0.3752  0.3102 -0.0925
 2371TIP3    H2 7120   0.418   4.974   2.578 -0.0475  1.5975  0.7505
 2372TIP3   OH2 7121   0.326   4.673   2.719  0.7028  0.4677 -0.0894
 2372TIP3    H1 7122   0.411   4.702   2.753  1.2809  0.6416 -1.5541
 2372TIP3    H2 7123   0.347   4.590   2.674 -0.3707 -0.7390  1.5164
 2373TIP3   OH2 7124   4.050   1.590   2.277  0.5476  0.2632  0.3380
 2373TIP3    H1 7125   4.108   1.540   2.334  0.7047 -0.0708 -0.1061
 2373TIP3    H2 7126   4.021   1.664   2.330  2.1474  0.9743  0.2804
 2374TIP3   OH2 7127   0.441   5.845   3.818 -0.4532  0.0414  0.1948
 2374TIP3    H1 7128   0.431   5.777   3.752 -3.3453  0.6419 -0.1114
 2374TIP3    H2 7129   0.495   5.805   3.886 -0.2282 -1.7597 -0.9734
 2375TIP3   OH2 7130   3.920   2.317   3.235 -0.1619  0.3630 -0.3819
 2375TIP3    H1 7131   3.903   2.232   3.193  0.1716  0.2340 -0.2596
 2375TIP3    H2 7132   3.873   2.312   3.319 -1.1025  0.7460 -0.8658
 2376TIP3   OH2 7133   3.059   2.802   4.875 -0.0595 -0.2508 -0.3011
 2376TIP3    H1 7134   2.967   2.788   4.854 -0.5539  0.9056  0.9984
 2376TIP3    H2 7135   3.059   2.849   4.958  1.7309 -1.2448  0.3386
 2377TIP3   OH2 7136   1.530   1.236   4.522 -0.3770  0.3163  0.7189
 2377TIP3    H1 7137   1.564   1.148   4.538 -0.0365  0.8328  3.1251
 2377TIP3    H2 7138   1.451   1.221   4.470 -0.1566 -1.3785  0.7995
 2378TIP3   OH2 7139   1.612   5.175   1.361 -0.3531 -0.0334 -0.4374
 2378TIP3    H1 7140   1.571   5.111   1.304  1.7215 -1.3306 -0.5793
 2378TIP3    H2 7141   1.663   5.231   1.302 -0.1908  0.2093 -0.0726
 2379TIP3   OH2 7142   3.485   0.243   3.632 -0.3905 -0.1694 -0.2879
 2379TIP3    H1 7143   3.466   0.337   3.629  0.7095  0.0434 -0.9192
 2379TIP3    H2 7144   3.432   0.211   3.706 -1.7173  0.7108 -0.8020
 2380TIP3   OH2 7145   0.692   2.072   0.528  0.2430  0.0926  0.1484
 2380TIP3    H1 7146   0.774   2.055   0.574  1.5207 -0.4808 -2.1920
 2380TIP3    H2 7147   0.629   2.012   0.569  1.1054  0.1665  1.6368
 2381TIP3   OH2 7148   2.624   0.602   4.926 -0.0931  0.1483 -0.0360
 2381TIP3    H1 7149   2.711   0.618   4.963  0.0553 -0.5568 -0.0553
 2381TIP3    H2 7150   2.575   0.561   4.998  0.2116 -1.2823 -0.6173
 2382TIP3   OH2 7151   0.008   3.442   3.231  1.0606 -0.6248  0.3137
 2382TIP3    H1 7152  -0.061   3.453   3.165 -0.2992 -2.2515  1.3781
 2382TIP3    H2 7153   0.078   3.500   3.202  0.2562 -0.7849 -2.1916
 2383TIP3   OH2 7154   6.320   3.036   0.202  0.0867  0.1462 -0.1877
 2383TIP3    H1 7155   6.232   3.045   0.168 -0.6158 -1.1451  1.1763
 2383TIP3    H2 7156   6.316   2.961   0.261  1.7679  0.8853  0.9571
 2384TIP3   OH2 7157   1.018   2.583   4.048  0.1566  0.2037 -0.0136
 2384TIP3    H1 7158   0.954   2.631   3.996  2.3452  1.9737 -1.2267
 2384TIP3    H2 7159   1.062   2.650   4.100 -0.8243 -1.3087  3.0337
 2385TIP3   OH2 7160   2.385   0.335   1.463  0.1829  0.1658  0.6331
 2385TIP3    H1 7161   2.324   0.409   1.457 -0.3951 -0.2931  0.7012
 2385TIP3    H2 7162   2.468   0.374   1.489  0.0941  0.8847 -0.1294
 2386TIP3   OH2 7163   1.305   3.969   1.538  0.1749  0.6005  0.2112
 2386TIP3    H1 7164   1.269   3.995   1.623 -2.9776  0.7629 -1.0201
 2386TIP3    H2 7165   1.325   3.876   1.548 -2.0192  0.1202  0.6493
 2387TIP3   OH2 7166   5.801   3.169   2.403  0.1898  0.0623  0.2481
 2387TIP3    H1 7167   5.842   3.235   2.347  0.0038  0.2448  0.3264
 2387TIP3    H2 7168   5.729   3.135   2.351 -0.8962  1.2682  0.9194
 2388TIP3   OH2 7169   4.139   2.896   3.646 -0.4991 -0.3500  0.4706
 2388TIP3    H1 7170   4.194   2.854   3.580  0.3791 -0.5581  1.3094
 2388TIP3    H2 7171   4.164   2.988   3.644 -1.7120 -0.0098 -0.6686
 2389TIP3   OH2 7172   4.997   1.265   1.940 -0.3111  0.2722 -0.0005
 2389TIP3    H1 7173   5.025   1.331   1.877 -2.0889  2.1517  1.0630
 2389TIP3    H2 7174   4.936   1.210   1.892  0.1111  0.2443 -0.5180
 2390TIP3   OH2 7175   1.108   2.690   1.430 -0.1128  0.1332 -0.1729
 2390TIP3    H1 7176   1.177   2.725   1.372 -0.3234 -0.4619 -0.7996
 2390TIP3    H2 7177   1.155   2.660   1.508  0.2235  0.6148 -0.1869
 2391TIP3   OH2 7178   3.574   2.980   0.423  0.6223 -0.0380 -0.1848
 2391TIP3    H1 7179   3.613   2.973   0.510  0.7724  2.4896  0.0233
 2391TIP3    H2 7180   3.483   3.005   0.439  1.0887  2.1993 -0.7001
 2392TIP3   OH2 7181   5.858   5.960   0.531  0.4726  0.0459 -0.4320
 2392TIP3    H1 7182   5.855   5.866   0.513  0.9906 -0.4094  1.5895
 2392TIP3    H2 7183   5.792   5.973   0.599 -0.1929  1.3200 -1.2960
 2393TIP3   OH2 7184   5.567   3.177   0.915 -0.1456 -0.2557 -0.2370
 2393TIP3    H1 7185   5.512   3.099   0.925  1.2429 -1.2363  0.0221
 2393TIP3    H2 7186   5.509   3.250   0.935 -0.6731 -1.4050  2.8891
 2394TIP3   OH2 7187   5.260   0.960   1.038  0.3209 -0.4590  0.2127
 2394TIP3    H1 7188   5.346   0.996   1.057  0.4729 -1.4097  1.4731
 2394TIP3    H2 7189   5.252   0.885   1.097 -2.0804  0.6549  1.4753
 2395TIP3   OH2 7190   4.381   1.182   4.398 -0.0914  0.5003 -0.2349
 2395TIP3    H1 7191   4.397   1.091   4.423 -1.9374 -0.9336 -3.5730
 2395TIP3    H2 7192   4.438   1.196   4.322 -1.7596  1.1921 -1.3995
 2396TIP3   OH2 7193   5.487   4.694   4.528 -0.1462  0.2554 -0.6650
 2396TIP3    H1 7194   5.528   4.741   4.455 -1.0661 -1.0312 -2.0965
 2396TIP3    H2 7195   5.536   4.611   4.532 -1.2353 -0.4273 -1.0326
 2397TIP3   OH2 7196   2.618   1.975   2.978  0.3303 -0.2090  0.2994
 2397TIP3    H1 7197   2.561   1.980   2.901  2.0446  1.6035 -0.9611
 2397TIP3    H2 7198   2.636   1.881   2.988 -0.8827 -0.5919 -0.7494
 2398TIP3   OH2 7199   3.061   2.046   4.720 -0.2041  0.4350  0.4444
 2398TIP3    H1 7200   3.081   2.128   4.764  0.5453  0.4338  0.1210
 2398TIP3    H2 7201   3.132   1.987   4.745 -0.2852  0.1462  0.0053
 2399TIP3   OH2 7202   1.977   1.354   4.592  0.7902 -0.3720  0.0961
 2399TIP3    H1 7203   2.052   1.363   4.534  2.8763 -0.6280  2.5500
 2399TIP3    H2 7204   1.943   1.443   4.601  1.3050 -0.1139 -0.4482
 2400TIP3   OH2 7205   0.444   3.711   0.358 -0.1181 -0.3858 -0.2884
 2400TIP3    H1 7206   0.504   3.785   0.367 -0.8815  0.0247  1.9694
 2400TIP3    H2 7207   0.479   3.643   0.416  0.7271 -1.9947 -2.5309
 2401TIP3   OH2 7208   3.376   4.666   5.035 -0.4455 -0.1857 -0.7294
 2401TIP3    H1 7209   3.377   4.608   4.959  2.6786 -0.9464 -0.2515
 2401TIP3    H2 7210   3.467   4.693   5.046 -1.2364  2.0389  1.1859
 2402TIP3   OH2 7211   0.442   1.251   1.724 -0.7398  0.4117 -0.7219
 2402TIP3    H1 7212   0.361   1.266   1.675  0.8732  2.5491 -2.9352
 2402TIP3    H2 7213   0.498   1.325   1.701  1.9366 -1.0838  0.6011
 2403TIP3   OH2 7214   2.661   4.220   2.971  0.4272 -0.2701 -0.5608
 2403TIP3    H1 7215   2.628   4.268   2.895  2.6534  0.6014 -1.0632
 2403TIP3    H2 7216   2.605   4.143   2.977 -0.8442  0.4706 -2.0608
 2404TIP3   OH2 7217   1.421   4.899   0.790 -0.1925 -0.1948 -0.1581
 2404TIP3    H1 7218   1.343   4.852   0.760 -1.1057  0.4615  1.0520
 2404TIP3    H2 7219   1.386   4.966   0.849  1.3799 -0.6009  1.3089
 2405TIP3   OH2 7220   2.994   3.866   4.149  0.0455 -0.6847 -0.4423
 2405TIP3    H1 7221   2.913   3.837   4.108  0.2582  0.5504 -1.8046
 2405TIP3    H2 7222   3.060   3.860   4.081  0.4774  1.1050 -0.2349
 2406TIP3   OH2 7223   5.958   2.512   0.263 -0.3489 -0.0684 -0.1801
 2406TIP3    H1 7224   6.037   2.479   0.306  0.0227  2.6289  1.4881
 2406TIP3    H2 7225   5.920   2.573   0.327 -1.1471  2.3082 -2.7074
 2407TIP3   OH2 7226   3.740   5.406   0.142 -0.0785  0.1695  0.0850
 2407TIP3    H1 7227   3.665   5.457   0.173  0.4915  0.8346  0.4062
 2407TIP3    H2 7228   3.816   5.459   0.165  0.4032  0.6314 -2.3140
 2408TIP3   OH2 7229   5.783   1.895   0.502 -0.5417  0.1570  0.4398
 2408TIP3    H1 7230   5.853   1.897   0.436  1.0358 -0.0095  2.0539
 2408TIP3    H2 7231   5.771   1.987   0.526 -0.7360  0.1652  0.3124
 2409TIP3   OH2 7232   2.581   0.061   2.579  0.1547  0.8115 -0.0968
 2409TIP3    H1 7233   2.614   0.151   2.581  1.2175  0.4305  0.7167
 2409TIP3    H2 7234   2.548   0.046   2.668 -0.6453  0.6118 -0.4203
 2410TIP3   OH2 7235   3.310   3.685   5.109 -0.0568 -0.0585  0.3038
 2410TIP3    H1 7236   3.314   3.591   5.130  0.5301  0.1272  1.0791
 2410TIP3    H2 7237   3.362   3.693   5.029  0.1376 -0.3515  0.3967
 2411TIP3   OH2 7238   1.800   4.178   4.374 -0.0709 -0.3076  0.6285
 2411TIP3    H1 7239   1.778   4.243   4.308  1.0370 -0.7963 -0.2540
 2411TIP3    H2 7240   1.717   4.133   4.392 -0.2937 -0.5677 -0.8845
 2412TIP3   OH2 7241   3.363   3.417   5.150  0.5313 -0.0322 -0.1999
 2412TIP3    H1 7242   3.344   3.378   5.235 -0.4478 -0.5766 -0.6506
 2412TIP3    H2 7243   3.390   3.344   5.095  0.9365  0.2824 -0.4291
 2413TIP3   OH2 7244   0.936   1.035   0.945 -0.6138 -0.4324 -0.1592
 2413TIP3    H1 7245   1.023   1.055   0.912 -0.6548  0.6317  0.3392
 2413TIP3    H2 7246   0.878   1.097   0.900 -0.8643  0.0353  0.7847
 2414TIP3   OH2 7247   1.355   4.546   4.775 -0.5719  0.4360  0.1946
 2414TIP3    H1 7248   1.358   4.478   4.843  1.0738 -1.1438 -1.3467
 2414TIP3    H2 7249   1.269   4.587   4.786 -2.0716 -2.5542  0.6532
 2415TIP3   OH2 7250   5.760   2.398   3.403  0.4965  0.0595 -0.2983
 2415TIP3    H1 7251   5.791   2.317   3.363  0.2304  0.1880 -0.7710
 2415TIP3    H2 7252   5.764   2.381   3.497  1.1021 -0.2559 -0.3740
 2416TIP3   OH2 7253   0.243   2.373   2.949 -0.2164  0.1414 -0.0343
 2416TIP3    H1 7254   0.208   2.369   2.860  1.1018  0.4122 -0.5840
 2416TIP3    H2 7255   0.224   2.463   2.977  0.7282  0.5379 -0.6312
 2417TIP3   OH2 7256   3.885   2.158   0.972  0.3770  0.8246  0.1073
 2417TIP3    H1 7257   3.846   2.127   1.053 -0.2142  0.7178 -0.2091
 2417TIP3    H2 7258   3.848   2.102   0.904 -0.3647  1.9022 -0.4172
 2418TIP3   OH2 7259   6.111   2.065   3.982 -0.3821  0.8765  0.3386
 2418TIP3    H1 7260   6.060   2.058   4.062 -0.2199  0.1571  0.3876
 2418TIP3    H2 7261   6.194   2.106   4.009  0.7389 -1.6542  1.0740
 2419TIP3   OH2 7262   2.971   1.780   0.395  0.1179  0.2674  0.2780
 2419TIP3    H1 7263   3.039   1.832   0.438 -0.9810 -0.3984  3.0535
 2419TIP3    H2 7264   2.940   1.720   0.463 -2.1711 -0.5236 -1.3291
 2420TIP3   OH2 7265   5.352   3.479   1.480  0.0660  0.1808 -0.2596
 2420TIP3    H1 7266   5.400   3.422   1.420 -0.0270 -0.0643 -0.1038
 2420TIP3    H2 7267   5.343   3.562   1.433  1.3696  0.5062  0.0388
 2421TIP3   OH2 7268   3.355   5.150   0.404  0.0222 -0.6574  0.6752
 2421TIP3    H1 7269   3.345   5.186   0.492  0.2008  0.1883  0.3602
 2421TIP3    H2 7270   3.445   5.170   0.380 -0.0344 -0.8547  0.2887
 2422TIP3   OH2 7271   4.384   1.197   1.140  0.6103  0.0195 -0.1074
 2422TIP3    H1 7272   4.440   1.214   1.216 -0.4281 -0.8672  0.8940
 2422TIP3    H2 7273   4.297   1.227   1.167  0.1053 -0.8407 -0.7232
 2423TIP3   OH2 7274   1.877   0.365   2.139  0.4892  0.4862  0.4023
 2423TIP3    H1 7275   1.883   0.270   2.142  1.2295  0.4076 -1.8599
 2423TIP3    H2 7276   1.805   0.384   2.080  0.1648  1.3569  1.0426
 2424TIP3   OH2 7277   2.133   3.379   4.754 -0.3334  0.0211 -0.2094
 2424TIP3    H1 7278   2.143   3.453   4.813  2.2805 -0.3968 -0.0340
 2424TIP3    H2 7279   2.184   3.308   4.794 -0.1815 -0.9020 -1.9233
 2425TIP3   OH2 7280   5.652   5.548   3.951  0.0834 -0.0408 -0.1413
 2425TIP3    H1 7281   5.643   5.626   4.005  0.3809 -0.6872  0.8795
 2425TIP3    H2 7282   5.577   5.551   3.892  0.2358  1.1432 -0.2992
 2426TIP3   OH2 7283   4.228   0.370   1.803  0.4276  0.2561 -0.0704
 2426TIP3    H1 7284   4.159   0.421   1.761  0.2147 -0.5612 -0.7420
 2426TIP3    H2 7285   4.205   0.279   1.785  0.8908 -0.0806  0.9596
 2427TIP3   OH2 7286   3.750   5.646   0.496 -0.5740 -0.0146 -0.1417
 2427TIP3    H1 7287   3.724   5.738   0.493 -0.1444  0.1898  1.5603
 2427TIP3    H2 7288   3.758   5.626   0.589 -0.3085 -1.6857 -0.4924
 2428TIP3   OH2 7289   4.451   3.534   4.914 -0.7159 -0.0730  0.4944
 2428TIP3    H1 7290   4.394   3.554   4.988 -0.3098  0.2979  0.7107
 2428TIP3    H2 7291   4.437   3.441   4.898 -0.3991 -0.2839  1.3873
 2429TIP3   OH2 7292   5.468   3.848   0.189  0.0056 -0.1884  0.0341
 2429TIP3    H1 7293   5.511   3.814   0.110  1.4237 -1.4798  1.2898
 2429TIP3    H2 7294   5.419   3.923   0.159  0.0463 -0.9788 -2.1853
 2430TIP3   OH2 7295   5.891   2.163   4.442 -0.2643  0.5452 -0.2089
 2430TIP3    H1 7296   5.941   2.193   4.366  3.2523 -1.8716  0.8664
 2430TIP3    H2 7297   5.934   2.204   4.517 -0.5481 -0.7508  0.7031
 2431TIP3   OH2 7298   6.066   3.962   0.041 -0.0446 -0.3891  0.3063
 2431TIP3    H1 7299   6.093   3.927   0.126 -0.5683 -1.4896  0.0395
 2431TIP3    H2 7300   6.124   3.918  -0.022  1.5937  1.7782  0.2013
 2432TIP3   OH2 7301   3.354   3.360   1.579 -0.0299 -0.3439 -0.2859
 2432TIP3    H1 7302   3.319   3.436   1.626  1.7135  0.9359 -0.9414
 2432TIP3    H2 7303   3.430   3.333   1.630 -0.7425 -1.8166  0.0401
 2433TIP3   OH2 7304   0.338   4.546   1.116 -0.1568 -0.1608  0.3879
 2433TIP3    H1 7305   0.281   4.590   1.054  0.7642 -0.4864 -0.7195
 2433TIP3    H2 7306   0.389   4.484   1.064  0.9197 -0.1754  1.3908
 2434TIP3   OH2 7307   1.304   5.695   1.948  0.4588  0.1630 -0.3742
 2434TIP3    H1 7308   1.225   5.653   1.915 -0.0767 -0.3334  1.3965
 2434TIP3    H2 7309   1.373   5.629   1.937 -0.0369 -0.5994  0.8678
 2435TIP3   OH2 7310   5.181   0.138   3.674  0.2113 -0.1766  1.3714
 2435TIP3    H1 7311   5.113   0.079   3.641  0.9121 -1.0739  1.4754
 2435TIP3    H2 7312   5.258   0.117   3.622  1.1577 -1.1486  3.0715
 2436TIP3   OH2 7313   2.200   2.141   2.924  0.1166 -0.3158  0.4510
 2436TIP3    H1 7314   2.109   2.122   2.900 -0.0000 -1.1128  1.4560
 2436TIP3    H2 7315   2.206   2.236   2.922 -0.4018 -0.2966 -0.8247
 2437TIP3   OH2 7316   4.143   0.146   0.245 -0.0832  0.0689  0.0898
 2437TIP3    H1 7317   4.113   0.113   0.330 -2.2855 -0.8439 -0.9402
 2437TIP3    H2 7318   4.093   0.227   0.231 -0.5475 -0.3366 -0.7416
 2438TIP3   OH2 7319   4.669   4.732   1.272  0.0751  0.3095  0.0208
 2438TIP3    H1 7320   4.611   4.797   1.232  0.4323  0.6313  0.0125
 2438TIP3    H2 7321   4.687   4.768   1.359  0.0754  0.0946  0.1081
 2439TIP3   OH2 7322   0.009   4.865   0.250 -0.1956 -0.0254  0.0205
 2439TIP3    H1 7323   0.020   4.888   0.158 -3.9298 -1.3624 -0.9360
 2439TIP3    H2 7324  -0.020   4.945   0.293 -1.4949 -0.0997 -0.6891
 2440TIP3   OH2 7325   1.559   0.333   2.631 -0.1725 -1.0072 -0.3013
 2440TIP3    H1 7326   1.626   0.295   2.689 -1.2253 -0.9834  0.9663
 2440TIP3    H2 7327   1.602   0.339   2.546  1.5606 -0.6944  0.5490
 2441TIP3   OH2 7328   2.593   3.735   2.992 -0.5817  0.1361 -0.0840
 2441TIP3    H1 7329   2.680   3.729   3.031  0.2110  1.5930 -1.5142
 2441TIP3    H2 7330   2.605   3.704   2.902 -1.4849  0.5678 -0.3670
 2442TIP3   OH2 7331   5.224   4.286   5.093  0.8181  0.2824  0.2909
 2442TIP3    H1 7332   5.177   4.207   5.120 -0.5569  1.2396  0.8881
 2442TIP3    H2 7333   5.269   4.262   5.013  0.8559 -1.2408  0.7360
 2443TIP3   OH2 7334   6.212   5.525   1.942 -0.0748 -0.1225 -0.2208
 2443TIP3    H1 7335   6.210   5.616   1.971  1.4406 -0.9476  2.8023
 2443TIP3    H2 7336   6.301   5.496   1.958 -1.1753 -2.8907  1.5681
 2444TIP3   OH2 7337   4.795   0.212   4.646 -0.2338 -0.0417 -0.1872
 2444TIP3    H1 7338   4.823   0.183   4.560  1.1003 -0.1924  0.2697
 2444TIP3    H2 7339   4.877   0.223   4.696 -0.9732 -0.0560  1.0826
 2445TIP3   OH2 7340   0.462   1.036   4.920 -0.0060 -0.5264 -0.3184
 2445TIP3    H1 7341   0.487   0.965   4.862  0.9938  0.6810 -1.4432
 2445TIP3    H2 7342   0.460   0.997   5.007 -0.3481 -2.1106 -1.0025
 2446TIP3   OH2 7343   5.288   4.518   0.985 -0.3968 -0.1094 -0.5322
 2446TIP3    H1 7344   5.294   4.488   1.076  2.3047  1.9605  0.0982
 2446TIP3    H2 7345   5.204   4.564   0.981 -0.4348  0.0001  0.9876
 2447TIP3   OH2 7346   4.629   1.778   0.322 -0.2596 -0.2087 -0.4007
 2447TIP3    H1 7347   4.555   1.784   0.262  0.2895  0.4230 -1.0331
 2447TIP3    H2 7348   4.608   1.839   0.393 -0.6147 -0.4801 -0.2707
 2448TIP3   OH2 7349   3.276   1.736   3.265 -0.7358 -0.1057 -0.2385
 2448TIP3    H1 7350   3.347   1.729   3.201  0.9110 -0.2076  1.5115
 2448TIP3    H2 7351   3.270   1.830   3.285  0.0692 -0.2685  0.8314
 2449TIP3   OH2 7352   3.687   1.582   0.705  0.4388 -0.1017  0.2217
 2449TIP3    H1 7353   3.630   1.586   0.629 -0.0179  0.0912  0.5697
 2449TIP3    H2 7354   3.717   1.672   0.718 -0.1730  0.0301  0.7808
 2450TIP3   OH2 7355   2.325   4.703   2.030 -0.0044 -0.1820  0.8653
 2450TIP3    H1 7356   2.257   4.638   2.015  0.3950 -0.6633  1.1201
 2450TIP3    H2 7357   2.309   4.770   1.963 -1.9248  0.7239  2.1563
 2451TIP3   OH2 7358   4.182   1.006   4.278  0.1485  0.5456  0.1359
 2451TIP3    H1 7359   4.251   1.025   4.214 -0.6771  0.1899 -0.8872
 2451TIP3    H2 7360   4.174   1.087   4.328  1.3608  0.5650  0.3364
 2452TIP3   OH2 7361   5.618   2.613   4.836  0.1545 -0.2535  0.7714
 2452TIP3    H1 7362   5.673   2.557   4.781 -0.7044  0.7048 -1.1705
 2452TIP3    H2 7363   5.659   2.610   4.922  1.9617 -1.2999 -0.0711
 2453TIP3   OH2 7364   5.074   5.190   3.201 -0.3090  0.3823  0.2885
 2453TIP3    H1 7365   5.103   5.199   3.292 -0.6599 -0.0917  0.4496
 2453TIP3    H2 7366   5.145   5.229   3.150  1.1199 -1.6346  0.6125
 2454TIP3   OH2 7367   6.202   0.304   2.839  0.7660  0.1394  0.3472
 2454TIP3    H1 7368   6.227   0.384   2.793 -1.3906  0.2544 -0.7563
 2454TIP3    H2 7369   6.175   0.334   2.926 -0.8185  0.7846 -0.3256
 2455TIP3   OH2 7370   4.957   2.658   0.609  0.4627 -0.1599  0.2555
 2455TIP3    H1 7371   4.957   2.719   0.682 -0.7271  1.2586 -0.8858
 2455TIP3    H2 7372   4.918   2.706   0.536  0.1621 -2.0399 -0.9023
 2456TIP3   OH2 7373   0.501   3.905   2.091 -0.2160 -0.3453 -0.6749
 2456TIP3    H1 7374   0.423   3.960   2.096  0.2973  0.3037  0.5743
 2456TIP3    H2 7375   0.566   3.959   2.046  0.9694  0.9882  2.4218
 2457TIP3   OH2 7376   2.931   0.817   0.034  0.3871 -0.4499  0.0409
 2457TIP3    H1 7377   2.954   0.741  -0.020 -3.4729 -0.8375 -1.4306
 2457TIP3    H2 7378   2.893   0.780   0.113 -1.0643 -0.1203 -0.4688
 2458TIP3   OH2 7379   5.884   0.026   4.840  0.3014  0.3142 -0.4187
 2458TIP3    H1 7380   5.953   0.025   4.774  0.8265 -2.6506  0.0357
 2458TIP3    H2 7381   5.930   0.047   4.922  0.2896  0.3787 -0.4285
 2459TIP3   OH2 7382   3.987   0.783   3.269 -0.5412 -0.4113 -0.2491
 2459TIP3    H1 7383   3.923   0.791   3.199  0.1949  1.4902 -0.7577
 2459TIP3    H2 7384   4.071   0.782   3.225 -0.1073 -0.0362  0.5545
 2460TIP3   OH2 7385   5.672   2.009   4.454  0.0355 -0.0944 -0.1860
 2460TIP3    H1 7386   5.753   2.055   4.431 -0.3026  1.1175  0.9293
 2460TIP3    H2 7387   5.686   1.979   4.543 -1.2323  1.3206  0.5278
 2461TIP3   OH2 7388   5.015   0.061   2.907  0.3222  0.0062  0.2735
 2461TIP3    H1 7389   4.952   0.016   2.963 -1.1842  0.2596 -1.1458
 2461TIP3    H2 7390   5.000   0.154   2.924 -0.5505  0.1035 -0.9357
 2462TIP3   OH2 7391   6.366   3.141   4.649 -0.5623 -0.0229 -0.2156
 2462TIP3    H1 7392   6.295   3.090   4.610 -1.5118  1.2804 -0.2527
 2462TIP3    H2 7393   6.355   3.229   4.614  2.7930 -0.2960 -2.4849
 2463TIP3   OH2 7394   2.909   0.348   1.033 -0.3919  0.1670 -0.8267
 2463TIP3    H1 7395   2.999   0.338   1.002 -0.5594 -1.6258 -0.8049
 2463TIP3    H2 7396   2.860   0.282   0.985 -1.7694  1.2701 -1.0025
 2464TIP3   OH2 7397   2.445   1.621   2.606  0.1306  0.5868  0.4347
 2464TIP3    H1 7398   2.421   1.537   2.566 -2.7556  0.0431  2.9311
 2464TIP3    H2 7399   2.362   1.668   2.612  1.2064  2.4192  1.7878
 2465TIP3   OH2 7400   1.297   1.619   2.189 -0.3621 -0.0067  0.4690
 2465TIP3    H1 7401   1.366   1.563   2.225 -0.0909  0.2441  0.3492
 2465TIP3    H2 7402   1.322   1.708   2.217 -1.4744 -0.0665  1.7668
 2466TIP3   OH2 7403   5.154   2.525   0.735  0.0976 -0.1199 -0.3777
 2466TIP3    H1 7404   5.074   2.547   0.687 -0.8869 -2.1695  0.2161
 2466TIP3    H2 7405   5.158   2.590   0.806 -0.4714  0.6355 -1.0192
 2467TIP3   OH2 7406   5.750   0.080   2.679 -0.0720 -0.6475  0.3104
 2467TIP3    H1 7407   5.688   0.022   2.724  0.1479 -1.2777 -0.1815
 2467TIP3    H2 7408   5.772   0.146   2.744 -2.6999  0.7357 -0.0549
 2468TIP3   OH2 7409   4.461   4.108   1.943  0.2072  0.1428 -0.6868
 2468TIP3    H1 7410   4.552   4.094   1.917  0.8338  1.0381  0.8824
 2468TIP3    H2 7411   4.410   4.053   1.884  1.7494 -0.2242 -1.7268
 2469TIP3   OH2 7412   1.946   1.098   0.553 -0.2185  0.5817  0.0532
 2469TIP3    H1 7413   1.938   1.189   0.581  1.2144  1.1307 -1.1769
 2469TIP3    H2 7414   1.985   1.053   0.628 -0.8112  0.9936  0.6205
 2470TIP3   OH2 7415   1.276   0.103   0.095 -0.4313 -0.3325 -0.0675
 2470TIP3    H1 7416   1.271   0.044   0.171 -1.0502 -0.8674 -0.5163
 2470TIP3    H2 7417   1.220   0.177   0.118 -0.4526 -0.3930  0.0778
 2471TIP3   OH2 7418   5.061   4.444   3.364  0.1654 -0.0511 -0.0108
 2471TIP3    H1 7419   5.054   4.446   3.269  0.0166  0.4830  0.0055
 2471TIP3    H2 7420   5.067   4.536   3.389 -0.5026 -0.1519  0.5468
 2472TIP3   OH2 7421   3.717  -0.027   0.314 -0.6582 -0.0650  0.2243
 2472TIP3    H1 7422   3.730   0.059   0.273 -1.1910 -0.6641 -1.2829
 2472TIP3    H2 7423   3.679  -0.007   0.399  1.5540  1.2837  0.9857
 2473TIP3   OH2 7424   2.971   1.127   2.621 -0.0367 -0.5444 -0.1690
 2473TIP3    H1 7425   2.953   1.211   2.579 -0.9118 -1.3274 -1.4500
 2473TIP3    H2 7426   3.066   1.119   2.620  0.0001 -0.2401 -1.4845
 2474TIP3   OH2 7427   1.045   1.723   2.520  0.3011  0.2785  0.0296
 2474TIP3    H1 7428   1.013   1.812   2.537  2.0199  1.7072 -3.2332
 2474TIP3    H2 7429   0.966   1.673   2.499 -0.7586  0.7589  2.5154
 2475TIP3   OH2 7430   2.004   4.042   1.979 -0.2992 -0.7314 -0.1007
 2475TIP3    H1 7431   1.936   4.068   2.041  0.4485 -0.0037  0.4267
 2475TIP3    H2 7432   2.029   3.954   2.006 -1.1237 -1.0763 -0.3983
 2476TIP3   OH2 7433   5.611   4.642   2.095 -0.3591 -0.1025  0.3270
 2476TIP3    H1 7434   5.581   4.557   2.128  0.0728 -0.5799 -0.4836
 2476TIP3    H2 7435   5.703   4.646   2.123 -0.9151  1.0334  2.1708
 2477TIP3   OH2 7436   2.976   4.208   3.907  0.4327  0.0747  0.1925
 2477TIP3    H1 7437   2.974   4.132   3.850 -1.8834  1.0398 -1.1351
 2477TIP3    H2 7438   3.043   4.265   3.869 -0.7753  0.5057 -1.3626
 2478TIP3   OH2 7439   4.404   1.632   3.085  0.1287  0.4564  0.2759
 2478TIP3    H1 7440   4.446   1.559   3.040  1.4658  1.4283 -0.1056
 2478TIP3    H2 7441   4.357   1.679   3.017 -1.3649 -0.4013  0.6373
 2479TIP3   OH2 7442   5.113   5.974   4.292 -0.1617 -0.4253 -0.5152
 2479TIP3    H1 7443   5.126   5.948   4.201  0.6987 -0.5028 -0.3743
 2479TIP3    H2 7444   5.147   5.901   4.344  1.3087  0.5074 -0.1201
 2480TIP3   OH2 7445   3.322   5.268   4.598 -0.4589  0.1979  0.5192
 2480TIP3    H1 7446   3.405   5.242   4.557 -1.2547  0.0932 -1.1212
 2480TIP3    H2 7447   3.342   5.351   4.642  0.4417  0.3481 -0.1403
 2481TIP3   OH2 7448   4.332   1.176   3.758  0.4860  0.3067 -0.2086
 2481TIP3    H1 7449   4.281   1.121   3.818  0.4739  0.7359  0.1783
 2481TIP3    H2 7450   4.368   1.245   3.814  4.8892 -2.1370  0.4745
 2482TIP3   OH2 7451   4.609   1.307   1.677  0.6065 -0.2313  0.0407
 2482TIP3    H1 7452   4.665   1.330   1.603 -0.3508 -1.4671 -1.1191
 2482TIP3    H2 7453   4.652   1.231   1.717  1.3883  0.7355  1.1031
 2483TIP3   OH2 7454   0.693   2.717   4.260 -0.0519 -0.1644 -0.1116
 2483TIP3    H1 7455   0.668   2.713   4.168 -0.2203 -1.2486 -0.0362
 2483TIP3    H2 7456   0.635   2.783   4.298  0.2782  0.5658 -0.8551
 2484TIP3   OH2 7457   2.164   0.561   4.989 -0.7745  0.1945 -0.7724
 2484TIP3    H1 7458   2.233   0.610   4.946  0.0609  2.3999  2.7111
 2484TIP3    H2 7459   2.192   0.469   4.982  1.0573  0.7821 -1.7417
 2485TIP3   OH2 7460   2.141   5.928   3.818 -0.5497 -0.4877  0.4969
 2485TIP3    H1 7461   2.170   5.957   3.904  0.5830  1.8493 -0.5792
 2485TIP3    H2 7462   2.221   5.902   3.773 -0.6867  1.1251 -0.7873
 2486TIP3   OH2 7463   6.158   3.614   0.151 -0.3529  0.8062  0.5046
 2486TIP3    H1 7464   6.236   3.652   0.191  0.0539  0.8334 -0.2893
 2486TIP3    H2 7465   6.189   3.530   0.115 -0.7198  0.7697  0.2781
 2487TIP3   OH2 7466   1.242   3.379   3.920 -0.0236  0.1601  0.1573
 2487TIP3    H1 7467   1.312   3.444   3.922 -0.4075  0.6811 -1.4693
 2487TIP3    H2 7468   1.196   3.396   3.838 -1.1696 -1.1073  0.4925
 2488TIP3   OH2 7469   4.426   5.499   1.297 -0.3777  0.0189  0.3215
 2488TIP3    H1 7470   4.384   5.496   1.211  1.8936 -0.7343 -0.8696
 2488TIP3    H2 7471   4.458   5.410   1.310  0.6009  0.4859  1.2484
 2489TIP3   OH2 7472   5.978   0.268   1.179  0.1483 -0.4498 -0.2464
 2489TIP3    H1 7473   5.893   0.306   1.155  0.6027  0.6327 -0.1645
 2489TIP3    H2 7474   6.005   0.317   1.256  0.7817 -0.9176 -0.1644
 2490TIP3   OH2 7475   5.366   5.931   3.338 -0.0850  0.4976 -0.2599
 2490TIP3    H1 7476   5.397   5.890   3.419  0.8208  0.5312 -0.5818
 2490TIP3    H2 7477   5.381   5.865   3.270 -0.1742  0.7441 -0.5200
 2491TIP3   OH2 7478   0.486   3.317   0.736 -0.2918 -0.5147 -0.3966
 2491TIP3    H1 7479   0.467   3.322   0.829  1.8404  0.8382  0.0280
 2491TIP3    H2 7480   0.554   3.249   0.729 -0.7661 -0.9404 -1.0509
 2492TIP3   OH2 7481   4.214   3.551   0.116 -0.1465 -0.1872  0.1715
 2492TIP3    H1 7482   4.168   3.635   0.114 -1.4036 -0.7934  1.5076
 2492TIP3    H2 7483   4.274   3.554   0.041 -0.1378  1.8915  0.2154
 2493TIP3   OH2 7484   1.783   4.622   2.502 -0.0352  0.5952 -0.2825
 2493TIP3    H1 7485   1.742   4.633   2.588 -0.1986  1.1250 -0.4262
 2493TIP3    H2 7486   1.793   4.711   2.468  0.4329  0.4177 -0.6261
 2494TIP3   OH2 7487   3.587   3.616   1.395  0.1558  0.4586 -0.4019
 2494TIP3    H1 7488   3.678   3.613   1.364  1.0310 -0.3165  1.9676
 2494TIP3    H2 7489   3.578   3.702   1.435 -0.2923  0.6564 -0.9105
 2495TIP3   OH2 7490   3.510   1.655   3.794  0.3436  0.4196 -0.2429
 2495TIP3    H1 7491   3.552   1.725   3.845  1.3229  0.5350 -1.1696
 2495TIP3    H2 7492   3.582   1.600   3.766 -0.4964 -1.6142  1.3425
 2496TIP3   OH2 7493   2.683   5.383   1.714 -0.4159  0.4501 -0.2020
 2496TIP3    H1 7494   2.754   5.420   1.766 -1.3493  0.8892  0.7971
 2496TIP3    H2 7495   2.685   5.289   1.735 -0.4460  0.5386  0.1996
 2497TIP3   OH2 7496   0.538   3.166   2.792  0.2092  0.4390 -0.1060
 2497TIP3    H1 7497   0.561   3.090   2.739  1.0598  1.7747 -1.7293
 2497TIP3    H2 7498   0.620   3.191   2.835 -0.1407  0.2776  0.6817
 2498TIP3   OH2 7499   6.179   3.775   3.168 -0.3969 -1.1793 -0.1933
 2498TIP3    H1 7500   6.242   3.705   3.184  0.5212 -0.2878  0.2035
 2498TIP3    H2 7501   6.207   3.816   3.086 -1.0821 -1.4195 -0.5622
 2499TIP3   OH2 7502   1.328   1.033   4.654 -0.0638 -0.2110 -0.2947
 2499TIP3    H1 7503   1.318   0.981   4.574  0.5472 -0.5974 -0.1245
 2499TIP3    H2 7504   1.248   1.086   4.658 -0.7252 -1.1679 -0.4439
 2500TIP3   OH2 7505   1.335   1.848   1.904 -0.0815  0.5421  0.1462
 2500TIP3    H1 7506   1.249   1.887   1.924 -0.5573 -0.7384  0.6941
 2500TIP3    H2 7507   1.385   1.858   1.985  0.1498  0.9409 -0.0473
 2501TIP3   OH2 7508   4.677   0.670   1.942 -0.2387  0.7987 -0.1770
 2501TIP3    H1 7509   4.673   0.575   1.955 -2.0592  1.0433  1.3848
 2501TIP3    H2 7510   4.734   0.680   1.866  0.3836 -1.5124 -0.1090
 2502TIP3   OH2 7511   5.623   0.829   0.711 -0.1854  0.3520 -0.3779
 2502TIP3    H1 7512   5.548   0.886   0.699 -1.0995 -0.7781 -0.1776
 2502TIP3    H2 7513   5.600   0.773   0.786  1.8175  1.5116  1.2262
 2503TIP3   OH2 7514   1.134   3.682   1.994 -0.2263 -0.1450  0.6058
 2503TIP3    H1 7515   1.119   3.728   2.077 -1.4737  0.0569  0.2798
 2503TIP3    H2 7516   1.103   3.593   2.010  0.0417 -0.2552  0.5191
 2504TIP3   OH2 7517   3.890   4.761   3.434  0.7344  0.5227 -0.2680
 2504TIP3    H1 7518   3.909   4.835   3.492  1.1666 -0.3952  0.7811
 2504TIP3    H2 7519   3.835   4.799   3.365  0.6265  1.7413  0.4584
 2505TIP3   OH2 7520   5.123   0.770   3.116 -0.1320 -1.2766  0.6189
 2505TIP3    H1 7521   5.136   0.864   3.103  2.5417 -1.1997  2.9649
 2505TIP3    H2 7522   5.047   0.764   3.173  0.0668 -0.4989  0.9796
 2506TIP3   OH2 7523   4.975   2.363   4.146  0.3020  0.2320  0.3500
 2506TIP3    H1 7524   4.901   2.404   4.191 -0.4299 -0.2004 -0.4141
 2506TIP3    H2 7525   5.042   2.431   4.143 -1.0334  1.5942 -1.2545
 2507TIP3   OH2 7526   2.838   0.032   2.382  0.4682  0.6070 -0.4307
 2507TIP3    H1 7527   2.890   0.080   2.446  0.3496  0.7618 -0.4481
 2507TIP3    H2 7528   2.754   0.079   2.380 -0.4586 -0.8413  1.1338
 2508TIP3   OH2 7529   1.642   2.080   2.084 -0.2274  0.3131 -0.0439
 2508TIP3    H1 7530   1.599   1.994   2.093  0.2021  0.0178 -0.6835
 2508TIP3    H2 7531   1.597   2.120   2.009  0.4367  0.0998 -0.5682
 2509TIP3   OH2 7532   4.482   2.626   0.249 -0.3207 -0.2854 -0.1916
 2509TIP3    H1 7533   4.411   2.687   0.269  0.5530  0.3138  1.2709
 2509TIP3    H2 7534   4.440   2.540   0.249 -0.8369 -0.0924  2.1109
 2510TIP3   OH2 7535   2.197   2.743   3.959  0.0945 -0.1235  0.3363
 2510TIP3    H1 7536   2.136   2.749   4.033  0.5998 -1.0439  0.8414
 2510TIP3    H2 7537   2.140   2.732   3.883 -0.4065  0.0840  0.6694
 2511TIP3   OH2 7538   5.817   3.855   1.923  0.1670 -0.3384 -0.5061
 2511TIP3    H1 7539   5.868   3.822   1.849 -0.1145 -1.0724 -0.3735
 2511TIP3    H2 7540   5.747   3.907   1.881  0.2994 -0.3405 -0.7337
 2512TIP3   OH2 7541   2.214   4.635   2.825 -0.1803  0.2540 -0.2714
 2512TIP3    H1 7542   2.129   4.680   2.831  0.1063  0.6170  1.5926
 2512TIP3    H2 7543   2.198   4.550   2.865 -0.0847 -0.3719 -1.5236
 2513TIP3   OH2 7544   2.226   0.614   0.852  0.5051 -0.5024 -0.1885
 2513TIP3    H1 7545   2.298   0.670   0.822  0.1160  0.1165  0.0120
 2513TIP3    H2 7546   2.239   0.605   0.946 -1.6492  2.6362  0.5714
 2514TIP3   OH2 7547   3.289   3.740   3.258 -0.0874  0.1400  0.2134
 2514TIP3    H1 7548   3.301   3.748   3.353 -1.4781 -1.8067  0.6143
 2514TIP3    H2 7549   3.195   3.752   3.245 -0.0122 -0.3034 -0.8383
 2515TIP3   OH2 7550   2.750   5.644   3.087 -0.0511 -0.5123 -0.0591
 2515TIP3    H1 7551   2.794   5.563   3.061 -1.1445 -0.8017 -1.1049
 2515TIP3    H2 7552   2.679   5.616   3.144 -0.3875 -0.3002 -0.3667
 2516TIP3   OH2 7553   0.144   4.233   4.131 -0.7330  0.1484  0.1619
 2516TIP3    H1 7554   0.082   4.239   4.058 -0.4942  1.7462  0.0568
 2516TIP3    H2 7555   0.198   4.157   4.111 -1.4856 -0.1818 -0.6708
 2517TIP3   OH2 7556   3.691   4.362   1.127  0.5617  0.3208 -0.4475
 2517TIP3    H1 7557   3.749   4.320   1.064 -0.8194 -0.8955 -0.9502
 2517TIP3    H2 7558   3.603   4.330   1.105 -0.0350  0.2826  1.7315
 2518TIP3   OH2 7559   4.328   5.468   5.078 -0.3975  0.0366 -0.0578
 2518TIP3    H1 7560   4.325   5.460   5.174  0.3088 -1.1141 -0.1064
 2518TIP3    H2 7561   4.238   5.488   5.053 -0.8687 -0.9313  0.7669
 2519TIP3   OH2 7562   5.473   4.230   1.485 -0.2399  0.3234 -0.4472
 2519TIP3    H1 7563   5.518   4.152   1.454  1.8190 -0.0105  2.8609
 2519TIP3    H2 7564   5.434   4.204   1.569 -2.1046  2.1078 -0.6623
 2520TIP3   OH2 7565   5.083   5.264   4.997 -0.7517  0.2056  0.4878
 2520TIP3    H1 7566   5.169   5.235   5.027 -0.7269  0.0368  0.2597
 2520TIP3    H2 7567   5.021   5.225   5.059 -0.4985  3.1848  2.8431
 2521TIP3   OH2 7568   2.604   4.565   3.504 -0.2677 -0.2820  0.0826
 2521TIP3    H1 7569   2.664   4.634   3.477 -0.1779  0.0875  1.1615
 2521TIP3    H2 7570   2.653   4.484   3.491  0.0335 -0.0616 -0.1571
 2522TIP3   OH2 7571   1.400   4.098   0.193  0.3337  0.8907  0.1196
 2522TIP3    H1 7572   1.350   4.144   0.261 -0.4416  0.6404 -0.2779
 2522TIP3    H2 7573   1.462   4.044   0.242  1.0506  2.1083  0.6023
 2523TIP3   OH2 7574   2.752   1.105   2.412 -0.0878 -0.3658  0.4909
 2523TIP3    H1 7575   2.811   1.108   2.487 -1.5594  1.4449  1.6593
 2523TIP3    H2 7576   2.675   1.154   2.440 -1.4994 -1.2934 -1.5412
 2524TIP3   OH2 7577   2.812   5.531   4.989  0.1455 -0.2040  0.0177
 2524TIP3    H1 7578   2.815   5.472   4.914  2.3712  0.1134 -0.2091
 2524TIP3    H2 7579   2.760   5.606   4.959 -2.1035 -1.6278  0.0783
 2525TIP3   OH2 7580   1.274   3.511   3.660 -0.2756 -0.1450  0.3986
 2525TIP3    H1 7581   1.194   3.502   3.607  1.0043  0.2405 -1.7172
 2525TIP3    H2 7582   1.296   3.604   3.653 -0.3512  0.0409  2.1292
 2526TIP3   OH2 7583   6.106   2.482   1.429 -0.0746  0.4158  0.4416
 2526TIP3    H1 7584   6.015   2.511   1.420 -0.3037 -0.2499  0.5264
 2526TIP3    H2 7585   6.099   2.392   1.459  0.6182  0.3052  0.2850
 2527TIP3   OH2 7586   3.593   0.566   4.551 -0.7563 -0.6438  0.1487
 2527TIP3    H1 7587   3.607   0.660   4.539  1.0317 -0.4365  2.9158
 2527TIP3    H2 7588   3.575   0.533   4.463 -0.2650  2.0951 -1.0903
 2528TIP3   OH2 7589   3.485   4.365   0.426 -0.0241 -0.3212 -0.1335
 2528TIP3    H1 7590   3.402   4.360   0.379  1.1549  0.9912 -2.5845
 2528TIP3    H2 7591   3.535   4.289   0.396  0.8570  0.6922 -1.3290
 2529TIP3   OH2 7592   4.324   3.428   1.899 -0.0712 -0.2423  0.1380
 2529TIP3    H1 7593   4.317   3.521   1.879 -1.1854 -0.3361  0.0481
 2529TIP3    H2 7594   4.264   3.385   1.838 -0.3455 -0.9177  0.8559
 2530TIP3   OH2 7595   3.282   0.049   3.445  0.5870 -0.1501  0.3620
 2530TIP3    H1 7596   3.363   0.036   3.494  0.5307 -0.3936  0.3933
 2530TIP3    H2 7597   3.235  -0.034   3.454  1.5919 -1.0535 -2.0258
 2531TIP3   OH2 7598   5.887   3.473   1.477  0.3629 -0.1962 -0.8057
 2531TIP3    H1 7599   5.808   3.467   1.530  1.9955 -2.0260  1.6407
 2531TIP3    H2 7600   5.875   3.552   1.425 -2.9313 -0.2921 -0.3865
 2532TIP3   OH2 7601   0.235   1.368   5.155  0.4209 -0.2114  0.4800
 2532TIP3    H1 7602   0.234   1.303   5.225  1.8761  0.8707  1.5667
 2532TIP3    H2 7603   0.315   1.349   5.105 -0.2754 -0.5763 -0.5272
 2533TIP3   OH2 7604   4.108   3.505   4.015 -0.1422 -0.1162  0.1379
 2533TIP3    H1 7605   4.148   3.427   3.977  2.0430  1.7605 -1.7412
 2533TIP3    H2 7606   4.165   3.577   3.987 -1.2956  2.0444  2.8619
 2534TIP3   OH2 7607   2.043   5.574   4.007 -0.0049 -0.7204  0.0000
 2534TIP3    H1 7608   1.957   5.607   3.984  0.3858 -1.0542 -2.1583
 2534TIP3    H2 7609   2.026   5.499   4.065 -1.1078 -0.2872  0.2496
 2535TIP3   OH2 7610   5.144   4.703   0.072 -0.0792 -0.1329 -0.2048
 2535TIP3    H1 7611   5.237   4.691   0.093 -0.1934 -0.3713  0.1725
 2535TIP3    H2 7612   5.129   4.645  -0.002 -0.2000 -0.9910  0.4723
 2536TIP3   OH2 7613   0.180   2.284   3.831 -0.4236 -0.4914 -0.3091
 2536TIP3    H1 7614   0.145   2.247   3.913 -1.6861 -2.5363 -1.6756
 2536TIP3    H2 7615   0.274   2.285   3.844 -0.5851 -0.9644  1.1137
 2537TIP3   OH2 7616   5.079   0.049   5.005  0.2939 -0.4335  0.2156
 2537TIP3    H1 7617   5.172   0.052   5.030 -0.2183  0.3267  2.1848
 2537TIP3    H2 7618   5.043   0.132   5.034 -1.1579 -0.9733  0.0621
 2538TIP3   OH2 7619   2.222   3.657   0.859 -0.2853  0.7487  0.0375
 2538TIP3    H1 7620   2.302   3.608   0.878 -1.8106 -1.2699  1.7805
 2538TIP3    H2 7621   2.168   3.595   0.809 -1.5760  1.2603  0.7461
 2539TIP3   OH2 7622   2.163   0.752   2.550  0.0231  0.1431  0.2681
 2539TIP3    H1 7623   2.248   0.710   2.542  0.1095  0.5874 -1.3822
 2539TIP3    H2 7624   2.175   0.815   2.621  0.3906 -1.3343  1.5741
 2540TIP3   OH2 7625   6.144  -0.035   2.159  0.2229  0.7685  0.3082
 2540TIP3    H1 7626   6.209   0.032   2.180  0.4733  0.9681 -1.0325
 2540TIP3    H2 7627   6.066   0.014   2.134 -0.2036  0.5315  1.1378
 2541TIP3   OH2 7628   0.526   1.265   3.650 -0.2079  0.4324  0.7057
 2541TIP3    H1 7629   0.434   1.264   3.624 -0.6171 -1.4827  2.0812
 2541TIP3    H2 7630   0.570   1.212   3.584 -0.4521 -0.3889  1.1910
 2542TIP3   OH2 7631   2.861   3.279   3.536  0.2601  0.1849 -0.2510
 2542TIP3    H1 7632   2.935   3.217   3.531  0.1702 -0.1460  1.7204
 2542TIP3    H2 7633   2.882   3.334   3.611 -0.4253  1.5828 -1.0591
 2543TIP3   OH2 7634   2.349   4.278   3.534  0.1631 -0.8034 -0.1935
 2543TIP3    H1 7635   2.282   4.327   3.583  1.3227  0.6045  0.0476
 2543TIP3    H2 7636   2.301   4.204   3.497 -1.5594  0.1778 -0.0645
 2544TIP3   OH2 7637   4.122   3.291   0.109  0.2995  0.4513 -0.3733
 2544TIP3    H1 7638   4.164   3.375   0.123  0.7714 -0.0454  1.3074
 2544TIP3    H2 7639   4.042   3.313   0.061 -0.0646  1.9783  0.8449
 2545TIP3   OH2 7640   6.310   1.777   1.528 -0.2383  0.1202 -0.3536
 2545TIP3    H1 7641   6.398   1.779   1.565  0.0448  1.3157 -1.0752
 2545TIP3    H2 7642   6.253   1.788   1.604  0.2227 -0.5626  0.1048
 2546TIP3   OH2 7643   3.555   0.736   4.892 -0.6621  0.1486  0.5167
 2546TIP3    H1 7644   3.496   0.662   4.903 -1.1704  0.4188 -0.3098
 2546TIP3    H2 7645   3.643   0.698   4.904 -0.7280 -1.1672 -2.3298
 2547TIP3   OH2 7646   3.732   2.562   2.666  0.4308  0.0247 -0.1061
 2547TIP3    H1 7647   3.719   2.648   2.706  1.8091  0.0862  0.2550
 2547TIP3    H2 7648   3.719   2.499   2.737 -0.5863 -0.0794 -0.3721
 2548TIP3   OH2 7649   1.546   0.622   3.449 -0.0853 -0.1602 -0.8304
 2548TIP3    H1 7650   1.488   0.547   3.436 -1.0314  0.0912  1.3522
 2548TIP3    H2 7651   1.606   0.593   3.518 -0.1066  0.8652 -0.3650
 2549TIP3   OH2 7652   4.401   1.137   4.120 -0.4658 -0.2161 -0.1516
 2549TIP3    H1 7653   4.415   1.206   4.055 -0.6143 -0.2538 -0.2233
 2549TIP3    H2 7654   4.460   1.066   4.093  0.4071  0.2531  0.4699
 2550TIP3   OH2 7655   4.769   1.138   0.826  0.1398  0.6344 -0.4626
 2550TIP3    H1 7656   4.706   1.194   0.781  0.4413  2.0158  0.7913
 2550TIP3    H2 7657   4.722   1.104   0.902 -0.0290 -0.8439 -1.1777
 2551TIP3   OH2 7658   3.180   4.183   2.720  0.2653  0.0336  0.1883
 2551TIP3    H1 7659   3.268   4.147   2.707  0.5082  0.1728  1.4032
 2551TIP3    H2 7660   3.183   4.225   2.805 -1.3563 -1.1215  0.8718
 2552TIP3   OH2 7661   4.473   5.936   5.056 -0.2912  0.4162  0.1623
 2552TIP3    H1 7662   4.514   5.865   5.104 -0.7832 -0.2752 -0.4009
 2552TIP3    H2 7663   4.541   6.002   5.046  0.3065 -0.1698  0.3224
 2553TIP3   OH2 7664   3.251   0.082   3.776 -0.2021  0.3903  0.0721
 2553TIP3    H1 7665   3.298   0.018   3.723  1.7583  2.3417 -0.7274
 2553TIP3    H2 7666   3.292   0.077   3.862 -0.4025  0.2333  0.1600
 2554TIP3   OH2 7667   6.095   1.382   0.408  0.4262 -0.5672 -0.3971
 2554TIP3    H1 7668   6.003   1.357   0.411  0.7046 -2.1621 -2.4871
 2554TIP3    H2 7669   6.132   1.344   0.488 -0.0520 -3.2634 -1.3577
 2555TIP3   OH2 7670   2.517   2.543   1.376  0.2778 -0.1529 -0.7942
 2555TIP3    H1 7671   2.527   2.472   1.439  0.1193  1.1084  0.6982
 2555TIP3    H2 7672   2.423   2.559   1.372  0.3601  0.4152 -0.5954
 2556TIP3   OH2 7673   5.388   1.867   0.518  0.0425 -0.5082 -0.1941
 2556TIP3    H1 7674   5.402   1.885   0.611  1.2325 -0.0338 -0.4468
 2556TIP3    H2 7675   5.419   1.946   0.473 -3.5683  0.7099 -0.8752
 2557TIP3   OH2 7676   0.004   0.864   0.090  0.4022  0.9309  0.0950
 2557TIP3    H1 7677   0.075   0.829   0.036  1.7168  1.3747  1.4547
 2557TIP3    H2 7678  -0.029   0.939   0.040  3.2223  2.8725  0.8758
 2558TIP3   OH2 7679   5.311   5.231   2.070  0.6306 -0.1326  0.2215
 2558TIP3    H1 7680   5.235   5.204   2.121  0.6249 -0.5624 -0.0074
 2558TIP3    H2 7681   5.365   5.152   2.065  0.1658 -0.3932 -1.2679
 2559TIP3   OH2 7682   5.612   5.201   0.960 -0.4439  0.1803  0.9642
 2559TIP3    H1 7683   5.565   5.236   1.036 -0.7556  1.3131  0.2645
 2559TIP3    H2 7684   5.552   5.214   0.886  0.8629  1.5132  0.0827
 2560TIP3   OH2 7685   4.806   3.247   1.899 -0.6497  0.0010 -0.2683
 2560TIP3    H1 7686   4.815   3.151   1.902 -1.1971 -0.0455  0.0316
 2560TIP3    H2 7687   4.731   3.265   1.955 -1.5480  0.4677 -1.5859
 2561TIP3   OH2 7688   0.982   1.067   0.263  0.1704  0.0207 -0.6930
 2561TIP3    H1 7689   0.900   1.044   0.308  0.7482 -0.2487  0.2547
 2561TIP3    H2 7690   1.010   0.986   0.221  0.5413 -0.2050 -0.0357
 2562TIP3   OH2 7691   4.289   0.309   1.495  0.1690 -0.0245  0.2126
 2562TIP3    H1 7692   4.239   0.257   1.432  1.2417 -0.9411  0.0941
 2562TIP3    H2 7693   4.340   0.370   1.441  0.6845 -0.4500  0.2110
 2563TIP3   OH2 7694   6.012   3.910   3.331  0.2087 -0.3263 -0.3050
 2563TIP3    H1 7695   6.052   3.860   3.260  0.4420  2.3284 -2.2156
 2563TIP3    H2 7696   6.085   3.937   3.386  0.4523  0.2874 -0.9155
 2564TIP3   OH2 7697   5.272   2.102   2.480 -0.2630  0.1559 -0.1771
 2564TIP3    H1 7698   5.356   2.092   2.524 -0.5396  0.2479  0.3788
 2564TIP3    H2 7699   5.285   2.062   2.394  0.6601  1.0694 -0.4894
 2565TIP3   OH2 7700   0.851   0.858   2.839  0.0899 -0.1509 -0.5545
 2565TIP3    H1 7701   0.862   0.782   2.781  0.6483 -1.4461  1.1536
 2565TIP3    H2 7702   0.935   0.905   2.832  0.4390 -0.7148 -0.2395
 2566TIP3   OH2 7703   0.048   2.160   4.835 -0.3121  0.4962 -0.3920
 2566TIP3    H1 7704   0.048   2.080   4.888  0.3593  0.9104  0.2501
 2566TIP3    H2 7705   0.104   2.221   4.883  0.8896  0.6629 -1.9076
 2567TIP3   OH2 7706   2.308   0.562   3.127  0.1151  0.0603 -0.3640
 2567TIP3    H1 7707   2.284   0.618   3.054 -0.1186  0.2176 -0.1687
 2567TIP3    H2 7708   2.385   0.603   3.165 -1.1821  1.3829  0.9950
 2568TIP3   OH2 7709   5.750   0.696   2.493 -0.5575 -0.5371  0.3108
 2568TIP3    H1 7710   5.696   0.744   2.430  1.0811  0.3731 -0.4440
 2568TIP3    H2 7711   5.696   0.621   2.517 -2.9672  1.2998  1.0729
 2569TIP3   OH2 7712   3.799   5.681   5.087  0.0536  0.0125  0.5517
 2569TIP3    H1 7713   3.744   5.686   5.009  0.3743  0.7074  0.3571
 2569TIP3    H2 7714   3.745   5.638   5.152 -0.3978 -0.1230  0.0900
 2570TIP3   OH2 7715   5.059   1.477   3.827 -0.5353  0.9685  0.1196
 2570TIP3    H1 7716   5.005   1.548   3.792 -2.0362  0.3079  1.0070
 2570TIP3    H2 7717   5.086   1.510   3.914 -1.1629  0.5033  0.4963
 2571TIP3   OH2 7718   1.637   4.467   4.194  0.2502 -0.5012 -0.6703
 2571TIP3    H1 7719   1.631   4.540   4.133 -2.3540 -0.4752 -0.5050
 2571TIP3    H2 7720   1.646   4.389   4.139 -2.1332 -0.4839 -1.1928
 2572TIP3   OH2 7721   0.012   3.618   0.797 -0.5462  0.2352 -0.1450
 2572TIP3    H1 7722  -0.037   3.700   0.795  0.0530  0.6798  1.7787
 2572TIP3    H2 7723   0.103   3.644   0.780  0.1024  0.4310  3.0311
 2573TIP3   OH2 7724   0.288   2.013   3.498  0.3102  0.6276  0.1984
 2573TIP3    H1 7725   0.379   2.017   3.528 -0.1007  0.0281  1.6143
 2573TIP3    H2 7726   0.285   1.936   3.442  0.9090  1.2784 -0.7563
 2574TIP3   OH2 7727   3.934   1.767   4.164  0.4370 -0.5620 -0.1034
 2574TIP3    H1 7728   4.020   1.797   4.194 -0.1108 -0.7074  1.8018
 2574TIP3    H2 7729   3.872   1.829   4.203 -0.4251 -1.6111  0.2828
 2575TIP3   OH2 7730   0.386   2.539   0.991  0.2030  0.9266 -0.1710
 2575TIP3    H1 7731   0.401   2.631   0.969  1.3895  0.5461 -1.0540
 2575TIP3    H2 7732   0.297   2.537   1.026  0.3538  2.4915  0.3729
 2576TIP3   OH2 7733   4.418   0.820   2.550  0.3055  0.0059  0.1431
 2576TIP3    H1 7734   4.489   0.799   2.612  1.2149  0.5526 -0.6787
 2576TIP3    H2 7735   4.345   0.847   2.605  0.1564 -2.1115  1.0987
 2577TIP3   OH2 7736   5.309   2.230   0.393 -0.6887  0.2684 -0.0098
 2577TIP3    H1 7737   5.269   2.314   0.414 -1.4415  0.0201 -0.4344
 2577TIP3    H2 7738   5.402   2.243   0.411 -0.9357  0.8875  0.8671
 2578TIP3   OH2 7739   0.051   5.011   4.478  0.5115 -0.4228  0.3741
 2578TIP3    H1 7740  -0.007   5.079   4.446  1.2916  0.2917  0.4535
 2578TIP3    H2 7741   0.068   4.955   4.401  1.0581  0.3388 -0.0729
 2579TIP3   OH2 7742   1.689   0.600   1.970  0.0401  0.3394 -0.4883
 2579TIP3    H1 7743   1.623   0.659   1.933 -1.9027 -0.4253  1.5562
 2579TIP3    H2 7744   1.764   0.656   1.987 -0.7057  1.6216 -1.2549
 2580TIP3   OH2 7745   4.345   4.340   5.173 -0.1764  0.1621  0.5527
 2580TIP3    H1 7746   4.353   4.258   5.221  0.6099 -0.5080 -0.6482
 2580TIP3    H2 7747   4.257   4.337   5.135 -0.5657  0.4087  1.4042
 2581TIP3   OH2 7748   2.026   4.807   2.659 -0.3753 -0.0402 -0.2477
 2581TIP3    H1 7749   1.972   4.793   2.737 -0.8468 -0.8360 -0.6993
 2581TIP3    H2 7750   1.963   4.822   2.588  0.0188 -0.0373 -0.6041
 2582TIP3   OH2 7751   5.113   4.406   1.233  0.3350 -0.0488  0.2773
 2582TIP3    H1 7752   5.189   4.458   1.259  2.4610 -2.1615 -1.2779
 2582TIP3    H2 7753   5.038   4.463   1.250  2.2972  2.5076  1.0302
 2583TIP3   OH2 7754   3.120   5.509   3.560  0.0389 -0.7842 -0.1489
 2583TIP3    H1 7755   3.099   5.558   3.639  0.3332 -0.2048 -0.4270
 2583TIP3    H2 7756   3.034   5.490   3.520 -0.1015 -0.9500  0.2227
 2584TIP3   OH2 7757   0.384   2.977   2.345 -0.1800  0.0583  0.0976
 2584TIP3    H1 7758   0.453   2.993   2.281  1.2062  0.6167  1.6592
 2584TIP3    H2 7759   0.307   3.022   2.309  0.5256  0.2612 -1.2135
 2585TIP3   OH2 7760   4.667   5.677   0.232 -0.4356  0.9033  0.0046
 2585TIP3    H1 7761   4.677   5.762   0.275 -0.6568 -0.3050  2.6403
 2585TIP3    H2 7762   4.727   5.619   0.278 -1.1962 -0.6663 -0.8828
 2586TIP3   OH2 7763   3.507   2.444   4.643 -0.5723 -0.8129  0.1424
 2586TIP3    H1 7764   3.491   2.480   4.556 -2.8030  0.5205  1.0033
 2586TIP3    H2 7765   3.583   2.493   4.676 -0.1234 -0.8643 -0.7829
 2587TIP3   OH2 7766   0.611   2.365   0.013  1.1542 -0.5966  0.0459
 2587TIP3    H1 7767   0.543   2.409   0.064  0.6063 -1.6114  0.2137
 2587TIP3    H2 7768   0.623   2.420  -0.064 -0.5050 -0.8558 -0.4404
 2588TIP3   OH2 7769   4.385   5.666   0.877 -0.7777  0.3178  0.5375
 2588TIP3    H1 7770   4.475   5.697   0.889 -0.9230  0.2475  1.9883
 2588TIP3    H2 7771   4.332   5.745   0.883 -0.7531  0.6155 -1.9695
 2589TIP3   OH2 7772   1.183   2.384   0.168  0.1500 -0.1426 -0.0157
 2589TIP3    H1 7773   1.179   2.392   0.264  1.9310 -1.6745  0.2435
 2589TIP3    H2 7774   1.164   2.292   0.151 -1.3980  0.3588 -1.2943
 2590TIP3   OH2 7775   0.375   4.858   2.032  0.5231  0.0612  0.7351
 2590TIP3    H1 7776   0.343   4.937   1.989  0.5818 -0.7650 -0.8830
 2590TIP3    H2 7777   0.308   4.837   2.097 -1.0096 -0.2383 -0.8894
 2591TIP3   OH2 7778   1.906   2.876   1.383 -0.6282 -0.1577 -0.2550
 2591TIP3    H1 7779   1.890   2.805   1.445  2.5128  2.0986  3.5524
 2591TIP3    H2 7780   1.990   2.855   1.343  0.4201  1.3387  1.0370
 2592TIP3   OH2 7781   4.702   4.618   3.523 -0.1591 -0.0070 -0.0075
 2592TIP3    H1 7782   4.745   4.688   3.573  1.1263 -0.0276 -1.0290
 2592TIP3    H2 7783   4.743   4.537   3.554  0.9146  0.0095 -1.2992
 2593TIP3   OH2 7784   4.641   3.948   4.657 -0.2747 -0.1119  0.0328
 2593TIP3    H1 7785   4.594   3.867   4.674  0.5985 -0.7262 -0.4286
 2593TIP3    H2 7786   4.733   3.925   4.665  0.1153  0.1991 -2.6211
 2594TIP3   OH2 7787   0.768   1.567   0.142  0.1412 -0.2080  0.2088
 2594TIP3    H1 7788   0.846   1.526   0.104  1.0118  0.3856  1.2872
 2594TIP3    H2 7789   0.795   1.592   0.231 -0.9092  1.1042  0.1873
 2595TIP3   OH2 7790   2.983   0.996   1.633 -0.2694 -0.3138  0.0668
 2595TIP3    H1 7791   2.903   1.048   1.628  1.4853  2.8228  1.6173
 2595TIP3    H2 7792   2.960   0.922   1.688 -2.1172  0.5157  0.4945
 2596TIP3   OH2 7793   2.164   5.638   1.423  0.0099  0.0524 -0.9006
 2596TIP3    H1 7794   2.070   5.637   1.408 -0.3639  1.6253  1.0185
 2596TIP3    H2 7795   2.197   5.704   1.362 -0.4262  0.9506 -0.1760
 2597TIP3   OH2 7796   4.525   2.464   4.666 -0.0495  0.4294 -0.5373
 2597TIP3    H1 7797   4.442   2.505   4.641 -0.2281 -0.7547 -2.0359
 2597TIP3    H2 7798   4.573   2.533   4.713 -2.0827  0.9545  0.8581
 2598TIP3   OH2 7799   5.509   4.971   4.698  0.2426  0.1729 -0.2595
 2598TIP3    H1 7800   5.414   4.966   4.684  0.4585 -3.2706 -1.5462
 2598TIP3    H2 7801   5.525   4.915   4.774  1.2829  0.5944 -0.1502
 2599TIP3   OH2 7802   0.958   1.998   2.241 -0.0763 -0.0074  0.1455
 2599TIP3    H1 7803   0.915   2.073   2.283  0.2580 -0.1307  0.7235
 2599TIP3    H2 7804   0.903   1.923   2.265 -1.3323  0.2357 -1.7725
 2600TIP3   OH2 7805   5.591   0.460   0.546  0.1418  0.0367 -0.4125
 2600TIP3    H1 7806   5.583   0.546   0.505 -0.3364 -0.9705 -2.5808
 2600TIP3    H2 7807   5.562   0.398   0.479 -0.4355 -1.7756  1.3981
 2601TIP3   OH2 7808   3.002   2.909   0.876  0.1441 -0.0403  0.3894
 2601TIP3    H1 7809   2.979   2.863   0.957  3.2296 -0.9518  0.9020
 2601TIP3    H2 7810   2.964   2.996   0.886  0.0442 -0.2810  2.6326
 2602TIP3   OH2 7811   1.882   1.867   1.613 -0.1076  0.4788  0.2445
 2602TIP3    H1 7812   1.802   1.846   1.661  0.2464  1.0665  1.1286
 2602TIP3    H2 7813   1.912   1.783   1.579 -0.3796  0.0373  1.0603
 2603TIP3   OH2 7814   3.059   3.123   3.431 -0.0338 -0.1480 -0.1732
 2603TIP3    H1 7815   3.103   3.200   3.467  0.1148 -0.8875  1.3283
 2603TIP3    H2 7816   3.126   3.079   3.378  0.5425 -0.3428  0.6882
 2604TIP3   OH2 7817   3.101   4.550   4.636  0.7162  0.3351 -0.3390
 2604TIP3    H1 7818   3.103   4.527   4.729  1.1268 -0.4220 -0.5309
 2604TIP3    H2 7819   3.075   4.643   4.635  0.3779  0.2593  0.5080
 2605TIP3   OH2 7820   6.222   0.697   3.150 -0.4418  0.2825 -0.1718
 2605TIP3    H1 7821   6.204   0.741   3.067  1.4932 -0.8765 -1.2676
 2605TIP3    H2 7822   6.278   0.758   3.198 -0.6779  0.4941 -0.1613
 2606TIP3   OH2 7823   3.806   0.066   4.113  0.2841 -0.0430  0.4910
 2606TIP3    H1 7824   3.825   0.146   4.162  0.7819  0.2780 -0.2018
 2606TIP3    H2 7825   3.741   0.093   4.048  0.4820 -0.1805  0.2304
 2607TIP3   OH2 7826   2.236   5.403   2.801 -0.0026 -0.1562  0.1356
 2607TIP3    H1 7827   2.157   5.425   2.851 -0.2704 -1.3741  0.2595
 2607TIP3    H2 7828   2.306   5.402   2.866 -0.2793 -1.3254  0.4260
 2608TIP3   OH2 7829   6.264   3.858   2.421 -0.2072  1.0124 -0.1638
 2608TIP3    H1 7830   6.291   3.775   2.460 -2.5998  0.9432  1.5874
 2608TIP3    H2 7831   6.346   3.904   2.401  1.1807 -0.1109  2.5251
 2609TIP3   OH2 7832   4.377   4.258   3.261  0.3789 -0.1418 -0.0962
 2609TIP3    H1 7833   4.317   4.278   3.333  0.5798  2.1591 -0.4815
 2609TIP3    H2 7834   4.464   4.267   3.300  0.4782  0.0163 -0.3500
 2610TIP3   OH2 7835   4.438   4.901   1.313 -0.6519  0.9739  0.5310
 2610TIP3    H1 7836   4.363   4.882   1.256  0.9525  0.3544 -1.5066
 2610TIP3    H2 7837   4.424   4.847   1.391 -1.0329 -1.2135 -0.9740
 2611TIP3   OH2 7838   2.364   5.537   1.621 -0.1363  1.0465  0.1104
 2611TIP3    H1 7839   2.430   5.515   1.556  0.0573 -0.9480  0.9109
 2611TIP3    H2 7840   2.296   5.583   1.571 -0.6535 -1.6071 -1.8505
 2612TIP3   OH2 7841   1.088   4.555   4.783  0.0375 -0.9566 -0.7659
 2612TIP3    H1 7842   1.006   4.536   4.736  0.1621 -0.1430 -1.3292
 2612TIP3    H2 7843   1.060   4.601   4.863 -0.1481 -2.0034 -0.2151
 2613TIP3   OH2 7844   0.540   0.181   4.301  0.5729  0.1340  0.1327
 2613TIP3    H1 7845   0.497   0.250   4.252  1.3985  0.6916  0.1695
 2613TIP3    H2 7846   0.592   0.228   4.367  2.0677 -0.4549 -0.5891
 2614TIP3   OH2 7847   2.600   3.794   2.649  0.4854 -0.2718  0.0610
 2614TIP3    H1 7848   2.525   3.839   2.687 -1.4221 -1.4601 -2.0594
 2614TIP3    H2 7849   2.591   3.703   2.679  1.3812 -0.3385  0.1647
 2615TIP3   OH2 7850   3.837   3.425   0.641 -0.1683 -0.1266  0.8735
 2615TIP3    H1 7851   3.846   3.346   0.696 -1.0501 -0.7043  0.2221
 2615TIP3    H2 7852   3.755   3.411   0.594  0.7342  0.1861 -0.8573
 2616TIP3   OH2 7853   5.165   3.254   4.499  0.1903  0.6150 -0.6184
 2616TIP3    H1 7854   5.228   3.257   4.571  0.2651 -0.0445 -0.6485
 2616TIP3    H2 7855   5.207   3.197   4.433  0.6804  2.1935 -1.7247
 2617TIP3   OH2 7856   2.648   0.866   2.234  0.1698  0.2104  0.1456
 2617TIP3    H1 7857   2.556   0.862   2.207  0.1180 -0.3726  0.3994
 2617TIP3    H2 7858   2.671   0.959   2.227  0.1522  0.1156 -1.8868
 2618TIP3   OH2 7859   3.806   5.746   1.589  0.3220 -0.5242 -0.3478
 2618TIP3    H1 7860   3.841   5.798   1.661 -0.9479 -0.2552  0.1013
 2618TIP3    H2 7861   3.729   5.794   1.559  0.2784 -1.1247 -1.2661
 2619TIP3   OH2 7862   5.631   0.848   2.263 -0.5019 -0.0415  0.1052
 2619TIP3    H1 7863   5.638   0.931   2.215  1.0272 -1.1201 -1.6727
 2619TIP3    H2 7864   5.553   0.859   2.318 -0.7336  2.3089 -0.5742
 2620TIP3   OH2 7865   2.092   5.437   0.954  0.2484 -0.0369 -0.5317
 2620TIP3    H1 7866   2.116   5.363   1.010  2.6248 -0.0584 -1.4618
 2620TIP3    H2 7867   2.030   5.401   0.891 -0.6115 -0.5685  0.5736
 2621TIP3   OH2 7868   5.122   0.246   0.674  0.0354 -0.2541  0.7641
 2621TIP3    H1 7869   5.137   0.182   0.603  1.4495  0.3897  0.4370
 2621TIP3    H2 7870   5.132   0.331   0.632  1.8923  0.1459  1.8678
 2622TIP3   OH2 7871   3.455   4.078   1.650  0.0334  0.7490  0.0179
 2622TIP3    H1 7872   3.530   4.138   1.651 -0.2727  1.1309  0.1057
 2622TIP3    H2 7873   3.415   4.092   1.564  0.2528  0.3063 -0.1578
 2623TIP3   OH2 7874   3.542   5.682   2.289  0.1149  0.0599  0.0886
 2623TIP3    H1 7875   3.631   5.697   2.259  0.4220 -1.4147  0.1782
 2623TIP3    H2 7876   3.535   5.586   2.298 -0.7638  0.2471  2.1964
 2624TIP3   OH2 7877   5.899   4.906   4.068  0.6849 -0.0257  0.1548
 2624TIP3    H1 7878   5.876   4.851   3.993  0.8141 -0.1487  0.2064
 2624TIP3    H2 7879   5.962   4.855   4.118 -1.3773 -1.0980  1.8179
 2625TIP3   OH2 7880   2.135   0.241   1.297  0.0345  0.0211 -0.0379
 2625TIP3    H1 7881   2.201   0.244   1.227  0.8689  0.2191  0.7446
 2625TIP3    H2 7882   2.184   0.218   1.376 -0.6070  1.3812  0.8004
 2626TIP3   OH2 7883   6.028   2.212   2.645  0.6972 -0.4901  0.0525
 2626TIP3    H1 7884   5.973   2.147   2.689  0.6486 -2.1051 -2.2176
 2626TIP3    H2 7885   6.056   2.169   2.565  0.9556  2.1899 -1.4203
 2627TIP3   OH2 7886   5.667   3.956   2.193  0.0235 -0.6169 -0.4271
 2627TIP3    H1 7887   5.603   3.985   2.128 -0.3596 -0.4307  0.0295
 2627TIP3    H2 7888   5.703   4.037   2.229 -2.1134 -0.6219  1.9060
 2628TIP3   OH2 7889   4.729   3.578   4.922 -0.4042  0.0187 -0.3841
 2628TIP3    H1 7890   4.636   3.561   4.906 -0.3369 -0.2261 -0.5258
 2628TIP3    H2 7891   4.770   3.492   4.918  0.0905  0.2780 -2.1403
 2629TIP3   OH2 7892   2.548   2.352   4.221 -0.1856 -0.1037 -0.1215
 2629TIP3    H1 7893   2.603   2.329   4.147  0.2668  0.9349 -0.1203
 2629TIP3    H2 7894   2.572   2.288   4.289 -2.2875 -2.6189 -1.5466
 2630TIP3   OH2 7895   1.886   2.321   0.074  0.5579 -0.3514  0.4350
 2630TIP3    H1 7896   1.862   2.402   0.030 -1.2739 -0.8307  0.4235
 2630TIP3    H2 7897   1.930   2.269   0.007 -0.9401 -0.5110 -0.4911
 2631TIP3   OH2 7898   6.140   0.867   3.455  0.2657 -0.1384 -0.5884
 2631TIP3    H1 7899   6.105   0.848   3.542 -0.9931  0.3740 -0.9712
 2631TIP3    H2 7900   6.231   0.835   3.459 -0.3460 -1.9409  0.2783
 2632TIP3   OH2 7901   1.941   2.848   1.073  0.2465  0.1160  0.1960
 2632TIP3    H1 7902   1.995   2.823   1.148  0.2122  0.8579  0.4725
 2632TIP3    H2 7903   1.851   2.842   1.105  0.1120 -1.5785 -0.4006
 2633TIP3   OH2 7904   4.906   5.375   4.081  0.0230  0.0352  0.1337
 2633TIP3    H1 7905   4.905   5.385   3.986  2.4863 -2.0355 -0.2390
 2633TIP3    H2 7906   4.816   5.353   4.104 -0.4975 -0.0590 -1.7996
 2634TIP3   OH2 7907   1.409   4.411   2.217  0.4724  0.2539  0.1459
 2634TIP3    H1 7908   1.481   4.392   2.277  1.2865  0.9256 -0.5710
 2634TIP3    H2 7909   1.380   4.499   2.242  1.1331  0.7387 -0.7026
 2635TIP3   OH2 7910   0.481   4.730   2.426 -0.1043  0.0896 -0.2202
 2635TIP3    H1 7911   0.564   4.777   2.428  0.4321 -0.8389  0.7930
 2635TIP3    H2 7912   0.416   4.793   2.457  0.0725  1.0661 -1.7857
 2636TIP3   OH2 7913   1.989   3.698   4.775 -0.1826  0.3880 -0.0477
 2636TIP3    H1 7914   1.906   3.690   4.821  0.4560 -1.9883  0.8538
 2636TIP3    H2 7915   1.965   3.698   4.682 -1.2475  1.3045  0.2076
 2637TIP3   OH2 7916   0.920   2.436   3.009  0.0224  0.4211 -0.1005
 2637TIP3    H1 7917   0.826   2.427   3.027 -0.1469 -1.0237 -1.4973
 2637TIP3    H2 7918   0.924   2.449   2.914  1.2858 -0.5778 -0.2026
 2638TIP3   OH2 7919   2.129   3.929   4.707  0.4729 -0.7549  0.1369
 2638TIP3    H1 7920   2.089   3.968   4.629  2.2227  0.1551 -0.3478
 2638TIP3    H2 7921   2.073   3.854   4.727 -0.3554 -0.6678 -1.6397
 2639TIP3   OH2 7922   5.739   1.098   0.819 -0.1398 -0.4141  0.0426
 2639TIP3    H1 7923   5.675   1.159   0.855 -1.1757 -1.9129  0.8532
 2639TIP3    H2 7924   5.732   1.108   0.724 -1.8770 -0.8031  0.0941
 2640TIP3   OH2 7925   2.571   4.192   4.070 -0.0855  0.9187 -0.7102
 2640TIP3    H1 7926   2.505   4.124   4.088 -0.0458  0.3469 -2.5018
 2640TIP3    H2 7927   2.562   4.209   3.976  0.4379  2.8698 -0.4394
 2641TIP3   OH2 7928   2.384   2.278   0.653  0.6502  0.7280  0.2735
 2641TIP3    H1 7929   2.322   2.234   0.710  0.9632  1.1043  0.9123
 2641TIP3    H2 7930   2.434   2.336   0.711  0.3979  1.7641 -0.4987
 2642TIP3   OH2 7931   2.801   3.488   4.348 -0.7273  0.6414 -0.3168
 2642TIP3    H1 7932   2.776   3.533   4.268 -0.2110  1.2815 -0.1233
 2642TIP3    H2 7933   2.857   3.549   4.394 -0.1986 -0.1119  0.0659
 2643TIP3   OH2 7934   5.389   3.214   3.208 -0.3999 -0.7429 -0.4963
 2643TIP3    H1 7935   5.384   3.306   3.184 -0.5556 -0.2757  1.2124
 2643TIP3    H2 7936   5.299   3.183   3.202 -0.2705 -0.9715 -1.6278
 2644TIP3   OH2 7937   5.217   3.006   3.368 -0.3069  0.4177  0.1238
 2644TIP3    H1 7938   5.205   2.990   3.274 -0.1287  1.5650 -0.1115
 2644TIP3    H2 7939   5.275   3.082   3.372  0.9156 -0.5291  1.1853
 2645TIP3   OH2 7940   4.867   4.549   2.487  0.3226  0.1250  0.8095
 2645TIP3    H1 7941   4.787   4.537   2.538  1.1460 -0.4682  1.9790
 2645TIP3    H2 7942   4.910   4.624   2.527 -0.5463  1.7010 -1.0347
 2646TIP3   OH2 7943   5.775   3.956   2.736  0.1900  0.2693  0.0551
 2646TIP3    H1 7944   5.808   3.950   2.826  0.0697  0.9398  0.1533
 2646TIP3    H2 7945   5.841   3.912   2.683 -1.4317 -3.3823  0.8252
 2647TIP3   OH2 7946   1.034   4.147   2.552 -0.3227  0.0122  0.5449
 2647TIP3    H1 7947   1.023   4.176   2.462  0.1687  0.3713  0.5941
 2647TIP3    H2 7948   1.015   4.225   2.604  0.5261  0.1209  0.7018
 2648TIP3   OH2 7949   0.489   1.072   2.665 -0.7641  0.8641  0.3055
 2648TIP3    H1 7950   0.503   0.984   2.630 -0.6934  0.6735  0.8095
 2648TIP3    H2 7951   0.442   1.118   2.595 -0.0482  0.6897 -0.2989
 2649TIP3   OH2 7952   0.667   4.660   0.914 -0.2026  0.3135 -0.1564
 2649TIP3    H1 7953   0.609   4.585   0.902  0.0895  0.1464 -0.5632
 2649TIP3    H2 7954   0.641   4.722   0.847  0.7364 -0.1794 -1.0027
 2650TIP3   OH2 7955   2.365   4.959   0.860 -0.5526 -0.2254 -0.1649
 2650TIP3    H1 7956   2.440   4.903   0.842  1.5127  1.0516  3.4924
 2650TIP3    H2 7957   2.381   5.038   0.808  0.4250 -0.1486  0.2300
 2651TIP3   OH2 7958   4.831   1.098   5.007  0.1404 -0.5087  0.4325
 2651TIP3    H1 7959   4.871   1.106   4.921  0.6800  0.4544  0.7536
 2651TIP3    H2 7960   4.813   1.188   5.033 -0.7862 -0.8379  0.9777
 2652TIP3   OH2 7961   2.159   0.836   0.563  0.2310  0.3356 -0.1611
 2652TIP3    H1 7962   2.223   0.773   0.530  1.5273  1.0980  0.7869
 2652TIP3    H2 7963   2.077   0.787   0.571  1.2739 -1.3125  0.8705
 2653TIP3   OH2 7964   5.187   2.088   4.746  0.3251 -0.5446  0.1905
 2653TIP3    H1 7965   5.264   2.143   4.737  0.1252 -0.3088 -0.0870
 2653TIP3    H2 7966   5.222   1.999   4.757  0.6200 -0.5334 -0.6206
 2654TIP3   OH2 7967   4.214   3.660   2.876 -0.3230  0.3565  0.1714
 2654TIP3    H1 7968   4.300   3.628   2.847 -0.7017 -0.2133 -0.3595
 2654TIP3    H2 7969   4.219   3.755   2.866  0.1669  0.3081 -0.0798
 2655TIP3   OH2 7970   6.158   3.082   0.564 -0.2695  0.1077 -0.5070
 2655TIP3    H1 7971   6.153   3.075   0.659  1.5445 -1.0507 -0.4504
 2655TIP3    H2 7972   6.075   3.045   0.533 -0.1847 -1.0957  0.5867
 2656TIP3   OH2 7973   3.125   0.362   0.405  0.0127 -0.3792 -0.5487
 2656TIP3    H1 7974   3.203   0.350   0.459 -0.0958 -0.7371 -0.4713
 2656TIP3    H2 7975   3.109   0.457   0.407  2.4331  0.2333 -3.3086
 2657TIP3   OH2 7976   5.295   1.262   1.908  0.3597 -0.1970 -0.1513
 2657TIP3    H1 7977   5.334   1.302   1.985 -1.0642  1.3482 -0.1630
 2657TIP3    H2 7978   5.206   1.238   1.936  0.3477 -1.0575 -0.8728
 2658TIP3   OH2 7979   0.672   1.655   4.850  0.3026 -0.1003  0.5125
 2658TIP3    H1 7980   0.690   1.620   4.763  1.2657 -1.5001  1.2414
 2658TIP3    H2 7981   0.740   1.720   4.864 -1.2808  1.9752 -0.6983
 2659TIP3   OH2 7982   3.300   0.959   4.427 -0.4465  0.1550 -0.1856
 2659TIP3    H1 7983   3.275   0.980   4.517  1.6101 -3.2619  1.3534
 2659TIP3    H2 7984   3.372   1.020   4.407 -0.1623  0.2018  0.9248
 2660TIP3   OH2 7985   5.830   1.953   0.047  0.6809  0.3549 -0.3424
 2660TIP3    H1 7986   5.895   2.014   0.083  0.3461  1.5884 -1.7201
 2660TIP3    H2 7987   5.840   1.962  -0.048  0.2819 -1.4001 -0.5764
 2661TIP3   OH2 7988   3.089   4.364   0.907  0.6318  0.3649  0.0737
 2661TIP3    H1 7989   3.059   4.273   0.910  2.8333 -0.4534 -0.1146
 2661TIP3    H2 7990   3.147   4.367   0.831  0.2703  2.0658 -0.1726
 2662TIP3   OH2 7991   0.334   2.189   4.838 -1.1352 -0.1684 -0.3441
 2662TIP3    H1 7992   0.426   2.214   4.827 -0.7405 -1.6796 -0.6503
 2662TIP3    H2 7993   0.329   2.099   4.807 -2.5679 -0.3890  0.4182
 2663TIP3   OH2 7994   1.441   0.677   0.694 -0.4304  0.2576  0.3527
 2663TIP3    H1 7995   1.490   0.756   0.670 -0.7433  0.3994  0.1781
 2663TIP3    H2 7996   1.445   0.622   0.615 -0.3928  0.1882  0.4029
 2664TIP3   OH2 7997   0.731   3.813   2.620  0.1136 -0.5412  0.4001
 2664TIP3    H1 7998   0.705   3.771   2.537  1.0199  0.2965 -0.3292
 2664TIP3    H2 7999   0.726   3.907   2.602 -0.8455 -0.3173  1.6913
 2665TIP3   OH2 8000   0.719   4.467   0.385  0.3679  0.3714  0.4424
 2665TIP3    H1 8001   0.814   4.470   0.377  0.6158 -2.7573  0.6332
 2665TIP3    H2 8002   0.686   4.497   0.301  1.6044  0.2774 -0.0901
 2666TIP3   OH2 8003   0.735   2.718   3.741  0.3317  0.1967  0.3863
 2666TIP3    H1 8004   0.700   2.737   3.828  1.4672  1.1339  0.6740
 2666TIP3    H2 8005   0.829   2.707   3.755  0.9107  2.6500 -0.9910
 2667TIP3   OH2 8006   0.877   5.133   4.485 -0.4486  0.4599  0.3300
 2667TIP3    H1 8007   0.933   5.081   4.543  1.8214  0.8612 -1.3365
 2667TIP3    H2 8008   0.823   5.069   4.439 -1.0405  0.0124  1.5969
 2668TIP3   OH2 8009   1.461   1.824   2.906 -0.0916  0.3261  0.0018
 2668TIP3    H1 8010   1.553   1.800   2.916 -0.4486 -0.3312  2.2047
 2668TIP3    H2 8011   1.421   1.748   2.863  0.0602 -0.2486  0.8378
 2669TIP3   OH2 8012   3.123   2.408   3.984  0.1122  0.3040 -0.4259
 2669TIP3    H1 8013   3.177   2.446   3.914 -0.9983  2.4009 -0.2027
 2669TIP3    H2 8014   3.048   2.371   3.939  0.0060  0.5402 -0.4424
 2670TIP3   OH2 8015   2.554   0.450   0.662 -0.4283  0.4272  0.2934
 2670TIP3    H1 8016   2.495   0.374   0.662  1.6931 -1.3348  0.8893
 2670TIP3    H2 8017   2.591   0.452   0.573 -0.3056  0.6119  0.3469
 2671TIP3   OH2 8018   0.160   0.949   0.305 -0.3247 -0.0383 -0.2378
 2671TIP3    H1 8019   0.108   0.915   0.232 -0.8506  0.0620  0.0806
 2671TIP3    H2 8020   0.249   0.956   0.271 -0.3656 -0.9527 -0.5620
 2672TIP3   OH2 8021   2.163   2.653   4.518  0.0453 -1.1300  0.6585
 2672TIP3    H1 8022   2.124   2.716   4.578  1.9453  2.3584 -1.4275
 2672TIP3    H2 8023   2.257   2.660   4.533  0.3822 -2.5074 -0.5523
 2673TIP3   OH2 8024   0.950   4.697   4.968 -0.1824 -0.2380  0.4509
 2673TIP3    H1 8025   0.905   4.632   5.022 -1.6299 -0.3054 -0.7738
 2673TIP3    H2 8026   0.944   4.778   5.019 -0.3713 -0.5706  0.9694
 2674TIP3   OH2 8027   5.994   1.134   2.968  1.3271  0.2052 -0.0902
 2674TIP3    H1 8028   6.074   1.092   2.999  1.9730  0.9148 -0.7317
 2674TIP3    H2 8029   5.996   1.221   3.007 -0.1123 -0.3966  1.4103
 2675TIP3   OH2 8030   2.155   3.752   2.730  0.1659  0.1349 -0.0906
 2675TIP3    H1 8031   2.153   3.755   2.634  0.2314 -0.7866 -0.1311
 2675TIP3    H2 8032   2.238   3.794   2.754 -0.1590  0.9701 -0.3991
 2676TIP3   OH2 8033   0.371   2.885   3.178 -0.2484  0.0334  0.0305
 2676TIP3    H1 8034   0.281   2.914   3.164 -0.4811 -0.0595  1.2492
 2676TIP3    H2 8035   0.409   2.953   3.234  0.8123  0.6804 -1.4124
 2677TIP3   OH2 8036   6.059   3.966   4.436 -0.2673  0.2601  0.4192
 2677TIP3    H1 8037   6.086   4.056   4.417 -0.5953  1.1304  3.6005
 2677TIP3    H2 8038   6.140   3.916   4.437  0.0629  0.7716 -0.0668
 2678TIP3   OH2 8039   5.572   0.429   4.898  0.1637 -0.5818  0.6080
 2678TIP3    H1 8040   5.600   0.398   4.812 -0.2570  0.4112  0.0981
 2678TIP3    H2 8041   5.639   0.492   4.924  1.6524 -2.6254  2.1624
 2679TIP3   OH2 8042   0.241   0.510   2.942  0.1375  0.0576 -0.3590
 2679TIP3    H1 8043   0.235   0.556   3.026 -0.2016 -0.6145 -0.0040
 2679TIP3    H2 8044   0.332   0.522   2.915  0.3227  0.0572  0.2416
 2680TIP3   OH2 8045   0.140   2.277   2.208  0.1479 -0.5780 -0.0408
 2680TIP3    H1 8046   0.155   2.277   2.303  0.9983  0.1856 -0.1667
 2680TIP3    H2 8047   0.122   2.185   2.188 -1.3784 -0.5733  1.0393
 2681TIP3   OH2 8048   3.151   5.644   4.861  0.0441  0.0468 -0.6204
 2681TIP3    H1 8049   3.220   5.704   4.892  0.3094 -0.1652 -0.7932
 2681TIP3    H2 8050   3.078   5.660   4.920  0.8562 -1.0070  0.7398
 2682TIP3   OH2 8051   2.187   5.241   4.440  0.2244 -0.0510 -1.1646
 2682TIP3    H1 8052   2.255   5.201   4.384  0.8270 -0.2761 -0.2981
 2682TIP3    H2 8053   2.233   5.263   4.521 -0.8946 -0.9041 -0.2582
 2683TIP3   OH2 8054   2.567   1.412   4.089 -0.8499  0.0415  0.2142
 2683TIP3    H1 8055   2.593   1.376   4.174 -0.0884  0.5794  0.2126
 2683TIP3    H2 8056   2.582   1.506   4.097 -2.2102  0.3043 -0.0012
 2684TIP3   OH2 8057   3.019   5.256   1.702 -0.1589 -0.4151 -0.0383
 2684TIP3    H1 8058   2.987   5.301   1.781 -0.6954 -0.0855 -0.4348
 2684TIP3    H2 8059   2.981   5.306   1.629  2.0014  0.5693 -0.5662
 2685TIP3   OH2 8060   4.091   2.412   2.861  0.3679 -0.2640 -0.2045
 2685TIP3    H1 8061   4.024   2.476   2.886  1.2572 -0.0789  1.8809
 2685TIP3    H2 8062   4.170   2.441   2.907  1.9972 -0.3538 -2.7668
 2686TIP3   OH2 8063   0.907   4.548   2.436  0.2108 -0.4946  0.1090
 2686TIP3    H1 8064   0.910   4.579   2.345  1.3795 -0.5688  0.1042
 2686TIP3    H2 8065   0.920   4.626   2.489 -0.1906 -0.4942  0.2117
 2687TIP3   OH2 8066   2.989   1.358   1.614 -0.0632 -0.3547 -0.0901
 2687TIP3    H1 8067   2.956   1.393   1.532 -0.6736 -0.1994  0.2160
 2687TIP3    H2 8068   3.039   1.280   1.590  1.7980  0.9985 -0.8578
 2688TIP3   OH2 8069   1.634   2.007   0.556 -0.2569 -0.3701 -0.3908
 2688TIP3    H1 8070   1.656   1.943   0.623  1.0180 -0.0769 -0.5026
 2688TIP3    H2 8071   1.700   2.076   0.566 -2.3273  1.6168  0.5834
 2689TIP3   OH2 8072   2.661   5.211   2.087 -0.2070 -0.3877 -0.5856
 2689TIP3    H1 8073   2.678   5.156   2.010  0.2509 -1.4031  0.2162
 2689TIP3    H2 8074   2.619   5.152   2.149 -0.1753  0.3119  0.1109
 2690TIP3   OH2 8075   1.929   0.408   3.403  0.3294 -0.4647  0.6208
 2690TIP3    H1 8076   1.854   0.362   3.366  0.1253  0.5071 -0.2116
 2690TIP3    H2 8077   2.005   0.369   3.359  0.2794 -1.0089  1.0017
 2691TIP3   OH2 8078   3.447   3.997   3.464 -0.4828  0.1202 -0.3359
 2691TIP3    H1 8079   3.531   4.015   3.421 -1.6720  0.3592 -2.7325
 2691TIP3    H2 8080   3.451   4.045   3.546  2.0264 -0.5579  0.0228
 2692TIP3   OH2 8081   3.798   2.896   0.938 -0.1176 -0.5805  0.2639
 2692TIP3    H1 8082   3.788   2.811   0.980 -1.7590 -1.0399 -0.9541
 2692TIP3    H2 8083   3.883   2.928   0.969 -0.0011 -2.1084  1.6780
 2693TIP3   OH2 8084   5.928   5.397   0.631  0.0639  0.2004 -0.0564
 2693TIP3    H1 8085   5.979   5.430   0.557  0.0225 -0.2636 -0.2930
 2693TIP3    H2 8086   5.868   5.333   0.592  0.1636 -0.1747  0.4055
 2694TIP3   OH2 8087   1.553   5.272   1.705  0.5191 -0.0575  0.5124
 2694TIP3    H1 8088   1.643   5.294   1.730  0.9866  0.5317 -1.4520
 2694TIP3    H2 8089   1.562   5.220   1.625 -0.8764  0.3154  0.0693
 2695TIP3   OH2 8090   6.217   1.424   1.671  0.2076 -0.3873 -0.0428
 2695TIP3    H1 8091   6.132   1.386   1.695  0.4177 -0.9465 -0.1627
 2695TIP3    H2 8092   6.226   1.404   1.578 -1.0443  2.6050 -0.9246
 2696TIP3   OH2 8093   4.224   3.931   2.874  0.1314  0.0038  0.1974
 2696TIP3    H1 8094   4.275   4.012   2.866  0.2129 -0.0976 -0.3294
 2696TIP3    H2 8095   4.152   3.941   2.812  0.5704 -0.6494 -0.4286
 2697TIP3   OH2 8096   4.047   0.612   0.023 -0.0155 -0.6867 -0.8253
 2697TIP3    H1 8097   4.066   0.676  -0.045 -0.9768 -0.6163 -1.0470
 2697TIP3    H2 8098   3.977   0.653   0.075 -0.3542 -1.3744 -0.7243
 2698TIP3   OH2 8099   2.655   4.000   4.802  0.1306 -0.4719  0.2039
 2698TIP3    H1 8100   2.587   3.938   4.775  0.4747 -0.3388 -1.0592
 2698TIP3    H2 8101   2.698   3.958   4.876 -0.1147 -1.4224 -0.1759
 2699TIP3   OH2 8102   3.546   0.186   3.120 -0.4607  0.4774 -0.7691
 2699TIP3    H1 8103   3.515   0.095   3.117  0.7712 -0.0565  1.0519
 2699TIP3    H2 8104   3.630   0.181   3.164  0.3309  2.3710 -1.9549
 2700TIP3   OH2 8105   5.465   3.987   2.006  0.0380  0.6233 -0.1811
 2700TIP3    H1 8106   5.389   4.028   2.047  0.6151  1.5242  0.0250
 2700TIP3    H2 8107   5.447   3.893   2.009 -1.6742  0.8709 -1.3621
 2701TIP3   OH2 8108   6.018   2.119   0.148 -0.1279  0.6200  0.1979
 2701TIP3    H1 8109   6.023   2.213   0.136 -1.2237  0.4856 -1.6630
 2701TIP3    H2 8110   6.098   2.085   0.109 -0.3175  0.7096 -0.2807
 2702TIP3   OH2 8111   1.896   4.007   4.080  0.0098 -0.5842  0.2774
 2702TIP3    H1 8112   1.828   3.946   4.051 -0.2324 -0.4704  0.5994
 2702TIP3    H2 8113   1.853   4.092   4.082  0.1593 -0.5121  0.4840
 2703TIP3   OH2 8114   3.038   2.105   1.529 -0.5409 -0.7158  0.2685
 2703TIP3    H1 8115   3.038   2.019   1.485 -0.3438 -0.9722  0.7675
 2703TIP3    H2 8116   3.126   2.114   1.564 -0.8023 -0.6749  0.9288
 2704TIP3   OH2 8117   5.192   5.693   1.961  0.4165  0.0040 -0.2155
 2704TIP3    H1 8118   5.160   5.783   1.970 -0.0770 -0.2699  0.8875
 2704TIP3    H2 8119   5.283   5.697   1.990  0.0990 -0.0367  0.8076
 2705TIP3   OH2 8120   5.260   1.007   0.350 -0.1280 -0.1079  0.0389
 2705TIP3    H1 8121   5.202   1.056   0.408  1.6375 -1.0529  2.8002
 2705TIP3    H2 8122   5.221   0.920   0.345  0.0614 -0.2157  0.3865
 2706TIP3   OH2 8123   4.499   1.319   3.939 -0.2599  0.0711  0.8242
 2706TIP3    H1 8124   4.595   1.321   3.942 -0.2723  0.9074  0.8004
 2706TIP3    H2 8125   4.473   1.411   3.935 -1.1035 -0.0769  2.2828
 2707TIP3   OH2 8126   4.657   5.725   0.940  0.3908  0.7200 -0.7594
 2707TIP3    H1 8127   4.740   5.739   0.987  0.3183  0.8550 -0.6712
 2707TIP3    H2 8128   4.604   5.801   0.963  0.2700  0.6705 -0.8778
 2708TIP3   OH2 8129   3.622   1.007   2.775 -0.1013  0.5370  0.0263
 2708TIP3    H1 8130   3.678   1.049   2.710  0.8579 -1.1187 -0.2657
 2708TIP3    H2 8131   3.534   1.013   2.738  0.0093  2.1077 -0.0682
 2709TIP3   OH2 8132   3.480   3.088   0.174  0.3717 -0.2777  0.1547
 2709TIP3    H1 8133   3.510   3.070   0.264  0.7927 -1.2573 -0.1622
 2709TIP3    H2 8134   3.395   3.046   0.168  0.6303 -0.7780 -0.0925
 2710TIP3   OH2 8135   6.191   0.072   3.652  0.0236  0.5014  0.2470
 2710TIP3    H1 8136   6.108   0.026   3.661  0.7697 -1.3467 -1.4533
 2710TIP3    H2 8137   6.168   0.158   3.616 -1.2285  0.6669  1.3535
 2711TIP3   OH2 8138   3.163   2.333   2.409  0.1670 -0.4572 -0.0538
 2711TIP3    H1 8139   3.095   2.397   2.388  0.7327 -0.1425 -1.0048
 2711TIP3    H2 8140   3.221   2.379   2.469  0.1011 -0.3757 -0.0521
 2712TIP3   OH2 8141   0.228   5.965   4.918  0.2828 -0.2685 -0.2599
 2712TIP3    H1 8142   0.312   5.926   4.943  0.0364 -0.2829  0.5372
 2712TIP3    H2 8143   0.164   5.896   4.933  0.0129  0.0307 -0.0386
 2713TIP3   OH2 8144   0.789   2.842   1.051 -0.0755  0.5081  0.0187
 2713TIP3    H1 8145   0.796   2.765   0.996  1.3494  0.4490  0.2432
 2713TIP3    H2 8146   0.871   2.889   1.038  0.2192  0.5996  1.9158
 2714TIP3   OH2 8147   2.383   5.630   3.079 -0.0554 -0.3550  0.4700
 2714TIP3    H1 8148   2.343   5.556   3.034  2.2499 -1.6608  0.4456
 2714TIP3    H2 8149   2.419   5.594   3.160  0.8226  0.7869  0.6251
 2715TIP3   OH2 8150   4.766   0.992   2.546 -0.5292 -0.1328 -0.6524
 2715TIP3    H1 8151   4.820   1.068   2.527 -0.8837 -0.2787 -2.4787
 2715TIP3    H2 8152   4.676   1.024   2.542 -0.6452 -0.3013  0.3405
 2716TIP3   OH2 8153   2.280   5.343   2.310  0.3476  0.0840 -0.1656
 2716TIP3    H1 8154   2.192   5.317   2.285  0.3909 -1.9621  1.5188
 2716TIP3    H2 8155   2.287   5.434   2.281 -2.7187  0.6973  0.6541
 2717TIP3   OH2 8156   1.366   3.648   2.670  0.5807  0.4154 -0.1611
 2717TIP3    H1 8157   1.298   3.691   2.619 -1.0987 -0.9295  0.8251
 2717TIP3    H2 8158   1.448   3.684   2.637 -0.6302  2.9267 -0.6282
 2718TIP3   OH2 8159   5.062   3.006   0.035 -0.5340  0.4369 -0.1535
 2718TIP3    H1 8160   5.038   2.980  -0.054 -1.4389  0.9811 -0.0830
 2718TIP3    H2 8161   5.154   3.032   0.029 -0.6682  0.7359 -0.9946
 2719TIP3   OH2 8162   3.576   2.040   5.111  0.3847  0.0102  0.2873
 2719TIP3    H1 8163   3.651   2.057   5.167  1.9156  0.1761 -1.6963
 2719TIP3    H2 8164   3.523   2.120   5.117 -0.0219 -0.3734  2.2214
 2720TIP3   OH2 8165   0.026   0.774   0.724 -0.6032 -0.1596  0.2819
 2720TIP3    H1 8166   0.107   0.822   0.710 -0.2682  0.2700  3.1083
 2720TIP3    H2 8167   0.051   0.682   0.722 -0.3011 -0.0658 -0.2360
 2721TIP3   OH2 8168   3.080   1.211   1.864  0.3630  0.0025 -0.4226
 2721TIP3    H1 8169   3.001   1.184   1.816  0.5960 -0.8908 -0.3231
 2721TIP3    H2 8170   3.104   1.295   1.825 -1.6869  1.2395  0.8079
 2722TIP3   OH2 8171   0.015   4.017   3.735 -0.2768 -0.1811 -0.2467
 2722TIP3    H1 8172   0.108   4.041   3.739 -0.5090  0.7645 -0.1219
 2722TIP3    H2 8173  -0.027   4.077   3.797 -1.1483  0.3420 -1.3127
 2723TIP3   OH2 8174   5.808   5.464   3.696 -0.1477  0.6020 -0.6649
 2723TIP3    H1 8175   5.739   5.427   3.751  0.2551 -0.7213 -1.0320
 2723TIP3    H2 8176   5.827   5.549   3.737 -1.1720  0.4749  0.1196
 2724TIP3   OH2 8177   4.762   4.286   1.310 -0.1447  0.4300 -0.5334
 2724TIP3    H1 8178   4.801   4.272   1.396  0.9451 -2.3440 -1.3377
 2724TIP3    H2 8179   4.793   4.372   1.283  1.6239  0.2700  0.7994
 2725TIP3   OH2 8180   6.285   0.772   4.192  0.2222 -0.5708 -0.7916
 2725TIP3    H1 8181   6.347   0.832   4.149  0.7519 -0.4311  0.1186
 2725TIP3    H2 8182   6.263   0.708   4.125  0.1709  0.2608 -1.5893
 2726TIP3   OH2 8183   0.352   3.555   3.746  0.1103  0.2264 -0.0883
 2726TIP3    H1 8184   0.287   3.590   3.685  0.0310 -2.9645 -2.0235
 2726TIP3    H2 8185   0.300   3.513   3.814  0.2119  0.7431  0.3204
 2727TIP3   OH2 8186   0.032   0.517   2.747 -0.1133  0.0944 -0.1545
 2727TIP3    H1 8187   0.106   0.525   2.807 -0.2443  0.5971 -0.0553
 2727TIP3    H2 8188   0.011   0.607   2.723  0.4949 -0.1394 -1.6555
 2728TIP3   OH2 8189   6.201   4.519   0.875 -0.1535  0.2681 -0.2503
 2728TIP3    H1 8190   6.189   4.468   0.795 -1.3162  0.3949 -0.1746
 2728TIP3    H2 8191   6.208   4.453   0.944  1.0765  0.1520 -0.4690
 2729TIP3   OH2 8192   5.652   0.553   0.161  0.3626 -0.2290  0.0069
 2729TIP3    H1 8193   5.572   0.502   0.173  0.3894  0.0043  1.2845
 2729TIP3    H2 8194   5.643   0.626   0.221  1.2077  0.2058 -0.3877
 2730TIP3   OH2 8195   4.734   1.404   1.937 -0.1453  0.1746  0.2587
 2730TIP3    H1 8196   4.732   1.309   1.925 -2.6435  0.2268 -0.2725
 2730TIP3    H2 8197   4.690   1.420   2.020  0.5670  0.8770  0.5242
 2731TIP3   OH2 8198   6.184   2.412   0.394 -0.4187  0.6377 -0.5045
 2731TIP3    H1 8199   6.157   2.484   0.452 -1.3881  1.4210 -1.8524
 2731TIP3    H2 8200   6.257   2.448   0.344  0.5308 -0.0948  0.3171
 2732TIP3   OH2 8201   2.861   0.118   4.867  0.0996 -0.2279 -0.4164
 2732TIP3    H1 8202   2.800   0.084   4.932  1.5438  1.6038  2.0947
 2732TIP3    H2 8203   2.898   0.039   4.826  0.0645 -1.6036  1.9520
 2733TIP3   OH2 8204   4.976   1.442   4.306  0.6105  0.0423  0.2319
 2733TIP3    H1 8205   5.044   1.493   4.262 -1.8496  1.5450 -2.1144
 2733TIP3    H2 8206   4.957   1.371   4.245  0.5410 -0.7995  1.2070
 2734TIP3   OH2 8207   5.264   5.476   3.376  0.2070 -0.0470  0.5673
 2734TIP3    H1 8208   5.359   5.485   3.383  0.1289  1.0439  0.4738
 2734TIP3    H2 8209   5.248   5.467   3.282  0.0985  1.8435  0.3598
 2735TIP3   OH2 8210   4.521   5.473   3.260 -0.3154  0.7535 -0.5182
 2735TIP3    H1 8211   4.566   5.425   3.191  1.4006 -0.2417  1.1769
 2735TIP3    H2 8212   4.446   5.418   3.283  0.2188  0.0984 -0.2962
 2736TIP3   OH2 8213   0.742   1.788   2.985  0.0164 -0.2398 -0.2788
 2736TIP3    H1 8214   0.815   1.819   3.039 -0.8651  0.6931  0.4270
 2736TIP3    H2 8215   0.777   1.713   2.938  1.3220 -0.0317  0.3118
 2737TIP3   OH2 8216   3.041   2.151   1.821  0.2296  0.4394  0.0337
 2737TIP3    H1 8217   3.037   2.060   1.848 -0.1543  0.4227 -0.0753
 2737TIP3    H2 8218   3.108   2.153   1.753 -0.3814  0.0813 -0.5814
 2738TIP3   OH2 8219   4.484   2.162   0.221  0.1022 -0.6208  0.1021
 2738TIP3    H1 8220   4.573   2.156   0.256  0.2517  0.5894 -0.0014
 2738TIP3    H2 8221   4.496   2.164   0.126 -0.0463 -0.6494  0.0828
 2739TIP3   OH2 8222   2.085   2.842   3.189  0.3429  0.1834 -0.3758
 2739TIP3    H1 8223   2.128   2.854   3.274 -0.0241  1.2489 -0.3285
 2739TIP3    H2 8224   2.135   2.771   3.147  0.9642  0.1196  0.4364
 2740TIP3   OH2 8225   0.549   1.885   2.267  0.1999 -0.1449  0.3170
 2740TIP3    H1 8226   0.521   1.946   2.335 -1.2450 -1.0881  0.6191
 2740TIP3    H2 8227   0.611   1.827   2.311  1.6300  1.0987  0.0111
 2741TIP3   OH2 8228   0.136   4.397   4.453 -0.2389  0.1302  0.3232
 2741TIP3    H1 8229   0.088   4.395   4.536 -1.9860  1.8637 -0.5605
 2741TIP3    H2 8230   0.226   4.374   4.477 -1.0567 -1.2182  2.3800
 2742TIP3   OH2 8231   1.295   2.270   2.097  0.1629 -0.2535  0.3299
 2742TIP3    H1 8232   1.383   2.253   2.130  0.6267  0.4551 -0.5066
 2742TIP3    H2 8233   1.247   2.306   2.173  0.7789 -0.0309  0.6193
 2743TIP3   OH2 8234   5.111   5.359   0.060  0.0736 -0.1468 -0.0893
 2743TIP3    H1 8235   5.098   5.318   0.146 -0.3074  2.3616  1.1353
 2743TIP3    H2 8236   5.036   5.418   0.050  0.4786  0.1224 -1.8549
 2744TIP3   OH2 8237   4.902   0.964   2.832 -0.0032 -0.3537 -0.3913
 2744TIP3    H1 8238   4.846   0.983   2.907  0.4566 -0.1907 -0.0801
 2744TIP3    H2 8239   4.859   1.006   2.757  0.8851  1.8053  0.2378
 2745TIP3   OH2 8240   6.107   1.268   1.901 -0.4086 -0.2862  0.3164
 2745TIP3    H1 8241   6.170   1.273   1.973  0.4721 -2.0294 -0.2770
 2745TIP3    H2 8242   6.023   1.290   1.941  0.2881  0.2991  1.5287
 2746TIP3   OH2 8243   3.242   5.606   4.336 -0.2890 -0.1698  0.1034
 2746TIP3    H1 8244   3.216   5.698   4.333  2.5028  0.6973 -0.4950
 2746TIP3    H2 8245   3.263   5.591   4.428  0.8322  0.3169 -0.0590
 2747TIP3   OH2 8246   0.559   1.398   0.111 -0.6402 -0.1253  0.5946
 2747TIP3    H1 8247   0.518   1.410   0.197 -0.4353  1.3637  0.5257
 2747TIP3    H2 8248   0.615   1.476   0.102 -1.7981  0.5218 -1.5168
 2748TIP3   OH2 8249   4.511   4.203   4.654 -0.0519  0.2219 -0.1137
 2748TIP3    H1 8250   4.567   4.135   4.617  3.0385  2.6598 -0.4361
 2748TIP3    H2 8251   4.512   4.187   4.748  1.9386  0.5952 -0.0273
 2749TIP3   OH2 8252   3.197   3.837   0.833 -0.2806 -0.0006  0.2243
 2749TIP3    H1 8253   3.273   3.790   0.797 -0.6518  0.3850 -1.1526
 2749TIP3    H2 8254   3.132   3.768   0.849 -1.0595  0.0048 -2.3982
 2750TIP3   OH2 8255   0.321   5.146   4.484  0.1346  0.4791  0.8454
 2750TIP3    H1 8256   0.360   5.118   4.400 -0.1306  1.3091  0.4329
 2750TIP3    H2 8257   0.239   5.097   4.490  0.8835 -0.7607  1.3846
 2751TIP3   OH2 8258   6.085   2.825   4.112 -0.3025  0.2703  0.2226
 2751TIP3    H1 8259   6.065   2.734   4.091 -1.7930  0.7161 -0.4142
 2751TIP3    H2 8260   6.034   2.843   4.191 -0.1908  0.6128  0.2193
 2752TIP3   OH2 8261   5.033   2.351   3.708 -0.0661 -0.0275  0.0628
 2752TIP3    H1 8262   5.067   2.375   3.622  0.5362  0.6153  0.4697
 2752TIP3    H2 8263   5.080   2.272   3.732  1.0325  0.7480  0.5378
 2753TIP3   OH2 8264   0.259   1.952   4.741 -0.2379  0.5348  0.3153
 2753TIP3    H1 8265   0.326   1.961   4.674 -0.3291 -2.1388 -0.2380
 2753TIP3    H2 8266   0.177   1.942   4.692 -0.6196  0.7314  0.8969
 2754TIP3   OH2 8267   2.968   3.432   2.208  0.6442  0.2225  0.3038
 2754TIP3    H1 8268   3.007   3.362   2.155  1.4419  0.7976  0.1096
 2754TIP3    H2 8269   2.874   3.418   2.200  0.7880 -1.0542  0.5714
 2755TIP3   OH2 8270   4.423   1.523   0.771 -0.9670  0.1791  0.2683
 2755TIP3    H1 8271   4.408   1.614   0.795 -0.6290  0.5025 -0.7050
 2755TIP3    H2 8272   4.335   1.486   0.762 -1.1180 -0.0667  2.3096
 2756TIP3   OH2 8273   4.392   3.599   3.535 -0.0828  0.2746 -0.1348
 2756TIP3    H1 8274   4.378   3.547   3.456  3.1922  1.0252 -1.3666
 2756TIP3    H2 8275   4.362   3.687   3.511 -0.6005  0.1505  0.0476
 2757TIP3   OH2 8276   2.871   2.220   2.202 -0.0304 -0.3331  0.0795
 2757TIP3    H1 8277   2.868   2.302   2.153 -0.3423 -0.3897  0.0036
 2757TIP3    H2 8278   2.827   2.240   2.285 -1.1698 -0.7440 -0.4152
 2758TIP3   OH2 8279   2.321   4.902   1.854 -0.0025  0.7231  0.3546
 2758TIP3    H1 8280   2.398   4.907   1.796 -0.6562  1.2677 -0.5016
 2758TIP3    H2 8281   2.299   4.993   1.872  0.6868  0.5696  2.1949
 2759TIP3   OH2 8282   5.367   4.745   3.370  0.0383 -0.8293 -0.3356
 2759TIP3    H1 8283   5.295   4.741   3.306  1.0830 -0.2006 -1.5899
 2759TIP3    H2 8284   5.391   4.837   3.373 -0.5271 -0.6881  1.6456
 2760TIP3   OH2 8285   0.100   0.730   1.326  0.0547  0.5519 -0.0748
 2760TIP3    H1 8286   0.087   0.642   1.360  0.2832  0.7528  0.5334
 2760TIP3    H2 8287   0.172   0.721   1.264 -0.2626  0.2169 -0.4001
 2761TIP3   OH2 8288   0.097   1.284   4.126  0.3298  0.3272  0.3822
 2761TIP3    H1 8289   0.063   1.304   4.039 -1.9675 -0.4512  1.0378
 2761TIP3    H2 8290   0.164   1.217   4.111 -0.9290 -0.7447 -0.7174
 2762TIP3   OH2 8291   4.047   4.202   0.350 -0.5549 -0.3784  0.0304
 2762TIP3    H1 8292   4.117   4.159   0.301 -1.4139 -0.3803 -1.2321
 2762TIP3    H2 8293   4.051   4.294   0.324 -1.8726 -0.6163 -1.1495
 2763TIP3   OH2 8294   3.927   4.154   3.073 -0.0961 -0.1749  0.4653
 2763TIP3    H1 8295   3.926   4.058   3.069 -1.2161 -0.1806  0.4186
 2763TIP3    H2 8296   3.836   4.177   3.095 -0.0040  0.9041 -0.2449
 2764TIP3   OH2 8297   2.609   1.240   0.364  0.7960  0.4839  0.5388
 2764TIP3    H1 8298   2.593   1.330   0.394  0.7926  0.0533  1.8967
 2764TIP3    H2 8299   2.541   1.224   0.298  0.7649  1.4585  0.3217
 2765TIP3   OH2 8300   4.217   2.555   1.237 -0.0137 -0.1501  0.0442
 2765TIP3    H1 8301   4.269   2.534   1.315 -2.7691  0.9515  2.3786
 2765TIP3    H2 8302   4.150   2.488   1.235  0.0612 -0.2033 -1.4878
 2766TIP3   OH2 8303   1.645   0.148   4.187  0.5278 -0.5180  0.3517
 2766TIP3    H1 8304   1.593   0.085   4.237 -0.8623  0.2597 -0.0522
 2766TIP3    H2 8305   1.736   0.126   4.207  0.0635 -2.1272  0.8404
 2767TIP3   OH2 8306   1.953   0.405   3.679  0.5163 -0.3756  0.0043
 2767TIP3    H1 8307   1.950   0.393   3.584  3.9289  1.3041 -0.4594
 2767TIP3    H2 8308   1.924   0.321   3.714  0.4183 -1.5016 -2.5148
 2768TIP3   OH2 8309   4.715   0.624   0.659  0.4678  0.0566  0.3455
 2768TIP3    H1 8310   4.713   0.638   0.753  1.4149 -0.8451  0.5229
 2768TIP3    H2 8311   4.636   0.666   0.626  0.4544  0.9470  1.4588
 2769TIP3   OH2 8312   2.713   0.395   4.078 -0.4850  0.2677 -0.5840
 2769TIP3    H1 8313   2.656   0.376   4.003  0.8236 -2.9036 -0.9163
 2769TIP3    H2 8314   2.801   0.394   4.042  0.2592 -2.2567  1.0168
 2770TIP3   OH2 8315   2.700   0.258   4.335 -0.3175 -0.3831  0.1828
 2770TIP3    H1 8316   2.698   0.301   4.249 -1.5405 -2.5041 -0.9361
 2770TIP3    H2 8317   2.615   0.215   4.343  0.7297 -2.4416  1.2436
 2771TIP3   OH2 8318   4.957   2.310   0.177 -0.6105 -0.0215  0.0849
 2771TIP3    H1 8319   5.023   2.274   0.118 -0.6887  0.1018 -0.0788
 2771TIP3    H2 8320   4.953   2.403   0.155 -1.2827 -0.1453 -0.3352
 2772TIP3   OH2 8321   5.570   2.086   1.949  0.0526 -0.4449 -0.4510
 2772TIP3    H1 8322   5.627   2.029   2.000 -2.1868 -1.2885  1.2437
 2772TIP3    H2 8323   5.605   2.081   1.860  1.8413 -1.9128  0.2784
 2773TIP3   OH2 8324   1.562   4.548   3.130 -0.3236  0.2861  0.3483
 2773TIP3    H1 8325   1.499   4.620   3.135 -0.5033  0.2934 -1.3658
 2773TIP3    H2 8326   1.510   4.469   3.137 -0.3535  0.3129  0.4210
 2774TIP3   OH2 8327   3.626   2.273   1.989  0.4237  0.0733  0.0420
 2774TIP3    H1 8328   3.535   2.245   1.991  0.5361 -0.2641  1.2356
 2774TIP3    H2 8329   3.652   2.277   2.081  1.6188  0.1425 -0.2814
 2775TIP3   OH2 8330   5.775   0.654   2.998 -0.3221  0.5256 -0.3635
 2775TIP3    H1 8331   5.803   0.700   2.919  1.0639 -0.7917 -0.6875
 2775TIP3    H2 8332   5.753   0.724   3.060  1.4486  1.6436 -0.9264
 2776TIP3   OH2 8333   2.469   4.277   4.931  0.4377 -0.3528 -0.3913
 2776TIP3    H1 8334   2.440   4.196   4.973  0.3167  0.1888  0.6139
 2776TIP3    H2 8335   2.413   4.286   4.854  1.7738 -2.2272 -1.6562
 2777TIP3   OH2 8336   1.368   0.144   1.051 -0.1868  0.1096  0.5214
 2777TIP3    H1 8337   1.400   0.063   1.090  0.8112  0.3609  0.2699
 2777TIP3    H2 8338   1.436   0.209   1.070 -0.7156  0.7615  0.2595
 2778TIP3   OH2 8339   5.269   4.634   5.048  0.1808 -0.1320  0.0776
 2778TIP3    H1 8340   5.317   4.646   5.130  0.5288 -0.5300 -0.0668
 2778TIP3    H2 8341   5.182   4.605   5.075  0.3761 -0.5156  0.2994
 2779TIP3   OH2 8342   0.272   5.586   0.713 -0.3838  0.0048 -0.1339
 2779TIP3    H1 8343   0.251   5.657   0.652  0.1677 -0.6962 -1.1643
 2779TIP3    H2 8344   0.204   5.521   0.698  0.7975 -0.9927 -1.3865
 2780TIP3   OH2 8345   0.104   0.654   1.863 -0.7670 -0.6985 -0.2523
 2780TIP3    H1 8346   0.010   0.650   1.842 -0.2430  0.8688 -3.5047
 2780TIP3    H2 8347   0.146   0.605   1.793  0.9320 -0.8320  0.8045
 2781TIP3   OH2 8348   2.339   3.998   0.386  0.0486  0.0046 -0.2670
 2781TIP3    H1 8349   2.256   3.964   0.350  1.6083 -1.2278 -2.9979
 2781TIP3    H2 8350   2.400   3.925   0.377  1.7659  1.2943  0.4744
 2782TIP3   OH2 8351   5.182   0.718   1.258  0.0742 -0.4597  0.0467
 2782TIP3    H1 8352   5.256   0.762   1.300  0.4948 -0.6360 -0.4890
 2782TIP3    H2 8353   5.139   0.671   1.329 -0.2034  0.5633  0.5771
 2783TIP3   OH2 8354   0.018   1.388   2.572 -0.0272 -0.0476 -0.2788
 2783TIP3    H1 8355   0.031   1.319   2.637 -0.4654  1.2598  1.2701
 2783TIP3    H2 8356  -0.006   1.342   2.492 -0.1706 -1.6850  0.6723
 2784TIP3   OH2 8357   5.027   1.688   3.198 -0.4448  0.0720 -0.7421
 2784TIP3    H1 8358   5.068   1.774   3.207 -2.0746  1.0973 -2.3441
 2784TIP3    H2 8359   5.090   1.637   3.148  0.6423  0.2407  0.4171
 2785TIP3   OH2 8360   2.919   0.297   3.654 -0.0208 -0.0626  0.1246
 2785TIP3    H1 8361   2.840   0.343   3.626 -0.9861 -1.3512  0.6431
 2785TIP3    H2 8362   2.978   0.304   3.579 -1.7726 -1.6910 -1.5219
 2786TIP3   OH2 8363   1.982   5.631   2.187 -0.1185 -0.2089 -0.2982
 2786TIP3    H1 8364   2.031   5.643   2.268 -0.9332 -0.1980  0.1991
 2786TIP3    H2 8365   1.973   5.719   2.151  1.0600 -0.3054 -0.9143
 2787TIP3   OH2 8366   3.224   2.755   0.557 -0.4824  0.2680  0.0521
 2787TIP3    H1 8367   3.199   2.666   0.532 -1.1142  0.6951 -0.9145
 2787TIP3    H2 8368   3.317   2.749   0.579 -0.2983 -0.4668 -0.8583
 2788TIP3   OH2 8369   2.047   2.243   2.023  0.3656  0.0222 -0.5581
 2788TIP3    H1 8370   2.123   2.194   2.054 -1.5155 -3.5021 -1.0147
 2788TIP3    H2 8371   1.973   2.208   2.073 -1.2860  1.9307 -1.4723
 2789TIP3   OH2 8372   4.533   5.167   0.479 -0.7789 -0.2719 -0.0537
 2789TIP3    H1 8373   4.626   5.169   0.501 -0.5579 -0.3964 -0.9291
 2789TIP3    H2 8374   4.510   5.074   0.478 -0.5144 -0.3423 -1.3761
 2790TIP3   OH2 8375   1.937   4.889   4.856 -0.5058 -0.0620  0.4156
 2790TIP3    H1 8376   1.919   4.982   4.845  1.2326  0.1312 -1.4465
 2790TIP3    H2 8377   2.007   4.886   4.921  0.4211  0.0844 -0.5446
 2791TIP3   OH2 8378   1.021   0.327   4.996 -1.0328 -0.4499  0.0341
 2791TIP3    H1 8379   1.099   0.333   4.941 -1.7988  0.5938 -0.9882
 2791TIP3    H2 8380   0.950   0.357   4.940 -1.9114  0.2523  1.4639
 2792TIP3   OH2 8381   4.032   4.617   3.874 -0.4467  0.4490  0.6813
 2792TIP3    H1 8382   4.016   4.605   3.781 -1.3843 -0.8100  0.9744
 2792TIP3    H2 8383   4.107   4.561   3.893 -0.5914  0.2838  0.7745
 2793TIP3   OH2 8384   6.021   3.543   4.626  0.1539  0.3281 -0.7298
 2793TIP3    H1 8385   6.060   3.626   4.656 -0.0029  0.5449 -1.1139
 2793TIP3    H2 8386   6.059   3.477   4.684  1.4919  0.4671 -1.3906
 2794TIP3   OH2 8387   3.670   3.628   4.722 -0.3483 -0.3429 -0.1553
 2794TIP3    H1 8388   3.674   3.718   4.689  1.0318 -0.6513 -0.9325
 2794TIP3    H2 8389   3.719   3.631   4.805 -0.8283 -0.2622  0.1275
 2795TIP3   OH2 8390   4.185   0.594   3.122 -0.1525 -0.5863  0.1971
 2795TIP3    H1 8391   4.221   0.562   3.040  0.0933 -0.2852  0.1813
 2795TIP3    H2 8392   4.252   0.654   3.155 -0.1186 -0.9235  0.7587
 2796TIP3   OH2 8393   3.469   3.235   4.454 -0.4729  0.0167 -0.0129
 2796TIP3    H1 8394   3.484   3.298   4.383 -2.8034  1.7245  0.8665
 2796TIP3    H2 8395   3.462   3.290   4.533 -3.1351 -1.2125  0.7109
 2797TIP3   OH2 8396   4.738   4.202   1.056 -0.2511  0.5298 -0.7656
 2797TIP3    H1 8397   4.760   4.223   1.147  1.4845  1.9938 -1.4543
 2797TIP3    H2 8398   4.807   4.141   1.029  0.2621  1.4492 -1.5790
 2798TIP3   OH2 8399   2.457   5.249   0.263 -0.2878 -0.4760 -0.0130
 2798TIP3    H1 8400   2.422   5.318   0.207 -1.5370 -0.6660  0.4943
 2798TIP3    H2 8401   2.550   5.244   0.240 -0.4023  0.6336 -0.8105
 2799TIP3   OH2 8402   2.507   5.682   0.177 -0.4130  0.1117  0.1606
 2799TIP3    H1 8403   2.519   5.661   0.085  1.6436  0.1630  0.3769
 2799TIP3    H2 8404   2.571   5.627   0.223  0.2200  1.7500  1.3275
 2800TIP3   OH2 8405   5.546   0.145   0.427  0.1806 -0.4142  0.4425
 2800TIP3    H1 8406   5.537   0.139   0.522  0.9397 -0.0688  0.5486
 2800TIP3    H2 8407   5.638   0.169   0.413 -0.4372  1.8581 -0.2717
 2801TIP3   OH2 8408   5.609   0.470   2.884 -0.0869 -0.0219  0.1471
 2801TIP3    H1 8409   5.539   0.535   2.884 -0.4861 -0.4495  0.0844
 2801TIP3    H2 8410   5.675   0.507   2.943  0.5125  1.3009 -1.2889
 2802TIP3   OH2 8411   2.096   3.912   0.279  0.1831 -0.5610 -0.0819
 2802TIP3    H1 8412   2.018   3.961   0.305  1.2380  0.3596  1.5072
 2802TIP3    H2 8413   2.070   3.867   0.198 -0.8720  2.6051 -1.6769
 2803TIP3   OH2 8414   4.969   3.189   2.887 -0.5722 -0.1218 -0.0163
 2803TIP3    H1 8415   5.018   3.144   2.956 -1.4030  0.1351  0.7577
 2803TIP3    H2 8416   4.990   3.281   2.899 -0.4444 -0.1080 -0.3347
 2804TIP3   OH2 8417   3.624   1.983   2.116  0.1893 -0.4547  0.0375
 2804TIP3    H1 8418   3.652   1.959   2.028  1.0397 -0.6972  0.3591
 2804TIP3    H2 8419   3.706   1.993   2.165 -0.2947 -1.2407  1.0438
 2805TIP3   OH2 8420   6.324   5.582   0.772  0.5809  0.2312 -0.8190
 2805TIP3    H1 8421   6.353   5.649   0.709  0.1153 -0.0435 -1.3379
 2805TIP3    H2 8422   6.373   5.503   0.746 -0.0035 -0.0184 -1.1749
 2806TIP3   OH2 8423   2.940   2.598   4.018 -0.3881 -0.6783  0.3578
 2806TIP3    H1 8424   2.953   2.636   3.931  0.4446  1.3290  1.2879
 2806TIP3    H2 8425   3.008   2.531   4.025 -0.6255 -1.0414 -0.6006
 2807TIP3   OH2 8426   0.715   3.532   5.150 -0.2341  0.2185  0.3307
 2807TIP3    H1 8427   0.646   3.527   5.084  0.0132 -0.5787  0.1219
 2807TIP3    H2 8428   0.670   3.523   5.234 -0.2326 -2.1156  0.1360
 2808TIP3   OH2 8429   5.061   4.416   4.029 -0.6518 -0.0526  0.2661
 2808TIP3    H1 8430   4.983   4.451   4.072 -0.5084 -0.5512  0.9584
 2808TIP3    H2 8431   5.104   4.492   3.991 -0.0197  0.6550  2.2611
 2809TIP3   OH2 8432   1.630   3.030   4.051 -0.7559  0.2516  0.0380
 2809TIP3    H1 8433   1.702   3.071   4.003  0.6858 -2.3979 -0.2655
 2809TIP3    H2 8434   1.651   3.047   4.143  1.4950 -2.0532  0.0945
 2810TIP3   OH2 8435   5.786   0.939   5.008 -0.1982  0.0664  0.1546
 2810TIP3    H1 8436   5.765   0.854   4.968  1.6673 -0.4779  0.2405
 2810TIP3    H2 8437   5.858   0.973   4.955 -0.6603  1.4315  0.3682
 2811TIP3   OH2 8438   3.753   0.059   2.472 -0.3363  0.1750 -0.1206
 2811TIP3    H1 8439   3.681   0.080   2.532  0.0299 -1.2570  0.8768
 2811TIP3    H2 8440   3.814   0.009   2.526 -0.2580 -1.6647 -1.8357
 2812TIP3   OH2 8441   2.203   0.025   3.082  0.2662  0.0344  0.3188
 2812TIP3    H1 8442   2.268   0.081   3.125  1.2925 -0.1347 -0.9452
 2812TIP3    H2 8443   2.219  -0.062   3.117  0.6252  0.0161  0.1034
 2813TIP3   OH2 8444   0.516   0.212   0.610  0.0855  0.1375  0.3027
 2813TIP3    H1 8445   0.488   0.224   0.520 -2.3582  2.0056  1.1695
 2813TIP3    H2 8446   0.604   0.250   0.614  0.5485 -0.7022 -1.4138
 2814TIP3   OH2 8447   5.762   1.264   1.350 -0.1495  0.2414 -0.6975
 2814TIP3    H1 8448   5.807   1.274   1.266  0.2166  1.4076 -0.3901
 2814TIP3    H2 8449   5.724   1.350   1.367  0.3969  0.2536  0.6633
 2815TIP3   OH2 8450   3.533   1.949   4.430  0.5401  0.3195  0.1706
 2815TIP3    H1 8451   3.518   2.043   4.444  2.6532  0.7887 -0.5048
 2815TIP3    H2 8452   3.456   1.921   4.381  0.0103  1.7548  0.1043
 2816TIP3   OH2 8453   5.783   4.835   1.967 -0.4897 -0.9256 -0.2164
 2816TIP3    H1 8454   5.853   4.871   2.021 -0.3830 -1.5523  0.0722
 2816TIP3    H2 8455   5.726   4.789   2.028 -1.5976  0.2201 -0.3334
 2817TIP3   OH2 8456   1.740   1.805   0.694  0.3106 -0.2252 -0.7226
 2817TIP3    H1 8457   1.804   1.793   0.764 -0.2622 -1.0274 -0.3117
 2817TIP3    H2 8458   1.699   1.719   0.685 -0.2228  0.0977 -1.4595
 2818TIP3   OH2 8459   4.108   2.147   0.582 -0.0431 -0.1338  0.0332
 2818TIP3    H1 8460   4.142   2.171   0.668  0.9792  0.7380 -0.5852
 2818TIP3    H2 8461   4.016   2.126   0.597  0.4020 -1.1617  1.5270
 2819TIP3   OH2 8462   3.159   2.656   4.664 -0.0984 -0.4758  0.3994
 2819TIP3    H1 8463   3.198   2.585   4.716  1.1222  0.1546  0.3772
 2819TIP3    H2 8464   3.088   2.689   4.719  0.8058 -0.1960  1.4420
 2820TIP3   OH2 8465   5.536   3.284   4.494 -0.9774  0.6490  0.6952
 2820TIP3    H1 8466   5.573   3.366   4.526 -3.2027  0.8811  3.0135
 2820TIP3    H2 8467   5.588   3.216   4.536 -0.1637  0.8748  0.0713
 2821TIP3   OH2 8468   3.805   4.604   2.743  0.0638 -0.5079 -0.3124
 2821TIP3    H1 8469   3.865   4.534   2.717  1.1461  0.2172  0.1752
 2821TIP3    H2 8470   3.862   4.675   2.771 -1.0254  0.4311 -0.4154
 2822TIP3   OH2 8471   4.953   0.278   1.994 -0.0064 -0.1781  0.2105
 2822TIP3    H1 8472   4.984   0.267   2.084 -1.7487 -0.8843  0.7592
 2822TIP3    H2 8473   4.911   0.194   1.973  2.0125 -0.7464 -1.9717
 2823TIP3   OH2 8474   5.957   5.314   2.342  0.0140 -0.4615  0.2802
 2823TIP3    H1 8475   5.956   5.233   2.291  0.6647  0.6404 -1.5584
 2823TIP3    H2 8476   6.050   5.336   2.350 -0.2044  1.1745 -1.0973
 2824TIP3   OH2 8477   2.546   0.584   2.021  0.1507 -0.3001  0.4946
 2824TIP3    H1 8478   2.550   0.536   1.938 -1.4742  2.5319 -1.3962
 2824TIP3    H2 8479   2.634   0.620   2.032  0.3354 -0.5630 -0.0932
 2825TIP3   OH2 8480   6.341   3.884   2.120  0.0980 -0.3173  0.1131
 2825TIP3    H1 8481   6.258   3.879   2.072  0.5910  0.1472 -0.8047
 2825TIP3    H2 8482   6.315   3.876   2.212 -0.9737 -0.0840 -0.1494
 2826TIP3   OH2 8483   3.096   1.489   1.939  0.0726  0.5103  0.4831
 2826TIP3    H1 8484   3.129   1.553   1.876  0.9242 -2.0251 -1.8752
 2826TIP3    H2 8485   3.002   1.483   1.921 -0.1015  1.3602  1.0389
 2827TIP3   OH2 8486   0.778   3.937   1.776 -0.5853 -0.1098  0.4588
 2827TIP3    H1 8487   0.773   3.969   1.866 -0.0295 -2.6617  1.4826
 2827TIP3    H2 8488   0.708   3.871   1.770 -0.1755 -0.4603 -0.7366
 2828TIP3   OH2 8489   0.072   5.156   3.584  0.0816  0.5169 -0.2313
 2828TIP3    H1 8490  -0.020   5.128   3.579 -0.1165  1.2389 -0.9219
 2828TIP3    H2 8491   0.111   5.100   3.651 -1.1560  1.0232  0.9634
 2829TIP3   OH2 8492   1.536   3.009   0.597  0.1343  0.1574 -0.0759
 2829TIP3    H1 8493   1.509   2.920   0.620 -1.3401  0.5105 -0.3942
 2829TIP3    H2 8494   1.534   3.012   0.502  0.5812  0.4225 -0.0834
 2830TIP3   OH2 8495   2.249   2.251   1.651 -0.0919 -0.0719  0.0303
 2830TIP3    H1 8496   2.201   2.310   1.709  1.8402 -0.7827  2.5626
 2830TIP3    H2 8497   2.206   2.166   1.662  1.2808 -0.5949  1.9058
 2831TIP3   OH2 8498   4.664   0.771   2.716 -0.4518 -0.6158  0.1358
 2831TIP3    H1 8499   4.730   0.791   2.649  0.1442 -0.6678  0.6957
 2831TIP3    H2 8500   4.675   0.678   2.733 -2.5240 -1.2697 -1.7157
 2832TIP3   OH2 8501   4.682   3.150   0.077 -0.0034 -0.4524  0.0006
 2832TIP3    H1 8502   4.603   3.202   0.093 -0.4614 -1.1620  0.1044
 2832TIP3    H2 8503   4.745   3.212   0.042 -0.8880 -0.0210 -0.8778
 2833TIP3   OH2 8504   2.146   5.045   2.752  0.3382  0.2007  0.1326
 2833TIP3    H1 8505   2.145   4.957   2.715 -1.2346  0.6727 -1.0616
 2833TIP3    H2 8506   2.123   5.033   2.844  1.9119 -0.7673  0.4393
 2834TIP3   OH2 8507   0.196   0.784   4.774  0.1969  0.3739 -0.2556
 2834TIP3    H1 8508   0.158   0.801   4.860  1.5719 -1.8569  0.9004
 2834TIP3    H2 8509   0.123   0.752   4.721 -0.1950 -0.7340  0.9125
 2835TIP3   OH2 8510   0.167   3.708   4.177  0.2879  0.1576 -0.6372
 2835TIP3    H1 8511   0.210   3.726   4.093  2.2246 -0.4549  0.1557
 2835TIP3    H2 8512   0.239   3.685   4.235 -1.1247 -0.4538  0.9295
 2836TIP3   OH2 8513   4.571   3.002   2.990 -0.3358  0.5085 -0.2012
 2836TIP3    H1 8514   4.645   3.016   2.931  0.7645  2.8215  1.5670
 2836TIP3    H2 8515   4.606   2.951   3.063 -1.0393 -0.1684 -0.3182
 2837TIP3   OH2 8516   1.924   5.070   1.313  0.3829 -1.1311 -0.9242
 2837TIP3    H1 8517   1.903   5.155   1.276  0.1418 -0.9877 -0.4620
 2837TIP3    H2 8518   1.875   5.008   1.260 -0.3729 -0.8843 -0.5200
 2838TIP3   OH2 8519   0.585   3.697   4.698  0.5504 -0.5955 -0.6837
 2838TIP3    H1 8520   0.678   3.703   4.721  0.5909 -0.8250 -0.7795
 2838TIP3    H2 8521   0.582   3.627   4.632 -0.1820 -3.2426  1.9567
 2839TIP3   OH2 8522   4.624   5.665   1.328 -0.1061  0.4949  0.1225
 2839TIP3    H1 8523   4.554   5.603   1.308  0.9166 -0.1847 -1.6284
 2839TIP3    H2 8524   4.605   5.697   1.416 -1.5151 -1.1379  0.4417
 2840TIP3   OH2 8525   0.152   0.254   1.754 -0.5492  0.1552 -0.0704
 2840TIP3    H1 8526   0.159   0.160   1.739  1.1676  0.3437 -0.6436
 2840TIP3    H2 8527   0.205   0.271   1.832 -1.4740  0.5663  0.4961
 2841TIP3   OH2 8528   2.426   4.449   4.051  0.7417  0.0286  0.1584
 2841TIP3    H1 8529   2.474   4.382   4.101  1.6124  0.2656 -0.3382
 2841TIP3    H2 8530   2.433   4.528   4.104 -0.7772 -0.3733  1.0273
 2842TIP3   OH2 8531   5.521   3.336   1.306 -0.4420  0.0424 -0.1951
 2842TIP3    H1 8532   5.542   3.396   1.234  0.4985  1.1516  0.9422
 2842TIP3    H2 8533   5.595   3.275   1.308 -0.0627  0.5011  0.2948
 2843TIP3   OH2 8534   0.317   5.281   3.931  0.1812  0.7477  0.2197
 2843TIP3    H1 8535   0.227   5.260   3.953 -0.2452  2.4839  0.2560
 2843TIP3    H2 8536   0.315   5.372   3.903  1.5973  0.2447 -1.7570
 2844TIP3   OH2 8537   3.791   2.531   5.218  0.1328 -0.1832 -0.4903
 2844TIP3    H1 8538   3.733   2.457   5.202  0.3779 -0.6305  0.5780
 2844TIP3    H2 8539   3.802   2.572   5.132 -1.0249 -0.6254 -0.8652
 2845TIP3   OH2 8540   0.050   5.950   2.228  0.0738  0.1887  0.2762
 2845TIP3    H1 8541   0.113   5.980   2.163  0.7447 -0.1364  0.7697
 2845TIP3    H2 8542   0.073   5.997   2.308  0.0743 -0.3746  0.6134
 2846TIP3   OH2 8543   3.124   2.020   2.862 -0.5545  0.4086 -0.0811
 2846TIP3    H1 8544   3.144   2.065   2.780 -0.2408 -0.8950 -0.7444
 2846TIP3    H2 8545   3.039   2.055   2.887  0.9644  3.6587  1.1013
 2847TIP3   OH2 8546   0.587   1.793   3.254  0.3157 -0.0666 -0.4936
 2847TIP3    H1 8547   0.656   1.763   3.195  0.7721 -2.5235  1.1456
 2847TIP3    H2 8548   0.603   1.745   3.335 -2.0452  0.9485  0.6475
 2848TIP3   OH2 8549   0.764   5.472   3.336  0.0300  0.1878 -0.4365
 2848TIP3    H1 8550   0.725   5.492   3.251  0.8439  4.9481  0.0100
 2848TIP3    H2 8551   0.850   5.437   3.315  0.4003  1.7198 -1.6825
 2849TIP3   OH2 8552   3.690   0.829   4.253 -0.2512 -0.4187 -0.6094
 2849TIP3    H1 8553   3.631   0.902   4.271  1.2800  1.3832 -2.4814
 2849TIP3    H2 8554   3.658   0.791   4.171  0.6106 -0.0305 -1.1344
 2850TIP3   OH2 8555   5.541   4.795   3.956 -0.6223  0.2549  0.0543
 2850TIP3    H1 8556   5.528   4.888   3.937 -1.1868  0.2061  0.1700
 2850TIP3    H2 8557   5.632   4.788   3.983 -0.0986  0.5010 -1.5759
 2851TIP3   OH2 8558   5.164   4.045   4.418  0.2453 -0.2201  0.1707
 2851TIP3    H1 8559   5.199   4.111   4.478  0.3731  1.3313 -1.5031
 2851TIP3    H2 8560   5.238   3.989   4.398  0.7112  0.4525 -0.0364
 2852TIP3   OH2 8561   2.205   3.174   2.942  0.6101 -1.0567 -0.4363
 2852TIP3    H1 8562   2.206   3.096   2.887  0.3823 -0.2156 -1.6783
 2852TIP3    H2 8563   2.116   3.209   2.933  0.8873 -0.3208 -0.4218
 2853TIP3   OH2 8564   3.221   5.772   0.372 -0.2614  0.1374 -0.4559
 2853TIP3    H1 8565   3.291   5.827   0.336 -0.5756  1.4826  0.8749
 2853TIP3    H2 8566   3.266   5.714   0.434 -0.1586  0.0408 -0.6186
 2854TIP3   OH2 8567   2.397   5.574   2.587  0.9012 -0.6085  0.2918
 2854TIP3    H1 8568   2.309   5.538   2.576  1.3587 -1.2889 -1.4875
 2854TIP3    H2 8569   2.407   5.585   2.682 -1.7762  1.3037  0.4462
 2855TIP3   OH2 8570   2.559   4.824   0.116  0.1417 -0.2067 -1.1183
 2855TIP3    H1 8571   2.563   4.854   0.025  0.3079  1.2092 -0.6745
 2855TIP3    H2 8572   2.487   4.761   0.117 -0.2153  0.1582 -2.1316
 2856TIP3   OH2 8573   4.029   1.561   1.751  0.2383  0.5343  0.1041
 2856TIP3    H1 8574   3.942   1.600   1.763 -0.0935 -0.1996  0.1062
 2856TIP3    H2 8575   4.069   1.566   1.838 -0.4944 -0.7579  0.5463
 2857TIP3   OH2 8576   3.057   4.430   4.219 -0.0506 -0.3912  0.1834
 2857TIP3    H1 8577   3.113   4.369   4.170  0.9351  1.4353 -1.0770
 2857TIP3    H2 8578   3.113   4.507   4.233 -0.3367 -0.7201  4.1008
 2858TIP3   OH2 8579   6.040   5.863   4.444  0.4924  0.0888  0.5626
 2858TIP3    H1 8580   6.092   5.924   4.496  1.2122 -0.3098  0.3320
 2858TIP3    H2 8581   6.095   5.843   4.368  0.5587 -1.3272  0.9395
 2859TIP3   OH2 8582   3.765   4.969   2.090  0.1777 -0.1369 -0.5277
 2859TIP3    H1 8583   3.711   4.912   2.035  2.1557 -0.3967 -2.3345
 2859TIP3    H2 8584   3.718   5.053   2.089 -1.1424 -0.8428 -0.4539
 2860TIP3   OH2 8585   5.301   0.183   3.381 -0.4002 -0.1882 -0.1823
 2860TIP3    H1 8586   5.378   0.223   3.421 -0.2003  0.0689 -0.7999
 2860TIP3    H2 8587   5.331   0.154   3.295 -0.7733 -0.8860 -0.0851
 2861TIP3   OH2 8588   1.925   2.107   2.600 -0.1202  0.3354  0.1718
 2861TIP3    H1 8589   1.840   2.066   2.580 -0.2968  0.5729  0.4462
 2861TIP3    H2 8590   1.951   2.069   2.684 -0.0349  0.3940  0.1718
 2862TIP3   OH2 8591   4.347   2.396   0.249 -0.0660 -0.6053 -0.0951
 2862TIP3    H1 8592   4.263   2.365   0.281 -0.1138 -0.9838 -0.5856
 2862TIP3    H2 8593   4.406   2.321   0.258  0.5530  0.0030  1.4160
 2863TIP3   OH2 8594   0.164   3.574   2.305 -0.8162 -0.2730  0.0822
 2863TIP3    H1 8595   0.225   3.553   2.376 -0.2637  0.6330 -0.1090
 2863TIP3    H2 8596   0.079   3.579   2.348 -0.8355 -1.8384  0.3084
 2864TIP3   OH2 8597   6.260   4.529   3.845 -0.2203  0.3905  0.0412
 2864TIP3    H1 8598   6.167   4.541   3.860 -0.3110 -0.5503  0.3035
 2864TIP3    H2 8599   6.272   4.540   3.751 -0.6972 -0.1209 -0.0795
 2865TIP3   OH2 8600   5.617   4.077   3.111 -0.1555 -0.4969  0.5550
 2865TIP3    H1 8601   5.525   4.098   3.096 -0.8002 -2.0841  1.9404
 2865TIP3    H2 8602   5.655   4.158   3.145 -1.0368  0.1695 -0.0070
 2866TIP3   OH2 8603   0.279   0.584   0.940  0.1698 -0.1789 -0.9562
 2866TIP3    H1 8604   0.355   0.569   0.884  0.5844 -1.9109  0.0288
 2866TIP3    H2 8605   0.204   0.563   0.884  0.5399 -1.0519 -1.1450
 2867TIP3   OH2 8606   2.934   5.320   3.809 -0.2855 -0.1114 -0.0704
 2867TIP3    H1 8607   2.846   5.285   3.795 -0.6624  1.2723 -1.5194
 2867TIP3    H2 8608   2.989   5.273   3.745 -0.1477 -0.2910  0.1757
 2868TIP3   OH2 8609   3.435   5.019   2.616  0.7409  0.5035 -0.1921
 2868TIP3    H1 8610   3.360   5.006   2.556 -0.0949  0.7992  0.7608
 2868TIP3    H2 8611   3.502   5.060   2.561  0.3903 -0.1999 -1.1924
 2869TIP3   OH2 8612   5.932   5.760   2.408 -0.2466  0.1213 -0.3579
 2869TIP3    H1 8613   6.021   5.728   2.392 -0.0422  0.5834 -0.1323
 2869TIP3    H2 8614   5.905   5.796   2.324 -0.9877 -1.8290 -1.0261
 2870TIP3   OH2 8615   5.282   5.186   1.274  0.7223 -0.3671  0.3711
 2870TIP3    H1 8616   5.193   5.208   1.300  0.4145  0.6301 -1.3786
 2870TIP3    H2 8617   5.330   5.177   1.356 -0.1744  2.5562  1.3212
 2871TIP3   OH2 8618   5.241   2.444   1.074  0.0384  0.0420 -0.2952
 2871TIP3    H1 8619   5.279   2.522   1.035 -2.5113  1.8739  0.6101
 2871TIP3    H2 8620   5.233   2.382   1.001  1.1124  1.0070 -1.2698
 2872TIP3   OH2 8621   2.149   4.097   2.832  0.2098 -0.3370  0.2606
 2872TIP3    H1 8622   2.057   4.087   2.856  0.1063  0.4844  0.2217
 2872TIP3    H2 8623   2.152   4.077   2.739  0.3678 -2.0553  0.5950
 2873TIP3   OH2 8624   4.767   2.140   0.478 -0.0276  0.0502  0.0391
 2873TIP3    H1 8625   4.779   2.152   0.384  1.0896  0.4709  0.2139
 2873TIP3    H2 8626   4.769   2.046   0.491  1.5353  0.0183 -0.1884
 2874TIP3   OH2 8627   4.647   2.685   5.095  0.0239 -0.1755 -0.0310
 2874TIP3    H1 8628   4.713   2.649   5.154 -0.7346 -0.7827  0.4603
 2874TIP3    H2 8629   4.576   2.621   5.097 -1.8243  1.8312  1.6641
 2875TIP3   OH2 8630   0.535   2.709   3.998  0.1933  0.3931  0.1861
 2875TIP3    H1 8631   0.471   2.775   4.022  0.5636  0.3902  1.2121
 2875TIP3    H2 8632   0.486   2.627   3.997 -0.1216  0.5833 -0.4387
 2876TIP3   OH2 8633   1.281   4.219   2.436 -0.8908  0.0979  0.5330
 2876TIP3    H1 8634   1.213   4.249   2.375 -0.7292  1.5925  1.0527
 2876TIP3    H2 8635   1.314   4.299   2.476  0.7905 -0.6570  0.7177
 2877TIP3   OH2 8636   3.617   3.167   4.144 -0.1572 -0.1745 -0.1106
 2877TIP3    H1 8637   3.613   3.176   4.049 -1.2336  0.8961  0.0017
 2877TIP3    H2 8638   3.592   3.254   4.177 -0.0264 -0.5904  1.1448
 2878TIP3   OH2 8639   4.962   2.800   3.792 -0.4173  0.6144  0.1382
 2878TIP3    H1 8640   5.033   2.811   3.728  1.1911  0.7975  1.8508
 2878TIP3    H2 8641   4.980   2.716   3.834 -1.2050  0.6741  0.6157
 2879TIP3   OH2 8642   4.577   4.143   3.707  0.2506 -0.3668 -0.2904
 2879TIP3    H1 8643   4.511   4.199   3.666 -0.4110 -1.1667 -0.3477
 2879TIP3    H2 8644   4.627   4.203   3.762 -0.8742  0.1831  0.1863
 2880TIP3   OH2 8645   3.356   3.827   0.456  0.2824 -0.0076  0.5238
 2880TIP3    H1 8646   3.447   3.826   0.488  0.2893  2.0040  0.6767
 2880TIP3    H2 8647   3.358   3.885   0.380 -0.7345 -0.6508 -0.0173
 2881TIP3   OH2 8648   3.980   5.122   2.971 -0.8281 -0.1177 -0.0421
 2881TIP3    H1 8649   3.911   5.163   3.023 -1.1500 -1.5829  0.7577
 2881TIP3    H2 8650   4.040   5.085   3.036 -0.2260 -0.3619 -0.7261
 2882TIP3   OH2 8651   5.893   5.815   2.141  0.4011 -0.1000  0.0529
 2882TIP3    H1 8652   5.906   5.726   2.109 -1.3587 -0.8394  1.2269
 2882TIP3    H2 8653   5.827   5.852   2.082  2.0234  0.9217 -1.2058
 2883TIP3   OH2 8654   0.415  -0.032   4.186  0.0074  0.1968 -0.3848
 2883TIP3    H1 8655   0.383  -0.003   4.100 -0.6151  0.9262  0.0834
 2883TIP3    H2 8656   0.465   0.042   4.219 -0.1884  0.1107  0.1074
 2884TIP3   OH2 8657   2.202   4.462   3.712  0.0609  0.0041 -0.5327
 2884TIP3    H1 8658   2.269   4.525   3.685  1.2509 -1.2086 -0.5132
 2884TIP3    H2 8659   2.196   4.473   3.807  0.8647 -0.4499 -0.4171
 2885TIP3   OH2 8660   5.675   4.761   2.524 -0.0751 -0.2551  0.5923
 2885TIP3    H1 8661   5.710   4.786   2.438  0.1526  0.0862  0.7802
 2885TIP3    H2 8662   5.753   4.739   2.575 -0.1510  0.3294  0.9599
 2886TIP3   OH2 8663   2.931   5.516   4.363 -0.3104 -0.0261  0.3644
 2886TIP3    H1 8664   3.008   5.518   4.306 -0.7675  3.0199 -0.3398
 2886TIP3    H2 8665   2.862   5.476   4.309 -0.0610  0.3795 -0.2612
 2887TIP3   OH2 8666   3.426   3.746   4.866 -0.5278 -0.1309  0.2826
 2887TIP3    H1 8667   3.466   3.682   4.807 -1.4096 -0.6371  0.2087
 2887TIP3    H2 8668   3.380   3.807   4.807 -2.1998 -1.1725  0.4284
 2888TIP3   OH2 8669   1.714   3.727   0.120  0.4828 -0.8615 -0.1675
 2888TIP3    H1 8670   1.700   3.822   0.115 -1.1904 -1.0498  0.3240
 2888TIP3    H2 8671   1.636   3.693   0.164  1.8864 -2.2877  1.3737
 2889TIP3   OH2 8672   2.397   3.916   2.774  0.6036 -0.3535 -0.0661
 2889TIP3    H1 8673   2.367   3.992   2.724  2.6312 -0.0860 -0.9690
 2889TIP3    H2 8674   2.425   3.953   2.858 -2.4054 -0.7486  1.2422
 2890TIP3   OH2 8675   0.841   0.717   3.093 -0.0811 -0.0956 -0.7543
 2890TIP3    H1 8676   0.769   0.662   3.123  0.7659 -1.2717 -0.8224
 2890TIP3    H2 8677   0.824   0.729   2.999  0.2255 -1.0226 -0.9327
 2891TIP3   OH2 8678   3.058   3.014   1.291  0.3234 -0.4488  0.4812
 2891TIP3    H1 8679   2.994   3.082   1.311  0.3145 -0.6173  1.0301
 2891TIP3    H2 8680   3.121   3.056   1.232 -0.6929 -0.4936 -0.6714
 2892TIP3   OH2 8681   1.980   2.374   1.203  0.7189  0.4545  0.1191
 2892TIP3    H1 8682   2.044   2.441   1.179  0.4294  0.5019 -0.5349
 2892TIP3    H2 8683   1.989   2.365   1.298  3.5805 -1.4415 -0.1853
 2893TIP3   OH2 8684   2.765   4.837   2.216  0.6728  0.6713  0.0958
 2893TIP3    H1 8685   2.783   4.775   2.145 -0.6249 -0.9780  1.1434
 2893TIP3    H2 8686   2.672   4.857   2.208  0.8624  1.7716  0.3685
 2894TIP3   OH2 8687   3.780   4.332   2.094  0.0839  0.2304 -0.1092
 2894TIP3    H1 8688   3.699   4.281   2.100  0.0838  0.2998  0.5394
 2894TIP3    H2 8689   3.784   4.380   2.176  0.7500  0.2844 -0.1689
 2895TIP3   OH2 8690   5.194   4.477   0.425  0.3444 -0.3888  0.2082
 2895TIP3    H1 8691   5.243   4.447   0.502 -0.3105 -1.7184  0.1402
 2895TIP3    H2 8692   5.114   4.516   0.461  0.4839 -0.1343  0.2411
 2896TIP3   OH2 8693   0.991   2.350   4.919  0.3118 -0.2641  0.2242
 2896TIP3    H1 8694   0.921   2.400   4.876 -1.3813 -1.3959  1.5171
 2896TIP3    H2 8695   1.052   2.417   4.950 -0.2337  0.7762 -0.8599
 2897TIP3   OH2 8696   4.438   1.507   1.151  0.5285 -0.5714  0.4553
 2897TIP3    H1 8697   4.493   1.483   1.076  1.1597  1.1389  0.3287
 2897TIP3    H2 8698   4.483   1.469   1.227 -0.1478 -2.3649  0.0076
 2898TIP3   OH2 8699   6.112   0.357   0.924 -0.2676 -0.0964  0.2729
 2898TIP3    H1 8700   6.083   0.299   0.995  0.7609  1.2600  1.8978
 2898TIP3    H2 8701   6.200   0.326   0.902 -1.3365 -1.7995 -1.9394
 2899TIP3   OH2 8702   4.604   0.159   3.408  0.2105  0.0259 -0.2300
 2899TIP3    H1 8703   4.598   0.102   3.331  0.4795  0.3381 -0.4848
 2899TIP3    H2 8704   4.568   0.242   3.378 -2.5961 -0.6970  0.8605
 2900TIP3   OH2 8705   5.438   3.257   1.761 -0.2469  0.2605  0.0603
 2900TIP3    H1 8706   5.387   3.243   1.841 -0.7916 -1.2692 -0.5264
 2900TIP3    H2 8707   5.521   3.292   1.792  0.1478 -1.7482  1.4588
 2901TIP3   OH2 8708   2.413   4.745   5.086  0.3548  0.5604  0.5146
 2901TIP3    H1 8709   2.463   4.788   5.016  0.1956  0.7194  0.4991
 2901TIP3    H2 8710   2.444   4.655   5.085  1.6844  0.9678  1.4427
 2902TIP3   OH2 8711   5.474   4.802   0.431  0.0158  0.0816  0.3604
 2902TIP3    H1 8712   5.487   4.719   0.385  1.2179  0.7585 -0.5518
 2902TIP3    H2 8713   5.507   4.786   0.519 -1.7626 -1.0402  0.8953
 2903TIP3   OH2 8714   1.505   1.659   1.557 -0.0914  0.3301  0.0642
 2903TIP3    H1 8715   1.583   1.679   1.506  0.2809 -1.9872 -0.3557
 2903TIP3    H2 8716   1.432   1.685   1.500  0.3432  1.1464 -0.1350
 2904TIP3   OH2 8717   1.592   2.532   2.693 -0.0914  0.5442  0.1571
 2904TIP3    H1 8718   1.589   2.622   2.659  0.9755  0.0345 -1.3802
 2904TIP3    H2 8719   1.660   2.534   2.760 -0.6687  1.0605  0.7452
 2905TIP3   OH2 8720   2.198   1.727  -0.000  0.3876 -0.3771  0.0185
 2905TIP3    H1 8721   2.209   1.756   0.091  0.5419  1.9153 -0.6524
 2905TIP3    H2 8722   2.269   1.664  -0.014  1.2474  0.3059  1.0959
 2906TIP3   OH2 8723   3.292   2.071   1.954 -0.0899  0.1979 -0.3217
 2906TIP3    H1 8724   3.266   2.118   2.034 -2.0188 -0.1500 -0.7053
 2906TIP3    H2 8725   3.265   1.981   1.969 -1.3243  0.3008 -1.7042
 2907TIP3   OH2 8726   4.270   1.309   3.512 -0.2412 -0.6750 -0.2687
 2907TIP3    H1 8727   4.337   1.283   3.576 -0.0600 -2.0294 -0.9776
 2907TIP3    H2 8728   4.201   1.350   3.564  0.5761 -0.3814  0.6103
 2908TIP3   OH2 8729   2.251   5.872   4.489 -0.2392  0.3938  0.4208
 2908TIP3    H1 8730   2.314   5.803   4.511 -1.4439  0.0009  2.9112
 2908TIP3    H2 8731   2.183   5.828   4.439 -0.9919 -0.2798  1.9825
 2909TIP3   OH2 8732   1.804   4.751   2.205  0.3661  1.2142 -0.0958
 2909TIP3    H1 8733   1.835   4.765   2.116  1.0771 -0.3045 -0.1134
 2909TIP3    H2 8734   1.883   4.754   2.259  0.9605 -3.7964 -0.2718
 2910TIP3   OH2 8735   6.308   4.659   4.655  0.5500  0.1348  0.0808
 2910TIP3    H1 8736   6.403   4.668   4.645  0.8296 -0.9100  1.4653
 2910TIP3    H2 8737   6.294   4.564   4.655 -0.4149  0.2686  0.5604
 2911TIP3   OH2 8738   4.360   1.692   3.351  0.3504  0.7141  0.2473
 2911TIP3    H1 8739   4.371   1.663   3.260  0.4776  0.8333  0.2245
 2911TIP3    H2 8740   4.269   1.720   3.356  0.4439  1.0512  0.0599
 2912TIP3   OH2 8741   4.840   0.880   0.206  0.3959 -0.2596 -0.4923
 2912TIP3    H1 8742   4.807   0.793   0.186  0.1610 -1.2427  3.4942
 2912TIP3    H2 8743   4.929   0.866   0.236 -0.0805  0.6065  1.4930
 2913TIP3   OH2 8744   3.620   5.336   3.854 -0.0542  0.6540 -0.1682
 2913TIP3    H1 8745   3.545   5.355   3.797  0.9362  1.8206 -1.1398
 2913TIP3    H2 8746   3.656   5.422   3.875  0.7806  0.1274  0.6229
 2914TIP3   OH2 8747   0.671   4.799   3.620  0.7919 -0.1699 -0.4943
 2914TIP3    H1 8748   0.702   4.785   3.709 -1.4566  2.1686  0.7967
 2914TIP3    H2 8749   0.742   4.844   3.576  0.2709  3.2324  1.7421
 2915TIP3   OH2 8750   4.279   2.809   2.920 -0.0681 -0.4018 -0.3502
 2915TIP3    H1 8751   4.286   2.721   2.956 -1.0540  0.1541  1.2994
 2915TIP3    H2 8752   4.194   2.810   2.876 -0.5876  0.0546  0.6433
 2916TIP3   OH2 8753   0.470   2.032   0.137  0.3255 -0.4988  0.0031
 2916TIP3    H1 8754   0.546   1.975   0.150  1.6806  1.0956 -0.4908
 2916TIP3    H2 8755   0.492   2.112   0.184 -1.2810 -0.1700  0.2428
 2917TIP3   OH2 8756   2.624   2.959   4.195  0.2651  0.4711  0.3277
 2917TIP3    H1 8757   2.685   3.029   4.174  1.3220 -0.4820  0.1302
 2917TIP3    H2 8758   2.655   2.884   4.144 -1.5287  0.1605 -0.3719
 2918TIP3   OH2 8759   4.526   2.907   2.323  0.2335 -0.4454 -0.0513
 2918TIP3    H1 8760   4.475   2.826   2.313 -1.1923  0.5872 -1.5577
 2918TIP3    H2 8761   4.617   2.878   2.316 -0.2038 -2.0268  0.2682
 2919TIP3   OH2 8762   2.597   3.597   4.150  0.1573 -0.2865 -0.8562
 2919TIP3    H1 8763   2.530   3.601   4.083  0.6528 -0.1843 -1.3529
 2919TIP3    H2 8764   2.549   3.599   4.233 -0.5012 -1.0857 -1.2034
 2920TIP3   OH2 8765   5.823   5.009   1.764 -0.1369 -0.4644 -0.5006
 2920TIP3    H1 8766   5.816   4.932   1.820 -0.6630 -0.3281 -0.3709
 2920TIP3    H2 8767   5.880   4.982   1.692 -0.5319 -1.0602 -0.5927
 2921TIP3   OH2 8768   0.013   1.253   0.236  0.1515 -0.7813 -0.0409
 2921TIP3    H1 8769   0.073   1.187   0.201  1.1206  0.9944 -1.9489
 2921TIP3    H2 8770   0.012   1.323   0.170 -2.6243  0.1103  0.7828
 2922TIP3   OH2 8771   1.013   3.268   4.519  0.4186 -0.5822  0.7365
 2922TIP3    H1 8772   0.991   3.200   4.455  0.8265  0.0527 -0.1054
 2922TIP3    H2 8773   0.955   3.341   4.497  0.7736 -0.2492  0.9019
 2923TIP3   OH2 8774   1.981   3.256   1.734 -0.3571 -0.5746 -0.8422
 2923TIP3    H1 8775   1.893   3.255   1.772  0.5541 -2.0928  1.3964
 2923TIP3    H2 8776   2.005   3.164   1.726  1.2931 -0.1901 -0.7538
 2924TIP3   OH2 8777   6.138   6.010   4.157 -0.1287  0.4739 -0.0568
 2924TIP3    H1 8778   6.192   6.031   4.233  0.8660 -0.2977 -0.5103
 2924TIP3    H2 8779   6.142   5.914   4.152  0.5671  0.5580 -1.5764
 2925TIP3   OH2 8780   3.433   0.103   4.005  0.0144  0.6085  0.0268
 2925TIP3    H1 8781   3.510   0.127   3.955 -0.0643  1.6128  0.3737
 2925TIP3    H2 8782   3.448   0.139   4.092 -0.5743  0.2853  0.2752
 2926TIP3   OH2 8783   0.265   0.371   1.127 -0.3983 -0.2584 -1.0126
 2926TIP3    H1 8784   0.255   0.465   1.116  1.1861  0.0417 -0.1092
 2926TIP3    H2 8785   0.352   0.352   1.091  0.3482 -0.9519  1.0436
 2927TIP3   OH2 8786   0.271   5.622   5.086  0.3000  0.5544  0.2195
 2927TIP3    H1 8787   0.301   5.711   5.069 -1.1423  0.9534 -0.3710
 2927TIP3    H2 8788   0.322   5.593   5.162 -0.6632  2.6401  1.7417
 2928TIP3   OH2 8789   5.242   1.761   2.428  0.2229  0.0304 -0.5535
 2928TIP3    H1 8790   5.327   1.793   2.460  0.0395 -1.0315  1.1371
 2928TIP3    H2 8791   5.248   1.769   2.333  2.4236 -0.4909 -0.5241
 2929TIP3   OH2 8792   6.118   0.408   4.630 -0.1579  0.1658 -0.9571
 2929TIP3    H1 8793   6.111   0.365   4.715 -3.1642 -0.2487 -1.2953
 2929TIP3    H2 8794   6.117   0.336   4.567  1.0141  0.5167 -1.4005
 2930TIP3   OH2 8795   5.683   3.135   2.054 -0.6635 -0.0113 -0.0885
 2930TIP3    H1 8796   5.649   3.121   2.143 -1.1979 -0.1013 -0.3008
 2930TIP3    H2 8797   5.776   3.113   2.060 -0.5167  0.7806  0.6401
 2931TIP3   OH2 8798   3.097   5.208   0.312  0.2085  0.5118  0.1224
 2931TIP3    H1 8799   3.104   5.171   0.224 -1.3078  2.2114 -0.7860
 2931TIP3    H2 8800   3.186   5.234   0.334  0.6586 -0.1690 -0.8016
 2932TIP3   OH2 8801   0.990   4.544   0.695  0.4371 -0.1177 -0.3673
 2932TIP3    H1 8802   0.910   4.591   0.674 -0.1913 -0.2491  1.5692
 2932TIP3    H2 8803   0.962   4.471   0.751  1.9073  0.0015  0.5908
 2933TIP3   OH2 8804   3.889   1.615   4.394 -0.2970  0.1446 -0.4686
 2933TIP3    H1 8805   3.974   1.573   4.402 -0.3900  0.1289  0.6171
 2933TIP3    H2 8806   3.893   1.663   4.311  0.7405  0.0962 -0.4585
 2934TIP3   OH2 8807   1.190   4.333   1.219 -0.6581 -0.2836 -0.4446
 2934TIP3    H1 8808   1.208   4.298   1.306 -2.5435 -0.3917 -0.0502
 2934TIP3    H2 8809   1.276   4.342   1.178  0.1363 -1.9284  0.7628
 2935TIP3   OH2 8810   2.231   2.580   1.419  0.1398 -0.1673 -0.1499
 2935TIP3    H1 8811   2.155   2.526   1.441 -0.5561  1.6443  2.4444
 2935TIP3    H2 8812   2.197   2.647   1.361 -0.1543  0.3042  0.5506
 2936TIP3   OH2 8813   2.686   2.140   4.591 -0.2885 -0.2660  0.0015
 2936TIP3    H1 8814   2.657   2.221   4.549  1.2616 -0.3118 -1.2522
 2936TIP3    H2 8815   2.694   2.077   4.519 -2.2751 -1.8497  1.0514
 2937TIP3   OH2 8816   2.086   1.182   3.423 -0.2794 -0.3078  0.2150
 2937TIP3    H1 8817   2.091   1.093   3.387 -2.3076 -1.0792  1.6606
 2937TIP3    H2 8818   2.119   1.173   3.513 -0.0300  0.5290  0.2147
 2938TIP3   OH2 8819   0.698   1.859   0.159 -0.3482 -0.2482 -0.4717
 2938TIP3    H1 8820   0.692   1.863   0.254 -3.7097  0.9096 -0.5987
 2938TIP3    H2 8821   0.722   1.768   0.141 -0.2936 -0.6674  1.4636
 2939TIP3   OH2 8822   1.841   5.481   3.621 -0.5063  0.0531  0.1832
 2939TIP3    H1 8823   1.924   5.437   3.638  0.4355  0.5529 -2.5449
 2939TIP3    H2 8824   1.861   5.574   3.630 -0.7817  0.1704 -0.3684
 2940TIP3   OH2 8825   1.400   4.593   0.011  0.1075  0.0193 -0.3567
 2940TIP3    H1 8826   1.359   4.534   0.074  0.0106  0.0686 -0.3733
 2940TIP3    H2 8827   1.471   4.635   0.060  2.0442 -2.1849 -1.0683
 2941TIP3   OH2 8828   5.843   3.262   3.076  0.0038  0.0156 -0.2404
 2941TIP3    H1 8829   5.838   3.352   3.109  0.2588  0.1781 -0.6467
 2941TIP3    H2 8830   5.786   3.262   2.999 -0.8142 -0.4352  0.3458
 2942TIP3   OH2 8831   2.690   5.567   2.066 -0.7698 -0.2645 -0.0262
 2942TIP3    H1 8832   2.668   5.651   2.025  0.4343 -0.2977 -0.7895
 2942TIP3    H2 8833   2.658   5.501   2.005  0.9330 -0.3143 -0.9416
 2943TIP3   OH2 8834   0.954   3.643   2.606  0.1804 -0.2887  0.0640
 2943TIP3    H1 8835   0.928   3.636   2.698 -0.0799 -1.5376 -0.0797
 2943TIP3    H2 8836   0.883   3.692   2.565 -0.0258 -0.2967  0.4031
 2944TIP3   OH2 8837   1.168   0.013   2.528 -0.0941  0.2708 -0.0984
 2944TIP3    H1 8838   1.206   0.100   2.538  1.1839 -0.3369  0.5950
 2944TIP3    H2 8839   1.082   0.019   2.569  0.5491  0.8639  1.2309
 2945TIP3   OH2 8840   2.838   5.782   0.319 -0.0109  0.0791  0.3477
 2945TIP3    H1 8841   2.804   5.700   0.282  0.4881 -0.1854  0.4597
 2945TIP3    H2 8842   2.826   5.847   0.250 -1.0734  0.0723  0.5218
 2946TIP3   OH2 8843   1.931   0.419   1.348  0.1960  0.0993 -0.1613
 2946TIP3    H1 8844   1.897   0.370   1.423 -0.0902 -0.7056 -0.8054
 2946TIP3    H2 8845   2.008   0.369   1.320  0.2616  0.3568 -0.4490
 2947TIP3   OH2 8846   4.742   1.363   2.383 -0.3955  0.7100  0.3177
 2947TIP3    H1 8847   4.707   1.289   2.334  1.7546  0.0698 -0.3848
 2947TIP3    H2 8848   4.812   1.325   2.437 -2.2948  1.4702  3.5864
 2948TIP3   OH2 8849   3.008   1.162   1.152  0.2343 -0.1251 -0.2930
 2948TIP3    H1 8850   2.976   1.206   1.073 -0.4013  1.0268  0.5677
 2948TIP3    H2 8851   2.976   1.072   1.145 -0.5009  0.1834 -0.9607
 2949TIP3   OH2 8852   3.068   2.390   1.582 -0.0975 -0.1171  0.3582
 2949TIP3    H1 8853   3.071   2.297   1.559  0.8450  0.5178 -2.4656
 2949TIP3    H2 8854   3.006   2.428   1.520 -0.3363  1.2126  1.3546
 2950TIP3   OH2 8855   2.422   2.542   2.658 -0.0851 -0.0613 -0.1937
 2950TIP3    H1 8856   2.489   2.516   2.721 -0.2122 -2.2451 -0.8973
 2950TIP3    H2 8857   2.471   2.570   2.581  0.0321  1.3491  0.3497
 2951TIP3   OH2 8858   1.437   2.142   0.653  0.0680 -0.1542  0.0498
 2951TIP3    H1 8859   1.501   2.072   0.644 -0.6101 -0.8287  0.3739
 2951TIP3    H2 8860   1.385   2.138   0.573  1.9609  2.0224 -1.4079
 2952TIP3   OH2 8861   0.515   4.226   4.219  0.0686 -0.2583 -0.4225
 2952TIP3    H1 8862   0.474   4.162   4.276 -0.0508  0.2479  0.0619
 2952TIP3    H2 8863   0.469   4.308   4.237  2.3251  0.7223  1.3710
 2953TIP3   OH2 8864   3.576   3.916   1.249 -0.0475  0.1049  0.3475
 2953TIP3    H1 8865   3.641   3.950   1.311  2.1400  0.1878 -1.8135
 2953TIP3    H2 8866   3.525   3.992   1.224 -0.2627  0.2663  1.2452
 2954TIP3   OH2 8867   4.915   0.217   0.928  0.1717 -0.1520 -0.3322
 2954TIP3    H1 8868   4.908   0.205   0.833 -0.3119 -0.9257 -0.2055
 2954TIP3    H2 8869   4.925   0.312   0.939 -0.0802 -0.0213 -1.1318
 2955TIP3   OH2 8870   4.348   5.883   3.814 -0.1356  0.3399  0.1262
 2955TIP3    H1 8871   4.328   5.896   3.721 -0.6701 -0.7149  0.0732
 2955TIP3    H2 8872   4.292   5.810   3.840 -0.6178  1.1740  1.5022
 2956TIP3   OH2 8873   3.179   1.514   0.480  0.1433 -0.3597  1.0174
 2956TIP3    H1 8874   3.152   1.598   0.518  0.5078 -0.0206  0.5281
 2956TIP3    H2 8875   3.096   1.471   0.456 -0.0107  0.2915  0.3416
 2957TIP3   OH2 8876   5.900   5.051   0.115 -0.1259  0.1519  0.4863
 2957TIP3    H1 8877   5.900   5.005   0.198  1.8919  1.1703  1.0961
 2957TIP3    H2 8878   5.974   5.015   0.067 -2.3111 -1.7679 -1.7473
 2958TIP3   OH2 8879   1.044   3.631   4.412  0.4058 -0.4149  0.2087
 2958TIP3    H1 8880   1.014   3.721   4.394  0.2406 -0.2866  1.0825
 2958TIP3    H2 8881   0.973   3.576   4.382 -0.3362 -0.1509  1.3922
 2959TIP3   OH2 8882   2.976   1.079   0.104  0.4428 -0.7745  0.4147
 2959TIP3    H1 8883   2.898   1.119   0.143 -0.6978 -0.7275 -1.8096
 2959TIP3    H2 8884   2.951   0.989   0.085  0.5185 -0.4598 -1.3187
 2960TIP3   OH2 8885   3.182   0.792   1.939  0.1445 -0.5553 -0.2077
 2960TIP3    H1 8886   3.264   0.783   1.988  0.0817  2.5862  0.7113
 2960TIP3    H2 8887   3.209   0.787   1.847  0.9072 -2.2904  0.0781
 2961TIP3   OH2 8888   2.353   1.796   1.164 -0.0892 -0.5653 -0.9507
 2961TIP3    H1 8889   2.447   1.789   1.146  0.0478 -1.9395  0.1301
 2961TIP3    H2 8890   2.347   1.863   1.233 -0.1949  1.3942 -2.7559
 2962TIP3   OH2 8891   4.750   2.726   4.540 -0.4176 -0.5905  0.4566
 2962TIP3    H1 8892   4.695   2.710   4.616 -0.0457  1.0301  1.1158
 2962TIP3    H2 8893   4.823   2.665   4.549 -0.6342 -0.7587  1.1291
 2963TIP3   OH2 8894   4.872   2.975   1.551  0.1017 -0.2218  0.5618
 2963TIP3    H1 8895   4.930   2.995   1.478  0.9166  0.6098  1.3969
 2963TIP3    H2 8896   4.900   2.889   1.582 -0.8992 -1.0205 -0.6982
 2964TIP3   OH2 8897   0.978   5.321   0.773 -0.1079  0.1869 -0.5901
 2964TIP3    H1 8898   0.889   5.345   0.800 -0.6421 -0.2457 -1.8705
 2964TIP3    H2 8899   1.035   5.361   0.838 -1.2515  0.3252  0.3598
 2965TIP3   OH2 8900   3.417   5.751   4.141  0.0120  0.0985  0.3257
 2965TIP3    H1 8901   3.356   5.821   4.121  0.1051  0.0555 -0.1109
 2965TIP3    H2 8902   3.364   5.686   4.188  0.1166  0.8299  1.4859
 2966TIP3   OH2 8903   6.189   1.297   0.641 -0.1993 -0.5116  0.2091
 2966TIP3    H1 8904   6.241   1.346   0.706  0.3555 -2.3513  1.2233
 2966TIP3    H2 8905   6.105   1.282   0.684  0.0177 -1.3598  0.3561
 2967TIP3   OH2 8906   5.088   0.220   4.741  0.3199 -0.2378  0.3720
 2967TIP3    H1 8907   5.149   0.290   4.762 -0.4518  0.4775  0.2719
 2967TIP3    H2 8908   5.094   0.160   4.816  1.9297 -0.7621 -0.1322
 2968TIP3   OH2 8909   4.110   1.850   3.372  0.2488  0.0403 -0.0370
 2968TIP3    H1 8910   4.030   1.797   3.377  0.4965 -0.6517 -2.1436
 2968TIP3    H2 8911   4.105   1.909   3.447 -2.3253  0.1261 -0.2012
 2969TIP3   OH2 8912   5.151   0.942   2.729  0.3484  0.3428 -0.0963
 2969TIP3    H1 8913   5.196   1.004   2.787  0.6667 -0.0856  0.1262
 2969TIP3    H2 8914   5.062   0.936   2.764 -0.0025  1.4650 -0.7488
 2970TIP3   OH2 8915   1.129   1.531   5.075 -0.7203  0.7891 -0.5144
 2970TIP3    H1 8916   1.219   1.536   5.107 -0.1341 -0.6812 -1.8183
 2970TIP3    H2 8917   1.077   1.506   5.152  0.0158  1.3770  0.1863
 2971TIP3   OH2 8918   0.996   1.355   0.232 -0.0833  0.1104  0.4148
 2971TIP3    H1 8919   1.000   1.261   0.247  1.8858  0.3087  1.3954
 2971TIP3    H2 8920   1.082   1.378   0.197 -0.8358  1.4217 -0.6810
 2972TIP3   OH2 8921   5.050   4.928   3.155 -0.3699  0.0181 -0.0584
 2972TIP3    H1 8922   5.044   5.019   3.186 -0.2120  0.6362 -1.7396
 2972TIP3    H2 8923   5.144   4.912   3.147 -0.3312 -0.8341  1.6249
 2973TIP3   OH2 8924   0.718   5.177   5.012 -0.3729 -0.2421  0.2000
 2973TIP3    H1 8925   0.697   5.167   4.919 -1.1736  1.3665  0.1726
 2973TIP3    H2 8926   0.679   5.100   5.053 -1.5052 -0.1239 -0.6009
 2974TIP3   OH2 8927   0.843   2.068   1.908  0.1562 -0.3052 -0.2723
 2974TIP3    H1 8928   0.778   2.002   1.933  0.1114  0.1553  0.9158
 2974TIP3    H2 8929   0.791   2.145   1.884  0.2234  0.1356  0.8883
 2975TIP3   OH2 8930   4.991   2.586   0.137 -0.1197 -0.2708 -0.3329
 2975TIP3    H1 8931   4.957   2.666   0.176 -2.0821 -1.5783  0.8864
 2975TIP3    H2 8932   5.021   2.611   0.050  0.0223  1.8893  0.2866
 2976TIP3   OH2 8933   1.563   1.565   0.985 -0.4790 -0.2212 -0.0882
 2976TIP3    H1 8934   1.562   1.472   0.960  0.8440 -1.6024  4.1898
 2976TIP3    H2 8935   1.471   1.591   0.983 -0.7888 -1.1949 -2.4076
 2977TIP3   OH2 8936   1.549   1.707   2.360 -0.5385  0.1637 -0.4196
 2977TIP3    H1 8937   1.565   1.781   2.417  3.5466  0.6126 -1.7947
 2977TIP3    H2 8938   1.551   1.631   2.418  1.4214  0.7622  0.3805
 2978TIP3   OH2 8939   4.153   4.261   2.932 -0.0979 -0.2302  0.2065
 2978TIP3    H1 8940   4.088   4.211   2.982 -0.0927  1.3359  1.8782
 2978TIP3    H2 8941   4.101   4.322   2.880 -0.0513  1.6031  2.1719
 2979TIP3   OH2 8942   4.096   5.338   2.857  0.3577  0.1712  0.3248
 2979TIP3    H1 8943   4.024   5.365   2.800  0.5366 -1.0474 -0.5341
 2979TIP3    H2 8944   4.068   5.253   2.892  0.4793  0.6648  1.6763
 2980TIP3   OH2 8945   2.454   5.256   0.815 -0.5191 -0.1641  0.2576
 2980TIP3    H1 8946   2.517   5.326   0.831  0.2154 -0.6397 -0.4706
 2980TIP3    H2 8947   2.425   5.270   0.725  0.4750 -1.4190 -0.2955
 2981TIP3   OH2 8948   0.086   2.634   2.969 -0.0713  0.1082 -0.3651
 2981TIP3    H1 8949   0.057   2.675   3.051  1.1421 -1.0831  0.7101
 2981TIP3    H2 8950   0.123   2.706   2.918  0.7345  0.6117  0.8806
 2982TIP3   OH2 8951   0.876   2.153   5.081  0.0390  0.2133  0.4285
 2982TIP3    H1 8952   0.933   2.212   5.031  0.6643 -0.9420 -0.2479
 2982TIP3    H2 8953   0.840   2.093   5.016 -1.2070  0.3184  0.9939
 2983TIP3   OH2 8954   4.047   4.053   4.024 -0.4086  0.2589 -0.3387
 2983TIP3    H1 8955   3.982   4.076   3.957 -0.7960 -1.3520 -0.5633
 2983TIP3    H2 8956   4.079   3.967   3.997  0.8062  0.4084  0.5446
 2984TIP3   OH2 8957   3.713   0.884   0.085  0.2909  0.3249 -0.5125
 2984TIP3    H1 8958   3.678   0.874   0.173  2.3060 -0.1620  0.2791
 2984TIP3    H2 8959   3.709   0.796   0.047  2.5120 -0.2280  0.3692
 2985TIP3   OH2 8960   2.617   3.790   1.330  0.3932 -0.3108  0.5091
 2985TIP3    H1 8961   2.563   3.853   1.284  0.7846  0.4569  1.0807
 2985TIP3    H2 8962   2.670   3.842   1.390  3.4650 -0.7346 -1.6019
 2986TIP3   OH2 8963   4.904   2.698   1.609 -0.5475 -0.6332 -0.2567
 2986TIP3    H1 8964   4.941   2.655   1.532 -0.9791  0.3780 -1.0509
 2986TIP3    H2 8965   4.830   2.642   1.634 -1.0560 -0.4271 -1.2342
 2987TIP3   OH2 8966   5.915   1.751   2.995  0.1720  0.0298 -0.1243
 2987TIP3    H1 8967   5.934   1.752   3.089 -1.5733 -1.4378  0.2979
 2987TIP3    H2 8968   5.990   1.707   2.956 -0.1180 -1.4672  0.8999
 2988TIP3   OH2 8969   2.412   2.542   3.757  0.6713 -0.3898 -0.0308
 2988TIP3    H1 8970   2.369   2.595   3.690  0.6323 -2.6243 -1.8978
 2988TIP3    H2 8971   2.481   2.599   3.791 -1.6869  2.1708  0.8475
 2989TIP3   OH2 8972   2.373   5.180   3.742 -0.2431  0.0739 -0.0443
 2989TIP3    H1 8973   2.402   5.226   3.663  1.4144  0.5128  0.7924
 2989TIP3    H2 8974   2.391   5.088   3.723 -0.3824  0.1134 -0.3913
 2990TIP3   OH2 8975   6.082   3.356   2.613  0.1009 -0.0899 -0.4990
 2990TIP3    H1 8976   6.166   3.365   2.567 -0.0034 -0.6244 -0.7989
 2990TIP3    H2 8977   6.089   3.416   2.687  0.7049 -0.0395 -0.5928
 2991TIP3   OH2 8978   4.989   3.509   1.211  0.1100  0.0926  0.5709
 2991TIP3    H1 8979   5.057   3.446   1.187  0.2321  0.4784 -0.1210
 2991TIP3    H2 8980   4.907   3.460   1.202 -0.0519  0.7381 -2.7394
 2992TIP3   OH2 8981   5.659   4.504   0.155 -0.1732 -0.4268  0.6753
 2992TIP3    H1 8982   5.661   4.597   0.133 -0.7622 -0.4108  0.6798
 2992TIP3    H2 8983   5.656   4.502   0.251 -1.7027 -0.4070  0.6513
 2993TIP3   OH2 8984   2.837   3.662   2.993  0.2606 -0.1807  0.1349
 2993TIP3    H1 8985   2.911   3.653   3.054  0.6154  1.4863 -0.0074
 2993TIP3    H2 8986   2.860   3.605   2.920  1.1520 -0.1003  0.3382
 2994TIP3   OH2 8987   4.012   0.238   3.935  0.2191 -0.6129 -0.1769
 2994TIP3    H1 8988   4.007   0.246   4.030  0.4445  0.4471 -0.2458
 2994TIP3    H2 8989   4.042   0.324   3.905 -0.0226 -0.8787 -1.2197
 2995TIP3   OH2 8990   5.202   3.790   2.708  0.7829 -0.2634  0.6502
 2995TIP3    H1 8991   5.218   3.877   2.746  2.5194 -0.0576 -0.4361
 2995TIP3    H2 8992   5.287   3.746   2.714  0.0162 -1.7728  0.8516
 2996TIP3   OH2 8993   5.708   1.141   3.002 -0.0229 -0.3154 -0.0946
 2996TIP3    H1 8994   5.702   1.163   3.095 -0.6501 -2.4861  0.4303
 2996TIP3    H2 8995   5.795   1.103   2.992 -0.2745 -0.8803 -0.1916
 2997TIP3   OH2 8996   0.439   5.002   4.691  0.3522 -0.2483  0.1391
 2997TIP3    H1 8997   0.404   5.027   4.777 -2.1251 -3.1261  0.1299
 2997TIP3    H2 8998   0.426   5.079   4.636  0.9299  1.2660  1.9939
 2998TIP3   OH2 8999   6.315   1.815   2.759  0.6672 -0.7831 -0.3569
 2998TIP3    H1 9000   6.279   1.740   2.712  0.4018 -0.1834 -1.1230
 2998TIP3    H2 9001   6.389   1.780   2.807  0.2642 -1.6322 -0.3369
 2999TIP3   OH2 9002   5.578   3.457   3.328 -0.3662 -0.2810  0.2196
 2999TIP3    H1 9003   5.568   3.373   3.373 -2.5532 -0.9059 -1.2469
 2999TIP3    H2 9004   5.658   3.447   3.277 -0.4796 -1.4070  0.2321
 3000TIP3   OH2 9005   6.207   1.649   4.924 -0.3623 -0.1239 -0.1159
 3000TIP3    H1 9006   6.246   1.565   4.900  0.0429 -0.3672  1.2877
 3000TIP3    H2 9007   6.241   1.667   5.012  0.1978  1.9054 -0.6908
 3001TIP3   OH2 9008   3.352   1.224   4.530 -0.2422 -0.4125  0.0512
 3001TIP3    H1 9009   3.420   1.176   4.482  1.4729  0.5717  1.3816
 3001TIP3    H2 9010   3.391   1.310   4.548 -2.1184  0.4542  0.2847
 3002TIP3   OH2 9011   5.454   2.635   1.208 -0.1588  0.2174  0.2382
 3002TIP3    H1 9012   5.501   2.715   1.229  1.4293 -0.3855 -0.9089
 3002TIP3    H2 9013   5.362   2.662   1.204  0.3691  2.0484 -0.4978
 3003TIP3   OH2 9014   1.034   4.324   2.317  0.9391  0.2558  0.8504
 3003TIP3    H1 9015   1.041   4.346   2.224  0.9663 -2.2734  0.1593
 3003TIP3    H2 9016   0.996   4.401   2.358 -1.4064  0.5800 -1.6819
 3004TIP3   OH2 9017   6.021   4.315   1.744 -0.0490  0.0905  0.8805
 3004TIP3    H1 9018   6.067   4.392   1.708 -1.1029  1.0243  1.4549
 3004TIP3    H2 9019   6.090   4.263   1.785  0.7642  0.4460  0.0071
 3005TIP3   OH2 9020   2.895   5.368   0.373 -0.2549 -0.5222 -0.0616
 3005TIP3    H1 9021   2.975   5.316   0.380  0.2799  0.1119 -1.2086
 3005TIP3    H2 9022   2.869   5.385   0.463  1.3690 -0.0331  0.3504
 3006TIP3   OH2 9023   3.619   3.408   1.932 -0.0314  0.4829  0.1402
 3006TIP3    H1 9024   3.562   3.344   1.888 -2.2006  1.0341  1.9367
 3006TIP3    H2 9025   3.604   3.490   1.884  0.2704  0.3398 -0.1996
 3007TIP3   OH2 9026   2.812   3.186   1.632 -0.1323  0.6473 -0.4080
 3007TIP3    H1 9027   2.900   3.224   1.626 -0.0179  0.5031  0.2939
 3007TIP3    H2 9028   2.779   3.189   1.542  0.6396  0.5832 -0.7049
 3008TIP3   OH2 9029   1.976   5.680   1.771 -0.3506  0.0393 -0.5812
 3008TIP3    H1 9030   1.924   5.723   1.840 -0.6037  0.0575 -0.7778
 3008TIP3    H2 9031   2.009   5.753   1.718  1.6448  0.1751  0.7393
 3009TIP3   OH2 9032   4.889   4.282   0.120 -0.6738 -0.0488  0.3211
 3009TIP3    H1 9033   4.914   4.364   0.163  0.0333  0.3285 -0.7594
 3009TIP3    H2 9034   4.799   4.297   0.092 -0.8724 -0.0065  0.9717
 3010TIP3   OH2 9035   1.698   0.545   3.651 -0.2507 -0.0942 -0.1257
 3010TIP3    H1 9036   1.628   0.509   3.705  0.1170 -1.6234 -0.6129
 3010TIP3    H2 9037   1.775   0.493   3.674  0.0653 -0.3349 -1.6132
 3011TIP3   OH2 9038   0.146   0.137   4.227  0.7251  0.0015  0.7677
 3011TIP3    H1 9039   0.084   0.063   4.227 -1.2674  1.5844  0.2437
 3011TIP3    H2 9040   0.212   0.113   4.162  0.3623 -1.4916  0.9143
 3012TIP3   OH2 9041   3.716   3.772   0.077 -0.5932  0.0303  0.2998
 3012TIP3    H1 9042   3.654   3.837   0.044 -0.7660 -0.1903  0.1928
 3012TIP3    H2 9043   3.802   3.804   0.048 -0.4433  1.3348  2.0170
 3013TIP3   OH2 9044   5.028   5.482   4.306 -0.0803 -0.6263  0.2881
 3013TIP3    H1 9045   5.001   5.445   4.222 -1.0349  0.7395 -0.0446
 3013TIP3    H2 9046   4.965   5.446   4.369 -0.9370  0.2867 -0.0148
 3014TIP3   OH2 9047   4.322   4.580   3.816  0.1177 -0.2537 -0.3250
 3014TIP3    H1 9048   4.381   4.637   3.766 -0.7888  1.2419  0.2481
 3014TIP3    H2 9049   4.363   4.571   3.901 -0.3969  0.7078  0.0414
 3015TIP3   OH2 9050   3.628   2.530   0.189  0.0774 -0.0742 -0.2818
 3015TIP3    H1 9051   3.722   2.515   0.183  0.2924  1.2766 -0.7128
 3015TIP3    H2 9052   3.606   2.573   0.107 -0.8104  0.1514  0.0689
 3016TIP3   OH2 9053   5.593   0.192   1.318 -0.3633  0.2994  0.2760
 3016TIP3    H1 9054   5.662   0.243   1.360  0.7712 -1.4193  0.6269
 3016TIP3    H2 9055   5.632   0.105   1.306 -2.1179 -0.4293 -0.4984
 3017TIP3   OH2 9056   3.076   4.835   1.746 -0.1457  0.9409  0.6599
 3017TIP3    H1 9057   3.100   4.758   1.695 -0.9592  1.6948 -0.9401
 3017TIP3    H2 9058   3.061   4.802   1.834  0.5427 -0.5466  0.2461
 3018TIP3   OH2 9059   5.668   1.520   1.162 -0.8406 -0.0384  0.2609
 3018TIP3    H1 9060   5.582   1.480   1.178 -1.3294  0.0878 -1.8071
 3018TIP3    H2 9061   5.649   1.597   1.109  0.5118  0.4104  0.3874
 3019TIP3   OH2 9062   0.177   2.627   3.914  0.0017  0.2507  0.6329
 3019TIP3    H1 9063   0.223   2.707   3.890  0.4084 -0.5006 -1.3092
 3019TIP3    H2 9064   0.092   2.634   3.871  0.3026 -0.6423 -0.1384
 3020TIP3   OH2 9065   3.162   1.526   3.438 -0.1537 -0.2749  0.5317
 3020TIP3    H1 9066   3.146   1.514   3.344 -0.0944 -1.2034  0.6329
 3020TIP3    H2 9067   3.230   1.593   3.442  1.4053 -1.7117 -0.2032
 3021TIP3   OH2 9068   2.595   3.271   3.540 -0.1522  0.2207  0.1770
 3021TIP3    H1 9069   2.593   3.282   3.445 -0.9538 -0.7178  0.0735
 3021TIP3    H2 9070   2.686   3.285   3.564  0.1211  0.1330 -0.7723
 3022TIP3   OH2 9071   3.681   0.305   1.537  0.2080 -0.0952 -0.9349
 3022TIP3    H1 9072   3.635   0.388   1.530  0.1702 -0.1834 -1.8746
 3022TIP3    H2 9073   3.765   0.320   1.494  1.5066  0.3372  1.5363
 3023TIP3   OH2 9074   4.248   2.089   4.338 -0.0154  0.3017  0.7213
 3023TIP3    H1 9075   4.320   2.139   4.376 -0.3225  0.5966  0.9281
 3023TIP3    H2 9076   4.169   2.133   4.370 -0.3032 -0.6075  1.2902
 3024TIP3   OH2 9077   0.777   5.086   0.524 -0.4191  0.0394  0.8062
 3024TIP3    H1 9078   0.762   4.993   0.503  0.1821  0.0692  0.2133
 3024TIP3    H2 9079   0.869   5.090   0.548 -0.0696  0.7146 -0.5569
 3025TIP3   OH2 9080   3.026   3.433   1.557 -0.5121 -0.5695 -0.0838
 3025TIP3    H1 9081   3.108   3.386   1.567  0.2120  0.3766 -1.3590
 3025TIP3    H2 9082   2.986   3.395   1.478 -0.6612 -0.1259 -0.2239
 3026TIP3   OH2 9083   4.963   1.625   2.149 -0.0718 -0.4907  0.3682
 3026TIP3    H1 9084   5.000   1.540   2.173  0.1584 -0.4371  0.2082
 3026TIP3    H2 9085   4.928   1.612   2.061  3.1457  0.4987 -1.2007
 3027TIP3   OH2 9086   2.005   4.628   1.576 -0.5041  0.6094 -0.2683
 3027TIP3    H1 9087   2.058   4.697   1.616  0.3754 -0.2472  0.1194
 3027TIP3    H2 9088   2.061   4.550   1.581 -1.8441 -0.3556  0.2429
 3028TIP3   OH2 9089   2.990   3.677   4.390  0.0130  0.0455  0.2251
 3028TIP3    H1 9090   3.003   3.736   4.464  1.4467 -0.6693  0.5681
 3028TIP3    H2 9091   3.003   3.733   4.313  0.8248  0.3063  0.5371
 3029TIP3   OH2 9092   0.520   5.685   2.225  0.1001  0.1996  0.4079
 3029TIP3    H1 9093   0.495   5.734   2.304  1.9512  2.0390 -0.0371
 3029TIP3    H2 9094   0.478   5.732   2.153  1.7410  1.1121 -0.0119
 3030TIP3   OH2 9095   5.421   3.596   2.109 -0.4715 -0.2264 -0.4892
 3030TIP3    H1 9096   5.430   3.579   2.202 -0.6024 -1.9084 -0.7491
 3030TIP3    H2 9097   5.352   3.662   2.103 -1.5326 -1.2066  0.5373
 3031TIP3   OH2 9098   5.585   0.357   3.393 -0.0327  0.0010 -0.1093
 3031TIP3    H1 9099   5.598   0.411   3.315  0.6290  0.0162  0.0020
 3031TIP3    H2 9100   5.521   0.405   3.446  1.6791  1.5030  0.7141
 3032TIP3   OH2 9101   4.244   1.783   4.615  0.5445 -0.1049  0.4912
 3032TIP3    H1 9102   4.227   1.832   4.695  0.2055 -0.2482  0.5090
 3032TIP3    H2 9103   4.237   1.691   4.642 -0.7945 -0.1537  0.0479
 3033TIP3   OH2 9104   4.134   3.017   2.750 -0.1885 -0.6949  0.0757
 3033TIP3    H1 9105   4.227   3.042   2.742 -0.3257  0.3435  1.3097
 3033TIP3    H2 9106   4.107   3.055   2.833 -1.6488 -1.2762 -0.1133
 3034TIP3   OH2 9107   4.507   0.404   4.840 -0.1402 -0.3000  0.1278
 3034TIP3    H1 9108   4.441   0.446   4.785 -0.1531  0.8482  0.9903
 3034TIP3    H2 9109   4.459   0.337   4.889 -0.9521  1.2419  1.5576
 3035TIP3   OH2 9110   1.823   5.304   0.376 -0.0197  0.3461 -0.2419
 3035TIP3    H1 9111   1.893   5.275   0.318  1.9320  3.9830 -0.0000
 3035TIP3    H2 9112   1.867   5.331   0.456 -2.2791 -1.2620  1.6672
 3036TIP3   OH2 9113   2.783   1.812   1.370 -0.0289 -0.2578 -0.0968
 3036TIP3    H1 9114   2.743   1.880   1.424  0.0737  0.7940 -1.3148
 3036TIP3    H2 9115   2.855   1.856   1.324  1.0620 -1.5665  0.2803
 3037TIP3   OH2 9116   5.210   5.047   2.378  0.0800 -0.2316 -0.1025
 3037TIP3    H1 9117   5.293   5.002   2.391  0.7143  0.3544 -1.8764
 3037TIP3    H2 9118   5.179   5.017   2.293 -0.2974  1.4163 -0.5812
 3038TIP3   OH2 9119   0.872   1.483   2.948  0.1396 -0.1615  0.1533
 3038TIP3    H1 9120   0.935   1.539   2.902 -0.2516 -0.3019 -0.5687
 3038TIP3    H2 9121   0.889   1.395   2.913 -0.7623 -0.1246 -0.4039
 3039TIP3   OH2 9122   2.263   1.119   3.929 -0.1333 -0.0208 -0.1551
 3039TIP3    H1 9123   2.354   1.092   3.918  0.3383  1.7095 -0.9630
 3039TIP3    H2 9124   2.217   1.040   3.957  1.9577 -0.5258  2.1842
 3040TIP3   OH2 9125   4.314   1.291   0.494  0.1523 -1.0044 -0.1213
 3040TIP3    H1 9126   4.325   1.308   0.401 -0.1051 -3.2792 -0.6163
 3040TIP3    H2 9127   4.243   1.226   0.498  1.3587 -2.2916  1.5128
 3041TIP3   OH2 9128   0.859   5.368   2.339 -0.1304 -0.5936  0.1642
 3041TIP3    H1 9129   0.912   5.384   2.262 -0.8375 -0.9234 -0.4033
 3041TIP3    H2 9130   0.770   5.393   2.313 -0.3132 -0.3291  0.9949
 3042TIP3   OH2 9131   6.340   1.803   4.711 -0.0000 -0.3619 -0.6425
 3042TIP3    H1 9132   6.285   1.728   4.688 -0.9778  0.4954 -1.2069
 3042TIP3    H2 9133   6.403   1.809   4.639 -1.0591  0.4123 -1.5426
 3043TIP3   OH2 9134   2.565   1.050   3.957  0.4386 -0.1534 -0.2562
 3043TIP3    H1 9135   2.643   1.105   3.960  1.1559 -1.1171 -0.6283
 3043TIP3    H2 9136   2.576   0.996   3.879 -0.3897 -0.6243 -0.0651
 3044TIP3   OH2 9137   0.990   4.738   2.603  0.1586 -0.1378  0.0750
 3044TIP3    H1 9138   1.054   4.801   2.572  0.8591 -0.7418  0.2761
 3044TIP3    H2 9139   0.946   4.782   2.677 -1.3804  1.2290 -1.5633
 3045TIP3   OH2 9140   4.376   0.986   0.280 -0.2465 -0.1967 -0.4218
 3045TIP3    H1 9141   4.324   0.991   0.360  0.5694  1.8958  0.0125
 3045TIP3    H2 9142   4.464   0.965   0.309 -0.2457 -0.9436 -0.9248
 3046TIP3   OH2 9143   4.682   0.290   1.437  0.2926 -0.3661  0.0897
 3046TIP3    H1 9144   4.611   0.281   1.499  0.3522  1.6799  0.5215
 3046TIP3    H2 9145   4.648   0.253   1.355 -2.2123  2.5583 -0.3686
 3047TIP3   OH2 9146   1.202   0.686   4.146 -0.1507  0.2009  0.4921
 3047TIP3    H1 9147   1.173   0.661   4.058  0.3750  2.1388 -0.2861
 3047TIP3    H2 9148   1.133   0.655   4.204  0.1361 -2.3648 -0.3962
 3048TIP3   OH2 9149   1.991   0.275   3.069  0.1351 -0.0231 -0.3351
 3048TIP3    H1 9150   2.055   0.310   3.132  1.0447  0.2111 -1.3572
 3048TIP3    H2 9151   1.920   0.240   3.124  1.8053 -1.6790  0.9392
 3049TIP3   OH2 9152   0.690   4.189   4.900  0.1047 -0.5024  0.0008
 3049TIP3    H1 9153   0.761   4.245   4.930 -1.1498  0.8701  0.5246
 3049TIP3    H2 9154   0.731   4.104   4.887  1.8894  0.3051  0.0216
 3050TIP3   OH2 9155   5.962   1.443   4.404  0.1566 -0.2716  0.2871
 3050TIP3    H1 9156   5.871   1.436   4.433  0.2525  0.6264  0.8438
 3050TIP3    H2 9157   5.983   1.357   4.368 -0.7541 -0.6396  0.6212
 3051TIP3   OH2 9158   6.145   5.019   1.822  0.0006  0.3981 -0.3820
 3051TIP3    H1 9159   6.103   5.085   1.766 -1.3325  0.5874  0.7707
 3051TIP3    H2 9160   6.116   4.935   1.787  0.7514  0.4504 -1.1426
 3052TIP3   OH2 9161   0.708   3.142   4.999 -0.2292 -0.2279 -0.9199
 3052TIP3    H1 9162   0.639   3.189   5.046 -1.3652  0.1002 -2.8199
 3052TIP3    H2 9163   0.677   3.138   4.909  1.9235 -0.7298 -1.6874
 3053TIP3   OH2 9164   5.368   4.570   3.597 -0.0842 -0.1510 -0.1490
 3053TIP3    H1 9165   5.330   4.482   3.604 -1.9526  0.5616 -0.8439
 3053TIP3    H2 9166   5.354   4.595   3.506  0.3096  0.9127  0.0728
 3054TIP3   OH2 9167   0.097   0.371   2.484  0.0456  0.0634 -0.4915
 3054TIP3    H1 9168   0.064   0.282   2.490  1.3838 -0.4393 -0.2471
 3054TIP3    H2 9169   0.082   0.408   2.571  1.2913 -0.6024  0.0258
 3055TIP3   OH2 9170   2.056   3.459   1.539  0.8531  0.3606 -0.3900
 3055TIP3    H1 9171   2.021   3.394   1.600  0.3449 -0.2514 -1.3107
 3055TIP3    H2 9172   2.150   3.462   1.558  1.6331 -3.3123 -2.6205
 3056TIP3   OH2 9173   3.552   1.981   2.501  0.2597  0.4674  0.0721
 3056TIP3    H1 9174   3.581   1.904   2.550  2.5850  0.7704 -0.6758
 3056TIP3    H2 9175   3.557   1.954   2.409  1.3084  1.5351 -0.2088
 3057TIP3   OH2 9176   2.338   4.490   3.060 -0.2316 -0.2670 -0.2529
 3057TIP3    H1 9177   2.253   4.530   3.079 -1.3647 -1.3980 -2.5593
 3057TIP3    H2 9178   2.318   4.420   2.998  2.5019  0.0340 -1.6124
 3058TIP3   OH2 9179   5.424   3.446   0.628  0.1975 -0.0547  0.4119
 3058TIP3    H1 9180   5.436   3.497   0.549  1.1308 -1.0910 -0.1383
 3058TIP3    H2 9181   5.329   3.432   0.634 -0.2487  2.7701  1.2864
 3059TIP3   OH2 9182   1.539   0.228   0.078  0.8983  0.3521  0.5882
 3059TIP3    H1 9183   1.467   0.165   0.085  1.3156 -0.0019  2.2639
 3059TIP3    H2 9184   1.616   0.180   0.110  1.8298  0.8347 -0.8176
 3060TIP3   OH2 9185   1.387   3.666   5.111 -0.3995 -0.1155  0.6349
 3060TIP3    H1 9186   1.478   3.645   5.089 -0.2440  1.3893 -0.3106
 3060TIP3    H2 9187   1.379   3.643   5.204  0.7029 -1.0233  0.5283
 3061TIP3   OH2 9188   1.081   4.578   3.222 -0.4094  0.0979  0.3961
 3061TIP3    H1 9189   1.119   4.661   3.250  0.5113 -0.5240  1.0531
 3061TIP3    H2 9190   1.089   4.578   3.127 -0.0901  0.6126  0.4214
 3062TIP3   OH2 9191   5.483   4.643   2.908  0.2732 -0.4600 -0.2544
 3062TIP3    H1 9192   5.505   4.552   2.928  0.2502 -0.2613  0.7540
 3062TIP3    H2 9193   5.547   4.694   2.958 -0.3422  0.0782 -0.0059
 3063TIP3   OH2 9194   5.461   5.587   3.747  0.5440  0.4499  0.6326
 3063TIP3    H1 9195   5.507   5.641   3.683  3.3463 -1.4123  0.9089
 3063TIP3    H2 9196   5.374   5.574   3.710  1.0273  2.0552 -1.1907
 3064TIP3   OH2 9197   2.750   3.367   0.701 -0.2418  0.6571 -0.1064
 3064TIP3    H1 9198   2.833   3.407   0.674 -0.2082  0.7268  0.0975
 3064TIP3    H2 9199   2.684   3.412   0.647 -0.1217  0.4098 -0.4623
 3065TIP3   OH2 9200   6.067   2.766   2.342  0.1202 -0.3896 -0.6125
 3065TIP3    H1 9201   6.008   2.713   2.395 -1.1720  1.2031 -0.3787
 3065TIP3    H2 9202   6.048   2.742   2.252 -0.1601 -0.6173 -0.4936
 3066TIP3   OH2 9203   0.129   0.290   0.510 -0.4920 -0.0295  0.0825
 3066TIP3    H1 9204   0.058   0.260   0.567 -2.6355  1.6800 -1.4986
 3066TIP3    H2 9205   0.123   0.232   0.433 -1.1592  0.9884 -0.6604
 3067TIP3   OH2 9206   6.103   3.270   1.170  0.0044 -0.3022  0.1353
 3067TIP3    H1 9207   6.177   3.213   1.149  0.6521  0.6633 -0.2810
 3067TIP3    H2 9208   6.132   3.319   1.246  0.5761  1.4134 -1.1194
 3068TIP3   OH2 9209   3.554   1.750   5.201 -0.6968  0.3109 -0.5687
 3068TIP3    H1 9210   3.569   1.844   5.208  2.5663 -0.2479  2.8204
 3068TIP3    H2 9211   3.624   1.719   5.143  0.7721 -0.3545  1.4446
 3069TIP3   OH2 9212   2.993   3.683   2.092 -0.0713 -0.3277 -0.0438
 3069TIP3    H1 9213   3.085   3.683   2.120  0.2953  0.8330 -1.1205
 3069TIP3    H2 9214   2.964   3.593   2.105  1.4204 -0.8835 -0.3061
 3070TIP3   OH2 9215   5.186   3.143   1.735  0.2942 -0.1136  0.5367
 3070TIP3    H1 9216   5.276   3.168   1.712  0.3317 -1.8249 -1.5326
 3070TIP3    H2 9217   5.133   3.172   1.661 -0.5309 -0.8634  0.8144
 3071TIP3   OH2 9218   1.348   3.528   1.825 -0.4479  0.2525  0.5470
 3071TIP3    H1 9219   1.289   3.581   1.879  0.2838 -0.8462  2.5628
 3071TIP3    H2 9220   1.290   3.484   1.763 -1.7459 -0.4586  2.1680
 3072TIP3   OH2 9221   4.976   4.007   1.062 -0.8068 -0.0200 -0.0694
 3072TIP3    H1 9222   4.929   3.951   1.000  1.1312 -1.9743  0.1339
 3072TIP3    H2 9223   5.066   4.007   1.031 -0.1775  0.6016  1.6455
 3073TIP3   OH2 9224   1.329   3.582   2.921 -0.5810 -0.4730 -0.6849
 3073TIP3    H1 9225   1.284   3.498   2.922 -0.8631 -0.3268 -1.0961
 3073TIP3    H2 9226   1.321   3.613   2.831 -1.0385  0.2974 -0.3872
 3074TIP3   OH2 9227   5.178   4.172   0.810  0.6503  0.6281 -0.3130
 3074TIP3    H1 9228   5.141   4.203   0.892  0.4478  0.3352 -0.2921
 3074TIP3    H2 9229   5.110   4.189   0.745  0.9286  1.1380 -0.4747
 3075TIP3   OH2 9230   2.801   0.386   3.227 -0.4092  0.7457  0.0540
 3075TIP3    H1 9231   2.732   0.430   3.276  0.1630  1.4159  0.2655
 3075TIP3    H2 9232   2.780   0.403   3.135 -1.6454 -0.7569  0.0055
 3076TIP3   OH2 9233   6.192   0.828   4.595  0.4494 -0.0989 -0.3809
 3076TIP3    H1 9234   6.256   0.888   4.633  1.1593  0.3092 -2.1097
 3076TIP3    H2 9235   6.242   0.748   4.577  0.2546 -0.1081 -0.9001
 3077TIP3   OH2 9236   2.952   3.537   0.634  0.3449  0.2587 -0.5526
 3077TIP3    H1 9237   3.014   3.464   0.640  1.0261  0.8729  0.0462
 3077TIP3    H2 9238   2.961   3.582   0.717 -0.5391  0.6603 -0.6718
 3078TIP3   OH2 9239   4.535   2.363   2.706 -0.1250 -1.0572 -0.0288
 3078TIP3    H1 9240   4.480   2.364   2.628 -1.5536  1.2008  0.9163
 3078TIP3    H2 9241   4.517   2.446   2.749  3.1038 -0.7685  1.0328
 3079TIP3   OH2 9242   6.166   0.221   0.218  0.3509  0.4860  0.9580
 3079TIP3    H1 9243   6.242   0.239   0.163  1.0099 -2.2145  0.8327
 3079TIP3    H2 9244   6.126   0.143   0.178 -1.9678  1.2885  1.5584
 3080TIP3   OH2 9245   6.252   2.172   0.564  0.2546 -0.0022 -0.1942
 3080TIP3    H1 9246   6.318   2.120   0.519  0.9291  0.6151  0.0631
 3080TIP3    H2 9247   6.228   2.240   0.501  1.9326  1.4781  0.6689
 3081TIP3   OH2 9248   3.746   0.746   0.546  0.3314  0.1235  0.4204
 3081TIP3    H1 9249   3.677   0.802   0.510  0.0549  0.0131  0.7739
 3081TIP3    H2 9250   3.731   0.747   0.641  0.2806 -0.5963  0.4306
 3082TIP3   OH2 9251   3.643   3.951   4.990 -0.6799 -0.2989 -0.7134
 3082TIP3    H1 9252   3.589   3.911   5.058  0.8696 -0.3416  0.5622
 3082TIP3    H2 9253   3.617   3.907   4.909 -2.9046  0.0847 -0.2580
 3083TIP3   OH2 9254   4.082   2.381   0.038  0.1633 -0.2495 -0.1318
 3083TIP3    H1 9255   4.114   2.298   0.071 -0.5407 -1.3574 -2.0651
 3083TIP3    H2 9256   4.158   2.420  -0.007 -0.2203 -1.2598 -1.7364
 3084TIP3   OH2 9257   1.503   0.912   2.545  0.0388  0.1485  0.5038
 3084TIP3    H1 9258   1.412   0.889   2.565 -0.0586 -0.4572 -0.5624
 3084TIP3    H2 9259   1.524   0.860   2.468  1.2570  0.3859  0.6631
 3085TIP3   OH2 9260   1.341   2.736   3.963 -0.7485 -0.4427 -0.7697
 3085TIP3    H1 9261   1.436   2.739   3.962 -0.6741 -1.2732  1.0507
 3085TIP3    H2 9262   1.318   2.653   3.922 -0.7940  0.4741 -2.7067
 3086TIP3   OH2 9263   2.799   5.675   1.556 -0.3240  0.4350 -0.7403
 3086TIP3    H1 9264   2.705   5.678   1.569 -0.0661  0.5730  1.5597
 3086TIP3    H2 9265   2.825   5.766   1.544 -0.2450  0.7255  1.2387
 3087TIP3   OH2 9266   0.021   5.856   4.594  0.3343 -0.6594 -0.3499
 3087TIP3    H1 9267   0.104   5.865   4.641 -1.4967 -0.1479  3.1737
 3087TIP3    H2 9268  -0.017   5.775   4.629 -1.2432 -0.1436 -0.7690
 3088TIP3   OH2 9269   2.586   3.054   4.484  0.0627  0.1845  0.2519
 3088TIP3    H1 9270   2.614   3.145   4.473 -0.1174  0.0980 -1.0755
 3088TIP3    H2 9271   2.579   3.021   4.394 -1.8447 -0.5424  0.6306
 3089TIP3   OH2 9272   0.472   3.226   3.137  0.1219 -0.2556  0.6798
 3089TIP3    H1 9273   0.409   3.178   3.083 -2.5084  2.3746  1.1797
 3089TIP3    H2 9274   0.461   3.190   3.225  0.4520 -0.7901  0.5137
 3090TIP3   OH2 9275   2.263   0.819   3.848 -0.2352  0.0475 -0.3711
 3090TIP3    H1 9276   2.353   0.830   3.817 -0.6139  1.5732 -1.0329
 3090TIP3    H2 9277   2.224   0.756   3.787  0.2093 -0.1554 -0.4521
 3091TIP3   OH2 9278   4.596   0.474   0.378 -0.4635  0.1682  0.3340
 3091TIP3    H1 9279   4.674   0.424   0.400 -0.0678  0.4794 -0.3003
 3091TIP3    H2 9280   4.528   0.409   0.364 -0.0175 -0.1795 -0.2451
 3092TIP3   OH2 9281   4.335   1.348   2.259 -0.5646  0.8190  0.0359
 3092TIP3    H1 9282   4.423   1.385   2.251 -0.0753 -0.1373  0.6824
 3092TIP3    H2 9283   4.309   1.327   2.170  0.9422 -1.2307  0.0070
 3093TIP3   OH2 9284   4.473   3.923   3.126 -0.7728 -0.2222 -0.1481
 3093TIP3    H1 9285   4.514   3.941   3.211  0.0894  0.4999 -0.6983
 3093TIP3    H2 9286   4.418   3.846   3.142 -0.3088 -0.3446  0.9663
 3094TIP3   OH2 9287   1.164   2.637   3.343  0.1983  0.0842 -0.2205
 3094TIP3    H1 9288   1.133   2.672   3.259 -1.0260  1.7489  0.8549
 3094TIP3    H2 9289   1.085   2.627   3.395  1.1443  1.5215  1.5920
 3095TIP3   OH2 9290   4.100   2.753   0.721  0.5320  0.2457 -0.7120
 3095TIP3    H1 9291   4.012   2.748   0.684 -0.3954  1.6291  1.1401
 3095TIP3    H2 9292   4.144   2.822   0.671 -0.6799  2.0451  0.5976
 3096TIP3   OH2 9293   3.794   1.222   0.337 -0.0504 -0.0213  0.2219
 3096TIP3    H1 9294   3.727   1.169   0.380  2.0891 -1.3519  2.1463
 3096TIP3    H2 9295   3.827   1.279   0.406 -0.1267  1.6146 -1.0425
 3097TIP3   OH2 9296   0.643   4.783   4.156  0.6980  0.4630 -0.0925
 3097TIP3    H1 9297   0.693   4.704   4.134  0.1113  0.0200  0.1326
 3097TIP3    H2 9298   0.683   4.852   4.103  2.9117  0.6005  1.5995
 3098TIP3   OH2 9299   2.385   3.171   1.967 -0.6065 -0.1111  0.1625
 3098TIP3    H1 9300   2.382   3.252   2.019 -0.4121 -0.0106  0.0196
 3098TIP3    H2 9301   2.314   3.118   2.001 -0.6324  0.0548  0.3698
 3099TIP3   OH2 9302   3.640   2.243   4.833  0.5015 -0.2072  0.4121
 3099TIP3    H1 9303   3.572   2.279   4.776  0.4035 -2.2341 -0.8183
 3099TIP3    H2 9304   3.595   2.221   4.914  0.3674  1.3762  0.8131
 3100TIP3   OH2 9305   0.078   5.834   3.567 -0.3076 -0.3955 -0.1543
 3100TIP3    H1 9306   0.073   5.927   3.542 -0.4099 -0.7316 -1.4553
 3100TIP3    H2 9307   0.171   5.812   3.561  0.5554  0.7356  4.6744
 3101TIP3   OH2 9308   1.157   5.737   1.419  0.0642  0.6716  0.0189
 3101TIP3    H1 9309   1.110   5.808   1.464 -1.6184 -0.0081 -0.5575
 3101TIP3    H2 9310   1.143   5.661   1.475 -1.3516  0.0020 -1.1498
 3102TIP3   OH2 9311   6.036   4.909   3.311 -0.0859 -0.0517  0.2441
 3102TIP3    H1 9312   6.121   4.896   3.352  0.0314  0.0909  0.0496
 3102TIP3    H2 9313   6.018   4.826   3.266  0.2307  0.1218 -0.2156
 3103TIP3   OH2 9314   4.170   1.180   0.316  0.9336 -0.4582  0.1883
 3103TIP3    H1 9315   4.232   1.122   0.271  1.1379 -1.2887  1.4985
 3103TIP3    H2 9316   4.084   1.152   0.285  1.1487  0.1565 -1.0177
 3104TIP3   OH2 9317   1.377   2.873   2.921 -0.2970 -0.1829 -0.4460
 3104TIP3    H1 9318   1.391   2.896   2.829 -0.2834  0.2144 -0.3468
 3104TIP3    H2 9319   1.360   2.779   2.920  1.5666 -0.5530 -0.6527
 3105TIP3   OH2 9320   5.611   4.586   3.349  0.0664 -0.1681  0.1717
 3105TIP3    H1 9321   5.593   4.494   3.368  0.9797 -0.9140 -2.1745
 3105TIP3    H2 9322   5.526   4.630   3.359 -0.3465 -1.2019  1.4763
 3106TIP3   OH2 9323   6.008   3.786   1.701 -0.3654 -0.3586  0.2128
 3106TIP3    H1 9324   5.961   3.798   1.619 -1.4365 -1.1145  0.6962
 3106TIP3    H2 9325   6.059   3.706   1.689 -0.1071 -0.1796  0.1044
 3107TIP3   OH2 9326   4.107   2.836   4.829  0.2846  0.3231  0.6641
 3107TIP3    H1 9327   4.114   2.783   4.749  0.7563  0.9797  0.2527
 3107TIP3    H2 9328   4.148   2.919   4.805  1.7988  0.0203  2.0598
 3108TIP3   OH2 9329   0.776   2.574   2.736 -0.2261 -0.2823  0.1660
 3108TIP3    H1 9330   0.833   2.649   2.718  0.0857 -0.7418 -0.8658
 3108TIP3    H2 9331   0.767   2.530   2.651 -0.3776 -1.4316  0.7564
 3109TIP3   OH2 9332   3.802   3.844   2.329 -0.0310 -0.0647  0.0956
 3109TIP3    H1 9333   3.829   3.760   2.365 -0.0641 -0.5249 -0.9173
 3109TIP3    H2 9334   3.872   3.905   2.355  0.6562 -0.6849 -0.2623
 3110TIP3   OH2 9335   1.719   5.955   4.728  0.1259 -0.3003 -0.4348
 3110TIP3    H1 9336   1.771   6.020   4.776  2.0880  0.9349 -3.8816
 3110TIP3    H2 9337   1.636   5.999   4.709  0.2568  0.0535 -0.1872
 3111TIP3   OH2 9338   5.946   0.818   3.273 -0.4960 -0.1946 -0.3914
 3111TIP3    H1 9339   5.950   0.818   3.369  0.5417 -0.9574 -0.4156
 3111TIP3    H2 9340   6.037   0.831   3.246 -0.7685 -0.0944 -1.2812
 3112TIP3   OH2 9341   3.171   1.000   5.044 -0.0088  0.0175  0.9218
 3112TIP3    H1 9342   3.234   0.949   4.993  0.5142 -0.9304  2.4446
 3112TIP3    H2 9343   3.097   1.012   4.985 -0.0161 -2.2593  0.3836
 3113TIP3   OH2 9344   1.218   3.437   0.073 -0.4126 -0.6066  0.2924
 3113TIP3    H1 9345   1.178   3.511   0.027  1.2642  0.8147  1.0481
 3113TIP3    H2 9346   1.236   3.373   0.004 -1.1309  0.0198 -0.4946
 3114TIP3   OH2 9347   0.888   4.064   2.296  0.1096  0.6872 -0.1371
 3114TIP3    H1 9348   0.796   4.068   2.323  0.1421  0.3441  0.0200
 3114TIP3    H2 9349   0.911   4.156   2.279 -0.3539  0.7394 -0.4958
 3115TIP3   OH2 9350   2.932   0.578   4.479 -0.0682  0.2678  0.1883
 3115TIP3    H1 9351   3.003   0.641   4.470 -1.3479  1.8207  0.4496
 3115TIP3    H2 9352   2.853   0.632   4.485 -1.1138 -1.3102  1.6586
 3116TIP3   OH2 9353   3.386   4.537   1.545  0.5905  0.1001 -0.3350
 3116TIP3    H1 9354   3.476   4.533   1.513  0.6013 -0.8243 -0.2204
 3116TIP3    H2 9355   3.336   4.484   1.483  0.2881 -0.1483  0.1125
 3117TIP3   OH2 9356   2.058   3.419   2.398 -0.7265  0.3448  0.4860
 3117TIP3    H1 9357   2.123   3.367   2.350  0.6363  2.6194 -0.2773
 3117TIP3    H2 9358   2.061   3.383   2.487  0.6495 -0.4533  0.1648
 3118TIP3   OH2 9359   5.704   2.530   1.623  0.3921  0.6581  0.2137
 3118TIP3    H1 9360   5.787   2.574   1.640  0.5495  0.3021  0.3879
 3118TIP3    H2 9361   5.680   2.491   1.707  1.3595 -1.4332 -0.3822
 3119TIP3   OH2 9362   3.469   4.409   0.884 -0.6045 -0.4309 -0.2840
 3119TIP3    H1 9363   3.445   4.346   0.952 -2.1666 -0.8032 -1.1069
 3119TIP3    H2 9364   3.448   4.364   0.802 -2.9075  1.5024 -0.8929
 3120TIP3   OH2 9365   2.619   2.688   4.430  0.0067 -0.2109  0.0438
 3120TIP3    H1 9366   2.712   2.683   4.452  0.0278 -0.8467 -0.1504
 3120TIP3    H2 9367   2.616   2.740   4.350  0.1957 -0.1668  0.0647
 3121TIP3   OH2 9368   1.036   4.723   4.478 -0.1758  0.5119 -0.2923
 3121TIP3    H1 9369   1.002   4.773   4.404 -2.0722 -1.5707 -0.9621
 3121TIP3    H2 9370   1.000   4.768   4.555  1.1117  2.1908 -0.6041
 3122TIP3   OH2 9371   4.839   4.512   1.188  0.0720  0.2244  0.8912
 3122TIP3    H1 9372   4.820   4.596   1.231 -0.4948 -0.2821  1.6553
 3122TIP3    H2 9373   4.787   4.514   1.108  1.4086  1.3292  0.0056
 3123TIP3   OH2 9374   2.438   1.780   3.841 -0.4642  0.6524 -0.3234
 3123TIP3    H1 9375   2.445   1.780   3.937 -0.9592 -0.6398 -0.2681
 3123TIP3    H2 9376   2.388   1.701   3.821 -0.2086  0.8165 -1.6711
 3124TIP3   OH2 9377   2.796   1.155   1.713  0.0513  0.7742  0.1431
 3124TIP3    H1 9378   2.711   1.143   1.670  0.5091 -1.8009 -0.2089
 3124TIP3    H2 9379   2.789   1.104   1.793  0.9097  1.4987  0.6941
 3125TIP3   OH2 9380   3.137   0.306   3.472 -0.1237 -0.5403  0.4521
 3125TIP3    H1 9381   3.192   0.377   3.507  0.8641 -0.3270 -1.4120
 3125TIP3    H2 9382   3.199   0.238   3.447 -0.9314 -1.3209  0.5231
 3126TIP3   OH2 9383   0.757   4.623   1.910 -0.3829  0.2457 -0.1600
 3126TIP3    H1 9384   0.840   4.617   1.956 -0.6526  0.0592  0.3125
 3126TIP3    H2 9385   0.703   4.680   1.964  0.1849  2.2744 -1.6167
 3127TIP3   OH2 9386   5.684   1.296   4.056 -0.1660 -0.2538 -1.0184
 3127TIP3    H1 9387   5.629   1.263   4.127  0.6040  0.7830  0.1016
 3127TIP3    H2 9388   5.729   1.218   4.022  0.4657 -0.6143  0.5462
 3128TIP3   OH2 9389   4.464   5.550   3.676 -0.3667  0.2454  0.0929
 3128TIP3    H1 9390   4.451   5.609   3.602 -0.0485  3.1108  2.1563
 3128TIP3    H2 9391   4.403   5.478   3.660  0.1579  0.3734 -3.2191
 3129TIP3   OH2 9392   1.770   0.816   1.124  0.2495  0.4225 -0.1707
 3129TIP3    H1 9393   1.706   0.808   1.053  1.1088  1.3997 -1.0837
 3129TIP3    H2 9394   1.724   0.865   1.191 -0.5195 -0.3676 -0.0870
 3130TIP3   OH2 9395   6.133   3.396   1.419  0.4545 -0.3421 -0.3489
 3130TIP3    H1 9396   6.174   3.342   1.486  0.1060 -0.5811 -0.3263
 3130TIP3    H2 9397   6.048   3.420   1.456  1.1073  1.2595  0.1593
 3131TIP3   OH2 9398   3.112   4.591   1.634  0.2369 -0.1692  0.0103
 3131TIP3    H1 9399   3.122   4.540   1.715  2.6509  2.3481  1.4529
 3131TIP3    H2 9400   3.184   4.561   1.579 -1.3439 -1.8059 -1.2789
 3132TIP3   OH2 9401   1.997   1.518   0.925  0.3047  0.4381  0.3228
 3132TIP3    H1 9402   1.972   1.607   0.903  0.7981  0.7582  1.0485
 3132TIP3    H2 9403   2.031   1.523   1.014 -2.4355 -0.9715  1.5766
 3133TIP3   OH2 9404   2.832   2.873   1.977 -0.3701 -0.4152  0.0481
 3133TIP3    H1 9405   2.905   2.881   1.916 -0.7917  1.4696 -0.2600
 3133TIP3    H2 9406   2.866   2.905   2.061 -1.2511  2.1466 -0.4895
 3134TIP3   OH2 9407   4.827   1.760   0.737  0.5318  0.4675 -0.1203
 3134TIP3    H1 9408   4.856   1.788   0.650 -0.1564  1.0447 -0.1712
 3134TIP3    H2 9409   4.753   1.818   0.758  0.9960  0.6652  1.0570
 3135TIP3   OH2 9410   3.768   3.087   4.501  0.1554 -0.2809 -0.1660
 3135TIP3    H1 9411   3.758   3.172   4.459  0.0800  0.3768  1.1402
 3135TIP3    H2 9412   3.682   3.045   4.490  1.2500 -1.9785 -4.3777
 3136TIP3   OH2 9413   0.727   4.735   2.762  0.3698  0.7133 -0.3084
 3136TIP3    H1 9414   0.667   4.809   2.753  0.7765  1.1671  0.5359
 3136TIP3    H2 9415   0.672   4.661   2.786  0.1353  1.1187  0.4235
 3137TIP3   OH2 9416   1.298   1.641   1.320  0.2119  0.4825  0.0926
 3137TIP3    H1 9417   1.228   1.636   1.385 -1.0812  2.3097 -1.0623
 3137TIP3    H2 9418   1.337   1.553   1.319 -1.9766 -0.5593  0.8778
 3138TIP3   OH2 9419   4.246   2.988   3.189  0.0102  0.4298  0.2703
 3138TIP3    H1 9420   4.254   3.020   3.099  0.4578 -0.0988  0.1202
 3138TIP3    H2 9421   4.317   2.925   3.199  1.3354  2.0705  1.6946
 3139TIP3   OH2 9422   3.968   5.969   0.116  0.1518  0.3043  0.2738
 3139TIP3    H1 9423   3.920   5.998   0.039  0.9082  1.3221  0.1768
 3139TIP3    H2 9424   3.942   5.877   0.127 -1.0562  0.5553 -0.3395
 3140TIP3   OH2 9425   0.404   1.462   0.344  0.1684 -0.1454  0.4305
 3140TIP3    H1 9426   0.438   1.545   0.377  0.0748  0.9218 -2.0034
 3140TIP3    H2 9427   0.327   1.445   0.398  0.4215  1.1269  1.2413
 3141TIP3   OH2 9428   1.681   1.588   5.023 -0.0637  0.1816  0.2923
 3141TIP3    H1 9429   1.679   1.678   4.991 -1.6884  0.4447  1.0124
 3141TIP3    H2 9430   1.730   1.593   5.105 -0.6583  0.5301  0.6310
 3142TIP3   OH2 9431   1.549   0.239   3.603  0.2089  0.3134 -0.1167
 3142TIP3    H1 9432   1.500   0.308   3.559  0.3594  0.1698 -0.5205
 3142TIP3    H2 9433   1.555   0.267   3.694  0.2589  0.8276 -0.2760
 3143TIP3   OH2 9434   1.508   4.768   3.311 -0.1570 -0.1497  1.2355
 3143TIP3    H1 9435   1.554   4.851   3.328 -1.3627  0.4495  1.6598
 3143TIP3    H2 9436   1.453   4.787   3.235 -0.8747 -0.3811  1.6919
 3144TIP3   OH2 9437   3.581   3.374   0.094 -0.0885  0.1113 -0.0739
 3144TIP3    H1 9438   3.587   3.321   0.173  0.7338  1.3378  0.7241
 3144TIP3    H2 9439   3.671   3.400   0.076 -0.2207 -0.4291 -1.6303
 3145TIP3   OH2 9440   0.857   5.601   4.739 -0.0722  0.0137  0.2140
 3145TIP3    H1 9441   0.950   5.613   4.759  0.7681 -1.6272 -2.2338
 3145TIP3    H2 9442   0.849   5.508   4.715 -1.5755  0.7827 -2.8724
 3146TIP3   OH2 9443   4.353   3.818   2.307 -0.4719 -0.0441  0.3157
 3146TIP3    H1 9444   4.436   3.778   2.281 -0.9631 -1.2375  0.5316
 3146TIP3    H2 9445   4.320   3.763   2.378 -1.2026  0.7152  0.5936
 3147TIP3   OH2 9446   3.531   1.448   2.331 -0.2091  0.2997 -0.0410
 3147TIP3    H1 9447   3.490   1.482   2.411 -0.6765  1.2112 -0.6463
 3147TIP3    H2 9448   3.478   1.372   2.307 -1.0822  1.0075 -0.3851
 3148TIP3   OH2 9449   2.450   0.140   2.279  0.0153  0.1007 -0.2141
 3148TIP3    H1 9450   2.466   0.092   2.361  3.3697  0.8410 -0.3270
 3148TIP3    H2 9451   2.411   0.223   2.307  2.6570  1.0635  0.9097
 3149TIP3   OH2 9452   2.413   3.873   4.697  0.1373 -0.4846 -1.0106
 3149TIP3    H1 9453   2.401   3.787   4.738  1.5591 -0.5014 -0.5783
 3149TIP3    H2 9454   2.330   3.917   4.710  0.6962 -0.1899  2.6641
 3150TIP3   OH2 9455   0.554   0.376   1.105  0.5652  0.0511  0.2178
 3150TIP3    H1 9456   0.554   0.451   1.045  0.5064 -0.4957 -0.4805
 3150TIP3    H2 9457   0.588   0.411   1.187 -1.4836  1.3701  0.5749
 3151TIP3   OH2 9458   1.514   1.446   1.345  0.6497 -0.2444 -0.1410
 3151TIP3    H1 9459   1.462   1.371   1.316 -0.4246  0.5660 -0.3979
 3151TIP3    H2 9460   1.544   1.421   1.433 -3.4658  0.6668  1.8153
 3152TIP3   OH2 9461   4.987   1.951   4.031  0.5260  0.1401 -0.0900
 3152TIP3    H1 9462   4.924   1.951   3.959  1.6864  0.9236 -1.1330
 3152TIP3    H2 9463   5.041   1.873   4.015  2.2860  1.5535 -1.4830
 3153TIP3   OH2 9464   1.269   5.594   3.898  0.0274 -0.1745 -0.0061
 3153TIP3    H1 9465   1.225   5.555   3.822  0.5871 -0.5751 -0.1296
 3153TIP3    H2 9466   1.236   5.545   3.973 -0.5143  0.2106  0.0119
 3154TIP3   OH2 9467   1.118   4.382   2.728 -0.0601  0.4655  0.4077
 3154TIP3    H1 9468   1.162   4.423   2.654 -0.3748  0.0268 -0.0336
 3154TIP3    H2 9469   1.029   4.418   2.726  0.3578  1.6009  1.4939
 3155TIP3   OH2 9470   0.342   1.959   3.824  0.2874 -0.1378  0.4411
 3155TIP3    H1 9471   0.251   1.988   3.821  0.5853  0.8093  0.3050
 3155TIP3    H2 9472   0.394   2.039   3.816  1.1480 -0.8145 -1.2689
 3156TIP3   OH2 9473   3.779   3.278   5.008 -0.0902 -0.7122  0.4294
 3156TIP3    H1 9474   3.789   3.372   5.022 -3.0143 -0.2047 -0.3107
 3156TIP3    H2 9475   3.724   3.248   5.080  0.7032 -1.8608  0.5868
 3157TIP3   OH2 9476   6.288   0.493   4.318  0.2582  0.0809 -0.5454
 3157TIP3    H1 9477   6.367   0.524   4.274  0.1573  0.0618 -0.7407
 3157TIP3    H2 9478   6.216   0.529   4.267  0.1114 -1.7418 -1.7022
 3158TIP3   OH2 9479   4.012   1.612   2.624  0.4640 -0.0919 -0.6371
 3158TIP3    H1 9480   4.102   1.641   2.635 -0.0995  1.1281  1.4027
 3158TIP3    H2 9481   3.973   1.673   2.562  0.9993 -0.5575 -1.4370
 3159TIP3   OH2 9482   3.344  -0.007   3.120 -0.5148 -0.4769  0.1670
 3159TIP3    H1 9483   3.265  -0.011   3.067  0.7670  3.0549 -2.3474
 3159TIP3    H2 9484   3.316   0.036   3.201 -0.9843  2.8930 -1.5994
 3160TIP3   OH2 9485   1.176   5.213   4.555  0.5122 -0.9073  0.0433
 3160TIP3    H1 9486   1.182   5.308   4.565 -1.6669 -0.4717 -1.8024
 3160TIP3    H2 9487   1.195   5.198   4.462 -0.9672 -1.9959 -0.1275
 3161TIP3   OH2 9488   1.794   4.361   0.156 -0.4514  0.1592  0.5994
 3161TIP3    H1 9489   1.828   4.434   0.208 -1.3789  1.8136 -0.9594
 3161TIP3    H2 9490   1.869   4.330   0.106 -0.3841  1.3163 -0.0704
 3162TIP3   OH2 9491   4.116   2.954   4.420 -0.8278 -0.2827 -0.5278
 3162TIP3    H1 9492   4.054   2.886   4.446 -0.1718 -0.9534 -0.6830
 3162TIP3    H2 9493   4.202   2.914   4.432 -0.3699  0.9592  0.6529
 3163TIP3   OH2 9494   4.547   4.995   3.880 -1.0108  0.1108 -0.3059
 3163TIP3    H1 9495   4.534   4.960   3.968 -3.7844 -0.6816 -0.9449
 3163TIP3    H2 9496   4.638   5.024   3.879 -0.2935 -1.7474  2.1357
 3164TIP3   OH2 9497   3.303   4.681   0.965 -0.5539 -0.1073  0.1199
 3164TIP3    H1 9498   3.209   4.673   0.945 -0.6025  2.5557 -1.0596
 3164TIP3    H2 9499   3.344   4.696   0.880  0.4852  2.1226  0.9668
 3165TIP3   OH2 9500   6.221   0.994   5.053  0.0756 -0.2515  0.1280
 3165TIP3    H1 9501   6.183   0.944   5.126  1.1525  0.6023  1.3214
 3165TIP3    H2 9502   6.173   1.077   5.053  1.1169  0.3821  0.9221
 3166TIP3   OH2 9503   5.805   1.446   4.837 -0.0106 -0.6495  0.3838
 3166TIP3    H1 9504   5.844   1.492   4.911 -2.6507 -2.0004  2.8042
 3166TIP3    H2 9505   5.753   1.512   4.792  0.4512 -0.1306  0.6070
 3167TIP3   OH2 9506   1.689   0.480   4.059  0.0888  0.0806 -0.4648
 3167TIP3    H1 9507   1.670   0.402   4.111 -2.6653  0.5272 -0.6176
 3167TIP3    H2 9508   1.629   0.473   3.984  0.1377  2.0823 -0.7297
 3168TIP3   OH2 9509   3.510   2.163   2.720 -0.1394 -0.1382 -0.1036
 3168TIP3    H1 9510   3.478   2.115   2.796  1.0804  1.0316  1.2265
 3168TIP3    H2 9511   3.518   2.097   2.651 -0.8399 -1.3295  0.9105
 3169TIP3   OH2 9512   4.277   3.757   1.259 -0.3232 -0.3170 -0.4623
 3169TIP3    H1 9513   4.191   3.770   1.300 -0.0390  0.9376 -0.2221
 3169TIP3    H2 9514   4.336   3.810   1.312  0.5566 -0.9403 -0.8055
 3170TIP3   OH2 9515   5.909   5.408   1.719 -0.4969 -0.0315  0.6001
 3170TIP3    H1 9516   5.976   5.346   1.692  0.5803  0.6469  1.5959
 3170TIP3    H2 9517   5.907   5.402   1.815 -1.4489  0.3937  0.6260
 3171TIP3   OH2 9518   2.689   2.070   1.107 -0.6765 -0.4449 -0.7201
 3171TIP3    H1 9519   2.684   2.100   1.197 -2.4092 -3.4827  0.3429
 3171TIP3    H2 9520   2.682   1.974   1.112 -0.1531 -0.7991 -4.0300
 3172TIP3   OH2 9521   5.982   0.586   0.857  0.4275 -0.8125 -0.4016
 3172TIP3    H1 9522   5.903   0.556   0.811 -0.3634  0.1940  0.2653
 3172TIP3    H2 9523   6.013   0.507   0.902 -0.9355 -0.9613  0.3527
 3173TIP3   OH2 9524   2.767   5.464   4.122  0.2174  0.0032  0.0430
 3173TIP3    H1 9525   2.848   5.416   4.105  1.2171  1.9295 -1.0906
 3173TIP3    H2 9526   2.731   5.481   4.035 -0.5661  0.5152  0.4548
 3174TIP3   OH2 9527   1.758   0.972   4.873  0.1888  0.0386  0.7453
 3174TIP3    H1 9528   1.812   1.040   4.833  2.3962 -0.7879  2.0709
 3174TIP3    H2 9529   1.739   0.911   4.802 -1.4602  1.7462 -0.3609
 3175TIP3   OH2 9530   4.370   4.446   1.588  0.4901 -0.1098  0.0497
 3175TIP3    H1 9531   4.408   4.415   1.506  0.7306 -0.1377  0.1710
 3175TIP3    H2 9532   4.329   4.368   1.626  2.6136 -0.7613  1.2227
 3176TIP3   OH2 9533   1.716   0.441   3.007 -0.0720 -0.0456  0.0838
 3176TIP3    H1 9534   1.733   0.512   3.069  2.3096 -3.2872  3.5434
 3176TIP3    H2 9535   1.634   0.402   3.037 -0.7406  0.4239 -1.0629
 3177TIP3   OH2 9536   3.668   4.328   3.703  0.5164  0.0580  0.0817
 3177TIP3    H1 9537   3.635   4.412   3.736 -0.6209 -0.6899  0.8810
 3177TIP3    H2 9538   3.705   4.350   3.617 -2.4389  0.9005 -1.1130
 3178TIP3   OH2 9539   5.819   4.697   3.899  0.1993 -0.0519  0.1932
 3178TIP3    H1 9540   5.775   4.693   3.814 -1.0827 -1.1331  0.8794
 3178TIP3    H2 9541   5.900   4.647   3.887  1.3254  1.9145 -1.0671
 3179TIP3   OH2 9542   4.179   0.818   3.501 -0.3270  0.1474  0.1775
 3179TIP3    H1 9543   4.105   0.757   3.506 -0.2034  0.0274  0.6881
 3179TIP3    H2 9544   4.147   0.891   3.448 -0.0191 -0.9889 -1.6313
 3180TIP3   OH2 9545   4.468   2.986   3.568  0.4155  0.1362 -0.0767
 3180TIP3    H1 9546   4.415   2.924   3.517 -0.0761 -0.5325  1.1960
 3180TIP3    H2 9547   4.521   2.930   3.626  2.3191  0.7941 -1.0756
 3181TIP3   OH2 9548   0.554   2.975   2.564 -0.4931 -0.1848  0.2433
 3181TIP3    H1 9549   0.486   2.995   2.500 -0.8258 -0.4279  0.5158
 3181TIP3    H2 9550   0.624   3.037   2.545 -0.2629 -0.7560 -0.8530
 3182TIP3   OH2 9551   4.805   0.511   1.558 -0.1255 -0.3061  0.1183
 3182TIP3    H1 9552   4.755   0.447   1.509 -2.4966  0.5071  1.3176
 3182TIP3    H2 9553   4.812   0.474   1.646 -0.3079  0.4332  0.4553
 3183TIP3   OH2 9554   2.391   5.957   5.081 -0.0485 -0.4948 -0.2605
 3183TIP3    H1 9555   2.329   5.886   5.097 -1.3765  0.2793 -1.7808
 3183TIP3    H2 9556   2.420   5.983   5.169 -0.3730 -2.1530  0.3753
 3184TIP3   OH2 9557   3.867   3.285   0.001  0.2371 -0.3075  0.0575
 3184TIP3    H1 9558   3.803   3.255   0.066 -0.7911  0.8648 -0.3612
 3184TIP3    H2 9559   3.883   3.210  -0.055  0.6603 -1.1537  1.2751
 3185TIP3   OH2 9560   5.034   2.087   2.802 -0.3452  0.1954 -0.0441
 3185TIP3    H1 9561   5.025   2.160   2.863  0.2699 -2.5268  3.6690
 3185TIP3    H2 9562   5.128   2.065   2.805 -0.4243 -0.4082 -1.4843
 3186TIP3   OH2 9563   4.312   1.602   0.488  0.0452  0.4308 -0.1344
 3186TIP3    H1 9564   4.238   1.543   0.474  0.9829 -0.9384  0.4097
 3186TIP3    H2 9565   4.387   1.554   0.452  1.2738  0.1243  2.6215
 3187TIP3   OH2 9566   0.903   2.177   1.565 -0.0810 -0.2905 -0.7642
 3187TIP3    H1 9567   0.860   2.143   1.644  0.9055 -1.0049 -0.5236
 3187TIP3    H2 9568   0.928   2.266   1.588  1.5374 -0.9706  0.2940
 3188TIP3   OH2 9569   1.924   0.796   2.730 -0.0580 -0.1572 -0.5146
 3188TIP3    H1 9570   1.955   0.755   2.812 -0.0099  1.4992  0.3372
 3188TIP3    H2 9571   1.829   0.801   2.740 -0.1248 -0.6182 -0.8934
 3189TIP3   OH2 9572   4.681  -0.018   4.720  0.3563  0.1147  0.2893
 3189TIP3    H1 9573   4.714   0.070   4.704 -0.2722  0.6184  1.5821
 3189TIP3    H2 9574   4.601  -0.025   4.668 -2.2838  2.1229  3.6527
 3190TIP3   OH2 9575   6.202   4.044   0.757  0.1590  0.0925 -0.5676
 3190TIP3    H1 9576   6.287   4.041   0.803  0.9168 -1.3995 -1.9598
 3190TIP3    H2 9577   6.154   3.969   0.791 -0.6938  0.9911  0.2903
 3191TIP3   OH2 9578   1.028   5.516   0.986 -0.1261  0.0737 -0.4267
 3191TIP3    H1 9579   1.012   5.576   1.059 -1.5239 -1.4121  0.5722
 3191TIP3    H2 9580   1.123   5.510   0.979  0.0467  1.9891 -0.2564
 3192TIP3   OH2 9581   1.262   4.131   3.395  0.0242 -0.0613  0.0487
 3192TIP3    H1 9582   1.201   4.083   3.338 -1.2002  3.0877 -1.5610
 3192TIP3    H2 9583   1.205   4.175   3.458  0.4236  2.8753 -1.4370
 3193TIP3   OH2 9584   5.617   3.201   2.891 -0.1765  0.0509  0.0879
 3193TIP3    H1 9585   5.588   3.178   2.803  1.3855 -0.7468 -0.2501
 3193TIP3    H2 9586   5.537   3.196   2.944 -0.8523 -1.0463 -0.9783
 3194TIP3   OH2 9587   4.726   3.466   2.747  0.2232  0.3347 -0.0017
 3194TIP3    H1 9588   4.816   3.498   2.748  0.0042  0.9361  0.8200
 3194TIP3    H2 9589   4.710   3.433   2.835 -0.9083  1.8063  0.3677
 3195TIP3   OH2 9590   4.386   3.381   2.938 -0.1401 -0.6835  0.1704
 3195TIP3    H1 9591   4.306   3.388   2.989  0.1693  2.0409  0.4254
 3195TIP3    H2 9592   4.450   3.343   2.998 -0.4183  0.2275  1.0834
 3196TIP3   OH2 9593   2.321   3.498   4.085 -0.5080  0.6814 -0.0033
 3196TIP3    H1 9594   2.339   3.495   3.991  1.3426  0.7132  0.3138
 3196TIP3    H2 9595   2.267   3.576   4.097  0.7621  1.7290 -0.8251
 3197TIP3   OH2 9596   3.871   2.825   4.424  0.0301 -0.0855 -0.1158
 3197TIP3    H1 9597   3.836   2.913   4.416 -1.3321 -0.4583  1.2838
 3197TIP3    H2 9598   3.824   2.774   4.358  1.5832  0.3959 -1.6735
 3198TIP3   OH2 9599   1.051   4.164   1.028  0.0090 -0.0046 -0.4525
 3198TIP3    H1 9600   1.096   4.206   1.101  0.2267  1.0309 -1.1568
 3198TIP3    H2 9601   0.999   4.096   1.068  1.3083 -0.4761  0.5139
 3199TIP3   OH2 9602   1.673   3.870   4.002  0.2788 -0.5574 -0.3281
 3199TIP3    H1 9603   1.651   3.820   4.081 -1.5480 -2.4762 -1.9407
 3199TIP3    H2 9604   1.590   3.881   3.957  1.0782  1.6731 -1.3823
 3200TIP3   OH2 9605   3.822   0.001   0.663  0.2665  0.3309  0.4357
 3200TIP3    H1 9606   3.866   0.020   0.745  0.3746 -0.2761  0.5264
 3200TIP3    H2 9607   3.736   0.044   0.671  0.3157  0.3590  0.8218
 3201TIP3   OH2 9608   3.544   4.990   4.593  0.0724 -0.0945 -0.0229
 3201TIP3    H1 9609   3.468   4.943   4.628 -0.3594 -0.5893 -1.5265
 3201TIP3    H2 9610   3.619   4.937   4.618 -0.4214 -1.7578 -1.8498
 3202TIP3   OH2 9611   4.706   2.992   1.104  0.1362 -0.1085 -0.9236
 3202TIP3    H1 9612   4.611   2.990   1.090  0.0823  0.5696 -0.7057
 3202TIP3    H2 9613   4.726   2.908   1.145 -0.6461  0.4268  0.6235
 3203TIP3   OH2 9614   4.492   1.838   4.010 -0.1410  0.5267 -0.0876
 3203TIP3    H1 9615   4.489   1.892   4.089  0.3797  0.5805 -0.1040
 3203TIP3    H2 9616   4.498   1.901   3.938  3.2527  0.4753 -0.0002
 3204TIP3   OH2 9617   0.645   2.463   1.600  0.3687  0.3402 -0.5026
 3204TIP3    H1 9618   0.615   2.548   1.570 -1.9986 -0.6451 -1.1963
 3204TIP3    H2 9619   0.565   2.411   1.610  1.3907 -0.8446  3.1347
 3205TIP3   OH2 9620   4.975   3.859   3.778  0.5794 -0.0510  0.5309
 3205TIP3    H1 9621   5.015   3.796   3.838  0.6820  0.7375  1.3042
 3205TIP3    H2 9622   4.936   3.925   3.835 -0.3442  0.1042 -0.2466
 3206TIP3   OH2 9623   2.371   5.909   3.699  0.3960 -0.6617  0.1512
 3206TIP3    H1 9624   2.374   5.856   3.620  0.3968  0.0434 -0.3295
 3206TIP3    H2 9625   2.443   5.877   3.752  0.9651 -0.5268 -0.5313
 3207TIP3   OH2 9626   0.797   4.719   0.588  0.0061  0.2435 -0.8992
 3207TIP3    H1 9627   0.856   4.757   0.522  0.5505  0.3755 -0.3498
 3207TIP3    H2 9628   0.710   4.728   0.550  0.2911  0.4875 -1.5214
 3208TIP3   OH2 9629   3.898   4.917   3.725  0.7362  0.5523  0.5785
 3208TIP3    H1 9630   3.825   4.901   3.664  0.0762 -2.4080  1.9722
 3208TIP3    H2 9631   3.894   5.011   3.742 -0.7087  1.0386 -1.8487
 3209TIP3   OH2 9632   1.821   4.068   2.182 -0.3978  0.1018  0.1274
 3209TIP3    H1 9633   1.756   4.003   2.158  0.0205 -0.5893  0.8047
 3209TIP3    H2 9634   1.819   4.071   2.278  2.0528 -1.5677  0.3302
 3210TIP3   OH2 9635   4.022   1.285   4.189  0.4170  0.2478  0.0845
 3210TIP3    H1 9636   4.038   1.374   4.222 -0.7015  0.7069 -0.5527
 3210TIP3    H2 9637   4.087   1.273   4.120  1.8092 -0.1673  1.4034
 3211TIP3   OH2 9638   6.096   3.619   3.940 -0.2403 -0.1141 -0.1014
 3211TIP3    H1 9639   6.184   3.581   3.934 -0.3373 -0.4662  0.5594
 3211TIP3    H2 9640   6.037   3.545   3.922 -0.4299 -0.3024  1.2048
 3212TIP3   OH2 9641   5.030   1.344   2.224 -0.2853  0.4139  0.5699
 3212TIP3    H1 9642   4.997   1.337   2.135  3.1851 -0.4605 -0.8089
 3212TIP3    H2 9643   5.014   1.258   2.263 -0.8847  0.4642  0.4414
 3213TIP3   OH2 9644   2.722   2.239   3.942  0.6327  0.2525 -0.1987
 3213TIP3    H1 9645   2.801   2.278   3.904 -0.6074  3.3305  0.1096
 3213TIP3    H2 9646   2.657   2.244   3.871  0.0932 -0.1246  0.2612
 3214TIP3   OH2 9647   3.841   0.268   3.288 -0.0677  1.1095 -0.1752
 3214TIP3    H1 9648   3.789   0.348   3.302 -2.0171 -0.1351  0.1398
 3214TIP3    H2 9649   3.824   0.215   3.366 -0.0594 -0.2376 -1.0598
 3215TIP3   OH2 9650   2.220   0.871   1.399 -0.0208  0.7721 -0.4171
 3215TIP3    H1 9651   2.164   0.916   1.336  0.3575  2.2323  0.2562
 3215TIP3    H2 9652   2.282   0.937   1.428  0.1374 -0.0016  1.1080
 3216TIP3   OH2 9653   5.084   0.786   0.257 -0.0359 -0.1440 -0.2224
 3216TIP3    H1 9654   5.134   0.722   0.307  1.6857  2.1249  1.2184
 3216TIP3    H2 9655   5.111   0.773   0.166 -1.2532 -2.6508 -0.3187
 3217TIP3   OH2 9656   2.509   3.293   0.035  0.2198 -0.0132  0.5809
 3217TIP3    H1 9657   2.526   3.375  -0.012  1.0826 -0.3727  0.2330
 3217TIP3    H2 9658   2.525   3.314   0.127  0.9123  0.0990  0.4417
 3218TIP3   OH2 9659   3.685   5.528   0.789  0.1505  0.2105 -0.3495
 3218TIP3    H1 9660   3.723   5.455   0.838  0.4037  0.2529 -0.4773
 3218TIP3    H2 9661   3.663   5.593   0.856 -1.1445 -0.4356 -0.1151
 3219TIP3   OH2 9662   3.356   1.113   1.739  0.1311  0.2121  0.3415
 3219TIP3    H1 9663   3.354   1.194   1.688  1.2329  0.0769  0.0437
 3219TIP3    H2 9664   3.267   1.103   1.773 -0.3338  0.8998 -0.6296
 3220TIP3   OH2 9665   4.079   3.529   0.593 -0.3323 -0.4439  0.0336
 3220TIP3    H1 9666   3.991   3.495   0.608  0.1720 -1.6167  0.5056
 3220TIP3    H2 9667   4.124   3.515   0.676  0.0772  0.8959  0.0542
 3221TIP3   OH2 9668   5.538   3.345   2.584  0.8957 -0.5866 -0.3551
 3221TIP3    H1 9669   5.610   3.395   2.547  1.2501 -0.3128  0.6673
 3221TIP3    H2 9670   5.523   3.384   2.670 -0.7414 -0.3686 -0.6924
 3222TIP3   OH2 9671   5.524   0.207   3.733  0.1615 -0.1620  0.1872
 3222TIP3    H1 9672   5.596   0.185   3.674  0.8922  0.2373  0.9136
 3222TIP3    H2 9673   5.458   0.139   3.716  0.2011  0.1331 -1.3142
 3223TIP3   OH2 9674   2.944   4.076   2.662 -0.2170  0.7349  0.0031
 3223TIP3    H1 9675   2.967   4.138   2.731  1.1375  0.4164 -0.1363
 3223TIP3    H2 9676   3.028   4.047   2.626 -0.8309 -0.7159 -0.3531
 3224TIP3   OH2 9677   0.663   3.053   0.626 -0.2819  0.0854 -0.2600
 3224TIP3    H1 9678   0.582   3.032   0.671  0.2902 -1.8328  0.0065
 3224TIP3    H2 9679   0.682   2.975   0.574  0.3766  1.2609 -1.8707
 3225TIP3   OH2 9680   3.055   5.774   3.429 -0.1069  0.1259  0.2649
 3225TIP3    H1 9681   3.061   5.741   3.519  1.1106  0.7004  0.4179
 3225TIP3    H2 9682   3.044   5.695   3.376  0.6625 -0.3587  0.8002
 3226TIP3   OH2 9683   4.000   1.958   1.782 -0.2859 -0.7799  0.5796
 3226TIP3    H1 9684   3.996   2.049   1.753  0.9973 -0.9112 -0.0664
 3226TIP3    H2 9685   3.909   1.935   1.800 -1.0666 -0.3511 -2.3190
 3227TIP3   OH2 9686   0.389   4.814   3.100 -0.3258 -0.2699 -0.5675
 3227TIP3    H1 9687   0.395   4.807   3.196 -3.5243  0.9737 -0.1322
 3227TIP3    H2 9688   0.366   4.725   3.072  3.2362 -1.3100 -0.6211
 3228TIP3   OH2 9689   2.795   2.566   5.025 -0.0344 -0.0969  0.0864
 3228TIP3    H1 9690   2.866   2.593   5.083  0.3942 -1.1059  0.0522
 3228TIP3    H2 9691   2.716   2.603   5.065  0.3873  0.1351  0.7149
 3229TIP3   OH2 9692   1.895  -0.004   2.767  0.6933  0.7563 -0.0578
 3229TIP3    H1 9693   1.822   0.058   2.767  0.2581  0.2585  0.5134
 3229TIP3    H2 9694   1.971   0.048   2.795  0.1867  0.8813  1.1370
 3230TIP3   OH2 9695   6.150   5.040   2.660 -0.4027 -0.0183 -0.3437
 3230TIP3    H1 9696   6.190   5.124   2.683 -2.4463  0.4600  2.0344
 3230TIP3    H2 9697   6.057   5.052   2.678 -1.0210 -2.3153 -1.5368
 3231TIP3   OH2 9698   6.146   1.404   0.098  0.3598 -0.1501 -0.4087
 3231TIP3    H1 9699   6.208   1.477   0.096  1.6370 -1.1827 -0.2172
 3231TIP3    H2 9700   6.169   1.355   0.177  0.0562 -1.1764 -0.9276
 3232TIP3   OH2 9701   2.514   0.472   1.781 -0.2795 -0.3031 -0.0202
 3232TIP3    H1 9702   2.478   0.389   1.750 -0.5010  0.2212 -1.2273
 3232TIP3    H2 9703   2.569   0.502   1.709 -0.6340  0.8582  0.1784
 3233TIP3   OH2 9704   1.490   0.287   4.399  0.3257  0.0924  0.1205
 3233TIP3    H1 9705   1.500   0.382   4.396  1.3747 -0.0277 -0.9415
 3233TIP3    H2 9706   1.500   0.259   4.308  0.1990 -1.0581  0.4404
 3234TIP3   OH2 9707   5.741   4.958   4.541  0.1769 -0.2318  0.0676
 3234TIP3    H1 9708   5.809   4.892   4.553 -0.0154 -0.1743  1.6581
 3234TIP3    H2 9709   5.689   4.954   4.620  0.4605  2.1815  0.4734
 3235TIP3   OH2 9710   5.244   0.169   4.223  0.6771  0.4953  0.2260
 3235TIP3    H1 9711   5.170   0.117   4.194  1.3971 -0.0811 -0.6214
 3235TIP3    H2 9712   5.216   0.206   4.307 -1.1454  1.5624 -0.7952
 3236TIP3   OH2 9713   5.538   5.031   1.800 -0.0174  0.2450 -0.7862
 3236TIP3    H1 9714   5.628   5.037   1.831 -0.1769 -0.7204 -0.0692
 3236TIP3    H2 9715   5.529   4.941   1.768 -1.0847 -0.1217  0.4206
 3237TIP3   OH2 9716   4.828   2.257   2.981 -0.7089  0.5071 -0.0554
 3237TIP3    H1 9717   4.905   2.257   3.037 -0.1113  0.8754 -0.8572
 3237TIP3    H2 9718   4.806   2.350   2.970  0.7704  0.6449 -2.5207
 3238TIP3   OH2 9719   3.768   4.957   1.759  0.0968  0.2364 -0.2157
 3238TIP3    H1 9720   3.847   4.990   1.803 -0.0980  1.4438 -0.7469
 3238TIP3    H2 9721   3.723   5.036   1.729 -1.2975 -0.4416  0.0412
 3239TIP3   OH2 9722   4.292   4.023   4.868 -0.2434 -0.0814  0.3223
 3239TIP3    H1 9723   4.224   3.961   4.894 -0.3251 -0.7825 -1.4354
 3239TIP3    H2 9724   4.279   4.036   4.774  1.7244  0.1540  0.0290
 3240TIP3   OH2 9725   6.059   2.207   0.805 -0.7337 -0.0667 -0.2756
 3240TIP3    H1 9726   6.063   2.267   0.880  2.4694  0.4973 -0.7536
 3240TIP3    H2 9727   6.096   2.256   0.732  0.9943 -2.1854 -0.9549
 3241TIP3   OH2 9728   3.062   4.395   1.849 -0.8316  0.7096  0.0687
 3241TIP3    H1 9729   3.129   4.329   1.866 -1.1057  0.5488  0.5318
 3241TIP3    H2 9730   3.012   4.401   1.931 -1.3938  0.8151 -0.2746
 3242TIP3   OH2 9731   6.258   1.674   4.157 -0.3711 -0.2151  0.0031
 3242TIP3    H1 9732   6.326   1.734   4.129  0.4496 -1.6165 -1.1346
 3242TIP3    H2 9733   6.306   1.599   4.194 -1.3484 -0.3906  0.9635
 3243TIP3   OH2 9734   3.606   2.602   3.231 -0.0321  0.0175  0.1895
 3243TIP3    H1 9735   3.556   2.527   3.264  1.1962 -1.4721 -1.1511
 3243TIP3    H2 9736   3.587   2.604   3.137  1.4465  0.1655 -0.1322
 3244TIP3   OH2 9737   4.930   3.926   1.332  0.1195 -0.0342  0.4700
 3244TIP3    H1 9738   4.984   3.966   1.264 -0.6595 -0.3966 -0.3909
 3244TIP3    H2 9739   4.849   3.901   1.287 -0.2136 -0.7470  1.4211
 3245TIP3   OH2 9740   1.239   3.195   2.385 -0.0060  0.3714 -0.6711
 3245TIP3    H1 9741   1.334   3.194   2.376  0.0003 -0.4154 -0.6631
 3245TIP3    H2 9742   1.222   3.239   2.468  0.4415 -0.7432  0.0447
 3246TIP3   OH2 9743   0.026   0.729   3.520 -0.2777 -0.2138  0.1001
 3246TIP3    H1 9744   0.088   0.704   3.587 -0.3504  1.1042  0.6931
 3246TIP3    H2 9745   0.075   0.724   3.438  0.0917 -0.8826  0.3597
 3247TIP3   OH2 9746   3.477   3.466   4.626 -0.0967 -0.5961 -0.2450
 3247TIP3    H1 9747   3.424   3.528   4.577 -0.2314 -1.3373 -1.0781
 3247TIP3    H2 9748   3.563   3.507   4.633 -0.4721  0.1331  0.1488
 3248TIP3   OH2 9749   0.826   3.126   0.144  0.4127  0.8061 -0.2274
 3248TIP3    H1 9750   0.833   3.176   0.062  0.5822 -0.1246 -0.7957
 3248TIP3    H2 9751   0.767   3.178   0.198  1.0222  1.9129 -0.5764
 3249TIP3   OH2 9752   1.811   2.845   4.247 -0.8375 -0.0159 -0.2775
 3249TIP3    H1 9753   1.903   2.823   4.234 -0.4323  1.7308 -0.6031
 3249TIP3    H2 9754   1.809   2.896   4.328 -1.8937 -2.0174  1.0520
 3250TIP3   OH2 9755   1.756   4.950   0.141  0.0330 -0.5641  0.3453
 3250TIP3    H1 9756   1.731   5.036   0.175  0.2316 -0.8266  1.1953
 3250TIP3    H2 9757   1.703   4.888   0.192 -0.6686 -0.9147 -0.7896
 3251TIP3   OH2 9758   1.879   3.483   0.102  0.1207 -0.6220 -0.1455
 3251TIP3    H1 9759   1.804   3.542   0.100  0.8504  0.3698  0.7142
 3251TIP3    H2 9760   1.881   3.444   0.015 -0.8828 -0.0314 -0.4562
 3252TIP3   OH2 9761   0.358   3.748   3.975 -1.0189 -0.1035  0.1391
 3252TIP3    H1 9762   0.447   3.721   3.999 -0.3054  1.9703  0.0661
 3252TIP3    H2 9763   0.354   3.739   3.880 -1.1240 -0.8379  0.2116
 3253TIP3   OH2 9764   2.966   4.162   4.336  0.1084 -0.2665 -0.2326
 3253TIP3    H1 9765   2.927   4.103   4.401 -0.8832 -0.3782 -0.9020
 3253TIP3    H2 9766   2.998   4.103   4.267  1.4649 -0.1716  0.2871
 3254TIP3   OH2 9767   5.485   5.318   1.798  0.4895 -0.1716 -0.1525
 3254TIP3    H1 9768   5.524   5.333   1.712  0.7183  2.9364  0.3881
 3254TIP3    H2 9769   5.500   5.225   1.816  6.6914  0.4131 -0.4739
 3255TIP3   OH2 9770   4.719   4.297   3.957  0.7185 -0.4053  0.6541
 3255TIP3    H1 9771   4.677   4.277   4.040 -0.1631  0.0750  0.3320
 3255TIP3    H2 9772   4.760   4.383   3.970 -1.0465  0.5829  0.0309
 3256TIP3   OH2 9773   0.884   2.371   4.575 -0.1172  0.3750 -0.2942
 3256TIP3    H1 9774   0.893   2.440   4.641 -0.3201  1.4947 -1.3973
 3256TIP3    H2 9775   0.828   2.409   4.508 -1.0227 -1.2290 -0.4892
 3257TIP3   OH2 9776   2.502   5.081   2.845 -0.1496 -0.5171 -0.0697
 3257TIP3    H1 9777   2.528   5.029   2.769  2.0587  1.1826 -0.5938
 3257TIP3    H2 9778   2.542   5.037   2.920  1.7387  0.3324 -0.5119
 3258TIP3   OH2 9779   0.970   0.195   1.010 -0.7482  0.1442  0.4487
 3258TIP3    H1 9780   1.025   0.118   0.997 -0.2308  0.5875 -0.1131
 3258TIP3    H2 9781   0.988   0.223   1.100 -1.1840 -0.5666  0.7614
 3259TIP3   OH2 9782   3.226   3.867   4.349 -0.1168 -0.3233  0.1024
 3259TIP3    H1 9783   3.211   3.957   4.322  1.2729 -0.4647 -1.3379
 3259TIP3    H2 9784   3.196   3.814   4.275 -2.3467 -1.2045  1.5188
 3260TIP3   OH2 9785   0.576   3.057   4.139 -0.4377 -0.1494  0.6188
 3260TIP3    H1 9786   0.519   2.981   4.131  0.7873 -0.9220 -2.4886
 3260TIP3    H2 9787   0.546   3.117   4.071  0.0959  1.1261  1.4672
 3261TIP3   OH2 9788   1.502   1.125   2.797 -0.1157 -0.6396 -0.3295
 3261TIP3    H1 9789   1.497   1.056   2.732  0.3813 -1.0219  0.0331
 3261TIP3    H2 9790   1.576   1.179   2.771  0.4310 -1.1126  0.2196
 3262TIP3   OH2 9791   5.471   4.540   1.657 -0.2492 -0.6010  0.1121
 3262TIP3    H1 9792   5.494   4.508   1.570  2.2080 -0.3268  0.5745
 3262TIP3    H2 9793   5.378   4.561   1.652 -0.3086 -1.2056 -2.2424
 3263TIP3   OH2 9794   0.517   1.484   3.295 -0.3933 -0.0366 -0.5088
 3263TIP3    H1 9795   0.576   1.431   3.241 -0.4758 -0.8612  0.1826
 3263TIP3    H2 9796   0.575   1.535   3.351 -0.3120  0.6457 -1.2030
 3264TIP3   OH2 9797   0.411   4.503   2.254  0.4869  0.1582  0.0921
 3264TIP3    H1 9798   0.368   4.513   2.169 -0.6972 -0.6130  0.5734
 3264TIP3    H2 9799   0.404   4.589   2.295  0.4433  0.3479 -0.3085
 3265TIP3   OH2 9800   4.015   5.323   0.722 -0.2625  0.7378 -0.0028
 3265TIP3    H1 9801   4.096   5.295   0.680 -0.3826 -0.6563  0.6473
 3265TIP3    H2 9802   4.028   5.303   0.815 -1.6497 -0.2675  0.0014
 3266TIP3   OH2 9803   0.518   0.566   5.120  0.1849 -0.0473  0.1436
 3266TIP3    H1 9804   0.607   0.562   5.084 -0.4411 -1.5874 -1.4050
 3266TIP3    H2 9805   0.500   0.659   5.130  1.7238  0.3114 -0.1820
 3267TIP3   OH2 9806   6.389   2.172   5.159  0.5490 -0.1108 -0.2065
 3267TIP3    H1 9807   6.341   2.090   5.149 -1.8009  1.0659  0.7234
 3267TIP3    H2 9808   6.332   2.226   5.214  2.8695  1.4913  0.7688
 3268TIP3   OH2 9809   5.363   5.049   4.398 -0.1128 -0.3094  0.4805
 3268TIP3    H1 9810   5.342   5.062   4.490 -1.1314  1.4726  0.0412
 3268TIP3    H2 9811   5.279   5.033   4.356  0.2364 -0.1809 -0.2863
 3269TIP3   OH2 9812   0.423   0.930   0.217  0.0541  0.3806 -0.2024
 3269TIP3    H1 9813   0.477   0.895   0.147  1.9545  1.8327  0.4510
 3269TIP3    H2 9814   0.413   1.023   0.195  1.5607  1.1073  1.9142
 3270TIP3   OH2 9815   0.232   3.960   3.423 -0.3768  0.3098 -0.0011
 3270TIP3    H1 9816   0.226   4.055   3.408 -0.3309  0.8407  2.7272
 3270TIP3    H2 9817   0.254   3.953   3.516 -0.9830 -2.4179 -0.0006
 3271TIP3   OH2 9818   0.497   0.618   2.334 -0.2888 -0.7433  0.2324
 3271TIP3    H1 9819   0.536   0.531   2.325  0.2999 -0.5255  0.6579
 3271TIP3    H2 9820   0.443   0.628   2.255  1.8436 -0.3549 -1.2637
 3272TIP3   OH2 9821   5.171   0.550   2.238  0.3935 -0.1206 -0.3057
 3272TIP3    H1 9822   5.133   0.514   2.319  0.3101 -2.0106 -1.1195
 3272TIP3    H2 9823   5.146   0.642   2.239 -1.9608 -0.6744  0.5114
 3273TIP3   OH2 9824   4.070   2.347   2.134  0.5469 -0.2289 -0.2716
 3273TIP3    H1 9825   4.006   2.342   2.063 -0.6307  0.2530  0.7109
 3273TIP3    H2 9826   4.017   2.361   2.213  1.9682  2.0993  0.3646
 3274TIP3   OH2 9827   0.558   4.473   1.544 -0.3268  0.1848  0.2952
 3274TIP3    H1 9828   0.543   4.424   1.624  1.7696 -1.4273 -0.2161
 3274TIP3    H2 9829   0.625   4.538   1.567  0.6425 -0.6036 -0.2199
 3275TIP3   OH2 9830   5.079   1.551   5.098 -1.2598  0.4347  0.2368
 3275TIP3    H1 9831   5.124   1.469   5.122 -2.2592 -0.9175 -2.2042
 3275TIP3    H2 9832   5.107   1.568   5.008 -1.3745  2.6141  0.5723
 3276TIP3   OH2 9833   3.251   0.758   1.186 -0.4118  0.6275 -0.3773
 3276TIP3    H1 9834   3.247   0.694   1.257  1.7473  1.6099  0.7512
 3276TIP3    H2 9835   3.221   0.840   1.226  1.7868  1.4218 -0.1990
 3277TIP3   OH2 9836   1.591   1.848   0.323  0.6111  0.0417 -0.1329
 3277TIP3    H1 9837   1.607   1.909   0.394 -0.0551  1.5825 -1.2515
 3277TIP3    H2 9838   1.502   1.866   0.295  0.2725 -1.6870 -0.2977
 3278TIP3   OH2 9839   4.795   4.106   4.973 -0.4506  0.0814  0.1901
 3278TIP3    H1 9840   4.737   4.066   4.909 -0.7449 -1.0326  1.1085
 3278TIP3    H2 9841   4.737   4.158   5.029 -0.7034 -1.4051  1.3965
 3279TIP3   OH2 9842   4.251   1.072   2.776  0.0084  0.3854 -0.3498
 3279TIP3    H1 9843   4.311   1.141   2.747 -0.4984  0.4732 -1.2351
 3279TIP3    H2 9844   4.180   1.073   2.711 -0.6709 -0.0868  0.3706
 3280TIP3   OH2 9845   4.431   4.566   3.309  0.1734  0.0861  0.0340
 3280TIP3    H1 9846   4.413   4.645   3.360  1.4600  1.3914 -1.4109
 3280TIP3    H2 9847   4.353   4.553   3.257  0.3679  1.1056 -0.5425
 3281TIP3   OH2 9848   0.442   5.113   3.328 -1.2270  0.3809 -0.2960
 3281TIP3    H1 9849   0.394   5.047   3.379 -1.2092  0.8056  0.2776
 3281TIP3    H2 9850   0.516   5.065   3.291 -0.4511  0.3289  1.2005
 3282TIP3   OH2 9851   5.839   3.663   1.184  0.4956 -0.3094 -0.3999
 3282TIP3    H1 9852   5.841   3.576   1.143  1.9633 -1.4581  1.8911
 3282TIP3    H2 9853   5.759   3.664   1.235 -1.4409  1.2020 -3.1985
 3283TIP3   OH2 9854   0.538   3.473   0.486  0.2764 -0.5949 -0.4766
 3283TIP3    H1 9855   0.617   3.508   0.528  0.5727  0.1036 -1.5927
 3283TIP3    H2 9856   0.523   3.390   0.531  0.1083  0.4637  1.5905
 3284TIP3   OH2 9857   0.332   0.451   0.460 -0.2648 -0.2212 -0.4461
 3284TIP3    H1 9858   0.274   0.374   0.459  1.0438 -1.2435 -1.7331
 3284TIP3    H2 9859   0.274   0.525   0.443 -1.7722 -0.7091  2.0495
 3285TIP3   OH2 9860   1.808   4.299   2.656 -0.2096 -0.2808 -0.3829
 3285TIP3    H1 9861   1.775   4.232   2.715  2.0059 -2.0752 -1.0534
 3285TIP3    H2 9862   1.744   4.303   2.585 -1.3623 -0.2206  0.6285
 3286TIP3   OH2 9863   4.528   0.287   4.089  0.4871 -0.5974  0.5940
 3286TIP3    H1 9864   4.522   0.239   4.172 -0.6346  1.2360  1.6150
 3286TIP3    H2 9865   4.593   0.356   4.106 -0.0829  0.0665  0.1061
 3287TIP3   OH2 9866   5.033   4.298   1.001 -0.3706  0.0045  0.1268
 3287TIP3    H1 9867   5.053   4.351   1.078 -0.7086 -0.9637  0.9131
 3287TIP3    H2 9868   5.000   4.216   1.037  0.2807 -0.8052 -1.0469
 3288TIP3   OH2 9869   3.393   1.038   0.351 -0.0179  0.0578  0.1663
 3288TIP3    H1 9870   3.322   1.078   0.401 -0.3208 -0.9217  0.5465
 3288TIP3    H2 9871   3.361   1.035   0.261 -0.1589  0.3040  0.2095
 3289TIP3   OH2 9872   1.055   5.337   2.504  0.5597  0.0166  0.2026
 3289TIP3    H1 9873   0.972   5.343   2.456  0.5280 -0.6015  0.1746
 3289TIP3    H2 9874   1.112   5.286   2.447  0.9123  0.3005  0.2968
 3290TIP3   OH2 9875   2.714   0.816   0.697 -0.4040 -0.1006  0.5903
 3290TIP3    H1 9876   2.778   0.752   0.730  1.2189  0.3347 -1.4825
 3290TIP3    H2 9877   2.762   0.899   0.697 -1.0925  0.3144 -0.6147
 3291TIP3   OH2 9878   5.123   3.749   0.487 -0.4321 -0.2642  0.0625
 3291TIP3    H1 9879   5.207   3.788   0.467 -0.8552  0.7064  0.1474
 3291TIP3    H2 9880   5.117   3.673   0.429  0.9198 -0.9358  0.7615
 3292TIP3   OH2 9881   0.316   1.356   4.690  0.5351  0.5551  0.1035
 3292TIP3    H1 9882   0.400   1.311   4.683  0.1393 -0.2149  0.2971
 3292TIP3    H2 9883   0.339   1.449   4.686  1.3040  0.3437 -0.8456
 3293TIP3   OH2 9884   1.589   0.797   2.295 -0.1112 -0.0357  0.1440
 3293TIP3    H1 9885   1.598   0.788   2.201  1.0570  0.8029  0.1538
 3293TIP3    H2 9886   1.634   0.721   2.331 -1.9350 -1.2290  0.0353
 3294TIP3   OH2 9887   1.830   3.226   3.974  0.4921  0.3920  0.3306
 3294TIP3    H1 9888   1.871   3.248   4.057  0.1787  1.2366  0.2696
 3294TIP3    H2 9889   1.888   3.265   3.908  0.4281  0.2315  0.1778
 3295TIP3   OH2 9890   5.080   5.250   3.674  0.1236  0.1743 -0.3145
 3295TIP3    H1 9891   5.110   5.189   3.742  1.8527  0.6542 -0.6091
 3295TIP3    H2 9892   5.020   5.198   3.620  0.0760 -0.7067  0.5549
 3296TIP3   OH2 9893   4.819   5.550   1.962  0.1493 -0.2276 -0.1293
 3296TIP3    H1 9894   4.740   5.586   2.002  2.3741  2.9365  1.8266
 3296TIP3    H2 9895   4.862   5.502   2.034  1.1150  0.0513 -0.5075
 3297TIP3   OH2 9896   5.834   4.485   1.542  0.6864  0.6139 -0.3228
 3297TIP3    H1 9897   5.882   4.519   1.618  0.3626  0.9569 -0.2641
 3297TIP3    H2 9898   5.762   4.435   1.580 -0.1053  1.6759 -0.3793
 3298TIP3   OH2 9899   1.621   5.314   3.567 -0.1835 -0.1159 -0.3226
 3298TIP3    H1 9900   1.539   5.363   3.570 -0.1935 -0.0587 -1.1876
 3298TIP3    H2 9901   1.689   5.381   3.563 -0.0672 -0.1588  0.6859
 3299TIP3   OH2 9902   0.070   3.503   3.531 -0.1898 -0.6729  0.1516
 3299TIP3    H1 9903  -0.017   3.532   3.557  0.7518  0.8624  1.9261
 3299TIP3    H2 9904   0.088   3.548   3.449 -0.5480  0.0905  0.4896
 3300TIP3   OH2 9905   0.844   2.613   0.638  0.0676  0.5996  0.2826
 3300TIP3    H1 9906   0.895   2.675   0.690 -0.0103  0.5057  0.4715
 3300TIP3    H2 9907   0.790   2.669   0.582  0.4988  0.6992 -0.0407
 3301TIP3   OH2 9908   5.899   1.100   1.503 -0.4934  0.3198  0.0556
 3301TIP3    H1 9909   5.885   1.011   1.470  0.2914  0.2305 -0.0574
 3301TIP3    H2 9910   5.841   1.154   1.449 -2.0081 -0.2683  1.0207
 3302TIP3   OH2 9911   1.113   5.552   2.654  0.0992  0.1608 -0.0203
 3302TIP3    H1 9912   1.129   5.618   2.586 -0.0117 -0.2811 -0.4834
 3302TIP3    H2 9913   1.091   5.472   2.605  0.3122 -0.2417  0.5311
 3303TIP3   OH2 9914   1.947   1.228   4.856  0.3753  0.0457  0.1597
 3303TIP3    H1 9915   1.859   1.250   4.887  0.1770 -0.1728 -0.2259
 3303TIP3    H2 9916   1.937   1.222   4.761  0.6455 -0.6788  0.1721
 3304TIP3   OH2 9917   4.333   4.382   2.019 -0.0242 -0.0958 -0.0889
 3304TIP3    H1 9918   4.242   4.366   2.046  0.1765  1.9400  2.2019
 3304TIP3    H2 9919   4.368   4.295   2.000 -2.7906 -0.8415 -2.4841
 3305TIP3   OH2 9920   1.527   0.963   1.334 -0.1055  0.4168 -0.2045
 3305TIP3    H1 9921   1.568   1.048   1.320  0.6499  0.5812  2.5894
 3305TIP3    H2 9922   1.437   0.984   1.361 -0.1002  0.2949 -0.0934
 3306TIP3   OH2 9923   0.180   2.878   4.943 -0.4033 -0.2650  0.0573
 3306TIP3    H1 9924   0.110   2.863   5.007 -0.7669  0.4906 -0.1558
 3306TIP3    H2 9925   0.158   2.961   4.902 -0.7862 -1.2683 -1.8603
 3307TIP3   OH2 9926   5.894   2.190   1.303 -0.0850  0.0923  0.1251
 3307TIP3    H1 9927   5.830   2.118   1.304 -0.6587  0.3728  4.1971
 3307TIP3    H2 9928   5.843   2.268   1.324  1.3001  0.4916  2.4665
 3308TIP3   OH2 9929   6.332   4.676   4.069 -0.1551 -0.5096 -0.4306
 3308TIP3    H1 9930   6.395   4.612   4.101 -0.9767 -0.6709  0.9486
 3308TIP3    H2 9931   6.312   4.647   3.980  2.3321  0.0545 -1.2301
 3309TIP3   OH2 9932   0.931   0.488   0.715  0.3288 -0.7699 -0.6976
 3309TIP3    H1 9933   1.017   0.478   0.675  0.1375 -1.4215 -0.9635
 3309TIP3    H2 9934   0.945   0.470   0.808  0.2776 -2.0817 -0.9205
 3310TIP3   OH2 9935   3.249   5.063   3.402  0.3536  0.5011  0.1463
 3310TIP3    H1 9936   3.228   4.973   3.427  1.1981  0.3279  0.2541
 3310TIP3    H2 9937   3.282   5.056   3.313 -0.2124  0.7942 -0.0907
 3311TIP3   OH2 9938   2.627   5.859   1.786 -1.3444 -0.7443  0.6924
 3311TIP3    H1 9939   2.613   5.954   1.786  2.3001 -0.0609  0.3751
 3311TIP3    H2 9940   2.636   5.836   1.694  0.3009 -0.8416  0.8392
 3312TIP3   OH2 9941   5.142   1.225   2.924  0.0857  0.1534  0.2347
 3312TIP3    H1 9942   5.123   1.309   2.967  0.1995  0.9754 -1.2461
 3312TIP3    H2 9943   5.129   1.160   2.993  2.6806  1.5481  2.2511
 3313TIP3   OH2 9944   2.090   4.905   4.504  0.7619  0.9624 -1.0952
 3313TIP3    H1 9945   2.136   4.968   4.559  0.6108 -0.6143  0.9281
 3313TIP3    H2 9946   2.034   4.856   4.564 -2.5057  1.7563 -3.2336
 3314TIP3   OH2 9947   5.365   5.101   2.760 -0.0925 -0.4690 -0.1571
 3314TIP3    H1 9948   5.410   5.137   2.684 -1.9430 -0.3798 -1.2615
 3314TIP3    H2 9949   5.374   5.006   2.751 -0.7391 -0.4738 -0.7689
 3315TIP3   OH2 9950   4.371   0.287   0.335  0.1608 -0.1601  0.1963
 3315TIP3    H1 9951   4.304   0.220   0.321  0.1181 -0.0260 -0.2748
 3315TIP3    H2 9952   4.326   0.370   0.319  0.6618 -0.1058 -1.1395
 3316TIP3   OH2 9953   0.697   5.778   0.363  0.3564  0.0366  0.4772
 3316TIP3    H1 9954   0.759   5.762   0.292  1.1465 -1.2529  1.3910
 3316TIP3    H2 9955   0.662   5.691   0.384  0.8338  0.2233  2.2256
 3317TIP3   OH2 9956   0.218   3.118   0.191 -0.2391  0.1579 -0.0414
 3317TIP3    H1 9957   0.127   3.111   0.161 -0.1652 -0.0272 -0.2259
 3317TIP3    H2 9958   0.212   3.114   0.287 -0.3434 -0.9253 -0.0772
 3318TIP3   OH2 9959   5.869   5.228   4.623  0.5472  0.1517 -0.1637
 3318TIP3    H1 9960   5.869   5.175   4.543 -0.5616  0.7056 -0.5554
 3318TIP3    H2 9961   5.784   5.272   4.622  1.2744  1.6393  0.3316
 3319TIP3   OH2 9962   3.797   4.206   0.942 -0.4465  0.5031  0.3083
 3319TIP3    H1 9963   3.729   4.139   0.933 -0.5129  0.4627  1.0561
 3319TIP3    H2 9964   3.828   4.220   0.852 -0.9964  0.0638  0.0386
 3320TIP3   OH2 9965   0.559   0.460   3.749 -0.1081 -0.5626 -0.3101
 3320TIP3    H1 9966   0.503   0.403   3.696  1.8103 -0.9610 -2.0166
 3320TIP3    H2 9967   0.637   0.409   3.766  0.0170  0.1721  1.5823
 3321TIP3   OH2 9968   2.701   3.542   1.782  0.1317  0.1561 -0.8099
 3321TIP3    H1 9969   2.791   3.573   1.792  0.5978 -1.4831  0.5792
 3321TIP3    H2 9970   2.710   3.458   1.736 -0.7338  0.1504 -0.9807
 3322TIP3   OH2 9971   0.659   2.662   0.239 -0.3043 -0.3384  0.3524
 3322TIP3    H1 9972   0.698   2.744   0.208  0.2548  0.1489  2.2214
 3322TIP3    H2 9973   0.718   2.594   0.206 -0.1705  0.0753 -0.2959
 3323TIP3   OH2 9974   6.167   4.139   2.256  0.3203 -0.7850  1.0174
 3323TIP3    H1 9975   6.094   4.092   2.215  0.6778 -0.3784 -0.1337
 3323TIP3    H2 9976   6.143   4.144   2.349 -0.3781 -2.0030  0.9279
 3324TIP3   OH2 9977   4.589   5.176   3.285 -0.2528  0.4318 -0.6783
 3324TIP3    H1 9978   4.659   5.118   3.256 -0.8386 -0.7731  0.2027
 3324TIP3    H2 9979   4.632   5.240   3.342  0.1681 -0.1372 -0.3495
 3325TIP3   OH2 9980   6.109   2.820   2.977  0.1057  0.0658  0.4260
 3325TIP3    H1 9981   6.037   2.762   2.951 -0.5980  1.1959 -0.2083
 3325TIP3    H2 9982   6.149   2.776   3.052 -1.3969 -0.4769  0.9430
 3326TIP3   OH2 9983   2.307   3.386   3.049 -0.2306  0.1815 -0.1956
 3326TIP3    H1 9984   2.277   3.308   3.002 -0.8918  0.5343 -0.3724
 3326TIP3    H2 9985   2.231   3.445   3.049  0.1292  0.6572  0.2996
 3327TIP3   OH2 9986   6.300   3.084   2.565  0.3535 -0.1135  0.0405
 3327TIP3    H1 9987   6.218   3.080   2.516  0.7066  0.5019 -0.6210
 3327TIP3    H2 9988   6.279   3.046   2.650 -0.8921  1.0603  0.2844
 3328TIP3   OH2 9989   3.298   2.259   4.664  0.3711 -0.0421  0.2286
 3328TIP3    H1 9990   3.303   2.260   4.760 -0.7501  0.8002  0.2998
 3328TIP3    H2 9991   3.362   2.324   4.637 -0.3511  0.8051  0.4940
 3329TIP3   OH2 9992   3.295   1.008   0.039 -0.1974 -0.0126 -0.1880
 3329TIP3    H1 9993   3.201   1.010   0.055 -0.5320  0.0028 -1.9556
 3329TIP3    H2 9994   3.306   1.055  -0.045  1.1225 -1.7902 -1.0704
 3330TIP3   OH2 9995   1.647   2.201   4.445  0.0154  0.1567  0.1850
 3330TIP3    H1 9996   1.714   2.151   4.399  0.9665  0.7766  0.8762
 3330TIP3    H2 9997   1.645   2.164   4.533 -2.5927 -1.7970 -0.5547
 3331TIP3   OH2 9998   1.529   5.041   0.020  0.0680  0.0832  0.2671
 3331TIP3    H1 9999   1.584   4.964   0.027  0.0648  0.0313 -0.2511
 3331TIP3    H210000   1.551   5.094   0.097  0.9383  0.1318 -0.0117
 3332TIP3   OH210001   0.264   3.351   4.244 -0.8072  0.4627 -0.7524
 3332TIP3    H110002   0.190   3.292   4.256 -0.6285  0.3388 -0.2087
 3332TIP3    H210003   0.274   3.395   4.329  1.5281 -1.6217  0.1929
 3333TIP3   OH210004   4.084   0.616   4.878 -0.0994 -0.3458 -0.2922
 3333TIP3    H110005   4.132   0.553   4.931 -0.8033 -2.3876 -1.9455
 3333TIP3    H210006   4.121   0.701   4.903  1.0207 -1.3868  1.8798
 3334TIP3   OH210007   3.972   0.961   0.105 -0.3969  0.0808  0.3166
 3334TIP3    H110008   4.002   1.048   0.080 -0.7502  0.2750  0.5664
 3334TIP3    H210009   3.880   0.958   0.078 -0.4568 -0.1241  0.5391
 3335TIP3   OH210010   4.833   1.386   1.511  0.1000 -1.0484  0.2510
 3335TIP3    H110011   4.861   1.295   1.507  1.5912 -0.5871 -0.2053
 3335TIP3    H210012   4.906   1.436   1.474 -0.7955  0.3148  0.2501
 3336TIP3   OH210013   4.020   0.376   2.921 -0.2416 -0.1436 -0.3598
 3336TIP3    H110014   4.098   0.427   2.903 -1.2089  1.7361  0.5530
 3336TIP3    H210015   4.044   0.319   2.994  0.0390  1.0250  0.4749
 3337TIP3   OH210016   1.728   2.708   2.331  0.2891 -0.4758 -0.3674
 3337TIP3    H110017   1.783   2.697   2.409 -0.2530 -0.7529 -0.0168
 3337TIP3    H210018   1.690   2.622   2.316 -2.1592  0.2898  1.0087
 3338TIP3   OH210019   1.790   1.848   1.237  0.2402 -0.0834 -0.2607
 3338TIP3    H110020   1.771   1.777   1.299 -0.2517  0.2033 -0.0776
 3338TIP3    H210021   1.877   1.828   1.204  0.5560 -0.1948  0.5972
 3339TIP3   OH210022   3.486   2.032   4.053  0.1478  0.0571 -0.0554
 3339TIP3    H110023   3.530   2.106   4.012  0.0585  0.6597  0.9230
 3339TIP3    H210024   3.510   1.957   3.998  0.2873  0.7838 -1.0180
 3340TIP3   OH210025   3.636   4.864   0.530 -0.1382 -0.0720  0.3745
 3340TIP3    H110026   3.648   4.769   0.521 -0.6608 -0.1304  0.2459
 3340TIP3    H210027   3.583   4.874   0.609 -0.7656  0.0505 -0.0455
 3341TIP3   OH210028   5.208   1.436   4.120 -0.1816  0.3832  0.2672
 3341TIP3    H110029   5.231   1.344   4.112 -3.1443 -0.3569 -0.8422
 3341TIP3    H210030   5.274   1.482   4.068  1.8351 -0.9490  1.5207
 3342TIP3   OH210031   1.657   1.620   0.161  0.0313  0.7721 -0.3183
 3342TIP3    H110032   1.662   1.665   0.077 -0.4985  1.5029  0.0309
 3342TIP3    H210033   1.648   1.690   0.226  1.8347  0.3120  0.5086
 3343TIP3   OH210034   5.400   4.093   1.709  1.2078 -0.5425 -0.6859
 3343TIP3    H110035   5.326   4.038   1.685 -0.5582  1.4800 -0.1807
 3343TIP3    H210036   5.368   4.145   1.783  3.4626 -0.2302  0.1509
 3344TIP3   OH210037   1.916   3.787   3.370 -0.3755  0.2211 -0.8644
 3344TIP3    H110038   1.839   3.843   3.378 -1.5764 -1.6333  2.5066
 3344TIP3    H210039   1.953   3.784   3.458  1.1121 -2.2388 -1.4750
 3345TIP3   OH210040   4.132   5.041   3.629 -0.1412 -0.4159 -0.3938
 3345TIP3    H110041   4.082   4.964   3.658 -0.0226 -0.0519  0.8407
 3345TIP3    H210042   4.072   5.089   3.572 -0.7674 -0.6281  0.0749
 3346TIP3   OH210043   1.377   0.967   5.163  0.7956 -0.5944  0.6455
 3346TIP3    H110044   1.379   1.062   5.157 -1.3752 -0.4964  0.8111
 3346TIP3    H210045   1.348   0.938   5.077 -0.9775 -0.9177  1.3073
 3347TIP3   OH210046   0.458   4.209   2.397  0.6405 -0.3463 -0.0255
 3347TIP3    H110047   0.521   4.138   2.381 -1.2111 -2.1184  0.0389
 3347TIP3    H210048   0.444   4.249   2.311  1.4180 -0.3327 -0.1446
 3348TIP3   OH210049   1.937   3.033   2.028  0.2561 -0.1475  0.1970
 3348TIP3    H110050   1.878   3.008   2.099  0.2256  0.1667  0.2840
 3348TIP3    H210051   1.880   3.056   1.955  0.2682  0.2303  0.3061
 3349TIP3   OH210052   3.718   2.383   0.975  0.0748  0.2946 -0.0439
 3349TIP3    H110053   3.783   2.317   0.952  0.3122  0.3330  0.5129
 3349TIP3    H210054   3.650   2.335   1.020 -0.5081  0.1803 -1.0073
 3350TIP3   OH210055   0.635   2.771   3.326 -0.2328 -0.0225  0.3655
 3350TIP3    H110056   0.561   2.731   3.280 -0.3921 -0.2047  0.7833
 3350TIP3    H210057   0.598   2.803   3.408  0.2342 -0.4780  0.7584
 3351TIP3   OH210058   2.431   0.813   2.815 -0.0258  0.3401  0.2497
 3351TIP3    H110059   2.471   0.871   2.750  0.7139  0.7793  1.0719
 3351TIP3    H210060   2.376   0.871   2.869 -0.5235  0.0058  0.1141
 3352TIP3   OH210061   1.795   1.379   1.228 -0.3093 -0.4227 -0.5188
 3352TIP3    H110062   1.878   1.332   1.217  0.5800  1.1269 -0.7189
 3352TIP3    H210063   1.740   1.347   1.156  0.4119 -0.8371 -0.8968
 3353TIP3   OH210064   2.621   5.316   0.009 -0.1053  0.2791  0.6285
 3353TIP3    H110065   2.707   5.357   0.004  0.5559 -1.1966 -1.2204
 3353TIP3    H210066   2.627   5.255   0.082  0.6231 -0.2089  0.1711
 3354TIP3   OH210067   0.669   0.412   4.510  0.1752  0.1887  0.4803
 3354TIP3    H110068   0.764   0.419   4.510  0.0915  1.8913  1.6247
 3354TIP3    H210069   0.651   0.338   4.569  0.7730 -0.5523 -0.2371
 3355TIP3   OH210070   3.260   1.842   2.631 -0.0112 -0.0195  0.9439
 3355TIP3    H110071   3.182   1.788   2.618  0.5648 -0.7422  0.4313
 3355TIP3    H210072   3.253   1.910   2.565  1.5338 -2.1219 -1.5606
 3356TIP3   OH210073   2.836   4.690   4.137 -0.0643 -0.0322  0.0711
 3356TIP3    H110074   2.845   4.628   4.064 -0.8919 -0.1488  0.0518
 3356TIP3    H210075   2.923   4.694   4.176  0.3843 -0.0024 -0.8925
 3357TIP3   OH210076   4.932   2.072   2.435  0.5788 -0.6361  0.2985
 3357TIP3    H110077   4.900   2.003   2.377 -0.9931  0.8550 -0.6950
 3357TIP3    H210078   5.025   2.053   2.446  0.3363 -2.4773 -0.5377
 3358TIP3   OH210079   0.152   5.079   1.033  0.2000  0.7437  0.2395
 3358TIP3    H110080   0.072   5.040   0.998  0.3153  0.0009  0.7814
 3358TIP3    H210081   0.135   5.173   1.034 -0.3642  0.6587 -0.3852
 3359TIP3   OH210082   6.136   0.188   4.853  0.4491  0.3038 -0.3036
 3359TIP3    H110083   6.153   0.111   4.799  1.6973  1.8769 -2.3036
 3359TIP3    H210084   6.131   0.154   4.943 -0.8305 -2.2903 -1.2642
 3360TIP3   OH210085   4.024   2.890   5.183 -0.3440  0.1106  0.1836
 3360TIP3    H110086   3.991   2.812   5.136 -0.5444 -0.6570  1.5588
 3360TIP3    H210087   4.031   2.957   5.115 -1.2464 -0.7824 -0.8343
 3361TIP3   OH210088   3.298   5.111   1.765  0.0850  0.2564 -0.2548
 3361TIP3    H110089   3.235   5.175   1.731 -1.1372  0.1598  1.6857
 3361TIP3    H210090   3.372   5.117   1.705 -1.2147  1.3418 -1.8478
 3362TIP3   OH210091   0.413   2.867   4.780 -0.2186  0.8343  0.8039
 3362TIP3    H110092   0.326   2.863   4.821 -0.7371  0.0965 -0.3256
 3362TIP3    H210093   0.413   2.950   4.733 -0.3311  0.8097  0.7592
 3363TIP3   OH210094   4.424   5.637   2.001 -0.4258 -0.0695  0.0264
 3363TIP3    H110095   4.375   5.569   2.047  0.0268 -0.7156 -0.4295
 3363TIP3    H210096   4.511   5.635   2.042 -1.2030  2.2590  2.0594
 3364TIP3   OH210097   1.225   4.448   1.814  0.1428  0.2558 -0.2405
 3364TIP3    H110098   1.315   4.459   1.783  0.5687 -3.1695 -0.5872
 3364TIP3    H210099   1.177   4.417   1.736 -1.3450  1.8391 -0.0165
 3365TIP3   OH210100   2.608   4.438   1.369 -0.0310  0.1930 -0.4856
 3365TIP3    H110101   2.579   4.522   1.404  0.5099  0.6768 -1.1437
 3365TIP3    H210102   2.614   4.381   1.445 -0.5076  0.7197 -0.0402
 3366TIP3   OH210103   1.550   5.284   4.329  0.0165  0.1663 -0.1533
 3366TIP3    H110104   1.538   5.292   4.235  2.8154 -1.4923 -0.7503
 3366TIP3    H210105   1.614   5.351   4.352  0.9250 -0.7845  0.1608
 3367TIP3   OH210106   1.674   3.229   0.254 -0.0553 -0.4253 -0.3707
 3367TIP3    H110107   1.752   3.184   0.285 -1.0072 -1.1924  1.0140
 3367TIP3    H210108   1.671   3.310   0.306  1.5185  1.2510 -2.6776
 3368TIP3   OH210109   0.137   3.070   2.336 -0.2446 -0.3911 -0.3877
 3368TIP3    H110110   0.065   3.103   2.282 -0.6848 -2.6210 -1.2577
 3368TIP3    H210111   0.099   3.057   2.423 -0.3203  0.4103 -0.2961
 3369TIP3   OH210112   4.795   3.935   0.393  0.5350 -0.3498 -0.3650
 3369TIP3    H110113   4.806   3.852   0.346 -0.0506 -0.1809 -0.8012
 3369TIP3    H210114   4.829   3.917   0.481  0.4416 -1.0451 -0.4652
 3370TIP3   OH210115   2.415   0.545   4.248 -0.4555  0.3338  0.1549
 3370TIP3    H110116   2.339   0.505   4.206  0.7934 -2.0186 -0.0254
 3370TIP3    H210117   2.407   0.521   4.340  0.2198 -0.1953  0.0798
 3371TIP3   OH210118   0.264   2.201   1.417 -0.0177  0.0266  0.3688
 3371TIP3    H110119   0.289   2.109   1.423 -2.2703 -0.6972 -0.3019
 3371TIP3    H210120   0.325   2.239   1.353  0.0612 -1.3477 -0.4078
 3372TIP3   OH210121   5.908   3.884   0.902 -0.0119  0.5681  1.2029
 3372TIP3    H110122   5.917   3.969   0.944 -0.9385  1.8060 -0.9449
 3372TIP3    H210123   5.818   3.857   0.920  0.1036  0.3057  1.3993
 3373TIP3   OH210124   4.836   1.873   1.791 -0.1310 -0.1612  0.3103
 3373TIP3    H110125   4.767   1.807   1.801  0.7292 -1.0795  0.2866
 3373TIP3    H210126   4.788   1.955   1.780 -1.2221 -0.7182  0.6890
 3374TIP3   OH210127   4.373   5.318   2.099 -0.7203  0.4119  0.2862
 3374TIP3    H110128   4.448   5.337   2.042 -0.8679  1.1101  0.3225
 3374TIP3    H210129   4.413   5.295   2.183 -0.3906 -2.6267 -0.5690
 3375TIP3   OH210130   0.362   4.965   1.173  0.6109  0.3392  0.2842
 3375TIP3    H110131   0.326   4.885   1.212 -2.0200  1.8554  1.2697
 3375TIP3    H210132   0.294   4.993   1.111  1.6623  1.5882 -0.3410
 3376TIP3   OH210133   3.821   4.374   3.480 -0.8489 -0.0344 -0.2156
 3376TIP3    H110134   3.742   4.404   3.434  0.4034  2.6594 -0.8512
 3376TIP3    H210135   3.893   4.417   3.433  0.9711 -1.9589  0.6795
 3377TIP3   OH210136   0.263   3.864   1.286  0.3153 -0.2444  0.8571
 3377TIP3    H110137   0.355   3.893   1.286 -0.1293  1.9253 -3.1237
 3377TIP3    H210138   0.214   3.941   1.314 -0.4086 -0.0881 -0.7092
 3378TIP3   OH210139   4.071   5.824   4.983 -0.3974  0.6909  0.3068
 3378TIP3    H110140   4.025   5.773   4.918  0.3752 -1.9823  1.7129
 3378TIP3    H210141   4.137   5.873   4.933 -1.3202  0.5219 -1.1253
 3379TIP3   OH210142   1.823   0.146   0.496  0.2007  0.3444 -0.5432
 3379TIP3    H110143   1.783   0.060   0.511  1.2632 -0.3043 -1.3771
 3379TIP3    H210144   1.901   0.146   0.552 -0.2583  1.1283  0.1282
 3380TIP3   OH210145   4.410   2.525   3.639 -0.2387  0.7755  0.1186
 3380TIP3    H110146   4.441   2.563   3.721 -0.6466 -1.6686  1.5042
 3380TIP3    H210147   4.472   2.454   3.621 -0.8130  0.5519 -1.0645
 3381TIP3   OH210148   3.652   2.853   1.533 -0.2976  0.4185  0.3253
 3381TIP3    H110149   3.599   2.915   1.482 -1.9844  1.6022  3.2424
 3381TIP3    H210150   3.588   2.792   1.571  1.1115 -1.7718 -0.6119
 3382TIP3   OH210151   3.860   1.162   4.391  0.1153  0.3892 -0.3847
 3382TIP3    H110152   3.769   1.154   4.364  0.0330 -0.5481  0.1413
 3382TIP3    H210153   3.899   1.223   4.328 -0.3702 -0.7708 -1.8646
 3383TIP3   OH210154   1.307   5.336   2.683  0.5942 -0.0578 -0.8536
 3383TIP3    H110155   1.266   5.419   2.706 -0.6800 -0.8046 -0.3354
 3383TIP3    H210156   1.359   5.356   2.605  2.9014  1.9255  1.0099
 3384TIP3   OH210157   1.089   2.136   4.764 -0.0449  0.5377  0.1918
 3384TIP3    H110158   1.178   2.157   4.736  0.4963 -2.0628 -0.2671
 3384TIP3    H210159   1.041   2.219   4.754  1.9169  1.6038 -1.1088
 3385TIP3   OH210160   2.029   4.282   1.884 -0.5888  0.0225  0.3091
 3385TIP3    H110161   2.046   4.204   1.936 -2.0676 -0.3316  0.3170
 3385TIP3    H210162   1.979   4.251   1.809  1.7642  0.4814 -1.5444
 3386TIP3   OH210163   5.348   3.651   0.947  0.1081  0.1066 -0.1096
 3386TIP3    H110164   5.257   3.631   0.922  0.9804 -3.4032 -1.1088
 3386TIP3    H210165   5.371   3.726   0.892 -1.8433  0.3810 -0.6622
 3387TIP3   OH210166   2.255   2.398   1.155  0.6049 -0.5484 -0.2956
 3387TIP3    H110167   2.262   2.494   1.156  0.7695 -0.5625  0.0179
 3387TIP3    H210168   2.221   2.377   1.068 -1.0498 -0.1049  0.2122
 3388TIP3   OH210169   6.156   2.948   0.861  0.2009  0.3616 -0.4264
 3388TIP3    H110170   6.195   2.902   0.936 -0.1650  0.6224 -0.0700
 3388TIP3    H210171   6.068   2.911   0.854  1.1185 -1.6414 -2.4505
 3389TIP3   OH210172   1.270   5.341   2.089  0.0143 -0.3184 -0.1529
 3389TIP3    H110173   1.303   5.252   2.076 -1.5793 -0.7660 -1.5228
 3389TIP3    H210174   1.271   5.380   2.002 -3.4152 -0.5539 -0.4311
 3390TIP3   OH210175   0.701   1.013   0.280  0.3033  0.4365  0.0964
 3390TIP3    H110176   0.706   1.068   0.201 -0.0242  0.0706 -0.1841
 3390TIP3    H210177   0.633   1.052   0.333 -0.4529 -0.1202 -0.4437
 3391TIP3   OH210178   0.336   0.781   5.159  0.4703 -0.4026  0.0439
 3391TIP3    H110179   0.261   0.826   5.120  0.1684 -0.5602  0.4319
 3391TIP3    H210180   0.381   0.849   5.209 -0.2518 -0.6033  1.0214
 3392TIP3   OH210181   3.809   0.104   1.879  0.1881  0.5355  0.7119
 3392TIP3    H110182   3.758   0.131   1.803 -0.2283 -0.7856  0.4857
 3392TIP3    H210183   3.780   0.162   1.950  0.1262  1.3622  0.0179
 3393TIP3   OH210184   0.557   0.668   4.401 -0.6493 -0.2538 -0.0196
 3393TIP3    H110185   0.585   0.629   4.483 -0.2741 -0.7842 -0.3894
 3393TIP3    H210186   0.616   0.630   4.335 -1.8508 -0.9591 -0.7457
 3394TIP3   OH210187   5.499   2.905   1.018  0.6675 -0.0189 -0.1685
 3394TIP3    H110188   5.413   2.916   1.059  0.5985 -0.6210 -0.1386
 3394TIP3    H210189   5.560   2.897   1.091  0.6048 -0.6316 -0.1734
 3395TIP3   OH210190   4.633   4.733   4.017  0.3841  0.4252  0.2888
 3395TIP3    H110191   4.723   4.709   3.997 -0.0435 -2.4786  1.3030
 3395TIP3    H210192   4.640   4.812   4.071  2.0347  2.2510 -2.3606
 3396TIP3   OH210193   2.710   5.753   2.804  0.7853 -1.2589  0.3734
 3396TIP3    H110194   2.626   5.799   2.801  1.1432 -0.6458 -0.8363
 3396TIP3    H210195   2.704   5.697   2.881 -0.3760 -0.5355  0.8328
 3397TIP3   OH210196   3.284   5.745   2.490 -0.3379 -0.6563 -1.3169
 3397TIP3    H110197   3.325   5.708   2.568  0.5193  0.3712 -1.2494
 3397TIP3    H210198   3.357   5.782   2.439 -1.1995  2.1286 -0.7126
 3398TIP3   OH210199   1.073   1.949   3.360 -0.0611  0.0856 -0.0897
 3398TIP3    H110200   1.144   2.006   3.329  0.1873  0.2748  0.8167
 3398TIP3    H210201   1.109   1.905   3.436 -1.1620  0.7352  0.8336
 3399TIP3   OH210202   1.103   0.162   2.138 -0.0843 -0.4306 -0.1849
 3399TIP3    H110203   1.090   0.190   2.229  0.4907 -1.3371  0.1878
 3399TIP3    H210204   1.183   0.208   2.110 -0.6308  0.3697 -0.4636
 3400TIP3   OH210205   0.390   1.397   2.716 -0.3174 -0.1140 -0.1550
 3400TIP3    H110206   0.328   1.327   2.740 -0.6946  0.2568 -0.0395
 3400TIP3    H210207   0.468   1.377   2.768  0.1561 -1.3393 -1.2838
 3401TIP3   OH210208   1.331   4.927   4.809 -0.0223  0.1544 -0.7901
 3401TIP3    H110209   1.381   4.872   4.869 -0.8149  1.4901  1.1838
 3401TIP3    H210210   1.323   4.874   4.729  0.9284 -1.7541  0.3064
 3402TIP3   OH210211   3.981   3.543   2.969  0.2802 -0.1961 -0.5223
 3402TIP3    H110212   3.906   3.566   2.915 -0.2218  2.2149  1.0348
 3402TIP3    H210213   4.057   3.575   2.920  0.0031  0.1574 -0.7246
 3403TIP3   OH210214   4.675   2.025   2.604  0.0679 -0.9793 -0.6184
 3403TIP3    H110215   4.696   2.088   2.673 -1.3402  0.4654 -1.4384
 3403TIP3    H210216   4.755   2.019   2.552  0.0115  0.7472 -0.9584
 3404TIP3   OH210217   5.836   2.608   1.362 -0.1280  0.4197  0.6937
 3404TIP3    H110218   5.813   2.699   1.342  1.4099  0.5338 -0.8816
 3404TIP3    H210219   5.791   2.589   1.444  0.5913  3.0439  1.7975
 3405TIP3   OH210220   5.933   0.656   2.258 -0.3262  0.1755  0.2493
 3405TIP3    H110221   5.843   0.652   2.289 -0.5836 -1.6108 -0.6108
 3405TIP3    H210222   5.927   0.645   2.163  0.8856 -2.1444  0.3690
 3406TIP3   OH210223   3.083   4.319   3.108  0.0478 -0.2076 -0.0613
 3406TIP3    H110224   3.150   4.338   3.042 -0.7648  0.7175 -0.6533
 3406TIP3    H210225   3.016   4.271   3.060 -0.6462  0.6545  0.0350
 3407TIP3   OH210226   0.663   4.958   4.421 -0.2073  0.0054 -0.5163
 3407TIP3    H110227   0.581   4.911   4.433 -0.6647  1.0775  0.8493
 3407TIP3    H210228   0.653   5.005   4.338  0.0428 -1.7827 -1.6166
 3408TIP3   OH210229   5.003   4.263   3.745  0.1027 -0.0992  0.2184
 3408TIP3    H110230   4.960   4.192   3.792 -0.9433  0.4584  0.1363
 3408TIP3    H210231   5.061   4.303   3.810 -1.4691  0.7894  1.1361
 3409TIP3   OH210232   1.863   4.175   1.696  0.6477  0.2320  0.5949
 3409TIP3    H110233   1.918   4.098   1.679  0.1845  0.3155 -1.5092
 3409TIP3    H210234   1.802   4.147   1.763  0.2102 -1.4013 -0.4429
 3410TIP3   OH210235   6.243   5.357   1.315 -0.6036 -0.6854 -0.2494
 3410TIP3    H110236   6.280   5.377   1.402 -2.0152 -1.3187  0.5177
 3410TIP3    H210237   6.194   5.436   1.292 -2.4614 -1.4806  0.7752
 3411TIP3   OH210238   1.463   1.603   5.194 -0.5732 -0.4211  0.1961
 3411TIP3    H110239   1.468   1.697   5.175  0.4861  0.0069  2.2523
 3411TIP3    H210240   1.530   1.564   5.138  0.7827  0.4505  1.1209
 3412TIP3   OH210241   4.908   1.753   4.290 -0.3806 -0.1271  0.8145
 3412TIP3    H110242   4.899   1.665   4.253  0.9050  0.2502 -0.4883
 3412TIP3    H210243   5.003   1.764   4.301 -0.3481  1.7890 -0.8736
 3413TIP3   OH210244   4.937   3.820   0.876  0.4615  0.6502 -0.6517
 3413TIP3    H110245   5.006   3.762   0.845  0.0211  0.0540 -0.5326
 3413TIP3    H210246   4.893   3.771   0.946  1.9517  2.2620  1.5353
 3414TIP3   OH210247   2.324   3.043   4.543 -0.3450  0.2084  0.1875
 3414TIP3    H110248   2.300   2.966   4.491 -1.3238  0.3097  0.4816
 3414TIP3    H210249   2.419   3.048   4.534 -0.1163 -1.6931  1.0498
 3415TIP3   OH210250   0.211   4.127   5.076 -0.4476 -0.4038  0.2039
 3415TIP3    H110251   0.298   4.155   5.047 -0.0108  0.3480  2.0998
 3415TIP3    H210252   0.185   4.061   5.012  0.7122  0.6683 -1.4570
 3416TIP3   OH210253   5.354   2.126   1.581  0.5421  0.1487 -0.1946
 3416TIP3    H110254   5.332   2.211   1.541  2.6523  1.2597  0.8166
 3416TIP3    H210255   5.450   2.123   1.577  0.4936 -3.3714 -2.4540
 3417TIP3   OH210256   2.764   5.154   2.422 -0.4710 -0.2128  0.2153
 3417TIP3    H110257   2.675   5.149   2.455 -0.0199  1.2686  1.8330
 3417TIP3    H210258   2.791   5.063   2.408 -1.6842 -0.7405  1.2137
 3418TIP3   OH210259   3.412   3.571   3.846 -0.1397  0.4099 -0.6388
 3418TIP3    H110260   3.369   3.554   3.930  3.1782  0.4186  1.2757
 3418TIP3    H210261   3.408   3.488   3.799 -0.7840 -0.0374  0.1875
 3419TIP3   OH210262   5.953   2.546   2.460 -0.4288 -0.4027 -0.1248
 3419TIP3    H110263   5.876   2.489   2.460 -0.8054  0.1010 -0.4156
 3419TIP3    H210264   5.950   2.590   2.545  0.4963 -1.6436  0.5860
 3420TIP3   OH210265   3.942   5.029   2.304  0.1002 -0.2941 -0.2642
 3420TIP3    H110266   3.880   5.005   2.234 -0.8954 -1.0469  0.8355
 3420TIP3    H210267   4.008   4.959   2.302 -1.6007 -2.0744  1.4927
 3421TIP3   OH210268   5.577   1.868   3.245 -0.1595 -0.3798 -0.2384
 3421TIP3    H110269   5.519   1.844   3.318 -0.9740 -1.0030 -1.0663
 3421TIP3    H210270   5.665   1.869   3.283 -0.7481  1.2930  1.2334
 3422TIP3   OH210271   1.084   2.326   4.175 -0.1522 -0.6770  0.3391
 3422TIP3    H110272   1.037   2.404   4.146  0.8583  0.0987  0.7026
 3422TIP3    H210273   1.016   2.264   4.199 -0.9790 -0.1615 -0.6310
 3423TIP3   OH210274   5.428   0.740   1.886  0.2142  0.6689 -0.1569
 3423TIP3    H110275   5.349   0.785   1.915 -0.0367  0.5044 -0.5761
 3423TIP3    H210276   5.475   0.718   1.967 -0.5245  0.1196  0.1322
 3424TIP3   OH210277   1.126   3.363   2.880  0.3826 -0.1235 -0.1559
 3424TIP3    H110278   1.142   3.274   2.911 -0.3708 -0.6135 -1.1362
 3424TIP3    H210279   1.114   3.354   2.786 -2.1451  0.6546  0.0314
 3425TIP3   OH210280   6.063   5.502   2.601 -0.1764 -0.4704  0.6482
 3425TIP3    H110281   5.971   5.524   2.588 -0.3619 -1.5660  0.0527
 3425TIP3    H210282   6.107   5.587   2.606 -1.2913  0.0867  1.6068
 3426TIP3   OH210283   4.856   2.904   4.818  0.1590 -0.0647  0.1621
 3426TIP3    H110284   4.854   2.936   4.909  0.4122  0.1466  0.0915
 3426TIP3    H210285   4.768   2.922   4.785 -0.0426 -0.4519  0.4726
 3427TIP3   OH210286   2.109   1.124   0.198  0.0409  0.1552 -0.4755
 3427TIP3    H110287   2.064   1.042   0.214  0.2877 -0.0747 -0.9275
 3427TIP3    H210288   2.194   1.115   0.241 -0.4627  0.7228  0.6748
 3428TIP3   OH210289   0.762   2.404   5.202  0.0272 -0.2602 -0.4167
 3428TIP3    H110290   0.787   2.482   5.153  0.5437 -0.3834 -0.3599
 3428TIP3    H210291   0.828   2.339   5.178  0.2069 -0.3644  0.3407
 3429TIP3   OH210292   1.707   4.036   1.880 -0.2065 -0.0420 -0.1195
 3429TIP3    H110293   1.742   3.948   1.866 -0.1914  0.0187 -0.4748
 3429TIP3    H210294   1.690   4.041   1.975 -0.1826 -0.4157 -0.0954
 3430TIP3   OH210295   5.387   0.875   1.336  0.7927  0.4392  0.2512
 3430TIP3    H110296   5.433   0.850   1.416  1.8792 -1.7620 -0.9519
 3430TIP3    H210297   5.455   0.911   1.279  0.7041 -0.9320 -0.7843
 3431TIP3   OH210298   5.796   0.541   4.497 -0.2704 -0.1006 -0.2625
 3431TIP3    H110299   5.886   0.521   4.471 -0.6267 -0.0972 -1.5807
 3431TIP3    H210300   5.769   0.610   4.437 -0.6124  1.1058  1.2168
 3432TIP3   OH210301   5.783   1.168   2.354  0.5041 -0.1191 -0.0857
 3432TIP3    H110302   5.783   1.100   2.421  0.8904 -0.1555 -0.1187
 3432TIP3    H210303   5.774   1.121   2.271  0.1156 -0.0807 -0.0665
 3433TIP3   OH210304   2.446   0.770   0.086 -0.2047  0.5091  0.1184
 3433TIP3    H110305   2.405   0.806   0.008  0.3846  1.4076  0.2122
 3433TIP3    H210306   2.513   0.710   0.054 -0.1735  0.6373 -0.0506
 3434TIP3   OH210307   3.001   5.550   3.259  0.2317 -0.4583  0.5392
 3434TIP3    H110308   2.949   5.604   3.198 -0.1509 -0.2583  1.0331
 3434TIP3    H210309   3.065   5.505   3.203 -0.3442 -0.5536 -0.0567
 3435TIP3   OH210310   2.378   1.877   2.863 -0.2817  0.4210  0.3600
 3435TIP3    H110311   2.311   1.945   2.876  0.0725  0.9172 -0.3566
 3435TIP3    H210312   2.350   1.831   2.784 -0.7400 -0.5570  1.0618
 3436TIP3   OH210313   4.168   2.537   2.613  0.6452  0.5438  0.6057
 3436TIP3    H110314   4.140   2.469   2.675  0.3459 -0.0308 -0.1461
 3436TIP3    H210315   4.128   2.617   2.646 -0.3618  0.0647  0.5827
 3437TIP3   OH210316   3.616   4.644   2.335  0.2503  0.2548  0.3686
 3437TIP3    H110317   3.637   4.707   2.403 -0.3611  0.7234  0.1233
 3437TIP3    H210318   3.556   4.690   2.276  2.4534  0.6463 -1.7424
 3438TIP3   OH210319   0.434   0.850   4.024  0.1109  0.2034  0.5559
 3438TIP3    H110320   0.453   0.780   3.960 -1.0505  1.2862 -1.0553
 3438TIP3    H210321   0.456   0.931   3.978 -1.4009  1.0622  1.2712
 3439TIP3   OH210322   4.575   1.364   1.330 -0.9292 -0.3433  0.1105
 3439TIP3    H110323   4.652   1.413   1.358 -0.1510 -0.6042 -1.4477
 3439TIP3    H210324   4.566   1.293   1.394 -0.1544 -0.0343  0.5669
 3440TIP3   OH210325   1.707   1.886   3.973  0.2863  0.4318  0.4684
 3440TIP3    H110326   1.788   1.925   3.940 -0.5828  1.6061 -0.3321
 3440TIP3    H210327   1.717   1.792   3.955  0.4459  0.8388 -1.9315
 3441TIP3   OH210328   3.003   0.599   1.532  0.6266  0.3902  0.0735
 3441TIP3    H110329   3.056   0.579   1.455 -0.4077 -0.2974 -0.4852
 3441TIP3    H210330   2.953   0.677   1.508 -0.3002 -0.2961 -0.2801
 3442TIP3   OH210331   0.651   2.793   0.487 -0.0100 -0.2466  0.0747
 3442TIP3    H110332   0.563   2.760   0.501 -0.9162  1.4294 -1.2833
 3442TIP3    H210333   0.675   2.762   0.399  1.2336 -1.5859  0.8355
 3443TIP3   OH210334   4.062   4.433   4.304 -0.2547  0.0949 -0.2428
 3443TIP3    H110335   4.081   4.444   4.210 -1.2785 -0.6192 -0.5510
 3443TIP3    H210336   3.997   4.363   4.307 -1.2917  1.0578  0.9042
 3444TIP3   OH210337   1.293   1.525   0.425 -0.4619  0.0689  0.5111
 3444TIP3    H110338   1.376   1.542   0.470 -1.0630  0.4517  1.5117
 3444TIP3    H210339   1.318   1.479   0.345  0.6141 -1.1033  1.4760
 3445TIP3   OH210340   5.326   4.117   3.118 -0.1561 -0.3065 -0.1198
 3445TIP3    H110341   5.292   4.194   3.073  1.3093  1.0495  0.9879
 3445TIP3    H210342   5.249   4.062   3.132 -1.0910  0.5009 -1.7570
 3446TIP3   OH210343   1.495   0.332   0.788 -0.1382 -0.2507  0.6943
 3446TIP3    H110344   1.400   0.338   0.796  0.0227  1.6927  1.8734
 3446TIP3    H210345   1.529   0.401   0.846  2.0127 -1.2561  0.7483
 3447TIP3   OH210346   1.834   3.945   3.098 -0.1262  0.0196 -0.2217
 3447TIP3    H110347   1.823   3.870   3.039 -2.4482 -0.2681  0.4777
 3447TIP3    H210348   1.829   3.908   3.186  0.8281  0.7641  0.1723
 3448TIP3   OH210349   5.760   5.033   1.145 -0.6324  0.0890 -0.1255
 3448TIP3    H110350   5.760   4.944   1.110 -3.7023 -0.7298  1.5776
 3448TIP3    H210351   5.700   5.081   1.087 -0.9187  0.3696  0.3972
 3449TIP3   OH210352   2.631   3.353   3.938  0.7151  0.0042 -0.0435
 3449TIP3    H110353   2.557   3.305   3.901  0.5577 -0.3897  0.7500
 3449TIP3    H210354   2.591   3.413   4.001  1.0710 -0.3749  0.5607
 3450TIP3   OH210355   5.113   4.880   0.606 -0.0466  0.0425  0.4548
 3450TIP3    H110356   5.167   4.911   0.533  1.4814  0.3421  1.6790
 3450TIP3    H210357   5.169   4.818   0.653 -2.0341 -2.4589 -0.2788
 3451TIP3   OH210358   3.916   0.724   2.823 -0.1031  0.4874 -0.2211
 3451TIP3    H110359   3.929   0.769   2.906 -1.1915  1.2998 -0.4730
 3451TIP3    H210360   3.899   0.633   2.847  1.6025  0.2835  0.3163
 3452TIP3   OH210361   1.534   5.861   0.044 -0.0691  0.4933 -0.2557
 3452TIP3    H110362   1.603   5.877  -0.020  2.2510 -2.8522  1.1136
 3452TIP3    H210363   1.578   5.863   0.128 -2.0767  0.2203  0.8672
 3453TIP3   OH210364   6.281   4.229   1.830 -0.2658  0.4704 -0.9765
 3453TIP3    H110365   6.294   4.160   1.894 -0.7471  0.4340 -0.9139
 3453TIP3    H210366   6.365   4.276   1.828  0.6268 -1.0641 -2.1802
 3454TIP3   OH210367   1.199   1.182   0.854  0.5151  0.6446  0.1559
 3454TIP3    H110368   1.154   1.264   0.834  0.2170  0.5235  0.3218
 3454TIP3    H210369   1.289   1.196   0.824  0.9410  1.6912  1.8034
 3455TIP3   OH210370   5.823   3.924   1.195  0.1995 -0.4216 -0.0137
 3455TIP3    H110371   5.854   3.834   1.190  1.9092  0.0765  0.7552
 3455TIP3    H210372   5.878   3.965   1.262 -0.9724  1.0354  0.1228
 3456TIP3   OH210373   4.607   0.414   2.023 -0.0489  0.2917  0.0901
 3456TIP3    H110374   4.517   0.448   2.028 -0.7657 -1.5357  0.6245
 3456TIP3    H210375   4.645   0.435   2.109 -0.2347  0.3613  0.1576
 3457TIP3   OH210376   1.602   0.558   0.902  0.4214  0.1238 -0.1179
 3457TIP3    H110377   1.685   0.582   0.942 -0.6802  0.9658  1.7611
 3457TIP3    H210378   1.573   0.637   0.856  1.0222 -0.4279 -1.5159
 3458TIP3   OH210379   0.781   1.392   3.451 -0.0995 -0.9775  0.2544
 3458TIP3    H110380   0.784   1.461   3.384  0.1134 -0.3496  0.8912
 3458TIP3    H210381   0.722   1.326   3.415  0.7177 -1.0866 -0.9588
 3459TIP3   OH210382   0.612   3.662   4.414 -0.1346 -0.3378  0.3892
 3459TIP3    H110383   0.548   3.728   4.387  0.5084  0.4675  0.7890
 3459TIP3    H210384   0.674   3.657   4.342  0.2871  0.1204  0.7140
 3460TIP3   OH210385   4.722   3.496   4.102  0.3139 -0.0251  0.1711
 3460TIP3    H110386   4.653   3.482   4.037  0.7113  1.4473 -0.6200
 3460TIP3    H210387   4.675   3.513   4.184 -0.2600  0.6155 -0.2835
 3461TIP3   OH210388   2.409   0.641   0.389  0.0047 -0.1701 -0.2565
 3461TIP3    H110389   2.349   0.595   0.447 -0.5600  0.3501 -0.4296
 3461TIP3    H210390   2.461   0.571   0.349  0.6414 -0.5160  1.1198
 3462TIP3   OH210391   2.107   4.316   3.194  0.1224  0.1246  0.3102
 3462TIP3    H110392   2.023   4.278   3.220 -1.0090  1.7515 -0.7233
 3462TIP3    H210393   2.149   4.247   3.142 -0.0827 -1.0896  1.7107
 3463TIP3   OH210394   5.190   4.621   3.880  0.3281  0.0112  0.2857
 3463TIP3    H110395   5.276   4.635   3.919  0.6824 -0.2646 -0.3767
 3463TIP3    H210396   5.180   4.694   3.818  0.9108 -0.9750 -1.0143
 3464TIP3   OH210397   5.360   1.453   2.875  1.1555  0.1869 -0.2717
 3464TIP3    H110398   5.363   1.528   2.816  0.3712  0.5818  0.1770
 3464TIP3    H210399   5.335   1.379   2.820  0.0633  0.6205 -0.3802
 3465TIP3   OH210400   4.159   2.550   4.393  0.1346  0.5840 -0.1373
 3465TIP3    H110401   4.236   2.507   4.356 -0.7784 -0.5512 -0.7843
 3465TIP3    H210402   4.129   2.609   4.323 -1.0468 -0.8794 -0.9470
 3466TIP3   OH210403   2.572   2.627   4.830 -0.0240 -0.2200  0.5140
 3466TIP3    H110404   2.557   2.532   4.831  0.6223 -0.3413 -0.2420
 3466TIP3    H210405   2.665   2.637   4.852 -0.2544  0.2890  1.3061
 3467TIP3   OH210406   4.092   4.933   0.914  0.1792  0.0268  0.2604
 3467TIP3    H110407   4.116   5.000   0.978 -0.6196 -0.0858  0.6974
 3467TIP3    H210408   3.998   4.920   0.927  0.2497 -0.9155 -0.0723
 3468TIP3   OH210409   5.090   0.402   2.484  0.1102  0.0452 -0.3665
 3468TIP3    H110410   5.057   0.362   2.564  0.7061  0.8359  0.2948
 3468TIP3    H210411   5.185   0.393   2.491  0.3146  2.1640  0.1609
 3469TIP3   OH210412   3.814   1.134   1.728  0.3355 -0.4148  0.3496
 3469TIP3    H110413   3.820   1.039   1.734 -1.1025 -0.6342 -1.0611
 3469TIP3    H210414   3.740   1.157   1.785 -0.7223 -0.4107 -0.9788
 3470TIP3   OH210415   4.041   2.629   0.433 -0.1626  0.1082  0.6277
 3470TIP3    H110416   3.965   2.645   0.489 -0.3702 -1.2037  0.7677
 3470TIP3    H210417   4.077   2.546   0.465 -0.3896 -0.7811 -1.2332
 3471TIP3   OH210418   4.063   1.005   1.220  0.0639 -0.4941 -0.3147
 3471TIP3    H110419   3.986   0.981   1.168 -0.7864  0.2132  0.5760
 3471TIP3    H210420   4.027   1.048   1.297  1.3288 -0.8396  0.5023
 3472TIP3   OH210421   0.798   5.340   4.680  0.1658  0.5553  0.2967
 3472TIP3    H110422   0.875   5.307   4.727 -0.2442 -0.2674  0.3969
 3472TIP3    H210423   0.785   5.278   4.608 -0.9018  0.2030  0.7752
 3473TIP3   OH210424   1.801   0.269   2.786  0.1014 -0.4039  0.2126
 3473TIP3    H110425   1.884   0.314   2.768 -0.3203  0.5626  0.6104
 3473TIP3    H210426   1.778   0.298   2.874 -0.8492 -0.3716 -0.0413
 3474TIP3   OH210427   6.174   0.378   5.056 -0.3669 -0.0600  0.0888
 3474TIP3    H110428   6.126   0.454   5.023 -2.5996 -1.9572 -1.3306
 3474TIP3    H210429   6.220   0.344   4.979  0.0013 -0.5690  0.5300
 3475TIP3   OH210430   2.908   5.985   4.161  0.4435  0.1828 -0.1807
 3475TIP3    H110431   2.823   5.988   4.204  0.1268  0.9973 -0.8392
 3475TIP3    H210432   2.910   5.900   4.118 -0.0269  0.1510 -0.1440
 3476TIP3   OH210433   0.193   4.210   2.486  0.1181  0.1407  0.1200
 3476TIP3    H110434   0.286   4.215   2.464  0.2305  0.0779  0.5637
 3476TIP3    H210435   0.155   4.288   2.447 -0.1656 -1.1652 -2.4542
 3477TIP3   OH210436   3.076   5.578   1.105 -0.0473  0.1200 -0.3105
 3477TIP3    H110437   2.984   5.588   1.079 -0.8434  0.5965  2.3805
 3477TIP3    H210438   3.082   5.487   1.134  1.2567 -0.9143 -3.4520
 3478TIP3   OH210439   3.275   0.339   4.661  0.1768 -0.2956  0.1515
 3478TIP3    H110440   3.278   0.257   4.709 -0.4861 -0.2761  0.2359
 3478TIP3    H210441   3.346   0.391   4.697  1.2881 -1.2252 -0.6388
 3479TIP3   OH210442   5.918   0.683   2.747 -0.0194 -0.6190  0.2585
 3479TIP3    H110443   5.863   0.665   2.671 -0.7729  1.1204  0.3336
 3479TIP3    H210444   6.007   0.678   2.714 -0.2587 -1.8930 -0.2447
 3480TIP3   OH210445   5.155   4.575   2.924  0.0088 -0.3449  0.2066
 3480TIP3    H110446   5.130   4.613   2.840 -1.2632 -0.4117  0.5339
 3480TIP3    H210447   5.074   4.574   2.976  0.2457 -2.3538  0.6413
 3481TIP3   OH210448   1.683   3.811   2.103  0.3257 -0.2929 -0.3836
 3481TIP3    H110449   1.727   3.753   2.041  0.0365  0.1820 -1.0470
 3481TIP3    H210450   1.602   3.765   2.125  0.4445 -0.4797 -0.3351
 3482TIP3   OH210451   0.965   1.787   3.153  0.7462  0.3579 -0.1439
 3482TIP3    H110452   1.007   1.842   3.218 -1.3558  0.0765  1.5850
 3482TIP3    H210453   1.037   1.747   3.104  2.3658  1.6778  1.0606
 3483TIP3   OH210454   1.993   2.791   0.095  0.3282  0.1701 -0.1960
 3483TIP3    H110455   1.980   2.886   0.095 -1.6635 -0.0321  1.2653
 3483TIP3    H210456   1.951   2.761   0.015  2.8543  0.6471 -1.8082
 3484TIP3   OH210457   3.537   4.646   3.226 -0.2785 -1.0606 -0.4157
 3484TIP3    H110458   3.566   4.605   3.145 -0.0815  0.7672 -1.3119
 3484TIP3    H210459   3.565   4.737   3.219 -2.6127 -0.1854  0.4901
 3485TIP3   OH210460   3.896   3.298   2.013  0.5271  0.2704  0.3686
 3485TIP3    H110461   3.807   3.313   1.981  0.5280 -1.7679 -0.7177
 3485TIP3    H210462   3.952   3.350   1.955  0.1745  0.1485 -0.0804
 3486TIP3   OH210463   0.430   1.621   3.005 -0.0688 -0.4449  0.0950
 3486TIP3    H110464   0.477   1.563   2.944 -0.1213 -0.8170  0.4058
 3486TIP3    H210465   0.443   1.581   3.091 -0.0970  0.0160  0.3142
 3487TIP3   OH210466   1.512   1.387   3.466 -0.5901  0.6821  0.2811
 3487TIP3    H110467   1.445   1.322   3.445 -2.0009  1.9519  0.6680
 3487TIP3    H210468   1.574   1.340   3.522 -0.0163 -1.0770 -1.7139
 3488TIP3   OH210469   3.263   4.420   1.109  0.0151 -0.1320 -0.5182
 3488TIP3    H110470   3.195   4.410   1.043  0.8756 -2.3110 -1.1780
 3488TIP3    H210471   3.312   4.497   1.081 -1.8630  1.2017 -0.2736
 3489TIP3   OH210472   4.257   0.240   2.712  0.0454 -0.5026  0.5644
 3489TIP3    H110473   4.244   0.318   2.766  0.0948 -0.1806  0.1205
 3489TIP3    H210474   4.329   0.264   2.654  0.0582 -0.8812  0.4246
 3490TIP3   OH210475   3.450   4.194   4.684 -0.2385 -0.7310  0.0535
 3490TIP3    H110476   3.478   4.104   4.700  0.3237 -0.7220 -0.8685
 3490TIP3    H210477   3.399   4.190   4.603  2.5880  0.2573 -1.9353
 3491TIP3   OH210478   2.761   2.652   2.190 -0.2874  0.2267 -0.2234
 3491TIP3    H110479   2.792   2.700   2.113  2.4336 -0.5721  0.2737
 3491TIP3    H210480   2.776   2.560   2.168 -0.0029 -0.0431  1.0224
 3492TIP3   OH210481   0.550   2.576   1.349 -0.4009  0.5266  0.2124
 3492TIP3    H110482   0.498   2.496   1.340  2.4224 -1.9634  3.2208
 3492TIP3    H210483   0.613   2.571   1.276  1.5418 -1.7285  1.8727
 3493TIP3   OH210484  -0.000   1.337   3.873 -0.4415 -0.1550 -0.5184
 3493TIP3    H110485  -0.022   1.328   3.780  1.3258  1.0217 -1.0987
 3493TIP3    H210486   0.047   1.420   3.879  0.9083 -0.9733  1.1366
 3494TIP3   OH210487   5.215   1.409   3.601  0.0501  0.0562  0.8053
 3494TIP3    H110488   5.298   1.377   3.636 -0.9231  0.2168  3.5148
 3494TIP3    H210489   5.173   1.452   3.675 -2.5519 -0.1967 -0.4031
 3495TIP3   OH210490   5.161   3.646   0.739  0.1433 -0.0213 -0.2028
 3495TIP3    H110491   5.130   3.571   0.689  0.2910 -1.1199  1.2716
 3495TIP3    H210492   5.177   3.714   0.674 -2.6318 -0.3278 -1.3377
 3496TIP3   OH210493   5.272   0.957   5.137 -0.4349  0.4496 -0.0740
 3496TIP3    H110494   5.259   1.015   5.062 -0.3009  0.4951 -0.0628
 3496TIP3    H210495   5.362   0.975   5.166 -0.6654  0.8228  0.4269
 3497TIP3   OH210496   6.072   1.112   4.598 -0.0365  0.2733 -0.0384
 3497TIP3    H110497   6.064   1.184   4.660 -1.1471 -0.9000  1.2551
 3497TIP3    H210498   6.068   1.153   4.512 -2.6240  1.6021  0.6367
 3498TIP3   OH210499   3.630   0.806   3.726  0.1095  0.4718  0.2164
 3498TIP3    H110500   3.561   0.870   3.743  0.3761  0.8353 -0.0760
 3498TIP3    H210501   3.645   0.764   3.811 -0.6234  0.2377  0.2358
 3499TIP3   OH210502   2.930   3.932   3.478 -0.1846  0.0538  0.1771
 3499TIP3    H110503   3.011   3.962   3.438 -1.1557  2.7613 -0.0047
 3499TIP3    H210504   2.861   3.968   3.422 -1.5273 -0.7167  1.2691
 3500TIP3   OH210505   1.623   2.647   1.930  0.5641 -0.5637  0.5020
 3500TIP3    H110506   1.696   2.585   1.925 -0.2258 -1.4036 -2.2121
 3500TIP3    H210507   1.546   2.593   1.947 -0.0639 -0.3380 -1.4223
 3501TIP3   OH210508   2.846   5.389   2.213 -0.1286 -0.1159  0.4621
 3501TIP3    H110509   2.799   5.313   2.180 -0.0523  0.2439 -0.5193
 3501TIP3    H210510   2.797   5.464   2.178 -0.7293  0.3205  2.1316
 3502TIP3   OH210511   4.759   3.014   2.788 -0.2052 -0.7543  0.2046
 3502TIP3    H110512   4.839   3.056   2.822 -0.3293 -0.3609  0.0197
 3502TIP3    H210513   4.722   3.079   2.729 -1.7408 -0.1117  1.7970
 3503TIP3   OH210514   0.921   0.074   1.944  0.4534  0.6382  0.3097
 3503TIP3    H110515   0.854   0.071   2.013  0.5206  1.0822  0.3970
 3503TIP3    H210516   1.003   0.089   1.992  0.5713  0.4317  0.1740
 3504TIP3   OH210517   1.102   3.164   3.818  0.1542  0.3689  0.3288
 3504TIP3    H110518   1.119   3.093   3.756 -2.2092 -0.2378  0.2687
 3504TIP3    H210519   1.165   3.150   3.889 -1.1820 -2.7529  1.0555
 3505TIP3   OH210520   5.774   0.192   4.171 -0.4077  0.2448 -0.3187
 3505TIP3    H110521   5.757   0.233   4.086  0.5126  0.3012 -0.4864
 3505TIP3    H210522   5.688   0.183   4.211 -0.7064  1.7472 -0.5517
 3506TIP3   OH210523   4.806   2.075   0.955  0.2055 -0.3904  0.5322
 3506TIP3    H110524   4.747   2.000   0.944  1.2429 -0.9889 -1.2688
 3506TIP3    H210525   4.806   2.119   0.870  1.0547  0.5990  1.0129
 3507TIP3   OH210526   2.119   2.556   0.156 -0.9846  0.2709  0.5144
 3507TIP3    H110527   2.169   2.582   0.234 -1.9052  1.8549  0.6315
 3507TIP3    H210528   2.046   2.618   0.153 -2.5095 -1.4547 -0.0943
 3508TIP3   OH210529   3.314   0.699   3.773  0.2546  0.1520  0.4731
 3508TIP3    H110530   3.304   0.734   3.861 -0.4619  0.8486  0.1199
 3508TIP3    H210531   3.227   0.670   3.747  0.4923 -0.2240  0.0623
 3509TIP3   OH210532   5.936   4.647   2.126 -0.1790  0.0345 -0.5152
 3509TIP3    H110533   5.980   4.568   2.094 -0.5484  0.0661 -1.1115
 3509TIP3    H210534   5.999   4.717   2.109  0.0634 -0.1003 -0.1776
 3510TIP3   OH210535   4.638   4.256   3.295  0.6837  0.7218  0.4278
 3510TIP3    H110536   4.685   4.307   3.362  2.4886  0.2531 -0.4090
 3510TIP3    H210537   4.688   4.271   3.215 -0.3168 -0.2529 -0.3985
 3511TIP3   OH210538   1.487   3.769   4.208  0.6627 -0.2406  0.3871
 3511TIP3    H110539   1.570   3.725   4.224  0.1270 -1.0454  1.0185
 3511TIP3    H210540   1.420   3.702   4.223 -0.1131  0.4388  0.0653
 3512TIP3   OH210541   1.156   2.437   4.490 -0.2932  0.5182 -0.0373
 3512TIP3    H110542   1.083   2.423   4.550 -0.4115  0.6567 -0.1500
 3512TIP3    H210543   1.224   2.477   4.545 -0.4985  0.8960 -0.0544
 3513TIP3   OH210544   2.385   4.464   1.715  1.1054  0.1683  0.5724
 3513TIP3    H110545   2.411   4.377   1.683  2.0165  0.8788 -0.7280
 3513TIP3    H210546   2.298   4.477   1.678  0.8038 -0.3480  1.0955
 3514TIP3   OH210547   2.961   4.628   0.522 -0.4040 -0.0102 -0.3387
 3514TIP3    H110548   2.935   4.711   0.482 -1.3331 -0.9723 -1.8715
 3514TIP3    H210549   3.051   4.615   0.493  0.9062  1.8837  2.4832
 3515TIP3   OH210550   0.476   0.723   3.789  0.2454  0.3555  0.6602
 3515TIP3    H110551   0.524   0.640   3.787 -0.4026 -0.0519  1.4810
 3515TIP3    H210552   0.505   0.769   3.710 -0.1896 -1.1131 -0.4021
 3516TIP3   OH210553   2.260   4.206   0.815  0.5293  0.1053 -0.1148
 3516TIP3    H110554   2.330   4.141   0.805  0.0989 -0.6136  1.2896
 3516TIP3    H210555   2.223   4.188   0.901  0.6891  2.5288  0.5107
 3517TIP3   OH210556   4.112   3.811   0.159  0.2234 -0.5344  0.1098
 3517TIP3    H110557   4.057   3.862   0.099  2.3189 -1.1967 -2.5880
 3517TIP3    H210558   4.173   3.875   0.196 -0.1713 -0.3447  0.4378
 3518TIP3   OH210559   5.309   3.328   3.501 -0.0727 -0.1600 -0.3224
 3518TIP3    H110560   5.287   3.323   3.594 -2.1958  0.1147 -0.7622
 3518TIP3    H210561   5.397   3.292   3.495 -0.3645 -1.3042  1.6316
 3519TIP3   OH210562   5.620   1.713   0.965  0.0136 -0.2580 -0.0000
 3519TIP3    H110563   5.640   1.805   0.982  1.3521 -0.2855 -1.1982
 3519TIP3    H210564   5.636   1.703   0.871  0.3724 -1.8376  0.2188
 3520TIP3   OH210565   5.749   3.196   3.338  0.4060  0.2370 -0.0290
 3520TIP3    H110566   5.739   3.211   3.244  1.1201  0.8828 -0.0068
 3520TIP3    H210567   5.836   3.231   3.359  1.2458 -1.9569  0.4403
 3521TIP3   OH210568   0.610   1.405   2.909  0.8162  0.5065 -0.0060
 3521TIP3    H110569   0.611   1.315   2.941  0.2261 -0.4139 -2.3778
 3521TIP3    H210570   0.698   1.438   2.928  1.0344 -0.5294  0.9143
 3522TIP3   OH210571   1.070   2.690   4.715  0.3771  0.4125  0.1274
 3522TIP3    H110572   1.071   2.785   4.701  0.9812  0.3704 -0.1330
 3522TIP3    H210573   0.989   2.674   4.763 -0.8160  0.8172 -1.6286
 3523TIP3   OH210574   6.322   0.112   0.659  0.4185 -0.2781 -0.1269
 3523TIP3    H110575   6.244   0.118   0.604 -1.1453 -0.6282  1.9107
 3523TIP3    H210576   6.349   0.020   0.652  1.2634  0.0469 -1.5559
 3524TIP3   OH210577   2.579   2.310   3.692 -0.2208 -0.2432 -0.7676
 3524TIP3    H110578   2.578   2.290   3.598  0.8994  0.7498 -1.0255
 3524TIP3    H210579   2.526   2.389   3.700  1.8024  1.2469 -1.0358
 3525TIP3   OH210580   2.665   3.935   2.428 -0.3936  0.5929 -0.0398
 3525TIP3    H110581   2.633   3.906   2.514  0.0198  1.3797  0.3937
 3525TIP3    H210582   2.758   3.914   2.428 -0.5646 -0.2106 -0.6572
 3526TIP3   OH210583   5.778   5.923   0.128 -0.6307  0.4230 -0.2062
 3526TIP3    H110584   5.809   5.953   0.043  1.0114  1.6858  0.7707
 3526TIP3    H210585   5.849   5.868   0.161 -1.1895  0.0587  0.4167
 3527TIP3   OH210586   1.765   1.629   3.913 -0.4590 -0.2577 -0.3221
 3527TIP3    H110587   1.805   1.588   3.837  0.0825 -0.2081 -0.0660
 3527TIP3    H210588   1.789   1.573   3.987 -0.6824 -0.1130 -0.1338
 3528TIP3   OH210589   1.698   3.750   2.815  0.1138  0.3643 -0.6263
 3528TIP3    H110590   1.652   3.731   2.734 -1.3307 -0.1344  0.2795
 3528TIP3    H210591   1.629   3.762   2.880  1.1361  2.9556  0.1093
 3529TIP3   OH210592   3.048   5.510   5.127 -0.1045  0.4386  0.5583
 3529TIP3    H110593   2.960   5.517   5.089  0.1696  1.6875  0.0961
 3529TIP3    H210594   3.046   5.564   5.205 -0.0144 -0.3259  1.1061
 3530TIP3   OH210595   2.476   4.961   0.381  0.1094  0.1430  0.1112
 3530TIP3    H110596   2.510   5.045   0.351 -0.0147  0.0513 -0.2860
 3530TIP3    H210597   2.487   4.902   0.307 -1.2134  0.1889 -0.1467
 3531TIP3   OH210598   3.892   0.267   4.802  0.2351 -0.4167 -0.1297
 3531TIP3    H110599   3.944   0.208   4.856  0.5756  0.7866  0.9194
 3531TIP3    H210600   3.833   0.310   4.864  0.2430  0.5913 -0.7945
 3532TIP3   OH210601   0.275   1.162   3.067 -0.2107 -0.0837 -0.5598
 3532TIP3    H110602   0.241   1.239   3.113  0.3145 -0.4649  0.5027
 3532TIP3    H210603   0.368   1.161   3.088 -0.3065 -1.2978 -0.1231
 3533TIP3   OH210604   5.846   2.305   2.045 -0.3101  0.4880 -0.0284
 3533TIP3    H110605   5.817   2.278   2.132 -1.3425  0.0180 -0.5001
 3533TIP3    H210606   5.892   2.228   2.010  0.3265  0.7621  0.1837
 3534TIP3   OH210607   0.153   0.933   5.001 -0.1920  0.0480 -0.3851
 3534TIP3    H110608   0.155   1.013   4.948  2.1697  0.5921  0.3922
 3534TIP3    H210609   0.064   0.930   5.036 -0.1719  2.7592  0.1432
 3535TIP3   OH210610   1.803   5.003   3.853 -0.3353 -0.3812  0.5107
 3535TIP3    H110611   1.859   5.080   3.861 -2.1330  1.0311  0.2897
 3535TIP3    H210612   1.714   5.037   3.864 -1.3998 -2.0297 -2.0958
 3536TIP3   OH210613   5.574   4.043   2.480  0.0551 -0.3618  0.0154
 3536TIP3    H110614   5.501   4.106   2.482  1.1986  0.9796  0.6989
 3536TIP3    H210615   5.648   4.093   2.446  1.2580 -1.0458  1.5184
 3537TIP3   OH210616   4.955   5.802   2.578  0.5132  0.5284 -0.3893
 3537TIP3    H110617   4.909   5.855   2.513 -1.8762 -0.4311  0.3943
 3537TIP3    H210618   5.023   5.756   2.529 -0.1146  1.1223 -1.8635
 3538TIP3   OH210619   1.808   3.323   0.893 -0.3111 -0.2047  0.6138
 3538TIP3    H110620   1.838   3.268   0.965  0.4484  0.1217  0.5640
 3538TIP3    H210621   1.824   3.270   0.815  0.2439  0.0082  0.5798
 3539TIP3   OH210622   1.812   3.828   4.307  0.7162 -0.7260  0.7666
 3539TIP3    H110623   1.840   3.897   4.248 -1.8395  0.4837  0.8372
 3539TIP3    H210624   1.864   3.751   4.281  0.2395 -0.0672 -2.5466
 3540TIP3   OH210625   2.904   1.741   3.264 -0.4916  0.0628  0.2016
 3540TIP3    H110626   2.941   1.693   3.190 -0.4153  1.9115 -1.0153
 3540TIP3    H210627   2.809   1.735   3.252 -0.4897  1.5488 -0.9308
 3541TIP3   OH210628   5.424   0.829   2.422  0.0578  0.2312 -0.0050
 3541TIP3    H110629   5.373   0.777   2.484  1.1216 -1.3132 -0.3532
 3541TIP3    H210630   5.387   0.917   2.428  0.1337  0.1653  2.8313
 3542TIP3   OH210631   3.079   5.239   0.904 -0.1373  0.5214  0.1417
 3542TIP3    H110632   3.106   5.150   0.924 -1.0319  0.5514  1.6818
 3542TIP3    H210633   2.992   5.247   0.945  0.3201  2.3760  0.8366
 3543TIP3   OH210634   0.680   0.051   4.860 -0.2705 -0.9111 -0.0464
 3543TIP3    H110635   0.658  -0.038   4.885  2.2446 -0.8440  3.0310
 3543TIP3    H210636   0.773   0.047   4.835 -0.1436  0.7765  0.0017
 3544TIP3   OH210637   1.292   0.798   3.565 -0.4359  0.2663  0.2342
 3544TIP3    H110638   1.219   0.760   3.516  0.9730 -1.9439 -0.3011
 3544TIP3    H210639   1.325   0.868   3.509 -1.4717  0.5877  0.0085
 3545TIP3   OH210640   5.885   3.534   1.758 -0.0072  0.1511  0.1038
 3545TIP3    H110641   5.967   3.488   1.773 -0.4434 -0.8795 -0.5621
 3545TIP3    H210642   5.852   3.554   1.846  0.6750  0.0661  0.3815
 3546TIP3   OH210643   5.880   4.130   3.392 -0.1227 -0.4896 -0.0005
 3546TIP3    H110644   5.848   4.152   3.304  0.4488 -0.9986 -0.3430
 3546TIP3    H210645   5.923   4.046   3.381  1.1644  0.0810  0.4877
 3547TIP3   OH210646   2.282   5.704   4.104  0.1107 -0.2258  0.1441
 3547TIP3    H110647   2.233   5.779   4.136 -1.1503 -0.9660  0.0002
 3547TIP3    H210648   2.216   5.644   4.071  1.0964 -1.3807  0.1975
 3548TIP3   OH210649   1.436   4.260   3.642 -0.2251  0.0213  0.3066
 3548TIP3    H110650   1.359   4.248   3.698 -0.5108 -0.3656 -0.1622
 3548TIP3    H210651   1.427   4.350   3.609  0.6077  0.7079  1.8532
 3549TIP3   OH210652   6.320   4.930   2.177  0.5104 -0.1616 -0.0797
 3549TIP3    H110653   6.352   5.012   2.140 -2.2345  0.1727 -1.9273
 3549TIP3    H210654   6.270   4.956   2.255 -0.8925  0.0421 -1.0188
 3550TIP3   OH210655   4.538   3.940   0.702 -0.2296 -0.1288  0.2753
 3550TIP3    H110656   4.550   3.852   0.666 -1.5823 -0.7007  1.1380
 3550TIP3    H210657   4.526   3.926   0.796  2.2811  1.2465  0.8818
 3551TIP3   OH210658   1.462   1.448   1.737 -0.5039 -0.4945 -0.6782
 3551TIP3    H110659   1.477   1.370   1.684  0.5237 -0.8755  0.1560
 3551TIP3    H210660   1.491   1.521   1.681  0.0216 -0.8445 -0.8712
 3552TIP3   OH210661   2.163   0.101   0.626  0.0140 -0.4237  0.5408
 3552TIP3    H110662   2.090   0.042   0.644  0.3349 -1.0893 -0.2478
 3552TIP3    H210663   2.157   0.119   0.532  0.6794 -0.2372  0.5245
 3553TIP3   OH210664   3.625   2.786   3.552  0.0750 -0.0269  0.0948
 3553TIP3    H110665   3.685   2.785   3.626 -1.0579 -1.0003  1.0418
 3553TIP3    H210666   3.682   2.783   3.475  1.3202 -3.3854  0.9477
 3554TIP3   OH210667   1.705   1.954   4.543  0.0437  0.4355 -0.8815
 3554TIP3    H110668   1.630   1.953   4.484  0.3627 -0.1231 -1.2849
 3554TIP3    H210669   1.773   1.904   4.497  0.3287  0.0830 -0.0991
 3555TIP3   OH210670   3.549   3.432   4.233  0.0387 -0.1572  0.1279
 3555TIP3    H110671   3.567   3.482   4.153 -2.3596 -1.2803 -1.2076
 3555TIP3    H210672   3.471   3.473   4.270  0.5290 -0.2936  1.3637
 3556TIP3   OH210673   2.877   3.426   3.831 -0.3570  0.0609  0.3427
 3556TIP3    H110674   2.794   3.407   3.876 -0.5344  2.3305  1.0718
 3556TIP3    H210675   2.861   3.507   3.783  0.7925 -0.6637 -1.3706
 3557TIP3   OH210676   3.367   5.614   0.588 -0.1933  0.2926 -0.7261
 3557TIP3    H110677   3.439   5.552   0.574  2.3718  2.2660  2.2424
 3557TIP3    H210678   3.317   5.576   0.661  0.9422  1.1900  0.5913
 3558TIP3   OH210679   2.499   1.502   0.367  0.5186 -0.2413 -0.6004
 3558TIP3    H110680   2.418   1.474   0.411  0.6808 -1.8271 -1.2719
 3558TIP3    H210681   2.517   1.588   0.405 -1.0368 -0.2054  0.1609
 3559TIP3   OH210682   0.732   3.672   3.352 -0.7780 -0.1667 -0.4115
 3559TIP3    H110683   0.731   3.631   3.265  0.0752  1.7967 -1.4136
 3559TIP3    H210684   0.825   3.689   3.369 -1.1489  3.2099 -1.0512
 3560TIP3   OH210685   2.662   2.387   1.848 -0.2140 -0.3842 -0.4328
 3560TIP3    H110686   2.590   2.369   1.908  0.4274 -0.9015  0.1939
 3560TIP3    H210687   2.620   2.390   1.762 -0.6939 -3.1578 -0.4123
 3561TIP3   OH210688   5.760   5.784   3.504 -0.5090 -0.3877  0.5656
 3561TIP3    H110689   5.820   5.785   3.578  0.0609  1.1678  0.1408
 3561TIP3    H210690   5.778   5.867   3.458 -1.2446 -1.0340 -0.9694
 3562TIP3   OH210691   2.246   0.826   1.819 -0.4796 -0.3043  0.2801
 3562TIP3    H110692   2.206   0.822   1.732  0.1428 -2.5862  0.0524
 3562TIP3    H210693   2.180   0.869   1.873  0.2635  4.1110 -1.8244
 3563TIP3   OH210694   3.212   5.817   2.203 -0.4501 -0.3691 -0.4974
 3563TIP3    H110695   3.118   5.822   2.183 -0.3879  0.1999 -0.6441
 3563TIP3    H210696   3.215   5.776   2.290 -0.9841  2.0698  0.7551
 3564TIP3   OH210697   4.934   3.876   2.447  0.3525  0.2833 -0.1291
 3564TIP3    H110698   4.911   3.849   2.536  0.4673  0.9116  0.0936
 3564TIP3    H210699   5.009   3.821   2.424  0.7009  0.5303  0.3893
 3565TIP3   OH210700   3.442   5.697   4.530  0.2901 -0.0778  0.3619
 3565TIP3    H110701   3.494   5.755   4.584 -0.0960 -0.2017  0.8717
 3565TIP3    H210702   3.504   5.663   4.465  0.3570  1.4702 -0.4222
 3566TIP3   OH210703   0.312   1.183   2.464 -0.1264  0.4862 -0.3076
 3566TIP3    H110704   0.249   1.142   2.523  0.3412 -1.3206 -1.0103
 3566TIP3    H210705   0.259   1.213   2.390 -0.3035 -0.0715 -0.4092
 3567TIP3   OH210706   3.045   1.856   1.851  0.4161 -0.1550  0.3174
 3567TIP3    H110707   2.968   1.799   1.856 -0.0993  0.5161  0.1876
 3567TIP3    H210708   3.079   1.857   1.941  0.7516 -1.0873  0.2118
 3568TIP3   OH210709   1.557   3.744   0.616  0.2685 -0.1459 -0.1578
 3568TIP3    H110710   1.585   3.677   0.679 -0.1869 -0.7804 -0.6107
 3568TIP3    H210711   1.511   3.809   0.669 -1.1734 -1.2771  0.0388
 3569TIP3   OH210712   2.654  -0.004   3.052  0.3801 -0.5665 -0.0663
 3569TIP3    H110713   2.637   0.069   3.111 -3.3305 -0.7546 -0.6290
 3569TIP3    H210714   2.612   0.022   2.970  0.3175 -2.6782 -0.7615
 3570TIP3   OH210715   2.763   1.431   3.498  0.3353  0.2716 -0.3338
 3570TIP3    H110716   2.703   1.432   3.573 -1.5344  0.6917 -1.7580
 3570TIP3    H210717   2.850   1.440   3.537 -0.6327  1.6022  1.7006
 3571TIP3   OH210718   3.096   4.181   4.641 -0.0243 -0.3231  0.2430
 3571TIP3    H110719   3.081   4.238   4.565  1.4868 -0.3983 -0.1552
 3571TIP3    H210720   3.021   4.123   4.643 -0.1909 -0.1840 -1.0924
 3572TIP3   OH210721   5.585   2.353   3.140  0.0838 -0.1014 -0.2263
 3572TIP3    H110722   5.583   2.351   3.236  0.3173 -1.6027 -0.2341
 3572TIP3    H210723   5.661   2.300   3.117  0.1551  0.4289 -1.2493
 3573TIP3   OH210724   5.927   0.086   2.299  0.3824 -0.7455  0.2973
 3573TIP3    H110725   5.947   0.028   2.372 -0.5144 -0.9860  0.3723
 3573TIP3    H210726   5.851   0.137   2.329 -0.1397 -1.0006 -0.5301
 3574TIP3   OH210727   3.470   5.952   2.330 -0.0184  0.4933  0.2429
 3574TIP3    H110728   3.523   5.875   2.315 -0.9863 -0.2647  0.5912
 3574TIP3    H210729   3.447   5.984   2.243  1.1599  0.9654  0.0834
 3575TIP3   OH210730   4.110   0.130   1.863  0.1516 -0.6551 -0.0965
 3575TIP3    H110731   4.137   0.106   1.951 -1.6722  1.2318  1.0875
 3575TIP3    H210732   4.016   0.111   1.860 -0.5550  2.2558 -0.3962
 3576TIP3   OH210733   5.507   3.154   4.934 -0.0019 -0.5508  0.0008
 3576TIP3    H110734   5.598   3.176   4.953 -0.3088 -0.2487  1.2429
 3576TIP3    H210735   5.488   3.079   4.990 -0.5586 -0.5082 -0.1180
 3577TIP3   OH210736   1.740   1.566   1.767  0.2083 -0.3097 -0.2654
 3577TIP3    H110737   1.802   1.593   1.699 -1.0023 -1.8312 -2.0639
 3577TIP3    H210738   1.678   1.638   1.772 -0.8727 -1.0029 -2.3515
 3578TIP3   OH210739   4.561   1.506   0.333 -0.3500 -0.0742 -0.4014
 3578TIP3    H110740   4.612   1.582   0.361 -0.0999  0.0036 -1.0452
 3578TIP3    H210741   4.611   1.431   0.364 -0.1430  0.0120 -0.5247
 3579TIP3   OH210742   5.525   4.838   4.960 -0.5354  1.0035 -1.0729
 3579TIP3    H110743   5.435   4.869   4.962 -0.3755  1.5537  1.4924
 3579TIP3    H210744   5.538   4.796   5.045  2.2573  2.9739 -0.3560
 3580TIP3   OH210745   5.158   1.513   3.041 -1.0117  0.2322 -0.0797
 3580TIP3    H110746   5.095   1.545   2.976 -0.5669  0.8301 -0.2230
 3580TIP3    H210747   5.239   1.501   2.992 -1.1015 -0.9251  0.0210
 3581TIP3   OH210748   3.783   5.628   2.811  0.2117  0.3430  0.2854
 3581TIP3    H110749   3.859   5.628   2.753 -2.2950  1.2287 -3.3365
 3581TIP3    H210750   3.804   5.693   2.879  3.4476 -1.0217  0.8087
 3582TIP3   OH210751   4.320   4.198   4.000  0.8137  0.4208  0.3256
 3582TIP3    H110752   4.378   4.184   4.075  0.2848 -2.1239  0.3605
 3582TIP3    H210753   4.324   4.115   3.951 -0.1908  1.3944 -1.5132
 3583TIP3   OH210754   3.328   0.257   4.386 -0.3142  0.1069 -0.1963
 3583TIP3    H110755   3.305   0.311   4.462 -0.0866 -0.4454  0.2738
 3583TIP3    H210756   3.269   0.286   4.317 -0.5770  0.5655  0.2166
 3584TIP3   OH210757   5.670   0.463   1.115  0.2240 -0.4279 -0.0231
 3584TIP3    H110758   5.603   0.429   1.175  2.7400 -2.2516  1.9720
 3584TIP3    H210759   5.708   0.538   1.161 -0.1078  0.3374 -0.9596
 3585TIP3   OH210760   6.325   2.631   0.117  0.4133  0.0357 -0.2751
 3585TIP3    H110761   6.378   2.671   0.186  1.1531 -0.6984 -0.3949
 3585TIP3    H210762   6.235   2.649   0.141  0.7072  2.1593 -0.5520
 3586TIP3   OH210763   5.547   5.107   1.484  0.1921  0.1119 -0.1783
 3586TIP3    H110764   5.465   5.143   1.519 -0.1003 -0.5544 -0.1690
 3586TIP3    H210765   5.546   5.015   1.511  0.6744 -0.0397 -0.6721
 3587TIP3   OH210766   5.972   1.592   1.900  0.3176 -0.2854  0.1690
 3587TIP3    H110767   5.967   1.508   1.946  1.6013  0.5186  1.9258
 3587TIP3    H210768   6.049   1.584   1.843  0.3445 -0.3600  0.2161
 3588TIP3   OH210769   3.878   0.624   3.859  0.7955 -0.1174 -0.1932
 3588TIP3    H110770   3.903   0.716   3.849 -0.3528  0.3642  1.0831
 3588TIP3    H210771   3.959   0.576   3.843  2.0204  1.2529  1.4891
 3589TIP3   OH210772   4.967   0.832   4.452  0.0079 -0.0949 -0.3492
 3589TIP3    H110773   4.998   0.857   4.365  0.2044  0.5749 -0.0959
 3589TIP3    H210774   4.952   0.738   4.446 -2.9663  0.3540 -2.0434
 3590TIP3   OH210775   4.810   2.995   2.030 -0.1685 -0.3859  0.2288
 3590TIP3    H110776   4.899   3.001   2.064  0.2125 -1.1390 -0.5888
 3590TIP3    H210777   4.756   2.978   2.107  0.0683  2.1526  1.0715
 3591TIP3   OH210778   5.620   3.249   0.643  0.7828 -0.0198  0.2332
 3591TIP3    H110779   5.653   3.244   0.733  1.4152 -0.3771 -0.0153
 3591TIP3    H210780   5.542   3.304   0.649 -0.9984 -2.5067  1.5439
 3592TIP3   OH210781   0.050   5.950   1.034 -0.0068 -0.2789  0.4133
 3592TIP3    H110782  -0.032   6.000   1.037 -0.2406 -0.4899 -1.4826
 3592TIP3    H210783   0.026   5.864   1.068 -0.7754 -0.5627 -0.7867
 3593TIP3   OH210784   4.750   5.020   0.249 -0.3984  0.4100 -0.7425
 3593TIP3    H110785   4.749   4.925   0.265  0.2449  0.5767  0.3710
 3593TIP3    H210786   4.793   5.029   0.163 -0.5516 -0.3128 -0.9016
 3594TIP3   OH210787   5.567   3.882   3.313  0.3557 -0.0169  0.9745
 3594TIP3    H110788   5.530   3.946   3.373  2.3456  2.2640 -0.0573
 3594TIP3    H210789   5.573   3.928   3.229 -1.6442 -2.8323 -0.9004
 3595TIP3   OH210790   5.012   3.309   2.494  0.0259  0.1381 -0.0277
 3595TIP3    H110791   5.030   3.347   2.408 -1.7875  0.7279 -0.1784
 3595TIP3    H210792   5.008   3.384   2.553 -1.6715  0.0486  0.0156
 3596TIP3   OH210793   5.443   5.712   2.145  0.2606  0.2370 -0.5235
 3596TIP3    H110794   5.478   5.754   2.223  0.4556  0.9945 -1.0068
 3596TIP3    H210795   5.424   5.622   2.172 -0.6029  0.7556  0.6666
 3597TIP3   OH210796   2.749   1.950   4.095 -0.2020  0.3579 -0.1777
 3597TIP3    H110797   2.749   2.023   4.033  0.6951  1.7325  1.3562
 3597TIP3    H210798   2.838   1.914   4.091 -0.7360 -0.9226 -1.1823
 3598TIP3   OH210799   4.565   2.330   2.429 -0.7336 -0.0754 -0.0042
 3598TIP3    H110800   4.636   2.295   2.376 -0.4238 -0.2291  0.5019
 3598TIP3    H210801   4.575   2.425   2.422  0.5447 -0.0785  1.3752
 3599TIP3   OH210802   3.414   2.392   2.567 -0.8091 -0.2650  0.1851
 3599TIP3    H110803   3.438   2.376   2.658  0.4446  0.4601  0.0058
 3599TIP3    H210804   3.461   2.325   2.518  0.6936  0.9912 -0.1484
 3600TIP3   OH210805   3.366   2.914   4.120 -0.3306  0.0859  0.0432
 3600TIP3    H110806   3.413   2.966   4.055 -0.1953  0.5279  0.4939
 3600TIP3    H210807   3.348   2.975   4.191  0.9424 -0.7670  1.1447
 3601TIP3   OH210808   1.243   2.408   1.698 -0.1969 -0.0315  0.0279
 3601TIP3    H110809   1.163   2.427   1.747 -1.0400 -0.5131 -1.1235
 3601TIP3    H210810   1.231   2.319   1.665  0.4258  0.2116 -0.8829
 3602TIP3   OH210811   3.302   2.143   3.051 -0.0704  0.2919  0.2960
 3602TIP3    H110812   3.276   2.113   3.138 -1.1559  2.2399  0.6998
 3602TIP3    H210813   3.249   2.091   2.991 -0.4501  0.0017  0.8674
 3603TIP3   OH210814   4.415   0.909   2.296 -0.1957  0.2264  0.2262
 3603TIP3    H110815   4.413   0.890   2.390  3.4140  0.8495  0.5942
 3603TIP3    H210816   4.371   0.993   2.288  0.9331  1.0227  1.7135
 3604TIP3   OH210817   2.761   5.978   0.510 -0.2737  0.7091  0.2290
 3604TIP3    H110818   2.854   5.986   0.532 -0.6143  0.2922  2.0398
 3604TIP3    H210819   2.755   5.899   0.457  0.4130  0.7318  0.1125
 3605TIP3   OH210820   0.980   0.070   4.832 -0.4048  0.2577  0.1657
 3605TIP3    H110821   1.023   0.018   4.764 -1.6277 -1.5858  0.7318
 3605TIP3    H210822   1.031   0.052   4.911 -0.5664  0.2922  0.2769
 3606TIP3   OH210823   4.023   2.039   2.667 -0.1288  0.4772 -0.2461
 3606TIP3    H110824   3.988   2.045   2.756  0.6355 -1.0787  0.1873
 3606TIP3    H210825   4.106   2.086   2.670  0.2352 -0.1674  0.0695
 3607TIP3   OH210826   2.358   4.687   3.550 -0.1249 -0.6078 -0.4609
 3607TIP3    H110827   2.442   4.644   3.533  0.4212  0.4393 -0.4886
 3607TIP3    H210828   2.321   4.702   3.464  1.4101  2.2803 -0.7395
 3608TIP3   OH210829   3.636   4.731   4.684  0.3493  0.2930  0.1698
 3608TIP3    H110830   3.703   4.726   4.616 -0.5425  2.6659 -1.0225
 3608TIP3    H210831   3.553   4.720   4.637 -0.2248  0.4810  1.1089
 3609TIP3   OH210832   5.397   1.361   1.132  0.3335 -0.3010 -0.7786
 3609TIP3    H110833   5.372   1.283   1.180  1.5189 -0.8263 -0.9697
 3609TIP3    H210834   5.330   1.425   1.153  0.2164 -0.8648  0.6812
 3610TIP3   OH210835   4.672   0.692   3.729 -0.6250 -0.1643  0.4368
 3610TIP3    H110836   4.717   0.616   3.767  0.1163 -0.9176 -1.7834
 3610TIP3    H210837   4.728   0.767   3.752  0.7528 -0.8357 -0.6039
 3611TIP3   OH210838   5.645   3.502   2.338 -0.0612 -0.6941 -0.1313
 3611TIP3    H110839   5.693   3.580   2.365 -0.9252 -0.3711  0.4938
 3611TIP3    H210840   5.648   3.505   2.242  0.1207 -0.0331 -0.1114
 3612TIP3   OH210841   1.143   1.457   1.980  0.2188  0.2995 -0.6148
 3612TIP3    H110842   1.049   1.466   1.991  0.0793  1.5557 -2.3312
 3612TIP3    H210843   1.180   1.531   2.029  0.2941 -0.0610 -0.1286
 3613TIP3   OH210844   4.556   0.900   5.067  0.3587  0.6109 -0.0410
 3613TIP3    H110845   4.624   0.849   5.023  0.7264  0.3612  0.7864
 3613TIP3    H210846   4.540   0.852   5.148  0.2836  1.4916  0.4733
 3614TIP3   OH210847   2.050   0.820   1.619  0.3436 -0.4251  0.3721
 3614TIP3    H110848   1.959   0.788   1.621  0.8584 -1.9778  0.7288
 3614TIP3    H210849   2.075   0.815   1.526 -0.4244  1.6138 -0.0005
 3615TIP3   OH210850   1.510   3.958   1.043 -0.8345  0.3828 -0.2999
 3615TIP3    H110851   1.571   3.959   0.969 -0.0129  0.3872  0.3582
 3615TIP3    H210852   1.561   3.921   1.115 -1.3211  1.2955  0.5240
 3616TIP3   OH210853   5.426   5.832   2.816  0.6391 -0.0146  0.1132
 3616TIP3    H110854   5.473   5.830   2.732  0.7781  0.2868  0.1809
 3616TIP3    H210855   5.458   5.912   2.859  1.0299 -0.4931  0.7222
 3617TIP3   OH210856   0.654   1.656   3.491  0.0007 -1.1079  0.0709
 3617TIP3    H110857   0.637   1.715   3.564 -0.8498  0.6507 -1.4719
 3617TIP3    H210858   0.715   1.591   3.527 -0.9965 -0.8020  2.5386
 3618TIP3   OH210859   2.074   5.405   1.774 -0.3451 -0.1470  0.3265
 3618TIP3    H110860   2.114   5.410   1.687 -0.1075 -1.8544  0.2963
 3618TIP3    H210861   2.046   5.494   1.793  0.3077  0.4083 -1.1648
 3619TIP3   OH210862   1.419   5.704   3.459 -0.2403 -0.4022  0.4822
 3619TIP3    H110863   1.510   5.716   3.433 -0.3137  0.0772  0.4448
 3619TIP3    H210864   1.395   5.785   3.504 -0.4378 -0.8033  1.1162
 3620TIP3   OH210865   0.768   4.960   1.499  0.3255  0.4502  0.1917
 3620TIP3    H110866   0.838   4.898   1.477 -0.2378 -1.5058  3.3695
 3620TIP3    H210867   0.687   4.914   1.477 -0.0666  0.9416  0.5917
 3621TIP3   OH210868   2.456   1.114   1.803  0.5334  0.2789 -0.0119
 3621TIP3    H110869   2.494   1.056   1.870  0.6685  2.1093  1.5870
 3621TIP3    H210870   2.362   1.105   1.815  0.5544  0.3191  0.2016
 3622TIP3   OH210871   2.724   2.526   2.743 -0.1852 -0.2971  0.2286
 3622TIP3    H110872   2.754   2.573   2.664  3.7889  0.8356  2.1423
 3622TIP3    H210873   2.700   2.595   2.804  2.7025 -0.6747  1.9910
 3623TIP3   OH210874   4.613   0.967   4.042  0.1797 -0.0307  0.4393
 3623TIP3    H110875   4.661   0.977   4.124  0.3298 -1.9674  0.6400
 3623TIP3    H210876   4.681   0.950   3.977 -0.1058 -1.5253  0.4966
 3624TIP3   OH210877   4.481   1.653   4.804  0.5908 -0.4762  0.1859
 3624TIP3    H110878   4.452   1.659   4.895  1.7802  1.2777  0.5109
 3624TIP3    H210879   4.418   1.594   4.763 -2.0489  1.3263  1.3372
 3625TIP3   OH210880   5.851   1.333   1.098  0.4973 -0.0304  0.4112
 3625TIP3    H110881   5.845   1.345   1.003  0.8905  0.3098  0.4262
 3625TIP3    H210882   5.793   1.400   1.134  1.3323  0.6959  0.4424
 3626TIP3   OH210883   3.055   2.425   0.229  0.0475 -0.1747  0.0331
 3626TIP3    H110884   3.019   2.336   0.228 -2.2056  0.6900 -0.6940
 3626TIP3    H210885   3.103   2.432   0.146 -0.1903 -0.5375 -0.1397
 3627TIP3   OH210886   3.349   2.466   1.123 -0.4067  0.0421 -0.1579
 3627TIP3    H110887   3.384   2.394   1.071 -0.0213  0.0164  0.1311
 3627TIP3    H210888   3.258   2.442   1.139 -0.4905 -0.0104 -0.7121
 3628TIP3   OH210889   2.971   1.515   2.261 -0.1319 -0.1461 -0.0052
 3628TIP3    H110890   3.041   1.566   2.221  0.4905 -1.6021 -0.8450
 3628TIP3    H210891   3.013   1.433   2.287 -1.2245 -0.4757  0.7803
 3629TIP3   OH210892   0.069   5.480   2.585 -0.3604 -0.6708 -0.5500
 3629TIP3    H110893   0.165   5.490   2.585 -0.2022 -1.9335 -1.1229
 3629TIP3    H210894   0.040   5.534   2.512 -0.1635  0.3012  0.0833
 3630TIP3   OH210895   4.497   0.099   4.384 -0.3910 -0.2553  0.1778
 3630TIP3    H110896   4.442   0.178   4.390 -0.1257 -0.0850  0.3712
 3630TIP3    H210897   4.435   0.027   4.397 -0.6923 -0.0977 -0.3351
 3631TIP3   OH210898   6.143   4.485   5.026  0.6536 -0.3557  0.4869
 3631TIP3    H110899   6.086   4.409   5.033 -0.1474  0.3034  1.4302
 3631TIP3    H210900   6.101   4.541   4.961  1.9619 -1.2735 -1.2546
 3632TIP3   OH210901   5.750   5.389   2.658  0.3881 -0.7749  0.2923
 3632TIP3    H110902   5.757   5.438   2.576  0.3400  0.7883  1.1668
 3632TIP3    H210903   5.723   5.301   2.632  0.3770 -0.3200 -1.3542
 3633TIP3   OH210904   3.188   4.435   1.388  0.0361  0.4767  0.7050
 3633TIP3    H110905   3.111   4.379   1.400  1.9710 -1.9304  3.2681
 3633TIP3    H210906   3.214   4.421   1.297 -0.1947 -2.0475  0.9549
 3634TIP3   OH210907   4.556   0.215   0.567 -0.4732  0.0446 -0.0208
 3634TIP3    H110908   4.614   0.164   0.511  0.2394  1.2267 -0.3983
 3634TIP3    H210909   4.490   0.251   0.508  0.2462  1.2486 -0.1214
 3635TIP3   OH210910   0.460   1.006   0.588  0.2905 -0.1660 -0.2788
 3635TIP3    H110911   0.491   0.937   0.530  0.7801  0.4421 -0.7514
 3635TIP3    H210912   0.367   0.986   0.601  0.1204 -0.1965 -1.4293
 3636TIP3   OH210913   2.851   4.570   4.878 -0.4434  0.5844  0.2151
 3636TIP3    H110914   2.939   4.557   4.913 -0.0908  0.1090 -0.8118
 3636TIP3    H210915   2.806   4.487   4.895 -0.2535  0.3308 -0.4687
 3637TIP3   OH210916   6.342   2.475   3.296 -0.5156  0.0612 -0.9197
 3637TIP3    H110917   6.254   2.459   3.260  0.1018 -2.3691 -1.5508
 3637TIP3    H210918   6.389   2.393   3.280  1.1035  0.3679  1.7111
 3638TIP3   OH210919   0.667   1.592   4.560  0.2621 -0.1785  0.0609
 3638TIP3    H110920   0.731   1.618   4.493  0.5694 -1.3948 -0.1513
 3638TIP3    H210921   0.592   1.559   4.510  0.3343 -0.7278  0.3088
 3639TIP3   OH210922   2.897   1.397   2.873 -0.1224  0.2533 -0.5454
 3639TIP3    H110923   2.860   1.451   2.943 -0.4657  0.5634 -0.9595
 3639TIP3    H210924   2.875   1.307   2.897  1.3950  0.1626  0.7236
 3640TIP3   OH210925   0.401   4.457   4.311  0.5027  0.0726 -0.2744
 3640TIP3    H110926   0.316   4.488   4.278  1.4218  1.3127 -1.6349
 3640TIP3    H210927   0.400   4.479   4.404 -1.0549 -0.8862 -0.0170
 3641TIP3   OH210928   2.438   0.227   3.142 -0.0351  0.4030 -0.1568
 3641TIP3    H110929   2.449   0.294   3.209 -2.5661  1.1368 -0.3950
 3641TIP3    H210930   2.448   0.274   3.059  1.9294 -0.2884 -0.3736
 3642TIP3   OH210931   4.723   5.271   4.875 -0.4147 -0.2916 -1.0068
 3642TIP3    H110932   4.768   5.286   4.958  1.4808 -2.5664 -1.5119
 3642TIP3    H210933   4.647   5.328   4.878 -0.7418 -0.7112  2.5479
 3643TIP3   OH210934   6.013   4.913   2.933  0.9421 -0.3382  0.0810
 3643TIP3    H110935   6.097   4.868   2.943  1.0155 -0.0466  0.8721
 3643TIP3    H210936   6.027   4.998   2.974  0.2309 -0.3288  0.3186
 3644TIP3   OH210937   2.916   4.284   0.326 -0.0814 -0.9265  0.5932
 3644TIP3    H110938   2.846   4.336   0.289 -1.1366 -2.3411  0.5081
 3644TIP3    H210939   2.937   4.220   0.257  0.6258 -1.1189  0.9775
 3645TIP3   OH210940   5.715   3.282   1.832  0.7921  0.0422 -0.0041
 3645TIP3    H110941   5.700   3.251   1.922  0.0295  0.4439  0.0205
 3645TIP3    H210942   5.720   3.378   1.841 -2.0501  0.3299 -0.7082
 3646TIP3   OH210943   2.258   2.696   0.347 -0.2726 -0.1229 -0.4405
 3646TIP3    H110944   2.235   2.639   0.420  4.1827  1.4919  2.6587
 3646TIP3    H210945   2.210   2.777   0.363 -0.6949 -0.3839 -0.3844
 3647TIP3   OH210946   4.400   4.616   4.089 -0.1251  0.2015 -0.0170
 3647TIP3    H110947   4.477   4.647   4.041  0.6973  0.6187  1.4986
 3647TIP3    H210948   4.357   4.695   4.119  0.1478 -0.0627  1.0944
 3648TIP3   OH210949   0.622   5.644   4.427  0.4726  0.0434  0.4046
 3648TIP3    H110950   0.630   5.550   4.441  3.4763  0.2233  0.6111
 3648TIP3    H210951   0.538   5.655   4.382 -0.5512 -2.5575  1.4794
 3649TIP3   OH210952   4.171   2.317   3.620 -0.3136  0.5890  0.2984
 3649TIP3    H110953   4.234   2.389   3.610  0.0339 -0.0647 -4.2277
 3649TIP3    H210954   4.225   2.238   3.615 -1.1959  0.0458 -1.4221
 3650TIP3   OH210955   0.528   4.041   0.788 -0.0581  0.5966  0.4813
 3650TIP3    H110956   0.483   3.963   0.821  0.9280  0.4904  1.6400
 3650TIP3    H210957   0.617   4.034   0.823  0.3252  1.7463 -0.2163
 3651TIP3   OH210958   0.274   3.164   2.041  0.0320 -0.3898  0.2465
 3651TIP3    H110959   0.299   3.152   1.949  1.3679  1.5840  0.2942
 3651TIP3    H210960   0.273   3.259   2.053  0.5567 -0.6195  2.4572
 3652TIP3   OH210961   5.985   5.827   1.506  0.1545 -0.0276  0.2374
 3652TIP3    H110962   5.889   5.829   1.499  0.0229 -0.4605  1.6624
 3652TIP3    H210963   6.004   5.752   1.562  1.3916 -0.3987 -0.6295
 3653TIP3   OH210964   4.156   0.197   4.598  0.2042  0.1746  0.0196
 3653TIP3    H110965   4.111   0.153   4.526  2.2232  0.5297 -1.5606
 3653TIP3    H210966   4.188   0.127   4.654 -0.5030 -0.1513  0.0187
 3654TIP3   OH210967   1.997   0.653   1.222 -0.5643  0.6781 -0.2385
 3654TIP3    H110968   1.944   0.720   1.265  0.2203 -0.1913  2.2278
 3654TIP3    H210969   1.970   0.571   1.262 -0.7293 -0.4232 -2.4284
 3655TIP3   OH210970   4.442   2.079   1.905  0.0475 -0.3516 -0.4144
 3655TIP3    H110971   4.382   2.004   1.909 -2.1160  1.3503  1.0881
 3655TIP3    H210972   4.412   2.137   1.975  1.2496  2.2158 -1.9137
 3656TIP3   OH210973   4.797   0.604   2.990  0.3699  0.4856  0.5630
 3656TIP3    H110974   4.846   0.557   3.057  2.6089  1.5569 -0.2334
 3656TIP3    H210975   4.799   0.695   3.018  0.3311  0.7889 -0.3706
 3657TIP3   OH210976   3.932   0.909   0.382  0.4591 -0.4585  0.1113
 3657TIP3    H110977   3.869   0.838   0.390 -1.8851  1.4090 -0.4342
 3657TIP3    H210978   3.946   0.918   0.288 -0.0428  0.3875  0.1064
 3658TIP3   OH210979   1.129   2.027   5.010 -0.5145 -0.0354  0.4935
 3658TIP3    H110980   1.086   2.054   4.929  0.7244 -1.6206 -0.7476
 3658TIP3    H210981   1.176   2.105   5.039 -0.3292  0.3457 -0.7573
 3659TIP3   OH210982   1.568   5.977   3.295 -0.1088  0.3953  0.3995
 3659TIP3    H110983   1.568   6.033   3.373  0.3002 -0.2483  0.8806
 3659TIP3    H210984   1.608   5.895   3.325 -0.4745 -0.0659 -0.3496
 3660TIP3   OH210985   0.561   5.166   0.217  0.2371  0.2969  0.1564
 3660TIP3    H110986   0.501   5.176   0.142  0.8306 -1.5966 -0.6454
 3660TIP3    H210987   0.606   5.250   0.223  0.1176  0.5410 -1.5939
 3661TIP3   OH210988   5.474   0.383   4.518  0.2334 -0.0242 -0.3421
 3661TIP3    H110989   5.458   0.429   4.436 -0.1435 -0.5329 -0.5604
 3661TIP3    H210990   5.548   0.429   4.558  0.1586  0.4738 -0.7723
 3662TIP3   OH210991   3.040   1.498   0.086  0.1682  0.3918  0.2814
 3662TIP3    H110992   2.945   1.488   0.078  0.1309  1.1902 -0.3685
 3662TIP3    H210993   3.076   1.428   0.031 -0.0117 -0.6511  1.4300
 3663TIP3   OH210994   0.356   5.769   0.964  0.2931 -0.0172 -0.6492
 3663TIP3    H110995   0.363   5.676   0.940  0.4607  0.1290 -1.1545
 3663TIP3    H210996   0.304   5.808   0.894  1.6900  0.6206 -1.3553
 3664TIP3   OH210997   4.930   4.134   2.778 -0.4049 -0.4125 -0.5248
 3664TIP3    H110998   4.999   4.155   2.715  0.6452 -0.9533  0.3945
 3664TIP3    H210999   4.876   4.213   2.783  1.0798  0.6177 -0.1198
 3665TIP3   OH211000   4.562   5.881   4.600 -0.2571 -0.2452  0.5742
 3665TIP3    H111001   4.586   5.959   4.652  3.1485  0.8950 -2.2747
 3665TIP3    H211002   4.581   5.807   4.658 -0.0229  0.9939  2.1525
 3666TIP3   OH211003   3.711   0.162   3.517 -0.0613  0.0548  0.3802
 3666TIP3    H111004   3.737   0.120   3.599 -0.7865  0.5235  0.8627
 3666TIP3    H211005   3.623   0.194   3.533  0.1569  1.0274 -0.2472
 3667TIP3   OH211006   3.075   3.384   5.050  0.0816 -0.0926  0.3614
 3667TIP3    H111007   3.151   3.385   5.108 -1.2964 -2.3452  2.4204
 3667TIP3    H211008   3.104   3.427   4.970  2.8392  0.9862  1.8403
 3668TIP3   OH211009   0.917   3.431   3.097  0.7665  0.4564 -0.2899
 3668TIP3    H111010   0.827   3.465   3.094  0.9331  0.9930  0.4543
 3668TIP3    H211011   0.958   3.465   3.018  0.3019  0.1767 -0.6536
 3669TIP3   OH211012   1.081   3.476   3.315  0.0575  0.3069 -0.1977
 3669TIP3    H111013   1.119   3.393   3.344  1.7904  1.4321  0.9533
 3669TIP3    H211014   1.031   3.453   3.237 -1.0432 -2.1184  1.0799
 3670TIP3   OH211015   6.143   3.347   4.762 -0.4281 -0.2413 -0.0833
 3670TIP3    H111016   6.193   3.343   4.681 -0.3369  0.5420 -0.0745
 3670TIP3    H211017   6.207   3.372   4.829 -0.5128 -0.8297  0.2235
 3671TIP3   OH211018   4.832   1.854   0.488 -0.5517 -0.1780  0.2089
 3671TIP3    H111019   4.924   1.853   0.461 -0.6399 -1.2800 -0.1201
 3671TIP3    H211020   4.787   1.803   0.420 -0.8677 -2.5616  2.0712
 3672TIP3   OH211021   5.613   1.519   3.849 -0.6953  0.0209  0.4242
 3672TIP3    H111022   5.650   1.440   3.888 -1.8334  0.6811  3.0894
 3672TIP3    H211023   5.682   1.585   3.855 -0.5957 -0.1015  0.6235
 3673TIP3   OH211024   1.585   0.559   1.540  0.1650  0.3971 -0.0293
 3673TIP3    H111025   1.606   0.467   1.556 -1.2821  0.1708  0.7940
 3673TIP3    H211026   1.669   0.601   1.520  0.9805 -0.8969  0.5944
 3674TIP3   OH211027   6.037   1.992   2.442 -0.1983 -0.3924 -0.0147
 3674TIP3    H111028   6.040   2.067   2.382  0.8937 -0.3173  0.1018
 3674TIP3    H211029   6.056   1.917   2.387  1.6994 -0.2282  0.3290
 3675TIP3   OH211030   2.524   4.524   2.343  0.5774  0.2344  0.1137
 3675TIP3    H111031   2.467   4.471   2.398  1.4487 -0.5778  0.2693
 3675TIP3    H211032   2.537   4.472   2.263  0.0245  1.0129 -0.5042
 3676TIP3   OH211033   5.462   5.631   0.168  0.5432 -0.4704 -0.1453
 3676TIP3    H111034   5.465   5.536   0.162 -1.3709 -0.5526 -0.6978
 3676TIP3    H211035   5.429   5.659   0.082  1.0502  0.6944  0.0180
 3677TIP3   OH211036   1.996   0.653   3.279 -0.0360  0.6834  0.1913
 3677TIP3    H111037   1.994   0.583   3.343  0.8943  0.5160  0.0504
 3677TIP3    H211038   1.994   0.733   3.331 -0.0526  0.5488  0.3970
 3678TIP3   OH211039   1.964   1.989   2.839 -0.2632  0.2074 -0.4129
 3678TIP3    H111040   1.907   1.989   2.916  1.5086 -0.0175  0.9393
 3678TIP3    H211041   1.984   1.896   2.824  0.0835  0.3137 -0.6248
 3679TIP3   OH211042   1.122   1.671   4.443 -0.2295 -0.0757 -0.4144
 3679TIP3    H111043   1.155   1.582   4.433 -1.3228 -0.7870  1.6101
 3679TIP3    H211044   1.030   1.666   4.415 -0.2224  0.4623 -0.5350
 3680TIP3   OH211045   2.861   0.822   0.325  0.4504 -0.2740 -0.4748
 3680TIP3    H111046   2.773   0.812   0.363  0.4405 -0.4017 -0.5297
 3680TIP3    H211047   2.886   0.911   0.346  0.4231 -0.3266 -0.2096
 3681TIP3   OH211048   3.640   3.384   1.576 -0.2434 -0.0956 -0.2472
 3681TIP3    H111049   3.678   3.434   1.648 -3.5778  1.5329  0.6072
 3681TIP3    H211050   3.628   3.449   1.506 -0.3009 -0.8141 -0.9104
 3682TIP3   OH211051   0.452   3.215   5.071  0.2016 -0.2138 -0.2614
 3682TIP3    H111052   0.364   3.178   5.067 -0.0973  0.4524 -0.0700
 3682TIP3    H211053   0.475   3.215   5.164 -1.3673  3.5235  0.3228
 3683TIP3   OH211054   5.164   0.902   4.029  0.2046  0.0527  0.3295
 3683TIP3    H111055   5.144   0.953   3.950 -0.0149  0.3521  0.5723
 3683TIP3    H211056   5.126   0.816   4.013  1.3019 -0.3117 -0.4355
 3684TIP3   OH211057   3.555   5.808   3.911 -0.1828  0.1473 -0.0347
 3684TIP3    H111058   3.645   5.828   3.936 -0.6472 -1.0306  3.0578
 3684TIP3    H211059   3.508   5.800   3.994 -2.1470 -3.6947 -1.2247
 3685TIP3   OH211060   2.153   5.690   3.612 -0.6414  0.7325  0.2809
 3685TIP3    H111061   2.240   5.659   3.588 -1.6117 -1.8450 -0.1395
 3685TIP3    H211062   2.148   5.676   3.706  0.0265  2.7279  0.6742
 3686TIP3   OH211063   5.914   1.862   1.702  0.3440  0.8975 -0.3582
 3686TIP3    H111064   5.932   1.868   1.608  1.3889 -1.5781 -0.4039
 3686TIP3    H211065   5.999   1.841   1.741 -0.4143  0.0391  0.8924
 3687TIP3   OH211066   3.391   4.703   4.573  0.3550 -0.0213 -0.1287
 3687TIP3    H111067   3.324   4.749   4.623  0.1151  0.1825 -0.6270
 3687TIP3    H211068   3.374   4.728   4.482 -1.5986 -3.3084 -0.8232
 3688TIP3   OH211069   3.204   4.792   4.020  0.0316  0.0872  0.1299
 3688TIP3    H111070   3.192   4.718   3.960  1.2265 -0.7559  0.8701
 3688TIP3    H211071   3.281   4.838   3.987 -0.7546  1.0669 -0.3720
 3689TIP3   OH211072   5.582   3.576   1.863 -0.2011  0.5358 -0.2290
 3689TIP3    H111073   5.658   3.624   1.895 -1.0091  1.7121  0.0061
 3689TIP3    H211074   5.520   3.576   1.936 -0.5249 -0.2158 -0.4831
 3690TIP3   OH211075   2.884   2.131   0.490  0.0240 -0.7350  0.3726
 3690TIP3    H111076   2.817   2.065   0.509  1.2388 -2.3993 -0.8845
 3690TIP3    H211077   2.842   2.191   0.429 -0.9229 -0.6517  1.0828
 3691TIP3   OH211078   0.536   2.350   2.761 -0.1988  0.4962 -0.0895
 3691TIP3    H111079   0.505   2.263   2.785 -0.5508  0.3292 -1.0915
 3691TIP3    H211080   0.552   2.345   2.666 -1.5941  1.9101 -0.4396
 3692TIP3   OH211081   3.802   4.150   2.406 -0.6033  0.5763 -0.1805
 3692TIP3    H111082   3.718   4.105   2.403  0.0033 -0.6325  0.2175
 3692TIP3    H211083   3.781   4.243   2.393 -2.1181  0.4476  1.1046
 3693TIP3   OH211084   2.675   0.662   4.186 -0.7921  0.1288  0.0817
 3693TIP3    H111085   2.580   0.656   4.176 -0.6922 -0.7431 -0.5021
 3693TIP3    H211086   2.707   0.577   4.154  0.3085  1.0371 -1.3315
 3694TIP3   OH211087   5.915   0.133   3.845 -0.2616  0.0111  0.6197
 3694TIP3    H111088   5.975   0.167   3.779  1.8311 -1.9995  1.3586
 3694TIP3    H211089   5.889   0.047   3.811 -0.0425 -0.5694  1.8760
 3695TIP3   OH211090   0.821   1.693   0.365 -0.3033  0.1200  0.0646
 3695TIP3    H111091   0.766   1.639   0.422 -0.1471  0.4504  0.5391
 3695TIP3    H211092   0.890   1.725   0.423 -0.6248  1.1688 -0.1113
 3696TIP3   OH211093   2.574   5.769   1.272 -0.5500 -0.5310 -0.2897
 3696TIP3    H111094   2.545   5.811   1.192  0.2074  1.4844  0.4241
 3696TIP3    H211095   2.668   5.753   1.258  0.0235  1.4671  0.7538
 3697TIP3   OH211096   5.184   5.732   4.459  0.2210 -0.0275 -0.5358
 3697TIP3    H111097   5.214   5.712   4.547 -1.1147  0.1448 -0.0163
 3697TIP3    H211098   5.153   5.649   4.424  0.0092  0.0572 -0.5486
 3698TIP3   OH211099   4.074   3.426   3.379  0.0465  0.6657 -0.2069
 3698TIP3    H111100   4.096   3.396   3.467  0.2565 -1.6692 -0.9660
 3698TIP3    H211101   4.112   3.513   3.373 -0.1209  0.9524  2.0430
 3699TIP3   OH211102   2.209   1.821   2.664 -0.1696 -0.4971 -0.0851
 3699TIP3    H111103   2.205   1.796   2.572 -1.9132  3.5314 -1.3342
 3699TIP3    H211104   2.128   1.785   2.701 -0.2308 -0.8226 -0.5206
 3700TIP3   OH211105   6.306   3.219   2.921  0.5474  0.4269  0.1183
 3700TIP3    H111106   6.391   3.248   2.953  0.5343 -0.1184  0.6732
 3700TIP3    H211107   6.284   3.144   2.976  0.5186 -0.5478 -1.1829
 3701TIP3   OH211108   0.598   1.608   5.124 -0.2054 -0.0263 -0.1642
 3701TIP3    H111109   0.515   1.562   5.136 -1.2566  1.4909 -1.0958
 3701TIP3    H211110   0.597   1.635   5.032  1.6744 -0.5716 -0.3831
 3702TIP3   OH211111   0.157   4.505   4.191 -0.1782  0.0738  0.2965
 3702TIP3    H111112   0.113   4.523   4.274  2.5522  0.0422  1.8676
 3702TIP3    H211113   0.157   4.409   4.184  0.7626  0.0167  0.9697
 3703TIP3   OH211114   5.400   0.494   4.257  0.0757  0.1600 -0.1830
 3703TIP3    H111115   5.325   0.476   4.201  0.4599  1.1427 -1.0543
 3703TIP3    H211116   5.476   0.462   4.208  0.2825 -0.3712  0.4653
 3704TIP3   OH211117   5.938   3.005   2.063  0.6998  0.1865  0.6125
 3704TIP3    H111118   6.028   2.992   2.033  0.3932 -0.7506  0.0595
 3704TIP3    H211119   5.923   2.934   2.126  0.1843  0.0226  0.3116
 3705TIP3   OH211120   3.678   2.447   3.825  0.4324  0.2748 -1.0561
 3705TIP3    H111121   3.663   2.368   3.876 -1.8728  0.1120 -1.8585
 3705TIP3    H211122   3.762   2.432   3.780  0.2049 -1.5601 -0.9318
 3706TIP3   OH211123   0.209   2.636   1.244 -0.0186 -0.1108  0.4444
 3706TIP3    H111124   0.136   2.577   1.225 -0.0642 -0.6521  2.1746
 3706TIP3    H211125   0.255   2.595   1.317  1.3234  0.8407  0.1683
 3707TIP3   OH211126   2.537   1.044   0.975  0.6166 -0.4610 -0.4665
 3707TIP3    H111127   2.449   1.029   0.940  1.2697  0.2485 -2.5863
 3707TIP3    H211128   2.565   0.959   1.007 -1.1858 -0.4991  1.1766
 3708TIP3   OH211129   4.149   3.354   3.126  0.3182  0.5032  0.4684
 3708TIP3    H111130   4.130   3.351   3.220 -0.3288  1.8117  0.3927
 3708TIP3    H211131   4.067   3.382   3.086 -0.4437 -3.0088 -0.8572
 3709TIP3   OH211132   1.739   0.123   0.241  0.3916  0.0813 -0.4608
 3709TIP3    H111133   1.779   0.143   0.326 -0.3797 -0.2263 -0.0057
 3709TIP3    H211134   1.674   0.055   0.261 -0.4036  0.6155 -1.1447
 3710TIP3   OH211135   5.339   5.167   5.069  0.6272  0.0979  0.2241
 3710TIP3    H111136   5.432   5.177   5.088  0.8967 -0.5113 -0.7488
 3710TIP3    H211137   5.327   5.074   5.054 -0.5356 -0.1394  2.2846
 3711TIP3   OH211138   5.704   5.601   1.702  0.1672 -0.2330 -0.4830
 3711TIP3    H111139   5.650   5.547   1.644 -0.1878  0.3494 -0.7035
 3711TIP3    H211140   5.785   5.552   1.711  0.1662 -0.4148 -1.3419
 3712TIP3   OH211141   3.757   3.666   4.995 -0.1259  0.1471  0.1953
 3712TIP3    H111142   3.758   3.613   5.075  0.7035 -0.9830 -0.5199
 3712TIP3    H211143   3.736   3.754   5.025 -2.5984 -0.7205  1.3324
 3713TIP3   OH211144   4.795   3.684   3.546 -0.6119  0.0756  0.3474
 3713TIP3    H111145   4.848   3.652   3.473 -0.2072 -0.6426  0.9325
 3713TIP3    H211146   4.844   3.658   3.624 -1.3016  0.3487  0.8833
 3714TIP3   OH211147   3.872   1.460   0.867  0.2472 -0.1607 -0.2434
 3714TIP3    H111148   3.920   1.537   0.898 -0.9952  0.2781  0.6468
 3714TIP3    H211149   3.802   1.496   0.813 -0.4699 -0.6489  0.3555
 3715TIP3   OH211150   3.408   2.433   3.339 -0.1038  0.8893 -0.0976
 3715TIP3    H111151   3.437   2.354   3.293 -1.0407  0.8108 -0.5776
 3715TIP3    H211152   3.441   2.423   3.428 -1.0490 -0.5249  0.1195
 3716TIP3   OH211153   3.201   1.891   0.584  0.0436 -0.4175 -0.3508
 3716TIP3    H111154   3.156   1.936   0.656  2.3468  3.0131 -0.8073
 3716TIP3    H211155   3.283   1.859   0.623 -0.7093 -2.7326 -0.5034
 3717TIP3   OH211156   5.689   2.184   2.271  0.2188  0.3102 -0.2367
 3717TIP3    H111157   5.609   2.231   2.251  0.2288  0.7270  0.6279
 3717TIP3    H211158   5.719   2.222   2.354  1.2716  0.1187 -0.5107
 3718TIP3   OH211159   1.709   5.787   4.196 -0.6050  0.1140 -0.1429
 3718TIP3    H111160   1.696   5.878   4.168 -1.4496  0.1473  0.3510
 3718TIP3    H211161   1.701   5.790   4.291  1.4296 -0.1380  0.0908
 3719TIP3   OH211162   1.408   5.824   3.028 -0.0625  0.0155 -0.2036
 3719TIP3    H111163   1.472   5.813   3.099 -0.3921 -1.2636 -0.0933
 3719TIP3    H211164   1.338   5.877   3.067 -0.0125 -0.2686  0.2801
 3720TIP3   OH211165   5.320   5.215   1.560  0.0471 -0.0513 -0.1878
 3720TIP3    H111166   5.258   5.286   1.574 -0.5896 -0.5345 -0.5614
 3720TIP3    H211167   5.309   5.158   1.636 -0.4573 -0.4932 -0.5862
 3721TIP3   OH211168   1.146   5.248   1.145  0.0187  0.5075 -0.1422
 3721TIP3    H111169   1.213   5.309   1.114  0.8235 -0.2847 -0.0231
 3721TIP3    H211170   1.079   5.303   1.185  0.6124  1.3151 -0.2446
 3722TIP3   OH211171   4.593   1.518   2.764  0.2062  0.5318 -0.3170
 3722TIP3    H111172   4.604   1.603   2.806 -0.2148  0.3755  0.1112
 3722TIP3    H211173   4.674   1.506   2.714  0.1938  1.2645 -0.5334
 3723TIP3   OH211174   3.522   1.180   5.092  0.1119 -0.2547  0.5231
 3723TIP3    H111175   3.446   1.207   5.144  0.2233  0.7087  0.2184
 3723TIP3    H211176   3.585   1.147   5.156 -0.3874 -0.6325  0.8241
 3724TIP3   OH211177   2.773   1.473   0.197  0.1615 -0.4662 -0.7352
 3724TIP3    H111178   2.704   1.539   0.204 -0.1447 -0.9211  1.1594
 3724TIP3    H211179   2.727   1.389   0.201  0.7020 -0.7943 -1.1813
 3725TIP3   OH211180   4.146   0.922   4.553  0.3874 -0.3232  0.1528
 3725TIP3    H111181   4.192   0.868   4.616  2.6499 -0.5383 -1.5652
 3725TIP3    H211182   4.205   0.995   4.536  1.1854 -1.5946 -3.5898
 3726TIP3   OH211183   5.702   1.231   3.258 -0.3377 -0.9130  0.3177
 3726TIP3    H111184   5.662   1.317   3.272  0.9526 -0.4059  1.1318
 3726TIP3    H211185   5.794   1.243   3.284  0.2027 -2.1829 -0.8622
 3727TIP3   OH211186   1.315   3.962   4.844 -0.2849  0.4099  0.4626
 3727TIP3    H111187   1.283   3.873   4.829 -0.3885  0.5117  0.0822
 3727TIP3    H211188   1.328   3.998   4.757  1.4569  0.1694  0.5974
 3728TIP3   OH211189   4.948   4.016   4.195 -0.2130  0.0403  0.0270
 3728TIP3    H111190   5.040   4.014   4.219 -0.1931  2.7521  0.5705
 3728TIP3    H211191   4.915   4.096   4.236 -3.0705 -1.3530  0.6522
 3729TIP3   OH211192   2.993   2.301   0.809  0.0581 -0.3873  0.0356
 3729TIP3    H111193   2.934   2.339   0.744  1.1347 -1.8056 -1.8750
 3729TIP3    H211194   3.061   2.367   0.821 -0.5591  0.2094  0.3569
 3730TIP3   OH211195   2.586   5.549   3.276  0.1209 -0.1768 -0.6552
 3730TIP3    H111196   2.563   5.574   3.366  1.7881  1.8419 -0.7009
 3730TIP3    H211197   2.633   5.466   3.285 -0.8986 -0.6883  0.1606
 3731TIP3   OH211198   1.589   0.138   3.910  0.5476  0.3425 -0.5213
 3731TIP3    H111199   1.508   0.089   3.900 -0.3956  1.9830 -1.1902
 3731TIP3    H211200   1.599   0.148   4.005  0.1735 -0.1976 -0.4222
 3732TIP3   OH211201   6.020   1.373   3.103 -0.3956  0.6069  0.2294
 3732TIP3    H111202   6.098   1.418   3.072 -0.2713  0.5764  0.4897
 3732TIP3    H211203   6.029   1.372   3.198 -0.2104 -0.2919  0.2155
 3733TIP3   OH211204   0.082   1.800   3.613 -0.3527  0.7329  0.0892
 3733TIP3    H111205   0.177   1.806   3.618 -0.3313  0.0131  0.6232
 3733TIP3    H211206   0.051   1.879   3.658 -0.0306 -0.5530  2.7364
 3734TIP3   OH211207   3.723   0.747   2.174 -0.2568 -0.2249  0.0363
 3734TIP3    H111208   3.814   0.730   2.199 -0.7160  0.5388  2.4801
 3734TIP3    H211209   3.678   0.664   2.191 -0.3051 -0.1376  0.3319
 3735TIP3   OH211210   6.005   3.607   4.375  0.4754 -0.0476  0.2380
 3735TIP3    H111211   6.003   3.587   4.469 -0.5678  2.5148  0.8482
 3735TIP3    H211212   6.098   3.623   4.356  0.6335 -0.0937  0.9345
 3736TIP3   OH211213   3.434   5.811   1.167  0.9712 -0.4629  0.1637
 3736TIP3    H111214   3.420   5.893   1.121  2.4156 -0.7224 -0.8121
 3736TIP3    H211215   3.424   5.743   1.100  2.0775 -0.9113  0.4220
 3737TIP3   OH211216   5.384   5.745   3.113 -0.3754  0.5784 -0.2381
 3737TIP3    H111217   5.453   5.755   3.048 -0.0280 -0.3237 -0.0188
 3737TIP3    H211218   5.357   5.653   3.106 -0.2386  0.4258  0.9785
 3738TIP3   OH211219   5.895   2.494   4.362  0.0439  0.2732  0.6024
 3738TIP3    H111220   5.982   2.454   4.357 -0.2912 -0.3395 -1.6821
 3738TIP3    H211221   5.904   2.577   4.315 -0.6952 -0.0475 -0.1428
 3739TIP3   OH211222   5.952   4.032   3.015  0.2727  0.3259  0.7137
 3739TIP3    H111223   5.993   4.117   2.999 -0.9149  0.7137 -0.4913
 3739TIP3    H211224   5.880   4.050   3.075 -1.5887  0.7190 -1.4669
 3740TIP3   OH211225   5.814   5.095   1.416 -0.4952 -0.5105  0.2704
 3740TIP3    H111226   5.728   5.116   1.452 -0.9709  2.4033 -2.1133
 3740TIP3    H211227   5.799   5.084   1.322  1.8135  1.4228 -0.4369
 3741TIP3   OH211228   3.686   1.516   2.125  0.3701 -0.2511 -0.3087
 3741TIP3    H111229   3.751   1.577   2.159  1.7603 -2.0097  0.3579
 3741TIP3    H211230   3.634   1.490   2.202 -0.3047  0.1743 -0.6110
 3742TIP3   OH211231   0.153   0.523   3.300  0.2787 -0.0103  0.3114
 3742TIP3    H111232   0.173   0.439   3.257  0.5658  0.8266 -1.2512
 3742TIP3    H211233   0.193   0.589   3.244 -1.3968  1.3019  0.5942
 3743TIP3   OH211234   6.138   5.746   4.211 -0.5567 -0.3289  0.0235
 3743TIP3    H111235   6.122   5.658   4.244  1.6635 -0.3255  1.2651
 3743TIP3    H211236   6.217   5.738   4.157 -0.1593  0.9432  0.3815
 3744TIP3   OH211237   3.445   5.544   3.010 -0.2386  0.5059  0.5631
 3744TIP3    H111238   3.433   5.452   3.035 -0.8600  0.6050  0.6287
 3744TIP3    H211239   3.536   5.548   2.980  0.5859  0.3822  2.8225
 3745TIP3   OH211240   4.880   2.518   3.158  0.0671  0.2477  0.3646
 3745TIP3    H111241   4.934   2.553   3.087  0.2009  0.0972  0.3904
 3745TIP3    H211242   4.904   2.425   3.162  0.7183  0.4368  1.1868
 3746TIP3   OH211243   2.663   4.700   0.342  0.6164 -0.4845 -0.4253
 3746TIP3    H111244   2.646   4.760   0.270  0.7138  0.8353  0.6270
 3746TIP3    H211245   2.743   4.732   0.383 -0.6576  0.2118  1.6821
 3747TIP3   OH211246   3.031   3.085   2.472 -0.0121 -0.5513  0.4827
 3747TIP3    H111247   3.098   3.081   2.403 -0.4148 -0.5615  0.0837
 3747TIP3    H211248   3.023   2.994   2.502  0.9633 -0.3742  1.3369
 3748TIP3   OH211249   4.772   5.482   0.406  0.5583  0.2059  0.0641
 3748TIP3    H111250   4.795   5.522   0.490  1.6314  0.1219 -0.1713
 3748TIP3    H211251   4.794   5.389   0.417 -1.7766 -0.3700  0.5615
 3749TIP3   OH211252   1.234   3.006   3.424  0.1901 -0.2882 -0.1648
 3749TIP3    H111253   1.262   2.929   3.473 -2.0241 -0.7428  0.4875
 3749TIP3    H211254   1.233   2.977   3.332  2.0632 -0.1333 -0.2845
 3750TIP3   OH211255   3.808   2.702   3.374  0.0139  0.3879 -0.2131
 3750TIP3    H111256   3.756   2.640   3.322  1.9965 -2.1866  0.6278
 3750TIP3    H211257   3.869   2.741   3.311  0.3458 -0.3847 -0.3898
 3751TIP3   OH211258   0.017   2.503   5.059  0.1490  0.6734  0.4204
 3751TIP3    H111259   0.053   2.457   5.135  0.1357 -0.5638 -0.3133
 3751TIP3    H211260   0.087   2.500   4.994  0.4996  2.5034  0.6505
 3752TIP3   OH211261   5.079   5.675   0.853 -0.8112  0.7045 -0.4236
 3752TIP3    H111262   5.144   5.705   0.916 -0.5948 -0.7925  0.1061
 3752TIP3    H211263   5.067   5.750   0.794  0.9488  1.2150 -0.1996
 3753TIP3   OH211264   5.696   4.750   1.093 -0.7656  0.0350 -0.0134
 3753TIP3    H111265   5.665   4.773   1.006  0.1278  3.1449  0.3696
 3753TIP3    H211266   5.625   4.697   1.131 -1.7467 -0.2326 -2.0989
 3754TIP3   OH211267   0.789   4.706   3.078 -0.7903 -0.2929  0.6656
 3754TIP3    H111268   0.828   4.746   3.155 -0.2467  0.9270 -0.2181
 3754TIP3    H211269   0.804   4.612   3.089  0.2456 -0.0346  1.5076
 3755TIP3   OH211270   4.537   5.482   2.973 -0.4421  0.4739 -0.3614
 3755TIP3    H111271   4.563   5.569   3.004 -0.1433  0.1928  0.1782
 3755TIP3    H211272   4.448   5.495   2.940 -0.9615  0.6946  1.0407
 3756TIP3   OH211273   4.300   2.507   1.925 -0.4266 -0.4003 -0.2570
 3756TIP3    H111274   4.230   2.549   1.975 -1.8512 -2.4249 -0.4103
 3756TIP3    H211275   4.301   2.553   1.841 -1.4809 -0.2232 -0.1817
 3757TIP3   OH211276   5.594   3.797   0.843 -0.5277 -0.3693 -0.1792
 3757TIP3    H111277   5.606   3.703   0.857  1.5157 -0.0898  0.1303
 3757TIP3    H211278   5.578   3.832   0.931  0.6341 -0.1855 -0.0310
 3758TIP3   OH211279   6.175   1.347   1.239  0.7490 -0.3084 -0.1945
 3758TIP3    H111280   6.187   1.278   1.305  0.0413 -0.0582  0.2094
 3758TIP3    H211281   6.158   1.300   1.158 -1.8085 -0.6648  0.4597
 3759TIP3   OH211282   5.808   0.603   3.742 -0.1210 -0.0989  0.3311
 3759TIP3    H111283   5.781   0.553   3.819  0.9243  0.5484  1.1365
 3759TIP3    H211284   5.751   0.680   3.743 -1.0780 -0.7697 -0.3711
 3760TIP3   OH211285   5.126   5.152   0.679 -0.8001 -0.1523  0.1019
 3760TIP3    H111286   5.113   5.063   0.646  1.2149 -0.5324  0.1742
 3760TIP3    H211287   5.056   5.164   0.743 -1.1638 -1.6546  0.0356
 3761TIP3   OH211288   3.827   2.070   3.146  0.0497 -0.2758 -0.3511
 3761TIP3    H111289   3.775   2.086   3.067  2.1363  0.1819 -1.7250
 3761TIP3    H211290   3.879   1.993   3.125 -0.3693 -1.0040  1.1634
 3762TIP3   OH211291   4.419   0.272   0.799  0.5960  0.3035  0.8342
 3762TIP3    H111292   4.472   0.201   0.761  0.1601 -0.4079  1.5199
 3762TIP3    H211293   4.431   0.345   0.739 -0.7342 -1.0186 -1.1725
 3763TIP3   OH211294   5.871   1.065   0.340 -0.1470 -0.3351 -0.1758
 3763TIP3    H111295   5.965   1.072   0.356 -0.3818  1.7159  0.6766
 3763TIP3    H211296   5.834   1.040   0.425 -0.5335  1.1249  0.1233
 3764TIP3   OH211297   4.266   0.875   0.046 -0.9923  0.6326 -0.0463
 3764TIP3    H111298   4.171   0.885   0.044 -1.2217 -1.1653  0.7163
 3764TIP3    H211299   4.294   0.922   0.125 -1.2291  1.2046 -0.2996
 3765TIP3   OH211300   5.512   3.858   1.123  0.5283  0.0010 -0.1882
 3765TIP3    H111301   5.593   3.868   1.172  2.3739 -0.4299 -2.8774
 3765TIP3    H211302   5.460   3.794   1.173  2.3440 -0.5547  1.0600
 3766TIP3   OH211303   2.211   1.781   0.808 -0.2190 -0.2648  0.4975
 3766TIP3    H111304   2.193   1.854   0.749  0.7716  0.6892  1.3274
 3766TIP3    H211305   2.173   1.807   0.891 -0.7539 -1.1656  0.5441
 3767TIP3   OH211306   6.124   2.546   1.835 -0.2345 -0.1776 -0.3685
 3767TIP3    H111307   6.149   2.454   1.846  0.0566  0.0885  1.4575
 3767TIP3    H211308   6.185   2.595   1.891 -0.4039  1.1396 -1.2848
 3768TIP3   OH211309   4.235   2.104   4.070  0.6006 -0.0405  0.2518
 3768TIP3    H111310   4.323   2.075   4.048  0.9245  0.2326  1.1629
 3768TIP3    H211311   4.232   2.103   4.165  0.4225  2.2923  0.3129
 3769TIP3   OH211312   0.995   0.550   4.839 -0.0598 -0.2057 -0.2995
 3769TIP3    H111313   1.081   0.525   4.803 -0.4221 -1.1434 -0.5497
 3769TIP3    H211314   0.932   0.505   4.782 -0.6876 -0.4819  0.5971
 3770TIP3   OH211315   0.239   2.312   3.565  0.7255  0.0648  0.0981
 3770TIP3    H111316   0.278   2.229   3.537 -0.4471 -0.5138  0.1039
 3770TIP3    H211317   0.232   2.304   3.660 -1.6897 -0.9580 -0.0707
 3771TIP3   OH211318   2.106   3.436   0.769 -0.1629 -0.0068  0.2502
 3771TIP3    H111319   2.144   3.388   0.843 -0.7424 -0.3186  0.3521
 3771TIP3    H211320   2.123   3.380   0.694  1.6313  0.9274 -0.1071
 3772TIP3   OH211321   5.480   4.771   1.870  1.0156 -0.3285 -1.0059
 3772TIP3    H111322   5.394   4.730   1.877  0.1154  1.5710 -0.2800
 3772TIP3    H211323   5.531   4.733   1.942  0.5257 -0.8530 -0.9316
 3773TIP3   OH211324   1.570   2.706   4.747  0.0440  0.4167 -0.1931
 3773TIP3    H111325   1.532   2.742   4.666 -0.9331  0.6766  0.3630
 3773TIP3    H211326   1.640   2.767   4.769 -0.8666  1.3922  0.1221
 3774TIP3   OH211327   5.523   2.300   3.576 -0.6571 -0.1078  0.1215
 3774TIP3    H111328   5.614   2.301   3.606 -0.5369 -1.3940 -0.1424
 3774TIP3    H211329   5.500   2.392   3.566  0.2191  0.2661  1.3631
 3775TIP3   OH211330   0.809   0.800   3.540  0.0716  0.5586  0.6841
 3775TIP3    H111331   0.790   0.722   3.487 -2.0842  0.0721  2.0397
 3775TIP3    H211332   0.772   0.873   3.489 -2.6111  0.0166  1.6757
 3776TIP3   OH211333   3.848   4.276   4.210  0.3391 -0.4473 -0.2248
 3776TIP3    H111334   3.808   4.208   4.264 -2.0306  0.1210 -1.1672
 3776TIP3    H211335   3.893   4.227   4.140 -1.3354 -1.0910 -0.8977
 3777TIP3   OH211336   2.421   2.650   4.618 -0.5136 -0.0576  0.0977
 3777TIP3    H111337   2.496   2.666   4.561 -1.2120  0.8879 -0.5928
 3777TIP3    H211338   2.458   2.645   4.706  0.2164  1.8947 -0.0527
 3778TIP3   OH211339   0.315   1.606   1.386  0.5186  0.7708  0.3119
 3778TIP3    H111340   0.255   1.541   1.423  1.7817 -1.1074 -0.8131
 3778TIP3    H211341   0.282   1.621   1.297  1.4387  0.0746 -0.1529
 3779TIP3   OH211342   5.015   1.073   3.342 -0.3435 -0.0904  0.3297
 3779TIP3    H111343   5.070   1.138   3.387  1.3043 -0.8666 -0.5083
 3779TIP3    H211344   4.989   1.012   3.411  0.1484  0.0835  0.6718
 3780TIP3   OH211345   5.009   5.935   1.732 -0.0843  0.1338  0.2784
 3780TIP3    H111346   5.074   5.884   1.685 -0.4368  0.0394 -0.1196
 3780TIP3    H211347   5.059   6.001   1.780  0.2018  1.3887 -1.6306
 3781TIP3   OH211348   0.033   3.899   0.561 -0.4475  0.5028  0.0739
 3781TIP3    H111349   0.006   3.976   0.612  0.0960  0.7544 -0.0097
 3781TIP3    H211350   0.114   3.870   0.604  0.9395  1.6885 -1.5924
 3782TIP3   OH211351   4.980   5.189   1.819  0.1649 -0.5061  0.2941
 3782TIP3    H111352   4.913   5.251   1.846  0.6765  0.2377 -0.0714
 3782TIP3    H211353   5.062   5.227   1.852  0.6669 -0.1700 -1.2215
 3783TIP3   OH211354   3.304   4.072   2.353 -0.0581  0.1853  0.4089
 3783TIP3    H111355   3.276   4.151   2.400 -0.0860  0.7958 -0.6093
 3783TIP3    H211356   3.392   4.054   2.387  0.7917  1.8440 -0.7628
 3784TIP3   OH211357   2.100   1.433   3.545 -0.2758  0.3064 -0.2031
 3784TIP3    H111358   2.060   1.355   3.507  1.7884 -0.6172 -0.5707
 3784TIP3    H211359   2.138   1.479   3.471 -0.6615  1.1964  0.1405
 3785TIP3   OH211360   3.547   4.901   1.472 -0.0189 -0.2441 -0.3142
 3785TIP3    H111361   3.458   4.882   1.504  1.2734  0.1193  4.2004
 3785TIP3    H211362   3.566   4.988   1.505  1.9096 -0.1647 -1.5333
 3786TIP3   OH211363   5.342   4.828   2.730  0.3969 -0.2692  0.0018
 3786TIP3    H111364   5.394   4.793   2.657  1.4687  0.0432  0.5966
 3786TIP3    H211365   5.355   4.765   2.801  0.2460 -0.0038  0.2674
 3787TIP3   OH211366   4.957   3.728   2.923  0.4254  0.0067 -0.2919
 3787TIP3    H111367   4.874   3.757   2.961  0.5602  0.1826 -0.1366
 3787TIP3    H211368   5.018   3.799   2.939  1.6289 -1.5486  2.9249
 3788TIP3   OH211369   5.224   4.839   2.133  0.1996  0.0309  0.0120
 3788TIP3    H111370   5.192   4.792   2.056 -2.0958  2.4675 -0.6236
 3788TIP3    H211371   5.181   4.796   2.207 -0.0699 -0.2893 -0.3275
 3789TIP3   OH211372   1.020   0.862   0.617  0.2400  0.0042  0.2079
 3789TIP3    H111373   1.058   0.811   0.688  0.6915  0.2672  0.1602
 3789TIP3    H211374   1.088   0.925   0.594 -0.0471  0.1681 -0.2017
 3790TIP3   OH211375   0.897   0.551   4.551 -0.2506  0.1473  0.2692
 3790TIP3    H111376   0.971   0.589   4.504 -0.8204  1.9321  0.7615
 3790TIP3    H211377   0.868   0.620   4.611 -0.9301 -1.2838  1.6709
 3791TIP3   OH211378   2.358   2.760   2.827 -0.4316 -0.5762  0.1371
 3791TIP3    H111379   2.356   2.844   2.780  3.1395  0.3016  1.2346
 3791TIP3    H211380   2.385   2.696   2.762  0.1120 -0.2269  0.0179
 3792TIP3   OH211381   4.643   5.177   1.141  0.3805  0.7469 -0.3060
 3792TIP3    H111382   4.656   5.270   1.158 -0.7984  0.3823  3.5694
 3792TIP3    H211383   4.558   5.172   1.098  0.9029  1.4753 -1.4673
 3793TIP3   OH211384   6.163   5.762   2.588  0.1893  0.2892 -0.1147
 3793TIP3    H111385   6.151   5.815   2.667 -0.0655 -1.5511  1.1472
 3793TIP3    H211386   6.257   5.764   2.572  0.3345  0.1146  0.6654
 3794TIP3   OH211387   3.593   1.169   0.513 -0.0193  0.2195 -0.1039
 3794TIP3    H111388   3.536   1.126   0.449  0.3346  0.5107 -0.6230
 3794TIP3    H211389   3.534   1.218   0.568 -0.3628 -0.3252  0.0209
 3795TIP3   OH211390   6.104   3.918   0.344 -0.3525 -0.0839 -0.2348
 3795TIP3    H111391   6.072   3.896   0.431 -0.7393  1.5679  0.0652
 3795TIP3    H211392   6.169   3.850   0.325 -2.0770 -1.9524  0.2428
 3796TIP3   OH211393   4.548   3.512   0.247  0.4971 -0.1893 -0.7149
 3796TIP3    H111394   4.479   3.574   0.222 -0.1060 -1.1470 -1.5281
 3796TIP3    H211395   4.535   3.499   0.341  0.6034  0.8580 -0.5416
 3797TIP3   OH211396   1.746   5.219   3.062  0.1503 -0.2899  0.2693
 3797TIP3    H111397   1.746   5.221   3.158  1.2693  1.8988  0.2990
 3797TIP3    H211398   1.839   5.215   3.038 -0.1645 -3.2470 -0.7972
 3798TIP3   OH211399   4.801   0.072   1.142 -0.0648  0.0552 -0.2698
 3798TIP3    H111400   4.833   0.116   1.063  0.0674 -0.4093 -0.4781
 3798TIP3    H211401   4.708   0.057   1.125 -0.2059  0.6293 -0.0225
 3799TIP3   OH211402   2.157   0.039   2.812  0.7482 -0.0612  0.1591
 3799TIP3    H111403   2.175  -0.052   2.788 -1.8508 -0.5460 -0.2946
 3799TIP3    H211404   2.155   0.039   2.908  0.5057 -0.5608  0.1568
 3800TIP3   OH211405   6.023   0.402   0.376  0.2827  0.0704 -0.4906
 3800TIP3    H111406   6.081   0.475   0.397  1.3126 -0.1952 -2.2637
 3800TIP3    H211407   6.070   0.351   0.310 -0.5330 -2.0493  0.4653
 3801TIP3   OH211408   4.148   5.867   1.674  0.2599 -0.1113 -0.0053
 3801TIP3    H111409   4.232   5.912   1.685 -0.2195  0.9642 -0.6754
 3801TIP3    H211410   4.129   5.872   1.580 -0.3770 -0.6848  0.0806
 3802TIP3   OH211411   4.002   4.912   1.375  0.4394 -0.0747  0.2886
 3802TIP3    H111412   4.008   4.831   1.426 -0.1687 -0.2764  0.0532
 3802TIP3    H211413   3.913   4.911   1.340  0.2772  0.9050  0.6350
 3803TIP3   OH211414   5.171   4.719   4.426 -0.9850 -0.1382 -0.4450
 3803TIP3    H111415   5.258   4.678   4.422 -1.0379 -0.1716 -1.9083
 3803TIP3    H211416   5.167   4.759   4.513  0.2548 -0.6550 -0.1282
 3804TIP3   OH211417   3.117   0.170   4.030 -0.6994 -0.2851 -0.2869
 3804TIP3    H111418   3.191   0.110   4.041 -1.1181 -0.7588 -0.0284
 3804TIP3    H211419   3.121   0.227   4.107  0.4418  0.8569 -1.1438
 3805TIP3   OH211420   2.640   1.733   0.136  0.1667 -0.0467 -0.0256
 3805TIP3    H111421   2.725   1.769   0.114 -0.1204 -0.4500 -2.0045
 3805TIP3    H211422   2.588   1.809   0.165  1.3570  0.0891  1.9125
 3806TIP3   OH211423   6.122   5.979   1.955 -0.1056  0.4979 -0.0316
 3806TIP3    H111424   6.035   5.967   1.918  0.6534 -3.1457 -0.9728
 3806TIP3    H211425   6.107   5.989   2.049 -1.5498  0.1106 -0.2003
 3807TIP3   OH211426   6.034   4.531   2.827  0.0019 -0.1021 -0.3476
 3807TIP3    H111427   6.057   4.530   2.920 -0.8826  1.4926 -0.0935
 3807TIP3    H211428   5.943   4.500   2.824  0.3214 -1.0506 -0.8005
 3808TIP3   OH211429   1.472   3.187   0.810 -0.1864  0.1441  0.6409
 3808TIP3    H111430   1.426   3.154   0.888 -0.9402 -0.5573 -0.0761
 3808TIP3    H211431   1.457   3.119   0.744 -0.0319  0.9932 -0.2807
 3809TIP3   OH211432   4.169   1.151   0.947  0.0575 -0.0445  0.1818
 3809TIP3    H111433   4.124   1.080   0.993  0.6372  0.1827  1.1416
 3809TIP3    H211434   4.236   1.180   1.009  0.2278  0.9350 -0.4427
 3810TIP3   OH211435   1.154   4.741   0.809  0.1964  0.0949 -0.3925
 3810TIP3    H111436   1.122   4.653   0.832  2.2206 -1.0733 -1.6796
 3810TIP3    H211437   1.075   4.791   0.789 -1.1638 -0.7931  2.3230
 3811TIP3   OH211438   1.645   4.584   0.506  0.4907  0.0402 -0.0046
 3811TIP3    H111439   1.718   4.575   0.566 -0.1571 -1.6917  0.5644
 3811TIP3    H211440   1.576   4.530   0.543 -1.0434  1.4763 -0.6184
 3812TIP3   OH211441   2.754   2.526   0.158  0.2278  0.6274 -0.5165
 3812TIP3    H111442   2.841   2.507   0.194  0.1765 -2.8081 -1.9017
 3812TIP3    H211443   2.770   2.596   0.094  1.6243  1.2253  0.4288
 3813TIP3   OH211444   4.072   0.840   4.075  0.1559 -0.2022 -0.7408
 3813TIP3    H111445   4.046   0.866   4.164  2.3174  1.8202 -0.6199
 3813TIP3    H211446   4.110   0.753   4.087  1.3893  0.4640  0.5561
 3814TIP3   OH211447   1.084   3.942   3.237 -0.2269 -0.2883 -0.5329
 3814TIP3    H111448   1.118   3.919   3.151 -0.9527 -2.7839 -0.2317
 3814TIP3    H211449   1.001   3.985   3.219 -0.2433 -0.5429 -1.0878
 3815TIP3   OH211450   4.464   4.354   2.313 -0.1583 -0.3927 -0.1288
 3815TIP3    H111451   4.415   4.297   2.254  0.4562 -2.5718  1.3317
 3815TIP3    H211452   4.531   4.394   2.258 -2.3714  1.2628 -1.7891
 3816TIP3   OH211453   3.943   0.348   5.110  0.6023 -0.0544 -0.2306
 3816TIP3    H111454   3.902   0.395   5.183  0.5351  0.2303 -0.4498
 3816TIP3    H211455   3.934   0.256   5.134 -2.8564 -0.2294 -1.5963
 3817TIP3   OH211456   2.451   2.232   2.795 -0.0582  0.6733  0.1642
 3817TIP3    H111457   2.387   2.239   2.866 -0.6535 -0.0822 -0.2848
 3817TIP3    H211458   2.402   2.254   2.716  0.4724  1.0113 -0.0743
 3818TIP3   OH211459   1.192   4.625   0.517 -0.0157 -0.2039  0.1676
 3818TIP3    H111460   1.175   4.594   0.606  1.6089 -0.4368  0.4156
 3818TIP3    H211461   1.151   4.712   0.514 -0.3165 -0.3017  1.0511
 3819TIP3   OH211462   2.295   0.360   2.303  0.1746  0.0908 -0.2759
 3819TIP3    H111463   2.329   0.450   2.296 -0.0199  0.1445 -0.5588
 3819TIP3    H211464   2.231   0.354   2.232  1.2358 -0.7314 -1.1927
 3820TIP3   OH211465   5.366   0.544   1.554  0.0125 -0.7515  0.3573
 3820TIP3    H111466   5.306   0.492   1.608  0.3016 -0.8948  0.5386
 3820TIP3    H211467   5.403   0.608   1.614  0.3774 -0.9471  0.3422
 3821TIP3   OH211468   2.935   1.354   1.357 -0.9611 -0.0071  0.4488
 3821TIP3    H111469   2.987   1.432   1.336 -0.0703 -0.5468  0.6305
 3821TIP3    H211470   2.972   1.285   1.303  0.5982 -1.1507  2.8278
 3822TIP3   OH211471   1.814   2.500   4.013  0.0659 -0.9698 -0.1333
 3822TIP3    H111472   1.845   2.502   4.104  0.4328  0.5582 -0.2735
 3822TIP3    H211473   1.887   2.462   3.964  0.8186  0.3915 -0.1083
 3823TIP3   OH211474   0.373   3.706   5.061 -0.0711  0.7946  0.3316
 3823TIP3    H111475   0.418   3.628   5.028  1.6970  1.2805  1.4591
 3823TIP3    H211476   0.329   3.677   5.141 -1.3482  0.4559 -0.4640
 3824TIP3   OH211477   6.145   4.684   4.462  0.2015 -0.6652 -0.0629
 3824TIP3    H111478   6.203   4.694   4.538  0.5324 -0.8451 -0.2866
 3824TIP3    H211479   6.110   4.595   4.470  0.1263 -0.6342 -0.0454
 3825TIP3   OH211480   2.946   0.770   1.773 -0.8596 -0.2277 -0.2868
 3825TIP3    H111481   2.955   0.698   1.711  1.5389 -1.4526  1.3168
 3825TIP3    H211482   2.999   0.744   1.848 -0.7541  2.7710  0.8222
 3826TIP3   OH211483   1.846   5.369   0.852 -0.0498 -0.1820 -0.7992
 3826TIP3    H111484   1.812   5.334   0.934 -0.0578  0.4371 -0.5410
 3826TIP3    H211485   1.768   5.397   0.803  0.0826  1.7192  0.0077
 3827TIP3   OH211486   5.437   2.703   1.804 -0.5669 -0.2182 -0.1084
 3827TIP3    H111487   5.343   2.698   1.783 -0.5364  1.4077 -0.7421
 3827TIP3    H211488   5.472   2.765   1.740  0.6188  0.5053  1.2114
 3828TIP3   OH211489   3.427   2.693   1.579  0.1627 -0.0468 -0.0126
 3828TIP3    H111490   3.423   2.656   1.490  0.9275  0.1060 -0.1163
 3828TIP3    H211491   3.339   2.680   1.614  0.5917 -2.7616  0.2691
 3829TIP3   OH211492   0.391   1.898   2.690 -0.3047 -0.2135 -0.0034
 3829TIP3    H111493   0.340   1.818   2.679 -1.4605  0.4360  0.4550
 3829TIP3    H211494   0.334   1.957   2.739  0.0522  1.3336 -1.3401
 3830TIP3   OH211495   4.204   3.811   0.882  0.2705  0.7540  0.1468
 3830TIP3    H111496   4.127   3.823   0.937 -0.2773  1.2748 -0.7020
 3830TIP3    H211497   4.252   3.894   0.889  0.6365  0.5164  0.4888
 3831TIP3   OH211498   3.228   5.019   4.537 -0.0282 -0.6186 -0.4677
 3831TIP3    H111499   3.224   4.979   4.623  0.1494  0.6688  0.1689
 3831TIP3    H211500   3.266   5.106   4.553  0.2524 -0.4588 -1.8725
 3832TIP3   OH211501   5.330   1.426   4.660 -0.4023  0.0901 -0.7468
 3832TIP3    H111502   5.399   1.493   4.664 -0.4167  0.0929  2.5913
 3832TIP3    H211503   5.274   1.445   4.735 -1.3804 -2.6711 -0.6505
 3833TIP3   OH211504   4.499   2.722   1.968  0.7512  0.2480  0.1423
 3833TIP3    H111505   4.426   2.660   1.961 -0.4888  1.7899 -2.6544
 3833TIP3    H211506   4.462   2.797   2.014  0.5959  0.9254 -1.0429
 3834TIP3   OH211507   3.030   1.987   4.058 -0.6091  0.0333  0.0241
 3834TIP3    H111508   3.075   1.928   4.119 -1.4301 -1.0918 -0.4313
 3834TIP3    H211509   3.093   2.001   3.988 -0.7433 -1.1244 -0.3585
 3835TIP3   OH211510   3.791   1.949   3.398  0.3978  0.0951  0.2073
 3835TIP3    H111511   3.821   2.008   3.329  1.0938  3.0050  2.7722
 3835TIP3    H211512   3.696   1.946   3.388  0.5396 -0.0502 -1.2124
 3836TIP3   OH211513   1.924   0.706   0.535  0.0610  0.3244 -0.0567
 3836TIP3    H111514   1.846   0.687   0.483 -0.8291 -0.6313  1.5177
 3836TIP3    H211515   1.960   0.619   0.556  1.7323  0.7647 -0.9954
 3837TIP3   OH211516   5.523   1.405   3.090 -0.2313 -0.1102 -0.6470
 3837TIP3    H111517   5.470   1.423   3.012 -0.1365 -2.9094 -1.4870
 3837TIP3    H211518   5.613   1.400   3.057  0.2444  1.7564  0.2571
 3838TIP3   OH211519   4.980   3.451   1.958 -0.9867  0.0115  0.4013
 3838TIP3    H111520   4.916   3.382   1.940  0.1810 -0.9308 -0.2084
 3838TIP3    H211521   5.062   3.405   1.972 -0.1389  1.2842 -0.2195
 3839TIP3   OH211522   0.734   0.966   3.763 -0.3689 -0.1676  0.6250
 3839TIP3    H111523   0.754   1.058   3.743  0.0089 -0.2505  0.5973
 3839TIP3    H211524   0.754   0.920   3.682 -1.6930 -0.1304  0.2525
 3840TIP3   OH211525   2.541   3.218   1.210 -0.1610 -0.3919 -0.0084
 3840TIP3    H111526   2.611   3.230   1.273 -1.4767  0.1089  1.4284
 3840TIP3    H211527   2.482   3.292   1.224 -0.7962 -0.5738 -1.4443
 3841TIP3   OH211528   0.777   4.122   2.608  0.0602 -0.4041  0.0023
 3841TIP3    H111529   0.869   4.120   2.581  0.2391 -0.4105  0.5790
 3841TIP3    H211530   0.749   4.211   2.588 -0.6893 -1.1922 -2.8837
 3842TIP3   OH211531   4.625   1.316   4.776 -0.4148 -0.4282 -0.3129
 3842TIP3    H111532   4.547   1.371   4.790 -0.3616 -0.7214  1.2023
 3842TIP3    H211533   4.606   1.235   4.822  0.2109 -1.0712 -1.1514
 3843TIP3   OH211534   0.575   2.130   1.084 -0.0074 -0.3198 -0.2820
 3843TIP3    H111535   0.670   2.127   1.081 -0.0017 -1.6784  0.2514
 3843TIP3    H211536   0.548   2.104   0.996  0.0811  1.6904 -0.9506
 3844TIP3   OH211537   4.566   2.313   3.594  0.5042  0.0812  0.6557
 3844TIP3    H111538   4.659   2.322   3.617  0.4623  0.3437  0.7159
 3844TIP3    H211539   4.567   2.271   3.508  0.6841  0.2728  0.5632
 3845TIP3   OH211540   0.027   3.555   1.199 -0.4462 -0.6441 -0.0991
 3845TIP3    H111541   0.037   3.490   1.268 -0.5290  1.6864  2.2536
 3845TIP3    H211542   0.114   3.563   1.160  0.1264 -0.4781  1.1952
 3846TIP3   OH211543   0.682   1.189   1.197 -0.1222  0.1708 -0.1037
 3846TIP3    H111544   0.740   1.113   1.195  1.1027  1.0852 -0.4683
 3846TIP3    H211545   0.594   1.152   1.210  0.5484 -1.2343  0.6497
 3847TIP3   OH211546   5.141   1.265   0.096  0.0498  0.3208  0.0861
 3847TIP3    H111547   5.210   1.284   0.159  0.1726 -3.1071  1.1565
 3847TIP3    H211548   5.181   1.205   0.033 -1.2104  0.4922 -0.9304
 3848TIP3   OH211549   2.580   1.636   1.670 -0.8477  0.1027 -0.4204
 3848TIP3    H111550   2.617   1.610   1.586 -1.5913 -0.7821 -0.4870
 3848TIP3    H211551   2.558   1.553   1.713 -3.2928  0.5629 -0.6285
 3849TIP3   OH211552   4.277   5.936   4.848 -0.0682  0.2283  0.4917
 3849TIP3    H111553   4.332   5.923   4.926  0.9065 -0.9894 -0.3617
 3849TIP3    H211554   4.326   5.999   4.795  0.5827 -0.8976 -0.2952
 3850TIP3   OH211555   6.175   0.442   3.060  0.9923 -0.0743  0.4207
 3850TIP3    H111556   6.128   0.420   3.141  2.1505  0.4233  1.2519
 3850TIP3    H211557   6.219   0.525   3.079 -1.0045  1.6266 -1.7040
 3851TIP3   OH211558   3.317   0.021   4.510  0.6217  0.2698  0.1398
 3851TIP3    H111559   3.359   0.101   4.478  1.8980 -0.6492 -0.6256
 3851TIP3    H211560   3.231   0.049   4.540  1.0975  1.9510  0.0574
 3852TIP3   OH211561   3.561   3.343   0.532  0.4552 -0.2019  0.5549
 3852TIP3    H111562   3.558   3.358   0.626 -2.3185 -0.3962  0.5892
 3852TIP3    H211563   3.471   3.356   0.503  1.2511 -0.0151 -2.1117
 3853TIP3   OH211564   2.579   0.125   3.708 -0.6743 -0.2358  0.3145
 3853TIP3    H111565   2.580   0.031   3.726  1.2997 -0.7726 -2.0492
 3853TIP3    H211566   2.625   0.134   3.625 -0.9694  2.8376  0.3645
 3854TIP3   OH211567   4.698   3.107   3.917 -0.0401 -0.1104 -0.4659
 3854TIP3    H111568   4.726   3.187   3.873  0.9643 -0.7969 -1.0967
 3854TIP3    H211569   4.723   3.121   4.009 -1.3412  0.9472 -0.2330
 3855TIP3   OH211570   5.386   1.867   1.143 -0.1544 -0.1266 -0.3257
 3855TIP3    H111571   5.323   1.939   1.137  0.5113  0.4573 -0.4346
 3855TIP3    H211572   5.471   1.910   1.136  0.3682 -0.6062  2.2537
 3856TIP3   OH211573   1.213   2.411   3.017  0.2222  0.3812 -0.2170
 3856TIP3    H111574   1.169   2.415   2.932 -0.9385 -0.0039  0.3340
 3856TIP3    H211575   1.143   2.385   3.078  0.8353  1.4611  0.9908
 3857TIP3   OH211576   5.563   4.910   4.265  0.3515  0.1846 -0.9247
 3857TIP3    H111577   5.626   4.962   4.315 -1.5915 -0.2902  2.3070
 3857TIP3    H211578   5.477   4.939   4.297 -1.0565 -0.6311 -3.6366
 3858TIP3   OH211579   3.402   5.292   1.406 -0.6459 -0.0773  0.2314
 3858TIP3    H111580   3.315   5.252   1.398 -0.2327 -0.8101 -0.8779
 3858TIP3    H211581   3.386   5.376   1.448 -1.8016 -0.5290  0.7243
 3859TIP3   OH211582   2.975   5.581   0.600  0.5326  0.0385 -0.3490
 3859TIP3    H111583   2.885   5.548   0.594  0.8417 -0.6702 -1.2483
 3859TIP3    H211584   2.983   5.642   0.526  0.8403 -0.0326 -0.3757
 3860TIP3   OH211585   1.559   3.302   3.952  0.0778 -0.4287  0.2659
 3860TIP3    H111586   1.651   3.275   3.953  0.3575  0.3394 -1.4853
 3860TIP3    H211587   1.512   3.228   3.991  1.3636 -1.1210  0.5464
 3861TIP3   OH211588   4.780   0.662   1.318 -0.3682 -0.1580 -0.1558
 3861TIP3    H111589   4.859   0.715   1.328  0.9842 -1.9416 -0.8576
 3861TIP3    H211590   4.785   0.599   1.390 -0.3573 -1.2097 -1.0604
 3862TIP3   OH211591   2.106   2.784   0.559 -0.5288 -0.0903  0.0166
 3862TIP3    H111592   2.081   2.766   0.649 -0.1568  2.5600  0.7295
 3862TIP3    H211593   2.024   2.807   0.515 -0.6159 -0.7506 -0.1848
 3863TIP3   OH211594   4.259   2.496   4.642  0.1318 -0.7656  0.0902
 3863TIP3    H111595   4.214   2.557   4.700  0.5488 -0.9954  0.6629
 3863TIP3    H211596   4.215   2.506   4.557 -0.7832 -0.7495  0.5536
 3864TIP3   OH211597   2.437   2.168   2.400  0.3682  0.4023 -0.3345
 3864TIP3    H111598   2.425   2.092   2.343 -0.1365  1.1629 -1.2707
 3864TIP3    H211599   2.382   2.151   2.476  1.4810 -0.8869  0.2251
 3865TIP3   OH211600   4.603   4.961   1.583 -0.6042 -0.7197 -0.0307
 3865TIP3    H111601   4.614   4.866   1.589 -1.5327 -0.7668  1.3512
 3865TIP3    H211602   4.587   4.977   1.490  3.1453 -1.4369 -0.9762
 3866TIP3   OH211603   1.852   2.505   4.659 -0.3393 -1.0017 -0.7096
 3866TIP3    H111604   1.907   2.540   4.729  1.7578 -1.2982 -2.1139
 3866TIP3    H211605   1.831   2.581   4.605  0.5994 -1.2093 -1.3904
 3867TIP3   OH211606   4.811   3.094   2.413 -0.0018  0.4682  0.4345
 3867TIP3    H111607   4.880   3.159   2.425 -0.8719  1.6537 -0.7582
 3867TIP3    H211608   4.746   3.115   2.479 -0.3969  0.9786 -0.1106
 3868TIP3   OH211609   3.861   0.968   3.553  0.3237 -0.1725 -0.6014
 3868TIP3    H111610   3.945   0.968   3.599  0.6405  1.3672 -1.1410
 3868TIP3    H211611   3.796   0.950   3.621  0.8574  1.2787  0.3290
 3869TIP3   OH211612   1.189   2.718   1.706 -0.2064  0.0896  0.2746
 3869TIP3    H111613   1.255   2.721   1.776 -0.6751 -0.8849  0.7697
 3869TIP3    H211614   1.113   2.762   1.743 -0.3209 -0.0764  0.2382
 3870TIP3   OH211615   3.204   3.502   2.972 -0.0344 -0.2662 -0.1098
 3870TIP3    H111616   3.216   3.556   3.050 -0.1669  0.4903 -0.6058
 3870TIP3    H211617   3.291   3.497   2.933 -0.1917  0.3528 -0.5526
 3871TIP3   OH211618   1.815   4.943   1.056  0.5551 -0.1640  0.5318
 3871TIP3    H111619   1.863   4.958   0.974  0.7045  2.2324  0.9851
 3871TIP3    H211620   1.741   5.003   1.052 -2.0481 -3.1257  0.2762
 3872TIP3   OH211621   0.785   4.574   4.011  0.1907 -0.6886  0.0739
 3872TIP3    H111622   0.710   4.581   3.952  0.3465  0.5970 -0.0028
 3872TIP3    H211623   0.763   4.502   4.070  0.0697 -2.0976 -1.6041
 3873TIP3   OH211624   0.930   2.826   4.367 -0.1259  0.1035 -0.3531
 3873TIP3    H111625   1.004   2.771   4.344 -0.4934 -0.1174 -1.0192
 3873TIP3    H211626   0.853   2.776   4.341 -0.5171  0.3123  0.3692
 3874TIP3   OH211627   5.780   1.913   2.499  0.0407 -0.0711  0.3223
 3874TIP3    H111628   5.785   1.818   2.503  1.0826 -0.0501 -0.0382
 3874TIP3    H211629   5.871   1.941   2.485 -0.1176  1.0128  1.2599
 3875TIP3   OH211630   5.921   0.800   4.153 -0.6951 -0.3796 -0.2644
 3875TIP3    H111631   5.960   0.833   4.234 -2.7410 -0.2249  0.7212
 3875TIP3    H211632   5.952   0.860   4.086 -0.8601  0.9386  0.7966
 3876TIP3   OH211633   4.680   2.591   2.235 -0.1788  0.3426 -0.3182
 3876TIP3    H111634   4.683   2.687   2.244  0.2826  0.3084 -0.0624
 3876TIP3    H211635   4.595   2.574   2.194  0.6806  1.0281 -2.5255
 3877TIP3   OH211636   4.981   3.539   1.623  0.7721 -0.2104 -0.1012
 3877TIP3    H111637   5.057   3.542   1.681  0.3537  2.2228  0.3958
 3877TIP3    H211638   4.935   3.458   1.647  1.0641  0.2948  2.3672
 3878TIP3   OH211639   5.842   2.033   0.831  0.2118  0.4010  0.3226
 3878TIP3    H111640   5.909   2.096   0.857  1.1070 -1.0947  1.8993
 3878TIP3    H211641   5.892   1.961   0.792 -0.4313 -0.7205  1.4817
 3879TIP3   OH211642  -0.006   2.785   2.256 -0.0196 -0.2109 -0.4860
 3879TIP3    H111643   0.072   2.733   2.275 -1.3878 -2.2319 -0.0041
 3879TIP3    H211644  -0.057   2.782   2.337 -0.8825  0.5394 -0.9833
 3880TIP3   OH211645   6.133   1.986   3.557  0.0814  0.8256  0.3134
 3880TIP3    H111646   6.192   1.935   3.612 -0.8691 -0.7180 -0.0336
 3880TIP3    H211647   6.179   2.069   3.541  1.1036  0.6243  1.9966
 3881TIP3   OH211648   1.403   5.016   4.422 -0.3548  0.4273 -0.0262
 3881TIP3    H111649   1.387   4.984   4.333  0.8368 -1.1291  0.2762
 3881TIP3    H211650   1.364   4.950   4.479 -0.5035  1.0667  0.6292
 3882TIP3   OH211651   5.870   5.292   0.943 -0.0158 -0.4389  0.2323
 3882TIP3    H111652   5.775   5.290   0.956  0.1577  0.3902  1.8697
 3882TIP3    H211653   5.903   5.219   0.996  0.3593  0.2550  0.9936
 3883TIP3   OH211654   5.722   1.380   4.510 -0.1556  0.1921 -0.1827
 3883TIP3    H111655   5.629   1.366   4.492 -0.1357  0.7504 -0.7431
 3883TIP3    H211656   5.728   1.379   4.605 -0.5312 -1.1318 -0.1477
 3884TIP3   OH211657   5.326   4.725   0.733 -0.3820  0.1037 -0.3653
 3884TIP3    H111658   5.331   4.630   0.723 -1.0909  0.1337 -1.0673
 3884TIP3    H211659   5.259   4.738   0.801 -0.2592  0.0983 -0.2437
 3885TIP3   OH211660   1.406   2.662   2.267  0.3492 -0.7355  0.0271
 3885TIP3    H111661   1.467   2.597   2.303  0.8324  0.1026  0.7779
 3885TIP3    H211662   1.338   2.610   2.226 -0.2658 -1.8011  2.2164
 3886TIP3   OH211663   3.796   4.429   2.351  0.0790 -0.0635 -0.0191
 3886TIP3    H111664   3.874   4.477   2.379 -0.8346  1.1431  0.5389
 3886TIP3    H211665   3.725   4.493   2.356 -1.2812 -1.5632  1.1901
 3887TIP3   OH211666   0.362   2.929   0.391  0.3525  0.4918  0.1200
 3887TIP3    H111667   0.443   2.934   0.442  1.3290 -1.1637 -1.1705
 3887TIP3    H211668   0.313   2.858   0.431  0.3195  0.3571 -0.1624
 3888TIP3   OH211669   2.884   2.116   2.986  0.3616 -0.1470 -0.8982
 3888TIP3    H111670   2.826   2.044   2.958  0.7335 -0.1462 -1.7103
 3888TIP3    H211671   2.838   2.195   2.958  0.1657 -0.0895 -0.4123
 3889TIP3   OH211672   5.635   2.710   2.359  0.1996  0.4405 -0.3059
 3889TIP3    H111673   5.549   2.681   2.389 -0.7162  3.1971 -0.0073
 3889TIP3    H211674   5.661   2.645   2.294 -0.5285 -2.3065  1.9137
 3890TIP3   OH211675   0.944   0.839   2.130  0.6360 -0.0840 -0.1654
 3890TIP3    H111676   0.858   0.860   2.091  0.5680 -0.4012 -0.1909
 3890TIP3    H211677   0.997   0.918   2.115 -0.2625  0.9259  1.6743
 3891TIP3   OH211678   3.806   3.645   2.775  0.3843  0.2484  0.2262
 3891TIP3    H111679   3.796   3.660   2.681 -0.1128 -0.8211  0.0965
 3891TIP3    H211680   3.767   3.559   2.790 -0.1832  0.7066  1.5340
 3892TIP3   OH211681   0.183   1.340   1.587  0.7047  0.3073 -0.1930
 3892TIP3    H111682   0.112   1.400   1.563 -1.6835 -2.4143 -0.5446
 3892TIP3    H211683   0.175   1.268   1.525 -0.8764 -3.4734  3.8327
 3893TIP3   OH211684   3.856   3.515   1.421 -0.2494 -0.0341  0.4825
 3893TIP3    H111685   3.907   3.530   1.342 -0.0291  1.1797  0.8308
 3893TIP3    H211686   3.884   3.428   1.451  0.0986 -0.2512 -0.4394
 3894TIP3   OH211687   3.938   2.391   3.829  0.4281  0.4658 -0.1966
 3894TIP3    H111688   3.997   2.380   3.904  0.3748  0.9618 -0.0745
 3894TIP3    H211689   3.996   2.404   3.754  0.5343 -2.2103 -0.6478
 3895TIP3   OH211690   3.400   3.566   0.046 -0.2895  0.1828 -0.1632
 3895TIP3    H111691   3.466   3.618   0.092  0.5017  0.1276 -1.2032
 3895TIP3    H211692   3.423   3.476   0.066 -0.4167  0.1807 -0.0290
 3896TIP3   OH211693   6.289   0.886   2.025 -0.2071 -0.5121 -0.6099
 3896TIP3    H111694   6.350   0.908   1.955  0.2457 -1.1863 -0.4378
 3896TIP3    H211695   6.336   0.824   2.080 -0.9422 -0.8259 -0.3110
 3897TIP3   OH211696   0.680   1.824   4.193 -0.5190 -0.5938  0.2265
 3897TIP3    H111697   0.717   1.904   4.158 -0.4509 -0.7619 -0.0867
 3897TIP3    H211698   0.673   1.765   4.118 -1.4678 -0.5459  0.2709
 3898TIP3   OH211699   0.011   4.840   0.629 -0.1193  0.1005  0.3224
 3898TIP3    H111700   0.004   4.917   0.686 -0.2731  0.7565 -0.5743
 3898TIP3    H211701  -0.012   4.871   0.542  1.1740 -0.6466 -0.3214
 3899TIP3   OH211702   5.139   3.001   4.818 -0.2759 -0.5623 -0.0989
 3899TIP3    H111703   5.047   3.022   4.804  0.6070  2.4767 -2.6285
 3899TIP3    H211704   5.158   2.931   4.756 -0.7991 -1.0483  0.2770
 3900TIP3   OH211705   3.170   4.297   2.414  0.2156 -0.3823  0.1473
 3900TIP3    H111706   3.172   4.325   2.506  0.0627  1.7087 -0.4385
 3900TIP3    H211707   3.098   4.347   2.375 -0.5892 -2.2360 -0.8401
 3901TIP3   OH211708   2.830   2.838   4.058 -0.1096 -0.1171  0.0205
 3901TIP3    H111709   2.864   2.909   4.002 -0.5796 -0.5322 -0.8038
 3901TIP3    H211710   2.892   2.766   4.044  0.3964  0.1338  0.8977
 3902TIP3   OH211711   0.045   4.156   2.070  0.3686 -0.6864 -0.5625
 3902TIP3    H111712  -0.022   4.193   2.128  0.4037  1.8903 -1.9897
 3902TIP3    H211713   0.041   4.062   2.085 -0.1415 -0.2247  3.0060
 3903TIP3   OH211714   0.190   1.204   2.816 -0.2068 -0.4897 -0.2421
 3903TIP3    H111715   0.233   1.164   2.892 -1.9805 -2.5146 -0.2175
 3903TIP3    H211716   0.153   1.131   2.767 -2.8983  1.0269 -0.7063
 3904TIP3   OH211717   2.298   0.799   3.543  0.2322  0.0303  0.1704
 3904TIP3    H111718   2.238   0.730   3.572  0.9719 -0.5804  0.3153
 3904TIP3    H211719   2.248   0.880   3.548 -0.2944 -0.3395  1.1872
 3905TIP3   OH211720   5.501   0.819   1.636 -0.2275  0.0933 -0.1076
 3905TIP3    H111721   5.531   0.907   1.659  0.4105 -0.1402 -0.0114
 3905TIP3    H211722   5.481   0.777   1.720 -0.3623  0.0871 -0.1422
 3906TIP3   OH211723   0.326   3.369   1.130  0.6560  0.0162  0.1896
 3906TIP3    H111724   0.309   3.430   1.058  0.6309 -0.1042  0.0942
 3906TIP3    H211725   0.358   3.425   1.201  0.3510  0.1813  0.2021
 3907TIP3   OH211726   3.856   4.931   0.171 -0.0155 -0.0605 -0.4697
 3907TIP3    H111727   3.763   4.910   0.182  0.2871 -1.0700  0.2919
 3907TIP3    H211728   3.892   4.856   0.123  0.6395 -0.2572  0.3097
 3908TIP3   OH211729   1.246   1.221   1.867 -0.4553  0.2436 -0.6019
 3908TIP3    H111730   1.329   1.210   1.913 -1.0191  0.6066  0.5626
 3908TIP3    H211731   1.202   1.292   1.913 -2.0224 -0.8937 -0.2253
 3909TIP3   OH211732   3.347   5.325   3.749 -0.5364  0.4646  0.3836
 3909TIP3    H111733   3.287   5.257   3.719 -2.0658  1.5668  0.8037
 3909TIP3    H211734   3.293   5.405   3.751  0.6292  1.2611  1.9036
 3910TIP3   OH211735   3.913   1.318   0.571  0.2177  0.0706  0.4128
 3910TIP3    H111736   4.001   1.284   0.587 -0.3401 -0.5025  2.5871
 3910TIP3    H211737   3.879   1.339   0.658 -2.1070 -0.5142 -0.2784
 3911TIP3   OH211738   1.610   3.539   1.223  0.4955  0.2123 -0.2679
 3911TIP3    H111739   1.517   3.547   1.203  0.5464  1.1427 -0.1864
 3911TIP3    H211740   1.653   3.542   1.138  0.3711 -1.9897 -0.4553
 3912TIP3   OH211741   5.444   1.791   1.409 -0.2100  0.0631  0.2417
 3912TIP3    H111742   5.405   1.809   1.324  0.9065  0.7114 -0.1518
 3912TIP3    H211743   5.382   1.830   1.472 -0.1067  1.2895 -0.3740
 3913TIP3   OH211744   2.283   2.431   2.963 -0.5142  0.2151  0.1056
 3913TIP3    H111745   2.225   2.503   2.938  0.4718 -0.0683 -3.5950
 3913TIP3    H211746   2.343   2.469   3.027 -2.1444  1.6395  0.8893
 3914TIP3   OH211747   2.863   4.019   4.556 -0.4259 -0.1136  0.4500
 3914TIP3    H111748   2.805   4.054   4.623 -0.7018  0.8934 -0.2946
 3914TIP3    H211749   2.842   3.925   4.553  0.9922 -0.5923  3.1191
 3915TIP3   OH211750   2.500   5.209   4.021 -0.0362  0.2163 -0.0727
 3915TIP3    H111751   2.501   5.224   3.927 -1.0852 -1.1260 -0.3309
 3915TIP3    H211752   2.592   5.197   4.045  0.1705 -0.3190 -1.0881
 3916TIP3   OH211753   3.163   2.168   0.548 -0.3716 -0.1573 -0.1733
 3916TIP3    H111754   3.215   2.088   0.542 -1.5644 -1.1751  1.7236
 3916TIP3    H211755   3.077   2.143   0.517 -0.9236  0.1802  1.0080
 3917TIP3   OH211756   4.028   4.662   5.118 -0.2961 -0.2145 -0.4383
 3917TIP3    H111757   4.117   4.662   5.153 -0.7202  0.4124  0.6867
 3917TIP3    H211758   4.031   4.600   5.046  0.5762 -1.7335  0.8421
 3918TIP3   OH211759   4.206   3.770   4.070  0.6555 -0.7424  0.5737
 3918TIP3    H111760   4.284   3.825   4.069  0.1152  0.0777 -1.0877
 3918TIP3    H211761   4.157   3.800   4.146 -0.2222  2.0852 -0.9371
 3919TIP3   OH211762   4.979   1.187   4.765  0.1278 -0.0618 -0.2932
 3919TIP3    H111763   4.997   1.280   4.752 -1.0980  0.2594  0.1683
 3919TIP3    H211764   4.933   1.159   4.686 -2.7975  0.6640  1.0208
 3920TIP3   OH211765   5.428   1.348   0.603  0.1997  0.6494 -0.0760
 3920TIP3    H111766   5.442   1.434   0.563 -0.8610  0.0103 -1.9499
 3920TIP3    H211767   5.373   1.365   0.679 -0.2903  1.5866 -0.6280
 3921TIP3   OH211768   1.695   2.281   0.293 -0.0610  0.1595 -0.6096
 3921TIP3    H111769   1.738   2.196   0.307  1.5145  0.8538 -1.0470
 3921TIP3    H211770   1.740   2.318   0.218  0.1069  1.9190  0.3101
 3922TIP3   OH211771   6.051   5.466   2.911 -0.5360 -0.1573  0.2063
 3922TIP3    H111772   6.096   5.455   2.828 -0.4266 -0.1383  0.2631
 3922TIP3    H211773   6.097   5.408   2.972 -1.3087 -1.0327 -0.0108
 3923TIP3   OH211774   0.870   0.989   3.128  0.5301  0.2647  0.3653
 3923TIP3    H111775   0.823   0.996   3.211  0.4810  1.6821  0.2437
 3923TIP3    H211776   0.848   0.902   3.095 -1.3237  0.5616  0.7225
 3924TIP3   OH211777   3.099   0.699   4.837 -0.0081  0.2236  0.0140
 3924TIP3    H111778   3.158   0.705   4.913  0.4808  0.7941 -0.4005
 3924TIP3    H211779   3.141   0.634   4.780 -0.7815 -0.7960  0.5695
 3925TIP3   OH211780   0.286   2.502   1.498 -0.6259  0.4003 -0.2588
 3925TIP3    H111781   0.195   2.490   1.525 -0.2270  0.7787  1.3812
 3925TIP3    H211782   0.326   2.416   1.511 -0.1502  0.8618  1.6591
 3926TIP3   OH211783   0.633   5.815   4.042  0.1354  0.3724  0.0708
 3926TIP3    H111784   0.662   5.810   4.132  0.1397  0.6130  0.0828
 3926TIP3    H211785   0.661   5.901   4.012 -1.0851  0.8549  0.2688
 3927TIP3   OH211786   5.602   0.452   2.609  0.6515 -0.4051  0.2793
 3927TIP3    H111787   5.646   0.374   2.576 -0.2644 -1.8603  2.2867
 3927TIP3    H211788   5.612   0.447   2.704  0.4903  1.9166  0.4939
 3928TIP3   OH211789   5.284   5.634   4.697  0.4643  0.2894 -0.1964
 3928TIP3    H111790   5.252   5.579   4.769 -0.8506  0.8311 -0.3373
 3928TIP3    H211791   5.369   5.597   4.675  0.3468 -0.6498  0.8247
 3929TIP3   OH211792   4.829   5.196   0.438  0.0185  0.2544 -0.0036
 3929TIP3    H111793   4.921   5.190   0.412  0.1769 -0.1363  0.6211
 3929TIP3    H211794   4.786   5.123   0.394 -0.0160  0.5041 -0.3856
 3930TIP3   OH211795   0.315   3.769   4.644 -0.1519 -0.4867  0.8468
 3930TIP3    H111796   0.404   3.761   4.678 -0.0553 -0.3534  0.6274
 3930TIP3    H211797   0.300   3.863   4.638  0.5541 -0.4536 -1.3362
 3931TIP3   OH211798   3.451   1.181   2.226 -0.2928 -0.0379  0.2045
 3931TIP3    H111799   3.370   1.173   2.176 -0.3549 -0.7150  0.4102
 3931TIP3    H211800   3.509   1.114   2.189 -1.4292 -2.8704  3.1304
 3932TIP3   OH211801   4.151   1.434   0.732 -0.2161 -0.3686 -0.4887
 3932TIP3    H111802   4.059   1.459   0.743 -0.4349  0.1959 -3.0720
 3932TIP3    H211803   4.149   1.340   0.715 -0.2606 -0.4293 -0.1592
 3933TIP3   OH211804   4.246   3.262   1.472 -0.2559 -0.4090 -0.2643
 3933TIP3    H111805   4.260   3.332   1.409 -1.2319 -0.8608 -1.0162
 3933TIP3    H211806   4.331   3.251   1.515 -0.3088  1.7912  0.4889
 3934TIP3   OH211807   2.212   3.023   0.798  0.0038 -0.8721  0.1197
 3934TIP3    H111808   2.124   2.986   0.800 -0.2459 -0.3318 -0.5018
 3934TIP3    H211809   2.212   3.082   0.723  1.1410 -1.4462 -0.3582
 3935TIP3   OH211810   0.796   2.696   3.100 -0.4767 -0.2222  0.0557
 3935TIP3    H111811   0.807   2.601   3.103 -0.7489 -0.2639 -0.2128
 3935TIP3    H211812   0.735   2.716   3.171  1.2952  0.0148  1.5853
 3936TIP3   OH211813   4.025   3.116   4.995  0.8057 -0.1491 -0.2151
 3936TIP3    H111814   4.096   3.109   4.932 -0.4818 -1.3549 -1.6107
 3936TIP3    H211815   3.958   3.167   4.949 -0.6986 -2.1805 -0.4255
 3937TIP3   OH211816   5.400   5.595   1.772  0.0531  0.2623  0.4821
 3937TIP3    H111817   5.490   5.612   1.798 -0.4559  1.2035  1.7054
 3937TIP3    H211818   5.387   5.502   1.790  0.8820  0.0309 -0.0644
 3938TIP3   OH211819   5.747   3.388   0.085  0.1465 -0.4162  0.9433
 3938TIP3    H111820   5.710   3.321   0.143  0.1080  0.6122  2.1707
 3938TIP3    H211821   5.723   3.471   0.127  0.8321  0.3469 -0.1284
 3939TIP3   OH211822   3.683   1.379   4.911 -0.3753 -0.4213  0.0297
 3939TIP3    H111823   3.758   1.337   4.869 -2.8600 -1.4245 -4.0026
 3939TIP3    H211824   3.698   1.473   4.897  0.0864 -0.6087 -0.7880
 3940TIP3   OH211825   4.070   0.924   2.982 -0.0906  0.0996 -0.4301
 3940TIP3    H111826   4.086   1.018   2.975 -0.6296  0.1749 -0.6829
 3940TIP3    H211827   3.982   0.918   3.020  0.6111 -0.3015  1.2149
 3941TIP3   OH211828   0.546   0.274   4.752  0.3065 -0.1712 -0.0557
 3941TIP3    H111829   0.553   0.191   4.800 -0.2016 -0.2061 -0.0277
 3941TIP3    H211830   0.457   0.305   4.772  0.5173  0.4131 -0.0148
 3942TIP3   OH211831   1.977   2.095   0.731  0.4078  0.1558 -0.0935
 3942TIP3    H111832   1.893   2.088   0.775  0.0687  2.4212 -0.2854
 3942TIP3    H211833   1.961   2.062   0.643 -0.2903  0.5953 -0.1342
 3943TIP3   OH211834   0.273   1.863   0.142  0.3865  0.1668  0.0098
 3943TIP3    H111835   0.281   1.823   0.055 -1.5842  1.0775 -0.6481
 3943TIP3    H211836   0.352   1.916   0.151  0.5923  0.1150 -1.2713
 3944TIP3   OH211837   1.279   3.956   2.026  0.6893  0.4799  0.0306
 3944TIP3    H111838   1.333   4.022   2.071 -0.1871  1.0197  0.3064
 3944TIP3    H211839   1.337   3.880   2.018  1.1543  0.6776  1.2856
 3945TIP3   OH211840   2.193   4.084   1.047 -0.2081  0.0183 -0.1814
 3945TIP3    H111841   2.227   4.096   1.136 -0.4859  0.4588 -0.1307
 3945TIP3    H211842   2.169   3.991   1.043  0.1974 -0.1019  0.0601
 3946TIP3   OH211843   5.169   3.634   3.625  0.4756  0.3056 -0.4704
 3946TIP3    H111844   5.195   3.636   3.533  0.3917  3.5874 -0.5282
 3946TIP3    H211845   5.251   3.643   3.673  0.3488  0.7032 -0.3213
 3947TIP3   OH211846   1.467   1.627   4.498  0.1539 -0.1413  0.0643
 3947TIP3    H111847   1.426   1.546   4.527 -0.7484  0.1612 -0.3515
 3947TIP3    H211848   1.457   1.687   4.572 -0.8781  0.1788 -0.3152
 3948TIP3   OH211849   5.303   1.049   0.756  0.4819 -0.2400  0.1475
 3948TIP3    H111850   5.209   1.061   0.741  0.5824  0.2130 -0.1708
 3948TIP3    H211851   5.315   1.067   0.849  0.2041 -0.6420  0.2633
 3949TIP3   OH211852   1.428   5.056   2.391  0.1108  0.3772  0.6673
 3949TIP3    H111853   1.488   5.091   2.457 -0.3760 -0.5165  1.6196
 3949TIP3    H211854   1.476   4.984   2.351 -0.2077 -0.1886  1.2692
 3950TIP3   OH211855   3.217   1.385   2.319  0.2414  0.2190 -0.0140
 3950TIP3    H111856   3.237   1.292   2.325  0.0937  0.1526 -0.4920
 3950TIP3    H211857   3.180   1.407   2.404 -1.8144 -0.6740 -0.5982
 3951TIP3   OH211858   3.782   5.260   3.159  0.1965 -0.3578  0.2088
 3951TIP3    H111859   3.748   5.288   3.074 -0.3098 -0.4125  0.3867
 3951TIP3    H211860   3.760   5.333   3.217  1.1396 -0.0247  0.1594
 3952TIP3   OH211861   0.618   4.589   0.167  0.1921  0.0982  0.0338
 3952TIP3    H111862   0.604   4.684   0.170 -1.0564 -0.0718  0.2569
 3952TIP3    H211863   0.646   4.571   0.077 -1.1663  0.5059 -0.5033
 3953TIP3   OH211864   5.596   3.967   0.571 -0.2598  0.4122 -0.2492
 3953TIP3    H111865   5.614   4.016   0.652 -2.9595 -1.2306  1.4799
 3953TIP3    H211866   5.668   3.904   0.565  0.3105  0.9709  0.5261
 3954TIP3   OH211867   2.149   4.829   0.501 -0.4301  0.0182  0.2810
 3954TIP3    H111868   2.134   4.826   0.596 -0.6025  2.1652  0.3667
 3954TIP3    H211869   2.064   4.855   0.465 -0.1122  0.1517 -0.3697
 3955TIP3   OH211870   0.738   5.332   1.193  0.2354  0.1895  0.1711
 3955TIP3    H111871   0.651   5.292   1.194  1.3575 -2.5260 -1.1019
 3955TIP3    H211872   0.777   5.308   1.277  0.6920 -0.9735 -0.3522
 3956TIP3   OH211873   1.049   2.626   2.277 -0.2291 -0.5927 -0.0225
 3956TIP3    H111874   1.064   2.708   2.325  4.2804 -0.9618 -0.4051
 3956TIP3    H211875   1.052   2.652   2.185  1.3315 -1.1222 -0.1463
 3957TIP3   OH211876   4.479   2.622   2.490 -0.4377 -0.0537 -0.1483
 3957TIP3    H111877   4.422   2.684   2.444 -1.4503 -0.3490  0.6855
 3957TIP3    H211878   4.461   2.636   2.583  1.1158  0.0908  0.1622
 3958TIP3   OH211879   2.780   3.968   3.202  0.3474 -0.3274 -0.2240
 3958TIP3    H111880   2.719   3.905   3.242  0.0413 -1.2232 -2.0100
 3958TIP3    H211881   2.723   4.035   3.164  0.5992  0.0929  0.1309
 3959TIP3   OH211882   5.158   5.394   1.903 -0.3977  0.4607 -0.0924
 3959TIP3    H111883   5.143   5.487   1.918  1.8824  0.9807 -0.5931
 3959TIP3    H211884   5.212   5.365   1.977 -2.0931 -0.8072  0.7157
 3960TIP3   OH211885   6.287   3.343   0.225 -0.0358  0.3221 -0.9015
 3960TIP3    H111886   6.313   3.254   0.201  1.0629  0.7306 -1.2898
 3960TIP3    H211887   6.248   3.333   0.312  1.1945 -0.3773 -0.4017
 3961TIP3   OH211888   0.787   3.919   4.521 -0.1812 -0.2410 -0.5969
 3961TIP3    H111889   0.699   3.882   4.526 -1.0292  1.8120  0.8655
 3961TIP3    H211890   0.837   3.871   4.588 -0.3315 -0.9915 -1.0111
 3962TIP3   OH211891   2.253   5.476   5.143  0.6453  0.5843  0.4318
 3962TIP3    H111892   2.336   5.520   5.159  0.0359  1.5597  0.9799
 3962TIP3    H211893   2.191   5.517   5.203 -0.5407  0.7535 -0.8461
 3963TIP3   OH211894   3.778   4.490   3.965 -0.0037  0.5890 -0.0678
 3963TIP3    H111895   3.871   4.513   3.971 -0.1463  1.1589  0.0198
 3963TIP3    H211896   3.739   4.561   3.914  0.1578 -1.1903 -2.8809
 3964TIP3   OH211897   2.411   3.392   0.702 -0.4704 -0.2926 -0.2862
 3964TIP3    H111898   2.378   3.471   0.659  0.0170 -0.0036 -0.1416
 3964TIP3    H211899   2.444   3.338   0.630  1.2010  0.5929 -0.2511
 3965TIP3   OH211900   3.166   3.913   2.584 -0.2057  0.0718 -0.4122
 3965TIP3    H111901   3.206   3.841   2.634 -0.0378 -0.8473 -1.8123
 3965TIP3    H211902   3.211   3.992   2.616 -1.2693 -0.2130  2.0725
 3966TIP3   OH211903   0.659   1.808   3.709 -0.0358 -0.6688  0.0068
 3966TIP3    H111904   0.744   1.844   3.733 -0.6521  0.3896  0.6970
 3966TIP3    H211905   0.616   1.789   3.792 -1.8699  2.2504 -0.1291
 3967TIP3   OH211906   2.580   3.426   3.304  0.3565 -0.7903  0.0406
 3967TIP3    H111907   2.613   3.401   3.218  1.5615 -1.4132  0.6484
 3967TIP3    H211908   2.486   3.438   3.292  0.7093  0.6226 -1.6806
 3968TIP3   OH211909   6.007   3.414   5.061  0.1634  0.0798  0.0394
 3968TIP3    H111910   6.027   3.322   5.080  2.1307  0.5458  0.4850
 3968TIP3    H211911   6.066   3.463   5.118 -0.6823  1.6271 -0.3678
 3969TIP3   OH211912   4.224   1.252   1.419  0.4886  0.5955 -0.0293
 3969TIP3    H111913   4.164   1.276   1.348  0.7428  2.3631  0.3022
 3969TIP3    H211914   4.169   1.252   1.498  0.2559 -1.1374 -0.1527
 3970TIP3   OH211915   0.244   1.545   2.561  0.2264 -0.3192 -0.1154
 3970TIP3    H111916   0.305   1.490   2.611 -0.1204 -0.6322 -0.0301
 3970TIP3    H211917   0.163   1.494   2.558  0.1943 -0.2398 -0.8748
 3971TIP3   OH211918   5.878   3.388   0.807 -0.2446  0.2543 -0.0590
 3971TIP3    H111919   5.936   3.312   0.815 -0.5926  0.0517  0.6631
 3971TIP3    H211920   5.936   3.459   0.778  0.2282 -0.1123 -0.0291
 3972TIP3   OH211921   0.341   5.691   4.379  0.0476  0.2163  0.1894
 3972TIP3    H111922   0.315   5.675   4.470 -0.4486 -1.3782 -0.2091
 3972TIP3    H211923   0.262   5.675   4.328  0.7289 -0.5305 -0.6679
 3973TIP3   OH211924   5.395   2.535   4.572  0.2817 -0.4411  0.3278
 3973TIP3    H111925   5.483   2.517   4.539  0.4342 -1.3784  1.1953
 3973TIP3    H211926   5.393   2.497   4.659 -0.6821  0.4219  0.7181
 3974TIP3   OH211927   0.795   0.023   0.880 -0.5012 -0.1851 -0.4742
 3974TIP3    H111928   0.722   0.013   0.942 -0.0222 -1.8041 -0.1200
 3974TIP3    H211929   0.858   0.078   0.926 -0.5274 -0.6568  0.1465
 3975TIP3   OH211930   4.083   1.462   0.385 -0.2886  0.0687  0.2430
 3975TIP3    H111931   4.029   1.434   0.459 -0.2567 -1.4141 -0.2783
 3975TIP3    H211932   4.106   1.382   0.339  0.4706  0.8822 -0.8627
 3976TIP3   OH211933   5.490   4.345   2.158  0.5148  0.1665  0.1572
 3976TIP3    H111934   5.399   4.350   2.189 -0.6333 -2.0434 -2.4658
 3976TIP3    H211935   5.485   4.368   2.065  2.5289 -0.8029 -0.2307
 3977TIP3   OH211936   1.209   5.690   0.649 -0.4514  0.4534 -0.3140
 3977TIP3    H111937   1.128   5.647   0.678  0.9151 -1.3278  1.1507
 3977TIP3    H211938   1.217   5.668   0.557 -1.7007  0.8231 -0.5323
 3978TIP3   OH211939   0.547   4.365   1.056 -0.0493  0.1977  0.3099
 3978TIP3    H111940   0.598   4.328   0.984  2.0144  1.1792  1.1834
 3978TIP3    H211941   0.566   4.308   1.131  1.0286  1.4330  1.0123
 3979TIP3   OH211942   5.795   0.598   5.010 -0.2928 -0.4934  0.0841
 3979TIP3    H111943   5.853   0.523   5.016  0.1125 -0.1691  0.2581
 3979TIP3    H211944   5.746   0.597   5.093 -0.2345 -0.5192  0.1176
 3980TIP3   OH211945   1.482   4.769   3.610  0.6612  0.3601 -0.3749
 3980TIP3    H111946   1.514   4.740   3.524 -0.3125 -1.8769 -0.0315
 3980TIP3    H211947   1.562   4.786   3.660  1.2407  0.8100 -1.4117
 3981TIP3   OH211948   4.573   0.868   1.241 -0.1866 -0.4806 -0.1185
 3981TIP3    H111949   4.581   0.835   1.331 -0.3155  0.2167  0.1514
 3981TIP3    H211950   4.480   0.858   1.220 -0.2595 -0.1102  0.0311
 3982TIP3   OH211951   6.290   3.294   1.705  0.1302 -0.2953  0.4576
 3982TIP3    H111952   6.313   3.216   1.755 -0.9982 -1.3529 -0.6467
 3982TIP3    H211953   6.224   3.338   1.759  0.4341 -0.3362  0.8671
 3983TIP3   OH211954   0.828   0.902   1.181  0.2603  0.1998 -0.5457
 3983TIP3    H111955   0.892   0.952   1.130  1.5623 -1.2846 -0.4360
 3983TIP3    H211956   0.749   0.903   1.126  0.4599  1.7071 -0.8764
 3984TIP3   OH211957   1.249   4.764   2.004 -0.2040  0.2215 -0.7437
 3984TIP3    H111958   1.318   4.744   1.941 -0.3103 -0.7313 -0.5682
 3984TIP3    H211959   1.270   4.710   2.080 -0.0904  1.3369  0.0381
 3985TIP3   OH211960   0.413   0.056   3.031  0.5249 -0.3420 -0.7690
 3985TIP3    H111961   0.465   0.106   2.967 -0.9931  0.5222 -1.3905
 3985TIP3    H211962   0.334   0.032   2.983 -0.4396 -0.0910  0.6402
 3986TIP3   OH211963   1.208   1.002   2.067  0.0397  0.2961 -0.1633
 3986TIP3    H111964   1.200   0.948   1.989 -0.7015  0.2329 -0.0543
 3986TIP3    H211965   1.284   1.058   2.050 -1.2812  1.7156 -1.8368
 3987TIP3   OH211966   2.966   3.678   1.187 -0.2791 -0.3646  0.2010
 3987TIP3    H111967   2.963   3.584   1.174 -0.5308 -0.5844  1.7040
 3987TIP3    H211968   2.886   3.699   1.236  0.6396  0.3540  1.4395
 3988TIP3   OH211969   5.856   4.039   4.784  0.3100  0.1116  0.0946
 3988TIP3    H111970   5.816   4.124   4.767  1.5412  0.5041 -1.0065
 3988TIP3    H211971   5.828   3.984   4.711  0.4798 -0.0776  0.1721
 3989TIP3   OH211972   4.355   3.743   4.437 -0.3990 -0.1275 -0.1252
 3989TIP3    H111973   4.275   3.701   4.405  1.4737 -1.9975 -2.7354
 3989TIP3    H211974   4.395   3.781   4.359  0.4446  2.4168  1.4165
 3990TIP3   OH211975   5.511   5.409   3.066 -1.0655  0.2878  0.5770
 3990TIP3    H111976   5.468   5.442   2.987 -0.0974  0.5540  0.1508
 3990TIP3    H211977   5.603   5.432   3.055 -0.9199  0.3537  1.8028
 3991TIP3   OH211978   0.679   0.380   2.035 -0.6426 -0.1975 -0.4136
 3991TIP3    H111979   0.692   0.440   2.108 -1.0811 -1.4406  0.7404
 3991TIP3    H211980   0.679   0.293   2.076  1.8678 -1.1685 -2.2443
 3992TIP3   OH211981   0.311   2.240   0.601  0.0705  0.0037  0.6436
 3992TIP3    H111982   0.262   2.247   0.519  1.6811  1.7759 -0.2441
 3992TIP3    H211983   0.353   2.154   0.595 -2.0500 -1.1142  0.9753
 3993TIP3   OH211984   1.731   2.939   2.782  0.6590 -0.3771  0.4909
 3993TIP3    H111985   1.653   2.983   2.818 -0.3901 -2.1653  0.5374
 3993TIP3    H211986   1.794   2.939   2.854  0.1946 -0.1239  0.9061
 3994TIP3   OH211987   5.072   3.722   4.310  0.3160 -0.4327  0.2624
 3994TIP3    H111988   5.047   3.645   4.360 -0.7157  0.0693  0.5531
 3994TIP3    H211989   5.050   3.796   4.367  0.5243  0.1008 -0.3321
 3995TIP3   OH211990   1.011   0.816   0.089  0.3424 -0.1604 -0.0953
 3995TIP3    H111991   1.071   0.772   0.029  0.1943  0.4005 -0.6734
 3995TIP3    H211992   1.005   0.758   0.164 -0.1588 -1.3245 -0.9937
 3996TIP3   OH211993   2.172   0.265   4.311  0.4515 -0.1322  0.4404
 3996TIP3    H111994   2.165   0.297   4.221  0.4368  0.1468  0.5404
 3996TIP3    H211995   2.132   0.333   4.364 -0.7784 -0.9058  0.5418
 3997TIP3   OH211996   3.011   3.339   2.818  0.0241  0.6132  0.1608
 3997TIP3    H111997   3.034   3.265   2.874 -0.7819  0.2658  0.0496
 3997TIP3    H211998   3.053   3.415   2.859 -0.1042  0.2772  0.9263
 3998TIP3   OH211999   0.814   4.278   2.050  0.5119 -0.6326  0.1493
 3998TIP3    H112000   0.880   4.341   2.020 -1.8412  0.8309 -2.3709
 3998TIP3    H212001   0.759   4.326   2.111  1.0189 -1.4915  1.3195
 3999TIP3   OH212002   5.847   1.859   3.345  0.1810  0.0579  0.3919
 3999TIP3    H112003   5.931   1.820   3.321 -0.5603 -1.3319 -0.0253
 3999TIP3    H212004   5.844   1.851   3.440 -0.0925 -1.1986  0.2838
 4000TIP3   OH212005   2.571   4.199   0.522  0.1142  0.0559  0.1636
 4000TIP3    H112006   2.590   4.217   0.615 -0.2651 -1.1160  0.4810
 4000TIP3    H212007   2.583   4.284   0.479  2.1931  0.2244  0.9621
 4001TIP3   OH212008   5.633   3.526   0.820 -0.5027  0.2186 -0.6674
 4001TIP3    H112009   5.716   3.488   0.789 -0.2847  2.2536 -2.8123
 4001TIP3    H212010   5.567   3.493   0.760 -0.7518  1.0119 -0.8370
 4002TIP3   OH212011   3.693   0.682   3.486  0.4839 -0.2820 -0.0183
 4002TIP3    H112012   3.679   0.723   3.572 -0.9973 -0.8704  0.0464
 4002TIP3    H212013   3.786   0.659   3.486  0.2397 -1.4665  1.9790
 4003TIP3   OH212014   2.032   0.972   1.237 -0.2692  0.4379  0.0286
 4003TIP3    H112015   1.978   0.952   1.161  0.4511 -0.6739 -0.2149
 4003TIP3    H212016   2.039   1.067   1.237  0.0915  0.4329 -1.5621
 4004TIP3   OH212017   3.216   1.802   4.466  0.4143  0.3739 -0.0999
 4004TIP3    H112018   3.126   1.832   4.460  0.8032  1.3156 -1.8663
 4004TIP3    H212019   3.262   1.848   4.396  2.2186 -0.2947  0.5713
 4005TIP3   OH212020   4.454   3.849   5.027  0.4906  0.1414 -0.0105
 4005TIP3    H112021   4.410   3.774   4.987 -1.0495 -0.3771  2.4158
 4005TIP3    H212022   4.426   3.924   4.975  1.7156 -0.8559 -2.2191
 4006TIP3   OH212023   2.016   5.243   2.285 -0.6507  0.2937  0.0899
 4006TIP3    H112024   1.985   5.283   2.204 -0.0760  0.8753  0.1436
 4006TIP3    H212025   1.949   5.264   2.350 -0.4383  1.0608  0.0801
 4007TIP3   OH212026   1.251   5.325   1.436  0.2333 -0.0575 -0.2819
 4007TIP3    H112027   1.294   5.298   1.516 -1.2006  1.0906  0.9295
 4007TIP3    H212028   1.231   5.243   1.390 -0.4345 -0.8453  1.3428
 4008TIP3   OH212029   2.034   2.131   2.341 -0.3752 -0.0610  0.3777
 4008TIP3    H112030   2.107   2.192   2.345  0.5287 -1.1805  1.8388
 4008TIP3    H212031   1.990   2.139   2.425 -1.7115  0.2885 -0.3250
 4009TIP3   OH212032   0.360   0.605   2.101  0.3837  0.0771 -0.0529
 4009TIP3    H112033   0.283   0.551   2.116  0.9415 -0.6521  0.2232
 4009TIP3    H212034   0.381   0.592   2.008  0.7769 -0.5231  0.1207
 4010TIP3   OH212035   1.279   0.241   1.639 -0.1708 -0.3546 -0.0400
 4010TIP3    H112036   1.310   0.177   1.575 -0.4700 -0.3132 -0.2279
 4010TIP3    H212037   1.198   0.276   1.601  0.3243  0.6123 -0.2378
 4011TIP3   OH212038   4.000   0.510   2.213 -0.5043 -0.0716  0.1464
 4011TIP3    H112039   3.971   0.436   2.266  0.9263  0.0066  1.0861
 4011TIP3    H212040   4.012   0.582   2.275  0.1814  0.3313 -0.4261
 4012TIP3   OH212041   1.971   3.060   4.882  0.7193  0.1067  0.1440
 4012TIP3    H112042   2.051   3.068   4.830  0.2230  0.0914 -0.6237
 4012TIP3    H212043   1.993   3.100   4.966  1.7031 -0.3597  0.1279
 4013TIP3   OH212044   5.062   1.742   0.945  0.1321 -0.0338  0.4491
 4013TIP3    H112045   5.155   1.723   0.930 -0.6412 -3.1592 -1.4619
 4013TIP3    H212046   5.062   1.813   1.009  3.8156  0.5745  0.0137
 4014TIP3   OH212047   3.733   3.487   2.204 -0.2262  0.2716 -0.1539
 4014TIP3    H112048   3.822   3.523   2.198  0.3968 -1.2396 -0.3211
 4014TIP3    H212049   3.691   3.512   2.121  1.2831 -2.0991 -1.7551
 4015TIP3   OH212050   1.131   1.247   4.687 -0.1617 -0.6104 -0.0084
 4015TIP3    H112051   1.128   1.342   4.699 -0.9694 -0.4861 -1.0734
 4015TIP3    H212052   1.121   1.211   4.776 -2.8079  0.2847  0.1400
 4016TIP3   OH212053   3.701   3.759   4.436  0.4987  0.0298 -0.0908
 4016TIP3    H112054   3.711   3.798   4.349  1.1184  0.0732 -0.0075
 4016TIP3    H212055   3.714   3.665   4.422  1.6939  0.1475  0.1078
 4017TIP3   OH212056   4.116   3.685   1.578  0.0744  0.1865  0.4565
 4017TIP3    H112057   4.094   3.650   1.665 -1.0357 -0.8194 -0.2098
 4017TIP3    H212058   4.212   3.693   1.579 -0.0050  1.7258  2.3392
 4018TIP3   OH212059   2.528   0.437   3.351  0.1001 -0.2686  0.1962
 4018TIP3    H112060   2.508   0.512   3.295 -0.9189 -2.2286 -2.2664
 4018TIP3    H212061   2.488   0.458   3.435  0.1894  2.0835 -0.2938
 4019TIP3   OH212062   5.484   5.768   3.510  0.4693 -0.7164  0.6016
 4019TIP3    H112063   5.577   5.789   3.498 -0.1308  0.8926 -2.0480
 4019TIP3    H212064   5.478   5.676   3.482  1.1295 -0.5166 -0.2721
 4020TIP3   OH212065   3.823   3.993   1.368 -0.4849  0.0714  0.1426
 4020TIP3    H112066   3.852   4.083   1.356 -1.4327  0.4500  0.6218
 4020TIP3    H212067   3.822   3.980   1.463 -2.7801  0.3959  0.2143
 4021TIP3   OH212068   6.237   3.740   4.991 -0.4010 -0.4554  0.2972
 4021TIP3    H112069   6.308   3.802   5.005 -1.3304  0.3046  2.0416
 4021TIP3    H212070   6.167   3.793   4.951 -0.3611 -0.9395 -0.4143
 4022TIP3   OH212071   2.672   0.527   0.273  0.0479 -0.3177  0.9167
 4022TIP3    H112072   2.695   0.562   0.187 -1.3522  0.2864  0.7547
 4022TIP3    H212073   2.756   0.505   0.314  0.7195 -1.8007 -1.0677
 4023TIP3   OH212074   2.926   5.740   3.979  0.1176  0.0040  0.6498
 4023TIP3    H112075   2.957   5.660   4.021  0.2591 -0.2370  0.0906
 4023TIP3    H212076   2.878   5.709   3.902  1.2367  0.4952 -0.2742
 4024TIP3   OH212077   2.894   1.681   3.918  0.2702  0.5408 -0.3282
 4024TIP3    H112078   2.963   1.633   3.872  0.9978 -0.4328  1.6582
 4024TIP3    H212079   2.932   1.700   4.004 -2.3303 -1.2136  1.3548
 4025TIP3   OH212080   2.453   1.789   3.569  0.6497  0.2027  0.0902
 4025TIP3    H112081   2.544   1.814   3.553  0.6446 -0.9257 -2.0983
 4025TIP3    H212082   2.445   1.784   3.664  2.7414  0.7482  0.3364
 4026TIP3   OH212083   3.879   2.030   2.224  0.2246  0.3946 -0.3923
 4026TIP3    H112084   3.925   2.072   2.296  1.5941 -0.8941 -0.4817
 4026TIP3    H212085   3.934   2.046   2.148 -0.4636  0.4795 -0.8790
 4027TIP3   OH212086   3.917   5.903   3.261  0.1703 -0.4022 -0.4505
 4027TIP3    H112087   3.938   5.996   3.268 -0.6642 -0.3281  2.8909
 4027TIP3    H212088   3.933   5.869   3.350  0.0312 -3.3694 -1.4658
 4028TIP3   OH212089   0.527   3.559   1.913 -0.7881 -0.0168 -0.3184
 4028TIP3    H112090   0.452   3.517   1.872 -0.9140  0.3242 -0.4418
 4028TIP3    H212091   0.565   3.614   1.844 -0.1526 -0.5338 -0.3916
 4029TIP3   OH212092   1.986   2.358   2.846 -0.2904 -0.0098 -0.2100
 4029TIP3    H112093   1.919   2.301   2.809 -2.0098  1.3558  0.6756
 4029TIP3    H212094   1.967   2.359   2.940  0.4198  1.1267 -0.0631
 4030TIP3   OH212095   2.027   0.423   4.487 -0.4800  0.0331 -0.0896
 4030TIP3    H112096   1.970   0.358   4.528 -1.1612  0.3090 -0.5889
 4030TIP3    H212097   2.052   0.482   4.558 -0.4094 -0.3814  0.2294
 4031TIP3   OH212098   2.881   2.422   4.646 -0.6544  0.1820 -0.1935
 4031TIP3    H112099   2.924   2.399   4.564 -1.1505  0.3631 -0.5099
 4031TIP3    H212100   2.833   2.503   4.625 -1.1688 -0.0347  0.1417
 4032TIP3   OH212101   4.444   3.934   2.555 -0.1462  0.0471  0.6495
 4032TIP3    H112102   4.391   3.997   2.603  1.5002  1.8421  0.2383
 4032TIP3    H212103   4.398   3.922   2.472 -0.4979  0.7078  0.7403
 4033TIP3   OH212104   4.070   5.608   3.441 -0.1973 -0.2975 -0.2163
 4033TIP3    H112105   4.073   5.521   3.401 -0.5384 -0.2249 -0.3994
 4033TIP3    H212106   4.045   5.592   3.532  0.1829 -0.4289 -0.1343
 4034TIP3   OH212107   0.074   2.120   4.569  0.6120  0.2384  0.0367
 4034TIP3    H112108   0.062   2.129   4.663  0.0784  1.7429 -0.1458
 4034TIP3    H212109   0.005   2.060   4.541  2.4836 -2.5291  0.9357
 4035TIP3   OH212110   5.625   0.204   2.975 -0.2963 -0.0479  0.5484
 4035TIP3    H112111   5.715   0.195   3.007  0.6544 -0.5538 -2.0677
 4035TIP3    H212112   5.620   0.294   2.943 -0.5689 -0.1713  0.2478
 4036TIP3   OH212113   1.743   3.997   2.489  0.3297  0.4065 -0.0144
 4036TIP3    H112114   1.718   3.990   2.581  0.0337  0.7422 -0.0661
 4036TIP3    H212115   1.664   3.973   2.441 -0.3798  2.7905 -0.1975
 4037TIP3   OH212116   0.050   0.281   0.888  0.4901  0.3560 -0.7362
 4037TIP3    H112117   0.140   0.264   0.917  0.2695  0.8992  0.3061
 4037TIP3    H212118   0.029   0.206   0.832  1.5374  0.1467 -0.8738
 4038TIP3   OH212119   1.227   0.600   2.561 -1.2183 -0.1308 -0.5761
 4038TIP3    H112120   1.228   0.577   2.468  1.7554 -1.5939 -0.2922
 4038TIP3    H212121   1.219   0.695   2.562 -0.6789 -0.0314 -2.3608
 4039TIP3   OH212122   0.998   2.173   3.047 -0.0839  0.3688  0.5827
 4039TIP3    H112123   0.970   2.262   3.024 -0.8812  0.3467  1.3932
 4039TIP3    H212124   0.916   2.128   3.066  0.3468 -0.4537  0.5032
 4040TIP3   OH212125   5.962   4.773   2.360  0.1834 -0.5185 -0.1610
 4040TIP3    H112126   5.960   4.745   2.451  1.0259 -0.6057 -0.1595
 4040TIP3    H212127   5.945   4.694   2.309 -0.6884 -0.3962 -0.0820
 4041TIP3   OH212128   1.658   1.447   2.398  0.0162 -0.0126  0.2972
 4041TIP3    H112129   1.747   1.447   2.435  0.1460  0.0306 -0.0101
 4041TIP3    H212130   1.672   1.438   2.304 -0.3686 -1.4734  0.3670
 4042TIP3   OH212131   1.131   1.184   3.038  0.2859 -0.1981 -0.0392
 4042TIP3    H112132   1.035   1.179   3.037  0.2674 -0.1130  0.6246
 4042TIP3    H212133   1.150   1.276   3.020  0.2286 -0.1479  0.1484
 4043TIP3   OH212134   3.317   0.266   0.612  0.2045  0.0059  0.2271
 4043TIP3    H112135   3.291   0.350   0.649 -0.7211 -0.1913  0.0310
 4043TIP3    H212136   3.308   0.204   0.685 -1.7772 -0.4129 -0.3369
 4044TIP3   OH212137   5.945   1.619   0.329 -0.1626 -0.2154  1.3909
 4044TIP3    H112138   6.004   1.544   0.340 -0.6468 -0.9999 -0.7333
 4044TIP3    H212139   6.001   1.688   0.292 -0.6032 -1.2830 -1.6051
 4045TIP3   OH212140   2.933   0.310   0.733  0.3368  0.3093  0.3822
 4045TIP3    H112141   2.850   0.305   0.779 -0.7699  0.4147 -1.5276
 4045TIP3    H212142   2.967   0.221   0.735 -0.5500 -0.0485 -0.0870
 4046TIP3   OH212143   5.767   0.497   0.744  0.1462 -0.1543 -0.7898
 4046TIP3    H112144   5.717   0.497   0.662 -1.5123 -0.7237  0.1712
 4046TIP3    H212145   5.740   0.417   0.789  1.2252  0.0112  0.2055
 4047TIP3   OH212146   0.475   2.027   0.853 -0.2302 -0.0012  0.0973
 4047TIP3    H112147   0.527   1.951   0.878  2.0469  1.2845 -0.4349
 4047TIP3    H212148   0.454   2.012   0.761 -0.7902 -0.5134  0.3057
 4048TIP3   OH212149   6.317   4.918   1.433 -0.2895 -0.3177 -0.0592
 4048TIP3    H112150   6.252   4.887   1.370 -0.8313 -1.7604  1.1694
 4048TIP3    H212151   6.397   4.872   1.410 -0.7250 -1.5741  0.8543
 4049TIP3   OH212152   0.814   2.864   0.133  0.5702 -0.0087  0.8687
 4049TIP3    H112153   0.904   2.838   0.153  2.1866  2.2355 -2.4809
 4049TIP3    H212154   0.816   2.960   0.133 -1.8983  0.1106  0.8673
 4050TIP3   OH212155   2.974   4.256   1.351  0.3244 -0.6030 -0.3316
 4050TIP3    H112156   2.955   4.169   1.316  0.2987 -2.2129  3.2241
 4050TIP3    H212157   2.959   4.247   1.445 -3.2976  4.2471 -0.0789
 4051TIP3   OH212158   5.402   5.973   0.990 -0.0327 -0.0603 -0.1478
 4051TIP3    H112159   5.459   6.037   1.032 -2.5843  2.5853 -0.4086
 4051TIP3    H212160   5.462   5.906   0.956  2.6222  1.0997  1.8989
 4052TIP3   OH212161   1.416   5.502   2.230  0.2751 -0.4450  0.0376
 4052TIP3    H112162   1.354   5.464   2.169 -1.1339  1.9734 -0.1675
 4052TIP3    H212163   1.495   5.518   2.177 -0.0794 -0.5498 -0.5287
 4053TIP3   OH212164   1.200   5.630   2.387  0.0867 -0.1064  0.2042
 4053TIP3    H112165   1.129   5.676   2.341 -0.9708 -0.1637  1.7041
 4053TIP3    H212166   1.253   5.592   2.317 -1.6268 -0.4543 -0.9664
 4054TIP3   OH212167   4.705   2.378   3.949 -0.5198 -0.6081  0.0319
 4054TIP3    H112168   4.740   2.309   3.893 -0.8876  0.2572 -1.3316
 4054TIP3    H212169   4.682   2.334   4.030  0.3735 -1.8494 -0.3552
 4055TIP3   OH212170   0.688   4.467   2.235  0.4631 -0.0718  0.0907
 4055TIP3    H112171   0.670   4.398   2.299  1.4870 -1.0068 -0.6006
 4055TIP3    H212172   0.608   4.519   2.233  0.2980 -0.1918  1.9077
 4056TIP3   OH212173   3.903   1.630   0.226  0.2946  0.2036  0.2601
 4056TIP3    H112174   3.963   1.593   0.291  2.2911 -2.2160 -2.7314
 4056TIP3    H212175   3.946   1.710   0.196  2.0566 -1.3572 -1.6452
 4057TIP3   OH212176   4.240   1.825   0.593 -0.0544 -0.0779 -0.2656
 4057TIP3    H112177   4.265   1.738   0.561 -0.6327 -0.3980  0.1188
 4057TIP3    H212178   4.279   1.886   0.531  0.9073 -0.5829 -0.1806
 4058TIP3   OH212179   4.325   0.692   4.341 -0.3776  0.1277  0.7419
 4058TIP3    H112180   4.271   0.770   4.347 -0.2441  0.3358 -0.5328
 4058TIP3    H212181   4.361   0.694   4.252 -1.0293 -1.8132  0.3797
 4059TIP3   OH212182   3.017   0.450   4.736 -0.4186 -0.5786  0.1535
 4059TIP3    H112183   2.987   0.485   4.652 -0.7199 -1.4776 -0.1303
 4059TIP3    H212184   3.105   0.416   4.718  2.3168  4.6785  1.6487
 4060TIP3   OH212185   5.180   3.956   1.691 -0.1941  0.1546  0.3577
 4060TIP3    H112186   5.188   3.916   1.605  0.8009 -0.3817  0.6856
 4060TIP3    H212187   5.127   3.894   1.742  0.2427 -0.1279  0.4781
 4061TIP3   OH212188   1.311   1.986   2.356  0.2791  0.0676  0.0127
 4061TIP3    H112189   1.307   1.929   2.433  1.9031 -1.5718 -1.0594
 4061TIP3    H212190   1.220   1.996   2.329 -0.1184 -1.2067  0.8031
 4062TIP3   OH212191   4.065   4.830   2.876  0.3006 -0.0523  0.5199
 4062TIP3    H112192   4.145   4.780   2.859  1.0873  1.3184  0.0841
 4062TIP3    H212193   4.067   4.901   2.812 -1.9157 -0.6966 -0.3440
 4063TIP3   OH212194   0.833   3.097   3.842 -0.4225 -0.0205 -0.0611
 4063TIP3    H112195   0.918   3.134   3.820 -0.9611  0.8600 -0.7465
 4063TIP3    H212196   0.799   3.152   3.912 -1.9736  1.9857 -2.2383
 4064TIP3   OH212197   5.204   4.220   1.999  0.4105 -0.7457  0.2826
 4064TIP3    H112198   5.180   4.299   1.952  1.8482 -0.9922 -0.9331
 4064TIP3    H212199   5.211   4.248   2.091 -0.3358  0.2216  0.0635
 4065TIP3   OH212200   3.904   4.859   4.843 -0.6598 -0.0145 -0.2149
 4065TIP3    H112201   3.900   4.949   4.874  0.0525  0.1826 -0.6939
 4065TIP3    H212202   3.816   4.842   4.807 -1.8570 -0.5548  2.6550
 4066TIP3   OH212203   4.932   4.580   3.120 -0.5040 -0.1330 -0.1941
 4066TIP3    H112204   4.874   4.548   3.189 -1.1245 -2.4134 -1.6589
 4066TIP3    H212205   4.878   4.642   3.071 -0.3433  0.8306  0.8139
 4067TIP3   OH212206   5.795   0.826   0.173  0.0115  0.6930  0.1905
 4067TIP3    H112207   5.769   0.909   0.214 -0.6162  0.9033 -0.5919
 4067TIP3    H212208   5.845   0.780   0.240 -1.7516  0.6229  1.5333
 4068TIP3   OH212209   0.291   3.360   4.719  0.3282  0.1418 -0.0465
 4068TIP3    H112210   0.384   3.382   4.721  0.4638 -0.4530  0.7383
 4068TIP3    H212211   0.260   3.394   4.635  1.1850  0.6056 -0.1865
 4069TIP3   OH212212   1.044   0.635   0.276 -0.6925  0.0467  0.3380
 4069TIP3    H112213   0.971   0.604   0.329  0.2959 -1.0128  1.1273
 4069TIP3    H212214   1.100   0.558   0.264  0.4435  0.8919  0.0044
 4070TIP3   OH212215   0.358   4.284   0.395  0.1512  0.6562  0.8371
 4070TIP3    H112216   0.409   4.287   0.314 -0.7427  2.2189  0.2920
 4070TIP3    H212217   0.331   4.193   0.403  0.4896  0.4180 -0.4809
 4071TIP3   OH212218   0.971   0.173   3.429 -0.8122  0.3100 -0.0129
 4071TIP3    H112219   0.971   0.078   3.414 -1.4004  0.0999  1.1978
 4071TIP3    H212220   0.980   0.211   3.342 -1.5833 -0.8517 -0.6242
 4072TIP3   OH212221   1.396   1.160   3.049 -0.5346 -0.0480  0.0600
 4072TIP3    H112222   1.302   1.174   3.049 -0.2530  2.2891 -1.2567
 4072TIP3    H212223   1.416   1.129   2.960 -0.0356 -0.5584  0.3398
 4073TIP3   OH212224   0.713   2.798   1.624 -0.0391 -0.0923 -0.2177
 4073TIP3    H112225   0.769   2.821   1.551  0.8634 -0.7322  0.2573
 4073TIP3    H212226   0.626   2.790   1.586  0.1551  0.9888 -0.9487
 4074TIP3   OH212227   3.677   2.578   0.793 -0.8312 -0.1070  0.2692
 4074TIP3    H112228   3.619   2.603   0.865 -0.9481 -0.3640  0.2670
 4074TIP3    H212229   3.714   2.494   0.821 -1.3262 -0.5048 -0.2238
 4075TIP3   OH212230   1.223   1.434   2.978  0.2442  0.2726  0.5968
 4075TIP3    H112231   1.317   1.452   2.981  0.0943  1.3434 -0.5194
 4075TIP3    H212232   1.182   1.516   3.005 -0.4053  0.8488 -1.9012
 4076TIP3   OH212233   2.917   4.848   4.597 -0.2534  0.2272 -0.7634
 4076TIP3    H112234   2.963   4.890   4.525 -0.2657  0.7485 -0.4706
 4076TIP3    H212235   2.930   4.906   4.672  1.2762 -1.1788  0.1248
 4077TIP3   OH212236   0.491   3.112   3.393 -0.4264 -0.1030 -0.0548
 4077TIP3    H112237   0.489   3.108   3.489 -0.3678 -0.9859 -0.0816
 4077TIP3    H212238   0.580   3.086   3.370 -0.4731 -0.0001 -0.3568
 4078TIP3   OH212239   5.070   2.096   0.388  0.0842  0.3064  0.1244
 4078TIP3    H112240   5.016   2.149   0.329  0.7176 -0.7868 -1.5039
 4078TIP3    H212241   5.160   2.117   0.364  0.3474 -1.3187 -0.4085
 4079TIP3   OH212242   4.821   4.672   4.642  0.1567  0.0862  0.1779
 4079TIP3    H112243   4.757   4.706   4.705 -0.2603 -0.4195  0.0305
 4079TIP3    H212244   4.828   4.579   4.662  0.1201 -0.0502 -0.4344
 4080TIP3   OH212245   5.419   5.888   1.940  0.2786 -0.6358 -0.6611
 4080TIP3    H112246   5.426   5.821   2.008 -1.2405 -0.6396 -0.4738
 4080TIP3    H212247   5.445   5.969   1.985 -2.5267 -0.2987  0.5553
 4081TIP3   OH212248   2.802   0.166   1.922 -0.4727 -0.1382  0.3466
 4081TIP3    H112249   2.848   0.249   1.928 -0.3980 -0.1833  0.3982
 4081TIP3    H212250   2.743   0.166   1.997  0.3601 -0.6387  1.0205
 4082TIP3   OH212251   0.765   4.965   3.994 -0.3303 -0.2820  0.5291
 4082TIP3    H112252   0.851   5.005   3.983 -0.0100 -0.6131  1.6802
 4082TIP3    H212253   0.704   5.027   3.953  0.3732  0.2941  0.3296
 4083TIP3   OH212254   0.114   1.468   0.392 -0.6685  0.6569  0.0403
 4083TIP3    H112255   0.104   1.383   0.349 -1.0756  0.4311  0.5679
 4083TIP3    H212256   0.049   1.524   0.351 -0.4462  0.6938 -0.2608
 4084TIP3   OH212257   3.905   5.714   0.132  0.5300  0.5762 -0.4599
 4084TIP3    H112258   3.810   5.705   0.127  0.6382 -0.6111 -0.7398
 4084TIP3    H212259   3.931   5.652   0.200  1.0745  1.1266 -0.1613
 4085TIP3   OH212260   1.248   1.819   3.536  0.7970  0.1403 -0.6603
 4085TIP3    H112261   1.224   1.740   3.585 -0.3556  1.6278  1.3631
 4085TIP3    H212262   1.341   1.809   3.519  1.8900  0.3867  3.8507
 4086TIP3   OH212263   3.639   5.881   1.440 -0.2261  0.0802 -0.2774
 4086TIP3    H112264   3.552   5.870   1.400 -0.8892  0.2619  1.0438
 4086TIP3    H212265   3.699   5.888   1.366 -1.3174 -0.2097 -1.2233
 4087TIP3   OH212266   3.256   5.510   1.913  0.2174 -0.6523 -0.0658
 4087TIP3    H112267   3.205   5.526   1.834 -2.3748 -0.7747  1.4718
 4087TIP3    H212268   3.273   5.597   1.949  0.2321 -0.6430 -0.0954
 4088TIP3   OH212269   2.183   3.251   0.956 -0.1261  0.1276  0.5395
 4088TIP3    H112270   2.093   3.230   0.981  0.0319 -2.1680 -0.5195
 4088TIP3    H212271   2.209   3.178   0.900  1.8357  1.5905 -0.5636
 4089TIP3   OH212272   2.988   3.395   0.265  0.1718 -0.4066 -0.2397
 4089TIP3    H112273   3.022   3.466   0.319 -0.8721  0.6548 -0.9374
 4089TIP3    H212274   3.046   3.392   0.189 -0.1500  0.1268 -0.5108
 4090TIP3   OH212275   6.054   0.083   2.922  0.0457  0.1267  0.4866
 4090TIP3    H112276   5.982   0.146   2.917  0.5669  0.6592 -0.8439
 4090TIP3    H212277   6.124   0.123   2.869  0.0397 -2.0229 -1.2566
 4091TIP3   OH212278   4.842   4.513   4.172 -0.5571  0.0698  0.1250
 4091TIP3    H112279   4.752   4.499   4.202 -0.1091 -1.8740  0.6952
 4091TIP3    H212280   4.892   4.525   4.253 -0.0697 -0.5014 -0.0858
 4092TIP3   OH212281   6.183   0.912   1.252  0.9346  0.0860 -0.5553
 4092TIP3    H112282   6.169   0.982   1.316  2.2031 -0.3704  0.2653
 4092TIP3    H212283   6.277   0.917   1.232  0.8376 -0.7289 -1.2593
 4093TIP3   OH212284   0.889   2.609   5.097 -0.1107  0.4144  0.3494
 4093TIP3    H112285   0.917   2.618   5.188  0.4104 -2.2990  0.5326
 4093TIP3    H212286   0.971   2.596   5.048 -0.4126  1.5228 -0.4779
 4094TIP3   OH212287   4.249   4.816   4.290  0.5195 -0.3729 -0.0803
 4094TIP3    H112288   4.237   4.904   4.327  0.3948 -0.5079  0.2014
 4094TIP3    H212289   4.167   4.771   4.309 -0.8850  0.5506 -3.3420
 4095TIP3   OH212290   6.003   5.609   5.100  0.0121  0.8686  0.2311
 4095TIP3    H112291   5.909   5.598   5.087  0.1261  0.9914 -0.7128
 4095TIP3    H212292   6.022   5.554   5.176 -0.8217  0.8600  0.4491
 4096TIP3   OH212293   3.605   5.517   2.607 -0.0129 -0.1239  0.7762
 4096TIP3    H112294   3.552   5.594   2.584  0.4990 -0.2243 -0.8660
 4096TIP3    H212295   3.664   5.549   2.676  0.0432  0.9054  0.2786
 4097TIP3   OH212296   5.298   4.271   2.731 -0.7188 -0.1735  0.5269
 4097TIP3    H112297   5.246   4.196   2.700 -0.7858  0.0720  0.0404
 4097TIP3    H212298   5.251   4.301   2.809 -0.1654 -1.2307  1.3038
 4098TIP3   OH212299   2.803   2.788   4.849  0.7034 -0.0200  0.1392
 4098TIP3    H112300   2.785   2.820   4.761  1.1438 -2.3196 -0.8749
 4098TIP3    H212301   2.792   2.864   4.905 -2.8726  0.8622 -1.4715
 4099TIP3   OH212302   5.196   5.603   1.431  0.5986 -0.1221 -0.5463
 4099TIP3    H112303   5.165   5.570   1.347 -2.0421 -0.3558  0.4472
 4099TIP3    H212304   5.154   5.547   1.496 -0.6338  2.4954  1.0569
 4100TIP3   OH212305   3.940   1.941   1.386  0.2226  0.1257  0.0252
 4100TIP3    H112306   3.978   1.990   1.459 -0.0174 -0.3371  0.4611
 4100TIP3    H212307   3.942   1.850   1.413  1.0279 -0.1608 -0.9544
 4101TIP3   OH212308   1.208   5.510   4.541 -0.0586  0.4334 -0.6464
 4101TIP3    H112309   1.121   5.530   4.506  0.6603  0.2711 -2.6661
 4101TIP3    H212310   1.241   5.594   4.572 -0.6884  0.6135 -0.4515
 4102TIP3   OH212311   4.866   4.945   0.733  0.2038  0.2361 -0.2709
 4102TIP3    H112312   4.876   4.895   0.814 -0.3294 -0.0065 -0.3484
 4102TIP3    H212313   4.940   4.918   0.679 -0.6530 -1.2793 -0.7274
 4103TIP3   OH212314   2.882   5.740   1.851  0.8320 -0.6566  1.2465
 4103TIP3    H112315   2.788   5.754   1.836  0.6516 -2.7613  0.2105
 4103TIP3    H212316   2.924   5.775   1.773  0.7590 -1.4791  0.8391
 4104TIP3   OH212317   0.359   4.037   2.740  0.2517  0.2134 -0.2623
 4104TIP3    H112318   0.448   4.046   2.772  1.5235 -1.6053 -2.9381
 4104TIP3    H212319   0.337   4.123   2.704  2.4508 -0.1784 -2.8944
 4105TIP3   OH212320   1.708   2.317   4.788  0.6957  0.0112  0.2008
 4105TIP3    H112321   1.766   2.368   4.731  0.5277 -0.1999 -0.1650
 4105TIP3    H212322   1.622   2.323   4.746  0.4422  0.3424  0.7508
 4106TIP3   OH212323   2.101   3.935   4.261  0.1661  0.2385 -0.5752
 4106TIP3    H112324   2.107   3.839   4.256 -0.5114  0.1895 -0.5329
 4106TIP3    H212325   2.042   3.958   4.189 -0.5553  0.5247  0.0982
 4107TIP3   OH212326   5.635   4.127   0.332  0.2677  0.5279  0.4858
 4107TIP3    H112327   5.661   4.053   0.387  0.4173  0.2711  0.0725
 4107TIP3    H212328   5.663   4.102   0.244 -1.3075  0.2658  0.0343
 4108TIP3   OH212329   2.901   4.028   0.595  0.4860  0.0420  0.2655
 4108TIP3    H112330   2.832   3.996   0.538  0.4647 -1.3376  1.0258
 4108TIP3    H212331   2.921   4.116   0.562 -1.0196  0.1281 -0.4910
 4109TIP3   OH212332   4.465   4.548   1.858  0.2140 -0.2498 -0.0699
 4109TIP3    H112333   4.392   4.556   1.796 -0.9053 -0.3498  1.1956
 4109TIP3    H212334   4.427   4.503   1.934  2.0033 -1.8045 -0.0307
 4110TIP3   OH212335   1.623   2.902   3.072 -0.5491  0.4435  0.2334
 4110TIP3    H112336   1.619   2.823   3.124 -0.9061  0.9035  0.9196
 4110TIP3    H212337   1.558   2.889   3.002 -0.5557  0.1099  0.3010
 4111TIP3   OH212338   5.583   2.156   0.732 -0.2933  1.0183  0.0037
 4111TIP3    H112339   5.660   2.141   0.787 -0.8449 -0.0281  0.5129
 4111TIP3    H212340   5.600   2.241   0.690  1.3302  0.6020 -0.2505
 4112TIP3   OH212341   1.554   2.211   1.197  0.8851 -0.2111  0.0304
 4112TIP3    H112342   1.527   2.124   1.227 -2.5302 -1.0679 -4.3962
 4112TIP3    H212343   1.516   2.271   1.261  1.0302 -1.8529  1.7505
 4113TIP3   OH212344   2.153   0.088   3.739 -0.0103  0.3453 -0.0301
 4113TIP3    H112345   2.059   0.073   3.749 -0.0424  0.5666  0.0145
 4113TIP3    H212346   2.194   0.033   3.806 -0.0204 -0.8424 -0.9650
 4114TIP3   OH212347   0.299   5.527   3.873  0.0090 -0.3474 -0.5895
 4114TIP3    H112348   0.262   5.525   3.785  1.0506  0.5140 -1.0664
 4114TIP3    H212349   0.393   5.539   3.860  0.2648 -0.7972  0.6320
 4115TIP3   OH212350   1.261   4.691   1.494  0.7499  0.4271  1.1229
 4115TIP3    H112351   1.237   4.711   1.403  0.2075  0.7139  1.3264
 4115TIP3    H212352   1.349   4.653   1.488  1.3606  1.8447  0.6120
 4116TIP3   OH212353   2.776   3.535   1.433 -0.0188  0.4378 -0.5497
 4116TIP3    H112354   2.753   3.447   1.402  0.0950  0.5753 -1.0194
 4116TIP3    H212355   2.844   3.519   1.498  1.4569  0.3048 -2.0804
 4117TIP3   OH212356   1.137   0.474   0.978  0.1210 -0.0277 -0.5267
 4117TIP3    H112357   1.215   0.481   1.032 -1.1506 -0.1012  1.3936
 4117TIP3    H212358   1.158   0.405   0.915  0.8104 -1.6873  1.4066
 4118TIP3   OH212359   3.677   3.183   3.883  0.3317 -0.2355  0.5388
 4118TIP3    H112360   3.765   3.221   3.876  1.2868 -1.6851  3.3428
 4118TIP3    H212361   3.674   3.117   3.814  2.0305 -1.1589  1.2995
 4119TIP3   OH212362   0.189   0.721   4.002  0.5426  0.0338 -0.0401
 4119TIP3    H112363   0.258   0.785   4.020  0.4047  0.6671 -1.6056
 4119TIP3    H212364   0.124   0.769   3.951  1.1745 -1.6876 -2.6819
 4120TIP3   OH212365   2.913   0.322   1.568  0.2328 -0.6208  0.2873
 4120TIP3    H112366   2.945   0.408   1.597 -0.4846 -0.3342  0.2371
 4120TIP3    H212367   2.982   0.290   1.510  1.8331 -1.3232  2.4672
 4121TIP3   OH212368   0.263   1.232   3.614 -0.0818 -0.5006  0.1154
 4121TIP3    H112369   0.178   1.275   3.611 -0.1844 -0.7498 -0.6870
 4121TIP3    H212370   0.243   1.144   3.647 -0.1831 -0.6733 -0.4063
 4122TIP3   OH212371   4.524   3.010   4.763 -0.4288  0.0817  0.0349
 4122TIP3    H112372   4.537   3.084   4.822 -1.3081  0.2907 -0.0269
 4122TIP3    H212373   4.480   2.944   4.817 -2.0002  0.5868 -0.5862
 4123TIP3   OH212374   1.021   4.703   2.187  0.0546 -0.3313  0.2843
 4123TIP3    H112375   1.103   4.751   2.176  0.3143 -1.2948 -2.7878
 4123TIP3    H212376   0.952   4.767   2.168  0.2137 -0.1509  0.3149
 4124TIP3   OH212377   5.665   1.717   0.699 -0.3206  0.3723  0.6903
 4124TIP3    H112378   5.599   1.701   0.631 -0.0553  1.3496  0.1935
 4124TIP3    H212379   5.726   1.779   0.660  1.2101 -0.8877  0.9656
 4125TIP3   OH212380   1.141   0.916   2.870 -0.0698 -0.2619 -0.1600
 4125TIP3    H112381   1.160   0.839   2.923  2.2264 -0.0590 -0.5704
 4125TIP3    H212382   1.166   0.990   2.926  0.4712  0.0346 -0.7783
 4126TIP3   OH212383   3.196   4.017   4.941  0.1200  0.2504  1.0089
 4126TIP3    H112384   3.265   4.032   4.876  0.9132 -1.5501  1.3539
 4126TIP3    H212385   3.235   4.045   5.024  0.2449 -0.2868  1.1324
 4127TIP3   OH212386   3.220   2.807   1.218 -0.7105 -0.6643 -0.3044
 4127TIP3    H112387   3.234   2.820   1.124 -0.0877  1.3360  0.0134
 4127TIP3    H212388   3.137   2.852   1.236 -0.6589 -0.7510  0.1534
 4128TIP3   OH212389   1.323   1.818   0.199 -0.6428 -0.1037  0.1370
 4128TIP3    H112390   1.307   1.725   0.217 -1.3859 -0.1639 -0.7289
 4128TIP3    H212391   1.285   1.864   0.274  0.8999 -0.5282  1.2247
 4129TIP3   OH212392   2.431   4.675   1.092  0.7741 -0.0593 -0.0025
 4129TIP3    H112393   2.504   4.677   1.030  0.6275  0.2499 -0.1680
 4129TIP3    H212394   2.439   4.758   1.139  0.8695 -0.2831  0.3743
 4130TIP3   OH212395   4.546   1.230   0.125 -0.4273 -0.0494  0.6796
 4130TIP3    H112396   4.562   1.152   0.072 -0.3722  0.0217  0.5918
 4130TIP3    H212397   4.452   1.248   0.115  0.3039  2.7701 -3.3082
 4131TIP3   OH212398   2.003   1.530   0.526 -0.6572  0.5994  0.0018
 4131TIP3    H112399   2.075   1.513   0.465 -1.0006 -0.3825 -0.1472
 4131TIP3    H212400   1.924   1.512   0.476 -0.9861  1.0057  0.3679
 4132TIP3   OH212401   2.115   4.165   1.477 -0.5784  0.2940  0.1634
 4132TIP3    H112402   2.059   4.094   1.507 -0.7778  0.9586  1.4300
 4132TIP3    H212403   2.065   4.207   1.407 -2.0634  1.3720  1.7996
 4133TIP3   OH212404   4.820   5.267   0.746  0.4509  0.7427 -0.7271
 4133TIP3    H112405   4.823   5.360   0.723 -1.4516  1.3820  1.2347
 4133TIP3    H212406   4.730   5.240   0.729  0.3927 -0.1320  0.7130
 4134TIP3   OH212407   4.343   1.061   1.560  0.0035 -0.3858 -0.1312
 4134TIP3    H112408   4.437   1.072   1.577  0.1603 -1.5328 -0.1381
 4134TIP3    H212409   4.320   1.134   1.504  0.7885  0.1768  0.2507
 4135TIP3   OH212410   1.272   3.616   4.256  0.1274  0.2619  0.6009
 4135TIP3    H112411   1.196   3.639   4.308 -0.7853  2.0525 -1.4002
 4135TIP3    H212412   1.237   3.595   4.170  1.8632  0.9393 -0.3150
 4136TIP3   OH212413   5.199   4.595   1.618 -0.1366  0.5646  0.0497
 4136TIP3    H112414   5.171   4.609   1.528 -0.5498  0.0984  0.1039
 4136TIP3    H212415   5.160   4.511   1.643  0.9015  0.1295  0.2902
 4137TIP3   OH212416   0.777   5.346   0.426 -0.4034  0.0243  0.6979
 4137TIP3    H112417   0.867   5.346   0.394 -0.3332 -1.5986  0.7970
 4137TIP3    H212418   0.772   5.268   0.481 -1.0540  1.6742  3.1288
 4138TIP3   OH212419   3.208   1.109   2.492 -0.2658  0.0520 -0.9137
 4138TIP3    H112420   3.290   1.117   2.541 -0.1551  1.0793 -1.2430
 4138TIP3    H212421   3.229   1.051   2.419 -0.0505 -0.3295 -0.5531
 4139TIP3   OH212422   3.819   4.317   2.692  0.0925 -0.0149 -0.1635
 4139TIP3    H112423   3.806   4.233   2.647 -0.3823  0.0349 -0.1249
 4139TIP3    H212424   3.910   4.340   2.674  0.6005 -1.1510  0.8697
 4140TIP3   OH212425   1.490   2.114   1.839 -0.1830 -0.4121 -0.0022
 4140TIP3    H112426   1.423   2.108   1.772  0.6126 -1.2622 -0.7441
 4140TIP3    H212427   1.509   2.208   1.846 -1.7396 -0.1073  0.5526
 4141TIP3   OH212428   3.160   5.289   4.373  0.3328 -0.1736  0.1343
 4141TIP3    H112429   3.214   5.294   4.294 -0.8239  2.8197 -0.5891
 4141TIP3    H212430   3.219   5.315   4.444  0.6429 -0.0702 -0.1569
 4142TIP3   OH212431   6.060   5.566   1.170  0.2199  0.7197  0.6668
 4142TIP3    H112432   6.020   5.565   1.257 -0.0262  0.1021  0.5471
 4142TIP3    H212433   5.993   5.604   1.113  0.7251  2.0368  0.8995
 4143TIP3   OH212434   4.777   2.550   0.365 -0.0686  0.1101  0.4404
 4143TIP3    H112435   4.721   2.523   0.437 -1.2835 -0.9029 -0.8316
 4143TIP3    H212436   4.862   2.511   0.385 -0.3617 -0.0892  1.3467
 4144TIP3   OH212437   3.847   2.719   0.612  0.0078 -0.2171  0.6611
 4144TIP3    H112438   3.778   2.681   0.666 -0.4856 -0.3795 -0.0646
 4144TIP3    H212439   3.811   2.720   0.523  0.7228  0.2252  0.3593
 4145TIP3   OH212440   5.462   4.199   0.731 -0.0120  0.1250  0.5841
 4145TIP3    H112441   5.374   4.173   0.760 -0.9114  0.4140 -1.6629
 4145TIP3    H212442   5.466   4.170   0.640  1.5655  1.6707  0.1202
 4146TIP3   OH212443   1.578   2.533   0.956 -0.5308 -0.1842 -0.1543
 4146TIP3    H112444   1.627   2.609   0.925 -0.4797  0.3267  1.1138
 4146TIP3    H212445   1.605   2.523   1.047  0.5484 -2.6163 -0.6853
 4147TIP3   OH212446   3.562   1.957   3.581 -0.7232 -0.2739 -0.0879
 4147TIP3    H112447   3.657   1.967   3.591 -0.3827 -3.5010  0.8428
 4147TIP3    H212448   3.549   1.863   3.571 -3.6904  0.2590 -2.3351
 4148TIP3   OH212449   0.430   5.432   2.592 -0.3844  0.2573 -0.0723
 4148TIP3    H112450   0.375   5.354   2.600 -1.3904  0.9391 -0.1544
 4148TIP3    H212451   0.506   5.414   2.647 -0.0277 -1.2599 -1.0136
 4149TIP3   OH212452   1.915   4.918   2.438 -0.5142 -0.2936  0.1196
 4149TIP3    H112453   1.997   4.939   2.394  0.0460  0.0213  1.2785
 4149TIP3    H212454   1.851   4.977   2.400  0.2086  0.7915  0.5357
 4150TIP3   OH212455   2.198   5.861   2.262  0.1595 -0.0491 -0.1146
 4150TIP3    H112456   2.269   5.797   2.261 -0.0789 -0.3059 -0.5837
 4150TIP3    H212457   2.233   5.934   2.312  1.1969  0.3273 -1.3497
 4151TIP3   OH212458   4.034   3.463   4.277  0.2409  0.3943 -0.1059
 4151TIP3    H112459   4.066   3.377   4.304 -0.8732 -0.2831 -0.8305
 4151TIP3    H212460   4.053   3.467   4.183  0.1873  0.8930 -0.0998
 4152TIP3   OH212461   3.610   4.660   0.892  0.1855  0.2574 -0.0758
 4152TIP3    H112462   3.566   4.575   0.891  0.8433 -0.0925 -0.1403
 4152TIP3    H212463   3.702   4.639   0.908 -0.0217  1.1358  2.6932
 4153TIP3   OH212464   5.734   3.453   0.524  0.5329 -0.3076  0.1452
 4153TIP3    H112465   5.685   3.383   0.567  0.2722 -1.0907 -1.3828
 4153TIP3    H212466   5.799   3.408   0.470  0.9153  0.6491 -0.2181
 4154TIP3   OH212467   1.024   1.655   1.105 -0.1258 -0.2439  0.0907
 4154TIP3    H112468   1.113   1.675   1.074 -0.4839  0.2851 -0.6146
 4154TIP3    H212469   0.984   1.606   1.033 -0.0099 -1.5675  0.8997
 4155TIP3   OH212470   6.194   1.416   3.332 -0.1697 -0.4437 -0.1427
 4155TIP3    H112471   6.253   1.478   3.374 -0.4081  0.0721 -0.5631
 4155TIP3    H212472   6.239   1.331   3.341 -0.2614 -0.3657  1.2030
 4156TIP3   OH212473   2.178   3.210   0.542 -0.2227 -0.2584  0.2256
 4156TIP3    H112474   2.235   3.281   0.513  1.4089 -1.1137  1.1385
 4156TIP3    H212475   2.180   3.146   0.471  2.4909 -1.6343  1.3537
 4157TIP3   OH212476   0.887   1.282   2.413 -0.2936 -0.2143  0.5048
 4157TIP3    H112477   0.924   1.261   2.327  0.2116  1.6458  0.2103
 4157TIP3    H212478   0.963   1.306   2.467 -0.7830  0.7305  0.7979
 4158TIP3   OH212479   6.121   2.925   2.729  0.0185 -0.9262  0.3317
 4158TIP3    H112480   6.071   2.858   2.683 -5.2375  0.8776  2.6419
 4158TIP3    H212481   6.130   2.890   2.818  1.7648 -0.5431  0.3423
 4159TIP3   OH212482   0.177   3.028   1.472 -0.1581  0.4662 -0.1696
 4159TIP3    H112483   0.220   3.016   1.556  1.5331 -0.0321 -1.0562
 4159TIP3    H212484   0.175   3.123   1.459 -0.0576  0.5274  0.2505
 4160TIP3   OH212485   5.587   5.990   3.907  0.7150 -0.0046 -0.2734
 4160TIP3    H112486   5.531   5.951   3.840  2.2122 -1.5274 -0.7054
 4160TIP3    H212487   5.550   5.960   3.990  1.0478 -1.2948 -0.5652
 4161TIP3   OH212488   0.944   2.127   0.641  0.8853 -0.3526  0.2167
 4161TIP3    H112489   0.885   2.200   0.660  2.3376  1.0536 -0.4900
 4161TIP3    H212490   1.029   2.156   0.672  1.7839 -1.1278 -1.4145
 4162TIP3   OH212491   2.627   5.738   2.549 -0.1851 -0.0832 -0.5619
 4162TIP3    H112492   2.696   5.794   2.514  0.6665  1.0899  2.6552
 4162TIP3    H212493   2.650   5.727   2.642 -1.8573 -3.4829 -0.3990
 4163TIP3   OH212494   5.983   2.663   2.089  1.1020  0.3366  0.0579
 4163TIP3    H112495   6.010   2.633   2.003 -0.7476 -1.3890 -0.0124
 4163TIP3    H212496   5.887   2.666   2.085  1.0258  1.5072  1.6481
 4164TIP3   OH212497   0.852   5.641   1.400 -0.6783  0.6951  0.3277
 4164TIP3    H112498   0.774   5.626   1.346  0.2351 -0.1670 -0.7989
 4164TIP3    H212499   0.817   5.664   1.486 -2.1730  0.7326 -0.2585
 4165TIP3   OH212500   5.817   5.553   3.342  0.3833  0.2193  0.9132
 4165TIP3    H112501   5.815   5.617   3.413  1.1075  0.7853  0.4426
 4165TIP3    H212502   5.902   5.566   3.301 -0.3244  0.4510 -0.5527
 4166TIP3   OH212503   1.739   2.881   1.888 -0.3532  0.0134 -0.1189
 4166TIP3    H112504   1.719   2.803   1.940  0.0431  0.8783  1.4244
 4166TIP3    H212505   1.829   2.867   1.857  0.0051  0.1679  0.8085
 4167TIP3   OH212506   1.344   3.776   3.652  0.6044  0.0262  0.1158
 4167TIP3    H112507   1.279   3.845   3.664 -0.6597 -1.0333 -0.3961
 4167TIP3    H212508   1.410   3.793   3.720 -0.7279  0.5584  1.3257
 4168TIP3   OH212509   5.615   0.803   3.723 -0.0151 -0.2295  0.1275
 4168TIP3    H112510   5.533   0.802   3.674 -0.4952  1.0886  0.8437
 4168TIP3    H212511   5.589   0.824   3.813  1.0192 -0.8339  0.5857
 4169TIP3   OH212512   1.137   5.454   3.677  0.1717  0.7811 -0.2760
 4169TIP3    H112513   1.055   5.484   3.716 -0.4120 -0.1515 -0.7518
 4169TIP3    H212514   1.120   5.363   3.651  2.0214 -0.2064  1.6023
 4170TIP3   OH212515   5.765   2.310   0.159  0.3276 -0.3376 -0.2621
 4170TIP3    H112516   5.837   2.247   0.159 -1.1246 -2.1290 -1.2369
 4170TIP3    H212517   5.805   2.393   0.134  2.3208 -0.8577  0.9833
 4171TIP3   OH212518   1.160   4.003   3.752 -0.0090 -0.4678  0.0923
 4171TIP3    H112519   1.076   3.991   3.707 -1.1551 -2.5463  2.4939
 4171TIP3    H212520   1.171   4.098   3.757 -2.8174 -0.0662  0.5948
 4172TIP3   OH212521   1.432   1.264   0.809  0.1722 -0.5250 -0.0595
 4172TIP3    H112522   1.371   1.337   0.821  0.5907 -0.2759  0.5910
 4172TIP3    H212523   1.470   1.278   0.723  2.2332  1.5424  1.0904
 4173TIP3   OH212524   4.328   5.212   3.368 -0.8910  0.0226 -0.2412
 4173TIP3    H112525   4.405   5.163   3.342 -1.0133 -0.4916  0.3476
 4173TIP3    H212526   4.344   5.236   3.460 -1.8378 -0.9054  0.1869
 4174TIP3   OH212527   2.390   5.777   0.827  0.3005 -0.1575  0.5682
 4174TIP3    H112528   2.327   5.704   0.828 -0.3944  0.4225  0.0182
 4174TIP3    H212529   2.359   5.835   0.758  2.8131 -1.0158 -1.4207
 4175TIP3   OH212530   5.831   0.928   1.042 -0.1243  0.3158 -0.9712
 4175TIP3    H112531   5.925   0.942   1.058 -0.0420  0.9014 -1.8991
 4175TIP3    H212532   5.814   0.971   0.959 -0.6607 -2.0811 -2.1910
 4176TIP3   OH212533   0.096   1.438   0.041  0.3309  0.2807 -0.5162
 4176TIP3    H112534   0.181   1.460   0.002 -0.6921  1.4173 -2.2942
 4176TIP3    H212535   0.043   1.412  -0.034 -0.5804 -1.5805  0.7137
 4177TIP3   OH212536   6.355   4.618   1.165  0.0720 -0.0012 -0.5602
 4177TIP3    H112537   6.418   4.551   1.190 -0.1923 -0.4321 -1.0396
 4177TIP3    H212538   6.286   4.612   1.230  0.5653  0.5426  0.0292
 4178TIP3   OH212539   2.852   3.076   4.904 -0.4568  0.1047 -0.6584
 4178TIP3    H112540   2.770   3.084   4.857 -0.6916  1.6591 -0.0358
 4178TIP3    H212541   2.831   3.100   4.995  0.5464 -0.0917 -0.3564
 4179TIP3   OH212542   1.790   2.871   4.848  0.3533  0.1554 -0.0709
 4179TIP3    H112543   1.865   2.931   4.844 -0.1929  0.8510 -0.0110
 4179TIP3    H212544   1.813   2.810   4.918  1.0970  0.0404 -0.4069
 4180TIP3   OH212545   3.076   4.294   5.118  0.6019  0.6820 -0.5781
 4180TIP3    H112546   3.110   4.332   5.036  0.0001  2.3473 -0.0881
 4180TIP3    H212547   3.154   4.257   5.160  0.8798 -0.4727 -2.0049
 4181TIP3   OH212548   1.295   0.888   4.900 -0.1640 -0.0895  0.5492
 4181TIP3    H112549   1.309   0.912   4.809 -0.4584  0.3544  0.6203
 4181TIP3    H212550   1.327   0.797   4.906  1.4580  0.4357  0.4099
 4182TIP3   OH212551   2.296   1.592   3.441 -0.2287  0.2398 -0.1000
 4182TIP3    H112552   2.340   1.663   3.487 -0.9505 -0.1778  1.3204
 4182TIP3    H212553   2.255   1.633   3.365 -1.1989  1.4859  1.0555
 4183TIP3   OH212554   4.605   2.478   0.642 -0.1124  0.4931  0.6891
 4183TIP3    H112555   4.554   2.543   0.690  2.1313  1.9900  1.2059
 4183TIP3    H212556   4.673   2.450   0.704 -0.1747 -1.3496  0.0050
 4184TIP3   OH212557   5.799   5.102   3.681  0.0133 -0.3964 -0.2332
 4184TIP3    H112558   5.832   5.185   3.646 -2.8647  0.8594 -0.1840
 4184TIP3    H212559   5.792   5.117   3.775 -0.7625 -0.6009 -0.2571
 4185TIP3   OH212560   2.952   2.687   3.761  0.2555 -0.2719  0.1995
 4185TIP3    H112561   3.028   2.643   3.723  0.9665 -0.5178  1.8132
 4185TIP3    H212562   2.965   2.779   3.741 -0.0513 -0.4981 -1.1918
 4186TIP3   OH212563   0.085   5.358   1.042 -0.2662 -0.2719 -0.5120
 4186TIP3    H112564   0.146   5.415   1.089 -0.1676 -1.3975  0.7961
 4186TIP3    H212565   0.009   5.352   1.101 -1.1154  0.0919 -1.5429
 4187TIP3   OH212566   3.477   0.602   2.786 -0.3930  0.0738 -0.3755
 4187TIP3    H112567   3.502   0.515   2.817  1.1876 -0.1504 -2.1431
 4187TIP3    H212568   3.506   0.605   2.695 -0.2551  2.5313 -0.3176
 4188TIP3   OH212569   2.637   5.103   4.432 -0.1874  0.4053 -0.0200
 4188TIP3    H112570   2.672   5.043   4.366 -2.2721  0.1828 -0.9882
 4188TIP3    H212571   2.606   5.179   4.383  0.3076  1.2823  0.9689
 4189TIP3   OH212572   5.516   5.444   1.510 -0.1227  0.3774 -0.0609
 4189TIP3    H112573   5.519   5.519   1.451 -1.1313 -0.6727 -1.5247
 4189TIP3    H212574   5.423   5.419   1.511 -0.0588  0.1215  1.6744
 4190TIP3   OH212575   1.857   0.345   4.735 -0.3732  0.0913  0.3180
 4190TIP3    H112576   1.833   0.267   4.786 -1.4277  1.4743  2.0708
 4190TIP3    H212577   1.775   0.394   4.728  0.0389  0.5585 -1.6991
 4191TIP3   OH212578   5.077   1.473   1.735 -0.1889 -0.0066  0.3624
 4191TIP3    H112579   5.048   1.455   1.645  1.1661  0.9958 -0.2999
 4191TIP3    H212580   5.082   1.568   1.740  1.1234 -0.0917  1.0552
 4192TIP3   OH212581   3.929   0.541   0.476  0.0933 -0.2696 -0.1803
 4192TIP3    H112582   3.877   0.619   0.497 -0.2871 -0.0559 -1.7971
 4192TIP3    H212583   3.991   0.534   0.548 -0.3228  1.1234  0.3532
 4193TIP3   OH212584   1.160   1.163   3.351 -0.1877  0.5786  0.0183
 4193TIP3    H112585   1.251   1.134   3.344 -0.7546 -1.3499 -0.0819
 4193TIP3    H212586   1.155   1.242   3.298  1.3243  0.4826 -0.3108
 4194TIP3   OH212587   2.594   0.270   2.087 -0.3125 -0.1065  0.0771
 4194TIP3    H112588   2.569   0.221   2.166 -2.5036 -0.1946 -0.5837
 4194TIP3    H212589   2.555   0.357   2.100  2.1207  1.0132  0.4947
 4195TIP3   OH212590   0.778   2.531   2.470 -0.3468 -0.1992  0.1635
 4195TIP3    H112591   0.686   2.539   2.444 -0.2699  1.1933  0.2600
 4195TIP3    H212592   0.812   2.620   2.466  0.8323 -0.6008  0.7792
 4196TIP3   OH212593   2.600   3.998   0.023 -0.0116  0.3947  0.0638
 4196TIP3    H112594   2.680   3.992   0.075 -1.0871 -0.0754  1.7595
 4196TIP3    H212595   2.563   4.083   0.047  0.8638  1.4643 -2.1397
 4197TIP3   OH212596   4.263   2.910   0.570 -0.4142 -0.6462 -0.0794
 4197TIP3    H112597   4.247   2.913   0.476 -0.4765  0.2034 -0.0497
 4197TIP3    H212598   4.213   2.984   0.606 -1.1562 -1.5053  0.7435
 4198TIP3   OH212599   0.498   0.559   2.865  0.4230 -0.6101  0.4138
 4198TIP3    H112600   0.509   0.490   2.801 -1.5971 -0.5231 -0.0793
 4198TIP3    H212601   0.575   0.615   2.853  1.4257 -2.0324 -0.0574
 4199TIP3   OH212602   0.721   1.775   0.662 -0.0457 -0.0595  0.0237
 4199TIP3    H112603   0.701   1.769   0.756  1.1183 -2.1281  0.2036
 4199TIP3    H212604   0.815   1.792   0.658 -0.1628  0.4259 -0.7702
 4200TIP3   OH212605   0.006   1.337   4.571  0.3106  0.6714  0.2348
 4200TIP3    H112606   0.011   1.428   4.540 -1.1598  0.5247 -0.5709
 4200TIP3    H212607   0.032   1.285   4.495 -1.3219  0.3704 -0.1672
 4201TIP3   OH212608   2.377   5.582   1.893 -0.7857  0.3299  0.2164
 4201TIP3    H112609   2.411   5.502   1.932  0.2630  1.1760  1.1119
 4201TIP3    H212610   2.373   5.563   1.799 -1.6146 -1.1274  0.5160
 4202TIP3   OH212611   1.402   4.970   2.885 -0.6090  0.2680  0.3944
 4202TIP3    H112612   1.330   4.974   2.822  1.3764 -0.2639 -2.0568
 4202TIP3    H212613   1.441   5.057   2.883  0.7597 -0.3244 -0.8295
 4203TIP3   OH212614   4.077   5.035   1.608  0.2206  0.2008 -0.1319
 4203TIP3    H112615   4.029   4.987   1.541 -0.4612  0.0697  0.4395
 4203TIP3    H212616   4.089   5.122   1.570  0.2683 -0.0177 -0.6230
 4204TIP3   OH212617   1.788   5.228   3.317 -0.2285  0.6620 -0.0749
 4204TIP3    H112618   1.726   5.198   3.384 -0.1175  1.3443  0.3408
 4204TIP3    H212619   1.861   5.264   3.366  0.3646  0.1508 -0.5687
 4205TIP3   OH212620   2.459   0.022   2.824 -0.1088 -0.3776  0.0290
 4205TIP3    H112621   2.445  -0.072   2.812  0.2521 -0.3126 -0.9903
 4205TIP3    H212622   2.384   0.052   2.876 -0.1602 -1.2461  0.4639
 4206TIP3   OH212623   1.611   2.778   2.593  0.5579  0.2051  0.3116
 4206TIP3    H112624   1.650   2.791   2.507  1.9288 -0.9194  0.7200
 4206TIP3    H212625   1.662   2.835   2.651 -0.8128  1.4892  0.2948
 4207TIP3   OH212626   0.924   3.889   3.892 -0.0792 -0.1346 -1.0776
 4207TIP3    H112627   1.014   3.875   3.921  0.0978 -2.4202 -2.5034
 4207TIP3    H212628   0.931   3.903   3.798 -1.2621 -1.3934 -1.3929
 4208TIP3   OH212629   0.510   1.910   1.235  0.4947 -0.2414 -0.2251
 4208TIP3    H112630   0.560   1.992   1.240  1.0440 -0.5799 -0.0183
 4208TIP3    H212631   0.439   1.928   1.173  2.5394 -0.5968 -2.8782
 4209TIP3   OH212632   1.138   3.533   1.627 -0.1797 -0.5090 -0.0392
 4209TIP3    H112633   1.147   3.470   1.554 -0.6604  0.7165 -1.1989
 4209TIP3    H212634   1.044   3.549   1.632 -0.3888 -2.0274  2.1758
 4210TIP3   OH212635   5.676   5.537   1.215 -0.1149  0.0296  0.3420
 4210TIP3    H112636   5.648   5.446   1.225  2.3412 -0.7372  0.9616
 4210TIP3    H212637   5.670   5.573   1.304  0.2159  0.0564  0.3533
 4211TIP3   OH212638   1.435   0.083   2.740  0.0351  0.4280  0.1304
 4211TIP3    H112639   1.501   0.063   2.675  0.8930  0.7467  0.8847
 4211TIP3    H212640   1.429   0.179   2.739 -1.7528  0.3558 -1.2195
 4212TIP3   OH212641   4.913   4.724   3.945 -0.0304 -0.0002  0.7114
 4212TIP3    H112642   4.992   4.671   3.957 -0.9860 -1.3705  1.2245
 4212TIP3    H212643   4.898   4.763   4.030  0.7862  1.3125  0.2809
 4213TIP3   OH212644   6.131   1.640   4.478  0.0546  0.1150  0.1666
 4213TIP3    H112645   6.194   1.652   4.407  0.0227 -0.3954  0.0415
 4213TIP3    H212646   6.084   1.560   4.454  1.0612 -0.9431  1.4991
 4214TIP3   OH212647   0.779   2.339   0.642 -0.3595 -0.0211  0.2617
 4214TIP3    H112648   0.810   2.429   0.644  0.7041 -0.3477 -0.6284
 4214TIP3    H212649   0.698   2.340   0.693 -0.4225  1.4582  0.1618
 4215TIP3   OH212650   0.711   2.219   4.746  0.5248  0.6825 -0.5107
 4215TIP3    H112651   0.680   2.278   4.816  1.6647  0.3124  0.3299
 4215TIP3    H212652   0.765   2.275   4.691  0.5358  0.7245 -0.4581
 4216TIP3   OH212653   5.536   1.036   3.454  0.6446 -0.2235  0.0391
 4216TIP3    H112654   5.459   0.987   3.482 -0.6025  0.4276 -2.0248
 4216TIP3    H212655   5.504   1.096   3.387  2.7508  0.9205 -0.0595
 4217TIP3   OH212656   5.353   1.024   3.830 -0.4523  0.4444  0.0248
 4217TIP3    H112657   5.287   1.079   3.791 -1.9453 -0.0954  1.6428
 4217TIP3    H212658   5.368   0.955   3.766  0.0994  1.6876 -1.2295
 4218TIP3   OH212659   0.765   5.882   3.076  0.2163 -0.3031  0.6208
 4218TIP3    H112660   0.832   5.949   3.058 -0.8934  0.6082 -0.2104
 4218TIP3    H212661   0.682   5.929   3.073 -0.5503 -1.6076  0.6579
 4219TIP3   OH212662   4.374   3.950   1.718 -0.3996 -0.5686 -0.3257
 4219TIP3    H112663   4.419   4.025   1.679 -1.4628  0.0243 -0.4541
 4219TIP3    H212664   4.395   3.877   1.660 -0.4891 -0.0734 -0.9963
 4220TIP3   OH212665   5.997   0.460   4.263  0.5059  0.0004  0.0582
 4220TIP3    H112666   5.984   0.384   4.206  1.8941  0.9975 -1.6888
 4220TIP3    H212667   6.004   0.534   4.203  0.0584  1.4022  1.6631
 4221TIP3   OH212668   3.063   0.124   0.333 -0.8135  0.1733  0.1781
 4221TIP3    H112669   3.110   0.083   0.406  2.0075 -0.4607 -1.8211
 4221TIP3    H212670   3.074   0.218   0.347 -0.4854  0.0653  0.6802
 4222TIP3   OH212671   0.929   0.633   2.321 -0.6374  0.7154 -0.4282
 4222TIP3    H112672   0.853   0.577   2.305 -1.6862  2.1114 -0.5448
 4222TIP3    H212673   0.929   0.695   2.248  1.6716 -0.3043 -1.3886
 4223TIP3   OH212674   0.667   4.710   4.613  0.1686 -0.4287 -0.4720
 4223TIP3    H112675   0.703   4.686   4.528  0.7358 -2.0729  0.1984
 4223TIP3    H212676   0.742   4.741   4.664 -0.0537 -0.0852 -0.3483
 4224TIP3   OH212677   0.272   2.894   3.779  0.3889 -0.2152 -0.6096
 4224TIP3    H112678   0.266   2.988   3.795 -2.9031 -0.3604 -0.3702
 4224TIP3    H212679   0.277   2.886   3.684  1.7472  0.1687 -0.5955
 4225TIP3   OH212680   3.172   5.181   1.464 -0.0429  0.1429 -0.5825
 4225TIP3    H112681   3.198   5.090   1.480 -1.3849 -0.3949 -1.2671
 4225TIP3    H212682   3.109   5.200   1.535  1.9502  1.3717  0.9792
 4226TIP3   OH212683   6.234   5.326   0.297 -0.0802  0.6822 -0.4559
 4226TIP3    H112684   6.201   5.390   0.233 -0.3209  0.5240 -0.4914
 4226TIP3    H212685   6.247   5.377   0.377 -1.2647  0.5782 -0.1806
 4227TIP3   OH212686   4.955   1.842   2.784  0.3149 -0.0463 -0.9523
 4227TIP3    H112687   4.949   1.826   2.690  1.6611 -0.9877 -0.9174
 4227TIP3    H212688   4.961   1.938   2.792 -2.0008  0.2092 -1.6247
 4228TIP3   OH212689   0.609   5.583   3.898  0.2779  0.9264  0.0193
 4228TIP3    H112690   0.668   5.609   3.827  0.9851  2.5436  1.1550
 4228TIP3    H212691   0.609   5.657   3.959  0.5770 -0.8299  2.2845
 4229TIP3   OH212692   5.095   0.004   0.941  0.1180  0.0758 -0.0700
 4229TIP3    H112693   5.163   0.051   0.989 -0.1952  0.5488 -0.0795
 4229TIP3    H212694   5.029   0.071   0.921  0.0588 -0.1964 -0.8190
 4230TIP3   OH212695   5.685   2.022   1.706  0.2892 -0.6207 -0.2211
 4230TIP3    H112696   5.667   2.067   1.624 -0.7432 -0.5790  0.0184
 4230TIP3    H212697   5.773   1.985   1.694  0.0767 -0.7838 -1.4150
 4231TIP3   OH212698   3.825   3.575   3.952 -0.1995  0.1707 -0.7003
 4231TIP3    H112699   3.799   3.502   3.895 -0.2367 -0.2504 -0.1618
 4231TIP3    H212700   3.915   3.554   3.978  0.0245  0.6658 -1.0769
 4232TIP3   OH212701   5.561   1.693   4.949 -0.2160 -0.6002  0.1066
 4232TIP3    H112702   5.649   1.728   4.937 -1.5916  3.0071 -0.7051
 4232TIP3    H212703   5.560   1.661   5.039  1.2601  1.6083  0.9998
 4233TIP3   OH212704   2.819   5.308   1.289  0.3754  0.2928 -0.4947
 4233TIP3    H112705   2.859   5.221   1.288 -1.8283 -0.7810 -1.1239
 4233TIP3    H212706   2.821   5.338   1.198 -1.2072 -0.2797 -0.7441
 4234TIP3   OH212707   5.523   0.941   1.108  0.6027  0.2027 -0.6350
 4234TIP3    H112708   5.599   0.985   1.070  1.7789 -0.7615  0.4770
 4234TIP3    H212709   5.530   0.851   1.077 -1.5424  0.6043 -2.5530
 4235TIP3   OH212710   5.562   1.705   2.644 -0.4142 -0.3600  0.5669
 4235TIP3    H112711   5.473   1.683   2.670 -1.3509  1.5098 -0.8520
 4235TIP3    H212712   5.607   1.726   2.725 -0.8679 -2.4498  1.4374
 4236TIP3   OH212713   3.784   1.790   0.876 -0.0420  0.6178 -0.2834
 4236TIP3    H112714   3.789   1.787   0.972  0.8040 -1.0636 -0.3424
 4236TIP3    H212715   3.861   1.840   0.850  0.3970  0.0390 -0.1179
 4237TIP3   OH212716   0.533   4.824   1.493 -0.7754  0.6827 -0.3517
 4237TIP3    H112717   0.529   4.778   1.577  3.9617  0.5521  0.0977
 4237TIP3    H212718   0.501   4.760   1.429 -0.2624 -0.9266  0.9260
 4238TIP3   OH212719   0.164   1.599   2.284 -0.0864  0.4294  0.2854
 4238TIP3    H112720   0.200   1.581   2.371 -0.0048  1.5001  0.4809
 4238TIP3    H212721   0.220   1.668   2.249  2.0284 -2.1810 -1.9936
 4239TIP3   OH212722   4.943   3.602   3.268  0.6572  0.2209 -0.1184
 4239TIP3    H112723   5.026   3.556   3.285  0.6014 -0.4215 -1.4043
 4239TIP3    H212724   4.899   3.546   3.203  0.3320  1.8212 -1.3226
 4240TIP3   OH212725   5.556   4.965   3.640 -0.6430  0.5628 -0.6766
 4240TIP3    H112726   5.527   4.977   3.550  1.0898  1.6871 -1.1272
 4240TIP3    H212727   5.615   5.039   3.656  0.7748 -0.7949  0.6643
 4241TIP3   OH212728   5.324   0.315   2.616 -0.2440  0.3236 -0.0356
 4241TIP3    H112729   5.386   0.249   2.585 -0.2129 -0.2711  1.1941
 4241TIP3    H212730   5.379   0.389   2.643 -0.0698 -0.0924  0.7894
 4242TIP3   OH212731   2.946   4.690   1.310  0.4584 -0.1244  0.5599
 4242TIP3    H112732   2.891   4.728   1.379  0.4781 -0.9966  1.0684
 4242TIP3    H212733   2.905   4.606   1.291  1.3284 -0.5573  0.5735
 4243TIP3   OH212734   2.449   5.678   2.286  0.1449 -0.3847 -0.1519
 4243TIP3    H112735   2.391   5.630   2.228 -0.9957  0.2966  0.3747
 4243TIP3    H212736   2.494   5.740   2.229 -1.1673  0.4695 -0.3088
 4244TIP3   OH212737   0.911   2.547   0.246 -0.2588  0.8746  0.3191
 4244TIP3    H112738   0.895   2.456   0.270 -1.1074  0.9167 -0.0809
 4244TIP3    H212739   0.976   2.577   0.310  1.3935 -0.5046 -0.6165
 4245TIP3   OH212740   2.734   4.927   1.189 -0.4043 -0.0049  0.1357
 4245TIP3    H112741   2.643   4.957   1.186  0.1850  1.8830 -1.1085
 4245TIP3    H212742   2.732   4.850   1.245 -2.7363  0.0821  0.2843
 4246TIP3   OH212743   3.485   1.956   1.650  0.8346  0.1202  0.4197
 4246TIP3    H112744   3.543   1.974   1.724 -1.0334  0.3225  1.9194
 4246TIP3    H212745   3.423   1.891   1.684 -0.7377  1.0309 -0.5732
 4247TIP3   OH212746   2.995   1.713   3.564  0.4213 -0.5858  0.0422
 4247TIP3    H112747   3.065   1.667   3.518 -0.3510 -1.3509 -0.3798
 4247TIP3    H212748   2.921   1.710   3.504 -0.1057 -0.1448  0.6607
 4248TIP3   OH212749   3.159   4.641   5.206  0.0664 -0.2232 -0.3405
 4248TIP3    H112750   3.092   4.708   5.193  0.3772  0.1746  0.0786
 4248TIP3    H212751   3.238   4.679   5.167  0.0474 -0.6992 -0.8517
 4249TIP3   OH212752   6.177   2.475   2.286  0.3071  0.1226  0.1546
 4249TIP3    H112753   6.102   2.530   2.310 -1.5566 -1.4507 -1.7020
 4249TIP3    H212754   6.214   2.517   2.208  2.0604  1.4180  1.5888
 4250TIP3   OH212755   5.000   2.772   4.092 -0.3470  0.1130 -0.1502
 4250TIP3    H112756   5.064   2.701   4.093  0.9171  1.1876  2.7177
 4250TIP3    H212757   5.052   2.851   4.079 -1.2170  0.8754  0.8580
 4251TIP3   OH212758   4.405   5.274   1.580  0.0300 -0.7146  0.6601
 4251TIP3    H112759   4.370   5.265   1.669  0.9129  1.4273  1.2870
 4251TIP3    H212760   4.466   5.348   1.585 -0.5530  0.0667 -1.9156
 4252TIP3   OH212761   4.089   2.303   5.030 -0.0211  0.5961  0.1634
 4252TIP3    H112762   4.147   2.264   4.964  0.9923  0.8133  0.8991
 4252TIP3    H212763   4.017   2.340   4.980 -0.2424 -0.8969 -0.6745
 4253TIP3   OH212764   3.915   4.622   0.876 -0.3081 -0.0963 -0.3034
 4253TIP3    H112765   3.999   4.585   0.847 -0.2262  0.4977 -0.8678
 4253TIP3    H212766   3.909   4.599   0.968  0.5155 -0.0850 -0.2358
 4254TIP3   OH212767   4.317   2.737   3.503 -0.1259  0.4157 -0.4435
 4254TIP3    H112768   4.304   2.675   3.432  0.5040  1.1010 -1.1819
 4254TIP3    H212769   4.341   2.683   3.578 -1.0346 -0.3367 -0.6814
 4255TIP3   OH212770   5.043   3.511   4.510 -0.3005  0.1949 -0.3942
 4255TIP3    H112771   5.056   3.417   4.502 -1.1716  0.1602 -1.6854
 4255TIP3    H212772   4.985   3.521   4.585  0.8129 -0.1751  0.5574
 4256TIP3   OH212773   4.556   3.238   2.074  0.1853 -0.8426 -0.4304
 4256TIP3    H112774   4.547   3.211   2.166 -0.2791 -0.7245 -0.4434
 4256TIP3    H212775   4.475   3.283   2.053  0.4433 -0.5343 -0.7918
 4257TIP3   OH212776   3.152   4.048   3.352  0.9118  0.2528  0.4490
 4257TIP3    H112777   3.131   4.000   3.272 -0.5620  0.4812  0.6671
 4257TIP3    H212778   3.231   4.006   3.385  0.8397 -0.6521 -0.4786
 4258TIP3   OH212779   2.651   4.787   4.959 -0.2816  0.2970  0.5035
 4258TIP3    H112780   2.675   4.837   4.881  1.5430  1.4934  1.7294
 4258TIP3    H212781   2.711   4.713   4.960 -0.4349  0.1744  0.6445
 4259TIP3   OH212782   4.479   4.300   1.345  0.0834 -0.0053 -0.1067
 4259TIP3    H112783   4.458   4.217   1.301  0.5604 -0.1764 -0.0181
 4259TIP3    H212784   4.571   4.291   1.370 -0.6923 -0.8108  2.8835
 4260TIP3   OH212785   5.426   2.726   3.094  0.0990 -0.0779  0.3091
 4260TIP3    H112786   5.425   2.821   3.093  3.9841  0.1227  0.8500
 4260TIP3    H212787   5.420   2.701   3.002 -3.2864  0.4141  0.2483
 4261TIP3   OH212788   2.153   0.898   4.092  0.6160 -0.2580  0.0235
 4261TIP3    H112789   2.178   0.880   4.182  0.1084 -0.7301  0.0751
 4261TIP3    H212790   2.188   0.823   4.042  0.8276 -0.0386 -0.1623
 4262TIP3   OH212791   0.807   3.222   2.908  1.1603  0.2893 -0.1300
 4262TIP3    H112792   0.803   3.283   2.982 -2.6125 -0.7840  0.7073
 4262TIP3    H212793   0.832   3.138   2.946 -0.9113 -0.2951  0.0181
 4263TIP3   OH212794   2.628   5.685   0.732 -0.1793 -0.7120  0.0922
 4263TIP3    H112795   2.549   5.737   0.746 -0.5123 -0.6707 -1.7735
 4263TIP3    H212796   2.699   5.750   0.730 -0.1172 -0.7113  1.3350
 4264TIP3   OH212797   2.505   2.902   3.284 -0.3721  0.2751  0.1243
 4264TIP3    H112798   2.518   2.922   3.376 -2.3264 -1.2333  0.8149
 4264TIP3    H212799   2.562   2.826   3.268  0.0057  0.5685  0.0710
 4265TIP3   OH212800   0.939   4.016   0.593  0.3828 -0.3993  0.3607
 4265TIP3    H112801   1.009   4.018   0.658  2.6536  0.5713 -1.9659
 4265TIP3    H212802   0.950   3.932   0.548  1.3256  0.5272 -1.2336
 4266TIP3   OH212803   3.336   3.172   0.791 -0.5792 -0.6153 -0.6360
 4266TIP3    H112804   3.349   3.128   0.707 -0.5357  1.5134 -1.8280
 4266TIP3    H212805   3.425   3.182   0.826 -0.6775 -2.5213  0.2831
 4267TIP3   OH212806   0.897   4.907   1.898 -0.6410  0.3349  0.1094
 4267TIP3    H112807   0.821   4.940   1.851 -1.2028 -0.2495  0.5771
 4267TIP3    H212808   0.902   4.962   1.977  0.4272  1.4544 -0.7033
 4268TIP3   OH212809   3.164   2.796   2.569 -0.4039 -0.1492  0.0674
 4268TIP3    H112810   3.085   2.798   2.515  0.4787 -1.6893 -1.3699
 4268TIP3    H212811   3.232   2.762   2.510  1.1389  0.3126  1.5113
 4269TIP3   OH212812   1.270   3.777   0.455 -0.0580  0.3595  0.2072
 4269TIP3    H112813   1.340   3.713   0.445 -0.4242  0.1546 -1.2494
 4269TIP3    H212814   1.208   3.734   0.515 -0.8564 -1.2175 -1.6107
 4270TIP3   OH212815   4.353   2.432   1.444 -0.2960  0.7424  0.4267
 4270TIP3    H112816   4.415   2.371   1.403  0.7244  1.8181  0.3171
 4270TIP3    H212817   4.295   2.376   1.495 -0.6483 -0.4917 -1.2564
 4271TIP3   OH212818   1.234   3.638   4.846  0.4694 -0.1283  0.3526
 4271TIP3    H112819   1.241   3.696   4.922 -2.5270 -0.5612  1.1114
 4271TIP3    H212820   1.295   3.567   4.864 -0.4352 -0.4248  2.6077
 4272TIP3   OH212821   5.259   4.634   1.258  0.1875  0.0703  0.0584
 4272TIP3    H112822   5.186   4.692   1.281  0.6942  1.0287 -0.7130
 4272TIP3    H212823   5.336   4.677   1.294  0.3669 -1.0742  1.0997
 4273TIP3   OH212824   2.531   1.677   3.019  0.6203  0.0847  0.1294
 4273TIP3    H112825   2.499   1.588   3.002  1.6589 -0.2600 -0.0946
 4273TIP3    H212826   2.480   1.732   2.958  1.3253 -0.6129 -1.1408
 4274TIP3   OH212827   4.189   3.835   3.732  0.1391  0.3698 -0.0539
 4274TIP3    H112828   4.214   3.839   3.640  1.1418  0.5172  0.2153
 4274TIP3    H212829   4.253   3.890   3.777 -0.7451  0.8533  0.6570
 4275TIP3   OH212830   5.149   4.758   1.859  0.1562  0.3717  0.2064
 4275TIP3    H112831   5.183   4.725   1.776 -1.0150 -0.5908  0.0915
 4275TIP3    H212832   5.111   4.681   1.901 -0.3835  1.1026  1.0766
 4276TIP3   OH212833   4.203   5.638   0.351  0.2179  0.5543  0.3718
 4276TIP3    H112834   4.175   5.672   0.436  0.4757  0.1147  0.6393
 4276TIP3    H212835   4.126   5.595   0.315  0.2468  0.2854  0.6227
 4277TIP3   OH212836   5.993   4.621   3.611  0.4648  0.0631 -0.3240
 4277TIP3    H112837   5.909   4.659   3.586  0.8096  0.8263 -0.3836
 4277TIP3    H212838   5.979   4.527   3.609 -0.4938  0.1897  0.0613
 4278TIP3   OH212839   2.734   4.611   2.643 -0.6988 -0.1581  0.2934
 4278TIP3    H112840   2.740   4.516   2.630  1.5716 -0.2371  1.3760
 4278TIP3    H212841   2.656   4.622   2.698  0.2467 -1.6979  2.0749
 4279TIP3   OH212842   5.735   3.741   0.579 -0.1557 -0.0869 -0.2933
 4279TIP3    H112843   5.717   3.648   0.565 -0.4149 -0.0267 -0.3602
 4279TIP3    H212844   5.698   3.760   0.665  2.0345 -0.6171  0.8658
 4280TIP3   OH212845   6.042   0.902   2.304 -0.1891  0.0186 -0.4306
 4280TIP3    H112846   5.966   0.936   2.350  0.0826  0.6371 -0.4246
 4280TIP3    H212847   6.011   0.823   2.260 -0.5854 -0.2807  0.3699
 4281TIP3   OH212848   5.442   4.283   4.733 -0.5802  0.0607  0.0650
 4281TIP3    H112849   5.382   4.252   4.665 -0.3337 -0.2855  0.0012
 4281TIP3    H212850   5.406   4.367   4.761 -2.5549 -1.2730  1.8142
 4282TIP3   OH212851   1.683   5.436   2.779  0.2653 -0.6958 -0.2514
 4282TIP3    H112852   1.706   5.348   2.810  1.0807 -0.0883  0.9457
 4282TIP3    H212853   1.615   5.466   2.840  0.4625 -0.2452 -0.2472
 4283TIP3   OH212854   1.467   0.601   2.746 -0.6973  0.0550  0.6150
 4283TIP3    H112855   1.387   0.583   2.696 -0.1607 -2.5401  0.5465
 4283TIP3    H212856   1.524   0.526   2.729  1.4164  1.3679  1.4069
 4284TIP3   OH212857   3.044   0.944   3.364 -0.2150  0.1324 -0.5493
 4284TIP3    H112858   3.099   0.918   3.438 -0.9323 -0.7469 -0.3030
 4284TIP3    H212859   2.969   0.988   3.404  0.2385  1.2344 -0.8764
 4285TIP3   OH212860   1.974   0.757   4.956 -0.6573 -0.3218 -0.1221
 4285TIP3    H112861   1.913   0.748   5.029  1.6183  1.6075  2.1695
 4285TIP3    H212862   2.032   0.681   4.964 -0.6796 -0.3560 -0.2640
 4286TIP3   OH212863   4.178   5.191   5.092  0.5529  0.1018 -0.0404
 4286TIP3    H112864   4.163   5.098   5.104  0.2695  0.1659  0.1112
 4286TIP3    H212865   4.212   5.199   5.003  0.6372 -0.1509 -0.0318
 4287TIP3   OH212866   2.850   2.487   3.552 -0.6043  0.0536 -0.0058
 4287TIP3    H112867   2.803   2.482   3.469 -0.0807  2.7931 -0.5745
 4287TIP3    H212868   2.942   2.493   3.526 -0.4694  1.4169  0.6912
 4288TIP3   OH212869   5.936   4.354   3.569  0.3919 -0.2425 -0.0883
 4288TIP3    H112870   5.888   4.311   3.498 -0.3183  0.2604  0.0809
 4288TIP3    H212871   5.884   4.336   3.647  0.3380  0.5342  0.0562
 4289TIP3   OH212872   2.722   5.188   0.241 -0.3571 -0.6385 -0.3733
 4289TIP3    H112873   2.781   5.241   0.295 -1.4681 -0.7539  1.0315
 4289TIP3    H212874   2.777   5.117   0.208  0.3269 -0.6934  0.8250
 4290TIP3   OH212875   1.048   5.785   3.527  0.5752  0.1246 -0.4921
 4290TIP3    H112876   0.957   5.759   3.543  1.0157 -1.2879 -0.1003
 4290TIP3    H212877   1.069   5.744   3.443  1.1376 -0.3785 -0.1098
 4291TIP3   OH212878   6.290   5.195   3.359  1.0261 -0.3040  0.1168
 4291TIP3    H112879   6.359   5.173   3.421  1.6517 -0.6260 -0.6766
 4291TIP3    H212880   6.214   5.216   3.413  1.8800  0.5306  1.0229
 4292TIP3   OH212881   0.105   2.001   2.194  0.4770  0.1899 -0.4501
 4292TIP3    H112882   0.052   1.993   2.273 -0.3421 -2.1299 -1.1613
 4292TIP3    H212883   0.166   1.927   2.198  0.7952  0.3635 -1.7081
 4293TIP3   OH212884   6.064   4.253   4.731  0.1622  0.1129  0.4676
 4293TIP3    H112885   6.152   4.216   4.736 -0.8208 -2.3208  1.0056
 4293TIP3    H212886   6.015   4.209   4.800 -1.2793  2.0774  0.7868
 4294TIP3   OH212887   0.319   4.161   1.030  0.6206  0.0894 -0.4238
 4294TIP3    H112888   0.317   4.200   1.118  0.7602 -2.8982  1.0205
 4294TIP3    H212889   0.388   4.209   0.984  0.3538  1.9153  0.9686
 4295TIP3   OH212890   5.940   3.044   0.294  0.1718  0.2766  0.5103
 4295TIP3    H112891   5.976   3.031   0.207 -0.5865  0.2575  0.1879
 4295TIP3    H212892   5.854   3.002   0.291  0.0206  0.5185  1.1800
 4296TIP3   OH212893   5.676   3.884   4.171 -0.4227  0.2692 -0.1346
 4296TIP3    H112894   5.736   3.901   4.099 -0.2090 -0.3933 -0.1146
 4296TIP3    H212895   5.643   3.971   4.196  0.3774  0.6130 -0.2649
 4297TIP3   OH212896   5.671   3.139   4.685  0.2549  0.4423 -0.0210
 4297TIP3    H112897   5.739   3.196   4.721  0.9149 -0.6388  0.4993
 4297TIP3    H212898   5.664   3.068   4.748 -0.4638 -0.1204 -0.7206
 4298TIP3   OH212899   0.367   3.122   4.584 -0.3238  0.2962 -0.3981
 4298TIP3    H112900   0.347   3.171   4.504 -0.4016  1.1487  0.1265
 4298TIP3    H212901   0.322   3.171   4.653  1.9754  1.1606  0.5527
 4299TIP3   OH212902   3.329   0.368   2.439 -0.4913 -0.1412 -0.0956
 4299TIP3    H112903   3.316   0.282   2.400  0.4019 -0.1114 -0.4869
 4299TIP3    H212904   3.294   0.360   2.527  1.1587 -1.4521  0.4972
 4300TIP3   OH212905   2.899   5.963   3.544 -0.3007  0.4293 -0.6230
 4300TIP3    H112906   2.821   5.965   3.488 -0.0559 -0.1129 -0.9945
 4300TIP3    H212907   2.963   5.912   3.494 -0.3738 -0.8370  0.5147
 4301TIP3   OH212908   5.284   3.862   4.649  0.4564 -0.1723  0.1904
 4301TIP3    H112909   5.344   3.793   4.678 -0.3907 -0.6152  0.9683
 4301TIP3    H212910   5.296   3.867   4.555  2.5684  0.5836  0.4602
 4302TIP3   OH212911   5.672   2.379   4.470  0.2422  0.0248  0.5574
 4302TIP3    H112912   5.695   2.298   4.516  1.1734  0.8491  1.6115
 4302TIP3    H212913   5.755   2.426   4.462 -0.4374  1.3107  0.8388
 4303TIP3   OH212914   1.389   0.571   0.173 -0.5360 -0.3485 -0.1534
 4303TIP3    H112915   1.300   0.545   0.148 -0.2404 -1.2898 -0.2728
 4303TIP3    H212916   1.445   0.522   0.114  0.1360 -1.4775  1.3399
 4304TIP3   OH212917   3.236   0.834   0.579 -0.4688 -0.3988  0.4734
 4304TIP3    H112918   3.222   0.927   0.597  1.2046  0.1560 -0.8822
 4304TIP3    H212919   3.173   0.814   0.510 -0.7908 -0.2489  0.7224
 4305TIP3   OH212920   6.223   3.681   2.625  0.0141 -0.2387 -0.3510
 4305TIP3    H112921   6.257   3.752   2.680  0.8776 -1.1032  0.2752
 4305TIP3    H212922   6.149   3.646   2.675  0.8915 -1.1227  0.3778
 4306TIP3   OH212923   5.899   2.745   0.926 -0.4410 -0.2284  0.3324
 4306TIP3    H112924   5.929   2.671   0.979 -0.1290  0.4662  1.1348
 4306TIP3    H212925   5.804   2.749   0.943 -0.1074  1.0366  2.2303
 4307TIP3   OH212926   2.074   1.906   5.016  0.2481 -0.1689  0.1978
 4307TIP3    H112927   2.062   1.974   5.081  1.5162 -1.4135  1.8140
 4307TIP3    H212928   2.153   1.931   4.968 -0.3398  0.4266 -0.4881
 4308TIP3   OH212929   4.444   3.219   3.698 -0.0625  0.1985  0.2276
 4308TIP3    H112930   4.511   3.270   3.652 -1.0177  2.4682  1.2027
 4308TIP3    H212931   4.435   3.139   3.646  1.7020  0.8830 -1.2494
 4309TIP3   OH212932   1.509   2.381   0.713 -0.1965  0.3023  0.0638
 4309TIP3    H112933   1.542   2.424   0.634  1.4876  0.0897  0.5966
 4309TIP3    H212934   1.475   2.297   0.683 -0.0608  0.4510 -0.5099
 4310TIP3   OH212935   2.734   1.531   1.439 -0.2766  0.2378  0.2127
 4310TIP3    H112936   2.750   1.621   1.410  0.0458  0.1443  0.0971
 4310TIP3    H212937   2.806   1.480   1.401 -1.6371 -0.4579 -1.5689
 4311TIP3   OH212938   5.429   2.772   3.692  0.2123 -0.4481  0.2842
 4311TIP3    H112939   5.365   2.706   3.720  0.7368 -0.4909  1.4634
 4311TIP3    H212940   5.425   2.839   3.760 -0.1984  0.6819 -0.8150
 4312TIP3   OH212941   1.200   5.286   2.972  0.0938 -0.2815  0.7232
 4312TIP3    H112942   1.218   5.374   3.004  0.9359 -1.1561  2.8662
 4312TIP3    H212943   1.255   5.276   2.895  1.8532  0.2688  1.8545
 4313TIP3   OH212944   5.463   5.811   5.108 -0.3144  0.0024  0.1145
 4313TIP3    H112945   5.465   5.815   5.203  0.6887  1.1628  0.0668
 4313TIP3    H212946   5.393   5.870   5.082 -1.1714 -0.9687  0.1319
 4314TIP3   OH212947   0.577   2.631   2.092  0.0431 -0.2474 -0.1133
 4314TIP3    H112948   0.574   2.546   2.048 -0.2496 -0.5172  0.4164
 4314TIP3    H212949   0.493   2.672   2.071  1.0514  0.8799 -2.2271
 4315TIP3   OH212950   1.121   2.102   0.066  0.1175 -0.0778  0.4103
 4315TIP3    H112951   1.089   2.012   0.065  0.6054 -0.2538 -0.5559
 4315TIP3    H212952   1.060   2.150   0.009  0.5542 -0.0533 -0.0428
 4316TIP3   OH212953   2.654   3.772   3.297 -0.0336  0.1050  0.2859
 4316TIP3    H112954   2.566   3.758   3.262  0.3278  0.3842 -0.7740
 4316TIP3    H212955   2.683   3.685   3.324 -1.1539  0.2077  1.9651
 4317TIP3   OH212956   4.374   1.948   2.501 -0.0008 -0.6506 -0.1744
 4317TIP3    H112957   4.463   1.978   2.520 -0.1214 -0.6064  0.3560
 4317TIP3    H212958   4.343   1.912   2.584 -0.8894  0.3852 -0.0326
 4318TIP3   OH212959   6.129   2.306   3.479 -0.1483  0.3886  0.0608
 4318TIP3    H112960   6.087   2.225   3.449 -0.4674  0.7756 -0.5605
 4318TIP3    H212961   6.099   2.373   3.418 -0.1587  1.0514  0.7784
 4319TIP3   OH212962   3.636   0.459   2.282 -0.3609 -0.2850 -0.1004
 4319TIP3    H112963   3.718   0.410   2.278 -0.0938 -0.0034  1.3454
 4319TIP3    H212964   3.584   0.413   2.348  0.0181  1.4807  1.5248
 4320TIP3   OH212965   5.278   0.475   1.096 -0.1999  0.1079  0.7048
 4320TIP3    H112966   5.212   0.530   1.138 -0.5366 -1.5844  2.5355
 4320TIP3    H212967   5.324   0.433   1.169  0.4552 -1.5469 -0.5977
 4321TIP3   OH212968   2.304   1.638   5.135  0.0547 -0.0239 -0.7186
 4321TIP3    H112969   2.366   1.701   5.099 -0.1030  0.4648 -0.1349
 4321TIP3    H212970   2.342   1.612   5.219  0.6242 -1.4598 -1.3674
 4322TIP3   OH212971   1.812   1.320   2.844  0.4247 -0.1205  0.4167
 4322TIP3    H112972   1.855   1.355   2.922 -0.5454 -1.5510  1.6518
 4322TIP3    H212973   1.874   1.255   2.810  0.4959 -0.0846  0.4775
 4323TIP3   OH212974   2.797   4.978   0.938 -0.2845  0.0837 -0.7864
 4323TIP3    H112975   2.777   4.931   1.019 -0.0682  2.6422  0.8428
 4323TIP3    H212976   2.826   4.909   0.877  2.2820 -1.6600  2.1255
 4324TIP3   OH212977   0.458   2.244   1.652  0.0733  0.2213  0.1144
 4324TIP3    H112978   0.385   2.206   1.605 -0.3811  2.0825 -0.7987
 4324TIP3    H212979   0.463   2.195   1.734  0.1079 -2.2858 -1.3039
 4325TIP3   OH212980   1.822   1.926   0.210 -0.1733  0.0008 -0.1693
 4325TIP3    H112981   1.789   1.927   0.120 -0.6986  0.9305  0.0239
 4325TIP3    H212982   1.748   1.895   0.263 -0.8261  2.1283  0.2687
 4326TIP3   OH212983   3.990   2.719   1.316  0.1956  0.2797  0.1096
 4326TIP3    H112984   4.070   2.674   1.289  0.2535  1.5543 -2.1562
 4326TIP3    H212985   3.926   2.649   1.330  1.2695 -0.6681  0.4441
 4327TIP3   OH212986   5.016   3.371   2.240  0.3487  0.4877 -0.0774
 4327TIP3    H112987   4.988   3.304   2.177  0.1451  0.2424  0.2739
 4327TIP3    H212988   4.950   3.439   2.233  0.3273  0.4618 -0.1272
 4328TIP3   OH212989   2.342   1.278   1.131 -0.2126  0.0884  0.6291
 4328TIP3    H112990   2.396   1.204   1.159  0.9243  0.7590  0.2260
 4328TIP3    H212991   2.375   1.301   1.045 -0.0106  1.5912  1.0907
 4329TIP3   OH212992   3.928   2.780   2.947 -0.0962 -0.3464 -0.0848
 4329TIP3    H112993   3.949   2.696   2.987  1.4944 -1.5484 -3.1317
 4329TIP3    H212994   3.846   2.806   2.989 -0.5728 -3.3310  1.0962
 4330TIP3   OH212995   2.008   2.797   4.698  0.0632 -0.1968  0.3111
 4330TIP3    H112996   2.038   2.737   4.766 -1.9656 -0.3495  1.1535
 4330TIP3    H212997   1.992   2.879   4.745 -0.0713  0.0952 -0.2447
 4331TIP3   OH212998   3.990   3.246   1.470  0.6207  0.0642  0.0001
 4331TIP3    H112999   4.084   3.256   1.485  0.5462 -0.0624  0.6113
 4331TIP3    H213000   3.981   3.237   1.375  1.3673 -1.2747  0.0294
 4332TIP3   OH213001   0.417   5.671   0.335 -0.1814  0.4860  0.3637
 4332TIP3    H113002   0.380   5.758   0.349 -3.3206 -0.7262  0.4405
 4332TIP3    H213003   0.442   5.641   0.422 -2.2531  0.1002  0.8819
 4333TIP3   OH213004   5.735   0.011   0.916  0.4364  0.2432 -0.0393
 4333TIP3    H113005   5.665  -0.039   0.874  1.2726 -0.5107 -0.5650
 4333TIP3    H213006   5.781   0.055   0.844 -1.0707  2.8967  0.4947
 4334TIP3   OH213007   4.348   1.481   1.754  0.2677  0.3433 -0.8670
 4334TIP3    H113008   4.262   1.444   1.772 -0.3096  2.5621  1.6433
 4334TIP3    H213009   4.409   1.411   1.777 -0.8074  0.2098  1.9650
 4335TIP3   OH213010   1.858   0.394   0.176 -0.6365  0.0478 -0.0546
 4335TIP3    H113011   1.844   0.301   0.194  2.0167 -0.0228  2.4778
 4335TIP3    H213012   1.944   0.397   0.134  0.4404  1.4402  2.0895
 4336TIP3   OH213013   0.309   0.756   0.456 -0.3914  0.1009 -0.8784
 4336TIP3    H113014   0.403   0.750   0.468 -0.3174 -1.9522 -2.0260
 4336TIP3    H213015   0.297   0.831   0.398  0.6008  0.0551 -1.1535
 4337TIP3   OH213016   2.010   1.827   0.546  0.1353  0.0782  0.2825
 4337TIP3    H113017   2.008   1.731   0.548 -2.0173  0.0783  1.0947
 4337TIP3    H213018   1.919   1.852   0.533  0.3872  2.0361  1.7922
 4338TIP3   OH213019   1.444   1.760   4.240  0.1987  0.3639 -0.7107
 4338TIP3    H113020   1.444   1.687   4.178 -1.4445  0.6041 -1.0333
 4338TIP3    H213021   1.419   1.720   4.323 -1.2114  0.6193 -0.9960
 4339TIP3   OH213022   2.117   2.005   1.579 -0.2533 -0.1784  0.2300
 4339TIP3    H113023   2.027   1.975   1.569 -0.2158 -0.3690  0.4445
 4339TIP3    H213024   2.167   1.924   1.592 -0.0217 -0.0894 -0.1133
 4340TIP3   OH213025   0.651   3.296   2.163  0.3718  0.3010 -0.1256
 4340TIP3    H113026   0.709   3.345   2.106  0.4871 -0.6618 -0.8649
 4340TIP3    H213027   0.614   3.227   2.107  1.9145 -1.8492  1.3208
 4341TIP3   OH213028   1.807   2.089   4.257  0.1536 -0.9334  0.4313
 4341TIP3    H113029   1.794   1.995   4.245 -0.5588 -1.0057  1.6121
 4341TIP3    H213030   1.744   2.129   4.196 -0.5133 -1.2465  0.8929
 4342TIP3   OH213031   4.040   2.939   1.031  0.1886  0.1036  0.1598
 4342TIP3    H113032   4.101   2.877   0.992  0.8828  0.0776  1.2318
 4342TIP3    H213033   4.091   3.020   1.040 -1.2167  1.4726 -2.8768
 4343TIP3   OH213034   0.746   5.010   0.904  0.5806 -0.2685  0.2979
 4343TIP3    H113035   0.696   4.960   0.840  1.2262 -1.4045  0.6621
 4343TIP3    H213036   0.709   5.099   0.899 -1.0432 -0.9201  0.1241
 4344TIP3   OH213037   4.285   4.345   4.672 -0.1338 -0.2117  0.7085
 4344TIP3    H113038   4.374   4.310   4.683  0.6071  1.7599  1.2541
 4344TIP3    H213039   4.269   4.396   4.751 -0.9708  1.0862 -0.2610
 4345TIP3   OH213040   0.245   2.611   4.583  0.5735  0.1337  0.2209
 4345TIP3    H113041   0.167   2.635   4.534  1.1410  0.2405 -0.6680
 4345TIP3    H213042   0.291   2.695   4.596  0.1734  0.1792  1.4087
 4346TIP3   OH213043   1.014   3.381   3.641  0.0828  0.0344 -0.4526
 4346TIP3    H113044   0.922   3.407   3.633  0.2566  1.8681  2.3318
 4346TIP3    H213045   1.015   3.314   3.709  0.5217 -2.4187 -2.7174
 4347TIP3   OH213046   3.111   5.538   2.808 -0.4643 -0.4076 -0.0979
 4347TIP3    H113047   3.074   5.622   2.779  0.0196 -0.6233 -1.3986
 4347TIP3    H213048   3.034   5.482   2.821 -0.9671  0.7795  2.8101
 4348TIP3   OH213049   5.848   5.690   1.056 -0.1334 -0.3567 -0.5339
 4348TIP3    H113050   5.785   5.624   1.085  1.0365 -0.6164  1.5978
 4348TIP3    H213051   5.818   5.771   1.098  0.8032 -0.4397  0.3187
 4349TIP3   OH213052   0.735   2.317   1.804 -0.1483 -0.3875 -0.3706
 4349TIP3    H113053   0.728   2.391   1.743  0.4088 -0.4158 -0.4818
 4349TIP3    H213054   0.658   2.324   1.860  0.5808  1.0664  0.4930
 4350TIP3   OH213055   2.371   0.739   4.919  0.0360 -0.1201 -0.3774
 4350TIP3    H113056   2.391   0.816   4.866 -0.0585  0.1417 -0.0302
 4350TIP3    H213057   2.456   0.701   4.940  0.0613 -0.4501 -1.0455
 4351TIP3   OH213058   0.782   4.651   1.634 -0.0988  0.2364  0.0974
 4351TIP3    H113059   0.809   4.673   1.723  0.0569  1.1563 -0.1679
 4351TIP3    H213060   0.839   4.704   1.578 -0.9785  0.5526 -0.5176
 4352TIP3   OH213061   3.883   1.205   2.861  0.6540  0.2389  0.5264
 4352TIP3    H113062   3.917   1.196   2.950  1.4010 -0.5641  0.1678
 4352TIP3    H213063   3.790   1.183   2.869  1.3574 -3.3407  0.5740
 4353TIP3   OH213064   2.091   1.590   4.023 -0.1144 -0.2639  0.1844
 4353TIP3    H113065   2.058   1.506   3.992  0.8066 -0.8477  0.7331
 4353TIP3    H213066   2.163   1.611   3.963 -1.3853  0.9909 -0.9981
 4354TIP3   OH213067   2.579   4.785   0.844 -0.2863  0.4408 -0.3370
 4354TIP3    H113068   2.668   4.799   0.812  0.1744 -0.9284  0.2715
 4354TIP3    H213069   2.552   4.702   0.804 -1.1473  0.6573 -0.2185
 4355TIP3   OH213070   0.693   4.014   3.576  0.0513  0.0190 -0.3842
 4355TIP3    H113071   0.649   3.941   3.619  1.3540 -0.9304 -0.6044
 4355TIP3    H213072   0.661   4.013   3.486 -0.6540  0.3459 -0.1501
 4356TIP3   OH213073   5.305   2.717   3.353  0.1811 -0.7261  0.1232
 4356TIP3    H113074   5.340   2.703   3.265  0.5157 -4.9437  0.7328
 4356TIP3    H213075   5.210   2.716   3.341  0.2083  0.3018 -0.3149
 4357TIP3   OH213076   2.601   4.247   1.132  0.5968 -0.0306  0.6743
 4357TIP3    H113077   2.584   4.332   1.090  0.4706 -1.2090 -1.8284
 4357TIP3    H213078   2.690   4.256   1.166  0.8383  0.9200 -0.1243
 4358TIP3   OH213079   0.913   5.241   3.660  0.4938  0.3087 -0.9739
 4358TIP3    H113080   0.943   5.177   3.725  0.4355  0.4621 -0.7929
 4358TIP3    H213081   0.911   5.193   3.578  0.9508  0.2162 -0.9345
 4359TIP3   OH213082   6.264   2.478   0.972  0.0239  0.0520  0.5171
 4359TIP3    H113083   6.297   2.407   0.917  1.2490  0.4872  0.6468
 4359TIP3    H213084   6.320   2.477   1.050  0.9779  1.9480 -0.0585
 4360TIP3   OH213085   5.338   3.779   3.162  0.1524 -0.0878  0.3983
 4360TIP3    H113086   5.372   3.831   3.235  0.5023  1.4750 -0.8092
 4360TIP3    H213087   5.248   3.758   3.188  1.0957 -1.9251  2.4271
 4361TIP3   OH213088   1.436   5.596   4.180  0.5684  0.3604 -0.2855
 4361TIP3    H113089   1.354   5.547   4.175  0.6777 -0.0755  1.5453
 4361TIP3    H213090   1.468   5.598   4.090 -0.8472 -0.5009 -0.8406
 4362TIP3   OH213091   1.699   0.866   1.888 -0.4415  0.4560 -0.1516
 4362TIP3    H113092   1.763   0.924   1.849 -0.0555 -0.4317 -0.8706
 4362TIP3    H213093   1.632   0.924   1.924 -0.4971  1.3151 -1.5877
 4363TIP3   OH213094   1.546   5.480   3.852 -0.2460 -0.2957  0.0460
 4363TIP3    H113095   1.606   5.543   3.810 -1.0639  0.9974  0.7421
 4363TIP3    H213096   1.460   5.520   3.843 -0.9291 -1.7810 -0.2839
 4364TIP3   OH213097   2.293   1.805   4.541  0.4670 -0.2532 -0.0124
 4364TIP3    H113098   2.360   1.856   4.585  0.8602 -1.2061  0.5366
 4364TIP3    H213099   2.270   1.856   4.463  1.6498  0.1958 -0.0769
 4365TIP3   OH213100   0.533   3.182   0.297 -0.3381 -0.3972 -0.3058
 4365TIP3    H113101   0.486   3.160   0.216  0.2001 -3.7112  0.1467
 4365TIP3    H213102   0.490   3.131   0.365  0.2922  1.0274  1.2440
 4366TIP3   OH213103   1.831   0.964   5.145 -0.8970 -0.6384 -0.0091
 4366TIP3    H113104   1.782   0.969   5.063  0.0460 -2.4004 -0.7358
 4366TIP3    H213105   1.909   1.017   5.130 -0.9350 -0.6045 -0.0892
 4367TIP3   OH213106   2.984   5.273   4.177 -0.3686  0.2319  0.2204
 4367TIP3    H113107   3.014   5.184   4.162 -1.4033 -0.3887  1.6239
 4367TIP3    H213108   3.038   5.306   4.249  0.8921  1.2468 -1.1189
 4368TIP3   OH213109   4.934   2.539   3.900 -0.1368  0.5035 -0.2054
 4368TIP3    H113110   4.968   2.463   3.851 -0.1458  0.0791  0.4310
 4368TIP3    H213111   4.847   2.512   3.928 -0.0333  0.6394  0.2550
 4369TIP3   OH213112   5.727   5.751   4.900 -0.0791  0.2890 -0.2944
 4369TIP3    H113113   5.809   5.776   4.858 -0.0219 -2.1721 -1.7815
 4369TIP3    H213114   5.666   5.820   4.874  1.0603  1.2103 -0.6382
 4370TIP3   OH213115   6.231   5.264   4.203 -0.1790  0.1136 -0.8547
 4370TIP3    H113116   6.303   5.245   4.144  0.4853  0.5364 -0.1943
 4370TIP3    H213117   6.159   5.291   4.146 -0.2276 -1.5065 -1.6121
 4371TIP3   OH213118   2.927   2.984   2.198  0.2311 -0.4497  0.0005
 4371TIP3    H113119   2.887   3.056   2.247 -0.7204 -0.4351 -0.7549
 4371TIP3    H213120   3.019   3.008   2.190 -0.2192  1.0835 -0.8990
 4372TIP3   OH213121   5.056   1.646   3.553  0.1232  0.4473 -0.0095
 4372TIP3    H113122   5.043   1.675   3.463 -0.6026 -0.0925 -0.0885
 4372TIP3    H213123   5.103   1.563   3.545  1.1614  0.9904  0.1720
 4373TIP3   OH213124   0.932   5.529   3.890 -0.3521 -0.0898  0.7918
 4373TIP3    H113125   0.858   5.574   3.850  0.9279  1.4933  0.0531
 4373TIP3    H213126   0.986   5.599   3.926  2.1860 -0.8878 -1.1709
 4374TIP3   OH213127   2.955   2.013   0.759  0.3933  0.6694 -0.1055
 4374TIP3    H113128   2.883   2.035   0.699  0.1307 -1.1192 -0.5157
 4374TIP3    H213129   2.985   2.097   0.793  0.7356  1.7758 -2.9495
 4375TIP3   OH213130   3.249   2.387   0.040 -0.0570 -0.5211 -0.1043
 4375TIP3    H113131   3.231   2.298   0.009 -1.3427 -0.1879 -0.3671
 4375TIP3    H213132   3.278   2.434  -0.038  0.2976 -0.6083 -0.0305
 4376TIP3   OH213133   3.656   4.632   3.641 -0.1979  0.2877 -0.0613
 4376TIP3    H113134   3.576   4.671   3.607 -1.0164 -0.5496  0.8433
 4376TIP3    H213135   3.720   4.642   3.570 -1.6874 -0.8827 -1.6487
 4377TIP3   OH213136   6.173   4.964   2.401  0.4785  0.2471  0.6013
 4377TIP3    H113137   6.113   4.890   2.395  1.7580 -0.8074  0.1223
 4377TIP3    H213138   6.182   4.980   2.495 -0.3284  0.2370  0.6810
 4378TIP3   OH213139   1.528   5.663   0.395 -0.1804  0.9885 -0.0174
 4378TIP3    H113140   1.600   5.684   0.335 -0.9227  0.2747 -1.2074
 4378TIP3    H213141   1.564   5.680   0.482  0.9665  1.9663 -0.6453
 4379TIP3   OH213142   4.519   1.247   0.689  0.1244  0.9894 -0.0266
 4379TIP3    H113143   4.464   1.255   0.611  0.0008 -0.2674 -0.0844
 4379TIP3    H213144   4.512   1.333   0.731 -0.4753  1.4175 -0.9515
 4380TIP3   OH213145   3.246   3.472   2.053  0.5168 -0.4387  0.6646
 4380TIP3    H113146   3.317   3.427   2.099  0.6488 -0.7751  0.1381
 4380TIP3    H213147   3.172   3.410   2.058  0.8628 -0.9690 -0.5485
 4381TIP3   OH213148   1.875   5.169   2.737  0.0420 -0.4320 -0.4396
 4381TIP3    H113149   1.968   5.155   2.718  0.3652 -1.9188  1.8224
 4381TIP3    H213150   1.875   5.225   2.815 -0.9946 -0.1505 -0.6263
 4382TIP3   OH213151   0.945   4.128   0.173  0.5948  0.0706  0.3723
 4382TIP3    H113152   0.878   4.123   0.242  1.3569 -0.2865  1.1140
 4382TIP3    H213153   0.949   4.039   0.138 -1.3302  0.7142 -1.6905
 4383TIP3   OH213154   1.882   1.056   2.130 -0.0859 -0.7448  0.2875
 4383TIP3    H113155   1.888   1.131   2.071  1.3289 -0.4307  0.7957
 4383TIP3    H213156   1.792   1.060   2.164 -0.0215  0.7672  0.3693
 4384TIP3   OH213157   5.680   1.835   2.879 -0.3662  0.2995  0.3184
 4384TIP3    H113158   5.741   1.802   2.946  1.4144  0.2449 -1.2518
 4384TIP3    H213159   5.734   1.890   2.823 -1.5578 -0.4768 -1.6788
 4385TIP3   OH213160   1.605   3.147   2.090 -0.1058 -0.8569 -0.3066
 4385TIP3    H113161   1.535   3.212   2.080  0.5834  0.2133  1.3155
 4385TIP3    H213162   1.565   3.076   2.140  0.1495  0.2305  1.5809
 4386TIP3   OH213163   5.741   2.925   3.743  0.0594  0.1901 -0.2738
 4386TIP3    H113164   5.754   2.878   3.660  0.1384  1.8770 -1.2469
 4386TIP3    H213165   5.827   2.924   3.785  0.2670  0.2150 -0.6949
 4387TIP3   OH213166   5.707   2.176   4.778 -0.0074  0.8286 -0.0208
 4387TIP3    H113167   5.691   2.205   4.868 -1.2493  1.0238 -0.2847
 4387TIP3    H213168   5.784   2.225   4.750  0.5629  0.5503  1.0270
 4388TIP3   OH213169   3.672   3.743   3.412  0.4938  0.5537 -0.2740
 4388TIP3    H113170   3.615   3.769   3.339  0.6486  0.0860 -0.5686
 4388TIP3    H213171   3.634   3.662   3.444  1.5844 -0.3566 -1.1738
 4389TIP3   OH213172   1.416   4.758   2.557  0.6660  0.3448 -0.4359
 4389TIP3    H113173   1.346   4.823   2.562  0.6742  0.3246 -0.0358
 4389TIP3    H213174   1.496   4.807   2.571  0.5310 -0.0693  2.4356
 4390TIP3   OH213175   1.329   3.160   4.263  0.7181  0.1000 -0.6201
 4390TIP3    H113176   1.238   3.181   4.242 -0.1387 -1.9971  0.6020
 4390TIP3    H213177   1.369   3.244   4.286 -1.9707  0.7746  2.4830
 4391TIP3   OH213178   0.596   0.751   0.519 -0.3881  0.1877  0.4069
 4391TIP3    H113179   0.564   0.665   0.546  1.0921 -0.1384  1.2284
 4391TIP3    H213180   0.687   0.736   0.495 -0.2176  1.4664  0.1934
 4392TIP3   OH213181   3.564   0.811   2.955  0.0873  0.3240  0.3226
 4392TIP3    H113182   3.547   0.736   2.899  2.4542  0.5594 -0.8679
 4392TIP3    H213183   3.572   0.885   2.894  2.0804  0.7041  0.9650
 4393TIP3   OH213184   4.652   5.807   1.598  0.4567 -0.3641 -0.3585
 4393TIP3    H113185   4.709   5.759   1.657  0.7140  1.0184  0.5780
 4393TIP3    H213186   4.710   5.872   1.557 -0.1964  0.2450 -0.3297
 4394TIP3   OH213187   5.076   5.113   4.396  0.4777  0.0619  0.1924
 4394TIP3    H113188   5.014   5.184   4.382  0.4641 -0.1809 -1.1034
 4394TIP3    H213189   5.032   5.055   4.458 -0.3533  0.1997 -0.2458
 4395TIP3   OH213190   2.100   4.548   1.965  0.6033  0.0390  0.0390
 4395TIP3    H113191   2.055   4.464   1.958  1.3256 -0.5261  1.6392
 4395TIP3    H213192   2.030   4.613   1.958 -0.2344 -0.7614  0.7178
 4396TIP3   OH213193   2.347   3.393   1.300 -0.8055 -1.2792  0.5588
 4396TIP3    H113194   2.363   3.438   1.383  0.9109  0.0205 -0.4087
 4396TIP3    H213195   2.252   3.397   1.288 -0.9140  0.0574  1.6430
 4397TIP3   OH213196   4.946   4.905   2.405 -0.5306 -0.2709  0.4101
 4397TIP3    H113197   4.969   4.952   2.485  0.1121 -1.3909  0.9062
 4397TIP3    H213198   5.005   4.830   2.403 -0.1256  0.0379 -1.4298
 4398TIP3   OH213199   1.925   1.571   1.571 -0.3432  0.1524 -0.1324
 4398TIP3    H113200   1.998   1.588   1.512  0.7868  0.4441  1.3034
 4398TIP3    H213201   1.922   1.475   1.578  0.2495  0.1544  0.2105
 4399TIP3   OH213202   3.820   2.142   1.257 -0.0579 -0.2815 -0.2603
 4399TIP3    H113203   3.841   2.196   1.333 -1.3121 -0.2696  0.0919
 4399TIP3    H213204   3.754   2.080   1.288 -2.0094  0.9325 -1.7530
 4400TIP3   OH213205   1.220   1.942   0.793 -0.1032 -0.1413 -0.1966
 4400TIP3    H113206   1.231   2.032   0.825  0.9800 -0.5412  0.6104
 4400TIP3    H213207   1.131   1.918   0.818 -0.2947  0.6027 -0.1495
 4401TIP3   OH213208   1.962   1.582   4.312  0.0824  0.0085 -0.5171
 4401TIP3    H113209   1.869   1.602   4.325  0.2708  1.0323 -0.6666
 4401TIP3    H213210   1.964   1.528   4.233 -0.5988 -2.0687  0.8071
 4402TIP3   OH213211   1.719   3.555   2.337  0.2938  0.1930  0.3929
 4402TIP3    H113212   1.744   3.470   2.302  0.0765  1.3383 -2.8844
 4402TIP3    H213213   1.799   3.589   2.377  0.2550 -1.6698  2.1711
 4403TIP3   OH213214   3.206   3.071   2.240  0.6856  0.3246 -0.1380
 4403TIP3    H113215   3.289   3.024   2.238 -0.2167 -1.3081 -0.8831
 4403TIP3    H213216   3.230   3.163   2.225  2.3089 -0.1524 -0.6701
 4404TIP3   OH213217   4.224   4.790   2.601 -0.1774  0.5906 -0.2810
 4404TIP3    H113218   4.314   4.764   2.580 -0.5994 -0.3810 -0.9619
 4404TIP3    H213219   4.217   4.880   2.568  0.5664  0.7054 -0.1435
 4405TIP3   OH213220   1.816   4.903   3.287  0.3530  0.4007 -0.1556
 4405TIP3    H113221   1.772   4.988   3.295  1.3691  1.3616 -3.2313
 4405TIP3    H213222   1.872   4.899   3.364 -1.3388  1.4450  1.2258
 4406TIP3   OH213223   4.988   0.282   5.117 -0.0196  0.6158  0.1175
 4406TIP3    H113224   5.016   0.369   5.088 -0.4900  0.8127  0.2576
 4406TIP3    H213225   4.907   0.266   5.069 -0.6256  0.8023  1.0594
 4407TIP3   OH213226   0.824   1.241   0.760 -0.0732  0.0596  0.2276
 4407TIP3    H113227   0.902   1.263   0.709 -0.2176  2.5048  0.9377
 4407TIP3    H213228   0.782   1.171   0.710  2.8765 -1.8435  0.1705
 4408TIP3   OH213229   1.044   4.557   1.300  0.4210 -0.1532 -0.5284
 4408TIP3    H113230   1.091   4.476   1.276 -0.3119 -0.3857 -1.2216
 4408TIP3    H213231   1.096   4.627   1.260  0.8749 -0.3034 -0.2112
 4409TIP3   OH213232   0.672   5.077   2.288 -0.3251  0.0408  0.9068
 4409TIP3    H113233   0.748   5.059   2.232  0.0042  0.6020  1.1658
 4409TIP3    H213234   0.626   5.148   2.243 -0.2719  0.2282  1.1502
 4410TIP3   OH213235   5.364   2.465   4.834 -0.2516 -0.0426  0.1679
 4410TIP3    H113236   5.284   2.464   4.886 -0.5398 -0.1671 -0.2687
 4410TIP3    H213237   5.405   2.549   4.854 -0.9356  0.4002 -0.2635
 4411TIP3   OH213238   4.878   4.860   2.971 -0.0483  0.0404 -0.2198
 4411TIP3    H113239   4.950   4.881   3.030 -0.1277 -0.3920  0.0344
 4411TIP3    H213240   4.919   4.846   2.886  0.1135  0.2288 -0.1739
 4412TIP3   OH213241   1.236   2.237   5.145  0.4683 -0.3435  0.0104
 4412TIP3    H113242   1.202   2.304   5.205 -1.3139 -0.1022 -1.1975
 4412TIP3    H213243   1.318   2.210   5.185 -0.3896  0.1586  2.3038
 4413TIP3   OH213244   3.281   3.416   4.847 -0.5180 -0.1474  0.2728
 4413TIP3    H113245   3.328   3.339   4.880 -2.1443 -2.0412 -1.5785
 4413TIP3    H213246   3.338   3.451   4.779 -0.5126 -0.7190 -0.0195
 4414TIP3   OH213247   0.045   2.030   3.799 -0.5600 -0.1189  0.4933
 4414TIP3    H113248   0.011   2.092   3.735 -3.5796 -1.8687  0.2506
 4414TIP3    H213249   0.020   2.066   3.884 -3.0390 -1.2755  0.3251
 4415TIP3   OH213250   6.111   4.140   2.546 -0.4049  0.0923  0.2003
 4415TIP3    H113251   6.087   4.054   2.511 -1.9807  0.3400  0.5785
 4415TIP3    H213252   6.032   4.170   2.592  0.4077  1.3560  0.8308
 4416TIP3   OH213253   2.086   4.990   0.899  0.5320  0.6785 -0.0667
 4416TIP3    H113254   2.180   4.973   0.888  0.3386  0.2899 -1.2856
 4416TIP3    H213255   2.072   5.071   0.850 -0.0689 -0.1745 -1.3342
 4417TIP3   OH213256   4.167   3.380   2.563 -0.3137  0.5171 -0.1460
 4417TIP3    H113257   4.102   3.313   2.582 -0.2226  1.1602  2.9019
 4417TIP3    H213258   4.160   3.393   2.468 -1.9964 -2.0265 -0.4870
 4418TIP3   OH213259   6.165   4.537   0.016  0.2996  0.1474 -0.0145
 4418TIP3    H113260   6.071   4.524   0.004  0.1894  1.5468 -0.8423
 4418TIP3    H213261   6.205   4.457  -0.018 -0.6030 -0.6814  0.8211
 4419TIP3   OH213262   2.207   0.402   3.804 -0.1901  0.0716  0.2769
 4419TIP3    H113263   2.248   0.409   3.890  0.1313  1.6733  0.0376
 4419TIP3    H213264   2.174   0.313   3.799  1.7417 -0.7370  1.1764
 4420TIP3   OH213265   0.800   2.469   2.184 -0.0102  0.0051 -0.4588
 4420TIP3    H113266   0.833   2.544   2.233  0.5221 -0.4908 -0.0396
 4420TIP3    H213267   0.705   2.481   2.182 -0.0341  0.1317  0.5579
 4421TIP3   OH213268   2.740   4.429   3.157 -0.5533  0.2104 -0.1480
 4421TIP3    H113269   2.720   4.366   3.088  1.4774 -1.5868  0.7737
 4421TIP3    H213270   2.671   4.417   3.222 -1.5902  0.7977 -1.1037
 4422TIP3   OH213271   3.530   3.442   3.433  0.0573 -0.1641  0.3404
 4422TIP3    H113272   3.527   3.401   3.520 -0.1106  0.1603  0.4906
 4422TIP3    H213273   3.443   3.425   3.396 -0.2607  0.6574  0.6869
 4423TIP3   OH213274   0.838   0.309   4.004  0.4110  0.1194 -0.4452
 4423TIP3    H113275   0.858   0.299   4.097  0.7030 -0.0154 -0.5220
 4423TIP3    H213276   0.742   0.303   3.999  0.3957  0.1094 -0.1582
 4424TIP3   OH213277   3.616   4.907   3.234 -0.6363 -0.1431  0.0260
 4424TIP3    H113278   3.694   4.927   3.183 -0.0179 -0.0117  1.0022
 4424TIP3    H213279   3.604   4.983   3.291 -0.0258 -1.1853  1.6292
 4425TIP3   OH213280   2.256   5.584   2.148 -0.0279  0.2306  0.3122
 4425TIP3    H113281   2.162   5.574   2.163 -0.3433  0.4876 -1.3737
 4425TIP3    H213282   2.266   5.583   2.053  1.5789  1.1758  0.4375
 4426TIP3   OH213283   5.447   0.203   1.782  0.2401  0.0661  0.4405
 4426TIP3    H113284   5.534   0.180   1.814  0.2935 -0.8827 -0.3637
 4426TIP3    H213285   5.425   0.284   1.829  1.3088  0.0048  1.0702
 4427TIP3   OH213286   4.398   3.095   2.780 -0.4736  0.6814  0.0827
 4427TIP3    H113287   4.435   3.040   2.849  1.9426 -1.0077 -2.3398
 4427TIP3    H213288   4.409   3.184   2.812  0.2671 -0.0428  1.9981
 4428TIP3   OH213289   3.726   0.464   2.687  0.2344  0.6032  0.0044
 4428TIP3    H113290   3.734   0.496   2.777  0.8010  0.2099  0.0974
 4428TIP3    H213291   3.816   0.444   2.660  0.1340  1.2556 -0.8524
 4429TIP3   OH213292   4.444   0.482   1.327 -0.2854  0.4111 -0.2145
 4429TIP3    H113293   4.501   0.503   1.252 -0.9750  0.8362 -0.6297
 4429TIP3    H213294   4.473   0.542   1.396  0.5184 -0.1520 -0.0531
 4430TIP3   OH213295   2.761   3.696   3.781  0.0195  0.0008 -0.5577
 4430TIP3    H113296   2.744   3.631   3.712 -1.7275 -1.0421  0.7678
 4430TIP3    H213297   2.678   3.743   3.790 -0.3363 -0.9449  1.8301
 4431TIP3   OH213298   1.220   4.851   3.662  0.2480  0.3826  0.2165
 4431TIP3    H113299   1.308   4.843   3.625 -0.5054  1.6331 -2.1154
 4431TIP3    H213300   1.207   4.770   3.711  1.1820 -1.9043 -2.9295
 4432TIP3   OH213301   2.980   0.794   2.940 -0.5683 -0.1947 -0.3190
 4432TIP3    H113302   2.996   0.790   3.035  0.3241  1.3750 -0.3758
 4432TIP3    H213303   3.042   0.731   2.903 -0.2118 -0.0675  0.0570
 4433TIP3   OH213304   3.965   3.801   0.430  0.4100 -0.5961 -0.0205
 4433TIP3    H113305   4.045   3.750   0.421  0.1387 -1.1056  0.4000
 4433TIP3    H213306   3.966   3.861   0.356  1.8244  0.2852  0.6554
 4434TIP3   OH213307   3.698   1.963   2.923 -0.3039 -0.2233  0.5681
 4434TIP3    H113308   3.660   1.999   2.842  0.6854  0.3983  0.3736
 4434TIP3    H213309   3.622   1.929   2.971 -0.8943 -0.7979 -0.7098
 4435TIP3   OH213310   0.559   5.904   1.895  0.3869 -0.2184 -0.3880
 4435TIP3    H113311   0.561   5.991   1.856 -1.3013 -0.8079 -1.8887
 4435TIP3    H213312   0.623   5.854   1.844 -0.6144 -0.5513 -1.3395
 4436TIP3   OH213313   3.745   0.459   2.957 -0.3055 -0.1126 -0.1501
 4436TIP3    H113314   3.831   0.420   2.945 -0.9013 -1.1625 -1.2781
 4436TIP3    H213315   3.727   0.449   3.051  1.5988  1.9440  0.5103
 4437TIP3   OH213316   4.044   1.108   2.214  0.1140  0.0590  0.2516
 4437TIP3    H113317   3.966   1.147   2.174  1.1510  0.5468 -1.4027
 4437TIP3    H213318   4.116   1.134   2.156  1.5466 -0.2361  1.8118
 4438TIP3   OH213319   2.216   1.147   2.004  0.3327  0.0712 -0.1735
 4438TIP3    H113320   2.241   1.157   1.912  1.1820 -1.0217 -0.0875
 4438TIP3    H213321   2.126   1.178   2.008  0.5749  0.9622 -1.1969
 4439TIP3   OH213322   3.161   0.856   2.678  0.0115  0.0124 -0.0438
 4439TIP3    H113323   3.133   0.934   2.726  2.2435  1.2744 -0.6275
 4439TIP3    H213324   3.137   0.873   2.588  0.9755  0.3001 -0.2593
 4440TIP3   OH213325   0.511   0.262   0.325  0.1523 -0.2272  0.1907
 4440TIP3    H113326   0.598   0.297   0.305 -0.0183  0.8685  1.2547
 4440TIP3    H213327   0.453   0.304   0.262  0.4121 -1.1724 -0.7038
 4441TIP3   OH213328   1.717   1.773   3.024 -0.5531  0.1552  0.3454
 4441TIP3    H113329   1.759   1.859   3.035  0.4188 -0.0942 -1.1996
 4441TIP3    H213330   1.783   1.710   3.051 -0.1392 -0.2083 -1.3908
 4442TIP3   OH213331   0.629   4.895   1.142 -0.4841 -0.3285 -0.0508
 4442TIP3    H113332   0.545   4.930   1.171 -0.0622 -0.8219  1.8518
 4442TIP3    H213333   0.680   4.973   1.117 -1.3911 -0.0158 -1.0041
 4443TIP3   OH213334   3.559   5.405   3.349 -0.2571 -0.1534 -0.2578
 4443TIP3    H113335   3.534   5.317   3.375 -1.3195  0.3869  0.6141
 4443TIP3    H213336   3.493   5.462   3.387  1.0708  1.1457  0.2340
 4444TIP3   OH213337   5.721   3.293   3.838  0.4491  0.3225 -0.1679
 4444TIP3    H113338   5.735   3.211   3.791  1.5915  0.1116  0.4972
 4444TIP3    H213339   5.641   3.278   3.888  0.2278 -0.1056 -0.6374
 4445TIP3   OH213340   3.303   2.671   5.094 -0.3118  0.0051  0.3423
 4445TIP3    H113341   3.257   2.639   5.016  0.4180  0.6513 -0.3677
 4445TIP3    H213342   3.285   2.765   5.095 -2.3348 -0.3190  2.3344
 4446TIP3   OH213343   0.053   4.592   2.662 -0.0146  0.5162 -0.0344
 4446TIP3    H113344   0.074   4.503   2.690  1.1092  0.4898 -0.9095
 4446TIP3    H213345   0.135   4.640   2.670 -0.3284  1.1775 -0.6830
 4447TIP3   OH213346   1.944   2.974   0.800  0.0441  0.1143  0.0471
 4447TIP3    H113347   1.888   3.046   0.771 -0.0008  0.6227  1.3567
 4447TIP3    H213348   1.892   2.927   0.865  1.4476  1.1673  2.0074
 4448TIP3   OH213349   4.358   5.874   1.243 -0.0255  0.4521 -0.2746
 4448TIP3    H113350   4.391   5.850   1.330 -0.1624 -1.5878 -0.7322
 4448TIP3    H213351   4.263   5.879   1.254  0.0522  1.6738 -0.0056
 4449TIP3   OH213352   5.238   1.912   2.163 -0.1328 -0.0203 -0.8184
 4449TIP3    H113353   5.283   1.996   2.159  1.3161 -0.8043 -2.1746
 4449TIP3    H213354   5.151   1.930   2.127 -1.2152  1.6174  2.2642
 4450TIP3   OH213355   4.155   2.140   1.243 -0.3282 -0.0911 -0.2097
 4450TIP3    H113356   4.122   2.228   1.225 -0.0415  0.1764  0.5148
 4450TIP3    H213357   4.079   2.094   1.280 -0.5328 -0.2175 -0.7741
 4451TIP3   OH213358   3.598   0.073   0.976  0.4382 -0.2652 -0.3878
 4451TIP3    H113359   3.645   0.151   0.946  0.5613 -0.7688 -1.5518
 4451TIP3    H213360   3.584   0.089   1.070  1.4349  0.6551 -0.3651
 4452TIP3   OH213361   2.917   4.410   4.473 -0.1681 -0.7390  0.1420
 4452TIP3    H113362   2.990   4.468   4.495 -2.0470  0.9985  2.2512
 4452TIP3    H213363   2.879   4.387   4.558 -2.2533 -1.3390 -0.8993
 4453TIP3   OH213364   2.433   3.108   2.476 -0.2110 -0.0126  0.0613
 4453TIP3    H113365   2.477   3.098   2.391 -0.6642  0.2793 -0.2099
 4453TIP3    H213366   2.429   3.018   2.511  0.8628 -0.0130  0.2356
 4454TIP3   OH213367   5.494   3.033   0.461  0.3145  0.2471 -0.1641
 4454TIP3    H113368   5.415   3.051   0.410 -0.5380 -2.2262  0.0999
 4454TIP3    H213369   5.479   3.075   0.546 -0.5994  0.0977 -0.2444
 4455TIP3   OH213370   5.228   4.166   4.100  0.5693  0.0656  0.2020
 4455TIP3    H113371   5.267   4.219   4.169  0.4104  0.9217 -0.3427
 4455TIP3    H213372   5.154   4.218   4.069  0.5331 -0.3754 -0.4846
 4456TIP3   OH213373   6.024   2.270   4.677 -0.3101  0.0837 -0.2743
 4456TIP3    H113374   6.044   2.178   4.694 -1.7015 -0.0572  0.7912
 4456TIP3    H213375   6.081   2.318   4.737 -2.2559 -0.2772  2.0469
 4457TIP3   OH213376   4.508   4.178   4.934  0.0162 -0.0856 -0.4800
 4457TIP3    H113377   4.525   4.203   5.025 -0.8081 -0.1521 -0.3004
 4457TIP3    H213378   4.423   4.134   4.937 -0.5634  0.9208 -1.4526
 4458TIP3   OH213379   3.647   3.770   3.683 -0.0168  0.2085  0.1761
 4458TIP3    H113380   3.740   3.776   3.705 -0.0386 -0.1429  0.3685
 4458TIP3    H213381   3.646   3.758   3.588  0.0962  1.1967  0.0469
 4459TIP3   OH213382   3.735   4.828   4.453  0.5294 -0.7883  0.0214
 4459TIP3    H113383   3.771   4.895   4.395  0.2974  0.3285  1.1275
 4459TIP3    H213384   3.644   4.819   4.426  0.0977  0.5747  0.9243
 4460TIP3   OH213385   2.053   0.824   2.035  0.2818 -0.0643  0.1425
 4460TIP3    H113386   1.992   0.898   2.042  1.6377  0.9305  2.7791
 4460TIP3    H213387   2.013   0.755   2.088  0.1832 -0.3842 -0.3407
 4461TIP3   OH213388   0.979   0.366   1.893  0.3119  0.6241  0.2535
 4461TIP3    H113389   1.063   0.322   1.906  0.7579  2.0389  2.8926
 4461TIP3    H213390   0.915   0.310   1.937  0.3190  0.8575  0.5648
 4462TIP3   OH213391   0.797   5.717   3.464  0.1223 -0.5302 -0.1147
 4462TIP3    H113392   0.783   5.637   3.412  1.0449  0.3034 -1.7428
 4462TIP3    H213393   0.729   5.777   3.433  0.8048  0.0443 -0.5072
 4463TIP3   OH213394   3.003   4.947   3.689  0.3344  0.1137 -0.0823
 4463TIP3    H113395   2.989   4.858   3.656  0.7112  0.2906 -0.7230
 4463TIP3    H213396   2.967   4.944   3.778 -1.2929 -0.1983 -0.7028
 4464TIP3   OH213397   0.219   4.503   3.766  0.5858  0.3557  0.0590
 4464TIP3    H113398   0.132   4.540   3.748  0.6062  0.1276 -0.5394
 4464TIP3    H213399   0.247   4.546   3.847 -1.0993 -1.2931  1.6236
 4465TIP3   OH213400   0.056   0.120   2.379 -0.1842 -0.1312 -0.4016
 4465TIP3    H113401   0.138   0.074   2.366  0.1687 -0.4059  2.2565
 4465TIP3    H213402   0.031   0.150   2.292  2.8716  0.2286 -1.2599
 4466TIP3   OH213403   1.180   0.270   2.944 -0.8115 -0.3372  0.4326
 4466TIP3    H113404   1.232   0.195   2.972 -0.3858 -0.3267 -0.3053
 4466TIP3    H213405   1.163   0.254   2.851  0.3749  1.0915 -0.0718
 4467TIP3   OH213406   3.715   4.755   3.864  0.1519 -0.1078  0.1596
 4467TIP3    H113407   3.785   4.806   3.824  0.2474 -0.5761 -0.2769
 4467TIP3    H213408   3.656   4.733   3.792 -0.3285  0.0885  0.4835
 4468TIP3   OH213409   3.140   2.274   2.079 -0.1765 -0.2368  0.0279
 4468TIP3    H113410   3.060   2.263   2.130 -0.5338 -1.4009 -0.7565
 4468TIP3    H213411   3.118   2.242   1.991  1.4030 -1.5082  0.0478
 4469TIP3   OH213412   0.171   1.704   1.663  0.2728 -0.2805  0.0067
 4469TIP3    H113413   0.148   1.621   1.704  2.9650 -0.4592  1.3931
 4469TIP3    H213414   0.265   1.697   1.646  0.4725  2.2777 -0.3277
 4470TIP3   OH213415   1.225   5.158   0.401 -0.9714  0.0232 -0.3873
 4470TIP3    H113416   1.278   5.212   0.342  0.4583  0.9038  1.5607
 4470TIP3    H213417   1.283   5.084   0.424 -1.5669 -0.4010 -0.2226
 4471TIP3   OH213418   5.851   2.316   0.997 -0.2807  0.3825  0.0604
 4471TIP3    H113419   5.779   2.306   1.059  0.1353 -1.8655  0.2692
 4471TIP3    H213420   5.901   2.391   1.029 -0.3585 -0.4126  2.1647
 4472TIP3   OH213421   1.685   0.488   1.171 -0.4920 -0.6235  0.3506
 4472TIP3    H113422   1.749   0.485   1.243  1.2761  0.3871 -1.0910
 4472TIP3    H213423   1.615   0.545   1.204  0.5641  0.2924  1.0994
 4473TIP3   OH213424   2.966   1.964   0.027 -0.2308  0.4820  1.0349
 4473TIP3    H113425   2.993   1.885   0.074 -1.2755  0.2298  1.2361
 4473TIP3    H213426   2.886   1.992   0.071 -0.8128  0.6870 -0.1133
 4474TIP3   OH213427   4.578   1.869   5.101  0.2154  0.0617 -0.0799
 4474TIP3    H113428   4.656   1.893   5.152 -0.1611  2.5123 -0.5559
 4474TIP3    H213429   4.522   1.824   5.164  0.6657  1.1195  1.1207
 4475TIP3   OH213430   4.174   5.306   2.479 -0.1182 -0.3957  0.0173
 4475TIP3    H113431   4.175   5.279   2.571  3.2644 -2.0276 -0.3490
 4475TIP3    H213432   4.091   5.273   2.446 -0.1157 -2.4760  1.8128
 4476TIP3   OH213433   6.339   2.886   3.962  0.0288 -0.8915 -0.6264
 4476TIP3    H113434   6.331   2.841   3.878  1.1908 -1.1476 -0.6193
 4476TIP3    H213435   6.256   2.869   4.007 -1.0613  0.1600 -2.1374
 4477TIP3   OH213436   3.486   2.777   0.653 -0.4427  0.5804 -0.6395
 4477TIP3    H113437   3.499   2.709   0.720  0.6241  0.1420 -1.2566
 4477TIP3    H213438   3.559   2.838   0.666 -1.9861  2.2603  0.6083
 4478TIP3   OH213439   5.048   3.098   0.706  0.2341  0.2518 -0.0937
 4478TIP3    H113440   5.031   3.093   0.800 -1.1813 -1.8338 -0.3780
 4478TIP3    H213441   4.960   3.098   0.666  0.7666  2.4753 -1.4193
 4479TIP3   OH213442   5.163   1.830   3.769  0.3188  0.1533 -0.0445
 4479TIP3    H113443   5.179   1.805   3.860 -0.1090  0.6608  0.1754
 4479TIP3    H213444   5.159   1.747   3.722  1.5150 -0.0805  0.2307
 4480TIP3   OH213445   2.873   1.103   0.421 -0.1599 -0.4858  0.0291
 4480TIP3    H113446   2.789   1.134   0.387  1.1274  0.9339 -2.1667
 4480TIP3    H213447   2.935   1.173   0.397  1.4753 -0.9258  2.6224
 4481TIP3   OH213448   0.678   1.459   2.204  0.1209 -0.0407 -0.2127
 4481TIP3    H113449   0.645   1.383   2.253 -1.2216  0.8136  0.2438
 4481TIP3    H213450   0.660   1.534   2.260  0.2761  0.7631 -1.2117
 4482TIP3   OH213451   4.042   2.582   0.923  0.1789  0.5938 -0.4766
 4482TIP3    H113452   4.056   2.644   0.852  1.6117  2.0623  0.9977
 4482TIP3    H213453   3.968   2.618   0.972  1.8944  2.0183  1.1950
 4483TIP3   OH213454   4.305   0.310   4.371 -0.2720  0.1203  0.3512
 4483TIP3    H113455   4.273   0.399   4.353 -0.1766 -0.0510 -0.7531
 4483TIP3    H213456   4.243   0.275   4.435 -0.8455  0.6621  0.1093
 4484TIP3   OH213457   5.340   5.265   4.127 -0.4033 -0.5128  0.2771
 4484TIP3    H113458   5.279   5.328   4.089 -1.9853 -1.9626  0.2927
 4484TIP3    H213459   5.286   5.210   4.184  1.2456 -0.7540  1.7041
 4485TIP3   OH213460   0.510   5.202   1.204 -0.5783 -0.1388  0.3456
 4485TIP3    H113461   0.435   5.243   1.161 -1.0603 -2.3309 -1.1230
 4485TIP3    H213462   0.486   5.109   1.209  2.3877 -1.0948 -1.0732
 4486TIP3   OH213463   3.422   4.185   3.986  0.3969  0.1196 -0.7806
 4486TIP3    H113464   3.480   4.254   4.019  1.2344 -1.3827  1.1125
 4486TIP3    H213465   3.482   4.122   3.946 -0.1717 -0.3408 -0.9007
 4487TIP3   OH213466   1.185   2.685   4.322  1.0221 -0.5299  0.0717
 4487TIP3    H113467   1.172   2.599   4.361  1.9877  0.0143  1.6826
 4487TIP3    H213468   1.278   2.688   4.300  1.4586  0.8040  1.9062
 4488TIP3   OH213469   2.208   2.378   2.668 -0.1357  0.9721  0.1820
 4488TIP3    H113470   2.128   2.385   2.720  0.6304 -0.3609  1.5972
 4488TIP3    H213471   2.268   2.441   2.707  0.6205 -0.4039  1.3024
 4489TIP3   OH213472   1.355   0.448   2.083 -0.1109 -0.2350 -0.1395
 4489TIP3    H113473   1.298   0.468   2.157 -1.0327 -1.9691 -0.3175
 4489TIP3    H213474   1.443   0.446   2.119 -0.5209 -0.7540  0.8592
 4490TIP3   OH213475   6.277   2.587   4.113 -0.3286 -0.0471 -0.2429
 4490TIP3    H113476   6.199   2.546   4.075 -1.4835  2.8620 -1.3307
 4490TIP3    H213477   6.346   2.572   4.049 -0.1634 -1.9226  0.3292
 4491TIP3   OH213478   4.853   5.932   4.409  0.0141  0.0695  1.1142
 4491TIP3    H113479   4.937   5.948   4.365 -0.8562  0.4493 -0.4779
 4491TIP3    H213480   4.803   6.012   4.394 -0.9625 -0.5000  1.2452
 4492TIP3   OH213481   1.353   0.641   4.948  0.4128  0.0426 -0.2080
 4492TIP3    H113482   1.326   0.603   5.031 -3.0786  0.2916 -1.0813
 4492TIP3    H213483   1.386   0.566   4.897  0.0340 -0.5793  0.4426
 4493TIP3   OH213484   0.759   3.376   2.680  0.2470 -0.2584  0.1258
 4493TIP3    H113485   0.773   3.321   2.757 -1.2460  1.2801  1.6039
 4493TIP3    H213486   0.770   3.465   2.713  0.1955  0.4118 -1.6080
 4494TIP3   OH213487   2.105   5.693   1.076 -0.3836 -0.1859 -0.1220
 4494TIP3    H113488   2.076   5.681   1.167  2.2552 -1.6499  0.6265
 4494TIP3    H213489   2.101   5.605   1.038  0.4596  0.0546 -0.7955
 4495TIP3   OH213490   1.307   5.460   1.124 -0.1905 -0.2550  0.0622
 4495TIP3    H113491   1.393   5.439   1.089 -0.5980  0.1099 -1.2119
 4495TIP3    H213492   1.307   5.555   1.132 -0.6210 -0.2093 -0.3917
 4496TIP3   OH213493   0.210   5.328   2.298 -0.4018  0.1866 -0.0884
 4496TIP3    H113494   0.171   5.251   2.257 -0.4039  0.8287 -1.3694
 4496TIP3    H213495   0.224   5.303   2.389 -1.1097 -1.0525 -0.2959
 4497TIP3   OH213496   5.659   5.527   4.430  0.4054 -0.1581 -0.8898
 4497TIP3    H113497   5.601   5.580   4.375 -0.5463  1.5083  1.5822
 4497TIP3    H213498   5.708   5.590   4.482 -0.5923 -1.5937  1.9888
 4498TIP3   OH213499   1.259   3.025   4.555  0.0228 -0.3060 -0.2334
 4498TIP3    H113500   1.329   2.960   4.544  0.9086  0.7056 -0.8524
 4498TIP3    H213501   1.298   3.107   4.523 -2.0053 -0.0486 -2.2875
 4499TIP3   OH213502   0.846   3.388   1.950 -0.1085  0.0167  0.7365
 4499TIP3    H113503   0.877   3.340   1.873 -1.0477 -1.9110  1.4907
 4499TIP3    H213504   0.848   3.480   1.924 -1.2562 -0.6249 -1.9409
 4500TIP3   OH213505   5.481   3.942   1.442  0.4036 -0.2437  0.3000
 4500TIP3    H113506   5.408   3.904   1.393  0.7963 -1.0509  0.3265
 4500TIP3    H213507   5.483   3.892   1.524  2.3818 -1.8121 -0.6188
 4501TIP3   OH213508   5.873   4.208   2.657  0.6655  0.6849  0.3608
 4501TIP3    H113509   5.819   4.279   2.691 -0.0680  1.4165 -2.1633
 4501TIP3    H213510   5.826   4.128   2.682 -0.4182  1.2326  0.1251
 4502TIP3   OH213511   0.122   4.425   3.240  0.2883  0.1288  0.1870
 4502TIP3    H113512   0.075   4.354   3.196 -0.1219 -0.5729  1.6844
 4502TIP3    H213513   0.095   4.504   3.195 -1.1426 -0.4304  0.0153
 4503TIP3   OH213514   4.570   4.080   1.571  0.1714  0.4622  0.1594
 4503TIP3    H113515   4.567   4.149   1.637  2.2709 -1.2170  2.1558
 4503TIP3    H213516   4.663   4.068   1.552 -0.1863 -1.2151 -0.7977
 4504TIP3   OH213517   0.587   1.286   4.760  0.4255 -0.2808  0.1636
 4504TIP3    H113518   0.549   1.226   4.696  0.3371 -0.6670  0.5808
 4504TIP3    H213519   0.660   1.239   4.798 -0.1914 -0.4827  1.1464
 4505TIP3   OH213520   4.743   0.232   5.001 -0.5067  0.0071  0.8191
 4505TIP3    H113521   4.729   0.155   4.947  1.5475  0.9265 -1.1872
 4505TIP3    H213522   4.657   0.271   5.012 -1.2268 -1.2563 -0.1534
 4506TIP3   OH213523   4.172   3.224   4.343 -0.2862  0.2636 -0.0320
 4506TIP3    H113524   4.136   3.151   4.394  1.1513  0.6428  1.6522
 4506TIP3    H213525   4.267   3.209   4.344 -0.0859  1.3397 -0.9633
 4507TIP3   OH213526   3.596   1.470   1.329 -0.3497 -0.0451  0.2281
 4507TIP3    H113527   3.592   1.518   1.412 -1.2441  0.5130 -0.1292
 4507TIP3    H213528   3.687   1.440   1.324 -0.3503 -0.3547  1.5509
 4508TIP3   OH213529   4.608   2.501   1.602 -0.4170 -0.0601 -0.1849
 4508TIP3    H113530   4.529   2.540   1.639  0.1417  0.7990  0.1516
 4508TIP3    H213531   4.675   2.516   1.669  0.4117  0.6954 -1.1474
 4509TIP3   OH213532   2.624   3.018   2.127  0.4617  0.9309  0.6007
 4509TIP3    H113533   2.672   2.972   2.058 -0.2502  1.3544 -0.2007
 4509TIP3    H213534   2.692   3.061   2.179  0.9961  0.9549 -0.0955
 4510TIP3   OH213535   3.556   5.893   3.257 -0.2411 -0.0394 -0.1708
 4510TIP3    H113536   3.584   5.908   3.167  0.7434  0.9810  0.2833
 4510TIP3    H213537   3.465   5.863   3.249 -0.0829 -0.2178 -1.5039
 4511TIP3   OH213538   5.748   1.687   4.558 -0.0281  0.2023 -0.0068
 4511TIP3    H113539   5.765   1.679   4.464  1.9335  0.7277  0.2430
 4511TIP3    H213540   5.835   1.682   4.598 -0.8075  0.1381  1.7778
 4512TIP3   OH213541   6.176   1.638   2.977 -0.4485 -0.0952  0.2023
 4512TIP3    H113542   6.215   1.724   2.995 -2.1331  0.9719 -0.9075
 4512TIP3    H213543   6.251   1.583   2.952  0.8821  0.5502  2.4620
 4513TIP3   OH213544   5.900   4.798   4.370  0.5237 -0.4146  0.0250
 4513TIP3    H113545   5.921   4.765   4.458  3.3040  3.2166  0.9835
 4513TIP3    H213546   5.980   4.782   4.319 -0.8907 -2.0534 -1.8468
 4514TIP3   OH213547   4.711   0.932   4.558 -0.1394 -0.3433  0.2061
 4514TIP3    H113548   4.795   0.895   4.532 -0.2851 -1.4001  1.1832
 4514TIP3    H213549   4.707   0.918   4.652 -1.8513 -1.2069  0.0333
 4515TIP3   OH213550   0.145   3.144   3.895 -0.4074  0.7430  0.0187
 4515TIP3    H113551   0.092   3.189   3.829  1.4919  1.9872 -0.7609
 4515TIP3    H213552   0.088   3.077   3.932 -1.5552  0.0087 -2.8832
 4516TIP3   OH213553   5.957   5.554   2.034 -0.1465  0.5211  0.2366
 4516TIP3    H113554   6.007   5.548   2.115  0.0943  1.2766  0.1496
 4516TIP3    H213555   6.019   5.527   1.966 -0.5206 -0.6847  0.3532
 4517TIP3   OH213556   0.124   1.983   3.228  0.1790  0.6079  0.0558
 4517TIP3    H113557   0.187   1.913   3.246 -0.2795  0.4061  0.9390
 4517TIP3    H213558   0.067   1.985   3.305  0.7729  2.6019  0.5213
 4518TIP3   OH213559   4.713   2.730   2.696  0.2598 -0.2198 -0.3976
 4518TIP3    H113560   4.760   2.703   2.617  1.3135 -0.3509  0.2441
 4518TIP3    H213561   4.734   2.823   2.706  0.5488 -0.3250 -0.0020
 4519TIP3   OH213562   6.143   1.075   0.239 -0.1033  0.7008  0.1060
 4519TIP3    H113563   6.207   1.146   0.235  1.3408 -0.5578  0.1099
 4519TIP3    H213564   6.189   1.004   0.284 -2.3616  0.6032  2.4921
 4520TIP3   OH213565   3.839   4.068   0.449  0.9421  0.0549  0.4250
 4520TIP3    H113566   3.920   4.112   0.424  0.4335 -0.6989 -3.0704
 4520TIP3    H213567   3.770   4.120   0.408  0.0281 -1.6131 -0.2385
 4521TIP3   OH213568   2.980   3.675   0.064  0.0263 -0.3164 -0.2585
 4521TIP3    H113569   3.059   3.719   0.097 -0.3048  0.3828 -0.3865
 4521TIP3    H213570   3.012   3.592   0.030  1.0562  0.7845 -2.1818
 4522TIP3   OH213571   5.792   3.221   1.323 -0.6065 -0.5453 -0.2673
 4522TIP3    H113572   5.828   3.250   1.407 -1.3461 -2.8292  0.9125
 4522TIP3    H213573   5.808   3.295   1.264 -0.2015  1.2067  1.8904
 4523TIP3   OH213574   6.157   0.240   4.404 -0.0324 -0.3018  0.1838
 4523TIP3    H113575   6.194   0.322   4.374  0.1563 -0.1442  0.8380
 4523TIP3    H213576   6.231   0.180   4.408 -0.4382 -1.0660 -2.0693
 4524TIP3   OH213577   2.805   1.125   2.938  0.3645  0.6120  0.5594
 4524TIP3    H113578   2.727   1.083   2.974  1.0867 -0.7115  0.6718
 4524TIP3    H213579   2.844   1.057   2.882  1.6549  1.0924  0.8473
 4525TIP3   OH213580   5.145   1.701   1.918  0.2439  0.2698 -0.3132
 4525TIP3    H113581   5.095   1.744   1.849  0.2619 -0.7753 -0.9891
 4525TIP3    H213582   5.121   1.749   1.998 -2.3368 -0.5856 -0.4884
 4526TIP3   OH213583   2.626   2.005   1.506 -0.3046  1.3185  0.1649
 4526TIP3    H113584   2.559   1.939   1.522 -1.2521  1.7635 -1.6663
 4526TIP3    H213585   2.650   2.037   1.593 -0.4685 -0.7692  1.0358
 4527TIP3   OH213586   4.527   5.651   5.014  0.6271  0.1626 -0.4128
 4527TIP3    H113587   4.462   5.588   5.044  1.1811  0.2781  1.0989
 4527TIP3    H213588   4.582   5.668   5.090  2.9674 -0.5576 -1.8294
 4528TIP3   OH213589   6.317   1.463   0.817 -0.2930  0.2903  0.5918
 4528TIP3    H113590   6.390   1.523   0.802  0.8657 -0.2486  3.4105
 4528TIP3    H213591   6.242   1.520   0.832  0.5104  1.0600  1.9095
 4529TIP3   OH213592   0.067   4.043   0.947 -0.1440  0.1719 -0.5942
 4529TIP3    H113593   0.155   4.080   0.951 -0.6493  1.4346  3.5036
 4529TIP3    H213594   0.059   3.989   1.026 -2.9945  0.0240 -0.8578
 4530TIP3   OH213595   0.038   1.897   0.518  0.1342  0.2488 -0.1548
 4530TIP3    H113596   0.055   1.898   0.612  0.4947 -0.4686 -0.2079
 4530TIP3    H213597   0.115   1.856   0.480 -0.4046 -0.2976 -0.6795
 4531TIP3   OH213598   2.360   5.152   4.263  0.7925  0.2709 -0.1284
 4531TIP3    H113599   2.390   5.203   4.188  1.0658  0.2863 -0.0108
 4531TIP3    H213600   2.358   5.061   4.232  2.8286 -0.0085  0.3998
 4532TIP3   OH213601   1.069   5.739   2.194  0.2618  0.2125 -0.1197
 4532TIP3    H113602   1.084   5.690   2.113 -0.2334 -2.7468  1.4348
 4532TIP3    H213603   1.004   5.805   2.170  1.4634  0.5977 -2.5070
 4533TIP3   OH213604   2.606   3.713   2.267  0.1576 -0.4433  0.0416
 4533TIP3    H113605   2.620   3.780   2.334 -0.3644  0.1121 -0.4000
 4533TIP3    H213606   2.643   3.633   2.305  2.8726  0.5358 -0.3346
 4534TIP3   OH213607   1.337   5.730   4.999  0.0412  0.4185 -0.1286
 4534TIP3    H113608   1.431   5.744   5.013  0.1193 -0.2977  0.0890
 4534TIP3    H213609   1.329   5.636   4.984 -0.6852  0.4268  0.1857
 4535TIP3   OH213610   5.429   2.418   0.824 -0.4010  0.5252 -0.0902
 4535TIP3    H113611   5.341   2.407   0.789 -0.0342  0.2711 -0.9526
 4535TIP3    H213612   5.482   2.444   0.749  0.2996  0.4991  0.3843
 4536TIP3   OH213613   0.624   4.080   2.845  0.2774  0.1159 -0.2010
 4536TIP3    H113614   0.703   4.063   2.793  0.1534 -0.6780 -0.1489
 4536TIP3    H213615   0.646   4.155   2.900  1.1304 -0.3443  0.0919
 4537TIP3   OH213616   3.974   2.557   4.107  0.7127 -0.7771 -0.4821
 4537TIP3    H113617   4.054   2.610   4.114  1.5866 -1.5463 -3.2094
 4537TIP3    H213618   4.005   2.472   4.075 -1.0598 -1.6384 -0.0199
 4538TIP3   OH213619   5.383   3.502   3.150 -0.8643  0.0970 -0.0898
 4538TIP3    H113620   5.453   3.495   3.215 -1.2440 -1.2736  0.1973
 4538TIP3    H213621   5.376   3.596   3.132 -0.0028  0.3908  1.0238
 4539TIP3   OH213622   4.513   3.185   2.336  0.1753  0.4787 -0.1284
 4539TIP3    H113623   4.539   3.093   2.340 -0.9929  0.1754  1.1793
 4539TIP3    H213624   4.422   3.183   2.306 -0.4378  1.0559  1.5750
 4540TIP3   OH213625   2.206   2.451   0.491  0.2830 -0.2310 -0.2783
 4540TIP3    H113626   2.276   2.420   0.548  0.7852  0.4198 -0.5288
 4540TIP3    H213627   2.125   2.423   0.534  0.5831  1.3566  1.4499
 4541TIP3   OH213628   1.297   4.769   4.554 -0.0277 -0.1108  0.3079
 4541TIP3    H113629   1.339   4.713   4.488  1.3926 -1.3466  2.1330
 4541TIP3    H213630   1.208   4.736   4.561  0.4431 -1.3886  0.5054
 4542TIP3   OH213631   1.017   2.036   0.327 -0.2879 -0.0701 -0.5117
 4542TIP3    H113632   1.043   2.057   0.237  0.3061  0.3881 -0.2329
 4542TIP3    H213633   0.966   2.112   0.355 -1.1586 -0.5546 -0.7254
 4543TIP3   OH213634   2.489   5.716   4.550  0.0531 -0.3261  0.0446
 4543TIP3    H113635   2.543   5.771   4.607 -1.1249  0.9540 -0.0313
 4543TIP3    H213636   2.509   5.626   4.578 -0.3718  0.2363  2.4144
 4544TIP3   OH213637   5.775   3.960   4.482  0.0932 -0.1201 -0.0830
 4544TIP3    H113638   5.866   3.946   4.456  0.3535 -3.0606  1.9818
 4544TIP3    H213639   5.725   3.898   4.428 -0.5331  0.3999 -0.1189
 4545TIP3   OH213640   4.374   4.912   0.538 -0.1936  0.1023  0.4929
 4545TIP3    H113641   4.283   4.921   0.567 -0.2613  0.7208  0.1054
 4545TIP3    H213642   4.426   4.924   0.618 -0.4382  0.0505  0.6615
 4546TIP3   OH213643   1.416   4.752   1.768  0.3586 -0.1592 -0.4572
 4546TIP3    H113644   1.429   4.804   1.689  0.4132  0.0572 -0.3082
 4546TIP3    H213645   1.414   4.662   1.738 -2.3717  0.0102 -1.0908
 4547TIP3   OH213646   1.801   4.200   4.930 -0.1436 -0.6030 -0.2484
 4547TIP3    H113647   1.750   4.280   4.924 -1.8600 -1.6861 -0.9038
 4547TIP3    H213648   1.866   4.207   4.860  0.7576  0.8416  0.6655
 4548TIP3   OH213649   3.038   4.888   2.241 -0.0123  0.2413  0.4725
 4548TIP3    H113650   3.077   4.913   2.158  0.5867 -0.8804  0.3986
 4548TIP3    H213651   2.946   4.873   2.221  0.4647 -1.8902 -0.4539
 4549TIP3   OH213652   0.330   1.822   4.964  0.4763 -0.0628 -0.1710
 4549TIP3    H113653   0.270   1.874   4.910 -1.8870 -2.6472 -0.2572
 4549TIP3    H213654   0.403   1.881   4.982 -0.8810  2.4492 -2.2057
 4550TIP3   OH213655   0.256   3.160   0.507 -0.6653 -0.7109  0.6966
 4550TIP3    H113656   0.228   3.251   0.514 -0.1248 -0.5532  0.8045
 4550TIP3    H213657   0.182   3.110   0.541 -1.6934 -0.4241 -0.9782
 4551TIP3   OH213658   5.471   2.257   2.888 -0.5797  0.1954 -0.2141
 4551TIP3    H113659   5.523   2.278   2.966  0.6411  1.3228 -1.2949
 4551TIP3    H213660   5.487   2.164   2.873  0.4984  0.3489 -0.0706
 4552TIP3   OH213661   2.368   4.033   2.098 -0.2023 -0.3592  0.3563
 4552TIP3    H113662   2.346   4.076   2.015  0.3810 -0.1078  0.3262
 4552TIP3    H213663   2.438   4.087   2.134  1.6747 -2.1347 -0.4377
 4553TIP3   OH213664   1.844   2.039   3.630 -0.0926 -0.2596  0.1274
 4553TIP3    H113665   1.886   2.039   3.716 -0.3671 -1.3389  0.2713
 4553TIP3    H213666   1.917   2.048   3.568  0.2000 -0.5589  0.4270
 4554TIP3   OH213667   5.546   0.197   5.157  0.0412  0.0514  0.1759
 4554TIP3    H113668   5.563   0.156   5.072  0.8140  0.0018  0.3451
 4554TIP3    H213669   5.626   0.180   5.208 -0.5856 -0.3142  1.0672
 4555TIP3   OH213670   1.970   4.226   4.707 -0.0482 -0.2963 -0.1521
 4555TIP3    H113671   1.975   4.156   4.642  0.3727 -0.2629 -0.1625
 4555TIP3    H213672   1.950   4.305   4.657  0.4982 -0.2305 -0.2753
 4556TIP3   OH213673   0.207   0.788   4.410  0.4650 -0.0209 -0.1340
 4556TIP3    H113674   0.198   0.867   4.463  1.0669 -0.4541  0.6451
 4556TIP3    H213675   0.268   0.812   4.341 -1.4128  0.9791 -1.5480
 4557TIP3   OH213676   5.329   2.686   4.365  0.1606 -0.0043 -0.1129
 4557TIP3    H113677   5.331   2.613   4.426  1.0723 -1.7862 -2.1204
 4557TIP3    H213678   5.408   2.737   4.386 -0.1177  0.0392  0.8670
 4558TIP3   OH213679   3.705   2.943   1.869  0.1111 -0.2177  0.5169
 4558TIP3    H113680   3.681   2.967   1.780 -0.3124  0.1412  0.7229
 4558TIP3    H213681   3.801   2.948   1.870  0.2224 -1.6548 -0.3135
 4559TIP3   OH213682   3.695   3.159   4.786 -0.1061 -0.3607 -0.8640
 4559TIP3    H113683   3.713   3.194   4.699 -0.9416  1.3149 -0.4040
 4559TIP3    H213684   3.754   3.206   4.844  0.1514 -1.1697 -0.4567
 4560TIP3   OH213685   2.933   2.864   1.567  0.7755  0.3017  0.5090
 4560TIP3    H113686   2.973   2.897   1.486 -0.0090  1.2681  0.4940
 4560TIP3    H213687   2.839   2.868   1.551  0.6343 -0.6016  1.0558
 4561TIP3   OH213688   3.246   2.828   0.899 -0.5004  0.6324 -0.0982
 4561TIP3    H113689   3.242   2.759   0.833 -0.5931  0.9868 -0.4683
 4561TIP3    H213690   3.157   2.865   0.901 -1.3096 -1.2338  2.2614
 4562TIP3   OH213691   2.745   2.262   2.690  0.1710  0.2594  0.3899
 4562TIP3    H113692   2.759   2.353   2.714  2.6479 -0.0641  0.4326
 4562TIP3    H213693   2.666   2.236   2.737 -0.8187  2.4665  0.0359
 4563TIP3   OH213694   4.568   4.601   2.956 -0.2283  0.4528 -0.2196
 4563TIP3    H113695   4.507   4.527   2.964  0.0044 -0.1614 -3.0281
 4563TIP3    H213696   4.513   4.679   2.967 -0.7826 -0.0942  1.0785
 4564TIP3   OH213697   0.603   0.623   3.173  0.7026 -0.4195 -0.3747
 4564TIP3    H113698   0.547   0.622   3.251 -1.4181 -0.2719 -1.8209
 4564TIP3    H213699   0.591   0.537   3.134  0.7994 -0.0748 -1.1766
 4565TIP3   OH213700   2.233   3.518   5.006 -0.7805  0.2048 -0.4169
 4565TIP3    H113701   2.252   3.444   5.064 -0.6445  0.2995 -0.3386
 4565TIP3    H213702   2.307   3.520   4.945  0.9492  2.2316  1.5558
 4566TIP3   OH213703   4.798   3.335   5.094 -0.7320 -0.5549 -0.1143
 4566TIP3    H113704   4.833   3.270   5.156 -2.5365 -0.7757  0.7435
 4566TIP3    H213705   4.794   3.416   5.145 -0.4383 -0.2780 -0.5348
 4567TIP3   OH213706   1.582   2.459   2.291 -0.5553  0.3245 -0.4681
 4567TIP3    H113707   1.533   2.399   2.347  0.0532 -1.9312 -2.1927
 4567TIP3    H213708   1.665   2.415   2.275 -0.0569  1.6490 -1.7919
 4568TIP3   OH213709   2.985   2.027   3.382  0.3972  0.0491  0.2320
 4568TIP3    H113710   2.898   2.028   3.422  0.2113 -1.7872 -0.0637
 4568TIP3    H213711   3.003   1.935   3.366  1.9885  0.4808 -0.6427
 4569TIP3   OH213712   4.104   5.656   0.656 -0.2352 -0.3769  0.3717
 4569TIP3    H113713   4.043   5.720   0.694  0.0269 -0.2730  0.6219
 4569TIP3    H213714   4.102   5.582   0.716 -0.3726 -0.5123  0.1989
 4570TIP3   OH213715   3.785   3.500   4.404  0.4377 -0.3772  0.4602
 4570TIP3    H113716   3.874   3.503   4.367  0.3632  0.9857  0.3326
 4570TIP3    H213717   3.728   3.485   4.329  0.5332 -0.9184  0.4948
 4571TIP3   OH213718   3.957   2.674   3.609  0.0496  0.2772  0.5985
 4571TIP3    H113719   3.912   2.664   3.526 -2.8298 -0.1219  2.0669
 4571TIP3    H213720   4.006   2.756   3.601  2.6627 -1.3542 -2.5464
 4572TIP3   OH213721   3.546   2.613   4.394 -0.1859 -0.5977  0.3984
 4572TIP3    H113722   3.536   2.697   4.439 -0.2399  0.2584 -1.1423
 4572TIP3    H213723   3.616   2.628   4.331 -2.3367 -0.6282 -2.1968
 4573TIP3   OH213724   4.764   5.000   4.816  0.1284  0.1912 -0.1956
 4573TIP3    H113725   4.681   4.953   4.818  0.2562 -0.0545 -0.5447
 4573TIP3    H213726   4.740   5.092   4.805 -0.1219  0.2135  0.5165
 4574TIP3   OH213727   1.481   2.002   4.105 -0.5991 -0.0771  0.1581
 4574TIP3    H113728   1.460   1.910   4.119 -0.7646 -0.2090 -0.9079
 4574TIP3    H213729   1.561   2.001   4.053 -0.2211  0.3973  0.7133
 4575TIP3   OH213730   5.374   0.805   4.176 -0.7933  0.2806 -0.0739
 4575TIP3    H113731   5.346   0.718   4.150  0.0852 -0.1486  0.3703
 4575TIP3    H213732   5.302   0.862   4.151 -1.4695 -0.6006 -0.1662
 4576TIP3   OH213733   0.904   3.104   4.307 -0.1997  0.9207  0.1867
 4576TIP3    H113734   0.896   3.009   4.316 -0.0789  1.0918  2.7309
 4576TIP3    H213735   0.978   3.116   4.246 -0.4298 -0.5826 -0.4278
 4577TIP3   OH213736   1.896   3.714   1.943  0.2204 -0.0686  0.2470
 4577TIP3    H113737   1.954   3.748   2.011  1.9515 -0.4819 -0.9609
 4577TIP3    H213738   1.935   3.631   1.917 -1.2709 -0.6718 -0.2100
 4578TIP3   OH213739   1.609   5.502   4.965 -1.0294 -0.1664  0.2920
 4578TIP3    H113740   1.579   5.525   5.053  0.5668 -0.3522  0.9111
 4578TIP3    H213741   1.696   5.466   4.978 -0.0647  1.3410 -1.5284
 4579TIP3   OH213742   4.219   0.116   1.218 -0.2474 -0.1195  0.6201
 4579TIP3    H113743   4.238   0.054   1.148 -1.1489  1.1090 -0.7505
 4579TIP3    H213744   4.177   0.064   1.286 -1.7827 -0.8710 -0.8601
 4580TIP3   OH213745   1.897   1.082   1.450 -0.3968 -0.0976 -0.2427
 4580TIP3    H113746   1.818   1.067   1.398 -0.5660  0.5401 -0.1761
 4580TIP3    H213747   1.963   1.027   1.409 -1.3079 -2.1089  0.8098
 4581TIP3   OH213748   1.793   4.783   1.515 -0.3327 -0.5548  0.5232
 4581TIP3    H113749   1.865   4.722   1.531  1.0872  1.1731  1.1366
 4581TIP3    H213750   1.770   4.769   1.423  3.2392  1.1341 -0.8309
 4582TIP3   OH213751   2.815   4.623   2.039  0.1910  0.5429 -0.6535
 4582TIP3    H113752   2.799   4.543   2.089  0.4101  0.6522 -0.4088
 4582TIP3    H213753   2.749   4.621   1.970 -0.1061  0.3899 -0.3674
 4583TIP3   OH213754   3.924   4.072   3.682 -1.0170 -0.1093 -0.2473
 4583TIP3    H113755   3.917   3.980   3.710  1.3924 -0.1138  0.5791
 4583TIP3    H213756   3.944   4.067   3.588 -1.7249 -0.3755 -0.3913
 4584TIP3   OH213757   0.280   4.012   4.032 -0.0642 -0.1274  0.0569
 4584TIP3    H113758   0.338   4.062   3.974  0.7905  0.4779  1.3715
 4584TIP3    H213759   0.304   3.921   4.017  1.1649  0.1019  0.4603
 4585TIP3   OH213760   3.195   2.582   3.208 -0.4259  0.1385  0.2683
 4585TIP3    H113761   3.264   2.527   3.244 -0.5048  0.8668  1.6051
 4585TIP3    H213762   3.131   2.521   3.173  0.0329 -0.5920  0.6826
 4586TIP3   OH213763   5.435   5.375   0.060 -0.4181 -1.0157 -0.3698
 4586TIP3    H113764   5.432   5.309   0.129  0.1532 -0.9870 -0.3135
 4586TIP3    H213765   5.349   5.370   0.018 -0.5290 -1.4967 -0.0909
 4587TIP3   OH213766   1.882   5.764   3.223 -0.2677 -0.5737 -0.1868
 4587TIP3    H113767   1.889   5.801   3.311  1.1956  0.1577 -0.5839
 4587TIP3    H213768   1.971   5.764   3.189 -0.8473 -0.4880 -1.8222
 4588TIP3   OH213769   5.697   0.313   3.920 -0.3246  0.2953  0.1538
 4588TIP3    H113770   5.772   0.267   3.884  0.0693  0.8799  0.2134
 4588TIP3    H213771   5.627   0.300   3.855  0.1057  0.5598 -0.3691
 4589TIP3   OH213772   3.772   1.422   3.112 -0.5217  0.8025 -0.0253
 4589TIP3    H113773   3.812   1.374   3.184 -0.7272  0.3655 -0.1976
 4589TIP3    H213774   3.729   1.355   3.059  1.6991  0.7930 -1.9420
 4590TIP3   OH213775   5.291   3.981   2.370  0.4231  0.3724 -0.3182
 4590TIP3    H113776   5.271   4.072   2.344  2.8081  1.9302  2.6350
 4590TIP3    H213777   5.326   3.940   2.291  2.3560  3.0890 -1.0093
 4591TIP3   OH213778   2.304   0.125   2.024 -0.1040  0.2761  0.0941
 4591TIP3    H113779   2.366   0.121   2.098 -1.6116  0.1633  1.4103
 4591TIP3    H213780   2.246   0.198   2.046 -0.9182 -0.1163 -0.7140
 4592TIP3   OH213781   0.197   1.754   1.128  0.1167  0.5688  0.2284
 4592TIP3    H113782   0.208   1.844   1.157  0.4172  0.2987  0.9777
 4592TIP3    H213783   0.105   1.734   1.145  0.0597  0.7163  0.0983
 4593TIP3   OH213784   5.432   1.224   2.671  0.4257 -0.7400 -0.4920
 4593TIP3    H113785   5.480   1.156   2.719  1.2362  0.8430  1.0782
 4593TIP3    H213786   5.500   1.276   2.629  0.0717  0.7526  0.6772
 4594TIP3   OH213787   1.879   1.772   0.911  0.7264 -0.0857  0.1197
 4594TIP3    H113788   1.944   1.795   0.977 -0.5086 -2.1214  2.2193
 4594TIP3    H213789   1.800   1.819   0.938  1.1669  2.2711 -2.3322
 4595TIP3   OH213790   6.325   4.238   3.928  0.1238  0.0679 -0.4756
 4595TIP3    H113791   6.250   4.203   3.977 -0.1836  1.0827 -0.2039
 4595TIP3    H213792   6.306   4.331   3.918  1.2948  0.3166 -0.5208
 4596TIP3   OH213793   6.187   3.968   1.853 -0.1568  0.8355 -0.2118
 4596TIP3    H113794   6.152   3.890   1.810  0.7587  0.9527 -1.2107
 4596TIP3    H213795   6.239   4.012   1.786 -0.3794  2.1407  0.4339
 4597TIP3   OH213796   0.678   4.972   3.247 -0.2880 -0.2465  0.1904
 4597TIP3    H113797   0.643   4.905   3.305 -0.3159  0.2774  0.7830
 4597TIP3    H213798   0.766   4.989   3.279  0.1997 -0.9090 -0.7451
 4598TIP3   OH213799   1.250   5.864   2.751 -0.1598 -0.3036 -0.6445
 4598TIP3    H113800   1.227   5.812   2.674 -2.0780 -1.9469  0.9286
 4598TIP3    H213801   1.189   5.938   2.748 -1.3361 -1.2039  0.0651
 4599TIP3   OH213802   5.690   2.657   4.239 -0.2084  0.3714  0.4518
 4599TIP3    H113803   5.661   2.566   4.239  2.7475 -0.6966  1.3269
 4599TIP3    H213804   5.631   2.702   4.300  0.8649 -2.0003  3.4791
 4600TIP3   OH213805   0.489   2.235   3.146  0.0684 -0.0397  0.2729
 4600TIP3    H113806   0.434   2.304   3.110 -2.5999 -2.2917 -0.3145
 4600TIP3    H213807   0.496   2.256   3.240 -1.1425  0.7492  0.2090
 4601TIP3   OH213808   6.158   4.506   2.327  0.3047 -0.0110  0.3640
 4601TIP3    H113809   6.065   4.526   2.336  0.2841 -0.1310  0.4218
 4601TIP3    H213810   6.179   4.452   2.404  0.2814 -0.4834  0.0456
 4602TIP3   OH213811   2.905   0.355   4.985  0.1958  0.1482 -0.8176
 4602TIP3    H113812   2.896   0.269   4.944 -0.3740  0.0387 -0.4587
 4602TIP3    H213813   2.886   0.417   4.914 -1.2919 -0.0459 -0.6249
 4603TIP3   OH213814   5.507   3.969   2.799  0.1263 -0.7087  0.2492
 4603TIP3    H113815   5.472   4.036   2.741  0.3683  0.9352  1.9186
 4603TIP3    H213816   5.593   3.948   2.762 -1.1414 -2.4241 -2.0237
 4604TIP3   OH213817   3.371   0.833   3.130 -0.2534  0.2709  1.0076
 4604TIP3    H113818   3.360   0.926   3.112  0.5653  0.5333  1.7675
 4604TIP3    H213819   3.456   0.811   3.091  0.9608  0.5653  3.3074
 4605TIP3   OH213820   1.548   2.173   2.633 -0.1410  0.3253  0.0754
 4605TIP3    H113821   1.623   2.229   2.615  1.3873 -1.0631  1.6561
 4605TIP3    H213822   1.518   2.201   2.720  0.5329 -1.1030  0.8056
 4606TIP3   OH213823   0.226   0.666   3.686  0.0141 -0.0287  0.0134
 4606TIP3    H113824   0.300   0.669   3.746  0.5870 -1.1826 -0.6037
 4606TIP3    H213825   0.224   0.576   3.654 -0.3804  0.5083 -1.5638
 4607TIP3   OH213826   3.388   4.792   2.158  0.2796 -0.1810 -0.7825
 4607TIP3    H113827   3.434   4.785   2.075 -0.9790  1.0243 -1.6368
 4607TIP3    H213828   3.312   4.735   2.149  0.4622 -0.5324 -0.2010
 4608TIP3   OH213829   5.419   5.229   2.515  0.1550 -0.0660  0.6118
 4608TIP3    H113830   5.508   5.195   2.518  0.0263 -0.4018  0.6425
 4608TIP3    H213831   5.385   5.200   2.431  0.4276  0.9642  0.1265
 4609TIP3   OH213832   1.998   3.370   4.267  0.2948  0.1568 -0.1892
 4609TIP3    H113833   2.073   3.371   4.326 -0.1093  0.1373  0.3279
 4609TIP3    H213834   1.980   3.462   4.249  1.7810  0.1506 -2.0518
 4610TIP3   OH213835   3.639   2.378   2.866 -0.9473  0.3782  0.2391
 4610TIP3    H113836   3.601   2.300   2.824  1.3039 -0.6853  0.0540
 4610TIP3    H213837   3.578   2.398   2.937 -1.0535 -2.2721  1.0096
 4611TIP3   OH213838   4.606   5.774   2.397  0.6341 -0.2193 -0.5101
 4611TIP3    H113839   4.551   5.771   2.476 -0.1363 -1.1475 -1.0580
 4611TIP3    H213840   4.669   5.844   2.414 -0.8592  1.0501  0.0525
 4612TIP3   OH213841   2.971   5.843   2.117  0.0657  0.5222  0.0600
 4612TIP3    H113842   2.997   5.916   2.060 -1.2047  1.0680  0.1437
 4612TIP3    H213843   2.929   5.781   2.058 -0.0176  0.4599  0.1863
 4613TIP3   OH213844   6.118   4.262   3.076  0.0171 -0.3983 -0.6316
 4613TIP3    H113845   6.182   4.273   3.006 -0.0631 -1.2554 -0.8516
 4613TIP3    H213846   6.161   4.204   3.139 -0.6893 -1.3161 -0.9809
 4614TIP3   OH213847   1.263   5.146   4.112 -0.0680 -0.3510 -0.4195
 4614TIP3    H113848   1.202   5.207   4.154  1.8781  2.5189 -1.4306
 4614TIP3    H213849   1.332   5.202   4.076  2.5565 -3.2880 -0.4177
 4615TIP3   OH213850   4.029   2.859   3.260  0.0144  1.0659 -0.3024
 4615TIP3    H113851   4.050   2.766   3.252 -1.8828  0.5086  0.5246
 4615TIP3    H213852   4.090   2.903   3.202  1.5159 -0.6152 -0.0870
 4616TIP3   OH213853   0.848   0.320   3.209 -0.2329  0.2206 -0.0512
 4616TIP3    H113854   0.753   0.329   3.199 -0.8882 -1.8596  2.8956
 4616TIP3    H213855   0.865   0.227   3.191  1.2684  0.5478 -0.4601
 4617TIP3   OH213856   0.192   5.399   3.292 -0.1439  0.1755 -0.3238
 4617TIP3    H113857   0.153   5.314   3.273 -1.5397  0.6979  0.1504
 4617TIP3    H213858   0.122   5.450   3.332  1.0907  1.0685  0.7660
 4618TIP3   OH213859   0.499   1.624   2.426 -0.6740  0.2655  0.0136
 4618TIP3    H113860   0.410   1.639   2.456 -0.0977  0.4122  1.7789
 4618TIP3    H213861   0.512   1.529   2.435 -0.8995  0.1161 -1.0540
 4619TIP3   OH213862   0.670   3.226   1.759 -0.2104 -0.4923  0.3688
 4619TIP3    H113863   0.696   3.283   1.832  1.1474 -0.9104  0.2364
 4619TIP3    H213864   0.752   3.197   1.720 -0.9068 -0.3085 -1.3314
 4620TIP3   OH213865   2.169   1.253   4.175  0.4387  0.2033  0.1255
 4620TIP3    H113866   2.227   1.180   4.194 -0.1621 -0.2672  0.1908
 4620TIP3    H213867   2.216   1.330   4.205  0.5705 -0.2816  1.2091
 4621TIP3   OH213868   3.139   5.860   4.343  0.3614 -0.2236 -0.1463
 4621TIP3    H113869   3.145   5.877   4.249  0.3870 -0.7474 -0.2411
 4621TIP3    H213870   3.047   5.876   4.364  0.5831  1.0202 -0.0301
 4622TIP3   OH213871   3.005   5.709   2.470  0.4560 -0.0754  0.2045
 4622TIP3    H113872   3.093   5.740   2.491 -0.1756  3.1398 -1.1570
 4622TIP3    H213873   3.019   5.625   2.426  2.7463 -0.1038  0.8457
 4623TIP3   OH213874   3.320   5.912   3.819  0.1851  0.6888  0.0335
 4623TIP3    H113875   3.411   5.895   3.842  0.1824  1.4032  0.6268
 4623TIP3    H213876   3.318   5.907   3.723  1.5108  3.4721 -0.2543
 4624TIP3   OH213877   1.057   2.257   3.587 -0.2024 -0.4819 -0.0367
 4624TIP3    H113878   1.049   2.294   3.675  0.6531 -2.0474  0.7378
 4624TIP3    H213879   0.989   2.190   3.583  1.0974 -1.8659  0.2367
 4625TIP3   OH213880   1.535   3.003   0.332  0.3648 -0.0203  0.7145
 4625TIP3    H113881   1.551   3.095   0.313  0.5039 -0.0641  0.6148
 4625TIP3    H213882   1.551   2.958   0.249 -2.6874  0.1950 -0.1203
 4626TIP3   OH213883   6.067   3.055   2.388 -0.2389 -0.1103 -0.2884
 4626TIP3    H113884   5.972   3.065   2.402 -0.6365 -0.7932 -2.2397
 4626TIP3    H213885   6.080   2.961   2.379  1.0699 -0.2836  2.4286
 4627TIP3   OH213886   5.200   0.423   2.918  0.3993 -0.6782 -0.3517
 4627TIP3    H113887   5.174   0.432   3.009  0.9340 -1.2759 -0.1375
 4627TIP3    H213888   5.118   0.408   2.871 -0.2648  2.4041 -0.3938
 4628TIP3   OH213889   2.366   0.350   2.593 -0.2681  0.3264  0.4924
 4628TIP3    H113890   2.380   0.420   2.529  1.4135  1.1030  1.6229
 4628TIP3    H213891   2.271   0.340   2.598 -0.4735  0.8840 -1.4112
 4629TIP3   OH213892   1.136   4.486   0.971  0.6022 -0.2947  0.5604
 4629TIP3    H113893   1.054   4.438   0.960  0.5298 -0.6362  2.2637
 4629TIP3    H213894   1.203   4.418   0.976  0.6779 -0.1611  1.5409
 4630TIP3   OH213895   5.834   3.053   0.862 -0.2780  0.2170  0.4032
 4630TIP3    H113896   5.743   3.080   0.873 -0.3240  0.0908  0.3337
 4630TIP3    H213897   5.853   3.072   0.770 -0.0669  0.7501  0.5517
 4631TIP3   OH213898   0.363   3.539   0.000 -0.5651 -0.2909  0.9941
 4631TIP3    H113899   0.272   3.516   0.018 -0.6273 -2.3619 -1.4279
 4631TIP3    H213900   0.408   3.527   0.084 -2.0515 -1.8344  1.6232
 4632TIP3   OH213901   4.259   3.919   3.475  0.1436  0.3035  0.4806
 4632TIP3    H113902   4.240   3.979   3.404 -1.5794 -1.1042 -0.3203
 4632TIP3    H213903   4.353   3.928   3.490  0.1918  2.0340 -0.6333
 4633TIP3   OH213904   5.734   4.471   4.576  0.1311  0.2508 -0.0158
 4633TIP3    H113905   5.659   4.437   4.625  0.8989 -0.6112  0.5861
 4633TIP3    H213906   5.777   4.394   4.540  2.2246  0.4721  1.8432
 4634TIP3   OH213907   6.112   3.523   2.264 -0.4191 -0.1249  0.1984
 4634TIP3    H113908   6.177   3.527   2.334  0.1221 -0.5281 -0.2757
 4634TIP3    H213909   6.049   3.592   2.286 -1.0165 -1.1483  1.8312
 4635TIP3   OH213910   5.052   0.134   2.634 -0.3404  0.7431  0.0900
 4635TIP3    H113911   5.134   0.156   2.589 -0.2651 -1.9438 -1.2911
 4635TIP3    H213912   5.081   0.093   2.716 -0.4351  2.5839  1.1076
 4636TIP3   OH213913   0.366   4.631   0.623  0.1351  0.2621  0.7957
 4636TIP3    H113914   0.280   4.599   0.599  0.3182  0.7671 -0.6837
 4636TIP3    H213915   0.424   4.555   0.614 -0.0763  0.0378  1.3210
 4637TIP3   OH213916   4.752   2.675   3.539 -0.0605  0.0804  0.3360
 4637TIP3    H113917   4.734   2.768   3.530 -0.4108  0.1366  1.5013
 4637TIP3    H213918   4.730   2.654   3.630  0.7901 -0.9607  0.3331
 4638TIP3   OH213919   2.229   5.757   0.194  0.1337  0.2343 -0.7325
 4638TIP3    H113920   2.210   5.824   0.129  0.6079  0.0387 -1.0789
 4638TIP3    H213921   2.313   5.719   0.166  1.0774  1.1151  0.7750
 4639TIP3   OH213922   4.566   1.948   4.257 -0.3952 -0.3837 -0.7106
 4639TIP3    H113923   4.568   2.026   4.201 -1.7579  2.6963  3.0664
 4639TIP3    H213924   4.642   1.958   4.314 -0.7101 -1.7370 -0.0204
 4640TIP3   OH213925   1.089   3.272   4.136  0.3359 -0.1688  0.6207
 4640TIP3    H113926   1.149   3.314   4.073 -0.7054  0.9113  0.3154
 4640TIP3    H213927   1.004   3.273   4.092 -0.0468 -1.0888  1.3183
 4641TIP3   OH213928   2.633   0.789   1.077 -0.1599 -0.1891  0.1923
 4641TIP3    H113929   2.686   0.726   1.029  1.2544  1.8684 -1.0944
 4641TIP3    H213930   2.675   0.797   1.162  0.1115 -0.4223  0.0799
 4642TIP3   OH213931   1.917   2.124   1.771  0.3428  0.0544  0.5230
 4642TIP3    H113932   1.957   2.120   1.858  1.1505  0.6104  0.1941
 4642TIP3    H213933   1.945   2.043   1.728 -0.2057 -0.3057  0.8343
 4643TIP3   OH213934   1.040   3.874   2.209  1.0430  0.2521  0.0776
 4643TIP3    H113935   0.962   3.916   2.247  0.8381 -1.0777  1.1952
 4643TIP3    H213936   1.098   3.947   2.187  0.1358  1.1905  0.6984
 4644TIP3   OH213937   2.297   0.230   4.047 -0.4942 -0.0403  0.1748
 4644TIP3    H113938   2.205   0.235   4.021 -1.2450 -4.2253  1.3007
 4644TIP3    H213939   2.322   0.140   4.028  3.6661  1.0819 -0.6289
 4645TIP3   OH213940   3.817   2.301   1.780 -0.1066 -0.6015 -0.0827
 4645TIP3    H113941   3.858   2.364   1.839  0.3097 -0.2017 -0.7955
 4645TIP3    H213942   3.731   2.284   1.820  0.8274 -1.6783  1.5825
 4646TIP3   OH213943   3.269   4.563   3.143  0.2932  0.5037  0.3339
 4646TIP3    H113944   3.287   4.559   3.049 -0.5154  0.0639  0.1843
 4646TIP3    H213945   3.350   4.595   3.182  1.1104 -0.6542 -0.3669
 4647TIP3   OH213946   0.406   1.792   1.910  0.3419  0.2147  0.7923
 4647TIP3    H113947   0.403   1.777   1.815  1.1878 -0.7618  0.9072
 4647TIP3    H213948   0.469   1.729   1.942  0.9950  1.3755  1.8652
 4648TIP3   OH213949   2.694   5.965   3.761  0.7133  0.0404  0.3160
 4648TIP3    H113950   2.765   6.013   3.719  1.0091 -1.0028 -0.4159
 4648TIP3    H213951   2.705   5.874   3.731 -2.2712  0.1998 -1.7800
 4649TIP3   OH213952   3.135   1.754   2.910  0.5268 -0.0650  0.1288
 4649TIP3    H113953   3.213   1.717   2.869 -0.1247 -0.8472 -0.4210
 4649TIP3    H213954   3.138   1.847   2.887  2.0457  0.2257  1.3161
 4650TIP3   OH213955   2.249   1.144   3.655  0.0932 -0.4577  0.5099
 4650TIP3    H113956   2.308   1.219   3.646  0.9270 -1.0438  0.8721
 4650TIP3    H213957   2.227   1.142   3.748 -0.3366 -0.3542  0.4083
 4651TIP3   OH213958   1.308   2.580   4.683  0.6084  0.2399 -1.0483
 4651TIP3    H113959   1.224   2.624   4.695  1.2613  1.0271  1.2096
 4651TIP3    H213960   1.335   2.555   4.771  3.9131  2.3341 -1.2702
 4652TIP3   OH213961   1.436   0.580   4.398  0.1032 -0.7532 -0.1545
 4652TIP3    H113962   1.483   0.629   4.466 -2.5318 -0.6540  1.7575
 4652TIP3    H213963   1.444   0.634   4.320  0.1401  1.0658  1.0297
 4653TIP3   OH213964   0.131   3.753   1.523 -1.0312  0.3502 -0.0409
 4653TIP3    H113965   0.210   3.765   1.575 -1.3723 -0.9974  0.8293
 4653TIP3    H213966   0.158   3.770   1.433  0.5255 -1.1546  0.1069
 4654TIP3   OH213967   5.611   3.002   2.273 -0.1947  0.1768  0.6528
 4654TIP3    H113968   5.648   2.916   2.297 -0.5335 -0.2551 -0.3341
 4654TIP3    H213969   5.525   3.004   2.315 -1.3680 -1.1483 -1.5366
 4655TIP3   OH213970   3.238   5.294   2.158 -0.0534  0.3723 -0.6014
 4655TIP3    H113971   3.244   5.361   2.090 -2.9055  0.8851 -0.4765
 4655TIP3    H213972   3.192   5.221   2.117 -0.5734  0.1277  0.3666
 4656TIP3   OH213973   4.688   5.723   3.023  0.0350 -0.2536  0.0823
 4656TIP3    H113974   4.771   5.720   3.071  0.1325  0.5773 -0.0240
 4656TIP3    H213975   4.635   5.788   3.070  0.3295  0.9738 -1.2328
 4657TIP3   OH213976   0.766   3.375   0.261  0.0291 -0.7243  0.1647
 4657TIP3    H113977   0.731   3.422   0.186  0.9069 -1.0486 -0.4670
 4657TIP3    H213978   0.689   3.340   0.306 -0.5404  0.0476 -0.1944
 4658TIP3   OH213979   0.644   2.633   4.655  0.4905 -0.8695 -0.1325
 4658TIP3    H113980   0.624   2.709   4.600  2.0945  0.3876  0.9314
 4658TIP3    H213981   0.576   2.570   4.633 -1.3221  1.1034 -0.6033
 4659TIP3   OH213982   5.547   5.537   4.723  0.2779 -0.2956 -0.3195
 4659TIP3    H113983   5.623   5.580   4.684 -0.5811  0.3694 -1.3258
 4659TIP3    H213984   5.557   5.445   4.700  1.3859 -0.4195  0.5970
 4660TIP3   OH213985   4.835   3.753   4.746  0.1691 -0.3626 -0.0532
 4660TIP3    H113986   4.771   3.690   4.779 -0.4369  0.9110  1.3091
 4660TIP3    H213987   4.912   3.741   4.803  0.7596 -1.1184 -0.9755
 4661TIP3   OH213988   5.394   2.031   5.007  0.0107  0.1420 -0.0336
 4661TIP3    H113989   5.304   1.999   5.002 -0.3241  1.0212  0.2263
 4661TIP3    H213990   5.445   1.964   4.962 -0.6750 -0.7319  0.4377
 4662TIP3   OH213991   0.127   0.175   4.690 -0.0907 -0.0571 -0.0537
 4662TIP3    H113992   0.160   0.201   4.604 -1.3326  0.6358 -0.3329
 4662TIP3    H213993   0.097   0.256   4.730 -0.5440 -0.5319  0.5898
 4663TIP3   OH213994   4.118   5.539   1.443  0.2817  0.0252 -0.0425
 4663TIP3    H113995   4.053   5.590   1.395  0.3016 -0.3277 -0.4504
 4663TIP3    H213996   4.147   5.472   1.381  0.5939 -0.1949  0.3342
 4664TIP3   OH213997   1.396   5.179   5.142  1.0191  0.5072 -0.7488
 4664TIP3    H113998   1.409   5.230   5.222 -0.0609  0.0531 -0.2739
 4664TIP3    H213999   1.474   5.124   5.136  2.0621  1.9435 -1.0941
 4665TIP3   OH214000   0.020   0.644   2.153 -0.0588 -0.2588 -0.0406
 4665TIP3    H114001   0.074   0.577   2.112  1.6995 -0.8293  2.9376
 4665TIP3    H214002  -0.051   0.595   2.194 -0.8281  0.1339 -0.8646
 4666TIP3   OH214003   3.403   2.173   1.408  0.6258 -0.0467  0.2329
 4666TIP3    H114004   3.413   2.099   1.467 -1.4136 -1.5112 -1.1203
 4666TIP3    H214005   3.334   2.227   1.448 -2.2240 -2.0672 -1.5630
 4667TIP3   OH214006   2.808   4.127   2.217 -0.2003  0.0697  0.1809
 4667TIP3    H114007   2.827   4.113   2.309  0.7669 -1.5092 -0.2124
 4667TIP3    H214008   2.791   4.039   2.182 -0.5624  0.6319 -1.1284
 4668TIP3   OH214009   4.758   0.416   2.268 -0.0750 -0.5573  0.0596
 4668TIP3    H114010   4.772   0.335   2.317  1.0202 -0.4426 -0.0412
 4668TIP3    H214011   4.830   0.474   2.295 -0.7749  0.3516  0.0506
 4669TIP3   OH214012   2.370   4.594   0.116 -0.0731  0.0287  0.1284
 4669TIP3    H114013   2.350   4.527   0.051 -0.6591  0.6366 -0.3221
 4669TIP3    H214014   2.408   4.545   0.190  0.8039 -0.6372 -0.7384
 4670TIP3   OH214015   2.593   1.813   3.285 -0.5730  0.1445 -0.3012
 4670TIP3    H114016   2.548   1.787   3.205 -1.3170  1.9981 -0.5342
 4670TIP3    H214017   2.652   1.884   3.258 -1.0576  1.0085  0.7942
 4671TIP3   OH214018   1.611   3.796   1.504 -0.5614 -0.3592  0.9398
 4671TIP3    H114019   1.529   3.802   1.554  1.0428  1.7579  3.5729
 4671TIP3    H214020   1.658   3.723   1.543 -0.5496 -0.6345  0.4228
 4672TIP3   OH214021   4.307   1.722   1.321 -0.0900  0.1595 -0.1263
 4672TIP3    H114022   4.214   1.739   1.303 -0.7825 -0.8491  2.1322
 4672TIP3    H214023   4.322   1.634   1.286 -0.1002  0.1496 -0.1059
 4673TIP3   OH214024   1.910   1.038   0.984  0.2889  1.0346 -0.0742
 4673TIP3    H114025   1.925   1.125   0.948 -0.1551  0.4220 -1.8195
 4673TIP3    H214026   1.889   0.983   0.908  2.8117 -1.1274  0.6419
 4674TIP3   OH214027   6.055   5.293   3.972  0.3284 -0.1350  0.4524
 4674TIP3    H114028   5.975   5.241   3.960  0.2623  0.2624 -0.9006
 4674TIP3    H214029   6.028   5.383   3.956  0.7981  0.1572  1.2128
 4675TIP3   OH214030   0.731   0.283   5.105 -0.3334 -0.1331 -0.3659
 4675TIP3    H114031   0.727   0.360   5.048  0.1153 -1.2594 -2.0070
 4675TIP3    H214032   0.771   0.215   5.050  0.3573 -1.2257  1.3933
 4676TIP3   OH214033   3.777   1.494   2.667  0.1233 -0.1739  0.2924
 4676TIP3    H114034   3.872   1.496   2.669  0.1527 -1.2343  0.3266
 4676TIP3    H214035   3.750   1.548   2.741  0.6901  0.0522  0.3408
 4677TIP3   OH214036   3.668   0.922   1.302 -0.0966  0.1949  0.5086
 4677TIP3    H114037   3.628   0.851   1.353 -3.2672 -0.4766 -2.5435
 4677TIP3    H214038   3.725   0.877   1.239  0.0035  0.5947  0.3100
 4678TIP3   OH214039   6.000   4.156   0.259 -0.5368  0.2856  0.6510
 4678TIP3    H114040   6.049   4.074   0.267  2.5226  1.9330  0.5698
 4678TIP3    H214041   5.938   4.141   0.188  1.2411 -1.3868 -0.6448
 4679TIP3   OH214042   3.315   0.664   4.620 -0.6528  0.4805  0.8775
 4679TIP3    H114043   3.267   0.688   4.541  0.9484  0.9403 -0.0016
 4679TIP3    H214044   3.402   0.640   4.589 -0.0542  0.4506  2.4777
 4680TIP3   OH214045   2.348   1.211   4.751 -0.1230 -0.2545  0.1497
 4680TIP3    H114046   2.333   1.158   4.673 -2.4814 -0.4901  0.6815
 4680TIP3    H214047   2.385   1.293   4.717  1.1257 -1.2330 -0.9336
 4681TIP3   OH214048   0.210   5.973   0.818 -0.4060 -0.6457  0.1303
 4681TIP3    H114049   0.161   6.020   0.751  1.1907  1.7689  0.5438
 4681TIP3    H214050   0.147   5.959   0.889 -0.9028  1.2075  0.1112
 4682TIP3   OH214051   0.816   3.710   4.189 -0.1554  0.9088  1.1509
 4682TIP3    H114052   0.898   3.758   4.183 -0.2138  0.9460  0.6486
 4682TIP3    H214053   0.760   3.748   4.121  0.1337 -0.5401  0.0530
 4683TIP3   OH214054   6.212   5.141   1.124  0.0866 -0.2637  0.4418
 4683TIP3    H114055   6.184   5.053   1.153  1.3467 -0.6232  0.6313
 4683TIP3    H214056   6.215   5.192   1.205 -1.3312  0.1712  0.2410
 4684TIP3   OH214057   6.237   5.310   2.700  0.0779 -0.1986  0.0168
 4684TIP3    H114058   6.151   5.337   2.667 -0.4520 -0.5415  1.0739
 4684TIP3    H214059   6.298   5.374   2.663 -0.1343 -1.7052 -3.2945
 4685TIP3   OH214060   2.510   5.260   3.222  0.2293 -0.2243 -0.0565
 4685TIP3    H114061   2.596   5.218   3.216  0.5721  0.2057  1.3579
 4685TIP3    H214062   2.504   5.314   3.143  1.5262  0.1796  0.0943
 4686TIP3   OH214063   4.768   2.815   4.280 -0.0764 -0.0646 -0.4815
 4686TIP3    H114064   4.854   2.829   4.241  0.1719  0.0550  0.0982
 4686TIP3    H214065   4.776   2.849   4.369 -0.8276  0.2759 -0.5341
 4687TIP3   OH214066   2.471   5.188   2.490 -0.0631 -0.1380 -0.7147
 4687TIP3    H114067   2.448   5.176   2.582 -1.7056  0.7378 -0.9714
 4687TIP3    H214068   2.393   5.228   2.451  1.5674  2.1048 -1.8989
 4688TIP3   OH214069   2.582   0.973   2.675 -0.0641 -0.4554  0.1455
 4688TIP3    H114070   2.561   1.058   2.715  0.8020 -0.3428  0.3766
 4688TIP3    H214071   2.675   0.960   2.694 -0.7536 -2.7528  2.5217
 4689TIP3   OH214072   3.564   2.513   3.558  0.0340 -0.0737 -0.3852
 4689TIP3    H114073   3.559   2.608   3.545  0.1929  0.0486  0.4052
 4689TIP3    H214074   3.589   2.503   3.650 -0.8310 -0.8954 -0.2313
 4690TIP3   OH214075   1.498   3.508   0.072 -0.0542  0.2461 -0.7057
 4690TIP3    H114076   1.403   3.497   0.073  0.1773 -2.3690 -0.2416
 4690TIP3    H214077   1.522   3.521   0.164 -0.0556  2.7533 -0.9906
 4691TIP3   OH214078   2.695   2.282   0.342 -0.0619  0.3159 -0.0886
 4691TIP3    H114079   2.632   2.300   0.272 -0.9958  1.1532  0.9141
 4691TIP3    H214080   2.647   2.226   0.403  0.6714 -0.2394 -0.0103
 4692TIP3   OH214081   3.711   3.393   2.756 -0.1774 -0.0089  0.5946
 4692TIP3    H114082   3.729   3.319   2.815 -0.8047 -1.2466 -0.6957
 4692TIP3    H214083   3.768   3.378   2.681 -0.8929  0.3645 -0.0411
 4693TIP3   OH214084   1.498   4.018   2.366  0.7604  0.3930 -0.0812
 4693TIP3    H114085   1.450   4.092   2.403  2.9888  2.2879 -0.7284
 4693TIP3    H214086   1.440   3.943   2.377  0.0791  1.3240  4.6454
 4694TIP3   OH214087   2.523   0.851   1.385 -0.0495  0.5539 -0.0208
 4694TIP3    H114088   2.431   0.863   1.360 -0.2105 -0.6863 -0.0971
 4694TIP3    H214089   2.520   0.836   1.480 -0.1461 -1.3327 -0.2882
 4695TIP3   OH214090   5.860   2.190   0.557 -0.0443  0.2035  0.6079
 4695TIP3    H114091   5.869   2.285   0.569 -0.6558  0.1351  1.7615
 4695TIP3    H214092   5.886   2.153   0.641 -0.1599 -0.6294  0.2790
 4696TIP3   OH214093   0.337   5.062   1.780  0.1792  0.3524 -0.1973
 4696TIP3    H114094   0.392   5.041   1.705 -1.6262 -2.7582 -0.8591
 4696TIP3    H214095   0.249   5.074   1.743 -0.4870  0.1912  1.2665
 4697TIP3   OH214096   4.600   5.639   3.885 -0.2184  0.0766  0.6109
 4697TIP3    H114097   4.655   5.709   3.850  0.9297 -0.7425  0.7299
 4697TIP3    H214098   4.548   5.609   3.810 -0.1872  0.5647  0.3916
 4698TIP3   OH214099   4.618   3.684   0.656  0.4968 -0.1719 -0.0117
 4698TIP3    H114100   4.581   3.621   0.595  1.1954 -1.3447  0.7363
 4698TIP3    H214101   4.711   3.689   0.633  0.5772  0.1013  0.3519
 4699TIP3   OH214102   1.718   4.029   1.459  0.3318  0.0040 -0.0351
 4699TIP3    H114103   1.685   3.947   1.495 -0.2399 -0.0938 -0.7660
 4699TIP3    H214104   1.784   4.058   1.523  1.6304 -1.7556 -0.5043
 4700TIP3   OH214105   6.334   3.889   2.764  0.4619  0.1832 -0.0609
 4700TIP3    H114106   6.291   3.928   2.840 -0.5178  0.6479 -0.8446
 4700TIP3    H214107   6.385   3.960   2.726  0.7293  0.0198 -0.0130
 4701TIP3   OH214108   6.003   4.155   0.920 -0.5626  0.2192 -0.3086
 4701TIP3    H114109   6.045   4.159   0.834  0.3496  1.3312  0.1673
 4701TIP3    H214110   6.074   4.171   0.982 -1.2856 -0.1778  0.6401
 4702TIP3   OH214111   4.923   5.835   3.300  0.2482  0.2140 -0.3970
 4702TIP3    H114112   4.848   5.776   3.310  0.7927 -0.2934  0.8378
 4702TIP3    H214113   4.990   5.799   3.358  1.0774  1.2702 -0.6721
 4703TIP3   OH214114   3.389   5.743   1.969 -0.0965  0.3814  0.0972
 4703TIP3    H114115   3.332   5.785   2.034  0.5740  0.6335  0.5290
 4703TIP3    H214116   3.440   5.814   1.932  1.1739 -0.0574  0.9574
 4704TIP3   OH214117   0.766   0.525   4.973 -0.2716 -0.0370 -0.6547
 4704TIP3    H114118   0.738   0.544   4.883  1.8881 -2.4734 -1.9745
 4704TIP3    H214119   0.859   0.545   4.973 -0.4723  1.1082  1.4695
 4705TIP3   OH214120   2.323   4.919   3.729 -0.2635 -0.2020  0.2686
 4705TIP3    H114121   2.338   4.842   3.675  0.5940 -0.1899  0.4746
 4705TIP3    H214122   2.244   4.899   3.779  0.5884 -1.4146  1.1598
 4706TIP3   OH214123   3.782   3.200   2.942 -0.5257 -0.0041  0.1112
 4706TIP3    H114124   3.704   3.154   2.971  0.1471 -0.5567  1.0538
 4706TIP3    H214125   3.810   3.252   3.017 -0.9195  1.4998 -0.7317
 4707TIP3   OH214126   1.680   2.520   2.950 -0.0584 -0.0708 -0.0125
 4707TIP3    H114127   1.662   2.427   2.958 -0.6335 -0.0761 -1.1122
 4707TIP3    H214128   1.616   2.562   3.007  0.4249 -0.3609  0.7453
 4708TIP3   OH214129   0.486   2.373   3.384 -0.4663 -0.2274 -0.0383
 4708TIP3    H114130   0.412   2.400   3.439 -0.2160  0.0682  0.1598
 4708TIP3    H214131   0.563   2.406   3.431 -0.2855  0.5964 -0.8870
 4709TIP3   OH214132   5.142   0.503   0.603 -0.8610 -0.6945  0.0136
 4709TIP3    H114133   5.179   0.533   0.686 -0.8412 -2.0506  0.5214
 4709TIP3    H214134   5.156   0.575   0.543  1.6163 -0.7147  0.4671
 4710TIP3   OH214135   3.177   3.608   0.383 -0.2064  0.7119 -0.2435
 4710TIP3    H114136   3.211   3.657   0.458  1.6481 -0.2155 -0.4205
 4710TIP3    H214137   3.183   3.669   0.309 -0.8536  1.2029  0.0891
 4711TIP3   OH214138   5.322   1.092   1.683  0.0687  0.1827  0.3241
 4711TIP3    H114139   5.413   1.071   1.662 -0.2777 -0.2629 -0.7961
 4711TIP3    H214140   5.328   1.158   1.752  1.2267 -0.3766  0.7833
 4712TIP3   OH214141   3.207   4.325   4.864  0.0831  0.2449  0.1894
 4712TIP3    H114142   3.289   4.358   4.825 -0.8287  0.7779 -1.4069
 4712TIP3    H214143   3.186   4.248   4.812 -0.3938  0.0835  0.6259
 4713TIP3   OH214144   0.741   3.428   3.603 -0.3937 -0.7428  0.1428
 4713TIP3    H114145   0.650   3.410   3.628 -0.5432  1.2801  1.2455
 4713TIP3    H214146   0.747   3.402   3.511 -1.5447 -2.6710  0.5634
 4714TIP3   OH214147   0.316   1.786   3.338  0.3294 -0.1359 -0.2156
 4714TIP3    H114148   0.400   1.778   3.292  0.7256  0.3419  0.4198
 4714TIP3    H214149   0.289   1.695   3.354 -0.2193 -0.3446 -2.0832
 4715TIP3   OH214150   0.900   4.362   0.885 -0.2469  0.2168 -0.1375
 4715TIP3    H114151   0.816   4.336   0.846  0.0710 -0.5721 -0.3215
 4715TIP3    H214152   0.944   4.279   0.903  2.3312  0.4587 -4.0221
 4716TIP3   OH214153   3.029   2.321   3.373 -0.0796  0.0766  0.5487
 4716TIP3    H114154   3.023   2.234   3.412  0.5562 -0.3665 -0.3169
 4716TIP3    H214155   3.039   2.305   3.279  2.0425  0.9963  0.5589
 4717TIP3   OH214156   5.360   5.883   4.679 -0.4021 -0.6454  0.7602
 4717TIP3    H114157   5.423   5.909   4.747 -0.3788 -0.8834  0.8307
 4717TIP3    H214158   5.338   5.793   4.701  0.4155 -1.0909 -0.1638
 4718TIP3   OH214159   1.323   1.772   2.535 -0.1620 -0.5035 -0.3583
 4718TIP3    H114160   1.235   1.736   2.522 -0.3139 -0.9089  1.4847
 4718TIP3    H214161   1.361   1.717   2.603  1.7890 -0.7341 -1.5864
 4719TIP3   OH214162   1.555   4.220   3.354  0.0670 -0.1529  0.5411
 4719TIP3    H114163   1.463   4.194   3.357  0.0387 -0.0055  1.1599
 4719TIP3    H214164   1.553   4.313   3.377  0.3738 -0.1602  0.5926
 4720TIP3   OH214165   0.545   5.346   4.373 -0.0857 -0.4425  0.0048
 4720TIP3    H114166   0.456   5.345   4.337 -0.5283 -0.4440  1.0672
 4720TIP3    H214167   0.532   5.343   4.468  0.9559  2.2068  0.2983
 4721TIP3   OH214168   3.711   1.385   4.463 -0.8260 -0.4529  0.0934
 4721TIP3    H114169   3.767   1.462   4.474 -0.3461 -1.0524  2.2472
 4721TIP3    H214170   3.770   1.310   4.474 -1.3682 -1.1699 -1.5156
 4722TIP3   OH214171   6.072   2.654   5.113 -0.2178 -0.1101 -0.0860
 4722TIP3    H114172   6.007   2.589   5.088  0.6096 -1.0482  0.1471
 4722TIP3    H214173   6.139   2.605   5.162  0.4596  0.8943  0.0429
 4723TIP3   OH214174   6.124   5.512   4.382 -0.5842  0.3015  0.4274
 4723TIP3    H114175   6.123   5.576   4.453 -1.5543 -0.1759  0.8773
 4723TIP3    H214176   6.217   5.495   4.365 -0.3323  0.2679  1.7450
 4724TIP3   OH214177   4.899   5.668   3.708 -0.3146 -0.3531 -0.7998
 4724TIP3    H114178   4.920   5.624   3.790  0.1060 -0.8055 -1.1446
 4724TIP3    H214179   4.896   5.597   3.643 -1.0423 -0.0526 -1.0993
 4725TIP3   OH214180   4.929   3.196   1.229  0.1118  0.4419 -0.2664
 4725TIP3    H114181   4.943   3.210   1.136  1.6732 -1.9446 -0.4593
 4725TIP3    H214182   4.926   3.101   1.239  1.7321  0.5650  2.3233
 4726TIP3   OH214183   0.531   5.203   3.621 -0.7397  0.1499 -0.0939
 4726TIP3    H114184   0.546   5.297   3.628 -0.0795  0.1506 -1.2123
 4726TIP3    H214185   0.485   5.193   3.538 -2.5937 -0.3480  0.9465
 4727TIP3   OH214186   3.572   5.142   0.124  0.1684  0.1342 -0.9263
 4727TIP3    H114187   3.629   5.206   0.168 -1.4706  1.1344 -0.1356
 4727TIP3    H214188   3.587   5.061   0.172 -0.6050  0.9001  0.7415
 4728TIP3   OH214189   4.455   3.754   0.241  0.2381 -0.0976  0.2486
 4728TIP3    H114190   4.470   3.848   0.252 -0.6805  0.2294 -0.9738
 4728TIP3    H214191   4.411   3.747   0.156  0.6302 -1.6758  0.1432
 4729TIP3   OH214192   1.600   0.005   1.873  0.2736 -0.5209  0.5480
 4729TIP3    H114193   1.612   0.091   1.834 -0.0424 -0.4324  0.6434
 4729TIP3    H214194   1.532  -0.037   1.820  1.0571 -1.0670 -0.0652
 4730TIP3   OH214195   4.696   5.205   1.427 -0.1092 -0.6921 -0.4017
 4730TIP3    H114196   4.631   5.259   1.472  1.8002  1.2809  0.1548
 4730TIP3    H214197   4.656   5.185   1.342 -1.6381 -0.0305  0.1167
 4731TIP3   OH214198   2.370   0.622   2.469 -0.3819  0.3119  0.3569
 4731TIP3    H114199   2.463   0.645   2.469 -0.2968 -0.0270  0.1610
 4731TIP3    H214200   2.343   0.631   2.378 -0.3223 -0.4564  0.2580
 4732TIP3   OH214201   5.570   5.250   1.230 -0.1918 -0.3719  0.1673
 4732TIP3    H114202   5.603   5.254   1.320 -0.8717  0.2421  0.3979
 4732TIP3    H214203   5.488   5.202   1.236 -0.9836  0.9196  0.1207
 4733TIP3   OH214204   2.740   2.884   0.682 -0.1748 -0.5379 -0.6117
 4733TIP3    H114205   2.661   2.912   0.728  0.1714  0.1969 -0.4483
 4733TIP3    H214206   2.783   2.966   0.657  0.5092 -0.9309 -0.7404
 4734TIP3   OH214207   2.308   1.484   1.765  0.2051  0.4317  0.0539
 4734TIP3    H114208   2.390   1.441   1.788 -0.1550 -0.8498 -0.9524
 4734TIP3    H214209   2.262   1.495   1.848  0.1669 -1.4465  0.3265
 4735TIP3   OH214210   2.386   2.590   4.091 -0.0835  0.9508 -0.2132
 4735TIP3    H114211   2.347   2.651   4.029 -0.3738  2.0851  1.0480
 4735TIP3    H214212   2.474   2.624   4.107 -0.4930  1.4854  1.0371
 4736TIP3   OH214213   1.440   3.368   0.529  0.6633 -0.0212  0.4598
 4736TIP3    H114214   1.393   3.318   0.462  2.2915  0.1982 -0.9138
 4736TIP3    H214215   1.380   3.369   0.604 -0.4059 -1.9841 -0.2734
 4737TIP3   OH214216   1.794   5.198   4.119  0.4626 -0.0218 -0.0563
 4737TIP3    H114217   1.818   5.119   4.168 -1.4053  0.3019  1.5358
 4737TIP3    H214218   1.865   5.259   4.135  0.6310 -0.4741  1.0077
 4738TIP3   OH214219   4.904   5.390   3.275 -0.0055 -0.1735 -0.4306
 4738TIP3    H114220   4.922   5.298   3.257  0.1010  0.0727 -1.6937
 4738TIP3    H214221   4.902   5.432   3.189 -1.1444  0.8153  0.0320
 4739TIP3   OH214222   3.804   2.645   1.041 -0.5784 -0.4349 -0.2236
 4739TIP3    H114223   3.776   2.562   1.002  1.7768 -0.8629 -1.1507
 4739TIP3    H214224   3.788   2.634   1.134 -1.7953 -1.2838 -0.5022
 4740TIP3   OH214225   5.588   5.173   5.167 -0.1813 -0.3990 -0.4521
 4740TIP3    H114226   5.643   5.120   5.225  0.6481  1.8505  0.9335
 4740TIP3    H214227   5.645   5.197   5.094  0.0737  0.2356 -0.0512
 4741TIP3   OH214228   4.520   4.313   2.580 -0.0072  0.4853  0.4238
 4741TIP3    H114229   4.478   4.331   2.496 -0.1077  2.9930  0.9264
 4741TIP3    H214230   4.588   4.248   2.559 -0.9967 -0.0779 -1.2774
 4742TIP3   OH214231   0.664   2.056   4.018  0.1646 -1.0720 -0.3804
 4742TIP3    H114232   0.622   2.133   4.057  0.8427 -1.2278  0.6793
 4742TIP3    H214233   0.595   2.016   3.965 -0.7700 -0.8143  0.6078
 4743TIP3   OH214234   3.226   4.921   1.517 -0.1993 -0.3559  0.4857
 4743TIP3    H114235   3.216   4.844   1.462 -0.5362 -0.0725  0.1479
 4743TIP3    H214236   3.198   4.892   1.604 -1.3874 -0.3296  0.1333
 4744TIP3   OH214237   3.133   5.862   2.949 -0.5581  0.2090  0.6192
 4744TIP3    H114238   3.081   5.799   2.900 -0.1288 -0.4275  0.9708
 4744TIP3    H214239   3.121   5.945   2.902 -2.1611  0.1569  0.8878
 4745TIP3   OH214240   1.530   4.475   3.448  0.0089 -0.3281  0.2934
 4745TIP3    H114241   1.574   4.547   3.404 -0.3136  0.3736  1.0737
 4745TIP3    H214242   1.438   4.503   3.453  0.0227 -0.4222  1.3022
 4746TIP3   OH214243   0.505   2.031   5.047  0.5118 -0.1442  0.2831
 4746TIP3    H114244   0.583   1.993   5.088  0.1265 -0.0099  1.1519
 4746TIP3    H214245   0.524   2.124   5.042 -0.1764  0.0972  1.8379
 4747TIP3   OH214246   1.704   2.467   0.510  0.3686  0.3001  0.3397
 4747TIP3    H114247   1.767   2.417   0.562  1.1998  0.0495 -0.8456
 4747TIP3    H214248   1.699   2.419   0.427 -2.0169 -0.1358  0.6681
 4748TIP3   OH214249   1.648   4.186   0.391 -0.2271 -0.5228 -0.6088
 4748TIP3    H114250   1.703   4.217   0.463 -2.4886  0.2939  0.8901
 4748TIP3    H214251   1.606   4.107   0.424 -0.8144 -0.5045 -1.2694
 4749TIP3   OH214252   5.273   5.027   1.778  0.5567 -0.0385  0.3311
 4749TIP3    H114253   5.362   5.037   1.813  0.4112  2.3910  0.1938
 4749TIP3    H214254   5.231   4.965   1.837  2.0576 -0.5778  0.9027
 4750TIP3   OH214255   1.947   1.806   4.135  0.7508 -0.2058  0.4464
 4750TIP3    H114256   1.859   1.767   4.146 -0.9250  3.1289  0.0238
 4750TIP3    H214257   1.987   1.755   4.065 -2.8563  1.0916 -2.8924
 4751TIP3   OH214258   5.525   4.993   3.365  0.1506 -0.2295  0.4769
 4751TIP3    H114259   5.616   5.014   3.345 -0.2402 -0.4399 -1.7478
 4751TIP3    H214260   5.474   5.048   3.305 -1.2068 -0.1386  1.6641
 4752TIP3   OH214261   2.584   2.006   0.003  0.1816 -0.2281 -0.1019
 4752TIP3    H114262   2.519   2.062  -0.041 -0.6032  0.0903  1.4063
 4752TIP3    H214263   2.591   2.043   0.091 -0.7788 -2.8154  1.1479
 4753TIP3   OH214264   2.374   3.471   3.811  0.5728  0.0210  0.6579
 4753TIP3    H114265   2.424   3.538   3.764  0.2245  0.1303  0.4362
 4753TIP3    H214266   2.353   3.405   3.745 -0.4305  0.4667  0.5084
 4754TIP3   OH214267   5.167   1.300   3.363 -0.3736 -0.1087  0.0459
 4754TIP3    H114268   5.197   1.342   3.443 -1.3656  0.0676  0.3492
 4754TIP3    H214269   5.081   1.339   3.347  1.0195  2.1795 -2.8166
 4755TIP3   OH214270   5.676   1.225   4.920 -0.1931 -0.0503  0.6838
 4755TIP3    H114271   5.747   1.270   4.874  0.0555 -0.8966  0.2297
 4755TIP3    H214272   5.703   1.227   5.012 -0.6707  1.6064  0.8245
 4756TIP3   OH214273   1.067   0.306   3.653  0.1218  0.1231 -0.0552
 4756TIP3    H114274   1.072   0.392   3.611 -0.1415  0.3919  0.4526
 4756TIP3    H214275   1.036   0.247   3.584 -0.7946  0.6526 -0.1099
 4757TIP3   OH214276   4.396   5.167   1.332  0.1731 -0.5031 -0.4681
 4757TIP3    H114277   4.400   5.190   1.425 -0.4081 -0.6325 -0.4066
 4757TIP3    H214278   4.412   5.072   1.331  1.6523 -0.2633 -0.6374
 4758TIP3   OH214279   0.969   2.051   4.298 -0.1411  0.5393 -0.3524
 4758TIP3    H114280   0.888   2.101   4.295 -0.0588  0.6846 -0.1672
 4758TIP3    H214281   0.999   2.059   4.389 -0.7538 -0.8431 -0.0072
 4759TIP3   OH214282   3.817   5.453   2.165  0.4884  0.3402  0.9215
 4759TIP3    H114283   3.812   5.548   2.160  1.1053  0.3137 -1.7809
 4759TIP3    H214284   3.909   5.433   2.151  0.6100 -0.6433  2.8791
 4760TIP3   OH214285   2.612   3.307   4.405 -0.4438 -0.2858 -0.7518
 4760TIP3    H114286   2.658   3.388   4.382 -0.3739 -0.0960  0.0024
 4760TIP3    H214287   2.522   3.334   4.422 -0.2939 -0.2562  0.0614
 4761TIP3   OH214288   4.782   0.179   0.133  0.0615  0.3001  0.2455
 4761TIP3    H114289   4.772   0.210   0.223 -1.2414  0.1550  0.1606
 4761TIP3    H214290   4.876   0.159   0.126  0.1015 -0.1860  1.7300
 4762TIP3   OH214291   5.172   4.051   2.629  0.5627 -0.2097  0.6320
 4762TIP3    H114292   5.240   4.057   2.562  1.4020 -0.3270  1.4503
 4762TIP3    H214293   5.145   3.959   2.628 -1.6421  0.3562 -1.6283
 4763TIP3   OH214294   1.416   1.552   3.755  0.3018 -0.2555 -0.4967
 4763TIP3    H114295   1.483   1.585   3.695 -0.6064  0.0409 -1.3747
 4763TIP3    H214296   1.333   1.568   3.710 -0.2959 -1.8365 -0.0168
 4764TIP3   OH214297   3.087   0.586   3.638 -0.2352 -0.8168  0.0970
 4764TIP3    H114298   3.001   0.586   3.681 -0.8604  0.5819 -1.0800
 4764TIP3    H214299   3.070   0.553   3.550  0.2911  0.0811 -0.3592
 4765TIP3   OH214300   0.941   2.872   0.729  0.5751 -0.1375 -0.3315
 4765TIP3    H114301   0.990   2.902   0.805 -0.5950  1.4435 -0.1783
 4765TIP3    H214302   0.873   2.938   0.715 -0.2857 -1.2535 -1.7374
 4766TIP3   OH214303   3.897   5.658   1.345  0.2287  0.2432  0.1053
 4766TIP3    H114304   3.869   5.686   1.432 -0.1266 -4.0936  1.6281
 4766TIP3    H214305   3.816   5.647   1.296  0.2864  0.6707 -0.0920
 4767TIP3   OH214306   6.177   0.160   2.584 -0.0246  0.0817  0.5989
 4767TIP3    H114307   6.231   0.084   2.561  0.8439  0.9301 -0.2812
 4767TIP3    H214308   6.202   0.182   2.673 -0.6232 -0.9291  1.0334
 4768TIP3   OH214309   0.659   5.532   1.976 -0.9223  0.1476  0.0130
 4768TIP3    H114310   0.695   5.569   2.056 -2.1945 -0.9882  1.1477
 4768TIP3    H214311   0.734   5.529   1.916  0.4102 -0.2924  1.6248
 4769TIP3   OH214312   1.673   3.538   3.777 -0.2223  0.0258 -0.5393
 4769TIP3    H114313   1.691   3.445   3.769 -0.9053 -0.0836 -0.8767
 4769TIP3    H214314   1.739   3.580   3.722  0.7058 -0.1846  0.3840
 4770TIP3   OH214315   1.512   1.400   0.033 -0.3082 -0.3577  0.3218
 4770TIP3    H114316   1.551   1.316   0.007 -0.5334 -0.9847  1.8805
 4770TIP3    H214317   1.585   1.450   0.070 -0.2807 -0.0819 -0.1046
 4771TIP3   OH214318   2.686   1.256   2.092  0.3262 -0.7044 -0.1823
 4771TIP3    H114319   2.595   1.269   2.120  0.6726  1.7037  0.0523
 4771TIP3    H214320   2.688   1.165   2.061 -2.0166 -1.0036  0.2817
 4772TIP3   OH214321   0.977   1.861   0.523 -0.6999  0.6878  0.9099
 4772TIP3    H114322   0.968   1.891   0.433 -0.1398  1.4566  1.1042
 4772TIP3    H214323   0.991   1.940   0.575  1.2057  0.1052  1.3773
 4773TIP3   OH214324   5.477   2.925   3.464  0.1787  0.6872  0.1607
 4773TIP3    H114325   5.401   2.886   3.420 -1.5329  3.6676  0.1634
 4773TIP3    H214326   5.500   2.862   3.532 -1.7823 -0.7070 -0.3460
 4774TIP3   OH214327   2.834   4.693   3.774  0.5490  0.4820 -0.2933
 4774TIP3    H114328   2.825   4.625   3.841  2.1822  1.4102  0.9166
 4774TIP3    H214329   2.909   4.665   3.721 -1.0503 -0.5402 -2.2069
 4775TIP3   OH214330   3.604   0.223   2.628  0.2576  0.4745 -0.0052
 4775TIP3    H114331   3.640   0.303   2.666 -2.0228  0.9916  1.1969
 4775TIP3    H214332   3.532   0.252   2.573 -0.7096 -0.7421  0.5710
 4776TIP3   OH214333   5.182   2.695   1.234  0.3360  0.1107 -0.1676
 4776TIP3    H114334   5.216   2.700   1.323 -0.9545 -0.7695  0.4068
 4776TIP3    H214335   5.133   2.613   1.231  0.9676 -0.2482 -1.9277
 4777TIP3   OH214336  -0.005   5.511   1.525 -0.1042  0.2175  0.0941
 4777TIP3    H114337  -0.016   5.594   1.572 -0.6930  1.0801 -1.4778
 4777TIP3    H214338   0.087   5.510   1.500  0.3051 -0.4288  1.5348
 4778TIP3   OH214339   4.766   4.753   0.532 -1.0318 -0.1271 -0.4537
 4778TIP3    H114340   4.708   4.786   0.463  0.2859  1.2122 -0.9809
 4778TIP3    H214341   4.762   4.819   0.601 -0.3887 -0.1667 -0.3712
 4779TIP3   OH214342   5.129   3.707   4.010 -0.1697  0.7350  0.0555
 4779TIP3    H114343   5.132   3.612   4.002  0.4991  0.7965 -0.5164
 4779TIP3    H214344   5.135   3.724   4.104  0.5429  0.2353  0.1018
 4780TIP3   OH214345   1.365   2.910   1.481  0.1111  0.4205 -0.2891
 4780TIP3    H114346   1.396   2.820   1.495 -1.3328 -0.6718 -3.0902
 4780TIP3    H214347   1.436   2.966   1.513  1.4321 -1.7242  0.7701
 4781TIP3   OH214348   0.415   5.475   0.916  0.1336 -0.0803  0.2864
 4781TIP3    H114349   0.440   5.383   0.916  0.7070  0.0714 -0.0614
 4781TIP3    H214350   0.349   5.483   0.846 -2.6248 -0.9130  2.5895
 4782TIP3   OH214351   4.923   0.176   3.949 -0.1473  0.7153  0.1865
 4782TIP3    H114352   4.959   0.121   4.019 -0.7125  0.2784  0.1471
 4782TIP3    H214353   4.895   0.113   3.882  2.1216  1.1993 -1.3021
 4783TIP3   OH214354   5.587   4.332   4.354  0.3478  0.4255  0.2406
 4783TIP3    H114355   5.657   4.277   4.389  0.4807  0.9703  0.8393
 4783TIP3    H214356   5.621   4.421   4.359  0.2681  0.5553 -1.0470
 4784TIP3   OH214357   2.604   0.994   3.054 -0.2714 -0.1812 -0.2543
 4784TIP3    H114358   2.525   1.020   3.100  1.1159  0.6854  1.7879
 4784TIP3    H214359   2.585   0.907   3.020 -2.4515  0.4394 -0.7980
 4785TIP3   OH214360   1.718   2.101   0.835 -0.3065 -0.4062 -0.1354
 4785TIP3    H114361   1.675   2.025   0.874  0.2839 -0.2965  0.7521
 4785TIP3    H214362   1.690   2.175   0.890  1.2084 -0.3716  0.6448
 4786TIP3   OH214363   4.452   2.278   4.409 -0.1990  0.1660  0.1819
 4786TIP3    H114364   4.434   2.362   4.366  0.3369 -0.4579 -1.3247
 4786TIP3    H214365   4.513   2.301   4.480  3.4672  0.6644 -2.7778
 4787TIP3   OH214366   0.060   4.602   2.391  0.9630 -0.1822 -0.5830
 4787TIP3    H114367   0.042   4.596   2.484  0.0719 -0.1917 -0.7460
 4787TIP3    H214368  -0.023   4.579   2.349  2.0018 -2.6850 -1.4348
 4788TIP3   OH214369   2.618   0.762   2.476 -0.0159  0.2385  0.4053
 4788TIP3    H114370   2.639   0.791   2.387 -1.5925 -0.0779 -0.0917
 4788TIP3    H214371   2.601   0.844   2.524 -1.3061  0.3281 -0.1668
 4789TIP3   OH214372   5.761   0.791   4.713 -0.6832  0.1600 -0.0492
 4789TIP3    H114373   5.812   0.711   4.702 -0.0170  0.6126 -0.3622
 4789TIP3    H214374   5.820   0.861   4.684 -1.1788  0.7841  0.4135
 4790TIP3   OH214375   2.350   2.917   1.666  0.0847 -0.1779  0.0832
 4790TIP3    H114376   2.445   2.926   1.659  0.1384 -0.8491 -0.1626
 4790TIP3    H214377   2.317   3.007   1.667  0.6574  0.0529 -0.7696
 4791TIP3   OH214378   1.695   0.560   2.401  0.2895 -0.0489  0.4415
 4791TIP3    H114379   1.692   0.479   2.349  1.6206  0.7824 -1.0365
 4791TIP3    H214380   1.755   0.539   2.473  1.4606 -0.1098 -0.5126
 4792TIP3   OH214381   3.748   0.222   0.185  0.4087 -0.2722 -0.1784
 4792TIP3    H114382   3.823   0.211   0.127  1.0121 -0.2785  0.5866
 4792TIP3    H214383   3.719   0.313   0.170  1.2871  0.1050  0.3532
 4793TIP3   OH214384   2.410   0.294   1.098  0.2387  0.0183 -0.0127
 4793TIP3    H114385   2.383   0.313   1.008  0.1274  2.1738  0.4124
 4793TIP3    H214386   2.447   0.206   1.094  1.5407  0.5798 -2.4724
 4794TIP3   OH214387   1.847   2.553   4.276  0.1192 -0.4871  0.0852
 4794TIP3    H114388   1.759   2.514   4.275  0.7469 -2.5866  4.1934
 4794TIP3    H214389   1.834   2.640   4.314 -0.3219 -0.0443 -1.0333
 4795TIP3   OH214390   5.205   2.959   3.997  0.3803 -0.5111 -0.7984
 4795TIP3    H114391   5.237   2.902   3.928  0.4341 -1.7798  0.2389
 4795TIP3    H214392   5.282   2.979   4.050  0.2609  0.0992 -0.8385
 4796TIP3   OH214393   5.660   2.028   3.768 -0.1618 -0.1040 -0.2911
 4796TIP3    H114394   5.735   2.026   3.709  1.2119 -0.6702  1.3979
 4796TIP3    H214395   5.681   2.096   3.832 -1.4501  0.2588 -0.2296
 4797TIP3   OH214396   2.321   3.645   0.565  0.0394  0.0514 -0.2554
 4797TIP3    H114397   2.248   3.706   0.567  1.3110  1.7042 -1.6306
 4797TIP3    H214398   2.394   3.694   0.603  0.4958 -1.5416  1.0496
 4798TIP3   OH214399   2.574   0.051   0.746 -0.8662 -0.1664  0.6643
 4798TIP3    H114400   2.607  -0.037   0.761 -0.8806 -0.2901 -0.0384
 4798TIP3    H214401   2.480   0.045   0.763 -1.2314 -0.7674 -1.3720
 4799TIP3   OH214402   4.524   0.348   1.646  0.0389 -0.4105 -0.2537
 4799TIP3    H114403   4.519   0.442   1.631 -0.1914 -0.4610 -0.5072
 4799TIP3    H214404   4.442   0.314   1.610  1.0141 -0.9536 -2.0863
 4800TIP3   OH214405   6.206   5.761   3.675 -0.8351  0.3457  0.3515
 4800TIP3    H114406   6.284   5.785   3.624 -1.2298 -0.1424 -0.5150
 4800TIP3    H214407   6.226   5.675   3.711 -0.7854  0.4344  0.5370
 4801TIP3   OH214408   3.631   4.526   4.452  0.0586  0.4212 -0.2110
 4801TIP3    H114409   3.686   4.462   4.497 -0.3491 -0.4398 -0.8882
 4801TIP3    H214410   3.690   4.568   4.389  0.2981  0.6066  0.1386
 4802TIP3   OH214411   3.378   2.591   0.298  0.3807 -0.2471 -0.0052
 4802TIP3    H114412   3.466   2.557   0.282  1.1248 -0.0991  3.1310
 4802TIP3    H214413   3.336   2.524   0.352 -1.8123 -0.6934 -2.0764
 4803TIP3   OH214414   6.222   5.689   4.976 -0.2990  0.5510  0.3413
 4803TIP3    H114415   6.263   5.758   5.028 -0.2720 -0.4769  1.7327
 4803TIP3    H214416   6.143   5.667   5.025  0.2269 -1.1146  0.4910
 4804TIP3   OH214417   5.583   4.787   0.842 -0.5504  0.2931  0.2900
 4804TIP3    H114418   5.491   4.769   0.822  0.0724  1.1661 -4.8787
 4804TIP3    H214419   5.628   4.703   0.827 -0.2464  0.4670  0.2198
 4805TIP3   OH214420   5.833   3.583   4.131 -0.1888  0.3392 -0.2245
 4805TIP3    H114421   5.867   3.600   4.219 -1.7614  1.2220  0.2647
 4805TIP3    H214422   5.908   3.599   4.073  1.1614 -1.2657  0.9760
 4806TIP3   OH214423   2.137   4.118   3.420 -0.2599 -0.1186  0.0319
 4806TIP3    H114424   2.135   4.075   3.334 -2.2202  0.6538 -0.3657
 4806TIP3    H214425   2.048   4.153   3.431  0.3332  0.9445  1.7997
 4807TIP3   OH214426   0.378   5.695   2.671 -0.0807 -0.2234  0.1298
 4807TIP3    H114427   0.449   5.711   2.734  0.3317 -1.1495 -0.0798
 4807TIP3    H214428   0.374   5.600   2.664 -1.6655 -0.2137  0.4813
 4808TIP3   OH214429   3.453   1.444   0.907  0.3087 -0.2681 -0.1060
 4808TIP3    H114430   3.451   1.425   0.814 -0.2532 -0.4415 -0.0584
 4808TIP3    H214431   3.500   1.527   0.914 -3.5097  2.2014 -0.9504
 4809TIP3   OH214432   2.248   1.408   2.475 -0.0411  0.2887  0.0846
 4809TIP3    H114433   2.263   1.316   2.497  1.2137  0.3727 -0.3474
 4809TIP3    H214434   2.237   1.410   2.380 -1.4759  0.4264  0.2322
 4810TIP3   OH214435   0.549   0.828   1.065  0.2646  0.2281  0.1920
 4810TIP3    H114436   0.579   0.740   1.041  1.4219 -0.0097  2.2592
 4810TIP3    H214437   0.545   0.876   0.982  0.2523 -1.5630 -0.8932
 4811TIP3   OH214438   2.433   2.210   4.967 -0.1480  0.4585  0.5196
 4811TIP3    H114439   2.397   2.263   5.038  1.4529  0.0021  1.7334
 4811TIP3    H214440   2.517   2.178   5.001 -0.2601 -1.4257 -0.8280
 4812TIP3   OH214441   6.270   3.562   4.252  0.1658 -0.2033 -0.1214
 4812TIP3    H114442   6.339   3.576   4.189  0.0091  0.0117 -0.2463
 4812TIP3    H214443   6.236   3.475   4.232 -0.7202  0.3514 -1.1478
 4813TIP3   OH214444   0.086   2.551   3.535  0.1832 -0.0342 -0.7811
 4813TIP3    H114445   0.167   2.505   3.558 -0.7217 -2.0208 -1.3324
 4813TIP3    H214446   0.058   2.511   3.453 -1.1797  0.8666 -0.7872
 4814TIP3   OH214447   2.426   1.871   5.070  0.5696  0.3032  0.1752
 4814TIP3    H114448   2.379   1.911   4.997  2.5999  0.6684 -1.0170
 4814TIP3    H214449   2.518   1.893   5.054  1.4532 -2.4010  1.0752
 4815TIP3   OH214450   0.576   5.163   2.552 -0.2095 -0.8584  0.0686
 4815TIP3    H114451   0.634   5.237   2.567 -0.9506  0.0535 -1.3803
 4815TIP3    H214452   0.590   5.139   2.460  0.8992 -3.3236  0.7812
 4816TIP3   OH214453   5.479   1.763   2.072  0.3291  0.0753 -0.9208
 4816TIP3    H114454   5.542   1.815   2.121 -0.5651 -0.4725  0.8802
 4816TIP3    H214455   5.395   1.805   2.089 -0.0730 -0.4614 -1.5387
 4817TIP3   OH214456   2.148   0.332   2.053 -0.2297 -0.3839  0.1275
 4817TIP3    H114457   2.053   0.327   2.054 -0.6331  3.4691 -0.6741
 4817TIP3    H214458   2.167   0.416   2.010  3.5254 -0.8363  0.5266
 4818TIP3   OH214459   2.604   5.454   4.566  0.4398 -0.2864  0.1143
 4818TIP3    H114460   2.679   5.419   4.614  0.1869 -0.9300  0.0386
 4818TIP3    H214461   2.625   5.439   4.474 -0.2138 -1.3439  0.1324
 4819TIP3   OH214462   2.288   4.465   0.667  0.2338 -0.1657  0.0960
 4819TIP3    H114463   2.353   4.515   0.618 -0.1497 -0.0910 -0.3346
 4819TIP3    H214464   2.300   4.494   0.758  0.9664 -0.3335  0.0627
 4820TIP3   OH214465   1.934   2.745   2.855  0.4792  0.1496 -0.2573
 4820TIP3    H114466   1.920   2.813   2.920  0.8798 -1.4010  1.5494
 4820TIP3    H214467   1.846   2.724   2.823  0.0586 -0.2242  1.0704
 4821TIP3   OH214468   5.293   4.776   3.102  0.0073  0.4269 -0.0571
 4821TIP3    H114469   5.365   4.790   3.041  0.4434  1.0519  0.5842
 4821TIP3    H214470   5.280   4.681   3.103 -1.3927  0.5024 -2.6751
 4822TIP3   OH214471   3.851   2.471   1.994 -0.5247 -0.4038  0.0389
 4822TIP3    H114472   3.777   2.410   2.000 -1.2018  0.2930 -0.9802
 4822TIP3    H214473   3.811   2.555   1.971  0.6472 -0.1620 -1.2162
 4823TIP3   OH214474   2.050   5.174   0.724  0.0764  0.0367  0.1221
 4823TIP3    H114475   2.107   5.229   0.670  1.8454  1.9805  3.6634
 4823TIP3    H214476   1.967   5.222   0.727  0.1104  0.1409 -0.4064
 4824TIP3   OH214477   1.176   4.847   3.293 -0.2912 -0.4401 -0.1316
 4824TIP3    H114478   1.208   4.865   3.205  1.5688 -3.2965 -0.1888
 4824TIP3    H214479   1.226   4.906   3.350  0.5490 -0.4924 -0.7899
 4825TIP3   OH214480   4.385   5.920   2.001  0.0652 -0.0581  0.2865
 4825TIP3    H114481   4.445   5.929   2.075  0.5294  1.7667 -0.2595
 4825TIP3    H214482   4.356   5.829   2.004  0.7908 -0.2620  2.1511
 4826TIP3   OH214483   2.713   2.977   3.782 -0.2014 -0.4675 -0.0474
 4826TIP3    H114484   2.715   3.024   3.865 -0.8152  2.1900 -1.4458
 4826TIP3    H214485   2.805   2.966   3.758 -0.0248 -1.2080  0.9269
 4827TIP3   OH214486   3.101   0.710   0.958 -0.0954 -0.5186 -0.3411
 4827TIP3    H114487   3.176   0.725   0.900 -0.4694  0.5372 -0.5798
 4827TIP3    H214488   3.139   0.709   1.046  0.1603  0.5464 -0.4155
 4828TIP3   OH214489   0.282   4.873   0.776 -0.1035 -0.4423  0.2455
 4828TIP3    H114490   0.223   4.843   0.845 -0.5592 -0.4499 -0.1491
 4828TIP3    H214491   0.282   4.803   0.711  0.4296 -0.4949  0.2933
 4829TIP3   OH214492   5.772   2.149   3.288  0.1218  0.8073  0.0569
 4829TIP3    H114493   5.813   2.073   3.329  2.9603  2.0340 -0.2063
 4829TIP3    H214494   5.767   2.128   3.195 -1.2091  0.1107  0.2748
 4830TIP3   OH214495   2.012   5.328   4.174 -0.0880  0.9299  0.0670
 4830TIP3    H114496   1.977   5.367   4.254  0.7136  0.1214  0.8335
 4830TIP3    H214497   2.089   5.279   4.203 -1.7656 -2.3350 -0.6300
 4831TIP3   OH214498   6.157   2.433   4.332  0.1844 -0.2089  0.1676
 4831TIP3    H114499   6.165   2.338   4.340  0.4512 -0.4991 -2.5705
 4831TIP3    H214500   6.234   2.460   4.282 -0.4677  1.2843 -0.0955
 4832TIP3   OH214501   5.542   0.971   0.373  0.3216  0.2599  0.1198
 4832TIP3    H114502   5.452   0.991   0.398  0.7947  1.6404  0.8340
 4832TIP3    H214503   5.553   1.013   0.288  0.3614  0.2923  0.1408
 4833TIP3   OH214504   0.543   3.067   2.031 -0.3772  0.1458 -0.1961
 4833TIP3    H114505   0.449   3.076   2.050 -0.4512 -1.0776  0.0611
 4833TIP3    H214506   0.546   3.010   1.955  0.1448  0.7888 -0.6697
 4834TIP3   OH214507   6.150   4.573   1.346  0.2183 -0.2196  0.4214
 4834TIP3    H114508   6.119   4.482   1.352 -0.9258  0.1966  1.2221
 4834TIP3    H214509   6.079   4.619   1.301 -1.0964  1.0266  3.4821
 4835TIP3   OH214510   1.777   5.126   0.632  0.3886 -0.1897 -0.3625
 4835TIP3    H114511   1.707   5.190   0.615  0.3915 -0.2499 -0.6057
 4835TIP3    H214512   1.730   5.047   0.659  0.3669 -0.2038 -0.4413
 4836TIP3   OH214513   5.965   4.662   1.164 -0.1470 -0.2637 -0.1756
 4836TIP3    H114514   6.003   4.685   1.079 -1.7930  0.0421 -0.8686
 4836TIP3    H214515   5.871   4.672   1.152 -0.6052 -2.5170  1.0048
 4837TIP3   OH214516   4.338   2.729   3.871 -0.0625  0.0655  0.5273
 4837TIP3    H114517   4.406   2.795   3.885 -0.9856  0.9726  0.8919
 4837TIP3    H214518   4.264   2.778   3.835  0.2932 -1.3051 -2.3784
 4838TIP3   OH214519   1.319   4.265   1.478 -0.3308  0.2283 -0.9514
 4838TIP3    H114520   1.414   4.267   1.466 -0.3170  1.5643 -0.7836
 4838TIP3    H214521   1.299   4.174   1.497  1.1399  0.1847  0.6611
 4839TIP3   OH214522   4.590   5.463   1.645  0.2309  0.0601  0.3157
 4839TIP3    H114523   4.667   5.504   1.603 -0.4033 -0.3102 -1.2769
 4839TIP3    H214524   4.535   5.537   1.670  0.3356  0.2828 -0.0903
 4840TIP3   OH214525   3.769   1.634   2.925 -0.0537 -0.0659  0.3708
 4840TIP3    H114526   3.699   1.690   2.957 -2.5571 -1.2164 -2.5140
 4840TIP3    H214527   3.770   1.560   2.985 -1.1756  0.1117  0.6346
 4841TIP3   OH214528   0.157   5.790   2.791  0.3009  0.3465  0.0994
 4841TIP3    H114529   0.219   5.761   2.724 -1.6374 -0.9458 -1.2572
 4841TIP3    H214530   0.147   5.714   2.848 -1.0102  0.0155 -0.5158
 4842TIP3   OH214531   1.038   0.803   4.927 -0.1789 -0.1895  0.2892
 4842TIP3    H114532   1.035   0.715   4.891  1.5903  0.8312 -2.7092
 4842TIP3    H214533   1.130   0.817   4.948  0.0481  1.6931 -1.5953
 4843TIP3   OH214534   4.275   2.526   0.630  0.4524 -0.1438  0.0507
 4843TIP3    H114535   4.359   2.571   0.619  0.4240 -0.2290 -0.5881
 4843TIP3    H214536   4.212   2.596   0.647  0.5294 -0.0024 -0.2350
 4844TIP3   OH214537   2.497   5.500   3.783 -0.3482 -0.0773  0.3791
 4844TIP3    H114538   2.490   5.552   3.704 -0.1242  3.0569  2.2635
 4844TIP3    H214539   2.408   5.497   3.818 -0.0221  1.0046  1.3824
 4845TIP3   OH214540   4.070   3.124   2.984 -0.1472 -0.4312 -0.0180
 4845TIP3    H114541   3.979   3.106   3.007 -0.5414  1.5148  0.0860
 4845TIP3    H214542   4.101   3.184   3.052  0.7098  0.1872 -0.9266
 4846TIP3   OH214543   1.596   5.697   1.236  0.3846  0.1248 -0.2689
 4846TIP3    H114544   1.551   5.652   1.307 -0.7467  2.5122  0.6351
 4846TIP3    H214545   1.585   5.639   1.160  0.2021 -1.7142  1.1075
 4847TIP3   OH214546   1.376   3.335   3.064 -0.0379  0.0926 -0.1957
 4847TIP3    H114547   1.390   3.414   3.115 -2.4477 -1.4696  3.3137
 4847TIP3    H214548   1.435   3.270   3.103 -0.9448 -0.8329 -0.3250
 4848TIP3   OH214549   2.241   5.555   3.350  1.0831 -0.4608 -0.5619
 4848TIP3    H114550   2.312   5.607   3.389  0.2315  0.9897 -0.8525
 4848TIP3    H214551   2.169   5.563   3.412  0.0075  1.1294 -1.9090
 4849TIP3   OH214552   0.275   5.243   2.824  0.4902 -0.3597  0.5773
 4849TIP3    H114553   0.350   5.302   2.823 -1.4626  2.3191 -1.1233
 4849TIP3    H214554   0.299   5.174   2.887  3.5783  1.3357  1.4343
 4850TIP3   OH214555   3.192   4.804   3.477  0.2423  0.2878  0.6904
 4850TIP3    H114556   3.229   4.744   3.412  0.6629  0.6968  0.5437
 4850TIP3    H214557   3.139   4.749   3.533 -1.4791  0.1660 -0.9691
 4851TIP3   OH214558   2.746   4.307   4.923  0.5153 -0.4140  0.7223
 4851TIP3    H114559   2.652   4.293   4.934  0.8270 -1.5869  2.2220
 4851TIP3    H214560   2.785   4.222   4.939  1.8911  0.1778  0.6688
 4852TIP3   OH214561   2.045   4.595   5.069  0.0460 -0.5671  0.6248
 4852TIP3    H114562   2.011   4.517   5.024  0.6591 -1.4232  1.5817
 4852TIP3    H214563   2.066   4.656   4.999 -2.8866 -0.1920 -0.0488
 4853TIP3   OH214564   4.445   3.009   0.283 -0.4318 -0.0043 -0.0313
 4853TIP3    H114565   4.531   2.983   0.318  0.0517  0.8645 -0.5279
 4853TIP3    H214566   4.405   2.927   0.255  0.9681 -0.2905 -1.3544
 4854TIP3   OH214567   0.354   3.423   0.273 -0.6669 -0.6130 -0.0219
 4854TIP3    H114568   0.367   3.329   0.279 -0.1010 -0.5232  0.1774
 4854TIP3    H214569   0.413   3.460   0.338 -0.3155 -0.0789 -0.6363
 4855TIP3   OH214570   4.164   3.692   3.370 -0.2403 -0.6296 -0.4988
 4855TIP3    H114571   4.108   3.723   3.299 -1.3562 -0.5745  0.3771
 4855TIP3    H214572   4.184   3.770   3.421 -2.0291 -1.0679  0.9934
 4856TIP3   OH214573   2.771   2.403   3.283 -0.0335  0.2951  0.2379
 4856TIP3    H114574   2.712   2.339   3.243  0.9053  0.6133 -1.7840
 4856TIP3    H214575   2.835   2.350   3.331  0.5620 -0.3322 -1.1679
 4857TIP3   OH214576   2.491   4.664   2.792  0.1435 -0.1254  0.1850
 4857TIP3    H114577   2.396   4.675   2.789  0.3773  2.6036  0.1986
 4857TIP3    H214578   2.515   4.679   2.883  0.5837 -1.0831  0.2397
 4858TIP3   OH214579   1.124   5.597   0.121  0.5040  0.7601  0.2575
 4858TIP3    H114580   1.144   5.663   0.056 -2.4651  1.0083 -0.5673
 4858TIP3    H214581   1.101   5.519   0.071 -1.3668  0.8107  0.9240
 4859TIP3   OH214582   0.887   4.808   3.323  0.3027  0.1761 -0.2451
 4859TIP3    H114583   0.870   4.739   3.387 -1.2777  0.4083 -0.3755
 4859TIP3    H214584   0.982   4.806   3.310  0.7076  0.2874  2.2751
 4860TIP3   OH214585   2.034   4.841   3.856 -0.5157 -0.4334  0.6851
 4860TIP3    H114586   2.068   4.827   3.944 -0.8047 -2.4475  0.5044
 4860TIP3    H214587   1.946   4.875   3.869 -0.6134 -0.8667  1.1738
 4861TIP3   OH214588   0.872   3.650   1.864 -0.2212 -0.2139 -0.4763
 4861TIP3    H114589   0.959   3.681   1.886  0.1022 -2.2083  1.4373
 4861TIP3    H214590   0.815   3.690   1.930 -0.2740 -1.2218  0.1003
 4862TIP3   OH214591   0.337   5.459   1.195  0.6213 -0.6220  0.0360
 4862TIP3    H114592   0.378   5.480   1.111  1.5164 -0.6498  0.4581
 4862TIP3    H214593   0.390   5.504   1.260 -0.2126 -0.3939  0.5786
 4863TIP3   OH214594   1.507   3.963   0.428 -0.3782 -0.7374  0.4693
 4863TIP3    H114595   1.417   3.958   0.459 -0.2352 -1.0658  0.8402
 4863TIP3    H214596   1.545   3.878   0.450 -0.2995 -1.0293 -0.7021
 4864TIP3   OH214597   5.540   3.779   1.691  0.0328  0.1361 -0.0054
 4864TIP3    H114598   5.520   3.835   1.766 -0.1369  1.4559 -0.9873
 4864TIP3    H214599   5.581   3.701   1.729 -0.8099  0.3890  1.5029
 4865TIP3   OH214600   4.089   0.424   3.335 -0.1666 -0.2658  0.5025
 4865TIP3    H114601   4.104   0.487   3.265 -0.0064 -1.0256 -0.1565
 4865TIP3    H214602   4.032   0.358   3.297  0.9783 -1.3923  0.6476
 4866TIP3   OH214603   1.567   4.883   2.197  0.1261 -0.1219 -0.1554
 4866TIP3    H114604   1.616   4.965   2.206 -0.4746  0.0704  1.6209
 4866TIP3    H214605   1.634   4.815   2.188  0.6893  0.2797  0.9717
 4867TIP3   OH214606   6.344   4.824   4.882 -0.0719 -0.2034 -0.0498
 4867TIP3    H114607   6.333   4.766   4.807  1.1168  1.1398 -1.3218
 4867TIP3    H214608   6.373   4.907   4.844  1.6160  0.2026  1.9798
 4868TIP3   OH214609   0.588   2.620   4.931  0.4515 -0.1572 -0.7497
 4868TIP3    H114610   0.522   2.650   4.993 -0.1818 -0.2095 -1.3872
 4868TIP3    H214611   0.575   2.674   4.853  0.0304 -1.2880 -1.5018
 4869TIP3   OH214612   1.695   2.169   2.904  0.7467  0.1801  0.2025
 4869TIP3    H114613   1.721   2.187   2.994 -1.8891 -0.7994  1.2418
 4869TIP3    H214614   1.611   2.123   2.911 -0.1804  1.1688 -2.7931
 4870TIP3   OH214615   2.516   1.178   5.032  0.0443 -0.2070  0.1674
 4870TIP3    H114616   2.481   1.245   4.973  0.1714 -0.4242 -0.1579
 4870TIP3    H214617   2.492   1.208   5.119 -0.1375  0.1240  0.0057
 4871TIP3   OH214618   5.799   1.715   3.927 -0.0672 -0.1052 -0.1516
 4871TIP3    H114619   5.786   1.805   3.958  0.5996  0.2256 -0.7954
 4871TIP3    H214620   5.886   1.692   3.959 -1.1275 -1.4011  2.0258
 4872TIP3   OH214621   0.302   4.056   4.737  0.2691 -0.2529  0.8347
 4872TIP3    H114622   0.334   4.145   4.720 -1.0587 -0.0483 -0.7717
 4872TIP3    H214623   0.373   4.015   4.786  1.6255  1.1697  0.1651
 4873TIP3   OH214624   4.184   1.570   3.792 -0.3761 -0.4839  0.0748
 4873TIP3    H114625   4.258   1.560   3.851 -0.8783 -1.6903  0.5374
 4873TIP3    H214626   4.210   1.525   3.712 -0.2034  0.0271 -0.1636
 4874TIP3   OH214627   1.307   2.528   1.244  0.2891 -0.4785  0.1455
 4874TIP3    H114628   1.261   2.465   1.300 -0.5456 -0.0719 -0.0604
 4874TIP3    H214629   1.237   2.581   1.207  1.0061  0.9421  0.7549
 4875TIP3   OH214630   2.623   4.903   3.772 -0.5121 -0.4472  0.1034
 4875TIP3    H114631   2.533   4.870   3.778 -0.5160 -0.7673 -1.3572
 4875TIP3    H214632   2.672   4.831   3.733  0.1464  0.1285 -0.1482
 4876TIP3   OH214633   4.232   5.113   4.674 -0.1112 -0.6419 -0.0722
 4876TIP3    H114634   4.149   5.159   4.660  0.7453  1.0262  0.0545
 4876TIP3    H214635   4.271   5.158   4.749  2.0257  0.2871 -1.6364
 4877TIP3   OH214636   2.954   0.930   2.071  0.7062  0.6747 -0.3922
 4877TIP3    H114637   2.994   1.013   2.096  1.4087  0.4711 -0.7837
 4877TIP3    H214638   3.027   0.880   2.034  0.2565 -0.0541 -0.2974
 4878TIP3   OH214639   4.549   1.810   3.656  0.2750 -0.3574  0.5772
 4878TIP3    H114640   4.546   1.862   3.575  0.0586  0.1095  0.8789
 4878TIP3    H214641   4.523   1.722   3.629 -0.4405 -0.0546  0.2495
 4879TIP3   OH214642   3.873   5.952   2.539 -0.1727  0.0384  0.0149
 4879TIP3    H114643   3.926   6.031   2.544 -0.4915  0.2500  0.1083
 4879TIP3    H214644   3.797   5.971   2.595  1.0970 -1.3801  2.3919
 4880TIP3   OH214645   5.627   5.034   0.716  0.1387 -0.0722 -0.1413
 4880TIP3    H114646   5.622   4.943   0.744 -1.4134  0.1120  0.2490
 4880TIP3    H214647   5.553   5.077   0.759  0.3400  1.1912 -1.0005
 4881TIP3   OH214648   1.030   3.086   1.946  0.0260  0.8659  0.1388
 4881TIP3    H114649   1.024   3.116   2.037 -0.4743  1.9108 -0.2247
 4881TIP3    H214650   1.123   3.094   1.924  0.4517 -0.9749  1.0523
 4882TIP3   OH214651   3.516   5.486   0.282  0.3034 -0.2547  0.4352
 4882TIP3    H114652   3.499   5.564   0.230  0.4060 -0.0353  0.7312
 4882TIP3    H214653   3.536   5.518   0.370  1.3833 -0.5394  0.3145
 4883TIP3   OH214654   1.187   1.897   4.552  0.3122 -0.1483  0.4375
 4883TIP3    H114655   1.169   1.813   4.510 -0.0486 -0.0475  0.3895
 4883TIP3    H214656   1.272   1.923   4.517 -0.3317  0.3130 -0.8683
 4884TIP3   OH214657   0.492   0.468   1.869  0.3700 -0.0341  0.1251
 4884TIP3    H114658   0.561   0.424   1.918 -0.8554 -0.4001  1.6048
 4884TIP3    H214659   0.421   0.403   1.865  0.0391  0.3720 -1.2489
 4885TIP3   OH214660   2.932   4.622   3.106 -0.5646  0.0190 -0.1519
 4885TIP3    H114661   3.019   4.604   3.141 -0.8128  2.3453  1.8957
 4885TIP3    H214662   2.879   4.548   3.135  0.3238 -0.4909  0.2016
 4886TIP3   OH214663   6.072   3.094   3.057 -0.1664 -0.3530  0.0409
 4886TIP3    H114664   6.039   3.020   3.006  2.3195 -0.7109 -1.2161
 4886TIP3    H214665   5.994   3.147   3.076 -1.9336 -2.8948  0.4185
 4887TIP3   OH214666   4.542   3.692   4.656 -0.1931 -0.3872 -0.4245
 4887TIP3    H114667   4.505   3.648   4.733 -1.4265  2.9406  1.0620
 4887TIP3    H214668   4.467   3.702   4.597 -0.0074 -0.0274 -0.5987
 4888TIP3   OH214669   4.678   0.056   2.969 -0.4378  0.5499 -0.3966
 4888TIP3    H114670   4.731   0.116   2.916 -0.9101  1.5917  0.2726
 4888TIP3    H214671   4.741   0.007   3.021 -0.0594  0.7858 -0.6241
 4889TIP3   OH214672   2.532   1.747   0.516  0.1884 -0.2146 -0.7355
 4889TIP3    H114673   2.471   1.808   0.476  0.7818 -0.3841 -1.9196
 4889TIP3    H214674   2.477   1.693   0.573 -0.6403  0.1482 -1.1719
 4890TIP3   OH214675   3.892   0.115   3.710  0.2300 -0.2794 -0.1294
 4890TIP3    H114676   3.959   0.114   3.642 -0.4413  2.4112 -0.9483
 4890TIP3    H214677   3.940   0.134   3.790  0.5078  2.2124 -0.7922
 4891TIP3   OH214678   1.877   5.921   3.951 -0.2664 -0.5125 -0.8672
 4891TIP3    H114679   1.810   5.987   3.970  1.0354  0.2760  1.4274
 4891TIP3    H214680   1.949   5.971   3.914  0.4961 -0.6927  0.3226
 4892TIP3   OH214681   0.439   5.816   2.433 -0.1215 -0.0117  0.6780
 4892TIP3    H114682   0.450   5.903   2.473  2.2024 -0.4127  1.0606
 4892TIP3    H214683   0.396   5.764   2.501  0.2470  0.3430  1.1964
 4893TIP3   OH214684   5.119   2.818   3.563  1.1062 -0.9417  0.3341
 4893TIP3    H114685   5.128   2.778   3.477 -1.8976  0.1105 -0.5857
 4893TIP3    H214686   5.152   2.907   3.551 -0.2898 -0.4636 -0.0513
 4894TIP3   OH214687   5.617   1.350   2.497 -0.1613  0.1771  0.2728
 4894TIP3    H114688   5.677   1.290   2.452 -1.3077 -1.1696  0.4542
 4894TIP3    H214689   5.586   1.408   2.428  1.3037  0.8862  0.1730
 4895TIP3   OH214690   3.070   1.207   4.409  0.2344 -0.2148 -0.0938
 4895TIP3    H114691   3.053   1.168   4.495  0.3149  1.5807  0.7689
 4895TIP3    H214692   3.164   1.196   4.396  0.3445  0.1386  0.3774
 4896TIP3   OH214693   5.858   5.683   0.495  0.1681 -0.2144 -0.0331
 4896TIP3    H114694   5.822   5.637   0.571  3.4546 -3.4053 -0.1819
 4896TIP3    H214695   5.849   5.621   0.423  1.2086  0.9517 -1.2053
 4897TIP3   OH214696   0.827   0.459   0.991  0.6577  0.3064  0.9457
 4897TIP3    H114697   0.830   0.382   1.049  1.4133 -1.0542 -0.8090
 4897TIP3    H214698   0.918   0.484   0.980  0.7288 -0.7109 -1.1817
 4898TIP3   OH214699   3.322   2.151   4.399 -0.4855  0.0363  0.0567
 4898TIP3    H114700   3.297   2.201   4.321  0.8655 -0.7714 -0.9381
 4898TIP3    H214701   3.299   2.208   4.472 -0.7445  1.3056 -0.9661
 4899TIP3   OH214702   1.560   5.749   2.745 -0.2338  0.2940  0.5668
 4899TIP3    H114703   1.637   5.795   2.712 -0.4386  1.4788  1.6938
 4899TIP3    H214704   1.574   5.658   2.718  0.6812  0.7980 -0.7832
 4900TIP3   OH214705   3.418   4.095   2.643  0.2092  0.2374 -0.0897
 4900TIP3    H114706   3.482   4.042   2.594  0.4024  0.3759  0.0116
 4900TIP3    H214707   3.438   4.185   2.619 -0.4711  0.2399 -0.6833
 4901TIP3   OH214708   1.932   0.081   2.195 -0.0222  0.1051  0.5874
 4901TIP3    H114709   2.012   0.028   2.201  0.4633  0.6767 -0.5780
 4901TIP3    H214710   1.916   0.110   2.285  1.8078  1.0058  0.6849
 4902TIP3   OH214711   4.751   0.718   0.953  0.2221 -0.0552  0.5640
 4902TIP3    H114712   4.761   0.812   0.968  0.4466 -0.1228  0.8533
 4902TIP3    H214713   4.839   0.682   0.964  0.0642 -0.3535  0.8847
 4903TIP3   OH214714   0.980   4.510   3.782 -0.2739  0.2325  0.1464
 4903TIP3    H114715   0.929   4.521   3.702  0.0495 -1.8681 -0.4045
 4903TIP3    H214716   0.916   4.484   3.848 -0.2435 -0.2952 -0.0225
 4904TIP3   OH214717   6.270   3.844   4.102  0.9674  0.4754  0.0321
 4904TIP3    H114718   6.348   3.805   4.143  1.5689  2.0406  0.4602
 4904TIP3    H214719   6.211   3.771   4.088  2.4613 -0.7416 -0.1714
 4905TIP3   OH214720   3.437   3.309   1.317  0.4937  0.4164  0.1039
 4905TIP3    H114721   3.407   3.325   1.407  1.4282  1.8614  0.1929
 4905TIP3    H214722   3.501   3.378   1.301 -0.6966  1.0886 -2.1927
 4906TIP3   OH214723   2.636   0.443   1.230 -0.0105 -0.2392 -0.6223
 4906TIP3    H114724   2.546   0.410   1.240 -0.0346 -0.4804 -1.4825
 4906TIP3    H214725   2.642   0.466   1.137  0.7379  0.0229 -0.5130
 4907TIP3   OH214726   1.163   0.032   4.410  0.0081  0.9192  0.3803
 4907TIP3    H114727   1.157  -0.004   4.499 -0.4710  2.1660  0.8840
 4907TIP3    H214728   1.146   0.126   4.422  1.6088  1.3916 -0.8217
 4908TIP3   OH214729   2.137   5.755   3.062  0.5567 -0.1246 -0.1879
 4908TIP3    H114730   2.167   5.846   3.060  1.4306 -0.3720 -3.5103
 4908TIP3    H214731   2.217   5.703   3.066  0.0648 -0.8324  1.6626
 4909TIP3   OH214732   0.463   4.237   5.047 -0.3681 -0.0087 -0.0336
 4909TIP3    H114733   0.540   4.224   4.992  0.7013  0.9746  1.1743
 4909TIP3    H214734   0.493   4.222   5.136 -1.2821  1.4778  0.5735
 4910TIP3   OH214735   0.350   3.988   3.680  0.4542 -0.0486 -0.9040
 4910TIP3    H114736   0.410   4.056   3.710  0.7878 -1.2730  1.3682
 4910TIP3    H214737   0.393   3.906   3.703 -1.1136 -0.9893 -1.1969
 4911TIP3   OH214738   0.121   0.486   0.722  0.0194 -0.3832 -0.1778
 4911TIP3    H114739   0.099   0.410   0.776  2.1158 -0.8421  0.1127
 4911TIP3    H214740   0.151   0.449   0.639 -4.3488  0.3379 -2.3290
 4912TIP3   OH214741   5.145   5.017   3.871  0.2111  0.1209  0.1954
 4912TIP3    H114742   5.156   5.017   3.966  0.3114 -1.9080  0.2252
 4912TIP3    H214743   5.214   4.959   3.839 -0.0476  0.4945 -1.1029
 4913TIP3   OH214744   4.327   1.519   0.189  0.8483 -0.3846 -0.2375
 4913TIP3    H114745   4.404   1.526   0.244 -0.1555 -0.0400  1.1678
 4913TIP3    H214746   4.269   1.589   0.219 -0.1291 -0.8061 -1.0739
 4914TIP3   OH214747   4.176   0.752   0.473  0.4175  0.6526 -0.5233
 4914TIP3    H114748   4.200   0.844   0.480 -0.2032  0.7402  0.7042
 4914TIP3    H214749   4.127   0.733   0.553 -0.1853 -0.5303 -1.1333
 4915TIP3   OH214750   2.077   1.141   2.954  0.2792 -0.1207 -0.3654
 4915TIP3    H114751   2.067   1.202   3.027  1.5027  0.9592 -1.0658
 4915TIP3    H214752   2.043   1.188   2.878 -1.7718 -1.5459 -0.4168
 4916TIP3   OH214753   0.457   5.218   0.876 -0.5957 -0.4039  0.1531
 4916TIP3    H114754   0.508   5.208   0.795 -0.9682  0.3521 -0.1877
 4916TIP3    H214755   0.418   5.132   0.890  1.0606 -1.1016  0.6288
 4917TIP3   OH214756   1.352   4.692   2.265 -1.0006 -0.2354  0.3567
 4917TIP3    H114757   1.336   4.684   2.359 -1.4456 -1.6495  0.1811
 4917TIP3    H214758   1.422   4.757   2.258 -0.9989 -0.0729  1.6570
 4918TIP3   OH214759   3.703   5.444   1.507  0.1087 -0.1541  0.4757
 4918TIP3    H114760   3.609   5.451   1.525 -0.1894  0.8416 -1.2998
 4918TIP3    H214761   3.736   5.534   1.515  0.3746 -0.0326 -1.5415
 4919TIP3   OH214762   1.351   4.409   4.038 -0.6691  0.1798  0.4503
 4919TIP3    H114763   1.302   4.431   4.118 -2.0785 -0.3544 -0.2386
 4919TIP3    H214764   1.387   4.493   4.008 -0.2779  0.4148  1.5292
 4920TIP3   OH214765   1.925   2.759   2.563 -0.2074  0.0274  0.0164
 4920TIP3    H114766   1.949   2.774   2.654 -1.0061 -0.2472  0.2716
 4920TIP3    H214767   1.962   2.834   2.516  0.2012  0.1706  0.5553
 4921TIP3   OH214768   2.060   2.195   4.281 -0.7556 -0.1591  0.1288
 4921TIP3    H114769   2.046   2.253   4.355 -3.7236  1.5421 -1.5709
 4921TIP3    H214770   1.973   2.158   4.263 -0.3794  0.1827 -2.9580
 4922TIP3   OH214771   3.237   4.094   1.004  0.5588 -0.5732 -0.0790
 4922TIP3    H114772   3.223   4.024   1.067  0.9128 -1.6716 -1.1710
 4922TIP3    H214773   3.259   4.048   0.922 -1.0660  0.7288 -1.3121
 4923TIP3   OH214774   5.995   2.430   3.265 -0.0896  0.5411  0.7024
 4923TIP3    H114775   5.917   2.438   3.319  0.5979  1.1923  1.6463
 4923TIP3    H214776   5.969   2.464   3.180 -1.5778 -1.7419  0.1588
 4924TIP3   OH214777   4.429   0.283   2.286 -0.7248 -0.0017  0.2877
 4924TIP3    H114778   4.518   0.314   2.304 -0.8157  0.7041 -0.4012
 4924TIP3    H214779   4.381   0.362   2.261 -0.7095 -0.7654 -2.5570
 4925TIP3   OH214780   4.991   4.577   5.017 -0.2194  0.8664 -0.2879
 4925TIP3    H114781   4.919   4.553   5.076  0.1034  1.1480  0.2265
 4925TIP3    H214782   4.957   4.652   4.968 -0.4004  0.7832 -0.2945
 4926TIP3   OH214783   1.617   0.471   4.772  0.5417 -0.2167 -0.6823
 4926TIP3    H114784   1.593   0.551   4.725 -1.6946  0.3106  1.1877
 4926TIP3    H214785   1.652   0.501   4.855  1.5225 -1.1840 -0.7215
 4927TIP3   OH214786   2.752   5.108   3.177 -0.1773  0.3240 -0.1108
 4927TIP3    H114787   2.837   5.141   3.150 -0.5845  1.1383 -0.4402
 4927TIP3    H214788   2.766   5.073   3.265  0.2235  1.6216  0.3583
 4928TIP3   OH214789   2.849   4.370   0.607 -0.7019 -0.1249 -0.0102
 4928TIP3    H114790   2.795   4.356   0.529  0.7147 -3.0373 -0.6366
 4928TIP3    H214791   2.904   4.445   0.585  0.6838 -1.7050 -2.5963
 4929TIP3   OH214792   2.484   3.000   0.735 -0.3588 -0.7306  0.4198
 4929TIP3    H114793   2.516   3.063   0.800  0.3428 -0.1442 -0.4561
 4929TIP3    H214794   2.392   2.988   0.756 -0.7899  1.4035  0.0368
 4930TIP3   OH214795   5.479   2.638   2.059  0.3729 -0.3880 -0.3967
 4930TIP3    H114796   5.434   2.718   2.083  1.8271  0.4153 -0.2625
 4930TIP3    H214797   5.499   2.649   1.966  1.2475 -0.2315 -0.2034
 4931TIP3   OH214798   0.931   3.540   3.907  0.0237 -0.2867  0.1000
 4931TIP3    H114799   1.004   3.578   3.956 -0.2453  0.3381  0.0246
 4931TIP3    H214800   0.969   3.514   3.823 -0.0286  0.9326 -0.3261
 4932TIP3   OH214801   5.241   5.032   4.674  0.2522  0.2161 -0.3145
 4932TIP3    H114802   5.173   5.080   4.627  0.2374 -0.7661 -1.3658
 4932TIP3    H214803   5.195   4.989   4.746  0.1283  1.1010  0.1469
 4933TIP3   OH214804   4.119   2.277   0.342 -0.5089 -0.1170  0.3060
 4933TIP3    H114805   4.048   2.250   0.284  0.2206 -0.1645 -0.5911
 4933TIP3    H214806   4.111   2.220   0.419 -1.4065 -0.1414  0.2035
 4934TIP3   OH214807   1.175   5.114   2.713 -0.2917 -0.0657  0.1073
 4934TIP3    H114808   1.094   5.146   2.753 -0.9562  0.0299 -1.2580
 4934TIP3    H214809   1.224   5.194   2.692 -0.3802 -0.0705 -0.1264
 4935TIP3   OH214810   3.303   3.215   3.096  0.2816  0.3996  0.3072
 4935TIP3    H114811   3.371   3.189   3.034  0.6383 -2.1604  1.6172
 4935TIP3    H214812   3.221   3.188   3.055  0.6499 -3.4876  1.6966
 4936TIP3   OH214813   6.235   0.829   0.416  0.2823  0.0284  0.1148
 4936TIP3    H114814   6.184   0.815   0.496  0.6888 -1.4752  0.1418
 4936TIP3    H214815   6.308   0.885   0.444  0.7623 -0.9797  0.9564
 4937TIP3   OH214816   5.949   5.228   2.730 -0.3447 -0.0654 -0.2103
 4937TIP3    H114817   5.919   5.215   2.820 -0.7499 -1.1526 -0.4842
 4937TIP3    H214818   5.918   5.316   2.707 -1.3563 -0.2718  0.2900
 4938TIP3   OH214819   2.907   0.658   2.600  0.1405  0.2955 -0.0487
 4938TIP3    H114820   2.901   0.654   2.696 -1.6651 -2.0409 -0.1720
 4938TIP3    H214821   2.893   0.751   2.580  2.2103  1.1452  1.9574
 4939TIP3   OH214822   2.790   3.789   4.943 -0.1715 -0.1899  0.2682
 4939TIP3    H114823   2.884   3.796   4.922  0.2206  2.4054  2.3993
 4939TIP3    H214824   2.771   3.695   4.936  2.1470 -0.6139 -1.8158
 4940TIP3   OH214825   0.910   1.923   4.575 -0.4120 -0.0845 -0.1263
 4940TIP3    H114826   1.005   1.927   4.571 -0.4051  0.8145  0.4376
 4940TIP3    H214827   0.890   1.917   4.669 -0.9337  2.6863  0.0517
 4941TIP3   OH214828   4.926   3.203   3.375  0.0465 -0.0379 -0.6656
 4941TIP3    H114829   4.988   3.206   3.448  0.2843  1.2277 -0.9057
 4941TIP3    H214830   4.890   3.114   3.378 -1.2662  0.4881  2.0641
 4942TIP3   OH214831   5.405   3.436   0.328  0.3752 -0.4412  0.2785
 4942TIP3    H114832   5.323   3.446   0.280  1.7724 -1.1141 -2.4657
 4942TIP3    H214833   5.465   3.500   0.288  2.3676 -2.8195 -0.8190
 4943TIP3   OH214834   5.187   1.032   3.121  0.1906 -0.2880  0.2496
 4943TIP3    H114835   5.272   1.060   3.154  0.9290 -2.7214  0.5733
 4943TIP3    H214836   5.126   1.052   3.193  0.3335  1.9464 -0.1846
 4944TIP3   OH214837   3.315   4.851   0.222  0.4438  0.3847 -0.0215
 4944TIP3    H114838   3.247   4.916   0.209  0.1414 -0.0724 -0.7777
 4944TIP3    H214839   3.350   4.834   0.134  0.7642 -0.2022  0.2112
 4945TIP3   OH214840   2.124   1.876   1.038  0.3528 -0.4963 -0.5996
 4945TIP3    H114841   2.201   1.835   1.077 -0.7013 -0.5330  1.6274
 4945TIP3    H214842   2.104   1.948   1.097 -1.0963 -0.2717 -1.3374
 4946TIP3   OH214843   2.921   0.321   4.481  0.2203  0.1144 -0.3177
 4946TIP3    H114844   2.907   0.415   4.493  0.7928  0.1070  0.4243
 4946TIP3    H214845   2.837   0.289   4.448 -0.5407  0.6080  1.0482
 4947TIP3   OH214846   0.546   0.414   2.649  0.0402 -0.4667  0.1264
 4947TIP3    H114847   0.478   0.354   2.617  0.2626 -1.2597  1.0671
 4947TIP3    H214848   0.614   0.410   2.582 -1.5058  1.7190 -1.7645
 4948TIP3   OH214849   3.761   2.712   4.201  0.6312  0.0301 -0.2524
 4948TIP3    H114850   3.843   2.664   4.189  0.1591 -0.7628 -0.4281
 4948TIP3    H214851   3.756   2.772   4.127  1.9272  1.4261  0.7202
 4949TIP3   OH214852   4.917   5.050   1.538  0.4709  0.3485  0.0695
 4949TIP3    H114853   4.845   5.107   1.509  0.3122 -0.4241 -1.1426
 4949TIP3    H214854   4.978   5.109   1.581 -0.9039  1.0209  1.1687
 4950TIP3   OH214855   1.258   5.179   1.735  0.1522 -0.2016  0.4959
 4950TIP3    H114856   1.246   5.086   1.751  0.4821 -0.3291  0.0374
 4950TIP3    H214857   1.353   5.190   1.726  0.6297  0.9142  4.8691
 4951TIP3   OH214858   5.697   2.169   2.772 -0.3465  0.7515 -0.1239
 4951TIP3    H114859   5.767   2.103   2.772 -0.3083  0.7723  0.7571
 4951TIP3    H214860   5.698   2.204   2.861 -0.0632  2.2698 -0.7043
 4952TIP3   OH214861   3.230   0.523   1.362  0.5373 -0.0350 -0.0803
 4952TIP3    H114862   3.201   0.459   1.297 -2.9070 -0.6876  1.8372
 4952TIP3    H214863   3.252   0.470   1.439  0.1619  0.9247  0.7026
 4953TIP3   OH214864   2.808   1.324   0.668 -0.1211 -0.3067 -0.1207
 4953TIP3    H114865   2.741   1.256   0.679  0.5603 -1.1515 -1.0295
 4953TIP3    H214866   2.838   1.343   0.757  0.6272 -2.1811  0.0659
 4954TIP3   OH214867   3.517   2.948   2.897  0.0688  0.3352  0.2964
 4954TIP3    H114868   3.479   2.862   2.909 -0.7079  0.9155  2.3677
 4954TIP3    H214869   3.610   2.938   2.921  0.4232 -0.2656 -1.1963
 4955TIP3   OH214870   3.371   4.385   3.567 -0.1420  0.0447 -0.1496
 4955TIP3    H114871   3.351   4.375   3.474 -2.8200  0.2768  0.3435
 4955TIP3    H214872   3.465   4.407   3.569  0.2221 -0.9817 -2.6951
 4956TIP3   OH214873   3.675   0.391   0.548 -0.0624 -0.4626 -0.5996
 4956TIP3    H114874   3.749   0.447   0.525  1.3261 -1.8753  0.2353
 4956TIP3    H214875   3.600   0.451   0.549  1.0137  1.0031 -1.5556
 4957TIP3   OH214876   6.336   3.532   4.854  0.3362 -0.1025  0.1175
 4957TIP3    H114877   6.307   3.609   4.904  2.5933  1.0118 -0.1406
 4957TIP3    H214878   6.383   3.478   4.917  2.3678  0.8471 -0.4611
 4958TIP3   OH214879   1.060   1.972   2.853  0.0693  0.7102 -0.0743
 4958TIP3    H114880   1.105   2.041   2.804  4.5028 -1.2962  0.6815
 4958TIP3    H214881   1.041   2.011   2.939 -0.6305  1.9270 -0.7641
 4959TIP3   OH214882   0.223   2.477   4.848 -0.2513  0.0021  0.1410
 4959TIP3    H114883   0.266   2.396   4.822  1.2900  1.1610 -1.1262
 4959TIP3    H214884   0.222   2.530   4.768 -1.0789  1.3110  0.9787
 4960TIP3   OH214885   2.409   5.789   2.857 -0.1353  0.8765  0.0294
 4960TIP3    H114886   2.443   5.869   2.897  0.7951  0.8772 -0.7339
 4960TIP3    H214887   2.407   5.725   2.929  0.4236  1.2023  0.3445
 4961TIP3   OH214888   4.822   5.237   2.412 -0.2823  0.4164  0.6180
 4961TIP3    H114889   4.757   5.173   2.384 -0.8130  0.8418  0.8363
 4961TIP3    H214890   4.825   5.227   2.507 -0.0130  0.3828  0.6045
 4962TIP3   OH214891   1.538   5.258   4.036  0.2395  0.3194 -0.3725
 4962TIP3    H114892   1.548   5.335   3.979  0.2002  1.0175  0.5455
 4962TIP3    H214893   1.625   5.246   4.074 -0.0189  0.5882  0.3207
 4963TIP3   OH214894   1.024   3.881   4.322 -0.6025 -0.0572  0.1577
 4963TIP3    H114895   0.996   3.961   4.368 -1.4977  0.7938 -1.7723
 4963TIP3    H214896   1.115   3.899   4.298 -0.0377 -0.6178  1.7455
 4964TIP3   OH214897   1.611   1.473   3.241 -0.5937  0.1029  0.2536
 4964TIP3    H114898   1.561   1.554   3.236 -1.2576 -0.3114  0.0467
 4964TIP3    H214899   1.583   1.433   3.323 -1.3937 -0.6281 -0.3572
 4965TIP3   OH214900   3.871   4.228   3.887  0.1580 -0.1471 -0.0642
 4965TIP3    H114901   3.811   4.298   3.861 -4.0039 -3.4667 -0.2918
 4965TIP3    H214902   3.885   4.177   3.808 -1.6872 -2.7515  1.1534
 4966TIP3   OH214903   2.535   5.244   3.522  1.0192 -0.8123 -0.4407
 4966TIP3    H114904   2.497   5.231   3.435  1.4687  1.6445 -1.0622
 4966TIP3    H214905   2.605   5.307   3.509 -0.0365  1.0236  1.9449
 4967TIP3   OH214906   2.895   1.590   4.988  0.2219  0.2031  0.5327
 4967TIP3    H114907   2.964   1.628   4.934  0.3053 -0.7466 -0.0429
 4967TIP3    H214908   2.834   1.663   5.003  0.1073  0.4628 -0.9834
 4968TIP3   OH214909   1.586   2.401   4.279  0.1336 -0.6088 -0.0618
 4968TIP3    H114910   1.538   2.355   4.210 -2.0260  0.1834  0.8227
 4968TIP3    H214911   1.612   2.333   4.341 -0.8816 -0.9264  0.0227
 4969TIP3   OH214912   5.163   1.896   3.292 -0.5937  0.0557 -0.2000
 4969TIP3    H114913   5.158   1.992   3.293 -0.5338  0.0618  0.4987
 4969TIP3    H214914   5.247   1.877   3.334 -0.6237 -0.3013 -0.3027
 4970TIP3   OH214915   4.471   1.128   3.285  0.3070  0.4738 -0.7185
 4970TIP3    H114916   4.400   1.183   3.251 -0.2685  0.8665  1.0161
 4970TIP3    H214917   4.437   1.092   3.367  1.5949 -0.4998 -0.5755
 4971TIP3   OH214918   3.536   5.398   0.584 -0.7444  0.1652  0.3503
 4971TIP3    H114919   3.589   5.433   0.656 -1.2778 -0.5765  1.1248
 4971TIP3    H214920   3.597   5.347   0.531 -0.7960 -1.3748  1.6942
 4972TIP3   OH214921   5.457   3.004   4.557  0.1494  0.1935  0.2015
 4972TIP3    H114922   5.407   2.960   4.626 -1.1655  1.9588  0.4271
 4972TIP3    H214923   5.512   3.067   4.603  0.1574  0.5454 -0.2894
 4973TIP3   OH214924   0.332   0.697   1.177 -0.4168 -0.0249  0.0435
 4973TIP3    H114925   0.409   0.744   1.144 -0.9723  1.1572  0.3550
 4973TIP3    H214926   0.282   0.673   1.099 -0.3775  0.3652 -0.1030
 4974TIP3   OH214927   0.970   1.120   2.688 -0.3397 -0.1631 -0.0855
 4974TIP3    H114928   1.053   1.166   2.674 -1.7591  2.3838 -0.7081
 4974TIP3    H214929   0.949   1.081   2.603  1.1288 -2.6286  0.5733
 4975TIP3   OH214930   0.857   1.209   2.910 -0.5368 -0.6077 -0.0477
 4975TIP3    H114931   0.899   1.175   2.831  3.6898 -0.1741  1.7578
 4975TIP3    H214932   0.826   1.130   2.956 -0.3703 -1.0956 -0.7569
 4976TIP3   OH214933   3.244   4.996   2.419  0.6616  0.3879  0.5094
 4976TIP3    H114934   3.217   4.962   2.333  1.2236  1.7504 -0.2543
 4976TIP3    H214935   3.165   4.992   2.472  0.3924 -0.8210  0.0415
 4977TIP3   OH214936   2.092   4.678   2.270 -0.4590  0.6481  0.2907
 4977TIP3    H114937   2.103   4.773   2.273  1.9452  0.4240  0.3636
 4977TIP3    H214938   2.181   4.643   2.272 -1.2657 -1.6133 -0.1722
 4978TIP3   OH214939   3.028   2.024   4.422 -0.1604 -0.7634 -0.2535
 4978TIP3    H114940   3.064   2.050   4.506 -0.6749 -0.7384 -0.0383
 4978TIP3    H214941   2.943   2.067   4.417  0.7517  1.0238 -1.7390
 4979TIP3   OH214942   5.160   5.436   0.440  0.0693  0.0141  0.1532
 4979TIP3    H114943   5.119   5.483   0.513 -1.7489 -1.3233  0.0534
 4979TIP3    H214944   5.237   5.393   0.478 -1.1291 -1.0717  1.4297
 4980TIP3   OH214945   3.154   4.939   0.470  0.5644  0.1141  0.3963
 4980TIP3    H114946   3.238   4.973   0.440  0.5328 -0.2713 -0.1530
 4980TIP3    H214947   3.107   5.015   0.503  0.6725  0.5269 -0.3830
 4981TIP3   OH214948   0.191   4.802   2.230  0.0528 -0.2841  0.0642
 4981TIP3    H114949   0.173   4.736   2.297  1.1541  0.9384  1.6540
 4981TIP3    H214950   0.118   4.863   2.237 -0.6343 -0.9662 -0.9603
 4982TIP3   OH214951   6.241   2.905   1.384  0.4535  0.2363 -0.3964
 4982TIP3    H114952   6.329   2.936   1.408 -0.3055  1.3864  1.0285
 4982TIP3    H214953   6.226   2.829   1.440  0.5383  0.0034 -0.6819
 4983TIP3   OH214954   4.326   4.309   3.752  0.0855  0.3739 -0.0432
 4983TIP3    H114955   4.319   4.404   3.758 -0.7119  0.3402 -0.3068
 4983TIP3    H214956   4.329   4.279   3.843 -0.8138  0.5871  0.0709
 4984TIP3   OH214957   1.787   5.451   1.465 -0.2976 -0.8425 -0.3983
 4984TIP3    H114958   1.772   5.381   1.528  1.4501 -1.6040 -0.7831
 4984TIP3    H214959   1.819   5.407   1.386 -0.5946  0.2587 -1.1632
 4985TIP3   OH214960   0.339   0.554   1.411 -0.2806  0.1718  0.6361
 4985TIP3    H114961   0.344   0.586   1.321  0.2957 -1.2299  0.1502
 4985TIP3    H214962   0.405   0.606   1.458 -0.4176  0.7438  0.2095
 4986TIP3   OH214963   1.994   1.685   0.218  0.0397 -0.1905  0.1743
 4986TIP3    H114964   1.935   1.670   0.144 -0.6342  1.3356  0.3644
 4986TIP3    H214965   1.973   1.773   0.248  3.3758  1.0739 -0.6484
 4987TIP3   OH214966   2.835   0.464   0.510  0.2368  0.3047 -0.8752
 4987TIP3    H114967   2.837   0.369   0.511  0.5225  0.3105 -0.0123
 4987TIP3    H214968   2.858   0.490   0.599 -2.7949  1.1445 -0.2394
 4988TIP3   OH214969   1.887   1.092   4.581  0.5948  0.1209  0.1694
 4988TIP3    H114970   1.884   1.186   4.563 -0.6876  0.3369  1.3572
 4988TIP3    H214971   1.892   1.051   4.495 -2.3667  1.1654 -0.6084
 4989TIP3   OH214972   2.372   2.252   1.371  0.0720  0.7182  0.3234
 4989TIP3    H114973   2.353   2.270   1.279 -0.7873 -0.9670  0.1290
 4989TIP3    H214974   2.328   2.322   1.419 -0.6949  0.8084 -0.4875
 4990TIP3   OH214975   3.341   2.944   5.058  0.4961  0.2190 -0.5253
 4990TIP3    H114976   3.252   2.975   5.041 -0.1329 -0.3312  1.4630
 4990TIP3    H214977   3.365   2.986   5.141  0.8362 -2.0891  0.5998
 4991TIP3   OH214978   2.502   1.343   0.904  0.2552 -0.2416 -0.2706
 4991TIP3    H114979   2.454   1.359   0.823  0.5098 -0.2461 -0.4229
 4991TIP3    H214980   2.501   1.427   0.950  1.6297  0.2409 -1.0868
 4992TIP3   OH214981   2.453   3.050   3.047  0.1624 -0.6306  0.0614
 4992TIP3    H114982   2.373   3.099   3.031  0.1766 -0.6679 -0.1226
 4992TIP3    H214983   2.435   3.000   3.127  0.3174  0.0489  0.5378
 4993TIP3   OH214984   2.823   3.169   4.274  0.4138 -0.4443  0.9333
 4993TIP3    H114985   2.771   3.226   4.329  0.3544  0.0146  0.4101
 4993TIP3    H214986   2.905   3.155   4.323  0.6264  0.4739  0.8517
 4994TIP3   OH214987   2.850   0.808   1.455 -0.0477 -0.0677  0.4981
 4994TIP3    H114988   2.890   0.835   1.372  1.7712 -0.0372  1.3572
 4994TIP3    H214989   2.765   0.854   1.455  0.5866  1.2031 -0.6265
 4995TIP3   OH214990   4.639   0.119   1.782  0.2330  0.3868  0.4045
 4995TIP3    H114991   4.572   0.176   1.745 -0.7863  0.3178  2.0534
 4995TIP3    H214992   4.626   0.124   1.877  2.3262  0.0723  0.7646
 4996TIP3   OH214993   3.981   4.619   4.730  0.1264  0.2422 -0.3971
 4996TIP3    H114994   3.952   4.636   4.641 -1.4674  2.6219  0.4818
 4996TIP3    H214995   3.978   4.704   4.773 -0.6424 -1.0552  2.3363
 4997TIP3   OH214996   5.691   0.079   1.860  0.5522 -0.1464 -0.1145
 4997TIP3    H114997   5.684  -0.007   1.818  0.0831  0.3948 -1.1900
 4997TIP3    H214998   5.772   0.115   1.825  0.1765  0.2963 -0.5374
 4998TIP3   OH214999   4.358   0.168   4.949  0.3172  0.5992  0.2800
 4998TIP3    H115000   4.351   0.125   4.864 -1.0058 -0.3138  0.8148
 4998TIP3    H215001   4.376   0.097   5.010 -0.2288  1.0355  0.9602
 4999TIP3   OH215002   1.936   1.844   4.438  0.3199 -0.2398  0.1972
 4999TIP3    H115003   1.943   1.779   4.368  1.9172 -1.1223  1.1108
 4999TIP3    H215004   2.015   1.830   4.491 -0.2905  1.1487  1.5347
 5000TIP3   OH215005   4.199   4.034   3.213 -0.3222  0.5376  0.5050
 5000TIP3    H115006   4.273   3.985   3.178  0.2676 -0.1054  2.5050
 5000TIP3    H215007   4.227   4.126   3.211 -0.4198  0.5570 -0.8804
 5001TIP3   OH215008   1.499   4.398   0.285  0.1943  0.3024  0.4786
 5001TIP3    H115009   1.488   4.421   0.377  2.1573  0.2738  0.7736
 5001TIP3    H215010   1.579   4.346   0.284  0.9114  1.3545 -1.4007
 5002TIP3   OH215011   1.253   3.874   1.039 -0.0007 -0.0661  0.2881
 5002TIP3    H115012   1.323   3.939   1.044  0.1187 -0.0058 -1.5430
 5002TIP3    H215013   1.202   3.887   1.119  2.2083 -0.3077  1.8223
 5003TIP3   OH215014   6.118   5.764   0.459 -0.1268 -0.5726 -0.3948
 5003TIP3    H115015   6.030   5.759   0.497 -0.6111  1.7044 -1.0665
 5003TIP3    H215016   6.103   5.766   0.365  0.8535 -2.4838 -0.6505
 5004TIP3   OH215017   3.543   0.159   0.483  0.0594  0.3903 -0.5851
 5004TIP3    H115018   3.461   0.165   0.531 -0.9686  0.4493 -2.2643
 5004TIP3    H215019   3.594   0.235   0.512  0.1183 -0.3514  1.4349
 5005TIP3   OH215020   2.330   3.299   4.390 -0.1207 -0.1054  0.1761
 5005TIP3    H115021   2.316   3.221   4.444 -0.4694  0.7825  1.4072
 5005TIP3    H215022   2.317   3.268   4.300 -0.9217 -1.3253  0.6806
 5006TIP3   OH215023   3.045   0.059   0.661  0.1039  0.1873  0.9149
 5006TIP3    H115024   3.002  -0.023   0.684  1.6266 -0.7867  0.4726
 5006TIP3    H215025   3.134   0.033   0.636 -0.0258  1.6948 -1.4650
 5007TIP3   OH215026   3.384   5.897   0.593 -0.3436  1.0049  0.1703
 5007TIP3    H115027   3.399   5.802   0.594  0.2074  1.0354 -1.4838
 5007TIP3    H215028   3.311   5.911   0.654 -0.9449 -0.5797 -0.1391
 5008TIP3   OH215029   4.662   0.867   2.963  0.2246  0.1458 -0.4134
 5008TIP3    H115030   4.569   0.858   2.982 -0.2147  1.0592 -1.9512
 5008TIP3    H215031   4.670   0.843   2.871  1.5643 -0.2167 -0.2162
 5009TIP3   OH215032   5.866   1.311   1.964  0.1339  0.3766  0.3409
 5009TIP3    H115033   5.776   1.306   1.932 -0.2434  1.1853  1.2186
 5009TIP3    H215034   5.864   1.264   2.048  0.5264  0.4045  0.3687
 5010TIP3   OH215035   0.316   6.017   1.097  0.3618 -0.0258  0.0960
 5010TIP3    H115036   0.224   5.992   1.103  0.5254 -0.5734  0.4066
 5010TIP3    H215037   0.355   5.950   1.040  0.4117  0.6457 -0.6726
 5011TIP3   OH215038   3.073   3.132   2.972  0.1047  0.3960 -0.0370
 5011TIP3    H115039   3.004   3.120   3.037  0.7789  1.0868  0.8322
 5011TIP3    H215040   3.057   3.063   2.908 -1.1606  0.3083  0.3390
 5012TIP3   OH215041   3.246   4.309   3.809  0.6852  0.6677 -0.0920
 5012TIP3    H115042   3.302   4.316   3.731  2.0972  1.7578  0.9741
 5012TIP3    H215043   3.294   4.253   3.868  0.3518  1.0868  0.5902
 5013TIP3   OH215044   1.827   1.415   4.077 -0.1384  0.1879 -0.1292
 5013TIP3    H115045   1.890   1.376   4.017 -0.6629 -0.1193 -0.4828
 5013TIP3    H215046   1.785   1.341   4.119  0.1255  0.3993  0.5256
 5014TIP3   OH215047   5.965   5.527   1.427 -0.7751  0.5612 -0.2601
 5014TIP3    H115048   6.012   5.556   1.505 -1.5402 -1.3998  0.9927
 5014TIP3    H215049   5.912   5.453   1.456 -1.7228  0.2783 -2.4704
 5015TIP3   OH215050   2.259   4.896   4.188 -0.0436 -0.0433 -0.6588
 5015TIP3    H115051   2.294   4.838   4.255  1.3638  0.0365 -1.2957
 5015TIP3    H215052   2.173   4.859   4.167  0.4417 -1.3772 -0.4054
 5016TIP3   OH215053   4.150   5.078   3.199  0.3570  0.5750 -0.1105
 5016TIP3    H115054   4.188   4.995   3.230 -0.3987  0.5061  0.6645
 5016TIP3    H215055   4.211   5.145   3.230  0.2340  0.4103  0.5044
 5017TIP3   OH215056   1.843   0.146   3.793 -0.0587 -0.4282  0.3098
 5017TIP3    H115057   1.765   0.140   3.847 -0.8284 -0.3461 -0.7539
 5017TIP3    H215058   1.814   0.120   3.706  0.8201  0.7261 -0.3625
 5018TIP3   OH215059   3.425   1.549   2.552 -0.1216  0.1778 -0.1573
 5018TIP3    H115060   3.447   1.532   2.643 -2.3670 -1.3021  0.1845
 5018TIP3    H215061   3.331   1.568   2.552 -0.1409  0.3657 -2.1344
 5019TIP3   OH215062   5.368   1.553   1.882  0.0929  0.2895 -0.8727
 5019TIP3    H115063   5.353   1.464   1.851  0.0252  0.1273 -0.3919
 5019TIP3    H215064   5.282   1.595   1.876 -0.0902  0.0286 -0.2030
 5020TIP3   OH215065   2.175   5.977   4.737 -0.2534  0.4419 -0.6018
 5020TIP3    H115066   2.184   5.965   4.643 -2.5476  1.2504 -0.9928
 5020TIP3    H215067   2.162   5.889   4.771  3.6612 -0.2857 -0.4977
 5021TIP3   OH215068   4.215   0.546   1.206 -0.4690  0.0956 -0.1572
 5021TIP3    H115069   4.298   0.505   1.228 -0.6577  0.5685  1.5232
 5021TIP3    H215070   4.167   0.551   1.288 -2.4377 -0.7389 -1.1882
 5022TIP3   OH215071   4.326   3.722   0.476  0.2619  0.7789  0.6780
 5022TIP3    H115072   4.301   3.629   0.477 -0.7684  1.0467  0.8596
 5022TIP3    H215073   4.377   3.732   0.395 -0.1184  0.1813  0.3547
 5023TIP3   OH215074   2.144   0.656   0.188 -0.2523 -0.2043 -0.1074
 5023TIP3    H115075   2.095   0.717   0.243 -2.5609 -2.6233  0.7804
 5023TIP3    H215076   2.231   0.653   0.227 -0.5284  1.3817  0.7156
 5024TIP3   OH215077   4.764   2.502   2.837 -0.0350 -0.3681 -0.0552
 5024TIP3    H115078   4.783   2.441   2.765 -0.1579  0.8164 -1.1435
 5024TIP3    H215079   4.750   2.586   2.793 -2.2245 -0.0244  1.1966
 5025TIP3   OH215080   3.444   3.206   4.910 -0.2842 -0.5143  0.1783
 5025TIP3    H115081   3.523   3.206   4.856  0.3020 -1.7436  0.9934
 5025TIP3    H215082   3.413   3.116   4.909 -1.0633 -0.2702  0.7665
 5026TIP3   OH215083   3.564   1.667   3.455 -0.2058 -0.1384 -0.3116
 5026TIP3    H115084   3.529   1.591   3.408 -1.3840  0.5968 -0.6598
 5026TIP3    H215085   3.652   1.679   3.418 -0.0572 -1.2491 -0.3400
 5027TIP3   OH215086   4.691   4.293   2.810  0.6561  0.7008 -0.1259
 5027TIP3    H115087   4.648   4.319   2.729 -0.2591  0.5128  0.2941
 5027TIP3    H215088   4.637   4.222   2.845  2.5924 -1.2027 -0.7891
 5028TIP3   OH215089   0.986   3.229   1.400  0.1039 -0.6435 -0.3620
 5028TIP3    H115090   1.032   3.146   1.388 -1.3674 -1.4687 -0.5217
 5028TIP3    H215091   0.955   3.252   1.313  0.5979  0.1419 -0.3373
 5029TIP3   OH215092   6.161   2.175   4.320 -0.4002  0.2764 -0.4342
 5029TIP3    H115093   6.207   2.131   4.392  0.0606  0.3820 -0.6623
 5029TIP3    H215094   6.223   2.174   4.247 -0.0141  2.0531 -0.1925
 5030TIP3   OH215095   5.855   5.257   1.943 -0.3423 -0.0424 -0.5196
 5030TIP3    H115096   5.863   5.223   2.032 -2.5811 -1.6179 -0.8541
 5030TIP3    H215097   5.856   5.179   1.887 -1.8865  0.6824 -1.6239
 5031TIP3   OH215098   3.762   2.339   0.549 -0.2756 -0.9309  0.1714
 5031TIP3    H115099   3.832   2.359   0.612 -0.8415  0.6349  0.3480
 5031TIP3    H215100   3.799   2.365   0.465 -0.5444 -0.3218  0.2359
 5032TIP3   OH215101   5.945   3.596   3.670 -0.0943  0.8663 -0.3413
 5032TIP3    H115102   5.902   3.666   3.720  2.3437  2.0754  0.2004
 5032TIP3    H215103   5.939   3.519   3.727 -1.2564  1.0661 -0.1728
 5033TIP3   OH215104   3.914   1.622   3.910  0.2053  0.2148 -0.0727
 5033TIP3    H115105   3.914   1.652   4.001 -0.9852  0.5787 -0.1704
 5033TIP3    H215106   4.006   1.607   3.889  0.4157 -0.9882  1.5548
 5034TIP3   OH215107   1.041   5.497   1.540 -0.0970 -0.2956 -0.0425
 5034TIP3    H115108   1.120   5.476   1.491 -0.2896 -2.7672  0.5927
 5034TIP3    H215109   0.975   5.515   1.474  0.4761 -0.2450 -0.6060
 5035TIP3   OH215110   5.073   4.015   4.706 -0.0535 -0.0666 -0.0990
 5035TIP3    H115111   5.150   3.967   4.676 -1.0792 -1.4896 -0.5776
 5035TIP3    H215112   5.088   4.027   4.800  0.8285 -0.1677 -0.2156
 5036TIP3   OH215113   6.299   1.055   0.964  0.3089 -0.0812  0.0603
 5036TIP3    H115114   6.248   0.985   0.922 -0.3816 -0.7102  1.8072
 5036TIP3    H215115   6.233   1.105   1.013  1.2761 -0.7378  2.1444
 5037TIP3   OH215116   5.664   1.894   4.206  0.0693 -0.3292 -0.0466
 5037TIP3    H115117   5.640   1.950   4.281  0.9201  1.1986 -0.8701
 5037TIP3    H215118   5.680   1.808   4.245  0.4165  0.4055  1.5230
 5038TIP3   OH215119   1.506   5.219   0.583  0.2924  0.3749 -0.5939
 5038TIP3    H115120   1.484   5.136   0.540  0.8425 -0.8371  1.3122
 5038TIP3    H215121   1.433   5.235   0.643  1.7304 -0.6861  1.6198
 5039TIP3   OH215122   1.880   5.500   2.602  0.3630  0.2459  0.8003
 5039TIP3    H115123   1.815   5.495   2.671 -0.5598 -0.2466 -0.0779
 5039TIP3    H215124   1.877   5.414   2.560 -1.6969  1.5634 -2.1137
 5040TIP3   OH215125   2.245   5.125   3.209  0.4414  0.0088  0.4081
 5040TIP3    H115126   2.232   5.096   3.299 -0.4939 -1.2221 -0.0932
 5040TIP3    H215127   2.339   5.142   3.203  0.5499 -0.1223  1.5447
 5041TIP3   OH215128   2.991   0.083   4.344  0.1803  0.0807  0.8492
 5041TIP3    H115129   2.919   0.144   4.331 -0.1839 -0.6917 -1.0876
 5041TIP3    H215130   2.996   0.071   4.439 -1.1761  1.3860  1.1129
 5042TIP3   OH215131   4.249   1.762   1.611  0.2782  0.2782  0.1548
 5042TIP3    H115132   4.326   1.705   1.609  0.1945  0.1791 -1.7897
 5042TIP3    H215133   4.184   1.717   1.557 -0.5683  1.1433  0.4368
 5043TIP3   OH215134   4.824   4.803   5.008  0.4201  0.3007  0.5402
 5043TIP3    H115135   4.821   4.887   4.961 -1.0566  0.8596  1.5725
 5043TIP3    H215136   4.777   4.820   5.090 -1.2488 -1.9388  0.1345
 5044TIP3   OH215137   6.052   2.010   4.738  0.3111 -0.0761  0.0518
 5044TIP3    H115138   6.091   1.923   4.728 -1.0210 -0.5481 -1.4541
 5044TIP3    H215139   5.970   1.994   4.786  0.1772  0.3699 -0.0251
 5045TIP3   OH215140   4.796   1.580   4.511  0.2737 -0.0587 -0.3165
 5045TIP3    H115141   4.742   1.501   4.520  0.9162 -0.2990  1.8326
 5045TIP3    H215142   4.864   1.555   4.448  0.4281 -1.2040  0.2782
 5046TIP3   OH215143   1.060   3.439   2.129  0.0415 -0.5793 -0.2264
 5046TIP3    H115144   1.084   3.410   2.217  0.8636  0.5656 -0.0521
 5046TIP3    H215145   0.997   3.373   2.098 -0.2956 -0.9703  1.2245
 5047TIP3   OH215146   4.492   1.912   1.435 -0.2032 -0.6155 -0.1093
 5047TIP3    H115147   4.429   1.847   1.402  0.1612 -1.3518  0.6096
 5047TIP3    H215148   4.489   1.902   1.531 -1.0535  1.2915  0.1156
 5048TIP3   OH215149   6.092   2.753   0.196  0.3359 -0.7695  0.6337
 5048TIP3    H115150   6.009   2.748   0.244  0.1423 -0.0662  0.3994
 5048TIP3    H215151   6.081   2.830   0.139  1.3095 -0.4130  0.9073
 5049TIP3   OH215152   4.431   5.964   1.713 -0.0992  0.3238  0.3727
 5049TIP3    H115153   4.422   5.946   1.806 -0.0114  1.7448  0.6848
 5049TIP3    H215154   4.496   5.900   1.682 -0.5383 -0.5171  1.1578
 5050TIP3   OH215155   1.551   3.079   1.627  0.0571 -0.3004 -0.3939
 5050TIP3    H115156   1.554   3.022   1.704  0.5257 -0.0863 -0.2562
 5050TIP3    H215157   1.569   3.167   1.661 -0.7552 -0.0490 -0.5900
 5051TIP3   OH215158   0.062   2.789   1.059 -0.1502  0.4445  0.6176
 5051TIP3    H115159   0.112   2.751   1.130  2.7745 -1.4122 -2.1705
 5051TIP3    H215160  -0.021   2.815   1.099  0.8842 -1.4195  4.3988
 5052TIP3   OH215161   0.690   0.539   4.175 -0.2502 -0.6016  0.2323
 5052TIP3    H115162   0.617   0.492   4.134 -1.2990  0.6422  0.6163
 5052TIP3    H215163   0.738   0.577   4.102 -0.0608 -1.2947 -0.0151
 5053TIP3   OH215164   3.133   5.079   2.024 -0.3773  0.0722  0.5775
 5053TIP3    H115165   3.213   5.043   1.985  0.3267  0.3396  1.7336
 5053TIP3    H215166   3.067   5.069   1.956  0.0173 -2.4971  0.4721
 5054TIP3   OH215167   2.930   2.806   2.427  0.0538 -0.1265  0.1816
 5054TIP3    H115168   2.912   2.856   2.347 -0.2640  0.0851  0.3819
 5054TIP3    H215169   2.845   2.773   2.455  0.5262 -2.7508 -1.2001
 5055TIP3   OH215170   4.956   3.455   3.664 -0.0328  0.4493  0.3382
 5055TIP3    H115171   4.955   3.476   3.757 -0.3313  2.1800 -0.0183
 5055TIP3    H215172   5.036   3.495   3.631  0.2279 -0.4201 -0.1022
 5056TIP3   OH215173   2.226   2.988   2.716 -0.2057 -0.0528 -0.5984
 5056TIP3    H115174   2.172   2.963   2.640  0.8375  0.9533 -1.7202
 5056TIP3    H215175   2.316   2.985   2.683  0.3538 -0.5932  0.9132
 5057TIP3   OH215176   3.064   5.526   4.600 -0.6496 -0.0217  0.0473
 5057TIP3    H115177   3.081   5.620   4.607  0.6273 -0.1351 -1.0722
 5057TIP3    H215178   3.015   5.516   4.518  1.7251 -0.5461 -1.4307
 5058TIP3   OH215179   3.191   4.845   2.804  0.0332 -0.5529 -0.0856
 5058TIP3    H115180   3.154   4.757   2.795 -0.2498 -0.2857 -1.8465
 5058TIP3    H215181   3.153   4.895   2.731 -1.0012  1.4747  1.7182
 5059TIP3   OH215182   0.349   4.954   3.891 -0.4094  0.5165 -0.0472
 5059TIP3    H115183   0.405   5.030   3.872  0.7382 -0.0843  0.7926
 5059TIP3    H215184   0.387   4.915   3.970 -0.4874 -1.3962 -0.8931
 5060TIP3   OH215185   1.561   1.651   3.541  0.7171 -0.5759 -0.7973
 5060TIP3    H115186   1.653   1.664   3.517  0.4713 -0.3749 -1.6657
 5060TIP3    H215187   1.537   1.567   3.501  0.3553 -0.3443 -1.0649
 5061TIP3   OH215188   5.056   4.729   3.362  0.6801 -0.0504  0.8751
 5061TIP3    H115189   5.091   4.810   3.399  1.4381  0.7003 -1.3390
 5061TIP3    H215190   5.035   4.750   3.271  0.4300 -2.2069  0.3598
 5062TIP3   OH215191   5.454   4.908   2.399 -0.1225  0.2667 -0.3469
 5062TIP3    H115192   5.506   4.940   2.325  0.4380  0.5774  0.1718
 5062TIP3    H215193   5.519   4.874   2.461 -0.5517  0.4397  0.2071
 5063TIP3   OH215194   0.849   5.153  -0.003  0.5365 -0.4410  0.4730
 5063TIP3    H115195   0.875   5.113   0.080  0.5405  0.3835  0.8681
 5063TIP3    H215196   0.796   5.228   0.021  1.1801  0.2627 -0.2429
 5064TIP3   OH215197   1.325   1.884   1.185 -0.1606 -0.2620 -0.3005
 5064TIP3    H115198   1.288   1.807   1.229  1.2802 -1.2294 -0.7090
 5064TIP3    H215199   1.407   1.900   1.231 -0.9840  1.8246  0.5635
 5065TIP3   OH215200   0.050   3.972   1.647 -0.0076 -0.0150  0.1851
 5065TIP3    H115201   0.081   3.883   1.629 -2.3949 -0.9463  0.3308
 5065TIP3    H215202   0.108   4.004   1.716 -0.5982 -2.4567  1.9533
 5066TIP3   OH215203   6.181   0.610   2.377 -0.4235  0.1186  0.1225
 5066TIP3    H115204   6.117   0.654   2.320 -1.3109 -1.9852 -0.6038
 5066TIP3    H215205   6.143   0.524   2.393  1.8161 -0.8574  0.4749
 5067TIP3   OH215206   5.009   2.132   4.555 -0.2295 -0.2210  0.2397
 5067TIP3    H115207   5.064   2.117   4.632 -0.0081 -0.9695 -0.0597
 5067TIP3    H215208   5.071   2.157   4.486 -0.5294  1.5468  0.5737
 5068TIP3   OH215209   4.440   1.740   4.418  0.7172 -0.1800 -0.3029
 5068TIP3    H115210   4.400   1.771   4.499  1.2104  0.7546 -0.3994
 5068TIP3    H215211   4.455   1.820   4.367 -1.1039 -0.8737 -2.0403
 5069TIP3   OH215212   4.040   1.521   3.516 -0.0916  0.0477  0.0216
 5069TIP3    H115213   4.002   1.528   3.429  0.1255  1.6865  0.0256
 5069TIP3    H215214   4.006   1.597   3.563  0.4569 -0.3601  1.1108
 5070TIP3   OH215215   3.343   2.850   0.188 -0.2674  0.0522  0.1191
 5070TIP3    H115216   3.385   2.770   0.219 -0.1637  0.5653  1.3724
 5070TIP3    H215217   3.260   2.853   0.234  0.1658  1.1661  0.8811
 5071TIP3   OH215218   5.797   0.194   1.530  0.3768 -0.5357 -0.3038
 5071TIP3    H115219   5.811   0.280   1.568 -1.6951 -0.4234  0.3315
 5071TIP3    H215220   5.874   0.143   1.556 -0.0933  0.0469  2.5498
 5072TIP3   OH215221   0.184   3.151   4.860  0.3597  0.1494  0.1268
 5072TIP3    H115222   0.113   3.159   4.796  0.9629 -1.2093 -0.7604
 5072TIP3    H215223   0.234   3.232   4.849 -1.0377  1.1682  0.8127
 5073TIP3   OH215224   1.761   0.497   5.001 -0.3736 -0.4009 -0.9571
 5073TIP3    H115225   1.764   0.489   5.096 -0.6788 -0.2750 -0.9372
 5073TIP3    H215226   1.802   0.417   4.969  1.4592  0.3742 -0.7038
 5074TIP3   OH215227   5.200   2.834   0.432  0.4200 -0.2591 -0.1414
 5074TIP3    H115228   5.262   2.786   0.486  0.4740  0.0164  0.0432
 5074TIP3    H215229   5.229   2.819   0.342  1.3416  0.6537 -0.0170
 5075TIP3   OH215230   5.551   4.457   1.389  0.5436  0.0720  0.6949
 5075TIP3    H115231   5.553   4.458   1.293 -2.2878  0.0802  0.5567
 5075TIP3    H215232   5.541   4.365   1.411  1.1084  0.0810  1.0012
 5076TIP3   OH215233   0.050   2.905   0.546  0.4059 -0.0245 -0.0451
 5076TIP3    H115234   0.103   2.907   0.625  3.9031  3.9975 -2.1119
 5076TIP3    H215235  -0.019   2.969   0.562  0.2088 -0.2969  0.2197
 5077TIP3   OH215236   6.194   0.270   1.654  0.6537 -0.2475  0.0642
 5077TIP3    H115237   6.275   0.228   1.627  0.9793  0.0412  0.5782
 5077TIP3    H215238   6.164   0.317   1.576 -0.3150 -2.2914 -0.8877
 5078TIP3   OH215239   3.798   4.838   3.016 -0.0942 -0.4939  0.2034
 5078TIP3    H115240   3.893   4.850   3.010 -0.0418 -1.0511 -0.1766
 5078TIP3    H215241   3.762   4.896   2.950 -0.0097 -0.3747  0.2623
 5079TIP3   OH215242   2.370   3.978   4.178  0.5147  0.2655  0.0071
 5079TIP3    H115243   2.284   4.006   4.211  0.5799 -0.3522  0.7293
 5079TIP3    H215244   2.411   3.935   4.253  2.0650  1.8460  0.1214
 5080TIP3   OH215245   4.966   2.068   1.573  0.0254 -0.3652  0.3858
 5080TIP3    H115246   4.937   2.088   1.662  1.5308  4.4558  0.1000
 5080TIP3    H215247   4.886   2.062   1.522 -0.9255  3.4966  1.1201
 5081TIP3   OH215248   0.921   3.744   5.174  0.1391  0.2782 -0.3537
 5081TIP3    H115249   1.008   3.710   5.155 -0.6682 -0.7046 -2.6554
 5081TIP3    H215250   0.861   3.676   5.143 -1.4645  1.4671  0.0038
 5082TIP3   OH215251   5.854   1.321   2.775 -0.1909 -0.7015 -0.2430
 5082TIP3    H115252   5.831   1.350   2.864  1.0231 -0.4235  0.0005
 5082TIP3    H215253   5.787   1.257   2.753 -0.2651 -1.1121  1.0658
 5083TIP3   OH215254   4.832   3.973   0.666  0.4865 -0.0398 -0.5021
 5083TIP3    H115255   4.867   3.914   0.732  0.4441  2.0922  1.5646
 5083TIP3    H215256   4.741   3.986   0.690  0.4650  0.7622 -0.9535
 5084TIP3   OH215257   2.336   1.945   2.283 -0.4512 -0.7933 -0.3052
 5084TIP3    H115258   2.258   1.917   2.331  0.5710 -1.3679  1.0694
 5084TIP3    H215259   2.384   1.864   2.265 -0.9310 -0.6459 -2.6206
 5085TIP3   OH215260   1.834   1.145   2.512  0.2951 -0.2294  0.0669
 5085TIP3    H115261   1.770   1.198   2.464 -0.4107 -1.4255 -0.3603
 5085TIP3    H215262   1.874   1.090   2.445  1.8150  0.5200  0.3351
 5086TIP3   OH215263   4.189   0.388   5.031 -0.2657  0.0066  0.3135
 5086TIP3    H115264   4.098   0.367   5.050 -0.2220 -0.5460 -0.0647
 5086TIP3    H215265   4.225   0.308   4.993  0.8681 -0.4009  2.0864
 5087TIP3   OH215266   3.936   0.461   1.705 -0.3495  0.5357 -0.3308
 5087TIP3    H115267   3.893   0.543   1.729 -1.2937 -0.1603  0.4412
 5087TIP3    H215268   3.939   0.411   1.786  1.6131  0.3888 -0.4385
 5088TIP3   OH215269   5.868   5.918   2.626  0.0840 -0.2013  0.3310
 5088TIP3    H115270   5.828   5.866   2.556 -0.0072  2.3221 -1.6525
 5088TIP3    H215271   5.949   5.870   2.647  0.3364 -0.8499 -1.8405
 5089TIP3   OH215272   0.449   1.637   0.834  0.2672 -0.4679  0.8127
 5089TIP3    H115273   0.456   1.543   0.856 -1.8721 -0.3538  2.3332
 5089TIP3    H215274   0.449   1.639   0.739 -0.7328 -2.1399  0.7296
 5090TIP3   OH215275   4.031   3.792   1.341 -0.0684  0.4119  0.2098
 5090TIP3    H115276   3.976   3.869   1.355  0.8084  0.9896  0.5715
 5090TIP3    H215277   4.033   3.749   1.427 -1.3154 -0.5574 -0.2100
 5091TIP3   OH215278   5.549   0.902   3.960 -0.8039 -0.0974  0.2662
 5091TIP3    H115279   5.522   0.842   4.029 -1.2958  0.2961  0.4174
 5091TIP3    H215280   5.468   0.942   3.930 -0.3557  1.6434  1.2394
 5092TIP3   OH215281   3.500   1.449   4.620 -0.5303  0.4257 -0.3206
 5092TIP3    H115282   3.572   1.442   4.557  0.6645  1.3023  0.9065
 5092TIP3    H215283   3.525   1.521   4.678 -2.7885  1.3289 -0.3467
 5093TIP3   OH215284   5.095   3.496   3.014 -0.9259 -0.6016 -0.1471
 5093TIP3    H115285   5.187   3.506   3.039 -1.5522 -1.1634  2.8551
 5093TIP3    H215286   5.072   3.578   2.971  1.2346 -0.9135 -2.0409
 5094TIP3   OH215287   5.269   4.349   2.995 -0.0716 -0.3374  0.6810
 5094TIP3    H115288   5.220   4.426   2.965  0.4120 -0.2418  0.1034
 5094TIP3    H215289   5.336   4.384   3.053  2.4582  0.1895 -2.2944
 5095TIP3   OH215290   1.467   5.172   3.761  0.3125  0.8769 -0.1496
 5095TIP3    H115291   1.531   5.214   3.704  1.6228  1.5131  1.6926
 5095TIP3    H215292   1.507   5.175   3.848 -1.6634  0.0964  0.8455
 5096TIP3   OH215293   3.401   4.766   4.301  0.1448  0.6327  0.3257
 5096TIP3    H115294   3.367   4.845   4.259 -1.7195 -0.5418 -0.5334
 5096TIP3    H215295   3.470   4.735   4.243 -1.5255 -0.2599 -1.3163
 5097TIP3   OH215296   5.469   0.731   3.389 -0.3734  0.0248 -0.3061
 5097TIP3    H115297   5.541   0.778   3.345 -0.4722 -0.2965 -0.8214
 5097TIP3    H215298   5.425   0.685   3.318 -0.6977 -0.2941  0.1056
 5098TIP3   OH215299   3.009   2.973   0.112 -0.0138  0.3158 -0.1160
 5098TIP3    H115300   2.930   3.015   0.147 -0.6415 -1.8031  1.1752
 5098TIP3    H215301   3.056   2.941   0.189  0.8467 -0.6073 -0.9968
 5099TIP3   OH215302   2.227   0.586   2.834  0.1460 -0.2522  0.2414
 5099TIP3    H115303   2.133   0.596   2.818 -0.0462 -1.1896  0.7391
 5099TIP3    H215304   2.265   0.671   2.810 -0.5837 -0.4344 -1.7622
 5100TIP3   OH215305   2.293   2.575   5.090 -0.2501  0.2625 -0.3277
 5100TIP3    H115306   2.277   2.595   5.182  1.3377 -1.6045  0.4252
 5100TIP3    H215307   2.383   2.603   5.074  0.7256 -2.5031 -0.2560
 5101TIP3   OH215308   2.315   3.040   1.317  0.1280 -0.0999  0.2288
 5101TIP3    H115309   2.332   3.037   1.223  0.0989  0.7733  0.1857
 5101TIP3    H215310   2.402   3.049   1.357  0.2121 -1.2802  0.3424
 5102TIP3   OH215311   5.324   4.967   1.094  0.3264  0.0702  0.0145
 5102TIP3    H115312   5.311   5.049   1.143  0.9997  1.2170 -1.6326
 5102TIP3    H215313   5.388   4.918   1.146 -0.4544  0.3379  1.2855
 5103TIP3   OH215314   1.940   1.200   4.297 -0.4528  0.4637 -0.5783
 5103TIP3    H115315   1.893   1.274   4.336  0.6221  1.0438 -0.3199
 5103TIP3    H215316   2.012   1.241   4.249 -2.1063 -0.1423 -3.8517
 5104TIP3   OH215317   5.323   4.561   2.508 -0.0206 -0.3936  0.2636
 5104TIP3    H115318   5.349   4.535   2.597  1.7826  1.0346  0.2218
 5104TIP3    H215319   5.292   4.480   2.468 -1.7450 -0.9258  2.4257
 5105TIP3   OH215320   2.230   0.236   5.104  0.2330  0.4282 -0.2082
 5105TIP3    H115321   2.293   0.253   5.175 -0.0923  2.5022 -0.3480
 5105TIP3    H215322   2.144   0.241   5.146  0.0922 -0.4457 -0.3762
 5106TIP3   OH215323   4.664   5.191   4.232 -0.3327  0.5432  0.1221
 5106TIP3    H115324   4.641   5.279   4.201  2.4849  0.7918 -1.6647
 5106TIP3    H215325   4.669   5.200   4.327 -0.7567  2.1541  0.0190
 5107TIP3   OH215326   3.849   0.867   1.658  0.6787 -0.0729 -0.1630
 5107TIP3    H115327   3.939   0.864   1.625  1.2823  2.7104  0.9591
 5107TIP3    H215328   3.847   0.801   1.728  0.7873 -2.5210 -2.3395
 5108TIP3   OH215329   2.233   5.396   3.127 -0.5162  0.3143  0.1052
 5108TIP3    H115330   2.246   5.462   3.195  0.1040  0.9207 -0.5764
 5108TIP3    H215331   2.254   5.313   3.169  0.0869  0.7081  0.5937
 5109TIP3   OH215332   5.898   3.168   1.608  0.0218 -0.2490  0.3731
 5109TIP3    H115333   5.884   3.233   1.677  2.3721  0.3948  0.3276
 5109TIP3    H215334   5.873   3.085   1.647 -1.3637  0.4468  1.0246
 5110TIP3   OH215335   1.498   1.242   1.543 -0.1308 -0.4023  0.5822
 5110TIP3    H115336   1.520   1.152   1.569 -0.5238 -1.3445 -1.9857
 5110TIP3    H215337   1.403   1.245   1.550 -0.3507 -1.0080 -1.4441
 5111TIP3   OH215338   3.442   0.853   5.118 -0.1709 -0.2059  0.6408
 5111TIP3    H115339   3.528   0.845   5.077 -0.0586  0.9097  0.6177
 5111TIP3    H215340   3.398   0.922   5.068 -0.3261  0.6273  1.8653
 5112TIP3   OH215341   3.761   4.621   1.996  0.1058  0.0330  0.2129
 5112TIP3    H115342   3.779   4.543   1.944  1.1561  0.4217 -0.0276
 5112TIP3    H215343   3.845   4.645   2.033 -0.0975  1.3412 -0.1141
 5113TIP3   OH215344   0.668   5.107   2.987 -0.3314  0.2227  0.0197
 5113TIP3    H115345   0.661   5.071   3.076  1.1389  1.0722  0.5170
 5113TIP3    H215346   0.762   5.109   2.969 -0.6178 -0.2832 -1.7223
 5114TIP3   OH215347   5.783   2.322   2.510  0.7068 -0.1670  0.1837
 5114TIP3    H115348   5.874   2.321   2.540  1.2633  1.2445 -1.3424
 5114TIP3    H215349   5.744   2.243   2.549  1.9300  0.3936  2.7595
 5115TIP3   OH215350   1.488   1.554   0.613 -0.3734  0.3219 -0.0515
 5115TIP3    H115351   1.413   1.514   0.656 -0.5269 -1.0989 -1.5501
 5115TIP3    H215352   1.465   1.646   0.606 -1.8297 -0.0280 -0.1800
 5116TIP3   OH215353   5.655   0.295   0.908  0.2927  0.4251  0.2579
 5116TIP3    H115354   5.668   0.355   0.981 -0.3276  1.8143 -0.7334
 5116TIP3    H215355   5.637   0.210   0.949 -1.8314  1.5165  1.7664
 5117TIP3   OH215356   5.359   5.310   0.584  0.0967  0.3139  0.0587
 5117TIP3    H115357   5.372   5.383   0.644 -0.8074  1.7382 -1.4023
 5117TIP3    H215358   5.286   5.260   0.621 -0.3991  1.1268  0.1801
 5118TIP3   OH215359   4.842   4.025   1.563  0.5519  0.4783  0.3441
 5118TIP3    H115360   4.884   3.982   1.489 -0.0482  0.0675  0.2307
 5118TIP3    H215361   4.888   4.108   1.572  0.4197  0.6838 -0.7050
 5119TIP3   OH215362   4.026   4.736   4.131  0.1660  0.3352 -0.5978
 5119TIP3    H115363   4.060   4.820   4.099  1.9112 -0.2533 -0.4017
 5119TIP3    H215364   4.027   4.679   4.054 -1.4864  0.6055 -0.8437
 5120TIP3   OH215365   1.450   0.805   0.033  0.1855  0.3413  0.3797
 5120TIP3    H115366   1.386   0.739   0.058 -1.9885  1.7572 -1.1020
 5120TIP3    H215367   1.524   0.790   0.092 -1.3250 -1.6142  1.9217
 5121TIP3   OH215368   3.989   1.821   2.438 -0.6759 -0.2945  0.4912
 5121TIP3    H115369   3.974   1.897   2.495 -0.9248 -1.0850  1.5139
 5121TIP3    H215370   4.071   1.840   2.394 -1.3282  1.1133 -0.1903
 5122TIP3   OH215371   1.263   3.325   0.322 -0.0051  0.4807  0.0984
 5122TIP3    H115372   1.177   3.342   0.361 -0.3003 -1.3311  0.3237
 5122TIP3    H215373   1.261   3.370   0.238 -2.1078 -1.4422 -0.9795
 5123TIP3   OH215374   6.000   5.819   4.850 -0.0888  0.0681 -0.2681
 5123TIP3    H115375   6.039   5.876   4.784  0.0956 -1.0161 -1.1362
 5123TIP3    H215376   6.075   5.774   4.890 -0.3611 -1.6639 -1.6026
 5124TIP3   OH215377   3.338   0.038   5.078 -0.1669  0.2250  0.1057
 5124TIP3    H115378   3.337  -0.055   5.057  0.4137 -0.4854  2.9089
 5124TIP3    H215379   3.431   0.059   5.089 -0.3860  0.7933  0.8979
 5125TIP3   OH215380   3.561   5.387   1.159 -0.1228  0.8754  0.2834
 5125TIP3    H115381   3.495   5.383   1.090  0.2247  0.9482 -0.0536
 5125TIP3    H215382   3.530   5.326   1.226 -0.2219  0.4541 -0.1432
 5126TIP3   OH215383   4.099   1.436   4.392  0.2550  0.2366 -0.2966
 5126TIP3    H115384   4.188   1.404   4.375 -0.0453 -0.5247 -0.4432
 5126TIP3    H215385   4.079   1.406   4.480  0.7939  1.9186  0.4508
 5127TIP3   OH215386   0.745   3.618   2.818  0.2751  0.3069 -0.3964
 5127TIP3    H115387   0.737   3.664   2.735 -1.1311 -0.7751 -0.9159
 5127TIP3    H215388   0.695   3.671   2.880 -1.4020 -0.4907 -1.0063
 5128TIP3   OH215389   2.275   1.523   4.264 -0.0863  0.5526 -0.6480
 5128TIP3    H115390   2.363   1.550   4.241  0.1306  1.7665  1.3615
 5128TIP3    H215391   2.217   1.579   4.212  0.2030 -1.3688 -3.2509
 5129TIP3   OH215392   3.172   4.077   0.663  0.3199  0.0508 -0.4602
 5129TIP3    H115393   3.081   4.048   0.666 -0.1453  1.4848  0.0805
 5129TIP3    H215394   3.218   4.008   0.615 -0.5666 -1.9064  1.3870
 5130TIP3   OH215395   1.716   1.106   1.216 -0.4132 -0.2049  0.2958
 5130TIP3    H115396   1.663   1.173   1.175  0.9465  0.0458 -1.1546
 5130TIP3    H215397   1.779   1.081   1.149  0.7437 -1.0966  1.6531
 5131TIP3   OH215398   1.186   0.724   0.827  0.1130  0.0752 -0.0340
 5131TIP3    H115399   1.272   0.711   0.786 -1.1000 -2.1563 -2.0784
 5131TIP3    H215400   1.168   0.641   0.872 -1.1305  0.3715  0.0488
 5132TIP3   OH215401   5.694   4.197   2.288 -0.5316  0.3345  0.6809
 5132TIP3    H115402   5.752   4.269   2.266 -0.1241  0.4054  1.8868
 5132TIP3    H215403   5.607   4.225   2.258  0.0503  0.1860 -1.2157
 5133TIP3   OH215404   1.332   3.348   4.912 -0.1653  0.3219  0.2538
 5133TIP3    H115405   1.271   3.317   4.845 -1.0426  0.8673  0.7802
 5133TIP3    H215406   1.307   3.301   4.991 -1.1919  1.9239  0.9406
 5134TIP3   OH215407   3.677   5.604   4.804  0.4079  0.1636 -0.8919
 5134TIP3    H115408   3.620   5.679   4.821  1.4976  0.9376 -0.5624
 5134TIP3    H215409   3.623   5.528   4.826 -0.9063  0.8038 -1.7759
 5135TIP3   OH215410   5.142   0.675   3.686 -0.1811 -0.5921 -0.5336
 5135TIP3    H115411   5.126   0.601   3.628  0.9396 -1.1735 -0.1268
 5135TIP3    H215412   5.085   0.660   3.761  0.2801 -1.2356 -0.3010
 5136TIP3   OH215413   2.383   3.707   3.165 -0.1642 -0.2489  0.5026
 5136TIP3    H115414   2.414   3.682   3.078  0.1629 -0.4856  0.6894
 5136TIP3    H215415   2.303   3.758   3.147 -0.3887 -0.7376  0.0920
 5137TIP3   OH215416   0.116   2.178   2.504 -0.0294 -0.2198  0.0821
 5137TIP3    H115417   0.081   2.092   2.478 -0.1347  0.2683 -1.5209
 5137TIP3    H215418   0.053   2.210   2.569  0.1425 -1.4348  0.8939
 5138TIP3   OH215419   1.950   3.448   4.983  0.0488  0.1093  0.2266
 5138TIP3    H115420   1.973   3.499   5.061 -1.5809  0.9764  0.1834
 5138TIP3    H215421   1.957   3.511   4.911  0.1153 -0.3066 -0.1332
 5139TIP3   OH215422   1.439   5.222   4.874 -0.1676  0.3058  0.0259
 5139TIP3    H115423   1.400   5.135   4.865 -1.5999  0.9605 -0.1887
 5139TIP3    H215424   1.431   5.241   4.968 -2.2819  1.2924 -0.3179
 5140TIP3   OH215425   0.716   1.857   2.042 -0.0778 -0.1685  0.5477
 5140TIP3    H115426   0.791   1.847   2.100  0.3029 -2.9450 -0.2880
 5140TIP3    H215427   0.640   1.841   2.099  0.1436 -0.4024  0.7826
 5141TIP3   OH215428   2.330   3.872   1.445  0.5873  1.0267 -0.5502
 5141TIP3    H115429   2.298   3.854   1.533 -0.1988 -2.3948 -1.3785
 5141TIP3    H215430   2.425   3.877   1.455  0.5722 -0.0944  0.4468
 5142TIP3   OH215431   3.565   0.981   1.851 -0.0676  0.4098  0.6918
 5142TIP3    H115432   3.498   1.032   1.807  0.5347  1.1033  0.5522
 5142TIP3    H215433   3.539   0.890   1.837 -0.5361  0.6469 -0.0634
 5143TIP3   OH215434   6.012   0.515   3.268 -0.0626  0.2213 -0.3757
 5143TIP3    H115435   5.967   0.533   3.350 -0.0815 -0.6332 -0.1966
 5143TIP3    H215436   6.021   0.601   3.227 -0.4534  0.5969  0.3080
 5144TIP3   OH215437   2.605   3.147   0.518  0.1420  0.6410 -0.1002
 5144TIP3    H115438   2.556   3.098   0.583  0.0690  0.9635  0.0930
 5144TIP3    H215439   2.685   3.174   0.563 -1.0151  3.0400  0.7196
 5145TIP3   OH215440   3.044   2.950   1.805 -0.8204  0.3493 -0.2873
 5145TIP3    H115441   3.121   2.996   1.772  0.6247 -0.5367  1.6805
 5145TIP3    H215442   3.006   2.909   1.728  2.4302 -1.6905 -0.9665
 5146TIP3   OH215443   4.436   1.582   3.921  0.4709 -0.1334  0.6453
 5146TIP3    H115444   4.462   1.599   3.831 -1.1651  0.0908  0.1781
 5146TIP3    H215445   4.444   1.667   3.965 -0.0675  0.0870  0.3351
 5147TIP3   OH215446   0.310   3.107   2.925  0.2051 -0.3056 -0.0394
 5147TIP3    H115447   0.393   3.077   2.888 -0.5815  0.6967 -2.8244
 5147TIP3    H215448   0.308   3.201   2.907 -1.4605 -0.2843  0.1243
 5148TIP3   OH215449   5.996   4.889   3.686  0.5191  0.7562  0.0433
 5148TIP3    H115450   6.018   4.805   3.646  1.0725  1.2301 -0.6979
 5148TIP3    H215451   5.909   4.910   3.652 -1.4723 -1.3130  3.2916
 5149TIP3   OH215452   6.067   0.331   2.058  0.5856 -0.3336 -0.6194
 5149TIP3    H115453   6.065   0.337   2.154 -0.4360 -2.9351 -0.3953
 5149TIP3    H215454   6.159   0.325   2.036  0.8535  0.6738  0.1536
 5150TIP3   OH215455   2.812   5.636   3.524  0.5728 -0.0051 -0.4911
 5150TIP3    H115456   2.724   5.659   3.493  0.6808 -0.1829 -0.9404
 5150TIP3    H215457   2.826   5.692   3.600  0.0020 -0.0964 -0.3071
 5151TIP3   OH215458   3.333   0.664   0.304  0.1008  0.7584 -0.4359
 5151TIP3    H115459   3.247   0.669   0.347 -0.1066  1.0751 -0.8795
 5151TIP3    H215460   3.368   0.579   0.331 -1.0762 -0.1301 -1.5829
 5152TIP3   OH215461   4.180   4.991   1.856  0.1539 -0.1764 -0.0739
 5152TIP3    H115462   4.184   5.084   1.878 -1.4707 -0.3408  1.1138
 5152TIP3    H215463   4.143   4.988   1.768 -0.6336  0.2854  0.2376
 5153TIP3   OH215464   5.270   3.979   0.962 -0.0943 -0.0534 -0.6864
 5153TIP3    H115465   5.284   4.023   0.879 -0.2090  0.7057 -0.3103
 5153TIP3    H215466   5.359   3.959   0.994 -0.0605 -1.5870 -1.6141
 5154TIP3   OH215467   2.177   3.762   1.252  0.8392 -0.2078 -0.3124
 5154TIP3    H115468   2.140   3.681   1.288 -0.3092  0.1659 -0.6333
 5154TIP3    H215469   2.230   3.797   1.324  1.4841 -1.3096 -0.2142
 5155TIP3   OH215470   6.214   2.312   2.947  0.4249  0.1119 -0.3410
 5155TIP3    H115471   6.282   2.309   3.015  0.1414 -0.5725 -0.0848
 5155TIP3    H215472   6.247   2.255   2.878  0.6467  0.6978 -0.7317
 5156TIP3   OH215473   5.261   4.460   4.821 -0.0622 -0.2407  0.1416
 5156TIP3    H115474   5.258   4.528   4.888  0.6681 -0.1420  0.0900
 5156TIP3    H215475   5.182   4.408   4.835  0.9499 -1.3570  2.2878
 5157TIP3   OH215476   5.286   0.244   0.919  0.1435  0.3545 -0.4820
 5157TIP3    H115477   5.275   0.326   0.969 -1.8998 -0.0241 -0.2092
 5157TIP3    H215478   5.232   0.257   0.841 -1.5782 -1.3053  0.3616
 5158TIP3   OH215479   4.018   0.639   1.052 -0.7357  0.2459  0.3552
 5158TIP3    H115480   4.084   0.665   0.988 -0.9812  1.5569  0.6003
 5158TIP3    H215481   4.065   0.583   1.114 -0.1862  0.0519 -0.2297
 5159TIP3   OH215482   3.415   4.286   2.198 -0.2926 -0.0899  0.0945
 5159TIP3    H115483   3.358   4.357   2.170 -1.3295 -1.3262 -1.0501
 5159TIP3    H215484   3.367   4.243   2.269 -0.1688 -0.3241  0.0371
 5160TIP3   OH215485   5.254   1.445   0.798 -0.0019 -0.1562  0.0350
 5160TIP3    H115486   5.284   1.535   0.816 -0.2047 -0.4092  1.7772
 5160TIP3    H215487   5.213   1.416   0.880  2.1038 -2.6539  0.3583
 5161TIP3   OH215488   5.404   1.480   1.435  0.0213  0.0242  0.6318
 5161TIP3    H115489   5.407   1.575   1.445  0.1983  0.0672  0.2107
 5161TIP3    H215490   5.408   1.446   1.524 -1.6997  0.4335  0.8993
 5162TIP3   OH215491   5.107   3.390   0.648 -0.1507  0.2904 -0.1469
 5162TIP3    H115492   5.097   3.296   0.661 -1.3901  0.6238  1.6032
 5162TIP3    H215493   5.083   3.404   0.556  0.1233 -1.1057 -0.4467
 5163TIP3   OH215494   5.472   5.769   2.420 -0.1576  0.0168  0.0881
 5163TIP3    H115495   5.441   5.854   2.451 -0.2455 -0.0164  0.0929
 5163TIP3    H215496   5.567   5.773   2.428 -0.1280  0.3006 -0.3897
 5164TIP3   OH215497   2.523   4.617   4.471  0.3131  0.0852  0.3531
 5164TIP3    H115498   2.501   4.708   4.449  0.4626  0.1235  0.3584
 5164TIP3    H215499   2.582   4.624   4.546 -2.3348 -0.1348  2.6194
 5165TIP3   OH215500   0.347   2.654   5.092 -0.5571 -0.1230  0.4034
 5165TIP3    H115501   0.306   2.734   5.059 -2.2417 -0.4465  1.5933
 5165TIP3    H215502   0.315   2.585   5.035  1.0635  0.0233 -0.7555
 5166TIP3   OH215503   1.751   3.374   0.546 -0.2958 -0.1277  0.2376
 5166TIP3    H115504   1.770   3.295   0.596  2.0255  1.4375  2.0370
 5166TIP3    H215505   1.661   3.397   0.570 -0.3041 -1.1421  1.2361
 5167TIP3   OH215506   4.216   5.828   3.491  0.4233  0.4075 -0.3974
 5167TIP3    H115507   4.137   5.773   3.485  1.2381 -1.0367  1.1844
 5167TIP3    H215508   4.187   5.905   3.540  0.3018 -0.9046  1.7216
 5168TIP3   OH215509   1.929   2.072   0.409 -0.3138 -0.0997  0.0966
 5168TIP3    H115510   1.913   2.039   0.321 -0.3207  0.7992 -0.2454
 5168TIP3    H215511   2.015   2.114   0.405 -0.6247  0.5723  0.3325
 5169TIP3   OH215512   0.953   3.088   0.400  0.3761 -0.2308 -0.3015
 5169TIP3    H115513   0.903   3.071   0.320  0.4306  0.0705 -0.4020
 5169TIP3    H215514   1.041   3.109   0.369 -0.2610  2.7853 -0.3951
 5170TIP3   OH215515   3.608   1.642   4.817  0.0391 -0.0023 -0.2628
 5170TIP3    H115516   3.650   1.640   4.903  1.9004 -1.1378 -1.1299
 5170TIP3    H215517   3.552   1.720   4.819  0.3463  0.2136  1.8153
 5171TIP3   OH215518   6.335   2.993   3.121  0.4130 -0.4167 -0.4969
 5171TIP3    H115519   6.243   3.002   3.097  0.1047 -0.1308  0.7652
 5171TIP3    H215520   6.339   2.911   3.170  0.1255  1.2881  2.5882
 5172TIP3   OH215521   0.860   2.107   1.051 -0.2556  0.0984  0.8819
 5172TIP3    H115522   0.892   2.091   1.140  0.9786 -0.5227  0.3570
 5172TIP3    H215523   0.904   2.188   1.024 -2.0546  1.3277  1.4678
 5173TIP3   OH215524   1.589   2.858   3.559  0.1510 -0.0965  0.0426
 5173TIP3    H115525   1.527   2.908   3.612  0.5583  1.5786 -1.0049
 5173TIP3    H215526   1.537   2.826   3.485  0.6261  1.9897 -1.2679
 5174TIP3   OH215527   2.897   1.329   5.059  0.2347  0.1574 -0.1648
 5174TIP3    H115528   2.883   1.418   5.027 -0.9669 -0.7216 -2.2432
 5174TIP3    H215529   2.880   1.335   5.153  1.1845  2.2905 -0.0745
 5175TIP3   OH215530   3.103   3.588   0.914 -0.0007  0.6719  0.8189
 5175TIP3    H115531   3.038   3.522   0.939  0.6687 -0.0806  0.6046
 5175TIP3    H215532   3.157   3.600   0.992  1.3488 -0.8058  0.1866
 5176TIP3   OH215533   1.393   3.303   4.542 -0.0014 -0.4400  0.5536
 5176TIP3    H115534   1.432   3.348   4.467 -1.1502 -2.3312 -1.3134
 5176TIP3    H215535   1.323   3.361   4.571 -0.8653 -0.5348 -1.2120
 5177TIP3   OH215536   4.055   2.704   4.584  0.0088  0.1333  0.2754
 5177TIP3    H115537   3.973   2.732   4.543  0.3806  2.4413  1.0193
 5177TIP3    H215538   4.102   2.658   4.514 -0.9340  0.7735 -0.8140
 5178TIP3   OH215539   4.884   0.226   2.411 -0.2536  0.1693 -0.3629
 5178TIP3    H115540   4.901   0.156   2.473 -1.8896 -0.9858 -1.1417
 5178TIP3    H215541   4.952   0.217   2.344  1.2871  1.1897  0.9862
 5179TIP3   OH215542   6.095   0.918   4.343  0.0953  0.1635  0.0149
 5179TIP3    H115543   6.116   0.879   4.428  1.5283 -1.0973 -0.8633
 5179TIP3    H215544   6.152   0.872   4.281 -0.9744  0.9877 -1.6491
 5180TIP3   OH215545   5.747   3.800   3.028 -0.5942 -0.3063  0.2277
 5180TIP3    H115546   5.658   3.768   3.010 -0.8217 -0.1112  0.9848
 5180TIP3    H215547   5.734   3.887   3.066 -0.0449  0.0160 -0.3169
 5181TIP3   OH215548   1.898   5.747   0.916  0.2485  0.5246  0.2622
 5181TIP3    H115549   1.879   5.654   0.905 -1.9165  0.8287  0.9443
 5181TIP3    H215550   1.952   5.752   0.995  1.2177 -0.2019 -0.3294
 5182TIP3   OH215551   3.105   3.000   3.931  0.0437 -0.4620 -0.3421
 5182TIP3    H115552   3.109   3.093   3.954 -0.9670 -0.0125 -1.8573
 5182TIP3    H215553   3.156   2.956   4.000 -1.5177  0.9352  1.8603
 5183TIP3   OH215554   4.306   5.140   0.756  0.2214 -0.2513 -0.3306
 5183TIP3    H115555   4.311   5.193   0.677 -0.7367  2.4271  1.2610
 5183TIP3    H215556   4.238   5.075   0.739 -1.8405  1.9282 -0.8729
 5184TIP3   OH215557   3.118   5.325   1.195  0.2589  0.4062 -0.5889
 5184TIP3    H115558   3.066   5.270   1.137 -0.0917 -0.3538  0.4098
 5184TIP3    H215559   3.110   5.283   1.281  3.2812 -0.3175 -0.5460
 5185TIP3   OH215560   0.542   0.244   2.856  0.0999 -0.5103 -0.2782
 5185TIP3    H115561   0.551   0.306   2.784  0.2222  0.6096  0.6732
 5185TIP3    H215562   0.599   0.171   2.832 -0.9201 -0.7910 -1.9543
 5186TIP3   OH215563   3.173   1.850   2.118 -0.0814  0.0568 -0.0133
 5186TIP3    H115564   3.102   1.894   2.167  0.3327  1.6320 -0.7721
 5186TIP3    H215565   3.237   1.827   2.185  0.3449  1.9351  0.2691
 5187TIP3   OH215566   1.056   1.203   0.487 -0.0202 -0.8157  0.2445
 5187TIP3    H115567   0.981   1.261   0.500 -0.3351 -1.3826  1.0838
 5187TIP3    H215568   1.031   1.147   0.414  0.4143  0.2887 -0.7807
 5188TIP3   OH215569   5.897   4.370   5.072 -0.0857  0.2122  0.2736
 5188TIP3    H115570   5.859   4.426   5.139  0.6829  0.3159  0.6338
 5188TIP3    H215571   5.857   4.285   5.086 -1.0138  0.5846 -0.0664
 5189TIP3   OH215572   0.728   0.765   0.124 -0.3294  0.1857 -0.2714
 5189TIP3    H115573   0.820   0.789   0.116 -0.2029 -0.0337  0.4388
 5189TIP3    H215574   0.686   0.841   0.164 -0.6140  0.5872 -1.3024
 5190TIP3   OH215575   0.704   2.813   5.219 -0.3778 -0.1755  0.0864
 5190TIP3    H115576   0.630   2.854   5.174 -0.0016 -0.4098 -0.7638
 5190TIP3    H215577   0.731   2.742   5.161 -0.6790 -1.3072  1.2806
 5191TIP3   OH215578   2.515   2.705   0.993  0.9794 -0.8994 -0.0029
 5191TIP3    H115579   2.543   2.793   1.020  2.5863 -0.5932 -2.3485
 5191TIP3    H215580   2.594   2.651   1.003  0.5363 -1.6265 -0.3788
 5192TIP3   OH215581   0.816   2.232   2.328  0.4337  0.5062  0.3963
 5192TIP3    H115582   0.892   2.266   2.374  0.3742 -0.3690  1.1632
 5192TIP3    H215583   0.792   2.302   2.267  1.8421  0.7987  0.1299
 5193TIP3   OH215584   6.200   1.971   4.499  0.1234 -0.1136 -0.0595
 5193TIP3    H115585   6.221   1.878   4.508  0.0962  0.0063  1.4636
 5193TIP3    H215586   6.122   1.983   4.553 -0.8784  0.4822 -1.5795
 5194TIP3   OH215587   1.238   4.483   3.471  0.6002 -0.2153 -0.1064
 5194TIP3    H115588   1.167   4.422   3.492 -1.7341  2.5814  0.8271
 5194TIP3    H215589   1.232   4.496   3.377  1.0999 -1.3429 -0.3078
 5195TIP3   OH215590   4.853   4.209   4.358 -0.2199 -0.3292 -0.2376
 5195TIP3    H115591   4.886   4.246   4.440  0.6772 -0.4614 -0.5232
 5195TIP3    H215592   4.793   4.276   4.324 -1.7321 -0.8956  1.2188
 5196TIP3   OH215593   1.225   2.650   2.532  0.4259 -0.4784  0.2059
 5196TIP3    H115594   1.242   2.667   2.440 -0.0549 -0.1472  0.1732
 5196TIP3    H215595   1.154   2.710   2.555 -2.7184 -3.6204 -0.4327
 5197TIP3   OH215596   2.884   3.216   5.149 -0.5679  0.3133  0.1468
 5197TIP3    H115597   2.909   3.245   5.237  2.7111  0.5667 -0.7160
 5197TIP3    H215598   2.926   3.279   5.090  1.0011 -2.1758 -1.6246
 5198TIP3   OH215599   4.009   2.343   1.170 -0.2339  0.0889 -0.0951
 5198TIP3    H115600   3.990   2.413   1.109 -1.5312 -0.9454 -0.9394
 5198TIP3    H215601   3.944   2.276   1.151 -0.2056 -0.5960  1.9122
 5199TIP3   OH215602   5.737   3.716   4.782 -0.2230 -0.1420 -0.2058
 5199TIP3    H115603   5.703   3.662   4.711  0.0465  2.2305 -2.2921
 5199TIP3    H215604   5.829   3.729   4.761 -0.2472  0.9926  0.2876
 5200TIP3   OH215605   1.021   5.046   3.979 -0.3868 -0.1840  0.0212
 5200TIP3    H115606   1.043   5.138   3.962 -0.8813 -0.2204 -0.8558
 5200TIP3    H215607   1.106   5.003   3.992 -0.0646  0.1412 -0.9148
 5201TIP3   OH215608   0.130   1.358   3.184  0.1876 -0.3536 -0.1611
 5201TIP3    H115609   0.057   1.318   3.230  0.0499 -1.2670 -1.1330
 5201TIP3    H215610   0.090   1.428   3.132 -0.0452 -0.9844 -0.8496
 5202TIP3   OH215611   2.449   0.947   4.757 -0.1132 -0.4457 -0.1914
 5202TIP3    H115612   2.453   0.946   4.662  0.0483  1.0017 -0.2212
 5202TIP3    H215613   2.402   1.027   4.779  0.9821 -0.0722  0.9634
 5203TIP3   OH215614   0.689   3.670   2.402 -0.3312  0.8500 -0.2962
 5203TIP3    H115615   0.621   3.604   2.389 -0.7284  1.3842 -1.0314
 5203TIP3    H215616   0.728   3.680   2.315  3.3505 -2.2203  0.7376
 5204TIP3   OH215617   5.172   1.837   4.291  0.2493 -0.4321  0.0913
 5204TIP3    H115618   5.243   1.819   4.353  0.0061 -0.0927  0.4744
 5204TIP3    H215619   5.182   1.930   4.270  1.5163 -0.9531 -1.8950
 5205TIP3   OH215620   2.190   2.185   0.408  0.1878 -0.1422 -0.0210
 5205TIP3    H115621   2.184   2.202   0.315 -1.4834  0.6488  0.2034
 5205TIP3    H215622   2.207   2.270   0.448  1.9236 -0.6199  0.3493
 5206TIP3   OH215623   5.707   5.595   5.118 -0.4286  0.1275  0.0359
 5206TIP3    H115624   5.656   5.522   5.082 -0.6069 -0.1069  0.7642
 5206TIP3    H215625   5.700   5.664   5.051 -0.3436 -0.4789 -0.6072
 5207TIP3   OH215626   2.645   4.414   0.372 -0.0260 -0.4751  0.8383
 5207TIP3    H115627   2.671   4.504   0.352 -1.5047 -0.1717  0.1341
 5207TIP3    H215628   2.629   4.374   0.286 -0.5728 -1.0256  1.1841
 5208TIP3   OH215629   2.502   5.635   0.436 -0.2997  0.3566  0.1432
 5208TIP3    H115630   2.467   5.657   0.350 -0.0951  1.7482  0.3955
 5208TIP3    H215631   2.435   5.664   0.498  0.2833  0.9094  0.5223
 5209TIP3   OH215632   5.759   1.091   3.891 -0.1268  0.7496 -0.2006
 5209TIP3    H115633   5.779   1.102   3.798  0.7618 -1.1318 -0.2723
 5209TIP3    H215634   5.707   1.011   3.896  0.1283  0.6399  0.9491
 5210TIP3   OH215635   4.811   0.412   3.256  0.2145 -0.0185  0.2202
 5210TIP3    H115636   4.869   0.340   3.278 -2.0298 -1.7161  0.9120
 5210TIP3    H215637   4.785   0.449   3.340 -0.4797  0.0624 -0.0198
 5211TIP3   OH215638   4.548   5.356   1.892 -0.3573  0.1016 -0.1122
 5211TIP3    H115639   4.528   5.278   1.840 -0.7902  1.0894 -1.4929
 5211TIP3    H215640   4.579   5.420   1.827 -1.7511  1.6780  0.7060
 5212TIP3   OH215641   5.335   0.783   0.677  0.0068 -0.3039 -0.4231
 5212TIP3    H115642   5.294   0.742   0.753 -0.3766  0.1747 -0.3687
 5212TIP3    H215643   5.300   0.872   0.675  0.1195 -0.2641 -1.0784
 5213TIP3   OH215644   5.348   0.600   3.171 -0.1480  0.1383 -0.7912
 5213TIP3    H115645   5.280   0.664   3.148 -0.5418  0.2300  0.5296
 5213TIP3    H215646   5.300   0.519   3.189  0.0773  0.1966  0.1239
 5214TIP3   OH215647   4.031   3.559   4.949 -0.1275 -0.1298  0.3177
 5214TIP3    H115648   3.949   3.597   4.917 -0.1936  0.5725  1.2533
 5214TIP3    H215649   4.073   3.523   4.871 -0.7887  0.5335 -0.3650
 5215TIP3   OH215650   5.032   0.073   0.120  0.3994 -0.0521 -0.3725
 5215TIP3    H115651   5.100   0.117   0.069 -0.2203  0.6126 -0.6380
 5215TIP3    H215652   5.017  -0.010   0.075  0.8812 -0.1093 -0.4337
 5216TIP3   OH215653   1.709   1.694   2.119  0.1481 -0.3582  0.1083
 5216TIP3    H115654   1.655   1.711   2.196  0.5371  3.2300 -0.2654
 5216TIP3    H215655   1.646   1.666   2.051 -0.9424  1.2986  0.3783
 5217TIP3   OH215656   6.057   1.719   3.248 -0.2666  0.1756 -0.1233
 5217TIP3    H115657   6.147   1.739   3.224  0.4167  0.8123  2.6339
 5217TIP3    H215658   6.059   1.625   3.270 -0.5454 -0.0526 -1.0230
 5218TIP3   OH215659   4.783   0.215   0.424  0.2309  0.4769  0.2903
 5218TIP3    H115660   4.806   0.137   0.474 -1.9495  0.3095  1.1391
 5218TIP3    H215661   4.820   0.288   0.474  2.4281  0.0680 -0.5976
 5219TIP3   OH215662   0.154   1.865   0.756 -0.1465 -0.2630 -0.1935
 5219TIP3    H115663   0.153   1.774   0.783 -1.0884 -0.3608 -0.5109
 5219TIP3    H215664   0.127   1.914   0.834 -0.8909 -0.3748 -0.3710
 5220TIP3   OH215665   3.486   5.192   3.528  0.0522  0.0024 -0.2234
 5220TIP3    H115666   3.407   5.155   3.488 -0.3348  2.5041 -1.9993
 5220TIP3    H215667   3.453   5.261   3.586  0.8872 -0.1071  0.3969
 5221TIP3   OH215668   0.987   2.935   4.602 -0.4463 -0.1305  0.4731
 5221TIP3    H115669   1.068   2.979   4.575  0.4780 -2.3713 -0.6229
 5221TIP3    H215670   0.951   2.899   4.521 -0.9626 -1.6667  1.3453
 5222TIP3   OH215671   3.195   3.159   1.691  0.3140  0.4170 -0.0332
 5222TIP3    H115672   3.196   3.091   1.624 -0.2020 -0.4670  0.8208
 5222TIP3    H215673   3.261   3.223   1.663 -0.9771  0.8953 -2.1794
 5223TIP3   OH215674   0.188   0.989   0.655  0.6860  0.6460  0.5658
 5223TIP3    H115675   0.124   0.998   0.584  1.2914  0.4379 -0.0159
 5223TIP3    H215676   0.180   1.071   0.704 -0.6366  0.2743  1.0373
 5224TIP3   OH215677   5.454   0.465   0.791  0.4750 -0.4151 -0.5803
 5224TIP3    H115678   5.501   0.461   0.708  0.7189  0.3760 -0.4912
 5224TIP3    H215679   5.471   0.381   0.833  0.7435 -0.6321 -1.1232
 5225TIP3   OH215680   6.227   1.100   1.703  0.0224 -0.1845  0.0817
 5225TIP3    H115681   6.187   1.176   1.745 -1.0259 -0.2455 -0.7527
 5225TIP3    H215682   6.321   1.116   1.710 -0.1255  2.1732 -1.6730
 5226TIP3   OH215683   5.986   1.023   0.026 -0.4336 -0.1454 -0.0244
 5226TIP3    H115684   5.938   0.959   0.079 -1.5910  1.5196  1.0566
 5226TIP3    H215685   6.042   1.069   0.089 -0.3610  0.5619 -0.5972
 5227TIP3   OH215686   0.008   0.064   3.118  0.0405 -0.5985  0.4574
 5227TIP3    H115687   0.043   0.049   3.206  0.1849 -1.7651  0.2183
 5227TIP3    H215688   0.069   0.019   3.059  0.6456  1.2070 -0.3791
 5228TIP3   OH215689   4.975   0.403   1.133 -0.3063  0.0588 -0.3021
 5228TIP3    H115690   5.035   0.403   1.208 -0.0270 -1.4026 -0.4955
 5228TIP3    H215691   4.908   0.338   1.156 -1.4089  1.1278 -0.4166
 5229TIP3   OH215692   5.961   1.310   1.680 -0.4351  0.7440  0.3391
 5229TIP3    H115693   5.986   1.288   1.770  0.4062  0.6118  0.0884
 5229TIP3    H215694   5.965   1.226   1.634 -1.7643  0.6514  0.3687
 5230TIP3   OH215695   1.010   2.250   2.568 -0.1470 -0.6105  0.1730
 5230TIP3    H115696   0.971   2.317   2.624  0.7066  0.2610 -0.2525
 5230TIP3    H215697   1.087   2.220   2.617 -0.5101 -1.2699  0.3503
 5231TIP3   OH215698   2.488   4.156   1.371 -0.2336  0.1404 -0.0004
 5231TIP3    H115699   2.551   4.184   1.304  1.7885 -0.2955  1.5991
 5231TIP3    H215700   2.423   4.105   1.323  0.4457  0.8688 -1.7889
 5232TIP3   OH215701   0.770   3.402   1.209 -0.2523  0.0864 -0.2021
 5232TIP3    H115702   0.819   3.361   1.137 -0.9010 -1.5945  0.2545
 5232TIP3    H215703   0.720   3.330   1.247 -2.1932  1.5200  0.0914
 5233TIP3   OH215704   4.482   3.811   0.970  0.7178 -0.1444  0.2211
 5233TIP3    H115705   4.390   3.791   0.952  0.8937 -1.0499  0.3211
 5233TIP3    H215706   4.485   3.821   1.066  0.9865 -1.5227  0.3725
 5234TIP3   OH215707   5.115   3.639   1.410  0.3727  0.3200  0.3879
 5234TIP3    H115708   5.071   3.596   1.336  1.9656 -2.6697  1.0268
 5234TIP3    H215709   5.069   3.606   1.487  0.6605  1.0304  0.8754
 5235TIP3   OH215710   2.207   3.045   2.115  0.2978 -0.4597 -0.1702
 5235TIP3    H115711   2.127   3.008   2.080  0.4503 -1.0755  0.1142
 5235TIP3    H215712   2.180   3.088   2.197  0.6608 -3.1136  1.4565
 5236TIP3   OH215713   6.051   2.212   2.289 -0.5656  0.6347 -0.1887
 5236TIP3    H115714   6.066   2.195   2.196 -0.6911  1.2398 -0.3259
 5236TIP3    H215715   6.077   2.304   2.300  0.9974  0.1201  0.7102
 5237TIP3   OH215716   2.763   1.517   3.077  0.1332 -0.2193  0.1093
 5237TIP3    H115717   2.739   1.599   3.035  0.0727 -0.2282  0.1256
 5237TIP3    H215718   2.689   1.498   3.135  0.5066  0.1391  0.7225
 5238TIP3   OH215719   0.210   4.740   4.641 -0.1573 -0.1683 -0.1755
 5238TIP3    H115720   0.168   4.818   4.678 -1.7990 -1.3430  0.5631
 5238TIP3    H215721   0.289   4.728   4.693 -1.3720 -0.6112  1.6720
 5239TIP3   OH215722   5.312   0.094   2.203 -0.1448  0.6752 -0.5346
 5239TIP3    H115723   5.405   0.112   2.189 -0.1845  1.2642 -0.0667
 5239TIP3    H215724   5.307  -0.002   2.208  0.4556  0.6443 -0.4038
 5240TIP3   OH215725   2.749   4.800   1.513 -0.3856  0.0591  0.1784
 5240TIP3    H115726   2.653   4.803   1.507 -0.4042 -1.1938 -0.6942
 5240TIP3    H215727   2.775   4.887   1.541 -1.7541  0.5873 -0.1475
 5241TIP3   OH215728   1.363   2.321   1.028  0.2476  0.3388  0.3184
 5241TIP3    H115729   1.302   2.266   1.077  0.6222 -0.6205 -0.2660
 5241TIP3    H215730   1.444   2.319   1.080  0.6232 -0.6227 -0.2735
 5242TIP3   OH215731   3.419   0.031   0.208  0.3886  0.4536 -0.1877
 5242TIP3    H115732   3.461   0.068   0.286 -1.5226 -1.1642  1.7520
 5242TIP3    H215733   3.490  -0.016   0.163  1.4482  1.0013  0.8515
 5243TIP3   OH215734   1.458   4.396   0.597  0.2017  0.6662 -0.2704
 5243TIP3    H115735   1.507   4.336   0.653 -0.5980  0.6457  0.4190
 5243TIP3    H215736   1.368   4.366   0.601 -0.1391  1.6349 -0.2803
 5244TIP3   OH215737   4.771   5.254   1.996  0.0848 -0.2785 -0.3708
 5244TIP3    H115738   4.736   5.167   1.977  1.7094 -1.0253 -0.1231
 5244TIP3    H215739   4.697   5.313   1.984 -0.9907 -1.6653 -0.7914
 5245TIP3   OH215740   1.415   1.650   4.800 -0.2929  0.4154  0.7391
 5245TIP3    H115741   1.355   1.724   4.800  1.9398  2.4024 -1.4343
 5245TIP3    H215742   1.459   1.654   4.885 -0.4940  1.3520  0.8100
 5246TIP3   OH215743   2.259   4.688   2.498  0.0740 -0.1707  0.3663
 5246TIP3    H115744   2.206   4.700   2.577  1.6353  0.2548  1.3971
 5246TIP3    H215745   2.312   4.610   2.517  0.5462  0.0035 -0.2117
 5247TIP3   OH215746   4.013   0.067   4.379 -0.1699  0.5576 -0.4633
 5247TIP3    H115747   3.924   0.052   4.347 -0.0911  0.8370 -0.8295
 5247TIP3    H215748   4.057   0.112   4.306 -0.1707  1.7934  0.2810
 5248TIP3   OH215749   5.801   2.185   3.022  0.1554 -0.4829  0.5564
 5248TIP3    H115750   5.881   2.145   2.988 -0.1903  0.1635 -1.0886
 5248TIP3    H215751   5.827   2.274   3.048  0.1075 -0.5106  0.7052
 5249TIP3   OH215752   1.958   5.847   3.538  0.1927 -0.5150  0.5615
 5249TIP3    H115753   2.006   5.930   3.538  0.2964 -0.5717  0.1880
 5249TIP3    H215754   2.015   5.787   3.585 -0.3547 -0.1179  1.7765
 5250TIP3   OH215755   0.706   1.230   1.876 -0.0211 -0.6282  0.4880
 5250TIP3    H115756   0.689   1.173   1.951  0.1570 -0.4713  0.6472
 5250TIP3    H215757   0.634   1.212   1.816 -0.5759 -0.2108  1.0179
 5251TIP3   OH215758   3.366   0.243   2.135  0.1655 -0.5237 -0.0577
 5251TIP3    H115759   3.369   0.210   2.224 -0.8654  0.9055  0.5375
 5251TIP3    H215760   3.283   0.211   2.100 -1.1853  1.8678  0.7602
 5252TIP3   OH215761   4.984   3.438   3.952  0.8055 -0.0282 -0.3836
 5252TIP3    H115762   4.902   3.445   4.000 -0.1785  2.3716 -2.2599
 5252TIP3    H215763   5.020   3.354   3.980 -3.3422 -2.3226 -1.1770
 5253TIP3   OH215764   0.175   4.627   3.041 -0.2414  0.1078 -0.0360
 5253TIP3    H115765   0.217   4.560   2.987  0.7689  1.6461 -1.2561
 5253TIP3    H215766   0.119   4.675   2.980 -0.3734  0.8325  0.6338
 5254TIP3   OH215767   2.900   0.851   1.199 -0.2424 -0.2289  0.2712
 5254TIP3    H115768   2.879   0.762   1.170  1.4871 -0.5163 -0.1944
 5254TIP3    H215769   2.917   0.899   1.118 -1.0520  0.5246  0.5245
 5255TIP3   OH215770   2.273   2.100   2.598  0.2954  0.1537 -0.1774
 5255TIP3    H115771   2.211   2.165   2.631  0.1903  0.1945 -0.4536
 5255TIP3    H215772   2.230   2.016   2.616 -1.1974  0.2151 -2.9283
 5256TIP3   OH215773   4.806   2.255   0.750  0.1802 -0.2377  0.2212
 5256TIP3    H115774   4.887   2.271   0.702  0.7759 -1.1459  0.8947
 5256TIP3    H215775   4.749   2.212   0.686 -0.4553  1.9810 -0.7844
 5257TIP3   OH215776   0.265   3.508   4.483 -0.0596 -0.3056 -0.3403
 5257TIP3    H115777   0.190   3.559   4.512  1.0309  0.5148  1.1831
 5257TIP3    H215778   0.334   3.573   4.467  0.4850 -1.0734 -1.2579
 5258TIP3   OH215779   4.528   0.626   1.579 -0.3532  0.1597 -0.0967
 5258TIP3    H115780   4.614   0.658   1.606  0.0959  0.0543 -1.3252
 5258TIP3    H215781   4.468   0.697   1.602  0.2254  0.7084 -0.2562
 5259TIP3   OH215782   5.780   1.448   3.026  0.5570  0.3809  0.2345
 5259TIP3    H115783   5.755   1.540   3.032 -0.4829  0.0744  0.8266
 5259TIP3    H215784   5.863   1.442   3.074  1.0482  1.1468 -0.4984
 5260TIP3   OH215785   4.366   2.634   1.684 -0.1610 -0.2477  0.4257
 5260TIP3    H115786   4.328   2.721   1.697 -2.2814 -1.3380  2.3440
 5260TIP3    H215787   4.328   2.603   1.602 -2.0827 -0.5653  1.3657
 5261TIP3   OH215788   5.962   3.392   3.851  0.5135  0.5356  0.7994
 5261TIP3    H115789   5.877   3.348   3.852 -0.0988  1.6206  3.0751
 5261TIP3    H215790   6.022   3.327   3.815 -1.2595 -0.2200 -0.9671
 5262TIP3   OH215791   2.809   3.113   4.015  0.4165  0.1198  0.0822
 5262TIP3    H115792   2.780   3.201   3.991  1.1948 -0.2328 -2.5001
 5262TIP3    H215793   2.851   3.124   4.101 -3.0436  1.4467  1.7748
 5263TIP3   OH215794   3.684   4.059   3.970  0.5946  0.0524  0.4439
 5263TIP3    H115795   3.676   4.007   3.890 -1.7425  0.0955  0.5944
 5263TIP3    H215796   3.754   4.122   3.950  2.2117 -1.8958 -0.3920
 5264TIP3   OH215797   1.633   4.100   2.713 -0.5164 -0.2179 -0.1214
 5264TIP3    H115798   1.575   4.024   2.701  1.3367 -2.0219  1.6609
 5264TIP3    H215799   1.688   4.077   2.787  3.1144  0.9721 -2.1764
 5265TIP3   OH215800   3.110   2.843   4.458  0.2518  0.7704  0.3652
 5265TIP3    H115801   3.121   2.781   4.529 -0.9125 -0.0881 -0.1773
 5265TIP3    H215802   3.137   2.796   4.380 -3.8505 -0.4080 -0.5877
 5266TIP3   OH215803   5.946   1.410   2.241  0.0087  0.2898 -0.1650
 5266TIP3    H115804   5.972   1.344   2.306 -0.0853  0.3321 -0.0853
 5266TIP3    H215805   6.029   1.437   2.201  0.0021 -0.2869 -0.5977
 5267TIP3   OH215806   4.076   3.669   4.444 -0.3736 -0.0775  0.0002
 5267TIP3    H115807   4.062   3.583   4.404 -2.0148  0.6124 -1.0382
 5267TIP3    H215808   4.066   3.731   4.371 -0.8728  1.0687  1.0062
 5268TIP3   OH215809   0.068   3.392   0.528  0.3875 -0.4747 -0.3015
 5268TIP3    H115810   0.095   3.473   0.485  0.3204  0.3803  1.1761
 5268TIP3    H215811  -0.023   3.380   0.502  0.5094 -0.2865 -0.8278
 5269TIP3   OH215812   5.699   4.603   3.090  0.2945  0.4414 -0.2158
 5269TIP3    H115813   5.676   4.608   3.183 -0.9326  0.7688 -0.5183
 5269TIP3    H215814   5.737   4.688   3.071  0.4105  0.4283 -0.0444
 5270TIP3   OH215815   2.310   3.417   0.435 -0.2755  0.0010  0.0595
 5270TIP3    H115816   2.337   3.456   0.351  0.9904  0.4076  0.6438
 5270TIP3    H215817   2.301   3.492   0.494  0.1929 -0.3999  0.6533
 5271TIP3   OH215818   2.766   2.143   4.854  0.1078 -0.1309  0.0435
 5271TIP3    H115819   2.826   2.218   4.859  0.1935 -0.2362  0.8199
 5271TIP3    H215820   2.729   2.147   4.766 -1.1010  1.7787  0.5623
 5272TIP3   OH215821   1.809   0.860  -0.004  0.1322 -0.3272 -0.3223
 5272TIP3    H115822   1.891   0.827   0.033 -0.1371  0.5708  1.1640
 5272TIP3    H215823   1.742   0.829   0.056 -0.1689  2.5530  0.9992
 5273TIP3   OH215824   4.545   2.311   4.942  0.7693  0.0615  0.1242
 5273TIP3    H115825   4.468   2.263   4.913  0.4038  0.1608  0.8826
 5273TIP3    H215826   4.577   2.357   4.864  0.0082  0.0834 -0.1788
 5274TIP3   OH215827   5.973   0.982   1.903  0.4630 -0.1046 -0.1355
 5274TIP3    H115828   6.025   1.060   1.924  1.2224 -0.3287 -1.0915
 5274TIP3    H215829   5.957   0.988   1.809 -1.3068 -0.0358  0.1398
 5275TIP3   OH215830   1.320   5.054   3.407  0.3559  0.7265 -0.0277
 5275TIP3    H115831   1.307   5.135   3.358 -1.5262 -0.0660 -0.9829
 5275TIP3    H215832   1.295   5.075   3.497 -1.2825  0.9766 -0.5008
 5276TIP3   OH215833   1.573   5.577   4.695  0.3943 -0.1281  0.3021
 5276TIP3    H115834   1.570   5.537   4.782 -0.4382 -0.1124  0.2858
 5276TIP3    H215835   1.666   5.581   4.675  0.5249 -2.0364  0.3182
 5277TIP3   OH215836   3.881   3.579   3.231 -0.3708  0.2057 -0.3634
 5277TIP3    H115837   3.922   3.566   3.146 -1.3843  2.9833 -1.4041
 5277TIP3    H215838   3.867   3.674   3.236  0.0152  0.2036  3.0927
 5278TIP3   OH215839   4.348   3.424   3.297  0.8040  0.5911 -0.8351
 5278TIP3    H115840   4.261   3.389   3.314  0.9099  0.9721  0.5603
 5278TIP3    H215841   4.386   3.362   3.234  0.0865 -0.4405 -0.2853
 5279TIP3   OH215842   0.851   4.470   4.717 -0.2631 -0.0167  0.0854
 5279TIP3    H115843   0.809   4.393   4.679 -1.7704  0.7634  0.1034
 5279TIP3    H215844   0.778   4.527   4.742  0.7982  1.0018  0.9423
 5280TIP3   OH215845   1.545   3.540   0.349  0.3423  0.2586 -0.2720
 5280TIP3    H115846   1.486   3.490   0.406  0.4104 -0.1876 -0.5823
 5280TIP3    H215847   1.599   3.591   0.409  0.3818 -0.1727  0.0642
 5281TIP3   OH215848   3.830   2.453   4.431  0.1878 -0.2872 -0.0504
 5281TIP3    H115849   3.742   2.426   4.405 -0.6920  1.3446  1.0979
 5281TIP3    H215850   3.873   2.473   4.348 -0.4411 -1.2665 -0.6400
 5282TIP3   OH215851   1.312   1.284   5.030 -0.3871  0.3901 -0.0294
 5282TIP3    H115852   1.386   1.328   5.070  1.0161 -2.2508  0.5419
 5282TIP3    H215853   1.329   1.287   4.936 -0.3363  1.0382 -0.0030
 5283TIP3   OH215854   1.600   3.988   4.362 -0.2262 -0.4944  0.3877
 5283TIP3    H115855   1.650   3.908   4.351 -2.0036 -1.7933  1.2738
 5283TIP3    H215856   1.530   3.982   4.296  0.0841  0.7395 -0.0826
 5284TIP3   OH215857   5.595   4.151   3.665  0.0376 -0.2912 -0.6434
 5284TIP3    H115858   5.685   4.125   3.685  0.3197 -0.1063 -1.6388
 5284TIP3    H215859   5.542   4.074   3.687  0.1392  0.3213  2.0669
 5285TIP3   OH215860   0.580   0.373   1.626  0.1745  0.0909 -0.0315
 5285TIP3    H115861   0.515   0.402   1.691  0.3851 -0.2986  0.3613
 5285TIP3    H215862   0.664   0.399   1.664  0.2729  0.2414 -0.3534
 5286TIP3   OH215863   5.890   4.660   0.397 -0.0294  0.4835 -0.3590
 5286TIP3    H115864   5.834   4.636   0.470  0.2155 -1.8970 -0.8655
 5286TIP3    H215865   5.922   4.577   0.362  2.7279  1.6643 -0.9701
 5287TIP3   OH215866   0.613   5.456   2.348 -0.1446 -0.4050 -0.2956
 5287TIP3    H115867   0.552   5.425   2.415 -0.3762 -0.1041 -0.3655
 5287TIP3    H215868   0.600   5.551   2.345  1.6724 -0.0625  1.0333
 5288TIP3   OH215869   5.064   2.256   0.614 -0.0431  0.3381 -0.0654
 5288TIP3    H115870   5.111   2.289   0.538  0.4107 -0.4341 -0.1349
 5288TIP3    H215871   5.016   2.180   0.581  0.5260 -0.2871  0.5076
 5289TIP3   OH215872   5.941   4.542   4.829 -0.1848  0.3429  0.5272
 5289TIP3    H115873   5.982   4.468   4.785 -1.2401 -0.4810  0.8684
 5289TIP3    H215874   5.852   4.512   4.849 -1.1441  2.2014 -0.6000
 5290TIP3   OH215875   2.961   4.001   1.826 -0.3446 -0.0539  0.2097
 5290TIP3    H115876   3.001   4.026   1.910  0.4835  0.9247 -0.4509
 5290TIP3    H215877   2.875   3.968   1.850 -0.0819  0.1099  1.4636
 5291TIP3   OH215878   1.182   3.032   5.226 -0.3679  0.2833  0.2356
 5291TIP3    H115879   1.259   3.014   5.172  0.2147  0.1528  1.0808
 5291TIP3    H215880   1.110   3.041   5.164 -0.1249 -1.9439 -0.4400
 5292TIP3   OH215881   0.242   0.875   1.932  0.4519  0.0618 -1.1627
 5292TIP3    H115882   0.335   0.853   1.925  0.3776 -0.3498 -0.8619
 5292TIP3    H215883   0.197   0.792   1.925  0.2145 -0.0756  1.0723
 5293TIP3   OH215884   4.834   3.242   4.156  0.0669  0.2832  0.4267
 5293TIP3    H115885   4.928   3.248   4.140  0.2422 -1.4543  0.6276
 5293TIP3    H215886   4.801   3.331   4.141  1.4122  0.4877 -1.7671
 5294TIP3   OH215887   1.197   0.403   3.244  0.2907 -0.3830  0.8968
 5294TIP3    H115888   1.160   0.491   3.253  1.2690  0.0703  0.5945
 5294TIP3    H215889   1.194   0.386   3.149  0.3414 -0.5706  0.9295
 5295TIP3   OH215890   3.882   4.565   1.140  0.0214  0.0625 -0.1581
 5295TIP3    H115891   3.912   4.559   1.230 -2.0690 -1.1221  0.5013
 5295TIP3    H215892   3.807   4.506   1.134 -0.4493  0.7636 -2.4400
 5296TIP3   OH215893   2.254   4.215   4.748  0.0717 -0.4606  0.2417
 5296TIP3    H115894   2.170   4.171   4.736 -0.0626 -0.0106 -0.5550
 5296TIP3    H215895   2.271   4.259   4.664  0.6748  0.1844  0.6830
 5297TIP3   OH215896   0.057   5.860   5.140 -0.1847  0.3720  0.2223
 5297TIP3    H115897   0.125   5.824   5.197 -2.1101 -2.4012  0.9731
 5297TIP3    H215898   0.025   5.937   5.187 -0.2806 -0.6437  1.8886
 5298TIP3   OH215899   0.238   4.586   1.715  0.1935  0.9399  0.2256
 5298TIP3    H115900   0.195   4.657   1.668  0.6294  0.8760 -0.2726
 5298TIP3    H215901   0.310   4.628   1.762  0.5191  0.8137 -0.1571
 5299TIP3   OH215902   2.940   0.362   3.925 -0.0040  0.7390  0.3634
 5299TIP3    H115903   2.918   0.335   3.836 -1.0262  1.2486  0.4402
 5299TIP3    H215904   3.002   0.297   3.956 -1.6702 -1.0078  0.2077
 5300TIP3   OH215905   1.359   5.963   1.392  0.2237  0.3296 -0.1513
 5300TIP3    H115906   1.279   5.921   1.425 -0.1302 -0.0022 -1.3886
 5300TIP3    H215907   1.428   5.934   1.452 -0.3738 -0.3342  0.2355
 5301TIP3   OH215908   0.926   0.093   2.628  0.1551  0.1042 -0.3835
 5301TIP3    H115909   0.911   0.108   2.721  0.5433 -0.3554 -0.2416
 5301TIP3    H215910   0.846   0.051   2.597  0.5649 -1.0220  0.0533
 5302TIP3   OH215911   5.159   5.462   0.725 -0.9194  0.2247  0.3080
 5302TIP3    H115912   5.116   5.392   0.775 -0.4852 -0.2411  0.0380
 5302TIP3    H215913   5.125   5.543   0.763 -4.1534 -0.0550 -1.6354
 5303TIP3   OH215914   1.082   2.876   2.390  0.0976 -0.2065 -0.1813
 5303TIP3    H115915   0.990   2.904   2.389 -0.2459 -1.2715 -0.3080
 5303TIP3    H215916   1.120   2.923   2.464 -0.3873  0.7415 -0.5247
 5304TIP3   OH215917   4.907   4.893   1.845 -0.5379 -0.6417 -0.3356
 5304TIP3    H115918   4.997   4.863   1.861 -0.2778  0.2610 -0.0088
 5304TIP3    H215919   4.914   4.988   1.843 -1.1102 -0.5922 -2.6866
 5305TIP3   OH215920   3.289   3.713   2.721  0.0616 -0.1671  0.3073
 5305TIP3    H115921   3.252   3.627   2.698  0.0798 -0.3674  0.9989
 5305TIP3    H215922   3.295   3.711   2.817 -0.2912  0.7505  0.3560
 5306TIP3   OH215923   0.902   5.548   0.603  0.2893  1.0822  0.2744
 5306TIP3    H115924   0.950   5.517   0.526 -3.3052 -0.2942 -1.6524
 5306TIP3    H215925   0.876   5.468   0.649 -2.3594  1.4987 -0.3178
 5307TIP3   OH215926   6.106   0.177   3.278  0.1173 -0.5191  0.4976
 5307TIP3    H115927   6.085   0.248   3.339  2.1726 -1.0942  2.0190
 5307TIP3    H215928   6.194   0.199   3.246 -0.3116 -1.0331 -1.1120
 5308TIP3   OH215929   1.883   4.451   3.459  0.1800  0.1314 -0.2872
 5308TIP3    H115930   1.868   4.509   3.384 -0.8873  0.8187  0.4361
 5308TIP3    H215931   1.897   4.510   3.532 -0.2627 -0.5237  0.3419
 5309TIP3   OH215932   2.175   5.944   0.975  0.4275 -0.8616 -0.1938
 5309TIP3    H115933   2.207   5.926   0.887  0.6475 -1.7020  0.0526
 5309TIP3    H215934   2.154   5.858   1.012  1.0884 -0.5954  0.8479
 5310TIP3   OH215935   0.548   2.899   4.434  0.6707 -0.5429  0.3411
 5310TIP3    H115936   0.551   2.994   4.417  0.2305 -0.9326 -2.4849
 5310TIP3    H215937   0.466   2.886   4.482  0.6339  0.4837  0.5862
 5311TIP3   OH215938   2.339   0.507   4.677  0.4216  0.4612  0.7870
 5311TIP3    H115939   2.347   0.462   4.761 -0.4011 -0.5977  0.3332
 5311TIP3    H215940   2.425   0.496   4.635 -0.3622 -2.7848 -0.2611
 5312TIP3   OH215941   2.209   2.375   4.699  0.2356 -0.2354 -0.3430
 5312TIP3    H115942   2.134   2.381   4.640 -0.7173 -1.4435  0.6930
 5312TIP3    H215943   2.185   2.428   4.775 -0.0619 -1.5041  0.4689
 5313TIP3   OH215944   2.208   1.355   1.533  0.5540  0.0390 -0.4428
 5313TIP3    H115945   2.122   1.341   1.572  0.5270 -3.6764 -1.3920
 5313TIP3    H215946   2.260   1.394   1.602 -1.8302  2.5905  0.1014
 5314TIP3   OH215947   4.244   5.101   0.049  0.4371 -0.0524 -0.2980
 5314TIP3    H115948   4.296   5.167   0.004 -0.3713  0.3065 -0.7210
 5314TIP3    H215949   4.183   5.151   0.104  1.2793 -0.4808  1.0762
 5315TIP3   OH215950   5.526   1.269   0.891  0.2080 -0.0210 -0.1491
 5315TIP3    H115951   5.450   1.221   0.858 -0.8883  2.2445 -1.1197
 5315TIP3    H215952   5.491   1.324   0.961  1.0221  0.7364 -0.3253
 5316TIP3   OH215953   3.525   0.174   1.234 -0.5410  0.8556  0.3088
 5316TIP3    H115954   3.502   0.101   1.292 -1.1592  2.2358  1.8909
 5316TIP3    H215955   3.597   0.219   1.280 -0.0169  1.1167 -0.7455
 5317TIP3   OH215956   2.143   2.893   2.473 -0.1212  0.6963 -0.4897
 5317TIP3    H115957   2.131   2.956   2.401  1.1577  0.1646 -1.2059
 5317TIP3    H215958   2.238   2.879   2.477 -0.2843 -0.2834  0.4516
 5318TIP3   OH215959   0.032   1.451   2.951  0.4884  0.0931 -0.4686
 5318TIP3    H115960   0.113   1.400   2.941  0.3879 -0.1877  0.0739
 5318TIP3    H215961  -0.031   1.409   2.892  0.3414 -0.5638  0.1404
 5319TIP3   OH215962   4.224   4.824   4.642 -0.8638  0.3032  0.3373
 5319TIP3    H115963   4.218   4.919   4.639 -1.9437  0.3617  2.3156
 5319TIP3    H215964   4.151   4.793   4.588 -1.3574  0.6447  0.7942
 5320TIP3   OH215965   3.204   2.649   4.282  0.3184 -0.4086 -0.0799
 5320TIP3    H115966   3.291   2.614   4.303  0.7984 -0.1810 -1.5563
 5320TIP3    H215967   3.198   2.642   4.187 -1.7805 -1.5459  0.0694
 5321TIP3   OH215968   0.359   4.543   3.280 -0.4138 -0.2756 -0.0431
 5321TIP3    H115969   0.345   4.489   3.358 -1.9651  0.6446  0.3579
 5321TIP3    H215970   0.314   4.495   3.210  2.2950 -1.9062 -0.7939
 5322TIP3   OH215971   0.853   0.582   3.960 -0.7030  0.2031 -0.1155
 5322TIP3    H115972   0.817   0.496   3.982  0.6415 -0.1853  0.6633
 5322TIP3    H215973   0.935   0.562   3.915 -1.5037  1.0649 -2.0576
 5323TIP3   OH215974   4.410   1.373   3.011  0.2976  0.0890 -0.1304
 5323TIP3    H115975   4.323   1.366   3.049  0.0656  1.7383 -0.2738
 5323TIP3    H215976   4.411   1.309   2.940 -0.8266  0.1067 -0.1722
 5324TIP3   OH215977   2.087   5.844   5.098 -0.0533 -0.2193  0.6577
 5324TIP3    H115978   2.092   5.763   5.148  0.1578 -0.8047 -0.2748
 5324TIP3    H215979   2.021   5.897   5.144 -1.4297 -1.5940  0.3656
 5325TIP3   OH215980   3.653   4.574   0.462  0.4218  0.0047 -0.9163
 5325TIP3    H115981   3.604   4.510   0.513 -0.0440  1.1160  0.0980
 5325TIP3    H215982   3.688   4.525   0.388  1.1021 -1.6965  0.4570
 5326TIP3   OH215983   5.143   5.463   2.659  0.4223  0.4931 -0.7642
 5326TIP3    H115984   5.112   5.398   2.597 -0.5400  1.0165 -0.8534
 5326TIP3    H215985   5.230   5.487   2.629  0.3036  0.1136 -1.4093
 5327TIP3   OH215986   0.326   4.026   0.464 -0.6044 -0.2217 -0.4438
 5327TIP3    H115987   0.415   4.002   0.437 -0.4025  0.7242 -0.6671
 5327TIP3    H215988   0.320   3.996   0.555 -0.3109 -0.9226 -0.6470
 5328TIP3   OH215989   4.564   1.681   1.823 -0.2201 -0.0377  0.2423
 5328TIP3    H115990   4.640   1.648   1.776 -0.0996 -1.9890  1.6839
 5328TIP3    H215991   4.502   1.607   1.822 -0.6277  0.2366  2.1722
 5329TIP3   OH215992   4.469   4.553   5.032  0.2641  0.0590  0.0874
 5329TIP3    H115993   4.415   4.579   4.958 -1.2863  1.7182  1.7134
 5329TIP3    H215994   4.424   4.478   5.070  0.2706  0.1078  0.1916
 5330TIP3   OH215995   2.414   0.463   3.587 -0.5910  0.0235 -0.1638
 5330TIP3    H115996   2.378   0.485   3.673 -1.8476  1.2576 -0.9634
 5330TIP3    H215997   2.381   0.374   3.570  0.1655 -0.4781  0.8591
 5331TIP3   OH215998   1.344   2.792   0.047  0.1073  0.7950 -0.2957
 5331TIP3    H115999   1.424   2.844   0.052  0.3188  0.4057  0.4683
 5331TIP3    H216000   1.374   2.703   0.030 -0.2350  0.8474 -1.2367
 5332TIP3   OH216001   6.283   2.873   5.030  0.7093  0.5011 -0.5922
 5332TIP3    H116002   6.309   2.924   5.106 -0.4766  1.7714 -0.9990
 5332TIP3    H216003   6.231   2.801   5.066  1.6790  0.0280 -0.0884
 5333TIP3   OH216004   1.855   1.760   2.487 -0.0716 -0.1381 -0.1568
 5333TIP3    H116005   1.762   1.754   2.510 -0.4660 -0.6833 -1.7759
 5333TIP3    H216006   1.882   1.669   2.475  0.4986  0.0574 -0.3523
 5334TIP3   OH216007   0.447   3.654   3.125  0.2131 -0.9514  0.1221
 5334TIP3    H116008   0.500   3.581   3.157  0.7130 -0.2829  0.8670
 5334TIP3    H216009   0.486   3.678   3.041 -0.0989 -1.6744 -0.2395
 5335TIP3   OH216010   4.455   0.236   3.011  0.3034 -0.1642  0.2457
 5335TIP3    H116011   4.491   0.314   3.055 -1.3084  0.3593  0.7045
 5335TIP3    H216012   4.531   0.180   2.997  1.2732  0.8034  1.3515
 5336TIP3   OH216013   0.116   4.823   3.235  0.0052 -0.8162  0.6187
 5336TIP3    H116014   0.184   4.819   3.302  0.9958  0.0670 -0.3073
 5336TIP3    H216015   0.153   4.775   3.160 -0.0483  0.3397 -0.1696
 5337TIP3   OH216016   4.786   0.246   2.779 -0.0216 -0.2500 -0.3247
 5337TIP3    H116017   4.861   0.218   2.726  0.0220 -1.2880  0.2497
 5337TIP3    H216018   4.742   0.313   2.726  1.5065  0.6393 -0.5077
 5338TIP3   OH216019   4.054   0.861   1.992  0.2176  0.1689 -0.2380
 5338TIP3    H116020   4.048   0.908   1.909  1.9382  0.4348 -0.2544
 5338TIP3    H216021   4.023   0.924   2.057  1.2425  0.8855 -0.4171
 5339TIP3   OH216022   3.101   0.759   3.165  0.1318  0.8624  0.0344
 5339TIP3    H116023   3.193   0.775   3.189  0.2027  0.1226  0.2692
 5339TIP3    H216024   3.052   0.826   3.213  0.4724  0.7060  0.6123
 5340TIP3   OH216025   1.962   4.445   2.835 -0.1665 -0.0423 -0.0769
 5340TIP3    H116026   1.915   4.407   2.761  0.7065 -0.4123 -0.4512
 5340TIP3    H216027   1.895   4.455   2.903 -0.9560  0.2081 -0.8742
 5341TIP3   OH216028   1.697   3.054   5.050 -0.3316 -0.5614  0.5809
 5341TIP3    H116029   1.707   3.143   5.016  0.5417 -1.4536 -1.7278
 5341TIP3    H216030   1.723   2.998   4.977  0.0987 -2.7142  2.2936
 5342TIP3   OH216031   4.957   0.337   4.366  0.4521 -0.3920 -0.2893
 5342TIP3    H116032   5.029   0.285   4.402 -0.0380 -1.1795 -0.4319
 5342TIP3    H216033   4.895   0.272   4.333  0.2034  0.2944 -1.2069
 5343TIP3   OH216034   6.279   1.741   1.149 -0.3623 -0.0358 -0.0792
 5343TIP3    H116035   6.222   1.814   1.124  0.4594  0.8205  0.5130
 5343TIP3    H216036   6.257   1.672   1.086 -0.1449  1.2000 -1.5827
 5344TIP3   OH216037   1.411   3.959   3.880 -0.3405  0.0518  0.3435
 5344TIP3    H116038   1.435   4.018   3.951 -0.1595 -0.2349  0.5196
 5344TIP3    H216039   1.340   4.005   3.834 -0.8164 -0.0019  1.0221
 5345TIP3   OH216040   3.964   5.262   0.438 -0.2239 -0.0532  0.3012
 5345TIP3    H116041   4.055   5.281   0.461 -0.8075  0.6866  2.2086
 5345TIP3    H216042   3.967   5.177   0.395  1.5295  0.6456 -1.0561
 5346TIP3   OH216043   3.920   3.562   1.132 -0.5146  0.1492  0.3270
 5346TIP3    H116044   3.859   3.489   1.126 -0.8294  0.3047  1.3653
 5346TIP3    H216045   3.864   3.640   1.135 -0.1597  0.5042 -1.5099
 5347TIP3   OH216046   0.242   3.912   3.150 -0.3558 -0.4884  0.1704
 5347TIP3    H116047   0.334   3.891   3.137 -0.4521 -0.1490 -1.3176
 5347TIP3    H216048   0.231   3.920   3.244  1.7911  2.3995  0.2715
 5348TIP3   OH216049   5.664   2.373   1.292 -0.2234 -0.3618 -0.0520
 5348TIP3    H116050   5.594   2.334   1.239 -0.4127 -0.4320  0.2407
 5348TIP3    H216051   5.653   2.467   1.280 -0.6320 -0.3560  0.3110
 5349TIP3   OH216052   5.147   1.153   4.236  0.5659 -0.4216  0.0822
 5349TIP3    H116053   5.183   1.162   4.325  0.3820 -1.2781  0.2554
 5349TIP3    H216054   5.209   1.095   4.191  0.2822 -0.5689 -0.1249
 5350TIP3   OH216055   1.449   3.427   4.320 -0.3937 -0.0257  0.1815
 5350TIP3    H116056   1.387   3.489   4.282 -0.7697 -0.2636  0.4031
 5350TIP3    H216057   1.532   3.445   4.275 -1.0227 -0.8893 -1.3746
 5351TIP3   OH216058   1.058   1.634   1.561  0.2370 -0.1271 -0.0960
 5351TIP3    H116059   1.091   1.545   1.572 -0.1100 -0.6704 -2.7862
 5351TIP3    H216060   0.966   1.623   1.538 -0.5482  1.1202  2.1585
 5352TIP3   OH216061   5.614   3.375   5.150 -0.1909 -1.0807  0.2485
 5352TIP3    H116062   5.557   3.434   5.102 -0.2561  0.1951  1.8286
 5352TIP3    H216063   5.637   3.423   5.229  1.0215 -2.5744  0.8415
 5353TIP3   OH216064   2.047   5.777   2.610 -0.2719 -0.3868 -0.0147
 5353TIP3    H116065   2.098   5.727   2.546  0.5337  1.5908 -1.0113
 5353TIP3    H216066   2.104   5.850   2.635 -1.4626  0.1789  1.2201
 5354TIP3   OH216067   1.608   4.408   2.410  0.0497 -0.6039 -0.5532
 5354TIP3    H116068   1.644   4.488   2.448 -1.3867  0.2689 -0.9512
 5354TIP3    H216069   1.676   4.379   2.348  1.3654 -0.7243  0.8869
 5355TIP3   OH216070   2.727   2.331   0.761  0.2810  0.1563 -0.0764
 5355TIP3    H116071   2.640   2.353   0.795 -0.8129 -1.5400 -1.5676
 5355TIP3    H216072   2.728   2.368   0.673  0.5318 -0.9824 -0.5613
 5356TIP3   OH216073   2.112   3.468   2.677  0.1487 -0.4061 -0.9499
 5356TIP3    H116074   2.021   3.500   2.681  0.4040  0.7623 -2.9202
 5356TIP3    H216075   2.164   3.540   2.711  0.4863  0.0134 -2.2791
 5357TIP3   OH216076   0.438   1.344   1.349 -0.5441  0.2212 -0.4747
 5357TIP3    H116077   0.412   1.363   1.259 -1.7906  0.6635 -0.0394
 5357TIP3    H216078   0.422   1.250   1.360 -2.6485  0.5729 -0.0451
 5358TIP3   OH216079   1.304   3.831   2.450  0.1734  0.6110  0.0522
 5358TIP3    H116080   1.253   3.777   2.389 -0.2971 -0.1628  1.1049
 5358TIP3    H216081   1.242   3.854   2.519  1.0731  0.2662  0.9904
 5359TIP3   OH216082   1.714   1.402   0.595  0.4653 -0.3647 -0.0521
 5359TIP3    H116083   1.634   1.452   0.609 -0.2789 -1.6900  0.5995
 5359TIP3    H216084   1.725   1.400   0.500  0.6424  1.1897 -0.0909
 5360TIP3   OH216085   3.855   0.858   1.091 -0.5243 -0.3678 -0.1901
 5360TIP3    H116086   3.920   0.787   1.082  0.7360  0.6097  0.7737
 5360TIP3    H216087   3.817   0.867   1.003  2.1083  0.3450 -1.3711
 5361TIP3   OH216088   3.783   1.827   1.151 -0.4088  0.0824  0.0520
 5361TIP3    H116089   3.836   1.860   1.224 -0.1154 -0.1921 -0.0327
 5361TIP3    H216090   3.692   1.838   1.181 -0.2966  0.1246  0.3899
 5362TIP3   OH216091   4.611   1.898   0.884  0.5279 -0.9509  0.2597
 5362TIP3    H116092   4.581   1.988   0.892  1.3699 -0.5163 -1.0133
 5362TIP3    H216093   4.533   1.845   0.894 -0.4766  0.0687 -1.6198
 5363TIP3   OH216094   5.058   2.335   1.556 -0.2169 -0.2352  0.2754
 5363TIP3    H116095   5.145   2.339   1.518 -0.1524  1.4715  0.4983
 5363TIP3    H216096   5.023   2.250   1.529  0.6909 -0.0477 -1.6450
 5364TIP3   OH216097   0.047   3.221   3.658  0.0764 -0.1468 -0.1946
 5364TIP3    H116098   0.055   3.166   3.580  0.7127 -0.7969  0.3079
 5364TIP3    H216099   0.069   3.309   3.628 -1.0398 -0.1403 -1.0303
 5365TIP3   OH216100   2.548   1.354   1.720  0.6445 -0.4150 -0.2478
 5365TIP3    H116101   2.536   1.334   1.627 -2.5663  0.3499 -0.1205
 5365TIP3    H216102   2.524   1.273   1.765  0.8196 -0.3620 -0.0602
 5366TIP3   OH216103   4.987   5.198   0.953 -0.1360 -0.0271 -0.1802
 5366TIP3    H116104   4.962   5.123   1.006  1.8812  0.5690  1.7804
 5366TIP3    H216105   4.914   5.211   0.893 -1.4407 -2.2492  0.8212
 5367TIP3   OH216106   1.526   3.724   3.057 -0.1610 -0.4786 -0.5384
 5367TIP3    H116107   1.579   3.656   3.098  0.1908 -0.8754 -1.6053
 5367TIP3    H216108   1.453   3.677   3.017 -1.7024  0.1206  1.4293
 5368TIP3   OH216109   5.418   1.294   2.149 -0.4415 -0.4589  0.5194
 5368TIP3    H116110   5.352   1.309   2.216 -0.7058  0.0083  0.1672
 5368TIP3    H216111   5.497   1.337   2.182  0.0097 -1.9365  1.4320
 5369TIP3   OH216112   1.153   2.685   1.076 -0.6251  0.2873  0.0249
 5369TIP3    H116113   1.152   2.633   0.995 -0.1228  1.3250 -0.6716
 5369TIP3    H216114   1.146   2.776   1.046  0.4916  0.7544  1.0900
 5370TIP3   OH216115   5.193   4.214   1.416 -0.0602 -0.7219 -0.0530
 5370TIP3    H116116   5.286   4.223   1.396 -0.0604  1.8791  0.7125
 5370TIP3    H216117   5.151   4.284   1.367 -0.9829  1.0581  2.9693
 5371TIP3   OH216118   0.334   4.424   2.919 -0.1771  0.2992  0.0001
 5371TIP3    H116119   0.403   4.442   2.855  1.0199  1.6871  1.6129
 5371TIP3    H216120   0.375   4.367   2.983 -1.0153 -0.1269  0.1644
 5372TIP3   OH216121   4.018   1.890   0.731 -0.0152  0.2158  0.2604
 5372TIP3    H116122   3.960   1.937   0.672  1.9885 -0.6634 -2.6324
 5372TIP3    H216123   4.101   1.883   0.684  0.6699 -3.7801  1.6065
 5373TIP3   OH216124   2.162   0.096   1.550  0.0470 -0.6619 -0.4395
 5373TIP3    H116125   2.237   0.053   1.509 -0.3104 -2.7690  0.9604
 5373TIP3    H216126   2.164   0.067   1.641 -1.2569  0.9503  0.1504
 5374TIP3   OH216127   5.409   5.496   2.560  0.4105  0.2531  0.0051
 5374TIP3    H116128   5.419   5.405   2.533  0.0858  0.1590  0.2011
 5374TIP3    H216129   5.410   5.546   2.478  2.6370  0.2797 -0.0106
 5375TIP3   OH216130   4.523   2.217   1.646  0.6850 -0.0626  0.2626
 5375TIP3    H116131   4.482   2.206   1.731 -1.0996  1.5350 -0.3240
 5375TIP3    H216132   4.551   2.309   1.644  0.2676  0.0629 -1.0216
 5376TIP3   OH216133   5.847   0.899   0.558 -0.0944 -0.5088 -0.0213
 5376TIP3    H116134   5.769   0.861   0.600 -0.0427  2.1731  2.8913
 5376TIP3    H216135   5.919   0.843   0.587 -0.2743  0.3698  2.3977
 5377TIP3   OH216136   2.050   3.483   1.261  0.2746  0.3993  0.1078
 5377TIP3    H116137   2.042   3.391   1.238  0.0621  0.3340  0.4363
 5377TIP3    H216138   2.054   3.483   1.357  1.5461  0.6242  0.0777
 5378TIP3   OH216139   5.388   0.629   2.863 -0.0206  0.0739  0.1071
 5378TIP3    H116140   5.345   0.663   2.785  0.5218 -0.6021 -0.4956
 5378TIP3    H216141   5.333   0.555   2.890 -0.4605  0.5900  0.6355
 5379TIP3   OH216142   4.933   3.034   0.960  0.1772 -0.3111 -0.3830
 5379TIP3    H116143   4.862   3.080   1.005  0.4344  0.4689 -0.7536
 5379TIP3    H216144   4.893   2.952   0.930 -0.0046 -0.8426  1.1980
 5380TIP3   OH216145   4.283   4.570   2.360 -0.4907  0.3990 -0.1314
 5380TIP3    H116146   4.226   4.559   2.283 -0.2545 -1.1554 -0.1183
 5380TIP3    H216147   4.351   4.503   2.349 -0.4548  0.1376  1.4325
 5381TIP3   OH216148   5.877   0.385   2.552  0.0461  0.0441 -0.5530
 5381TIP3    H116149   5.969   0.397   2.528 -0.1886  0.9735 -1.0243
 5381TIP3    H216150   5.837   0.343   2.475 -0.0452  0.1507 -0.5635
 5382TIP3   OH216151   3.333   1.518   0.209  0.3415 -0.3788  0.3335
 5382TIP3    H116152   3.242   1.542   0.226  0.1612 -1.1398  0.4708
 5382TIP3    H216153   3.384   1.582   0.257 -0.0084  2.7312 -3.0470
 5383TIP3   OH216154   5.903   5.722   3.737 -0.0762  0.2405  0.3704
 5383TIP3    H116155   5.997   5.741   3.733 -0.1230  0.7140  1.3231
 5383TIP3    H216156   5.875   5.753   3.823 -0.9186 -0.8022  0.4962
 5384TIP3   OH216157   3.444   4.776   1.168 -0.4671  0.3184  0.2751
 5384TIP3    H116158   3.416   4.747   1.081  0.7062  0.1487 -0.0580
 5384TIP3    H216159   3.374   4.746   1.227 -1.6023  1.0067 -0.6744
 5385TIP3   OH216160   0.960   0.560   4.266 -0.5507  0.0800  0.1177
 5385TIP3    H116161   0.889   0.621   4.285 -1.4496 -0.3145 -1.7816
 5385TIP3    H216162   0.917   0.485   4.224  0.9679 -0.2440 -0.9350
 5386TIP3   OH216163   1.606   1.361   3.820 -0.4646 -0.5862 -0.0951
 5386TIP3    H116164   1.641   1.400   3.900 -1.4191  0.7516 -0.2824
 5386TIP3    H216165   1.521   1.403   3.809 -1.0223 -1.8912 -0.9934
 5387TIP3   OH216166   4.761   3.545   1.433 -0.1771 -0.3358 -0.5376
 5387TIP3    H116167   4.786   3.454   1.419  0.2810 -0.0033 -2.1344
 5387TIP3    H216168   4.832   3.582   1.485  1.1237 -0.2244 -2.2781
 5388TIP3   OH216169   3.739   4.868   2.472 -0.0290  0.2551  0.4248
 5388TIP3    H116170   3.655   4.906   2.444 -0.1429  0.8009  1.4605
 5388TIP3    H216171   3.789   4.943   2.503  0.8018 -0.0897 -0.0638
 5389TIP3   OH216172   4.943   0.857   3.551  0.5355  0.2685  0.8386
 5389TIP3    H116173   4.898   0.878   3.632 -1.0389 -0.7048  0.2600
 5389TIP3    H216174   4.997   0.780   3.573  0.4563  0.2781  1.0673
 5390TIP3   OH216175   0.189   3.388   2.928  0.3444  0.2456 -0.3981
 5390TIP3    H116176   0.217   3.461   2.982  0.7342  0.5770 -1.0484
 5390TIP3    H216177   0.152   3.428   2.849 -0.5949 -0.2201 -0.2211
 5391TIP3   OH216178   1.758   5.747   0.256 -0.2641  0.0948  0.7111
 5391TIP3    H116179   1.721   5.828   0.291  0.1397 -0.4163  2.4066
 5391TIP3    H216180   1.851   5.751   0.278 -0.1807 -0.6942  0.5313
 5392TIP3   OH216181   1.945   1.299   1.987  0.1504  0.5768  0.4608
 5392TIP3    H116182   1.885   1.269   1.918 -1.2908  0.1461  1.8389
 5392TIP3    H216183   1.919   1.390   2.002 -1.6310 -0.1853  2.4586
 5393TIP3   OH216184   5.545   0.791   4.954  0.2314 -0.0249 -0.1376
 5393TIP3    H116185   5.551   0.869   5.009  0.2261  0.1266 -0.3505
 5393TIP3    H216186   5.492   0.730   5.005  2.2637 -0.8222  1.1071
 5394TIP3   OH216187   4.763   5.654   4.470  0.0018  0.0762 -0.2466
 5394TIP3    H116188   4.798   5.743   4.459  2.0750 -0.5229  1.0329
 5394TIP3    H216189   4.716   5.657   4.554 -1.0349  0.2619 -0.8177
 5395TIP3   OH216190   5.885   5.359   4.310 -0.1877  0.5247 -0.3154
 5395TIP3    H116191   5.953   5.421   4.336 -0.6600  0.2979  1.5850
 5395TIP3    H216192   5.929   5.274   4.306 -0.2847  0.4142  0.6998
 5396TIP3   OH216193   4.777   3.254   0.876  0.5346  0.0347 -0.1565
 5396TIP3    H116194   4.762   3.196   0.801  1.4091  1.6201 -1.6360
 5396TIP3    H216195   4.701   3.312   0.877  0.2997 -0.2806  0.4877
 5397TIP3   OH216196   3.903   2.793   1.619 -0.2314 -0.1298 -0.7117
 5397TIP3    H116197   3.907   2.698   1.605  3.6359 -0.0991 -0.9516
 5397TIP3    H216198   3.815   2.818   1.590 -0.7801 -3.3733 -2.3360
 5398TIP3   OH216199   6.221   2.379   4.865  0.3398 -0.1644  0.1933
 5398TIP3    H116200   6.296   2.324   4.845  1.6724  2.0368 -1.3850
 5398TIP3    H216201   6.243   2.420   4.948  0.4552 -0.2628  0.2113
 5399TIP3   OH216202   2.095   4.848   1.708 -0.5275  0.5930 -0.2110
 5399TIP3    H116203   2.182   4.862   1.746 -0.5865  0.0075  0.1505
 5399TIP3    H216204   2.100   4.890   1.622  0.9413 -1.5634 -1.2705
 5400TIP3   OH216205   1.371   5.890   1.769 -0.5697  0.2279 -0.9585
 5400TIP3    H116206   1.418   5.845   1.699 -0.8764  0.2799 -1.1992
 5400TIP3    H216207   1.363   5.824   1.838  0.5323  0.4456 -0.5983
 5401TIP3   OH216208   4.204   3.929   0.624 -0.4307 -0.1126 -0.3803
 5401TIP3    H116209   4.228   3.871   0.696  0.7741  1.0960  0.2526
 5401TIP3    H216210   4.186   3.871   0.550  1.5149 -1.2739 -0.0064
 5402TIP3   OH216211   0.614   2.454   0.422 -0.0797  0.0846  0.2813
 5402TIP3    H116212   0.613   2.424   0.513 -1.5818  0.1403  0.3118
 5402TIP3    H216213   0.668   2.532   0.423 -1.7575  1.3114  1.5759
 5403TIP3   OH216214   4.439   5.227   2.378  0.3127  0.6264 -0.1815
 5403TIP3    H116215   4.376   5.217   2.450 -0.1161 -1.2356 -0.7780
 5403TIP3    H216216   4.477   5.314   2.392 -2.1940  1.7233  0.3435
 5404TIP3   OH216217   0.312   0.252   2.607  0.4126 -0.0194 -0.5750
 5404TIP3    H116218   0.253   0.236   2.681  1.6776  0.6667  0.6165
 5404TIP3    H216219   0.256   0.293   2.541 -0.8156 -0.9424 -0.1567
 5405TIP3   OH216220   5.995   0.997   3.975 -0.0509  0.3709  0.0588
 5405TIP3    H116221   5.924   1.048   3.936  0.6356  0.2874 -1.3677
 5405TIP3    H216222   6.061   1.062   4.000 -0.0270  0.3396  0.0775
 5406TIP3   OH216223   4.811   2.838   0.783  0.4951  0.4731 -0.4904
 5406TIP3    H116224   4.759   2.905   0.738  0.2627  0.4988 -0.1884
 5406TIP3    H216225   4.747   2.782   0.825  0.5830 -1.1820 -2.4109
 5407TIP3   OH216226   5.650   5.187   4.447 -0.1838 -0.1670 -0.2004
 5407TIP3    H116227   5.668   5.095   4.464  1.1604  0.4800  2.3823
 5407TIP3    H216228   5.560   5.200   4.474  0.0148 -0.4703  0.6150
 5408TIP3   OH216229   5.324   5.897   0.408 -0.2364  0.0385  0.7081
 5408TIP3    H116230   5.402   5.888   0.354  1.2328  2.6861  2.2077
 5408TIP3    H216231   5.351   5.868   0.495 -0.8164  1.2380  1.3121
 5409TIP3   OH216232   0.609   3.339   1.482  0.0989  0.7668 -0.2382
 5409TIP3    H116233   0.627   3.337   1.576 -0.1140  1.8380 -0.1573
 5409TIP3    H216234   0.590   3.248   1.458  2.1502  0.1355  0.3507
 5410TIP3   OH216235   1.775   3.119   0.622 -0.7928 -0.2075 -0.1340
 5410TIP3    H116236   1.698   3.067   0.602 -0.3576 -0.5794 -0.8826
 5410TIP3    H216237   1.841   3.091   0.558  0.4389 -0.9472  1.3849
 5411TIP3   OH216238   3.975   3.104   3.378  0.5385 -0.0411 -0.4269
 5411TIP3    H116239   3.992   3.011   3.359 -2.0149 -0.5113 -0.9077
 5411TIP3    H216240   3.888   3.104   3.419  0.2831  2.1785 -0.8456
 5412TIP3   OH216241   2.849   4.724   0.752  0.0067  0.2989  0.4820
 5412TIP3    H116242   2.865   4.671   0.830 -1.1337 -1.2242 -0.2769
 5412TIP3    H216243   2.892   4.676   0.681 -1.5204  0.0462 -0.3127
 5413TIP3   OH216244   5.208   0.366   3.841 -0.1691  0.5650 -0.6059
 5413TIP3    H116245   5.168   0.297   3.788 -0.5553 -0.6748  1.2420
 5413TIP3    H216246   5.287   0.326   3.878 -0.3824  1.1156  0.4786
 5414TIP3   OH216247   3.729   2.869   4.744 -0.0058  0.4898  0.2752
 5414TIP3    H116248   3.643   2.856   4.703  0.7017 -1.2753 -0.7537
 5414TIP3    H216249   3.753   2.958   4.719  0.2055 -0.3386 -2.9642
 5415TIP3   OH216250   6.247   5.757   2.092  0.3525 -0.3885  0.1679
 5415TIP3    H116251   6.185   5.822   2.059 -0.1545  0.5227  2.6693
 5415TIP3    H216252   6.323   5.809   2.119  1.9128 -1.3996 -1.9991
 5416TIP3   OH216253   5.896   4.482   2.400  0.3787 -0.0795  0.3326
 5416TIP3    H116254   5.816   4.496   2.450 -1.7419 -0.6556 -2.6246
 5416TIP3    H216255   5.912   4.388   2.405  0.8630  0.0256  0.8640
 5417TIP3   OH216256   5.769   4.871   4.841 -0.4142 -0.4768  0.1785
 5417TIP3    H116257   5.704   4.844   4.906  0.0977  0.4313  1.1078
 5417TIP3    H216258   5.784   4.793   4.788 -0.7944 -1.2828  1.2115
 5418TIP3   OH216259   2.975   1.362   3.258 -0.1468 -0.2625  0.3973
 5418TIP3    H116260   2.883   1.337   3.249 -0.7422  0.9109  2.5277
 5418TIP3    H216261   2.985   1.440   3.204 -0.5392 -0.1362  0.5030
 5419TIP3   OH216262   0.637   3.440   3.132  0.3861 -0.4742 -0.0546
 5419TIP3    H116263   0.684   3.393   3.201 -0.5104 -1.6089 -0.1806
 5419TIP3    H216264   0.578   3.375   3.095 -1.4092  0.9363  0.2075
 5420TIP3   OH216265   1.551   5.184   2.621  0.4357  0.1530  0.1595
 5420TIP3    H116266   1.539   5.271   2.582  1.2618 -0.3419 -1.2733
 5420TIP3    H216267   1.559   5.201   2.715  0.0536  1.5691 -0.0344
 5421TIP3   OH216268   3.404   5.703   2.759 -0.1552  0.5993  0.6268
 5421TIP3    H116269   3.449   5.778   2.798  1.5312 -0.7253  1.3418
 5421TIP3    H216270   3.350   5.669   2.829  0.4172  0.1200  0.8383
 5422TIP3   OH216271   5.036   2.317   2.272 -0.3656  0.3873  0.7304
 5422TIP3    H116272   5.085   2.284   2.196  1.0415 -1.0135  2.1701
 5422TIP3    H216273   4.962   2.257   2.280 -1.1100  1.1624 -0.1143
 5423TIP3   OH216274   3.518   1.930   0.970  0.1577  0.1942  0.1544
 5423TIP3    H116275   3.600   1.883   0.956 -1.1991 -1.9874 -1.0512
 5423TIP3    H216276   3.471   1.878   1.035 -0.0697  1.7737  1.3192
 5424TIP3   OH216277   3.239   5.705   1.334 -0.2980  0.3482 -0.2437
 5424TIP3    H116278   3.181   5.659   1.272 -2.9802  0.8147  1.7520
 5424TIP3    H216279   3.312   5.735   1.280  0.7209 -4.4697 -2.0719
 5425TIP3   OH216280   3.940   5.829   0.805  0.0206 -0.0658  0.1175
 5425TIP3    H116281   3.907   5.901   0.750 -0.1438 -0.1323  0.1301
 5425TIP3    H216282   3.883   5.830   0.882 -0.5577 -0.7800 -0.2830
 5426TIP3   OH216283   0.064   1.442   1.116  0.5350 -0.4679 -0.1307
 5426TIP3    H116284   0.062   1.448   1.020 -1.0113 -2.5881 -0.2759
 5426TIP3    H216285  -0.025   1.461   1.144  1.1274  0.8639  0.9956
 5427TIP3   OH216286   5.666   0.091   3.481 -0.0918  0.2943  0.1664
 5427TIP3    H116287   5.678   0.052   3.395 -2.3362  0.8981 -0.4804
 5427TIP3    H216288   5.656   0.185   3.465  3.6461  1.0799  1.5480
 5428TIP3   OH216289   5.815   4.156   4.113 -0.3822 -0.0997  0.0633
 5428TIP3    H116290   5.758   4.232   4.102 -2.2002 -1.6299 -1.5469
 5428TIP3    H216291   5.893   4.177   4.061 -0.3707  1.0956  0.5266
 5429TIP3   OH216292   3.221   4.699   1.312 -0.0234 -0.0930 -0.1359
 5429TIP3    H116293   3.126   4.717   1.310 -0.2239 -1.1417 -1.7828
 5429TIP3    H216294   3.227   4.605   1.330  0.7184 -0.0091  0.0687
 5430TIP3   OH216295   1.833   2.478   1.993  0.3186 -0.1598  0.0848
 5430TIP3    H116296   1.836   2.398   2.046 -0.1444  0.2038  0.6867
 5430TIP3    H216297   1.895   2.537   2.036  1.3758 -0.5093 -0.9183
 5431TIP3   OH216298   3.325   1.742   3.598 -0.3757  0.2494 -0.4893
 5431TIP3    H116299   3.387   1.720   3.528  0.4436  0.9647  0.0027
 5431TIP3    H216300   3.376   1.735   3.679 -1.3857 -0.8522  0.0917
 5432TIP3   OH216301   5.813   3.857   0.341 -0.0123  0.0034 -0.9618
 5432TIP3    H116302   5.773   3.814   0.417 -1.1702 -1.0412 -2.1142
 5432TIP3    H216303   5.906   3.863   0.363 -0.5232  1.1572  1.1782
 5433TIP3   OH216304   0.951   3.669   1.162 -0.6781  0.1087  0.3153
 5433TIP3    H116305   0.916   3.588   1.198 -0.0238 -0.4607 -0.2996
 5433TIP3    H216306   1.029   3.688   1.214 -1.2955  0.8245  1.0164
 5434TIP3   OH216307   1.878   0.935   4.336 -0.0463  0.2821 -0.2053
 5434TIP3    H116308   1.924   1.010   4.300  0.5014  0.0477 -0.0063
 5434TIP3    H216309   1.907   0.861   4.282 -0.7066  0.2354 -0.5062
 5435TIP3   OH216310   1.775   5.725   1.526  0.4151  0.2713  0.1410
 5435TIP3    H116311   1.784   5.711   1.620 -1.4124 -0.7981  0.1862
 5435TIP3    H216312   1.797   5.641   1.486 -3.1848 -0.7487 -0.0468
 5436TIP3   OH216313   6.106   0.177   0.515  0.6392 -0.3704 -0.9983
 5436TIP3    H116314   6.120   0.149   0.424 -0.7485  0.5398 -1.5359
 5436TIP3    H216315   6.098   0.272   0.509  0.6772 -0.2887  0.1007
 5437TIP3   OH216316   3.325   2.917   4.751 -0.3578 -0.1268  0.4805
 5437TIP3    H116317   3.329   2.890   4.842 -0.8697 -1.5331  0.1232
 5437TIP3    H216318   3.258   2.860   4.712  1.4867 -1.2401 -1.2865
 5438TIP3   OH216319   4.592   0.443   3.102  0.0225 -0.5403  0.2613
 5438TIP3    H116320   4.676   0.423   3.142 -0.4295  0.1087  1.6099
 5438TIP3    H216321   4.611   0.514   3.040  0.3098  0.4774  1.4563
 5439TIP3   OH216322   1.856   3.445   4.682  0.2802 -0.1797 -0.6791
 5439TIP3    H116323   1.808   3.390   4.745 -0.9516  0.6627 -0.8494
 5439TIP3    H216324   1.945   3.409   4.682 -0.6640 -2.7734 -1.4543
 5440TIP3   OH216325   4.585   4.833   3.214  0.3210  0.2336  0.2220
 5440TIP3    H116326   4.605   4.744   3.242 -0.6773  0.1756  0.8245
 5440TIP3    H216327   4.489   4.835   3.208  0.3060  1.3543  0.5331
 5441TIP3   OH216328   6.014   2.458   2.813  0.4434  0.2946  0.9708
 5441TIP3    H116329   5.998   2.386   2.752  0.0202 -0.1940  1.6493
 5441TIP3    H216330   6.084   2.426   2.869  1.2677  0.9897  0.3585
 5442TIP3   OH216331   3.390   2.633   2.455  0.1522 -0.7632  0.5865
 5442TIP3    H116332   3.378   2.544   2.490  1.6990 -0.8319  1.0467
 5442TIP3    H216333   3.476   2.660   2.489  1.1280 -0.2929 -2.0322
 5443TIP3   OH216334   6.326   4.587   1.839  0.4636  0.1467  0.2129
 5443TIP3    H116335   6.416   4.577   1.809 -0.4065  0.6013 -2.9366
 5443TIP3    H216336   6.321   4.678   1.869  0.7078  0.6340 -1.1436
 5444TIP3   OH216337   0.933   1.865   3.765  0.4629 -0.4147 -0.0090
 5444TIP3    H116338   0.942   1.778   3.802 -0.7286 -0.4981  0.1368
 5444TIP3    H216339   0.985   1.922   3.822 -0.1105 -0.7753  0.8868
 5445TIP3   OH216340   2.237   5.958   0.669  0.4121 -0.1873  0.1232
 5445TIP3    H116341   2.285   6.018   0.613 -0.3635  0.7839  0.4803
 5445TIP3    H216342   2.160   5.933   0.617 -1.4281  2.3529  1.4629
 5446TIP3   OH216343   0.425   5.741   3.174 -0.4959  0.8831  0.4492
 5446TIP3    H116344   0.447   5.831   3.152  0.4963  0.0724 -2.3568
 5446TIP3    H216345   0.498   5.690   3.138 -1.9587 -1.1735  0.2515
 5447TIP3   OH216346   4.946   5.122   3.484 -0.3363 -0.1837  0.3603
 5447TIP3    H116347   5.003   5.045   3.480 -1.1852 -0.9171  1.5654
 5447TIP3    H216348   4.878   5.106   3.418 -0.7279 -0.6671  0.8724
 5448TIP3   OH216349   1.585   4.422   4.445  0.1509 -0.4958 -0.1747
 5448TIP3    H116350   1.678   4.425   4.469  0.0170 -1.1908  0.4669
 5448TIP3    H216351   1.585   4.429   4.349  0.8337 -0.0488 -0.1514
 5449TIP3   OH216352   2.889   4.398   2.419  0.1408 -0.4933 -0.4516
 5449TIP3    H116353   2.858   4.401   2.328  0.0937  2.0902 -0.4062
 5449TIP3    H216354   2.810   4.387   2.471 -0.0311 -0.1096 -0.6309
 5450TIP3   OH216355   4.486   3.205   3.135  0.3748 -0.0663 -0.2090
 5450TIP3    H116356   4.518   3.124   3.095  1.0731 -0.1732  0.5360
 5450TIP3    H216357   4.523   3.204   3.223  1.7113  1.8156 -0.6823
 5451TIP3   OH216358   3.573   5.824   1.753  0.2784  0.2375 -0.1728
 5451TIP3    H116359   3.598   5.736   1.782 -1.4653  0.1130  1.1154
 5451TIP3    H216360   3.537   5.811   1.665  1.1477 -0.1354 -0.4857
 5452TIP3   OH216361   0.507   3.732   0.742 -0.0528 -0.7322 -0.3160
 5452TIP3    H116362   0.530   3.658   0.798  3.7142  0.5769  0.1800
 5452TIP3    H216363   0.585   3.745   0.687 -0.9060  2.2878 -0.9929
 5453TIP3   OH216364   1.339   2.417   2.625  0.0635  0.0096 -0.2269
 5453TIP3    H116365   1.320   2.418   2.531  1.8768  0.6875 -0.6320
 5453TIP3    H216366   1.427   2.454   2.632  0.2049 -0.5750  1.6954
 5454TIP3   OH216367   1.050   4.276   3.515  0.1634 -0.5748  0.0326
 5454TIP3    H116368   0.993   4.273   3.592 -0.5902 -0.4199 -0.5054
 5454TIP3    H216369   0.992   4.301   3.443  1.2263  1.2298 -0.2582
 5455TIP3   OH216370   4.008   2.981   4.143  0.0146  0.0029  0.2736
 5455TIP3    H116371   4.037   3.049   4.204 -0.3211 -0.0597  0.5040
 5455TIP3    H216372   4.056   2.903   4.171  0.2404  0.0923  0.1415
 5456TIP3   OH216373   4.874   5.871   1.968 -0.0646  0.0291 -0.2280
 5456TIP3    H116374   4.865   5.880   1.873  0.0855  0.3642 -0.2125
 5456TIP3    H216375   4.894   5.779   1.982  0.5183  0.1008 -0.5724
 5457TIP3   OH216376   1.275   3.162   1.272  0.1838  0.0052 -0.1035
 5457TIP3    H116377   1.260   3.087   1.330  0.1423 -1.3272 -1.7714
 5457TIP3    H216378   1.343   3.132   1.211 -0.8945  0.7670 -1.7501
 5458TIP3   OH216379   0.593   2.196   0.314  0.0141  0.5981 -0.0358
 5458TIP3    H116380   0.623   2.155   0.396 -0.6922  0.8226  0.3432
 5458TIP3    H216381   0.599   2.290   0.331  0.0362  0.6459 -0.3116
 5459TIP3   OH216382   3.695   4.211   0.079 -0.2175 -0.0977 -0.1830
 5459TIP3    H116383   3.774   4.164   0.107  0.3203  0.1811 -1.1785
 5459TIP3    H216384   3.682   4.184  -0.012 -1.7446 -0.7521  0.1917
 5460TIP3   OH216385   0.225   5.593   4.137 -0.5897  0.7734  0.4551
 5460TIP3    H116386   0.281   5.531   4.184 -0.8815  0.6120  0.6017
 5460TIP3    H216387   0.249   5.584   4.045 -0.0106  1.0908  0.5711
 5461TIP3   OH216388   1.929   1.928   2.004  0.2943  0.4112  0.4796
 5461TIP3    H116389   1.958   1.907   2.093  0.3686 -1.0502  0.1423
 5461TIP3    H216390   1.870   1.857   1.980  0.8208  0.3874 -0.8832
 5462TIP3   OH216391   1.500   5.746   1.528  0.5585  0.3760  0.2726
 5462TIP3    H116392   1.594   5.731   1.518  0.6254 -0.0982  1.3931
 5462TIP3    H216393   1.459   5.670   1.487  0.7003  0.1084  0.6242
 5463TIP3   OH216394   2.594   0.215   0.493 -0.1646  0.0332 -0.0728
 5463TIP3    H116395   2.655   0.170   0.436 -0.3290 -0.7449  0.3587
 5463TIP3    H216396   2.592   0.163   0.573 -1.1151  0.2496  0.0562
 5464TIP3   OH216397   2.277   2.171   4.508  0.1648  0.2475 -0.9042
 5464TIP3    H116398   2.286   2.239   4.442  0.9215  1.4770  0.3982
 5464TIP3    H216399   2.250   2.218   4.587 -0.3119 -1.1118 -0.2332
 5465TIP3   OH216400   5.450   5.426   2.208  0.1857  0.1218  0.0810
 5465TIP3    H116401   5.429   5.344   2.164 -0.1780  0.1144  0.2692
 5465TIP3    H216402   5.541   5.443   2.184  0.9152 -1.3433  1.5847
 5466TIP3   OH216403   3.693   1.524   0.089  0.6846 -0.0650 -0.0950
 5466TIP3    H116404   3.767   1.565   0.134  2.7636 -0.5218 -2.8108
 5466TIP3    H216405   3.651   1.596   0.042  0.9672 -0.1911 -0.5439
 5467TIP3   OH216406   0.523   1.144   2.108 -0.1684  0.0427  0.2835
 5467TIP3    H116407   0.480   1.110   2.187  0.7308 -1.0902  0.3088
 5467TIP3    H216408   0.451   1.162   2.048 -0.7626 -0.6125  0.7806
 5468TIP3   OH216409   4.120   1.064   3.383 -0.1169 -0.3220  0.0900
 5468TIP3    H116410   4.096   1.114   3.305  0.0914  0.5720  0.5826
 5468TIP3    H216411   4.132   1.130   3.451 -0.6700 -1.1055  0.9857
 5469TIP3   OH216412   3.791   5.789   1.012 -0.1706  0.1331  0.3269
 5469TIP3    H116413   3.778   5.736   1.091  0.5988 -0.2429  0.2113
 5469TIP3    H216414   3.725   5.858   1.018 -0.1889  0.0472  1.2481
 5470TIP3   OH216415   3.540   2.192   3.224 -0.6278 -0.2303 -0.5755
 5470TIP3    H116416   3.620   2.220   3.269 -0.1945 -0.7304 -1.0240
 5470TIP3    H216417   3.536   2.098   3.238 -1.2370 -0.1794 -0.4060
 5471TIP3   OH216418   5.221   3.964   3.904 -0.0023 -0.0452  0.2284
 5471TIP3    H116419   5.196   4.020   3.978  2.1997 -0.8609  1.7037
 5471TIP3    H216420   5.204   3.875   3.935  1.0544 -0.4030 -0.1756
 5472TIP3   OH216421   2.158   2.669   2.982 -0.1303  0.5972 -0.4393
 5472TIP3    H116422   2.076   2.697   2.941 -0.7255  0.2484  0.4949
 5472TIP3    H216423   2.226   2.706   2.926 -0.9194  0.9432 -1.1957
 5473TIP3   OH216424   1.754   3.219   1.865 -0.0322  0.3086  0.0455
 5473TIP3    H116425   1.721   3.309   1.869 -0.4993  0.1384  0.1634
 5473TIP3    H216426   1.705   3.173   1.933 -0.2245 -0.1672 -0.4070
 5474TIP3   OH216427   0.384   4.621   1.375 -0.0700 -0.3202  0.1497
 5474TIP3    H116428   0.391   4.595   1.283 -1.2447 -0.3067  0.0446
 5474TIP3    H216429   0.402   4.540   1.424 -1.4739 -0.8360 -0.1419
 5475TIP3   OH216430   2.308   1.996   1.365 -0.2311 -0.2369  0.6572
 5475TIP3    H116431   2.332   2.089   1.366  0.1128 -0.3266  0.8693
 5475TIP3    H216432   2.253   1.985   1.442 -1.7941  0.1803 -0.3534
 5476TIP3   OH216433   2.250   1.105   2.540  0.2723 -0.1907 -0.0930
 5476TIP3    H116434   2.194   1.081   2.466  1.9579 -3.6889 -0.4634
 5476TIP3    H216435   2.247   1.029   2.598  0.6961  1.5989  2.4128
 5477TIP3   OH216436   3.321   1.356   3.852 -0.6167  0.4945  0.4895
 5477TIP3    H116437   3.381   1.360   3.777 -0.7674  0.1770  0.3482
 5477TIP3    H216438   3.360   1.292   3.911  0.4478  2.0490  1.5390
 5478TIP3   OH216439   1.705   4.658   2.750  0.5635  0.1449 -0.0240
 5478TIP3    H116440   1.728   4.591   2.814  0.6995  0.0807 -0.1422
 5478TIP3    H216441   1.695   4.738   2.802 -0.4439 -0.1406  0.2436
 5479TIP3   OH216442   1.066   1.116   4.430  0.2472 -0.4664  0.0155
 5479TIP3    H116443   0.984   1.122   4.379  0.1655  0.3188  0.2203
 5479TIP3    H216444   1.060   1.188   4.493  1.7493  0.5526 -0.9353
 5480TIP3   OH216445   3.245   0.359   2.722 -0.0882 -0.3115  0.0289
 5480TIP3    H116446   3.320   0.341   2.779 -0.4701 -1.7041  0.1381
 5480TIP3    H216447   3.219   0.448   2.744  0.6563 -0.3154  1.0154
 5481TIP3   OH216448   2.192   3.425   0.026  0.2907 -0.2254  0.1962
 5481TIP3    H116449   2.102   3.406  -0.001 -0.5908 -0.9078  3.2388
 5481TIP3    H216450   2.228   3.341   0.051 -0.0268  0.5317  3.7144
 5482TIP3   OH216451   4.489   2.954   3.937 -0.0433 -0.7163 -0.7232
 5482TIP3    H116452   4.548   3.026   3.917 -0.5109 -0.2774 -0.5382
 5482TIP3    H216453   4.547   2.882   3.961  0.4212 -0.3104 -0.6078
 5483TIP3   OH216454   1.103   2.630   1.985 -0.2396  0.4371  0.0477
 5483TIP3    H116455   1.062   2.544   1.975  0.0532  0.2981  0.0148
 5483TIP3    H216456   1.031   2.692   1.979 -1.0395  0.0786  3.7088
 5484TIP3   OH216457   4.203   4.249   1.787 -0.6549 -0.3663  0.5461
 5484TIP3    H116458   4.111   4.251   1.760 -0.4992  1.2488 -0.0134
 5484TIP3    H216459   4.207   4.307   1.863  0.4479  2.8800 -1.7120
 5485TIP3   OH216460   4.180   2.005   1.543 -0.1662  0.5658 -0.2058
 5485TIP3    H116461   4.239   2.010   1.468 -0.9409  1.3951 -0.7822
 5485TIP3    H216462   4.199   1.920   1.583  0.4877  0.2510 -1.1535
 5486TIP3   OH216463   2.269   1.385   4.501  0.3362  0.0396  0.7538
 5486TIP3    H116464   2.314   1.302   4.492 -1.2106 -0.9116  1.4312
 5486TIP3    H216465   2.270   1.423   4.413  2.8848  0.3471  0.8261
 5487TIP3   OH216466   5.204   1.175   2.538 -0.5800 -0.0139 -0.4039
 5487TIP3    H116467   5.265   1.211   2.603 -1.2624 -0.1097  0.3095
 5487TIP3    H216468   5.222   1.081   2.538 -1.5008 -0.2067  0.6631
 5488TIP3   OH216469   3.253   3.685   4.095 -0.2511  0.1386 -0.2815
 5488TIP3    H116470   3.190   3.617   4.072  0.0367 -0.2291  0.0039
 5488TIP3    H216471   3.238   3.754   4.031  0.2229 -0.6707 -1.2959
 5489TIP3   OH216472   4.566   2.311   1.228  0.1183 -0.2901  0.4013
 5489TIP3    H116473   4.594   2.388   1.179 -0.8366  0.2132  0.6069
 5489TIP3    H216474   4.646   2.275   1.266  0.8252 -0.4529 -1.1607
 5490TIP3   OH216475   2.708   0.498   3.629  0.2325 -0.3767 -0.5040
 5490TIP3    H116476   2.615   0.496   3.606 -0.1418  1.6162  0.5898
 5490TIP3    H216477   2.751   0.536   3.552 -0.2769  1.2555 -0.0294
 5491TIP3   OH216478   1.356   3.615   1.131  0.3901  0.5594  0.3602
 5491TIP3    H116479   1.320   3.685   1.077 -0.3146  0.0724  0.1748
 5491TIP3    H216480   1.309   3.622   1.215  0.3078  0.3137  0.3379
 5492TIP3   OH216481   1.071   0.562   3.566  0.1450  0.4366 -0.5431
 5492TIP3    H116482   1.043   0.641   3.612 -1.3801 -0.5163  0.2677
 5492TIP3    H216483   1.027   0.567   3.481 -2.4645 -0.8873  0.5979
 5493TIP3   OH216484   2.032   3.109   2.357 -0.4913  0.0540  0.5356
 5493TIP3    H116485   1.978   3.096   2.435 -2.2285 -0.2997 -0.6641
 5493TIP3    H216486   1.975   3.084   2.284  1.8185 -1.8873 -0.7412
 5494TIP3   OH216487   0.858   1.489   0.858  0.4182 -0.0277 -0.3665
 5494TIP3    H116488   0.784   1.511   0.914  0.5435  0.4969 -0.3991
 5494TIP3    H216489   0.849   1.395   0.841  0.7949 -0.3659  1.1474
 5495TIP3   OH216490   3.088   0.056   3.002  0.1719  0.1021  0.2825
 5495TIP3    H116491   3.141   0.070   2.924 -0.2131 -0.3213 -0.0661
 5495TIP3    H216492   3.072   0.143   3.037 -1.1379  0.4780 -1.1212
 5496TIP3   OH216493   0.903   3.974   1.400  0.1897  0.4599  0.3106
 5496TIP3    H116494   0.848   4.044   1.435  0.4813 -0.2434  2.3209
 5496TIP3    H216495   0.882   3.898   1.453  2.0282 -0.2088  0.1601
 5497TIP3   OH216496   0.320   0.220   0.834  0.0081 -0.1625  0.1602
 5497TIP3    H116497   0.340   0.267   0.753  0.4055 -2.6284 -1.2787
 5497TIP3    H216498   0.382   0.147   0.836 -0.2801 -0.4333  2.4798
 5498TIP3   OH216499   0.532   2.840   3.573 -0.5841  0.1332 -0.0600
 5498TIP3    H116500   0.602   2.790   3.617 -0.0574  0.7777 -0.1452
 5498TIP3    H216501   0.524   2.920   3.625  0.5930  1.2801 -1.5236
 5499TIP3   OH216502   0.124   2.743   0.329  0.1458  0.2691  0.3879
 5499TIP3    H116503   0.101   2.654   0.357  0.6937  0.3303  1.0698
 5499TIP3    H216504   0.092   2.799   0.400 -0.3776  0.6431 -0.1301
 5500TIP3   OH216505   4.715   3.378   3.299  0.0300 -0.4951 -0.1176
 5500TIP3    H116506   4.790   3.325   3.325 -1.1061 -1.9657  0.3097
 5500TIP3    H216507   4.639   3.335   3.339 -0.9590  1.5537  0.3773
 5501TIP3   OH216508   0.800   5.410   4.126  0.0547 -0.5441  0.4237
 5501TIP3    H116509   0.705   5.423   4.126 -0.3468 -2.9884  0.1790
 5501TIP3    H216510   0.831   5.459   4.050 -0.9632  0.4523  0.6241
 5502TIP3   OH216511   2.836   4.550   1.601 -0.5660  0.3690  0.2373
 5502TIP3    H116512   2.927   4.577   1.589 -0.4885  0.2946  0.6533
 5502TIP3    H216513   2.788   4.632   1.615 -0.9505  0.6600 -2.2221
 5503TIP3   OH216514   0.261   1.765   0.423 -0.0463  0.0576  0.4096
 5503TIP3    H116515   0.238   1.672   0.415  1.3577 -0.3261  0.5703
 5503TIP3    H216516   0.288   1.791   0.335  0.4596  0.0512  0.5585
 5504TIP3   OH216517   6.203   3.640   3.599 -0.0955 -0.0562  0.0469
 5504TIP3    H116518   6.133   3.625   3.662 -0.8608  1.1838 -0.4693
 5504TIP3    H216519   6.159   3.671   3.520  0.8222 -1.7110 -1.1915
 5505TIP3   OH216520   0.585   3.744   1.725 -0.0486  0.5127 -0.1485
 5505TIP3    H116521   0.591   3.714   1.634  0.5804 -0.7965  0.2984
 5505TIP3    H216522   0.492   3.749   1.742 -0.1881 -1.4257 -0.2004
 5506TIP3   OH216523   0.749   5.423   0.044 -0.3665 -0.1670 -0.5929
 5506TIP3    H116524   0.666   5.381   0.067 -0.8868  0.8078 -0.6333
 5506TIP3    H216525   0.742   5.511   0.082  1.0595 -0.3913  0.2685
 5507TIP3   OH216526   3.586   0.170   5.103 -0.4042 -0.0278 -0.0437
 5507TIP3    H116527   3.647   0.244   5.107 -0.1999 -0.2018  0.0842
 5507TIP3    H216528   3.639   0.094   5.128 -0.4171 -0.3446 -0.9414
 5508TIP3   OH216529   5.206   0.244   4.486  0.0217  0.0865  0.2515
 5508TIP3    H116530   5.289   0.272   4.524  0.9327 -2.1177  0.0579
 5508TIP3    H216531   5.160   0.201   4.559  0.1234 -0.8095 -0.1940
 5509TIP3   OH216532   2.115   4.620   0.314  0.1896 -0.1408  0.0141
 5509TIP3    H116533   2.082   4.674   0.242 -1.4439 -0.1943  0.6899
 5509TIP3    H216534   2.153   4.683   0.375  1.8200 -0.1138 -0.9663
 5510TIP3   OH216535   6.318   1.337   3.598 -0.1762 -0.8155  0.2116
 5510TIP3    H116536   6.348   1.311   3.511  0.3247 -0.8865  0.4041
 5510TIP3    H216537   6.281   1.425   3.585  0.1341 -0.7173 -0.0237
 5511TIP3   OH216538   2.151   1.097   1.735  0.1414  0.1900 -0.2757
 5511TIP3    H116539   2.063   1.063   1.753 -0.6509  1.5788 -1.3159
 5511TIP3    H216540   2.179   1.049   1.656  0.4488 -0.4381  0.2033
 5512TIP3   OH216541   5.945   5.043   2.187  0.0731 -0.5912 -0.0486
 5512TIP3    H116542   6.022   5.098   2.170 -1.1405  1.3205  0.3209
 5512TIP3    H216543   5.970   4.990   2.262  0.8253  0.4559  0.4732
 5513TIP3   OH216544   5.837   2.431   0.693 -0.0380 -0.8259 -0.3410
 5513TIP3    H116545   5.927   2.463   0.687 -0.7336  1.3356 -0.0968
 5513TIP3    H216546   5.814   2.439   0.785 -1.5712  2.0864 -0.8539
 5514TIP3   OH216547   5.166   0.168   1.460 -0.0585  0.0907  0.5058
 5514TIP3    H116548   5.220   0.113   1.403  1.5637  2.7172 -0.6341
 5514TIP3    H216549   5.088   0.186   1.408  0.4408  0.7209 -0.0292
 5515TIP3   OH216550   1.301   0.264   3.840  0.8094 -0.3705  0.3360
 5515TIP3    H116551   1.233   0.268   3.773  1.2567  0.6491 -0.0693
 5515TIP3    H216552   1.314   0.170   3.855  0.5450 -0.6053 -0.8378
 5516TIP3   OH216553   5.907   3.623   3.412  0.0135  0.3246 -0.3032
 5516TIP3    H116554   5.934   3.593   3.498  0.3882  0.8327 -0.2442
 5516TIP3    H216555   5.907   3.718   3.418 -1.8572  0.3527 -0.2775
 5517TIP3   OH216556   0.266   2.798   3.498  0.1245  0.0983  0.0704
 5517TIP3    H116557   0.216   2.725   3.463 -0.9906  1.0513 -0.3983
 5517TIP3    H216558   0.353   2.762   3.517 -0.4162 -1.3286 -0.1174
 5518TIP3   OH216559   2.701   0.836   5.187 -0.5424  0.2391 -0.2051
 5518TIP3    H116560   2.740   0.911   5.233  1.4088 -0.0290 -1.3184
 5518TIP3    H216561   2.687   0.868   5.098 -0.8302 -0.3826 -0.3863
 5519TIP3   OH216562   4.988   5.696   4.036 -0.2175  0.0627  0.1806
 5519TIP3    H116563   4.901   5.682   4.073  0.4973 -1.3244  1.4141
 5519TIP3    H216564   5.045   5.707   4.112  0.9975 -1.0585 -0.5359
 5520TIP3   OH216565   3.541   3.798   2.585 -0.7672  0.1894  0.5322
 5520TIP3    H116566   3.586   3.817   2.668 -2.3937  0.2432  1.4299
 5520TIP3    H216567   3.454   3.770   2.611 -2.0388  2.2319 -1.2314
 5521TIP3   OH216568   2.604   3.589   3.559 -0.5730  0.3638  0.1108
 5521TIP3    H116569   2.606   3.500   3.524  1.4697  0.8314 -1.0861
 5521TIP3    H216570   2.535   3.633   3.510 -0.4827 -0.1031 -0.4394
 5522TIP3   OH216571   6.282   5.682   1.038  0.0513  0.0519  0.3235
 5522TIP3    H116572   6.280   5.651   0.947 -0.0888  0.9061  0.0215
 5522TIP3    H216573   6.215   5.631   1.082 -0.8353  0.5732 -0.3849
 5523TIP3   OH216574   4.419   5.308  -0.010  0.5379  0.3145  0.6118
 5523TIP3    H116575   4.496   5.302   0.047  0.8185  0.4714  0.2586
 5523TIP3    H216576   4.408   5.402  -0.026 -0.1706  0.3419  1.2446
 5524TIP3   OH216577   1.459   0.251   4.668  0.5022 -0.0954  0.2436
 5524TIP3    H116578   1.496   0.328   4.712 -2.5663  1.3801  0.4558
 5524TIP3    H216579   1.480   0.265   4.576  3.8434 -1.3943  0.6756
 5525TIP3   OH216580   5.035   1.468   0.371 -0.0367 -0.6060  0.4110
 5525TIP3    H116581   5.103   1.511   0.318  1.1006 -0.2086  2.1057
 5525TIP3    H216582   4.955   1.478   0.321  0.6803  1.2327 -0.4416
 5526TIP3   OH216583   3.826   3.716   0.637  0.3001  0.4891  0.5896
 5526TIP3    H116584   3.895   3.728   0.572 -0.0311  0.4198  0.2179
 5526TIP3    H216585   3.811   3.622   0.639 -1.4418  0.6489 -1.1233
 5527TIP3   OH216586   5.542   1.378   1.663  0.0949 -0.1755 -0.3428
 5527TIP3    H116587   5.571   1.344   1.747 -1.4845  0.2222  0.4103
 5527TIP3    H216588   5.611   1.438   1.635  0.1029  0.5746  1.2388
 5528TIP3   OH216589   0.118   2.679   4.271 -0.2280  0.1776  0.6568
 5528TIP3    H116590   0.055   2.660   4.202  0.7544 -0.8227 -0.0052
 5528TIP3    H216591   0.139   2.593   4.308  1.4312  0.3753  0.2356
 5529TIP3   OH216592   2.337   1.133   1.458 -0.5254  0.1896 -0.0421
 5529TIP3    H116593   2.292   1.212   1.485 -0.5216 -0.1164  0.9068
 5529TIP3    H216594   2.427   1.161   1.440 -0.9719  0.7325 -1.5881
 5530TIP3   OH216595   2.173   1.628   2.037 -0.1162  0.8532  0.7388
 5530TIP3    H116596   2.218   1.711   2.016  1.3799 -0.4345 -1.5853
 5530TIP3    H216597   2.086   1.638   1.999  0.4435  0.9635 -0.5649
 5531TIP3   OH216598   4.016   1.086   2.659  0.8552  0.3926  0.4811
 5531TIP3    H116599   3.954   1.084   2.732  2.5441  1.3478  2.0297
 5531TIP3    H216600   4.011   1.176   2.626  1.0716  0.3411  0.3095
 5532TIP3   OH216601   2.562   4.604   1.911 -0.2334 -0.2935 -0.2045
 5532TIP3    H116602   2.536   4.560   1.831 -0.7173  0.8527 -0.6989
 5532TIP3    H216603   2.479   4.632   1.952  0.0531  2.6588 -1.3767
 5533TIP3   OH216604   5.281   1.861   1.615  0.4868 -0.0339  0.3245
 5533TIP3    H116605   5.190   1.834   1.630  0.0397  0.9591 -0.4988
 5533TIP3    H216606   5.279   1.956   1.625  1.2274  0.1022 -0.7495
 5534TIP3   OH216607   3.391   3.996   0.221 -0.0230 -0.4036  0.3308
 5534TIP3    H116608   3.357   4.080   0.193  0.8963  0.4085  1.5680
 5534TIP3    H216609   3.471   3.984   0.170  0.2932 -0.1175  0.7496
 5535TIP3   OH216610   4.997   0.642   3.898 -0.0559  0.2070  0.0673
 5535TIP3    H116611   4.915   0.592   3.898  0.5240 -0.8979 -2.3536
 5535TIP3    H216612   4.971   0.733   3.888 -1.0841 -0.3501 -4.2826
 5536TIP3   OH216613   5.290   5.013   0.410 -0.2336 -0.4426  0.7340
 5536TIP3    H116614   5.353   4.941   0.420  1.2426  0.5989 -0.5610
 5536TIP3    H216615   5.233   4.984   0.339  0.4792 -0.2858  0.0811
 5537TIP3   OH216616   2.734   2.786   3.549 -0.1740 -0.8779 -0.0345
 5537TIP3    H116617   2.803   2.851   3.535  0.0584 -1.2819 -0.8311
 5537TIP3    H216618   2.782   2.704   3.567 -0.3778 -1.4883 -2.0126
 5538TIP3   OH216619   4.120   0.494   3.814  0.5042 -0.0323 -0.1457
 5538TIP3    H116620   4.193   0.485   3.877  0.3720  0.7657  0.1297
 5538TIP3    H216621   4.150   0.446   3.737  1.2088  0.0416  0.0686
 5539TIP3   OH216622   0.042   5.706   2.417  0.0580 -0.1107 -0.4023
 5539TIP3    H116623   0.078   5.673   2.334 -0.1918 -1.1236 -0.1248
 5539TIP3    H216624   0.054   5.801   2.412  2.1143 -0.3297 -0.6296
 5540TIP3   OH216625   0.710   2.634   0.877  0.5945 -0.6767 -0.1519
 5540TIP3    H116626   0.766   2.605   0.806  2.4105 -1.4314  1.4891
 5540TIP3    H216627   0.726   2.571   0.948 -0.2918  0.6467  1.3071
 5541TIP3   OH216628   5.619   0.073   4.933 -0.9258 -0.1707  0.0734
 5541TIP3    H116629   5.714   0.073   4.927 -0.8020  2.2650  0.6834
 5541TIP3    H216630   5.590   0.123   4.856 -1.6001  0.1380  0.5117
 5542TIP3   OH216631   5.278   2.462   0.148 -0.4736  0.0434 -0.1007
 5542TIP3    H116632   5.215   2.422   0.088 -0.0928 -0.4493 -0.1777
 5542TIP3    H216633   5.256   2.426   0.233  0.5320 -1.1773 -0.3270
 5543TIP3   OH216634   6.190   5.256   3.096 -0.1090  0.1363 -0.3861
 5543TIP3    H116635   6.269   5.248   3.043 -0.7717 -3.1381 -1.0724
 5543TIP3    H216636   6.203   5.194   3.168 -1.2958  0.9160  0.5408
 5544TIP3   OH216637   5.101   0.626   1.724  0.3000 -0.2949 -0.0398
 5544TIP3    H116638   5.092   0.639   1.819  0.8627 -1.4405  0.1923
 5544TIP3    H216639   5.076   0.535   1.710 -1.5414  0.3528 -1.2753
 5545TIP3   OH216640   5.852   1.448   3.711 -0.4191  0.2257  0.3971
 5545TIP3    H116641   5.780   1.470   3.652 -0.0787  1.0615  0.2823
 5545TIP3    H216642   5.917   1.405   3.656 -0.1527  0.8988  0.1716
 5546TIP3   OH216643   5.992   2.536   1.074 -0.2334  0.2893  0.2611
 5546TIP3    H116644   5.997   2.550   1.168 -0.8745 -1.4943  0.5932
 5546TIP3    H216645   6.082   2.548   1.043  0.0846  0.3388  1.1878
 5547TIP3   OH216646   3.354   5.611   3.869 -0.1082 -0.2967 -0.3990
 5547TIP3    H116647   3.449   5.618   3.866 -0.1278 -0.3295 -1.7980
 5547TIP3    H216648   3.324   5.701   3.887  0.1402  0.1869 -2.2150
 5548TIP3   OH216649   0.013   2.478   2.057 -0.4089  0.2852 -0.2352
 5548TIP3    H116650   0.019   2.427   1.976 -0.5438  1.8209 -1.2665
 5548TIP3    H216651   0.064   2.428   2.121 -1.1101 -1.4654 -0.9801
 5549TIP3   OH216652  -0.008   2.092   2.818  0.4276  0.0905 -0.3611
 5549TIP3    H116653  -0.049   2.006   2.827 -1.4125  1.1271  2.1484
 5549TIP3    H216654   0.085   2.076   2.838 -0.0371 -1.2186  0.9197
 5550TIP3   OH216655   0.336   2.857   4.091 -0.4265 -0.4865  0.3263
 5550TIP3    H116656   0.309   2.903   4.171 -0.6761  0.3301 -0.2124
 5550TIP3    H216657   0.257   2.857   4.036 -0.1828 -0.8043 -0.0289
 5551TIP3   OH216658   3.661   2.954   2.160 -0.2915  0.0278  0.1415
 5551TIP3    H116659   3.681   2.965   2.067 -0.0453 -0.5801  0.1147
 5551TIP3    H216660   3.729   3.004   2.206  0.0922 -0.3547  0.0047
 5552TIP3   OH216661   3.985   5.717   2.590 -0.3707 -0.0911 -0.1981
 5552TIP3    H116662   3.924   5.785   2.563  0.0488  0.6613  0.6948
 5552TIP3    H216663   4.040   5.701   2.514 -0.6697  0.3487 -0.5072
 5553TIP3   OH216664   0.843   3.878   0.144  0.6163 -0.3705  0.3023
 5553TIP3    H116665   0.759   3.874   0.099 -0.0510  1.3236  1.2933
 5553TIP3    H216666   0.908   3.873   0.074 -0.3834  1.4940 -0.8373
 5554TIP3   OH216667   0.802   5.805   0.667 -0.0742  0.6556  0.0962
 5554TIP3    H116668   0.854   5.728   0.644 -0.7927 -0.2109  1.2554
 5554TIP3    H216669   0.731   5.806   0.603 -0.0795  0.3250  0.0943
 5555TIP3   OH216670   5.045   1.928   1.126 -0.3021  0.3083  0.0614
 5555TIP3    H116671   4.973   1.991   1.124  1.2344  2.1261 -1.7008
 5555TIP3    H216672   5.097   1.954   1.202 -0.9533 -0.4354  0.7896
 5556TIP3   OH216673   1.617   0.480   0.022 -0.1649  0.2548  0.2655
 5556TIP3    H116674   1.701   0.472   0.068  0.7673  0.5971 -1.3286
 5556TIP3    H216675   1.582   0.391   0.020  1.9205 -0.6337 -2.1912
 5557TIP3   OH216676   3.173   0.902   1.428  0.1972 -0.0634  0.0018
 5557TIP3    H116677   3.235   0.973   1.440  0.0957  0.1569 -0.6940
 5557TIP3    H216678   3.092   0.934   1.468 -0.4452  1.0952 -2.0706
 5558TIP3   OH216679   6.089   0.629   5.003 -0.3608  0.0544  0.6436
 5558TIP3    H116680   6.064   0.609   4.913  2.3259 -1.3953  0.1316
 5558TIP3    H216681   6.033   0.703   5.027 -1.1329  0.5268 -2.2065
 5559TIP3   OH216682   1.562   0.049   3.430 -0.3001 -0.3565  0.1706
 5559TIP3    H116683   1.578   0.102   3.508  0.0986  0.6218 -0.5484
 5559TIP3    H216684   1.481   0.084   3.393  0.5362  0.5171 -0.9000
 5560TIP3   OH216685   0.093   1.853   4.200 -0.4350 -0.5946 -0.6168
 5560TIP3    H116686   0.078   1.941   4.167 -0.9901 -1.1918 -2.0291
 5560TIP3    H216687   0.184   1.834   4.179 -0.7948 -0.9853 -1.9105
 5561TIP3   OH216688   4.349   4.626   0.874  0.0764 -0.0931 -0.3073
 5561TIP3    H116689   4.312   4.702   0.918  0.9308  1.1037 -1.5307
 5561TIP3    H216690   4.410   4.588   0.937  0.2911  0.7812  0.0228
 5562TIP3   OH216691   1.262   1.419   4.505  0.2043  0.6987  0.1881
 5562TIP3    H116692   1.315   1.384   4.433  0.5139  0.0046  0.7411
 5562TIP3    H216693   1.217   1.343   4.542  0.8963  0.8447  1.4126
 5563TIP3   OH216694   1.274   3.377   0.758 -0.1445  0.1111 -0.1193
 5563TIP3    H116695   1.324   3.298   0.777 -1.6831 -1.4474 -2.0514
 5563TIP3    H216696   1.238   3.403   0.842  0.2218 -1.3898  0.5423
 5564TIP3   OH216697   5.782   1.629   2.464 -0.3094  0.7311 -0.0636
 5564TIP3    H116698   5.696   1.614   2.503  0.0402 -0.4480  0.2997
 5564TIP3    H216699   5.826   1.544   2.471  0.6216  1.1312 -0.8941
 5565TIP3   OH216700   5.438   0.079   3.163  0.0097  0.3572  0.3539
 5565TIP3    H116701   5.465  -0.008   3.135 -1.9637 -0.2536  0.1673
 5565TIP3    H216702   5.475   0.139   3.098  1.2887 -0.3235  0.4247
 5566TIP3   OH216703   1.537   0.255   1.751  0.2754 -0.0062  0.0823
 5566TIP3    H116704   1.445   0.240   1.728  0.0199  2.3537 -0.7071
 5566TIP3    H216705   1.585   0.243   1.669  0.1544  2.3539 -0.3901
 5567TIP3   OH216706   2.574   1.300   1.447  0.3579  0.1774  0.4684
 5567TIP3    H116707   2.581   1.264   1.359  0.1746  1.5240 -0.1185
 5567TIP3    H216708   2.617   1.385   1.442 -0.8554  0.8668  1.3295
 5568TIP3   OH216709   3.871   1.237   3.345  0.5936 -0.5815  0.5726
 5568TIP3    H116710   3.859   1.273   3.433  1.1240  0.2211  0.3329
 5568TIP3    H216711   3.837   1.148   3.351  0.0114 -0.3218  1.4135
 5569TIP3   OH216712   1.472   4.169   4.056  0.6107 -0.2687  0.4438
 5569TIP3    H116713   1.567   4.175   4.065  0.8449  0.3168 -1.7848
 5569TIP3    H216714   1.444   4.259   4.038 -0.0508 -0.7453 -1.0908
 5570TIP3   OH216715   1.054   1.676   2.844 -0.0381 -0.1195 -1.2767
 5570TIP3    H116716   1.087   1.765   2.856  1.0650 -0.7561  0.9447
 5570TIP3    H216717   1.098   1.644   2.765  2.7268  0.0011  0.0939
 5571TIP3   OH216718   0.026   3.080   1.825 -0.1864  0.0306 -0.3384
 5571TIP3    H116719   0.018   3.064   1.919  0.4791 -1.4703 -0.5023
 5571TIP3    H216720   0.092   3.017   1.796  0.1007  0.9271 -1.7044
 5572TIP3   OH216721   6.218   1.910   2.064  0.1191 -0.7549  0.5996
 5572TIP3    H116722   6.183   1.862   2.139 -0.8324 -1.7926 -0.4653
 5572TIP3    H216723   6.308   1.931   2.089 -0.4041 -0.4012  2.3165
 5573TIP3   OH216724   2.680   3.263   1.880  0.6595  0.6601 -0.6328
 5573TIP3    H116725   2.712   3.216   1.802  0.0678  0.6706 -0.8866
 5573TIP3    H216726   2.611   3.207   1.915  0.3912  1.0272 -0.5661
 5574TIP3   OH216727   2.701   3.517   2.425 -0.4273  0.0784  0.3119
 5574TIP3    H116728   2.788   3.477   2.421 -0.1520  0.7328 -0.5242
 5574TIP3    H216729   2.673   3.505   2.515  1.0651  0.9466  0.9195
 5575TIP3   OH216730   0.442   2.680   0.650 -0.2562 -0.5675 -0.5613
 5575TIP3    H116731   0.389   2.696   0.728 -0.9733 -1.4375 -0.8666
 5575TIP3    H216732   0.499   2.606   0.674 -0.3233 -0.6937 -0.7841
 5576TIP3   OH216733   2.278   1.782   1.633 -0.0669  0.2512 -0.3501
 5576TIP3    H116734   2.237   1.750   1.553 -0.8475 -1.4725  0.6935
 5576TIP3    H216735   2.361   1.735   1.638  1.0043  1.9406 -1.1985
 5577TIP3   OH216736   6.236   5.000   0.867 -0.5486  0.0120  0.1650
 5577TIP3    H116737   6.213   4.913   0.897 -0.9095 -0.7207 -2.0289
 5577TIP3    H216738   6.168   5.057   0.903 -1.2167 -0.8706  0.3292
 5578TIP3   OH216739   1.781   3.741   0.842 -0.1917  0.2701  0.4427
 5578TIP3    H116740   1.704   3.687   0.824  0.0071  0.6409 -1.7507
 5578TIP3    H216741   1.834   3.689   0.902 -1.2374 -0.8078  0.4594
 5579TIP3   OH216742   1.614   0.937   4.439  0.0728  0.3921 -0.3543
 5579TIP3    H116743   1.699   0.945   4.398 -0.5429 -0.3924 -1.8680
 5579TIP3    H216744   1.551   0.961   4.371 -1.0620 -2.4495 -0.4805
 5580TIP3   OH216745   0.972   5.125   3.016 -0.1723 -0.4723  0.2299
 5580TIP3    H116746   1.042   5.188   2.998  0.1285 -1.1460 -1.1095
 5580TIP3    H216747   0.977   5.063   2.943 -3.1207  0.2967 -0.7427
 5581TIP3   OH216748   4.416   5.106   3.631  0.0846  0.1540 -0.3791
 5581TIP3    H116749   4.341   5.051   3.609  0.3690 -0.4946  0.2234
 5581TIP3    H216750   4.440   5.079   3.719  0.7230  0.7077 -0.3754
 5582TIP3   OH216751   1.676   5.945   1.352 -0.9977 -0.0180 -0.4669
 5582TIP3    H116752   1.683   5.870   1.411  0.2784  0.1489 -0.3795
 5582TIP3    H216753   1.615   5.916   1.284 -1.3405 -0.7378  0.1329
 5583TIP3   OH216754   4.638   2.609   3.801 -0.4051 -0.1522 -0.2534
 5583TIP3    H116755   4.667   2.662   3.875 -0.3151  0.6025 -0.8169
 5583TIP3    H216756   4.660   2.520   3.825  0.2883  0.1654  0.3204
 5584TIP3   OH216757   1.487   5.412   2.476  0.3327 -0.0660  0.0841
 5584TIP3    H116758   1.439   5.436   2.397  0.0670 -2.1642 -0.4327
 5584TIP3    H216759   1.545   5.487   2.492  1.0638  0.0551 -2.6245
 5585TIP3   OH216760   3.218   3.451   1.173 -0.4991 -0.4541  0.1597
 5585TIP3    H116761   3.146   3.391   1.153 -0.8760 -0.0014  0.1528
 5585TIP3    H216762   3.262   3.410   1.248 -0.4813 -0.9674 -0.1265
 5586TIP3   OH216763   3.077   1.582   1.259 -0.2984 -0.7400 -0.0229
 5586TIP3    H116764   3.155   1.560   1.208 -0.0278 -0.0520  0.0810
 5586TIP3    H216765   3.014   1.613   1.194 -0.0870 -0.2254  0.0138
 5587TIP3   OH216766   3.269   0.287   1.199 -0.0501  0.8820 -0.2156
 5587TIP3    H116767   3.237   0.314   1.113 -1.0861  2.6100  0.6801
 5587TIP3    H216768   3.360   0.261   1.183 -0.7473 -0.6972 -2.1501
 5588TIP3   OH216769   4.362   0.448   3.934 -0.4972  0.1527 -0.5866
 5588TIP3    H116770   4.399   0.383   3.993  1.4546  1.2256 -0.5518
 5588TIP3    H216771   4.416   0.442   3.855 -1.2742  0.6853 -1.1761
 5589TIP3   OH216772   4.588   0.728   2.219 -0.5344 -0.5572  0.2375
 5589TIP3    H116773   4.544   0.814   2.218  1.8577  0.7617  0.6920
 5589TIP3    H216774   4.615   0.714   2.128 -0.1551 -0.3976  0.3245
 5590TIP3   OH216775   5.692   4.650   4.253 -0.4739  0.1992  0.3888
 5590TIP3    H116776   5.663   4.735   4.219 -0.7402 -0.0317  0.0339
 5590TIP3    H216777   5.749   4.672   4.327 -1.1778  0.6755  0.8001
 5591TIP3   OH216778   2.755   1.524   1.051  0.8150 -0.7987  0.7925
 5591TIP3    H116779   2.812   1.563   0.985 -0.5299  1.4877  0.8761
 5591TIP3    H216780   2.769   1.429   1.042  2.5746 -0.4390 -0.9833
 5592TIP3   OH216781   3.792   5.744   2.162  0.0140  0.1091 -0.1133
 5592TIP3    H116782   3.789   5.760   2.068  1.4099 -2.1694 -0.6413
 5592TIP3    H216783   3.863   5.801   2.194 -0.3936  0.8087 -0.4388
 5593TIP3   OH216784   6.193   2.721   1.590 -0.0834 -0.4818 -0.1448
 5593TIP3    H116785   6.182   2.650   1.528 -1.9147  0.8204 -1.4028
 5593TIP3    H216786   6.164   2.685   1.674 -1.2612 -1.1401 -0.8181
 5594TIP3   OH216787   2.758   5.166   4.092 -0.5024 -0.0941  0.1374
 5594TIP3    H116788   2.768   5.078   4.128  0.3944  0.1437  0.5075
 5594TIP3    H216789   2.848   5.193   4.071 -0.8582  0.3927 -0.7862
 5595TIP3   OH216790   4.072   3.796   3.120  0.8580 -0.4757  0.2095
 5595TIP3    H116791   4.121   3.725   3.078  0.7626 -1.5729  1.8443
 5595TIP3    H216792   4.123   3.874   3.101  0.5899 -0.8211 -2.2450
 5596TIP3   OH216793   2.538   5.089   1.634  0.0160 -0.1159 -0.4266
 5596TIP3    H116794   2.473   5.147   1.674  1.2506  1.9957 -1.3169
 5596TIP3    H216795   2.528   5.102   1.540 -0.2866 -2.1176 -0.7172
 5597TIP3   OH216796   2.837   1.127   3.413  0.2059 -0.2356  0.9274
 5597TIP3    H116797   2.917   1.180   3.407  1.1351 -1.4793  1.8863
 5597TIP3    H216798   2.789   1.166   3.486  0.1209  0.2684  0.6071
 5598TIP3   OH216799   1.306   0.949   1.038  0.3814  0.0182 -0.1613
 5598TIP3    H116800   1.245   1.007   0.992 -0.1197 -0.4116 -0.0519
 5598TIP3    H216801   1.256   0.869   1.052  0.3141  0.3285  1.6390
 5599TIP3   OH216802   4.302   5.150   2.721 -0.9730  0.3217  0.4320
 5599TIP3    H116803   4.248   5.220   2.758 -0.2883  1.2182 -0.2140
 5599TIP3    H216804   4.388   5.164   2.760 -0.5860  0.4533 -0.4553
 5600TIP3   OH216805   4.451   0.826   1.886  0.7292  0.3387  0.0383
 5600TIP3    H116806   4.399   0.779   1.951  0.5475  0.3066 -0.1302
 5600TIP3    H216807   4.533   0.777   1.881  0.3534 -0.2363 -0.4876
 5601TIP3   OH216808   4.147   2.297   1.605 -0.1022  0.4577  0.0764
 5601TIP3    H116809   4.154   2.273   1.697  2.1125 -1.7281 -0.5517
 5601TIP3    H216810   4.101   2.223   1.565  0.9046  0.3241 -0.8739
 5602TIP3   OH216811   3.686   5.466   4.387 -0.0068  0.2565  0.1205
 5602TIP3    H116812   3.636   5.385   4.398  0.9587 -0.2913  0.4920
 5602TIP3    H216813   3.750   5.446   4.318  0.3197  0.6644  0.3031
 5603TIP3   OH216814   5.785   4.428   2.911 -0.6049 -0.1837  0.1110
 5603TIP3    H116815   5.749   4.492   2.972 -0.4869  0.3649 -0.3844
 5603TIP3    H216816   5.708   4.394   2.865 -0.7708 -1.1452  1.0703
 5604TIP3   OH216817   2.703   1.922   2.351 -0.4608  0.2128  0.3064
 5604TIP3    H116818   2.742   1.997   2.396 -0.9419  0.3660  0.4814
 5604TIP3    H216819   2.658   1.960   2.275  0.3302 -0.0426 -0.2977
 5605TIP3   OH216820   2.308   3.687   3.481 -0.3043 -0.0078 -0.1470
 5605TIP3    H116821   2.241   3.735   3.529 -0.6986 -0.1202 -0.5793
 5605TIP3    H216822   2.337   3.748   3.413 -0.0034  0.0200  0.0018
 5606TIP3   OH216823   2.315   0.228   4.612 -0.4097  0.1945  0.7668
 5606TIP3    H116824   2.291   0.320   4.623  2.3931  1.2539 -0.8759
 5606TIP3    H216825   2.389   0.215   4.671  0.5642 -0.3321 -0.5162
 5607TIP3   OH216826   0.365   4.563   0.281 -0.1092 -0.1374 -0.7768
 5607TIP3    H116827   0.450   4.574   0.239 -0.2632 -1.5150 -1.4865
 5607TIP3    H216828   0.375   4.486   0.337 -0.6117  0.2659 -0.1145
 5608TIP3   OH216829   1.909   1.483   2.464 -0.1991 -0.1496 -0.5618
 5608TIP3    H116830   1.971   1.478   2.537 -1.1515  0.5400  0.3379
 5608TIP3    H216831   1.963   1.480   2.386  1.0140  0.8116  0.1955
 5609TIP3   OH216832   5.884   0.303   2.816 -0.5452  0.6089  0.4767
 5609TIP3    H116833   5.902   0.379   2.871 -0.0118  0.7140  0.1601
 5609TIP3    H216834   5.876   0.338   2.728 -3.1395  0.6861  0.6688
 5610TIP3   OH216835   3.852   0.669   5.144  0.1479  0.1906  0.3948
 5610TIP3    H116836   3.909   0.669   5.221  1.4153 -0.6122 -0.5044
 5610TIP3    H216837   3.907   0.704   5.074 -0.3245 -0.9833 -0.5915
 5611TIP3   OH216838   2.750   4.246   0.833  0.2446 -0.8392 -0.8153
 5611TIP3    H116839   2.804   4.174   0.865  0.3737 -0.5816 -0.4479
 5611TIP3    H216840   2.798   4.282   0.758  0.7109 -0.4459 -0.3295
 5612TIP3   OH216841   2.204   3.871   0.651  0.3387  0.2413  0.3246
 5612TIP3    H116842   2.115   3.879   0.615  0.3488 -0.4001  0.1555
 5612TIP3    H216843   2.192   3.838   0.740  0.4037  0.3407  0.3717
 5613TIP3   OH216844   3.560   1.181   0.953 -0.1213 -0.4426  0.1248
 5613TIP3    H116845   3.573   1.181   1.047 -0.8759  0.8845  0.2566
 5613TIP3    H216846   3.511   1.261   0.935  1.1229  0.0206 -1.5517
 5614TIP3   OH216847   5.077   0.229   2.223 -0.3680  0.0601 -0.5010
 5614TIP3    H116848   5.089   0.306   2.279 -1.3449  0.1451 -0.3962
 5614TIP3    H216849   5.161   0.183   2.229  0.0409  0.8262 -0.1277
 5615TIP3   OH216850   2.492   2.495   3.143 -0.3298 -0.2017 -0.1806
 5615TIP3    H116851   2.572   2.514   3.094 -0.4626  0.0974 -0.2816
 5615TIP3    H216852   2.496   2.552   3.220 -0.2591 -0.4658  0.0131
 5616TIP3   OH216853   4.304   2.235   4.820  0.1402 -0.0621 -0.1282
 5616TIP3    H116854   4.290   2.322   4.782  1.9329 -0.1615 -1.0871
 5616TIP3    H216855   4.275   2.174   4.752 -2.3470 -0.2932  1.0201
 5617TIP3   OH216856   1.251   2.547   3.689  0.1293  0.0089  0.4867
 5617TIP3    H116857   1.310   2.520   3.759 -0.9534  0.0471  1.4438
 5617TIP3    H216858   1.265   2.483   3.619  0.3757 -0.7334  1.2010
 5618TIP3   OH216859   0.403   3.817   4.307  0.2413 -0.0675 -0.6819
 5618TIP3    H116860   0.397   3.897   4.359  0.2299  0.6223 -1.7270
 5618TIP3    H216861   0.349   3.834   4.229 -0.7999 -1.5554 -0.3513
 5619TIP3   OH216862   3.847   2.727   5.009 -0.5287 -0.2962 -0.5389
 5619TIP3    H116863   3.759   2.739   4.976  0.1947  1.5964 -1.9795
 5619TIP3    H216864   3.904   2.740   4.933  1.0407  0.2511  0.6498
 5620TIP3   OH216865   2.725   4.355   2.077  0.3948 -0.6518 -0.3272
 5620TIP3    H116866   2.697   4.321   1.992  2.3199 -2.6620 -0.2497
 5620TIP3    H216867   2.752   4.278   2.126 -1.1898  0.3849  2.3836
 5621TIP3   OH216868   3.250   2.753   2.841 -0.1285 -0.4334 -0.6448
 5621TIP3    H116869   3.197   2.783   2.914  1.4873  0.3522  0.2649
 5621TIP3    H216870   3.215   2.799   2.765 -0.4661  0.4170  0.0080
 5622TIP3   OH216871   2.078   1.253   1.256  0.0703 -0.0597  0.2634
 5622TIP3    H116872   2.161   1.262   1.208  0.4876 -2.2448  0.4711
 5622TIP3    H216873   2.099   1.277   1.346 -0.1346  1.6842 -0.1151
 5623TIP3   OH216874   2.016   0.078   3.310 -0.3927 -0.3109 -0.3069
 5623TIP3    H116875   2.005   0.057   3.217  0.2276  1.3572 -0.8030
 5623TIP3    H216876   2.111   0.074   3.324 -0.0157  3.2778 -0.8352
 5624TIP3   OH216877   4.785   2.379   1.402  0.2421 -0.1566 -0.8993
 5624TIP3    H116878   4.784   2.291   1.441  0.1717 -1.0448 -2.7918
 5624TIP3    H216879   4.716   2.426   1.447  0.4862 -0.9635  0.3740
 5625TIP3   OH216880   1.596   5.734   0.657 -0.0542 -0.4383  0.1396
 5625TIP3    H116881   1.592   5.720   0.751 -0.5031 -0.5725  0.1017
 5625TIP3    H216882   1.649   5.814   0.647 -0.6529  0.0210  0.5501
 5626TIP3   OH216883   4.657   5.618   2.173  0.3834 -0.2899 -0.0533
 5626TIP3    H116884   4.733   5.560   2.185 -0.1834 -0.9233  0.5647
 5626TIP3    H216885   4.645   5.660   2.258  1.1010  1.1531 -0.6325
 5627TIP3   OH216886   0.227   1.147   4.849 -0.1194  0.2050  0.4966
 5627TIP3    H116887   0.243   1.205   4.775 -0.8430  0.1563  0.2903
 5627TIP3    H216888   0.309   1.100   4.861 -0.7636 -1.8297 -2.1091
 5628TIP3   OH216889   4.638   2.376   0.920 -0.1371 -0.1034  0.0822
 5628TIP3    H116890   4.580   2.308   0.887  0.6878  0.7268 -3.6245
 5628TIP3    H216891   4.724   2.355   0.881  0.8486  1.3772  1.3497
 5629TIP3   OH216892   1.743   1.273   3.593 -0.0495  0.1717 -0.1579
 5629TIP3    H116893   1.773   1.182   3.599 -2.5148 -0.6609  1.1081
 5629TIP3    H216894   1.730   1.300   3.684 -1.3243  1.0386 -0.5679
 5630TIP3   OH216895   2.749   3.543   0.471  0.6098  0.5570  1.0309
 5630TIP3    H116896   2.755   3.583   0.384 -0.0177  2.2972  1.7298
 5630TIP3    H216897   2.836   3.553   0.508  0.4878  1.2551  1.1589
 5631TIP3   OH216898   5.780   3.811   1.527  0.1989  0.3215  0.4680
 5631TIP3    H116899   5.716   3.840   1.591  0.2564  3.0569 -0.5512
 5631TIP3    H216900   5.728   3.781   1.452  0.0860  0.9037  0.3055
 5632TIP3   OH216901   5.817   2.729   3.023  0.2253 -0.1185  0.4887
 5632TIP3    H116902   5.816   2.812   2.975  0.6333  1.0136  2.3111
 5632TIP3    H216903   5.762   2.746   3.100  0.4060 -1.5111  0.9560
 5633TIP3   OH216904   0.509   4.737   1.790 -0.0639 -0.1409  0.5697
 5633TIP3    H116905   0.452   4.765   1.861  1.5209  0.1512  1.7769
 5633TIP3    H216906   0.556   4.661   1.825  0.3980 -0.2859 -0.3361
 5634TIP3   OH216907   4.081   3.097   2.483 -0.4098  0.5841 -0.2147
 5634TIP3    H116908   4.101   3.047   2.562 -1.5223  1.5848  0.7456
 5634TIP3    H216909   4.040   3.033   2.425  0.9775 -0.3076 -0.2619
 5635TIP3   OH216910   3.715   2.315   3.425 -0.2347  0.0308  0.3610
 5635TIP3    H116911   3.668   2.385   3.471 -0.1948  0.4707 -0.2571
 5635TIP3    H216912   3.790   2.297   3.481 -0.9019 -0.3827  1.1460
 5636TIP3   OH216913   2.120   4.597   3.164  0.1243  0.1088 -0.0609
 5636TIP3    H116914   2.095   4.506   3.175  1.3641 -0.2928 -0.3738
 5636TIP3    H216915   2.039   4.647   3.179 -0.5604 -1.0285  0.1145
 5637TIP3   OH216916   0.434   0.001   2.562  0.4271  0.8076  0.2438
 5637TIP3    H116917   0.438  -0.049   2.643  2.2010 -1.7192 -1.2579
 5637TIP3    H216918   0.383   0.079   2.584  0.8623  0.2521  3.7481
 5638TIP3   OH216919   0.077   3.660   3.057 -0.8672  0.3310 -0.9757
 5638TIP3    H116920   0.099   3.708   2.977  0.1163  2.9843  0.7453
 5638TIP3    H216921   0.132   3.701   3.124 -3.1233 -0.4153  1.4491
 5639TIP3   OH216922   0.802   1.782   2.304  0.6641 -0.0654  0.1804
 5639TIP3    H116923   0.825   1.693   2.330 -0.6176  0.1935  2.5123
 5639TIP3    H216924   0.795   1.830   2.387 -1.2800  1.5142 -0.8016
 5640TIP3   OH216925   3.045   3.768   4.966  0.0705  0.1343  0.2542
 5640TIP3    H116926   3.128   3.815   4.959  0.7167 -1.0116 -0.1834
 5640TIP3    H216927   3.044   3.733   5.055  0.3769 -0.3754  0.0672
 5641TIP3   OH216928   0.893   0.893   3.994  0.6340 -0.2274  0.5979
 5641TIP3    H116929   0.870   0.805   4.026  0.6445 -0.3352  0.3137
 5641TIP3    H216930   0.819   0.918   3.939 -0.0612  0.5624  1.8637
 5642TIP3   OH216931   4.331   4.149   2.698 -0.5964  0.5748  0.0367
 5642TIP3    H116932   4.418   4.180   2.674 -0.1556 -0.3540  0.3862
 5642TIP3    H216933   4.275   4.226   2.689  0.7688  2.0086  2.6870
 5643TIP3   OH216934   2.660   2.706   2.941 -0.1255 -0.7243 -0.3788
 5643TIP3    H116935   2.575   2.741   2.915  1.2821  2.1418 -1.6536
 5643TIP3    H216936   2.658   2.708   3.036 -0.8731  1.2092 -0.3715
 5644TIP3   OH216937   2.828   0.841   4.002  0.2205  0.1815 -0.3277
 5644TIP3    H116938   2.767   0.815   4.071 -0.0897 -0.5028 -0.8500
 5644TIP3    H216939   2.863   0.925   4.032 -0.3032  0.1511  0.4072
 5645TIP3   OH216940   3.841   2.883   2.458  0.2247  0.5663  0.3714
 5645TIP3    H116941   3.841   2.924   2.545  1.0668  1.5770 -0.0932
 5645TIP3    H216942   3.863   2.791   2.476  0.8370  0.8583  1.1900
 5646TIP3   OH216943   2.247   2.124   0.870  0.1285  0.5858 -0.8635
 5646TIP3    H116944   2.161   2.098   0.837 -0.3453  1.4197 -0.3358
 5646TIP3    H216945   2.265   2.065   0.943 -0.2779  0.8076 -0.5834
 5647TIP3   OH216946   4.661   0.455   4.508 -0.0292 -0.3632  0.4858
 5647TIP3    H116947   4.580   0.496   4.538 -1.5275 -1.5971 -1.6394
 5647TIP3    H216948   4.658   0.366   4.542 -0.1522 -0.7666 -0.5509
 5648TIP3   OH216949   1.148   4.070   0.791  0.0974 -0.5964 -0.3399
 5648TIP3    H116950   1.219   4.007   0.777 -0.7101 -1.6865  0.2959
 5648TIP3    H216951   1.140   4.075   0.886  0.9959  1.4793 -0.3250
 5649TIP3   OH216952   1.457   2.789   1.026 -0.4224  0.0916  0.2153
 5649TIP3    H116953   1.418   2.710   1.063 -3.3210  1.2321 -0.1760
 5649TIP3    H216954   1.421   2.795   0.938 -0.8952  2.2349  0.5048
 5650TIP3   OH216955   2.841   3.933   0.147  0.5646  0.7369  0.2127
 5650TIP3    H116956   2.920   3.880   0.149 -0.7992 -1.4124  0.0938
 5650TIP3    H216957   2.801   3.921   0.233 -0.0507  1.1344 -0.0077
 5651TIP3   OH216958   0.648   4.286   0.797  0.4491  0.1897  0.2341
 5651TIP3    H116959   0.608   4.349   0.737 -0.4657 -0.2564  0.3682
 5651TIP3    H216960   0.597   4.206   0.787  0.5482 -0.0256  1.2909
 5652TIP3   OH216961   3.646   3.022   5.044 -0.2475  0.2400 -0.0872
 5652TIP3    H116962   3.563   3.069   5.042  0.4314  1.4698 -0.5490
 5652TIP3    H216963   3.676   3.020   4.953  0.8657  1.0209  0.2355
 5653TIP3   OH216964   5.793   2.794   3.456  0.1354  0.3790 -0.3119
 5653TIP3    H116965   5.770   2.883   3.429 -1.4455  0.2384  0.4650
 5653TIP3    H216966   5.748   2.737   3.393  0.2011  0.1092 -0.1182
 5654TIP3   OH216967   4.070   0.091   0.569 -0.1383 -0.6025 -0.2045
 5654TIP3    H116968   3.978   0.073   0.588 -1.2893  0.3720 -4.0211
 5654TIP3    H216969   4.083   0.181   0.598 -0.2711 -0.8372  0.6129
 5655TIP3   OH216970   0.549   3.274   1.026 -0.2082 -0.0773 -0.0048
 5655TIP3    H116971   0.540   3.179   1.017 -2.5519  0.2723 -2.8842
 5655TIP3    H216972   0.471   3.300   1.074 -0.3668  0.5355 -0.5932
 5656TIP3   OH216973   2.162   2.393   2.393  0.1014  0.0454  0.3258
 5656TIP3    H116974   2.193   2.394   2.483  0.3470 -2.0474  0.3071
 5656TIP3    H216975   2.197   2.474   2.355  1.4737  0.1071  1.6178
 5657TIP3   OH216976   1.024   1.364   1.672  0.5097  0.1463 -0.2786
 5657TIP3    H116977   1.046   1.291   1.729  0.5131 -0.6812 -1.3086
 5657TIP3    H216978   0.969   1.421   1.726 -1.2876 -1.6632 -0.0755
 5658TIP3   OH216979   0.636   3.559   0.941  0.2116  0.1689 -0.3143
 5658TIP3    H116980   0.630   3.464   0.948  1.8501  0.1101  1.1591
 5658TIP3    H216981   0.729   3.576   0.930 -0.2430  1.5530 -2.6416
 5659TIP3   OH216982   0.158   4.137   3.013 -0.2562 -0.6016 -0.0452
 5659TIP3    H116983   0.244   4.180   3.008  0.4475 -2.0635 -2.2003
 5659TIP3    H216984   0.175   4.055   3.059 -0.6270 -0.6196  0.0585
 5660TIP3   OH216985   4.096   2.684   2.014 -0.0511 -0.2984 -0.0048
 5660TIP3    H116986   4.042   2.748   1.968  1.0659 -0.2287 -1.3004
 5660TIP3    H216987   4.039   2.647   2.081 -1.2581  0.7631 -0.4173
 5661TIP3   OH216988   2.599   5.345   4.321 -0.0613  0.2293  0.5417
 5661TIP3    H116989   2.512   5.325   4.287 -0.0391  1.3093 -0.2252
 5661TIP3    H216990   2.651   5.365   4.243  0.9162 -0.5514  0.9838
 5662TIP3   OH216991   3.302   0.706   0.032  0.1163  0.2623 -0.1118
 5662TIP3    H116992   3.312   0.704   0.127  0.6961  0.9956 -0.1440
 5662TIP3    H216993   3.261   0.791   0.014  0.5202  0.3690 -0.5509
 5663TIP3   OH216994   2.295   3.223   4.133  0.0675  0.0622  0.5415
 5663TIP3    H116995   2.353   3.187   4.065 -0.9098  1.7146 -1.2770
 5663TIP3    H216996   2.279   3.313   4.105 -2.4274  0.0304  1.6227
 5664TIP3   OH216997   3.471   1.447   2.830 -0.0333 -0.7244  0.2833
 5664TIP3    H116998   3.377   1.434   2.838 -0.1573  0.1998  0.4371
 5664TIP3    H216999   3.490   1.523   2.885  0.9225 -1.3527  0.8359
 5665TIP3   OH217000   6.192   5.170   4.445  0.2761  0.1102  0.0545
 5665TIP3    H117001   6.128   5.104   4.419 -1.1390  1.0091  1.1195
 5665TIP3    H217002   6.214   5.215   4.363  0.5664 -1.0621 -0.5304
 5666TIP3   OH217003   5.516   0.187   4.252  0.0050  0.2932 -0.3185
 5666TIP3    H117004   5.423   0.180   4.227 -0.5605  2.0746  1.0327
 5666TIP3    H217005   5.522   0.140   4.335  0.8131 -1.5238 -1.3473
 5667TIP3   OH217006   3.582   3.002   2.483 -0.3997 -0.1412 -0.0975
 5667TIP3    H117007   3.662   2.969   2.442 -0.4721  0.8152 -1.0430
 5667TIP3    H217008   3.598   2.992   2.577  1.2345  0.8920 -0.2198
 5668TIP3   OH217009   0.797   5.804   2.546 -0.7681  0.1399 -0.1692
 5668TIP3    H117010   0.764   5.876   2.599 -1.4955  0.3428 -0.8808
 5668TIP3    H217011   0.772   5.827   2.456 -1.6472 -1.3294 -0.3330
 5669TIP3   OH217012   1.180   2.446   0.486 -0.1684 -0.1098  0.0435
 5669TIP3    H117013   1.203   2.525   0.438  0.7981  0.2283  1.0180
 5669TIP3    H217014   1.149   2.479   0.571 -0.5233 -0.7422  0.1625
 5670TIP3   OH217015   0.390   1.487   4.072  0.3207  0.3824 -0.0910
 5670TIP3    H117016   0.311   1.493   4.019 -0.3571  1.2039  0.9839
 5670TIP3    H217017   0.404   1.393   4.085 -1.0771  0.2418  0.5643
 5671TIP3   OH217018   2.699   1.729   2.653  0.1772  0.6164  0.4439
 5671TIP3    H117019   2.751   1.718   2.573 -0.1488 -1.0481  0.4386
 5671TIP3    H217020   2.609   1.712   2.625  0.0789 -0.1369  1.1950
 5672TIP3   OH217021   4.307   1.316   4.945 -0.0635  0.0780  0.3952
 5672TIP3    H117022   4.313   1.269   5.028 -2.5365 -0.1681  0.5234
 5672TIP3    H217023   4.323   1.407   4.968 -0.6805  0.0065  1.1741
 5673TIP3   OH217024   4.169   4.620   3.097 -0.2994  0.1270 -0.1632
 5673TIP3    H117025   4.098   4.556   3.084 -0.7889  1.0003 -2.2455
 5673TIP3    H217026   4.199   4.639   3.008  1.0435  1.4591  0.5515
 5674TIP3   OH217027   2.133   0.625   3.686 -0.8609  0.2096 -0.1139
 5674TIP3    H117028   2.058   0.590   3.637  0.7120 -0.7039 -2.0511
 5674TIP3    H217029   2.176   0.547   3.722 -0.5649  0.6754  0.5615
 5675TIP3   OH217030   3.836   5.812   2.997  0.2158  0.1136  0.3161
 5675TIP3    H117031   3.849   5.898   2.958 -0.8156  1.0383  1.8505
 5675TIP3    H217032   3.863   5.823   3.088  0.8106 -1.4264  0.3546
 5676TIP3   OH217033   0.111   5.778   0.627  0.0571  0.4321  0.0721
 5676TIP3    H117034   0.135   5.846   0.690  1.0675  1.3140 -1.2189
 5676TIP3    H217035   0.074   5.826   0.553  0.1514 -0.4858 -0.5792
 5677TIP3   OH217036   5.559   3.197   3.519  0.0441 -0.2447  0.5987
 5677TIP3    H117037   5.640   3.200   3.468 -0.9910  0.0085 -1.1465
 5677TIP3    H217038   5.539   3.103   3.525  1.4611 -0.4651  2.8056
 5678TIP3   OH217039   0.868   3.245   0.633 -0.6530 -0.2221  0.3481
 5678TIP3    H117040   0.930   3.230   0.562  0.8695  0.0172  1.5856
 5678TIP3    H217041   0.789   3.197   0.606  0.7804 -2.3749 -0.2663
 5679TIP3   OH217042   1.671   4.788   4.498  0.3403  0.1247 -0.7075
 5679TIP3    H117043   1.659   4.769   4.591  0.8924 -1.6356 -0.9693
 5679TIP3    H217044   1.598   4.745   4.455  0.0049  1.0592 -1.1050
 5680TIP3   OH217045   5.113   3.583   5.054 -0.0539 -0.4114  0.6420
 5680TIP3    H117046   5.166   3.504   5.047  0.4305 -0.0262 -0.1885
 5680TIP3    H217047   5.115   3.622   4.966 -1.1375 -0.0173  0.7648
 5681TIP3   OH217048   0.944   3.261   1.702 -0.6109 -0.2339  1.0814
 5681TIP3    H117049   0.951   3.286   1.610 -1.7222 -2.4041  0.3215
 5681TIP3    H217050   1.013   3.195   1.714 -1.1884 -0.7749  1.4744
 5682TIP3   OH217051   2.615   0.160   3.448 -0.0555  0.2280 -0.4154
 5682TIP3    H117052   2.705   0.157   3.417 -0.0509 -2.1592 -0.2991
 5682TIP3    H217053   2.584   0.247   3.421  1.8641  0.6109 -1.5886
 5683TIP3   OH217054   5.544   2.929   5.086  0.1973 -0.0837  0.2154
 5683TIP3    H117055   5.459   2.909   5.124  0.0793 -0.1091 -0.0581
 5683TIP3    H217056   5.607   2.906   5.154  0.0055 -0.4061  0.2867
 5684TIP3   OH217057   5.638   4.012   1.801 -1.1394  0.4953  0.3051
 5684TIP3    H117058   5.576   4.017   1.873 -1.6623  1.0539 -0.1726
 5684TIP3    H217059   5.590   4.045   1.725  0.1508  2.3114  0.1994
 5685TIP3   OH217060   4.803   4.994   3.276 -0.1754  0.4033 -0.2287
 5685TIP3    H117061   4.727   4.947   3.242 -0.9968  0.7394  1.0766
 5685TIP3    H217062   4.877   4.960   3.225 -0.9400 -1.2511 -0.2885
 5686TIP3   OH217063   1.891   4.569   0.617  0.1215 -0.2199  0.2949
 5686TIP3    H117064   1.953   4.637   0.645  0.3413 -0.3636  0.1606
 5686TIP3    H217065   1.917   4.491   0.667 -0.5842 -0.0211  0.9927
 5687TIP3   OH217066   3.812   2.210   1.524 -0.6568  0.1678  0.1200
 5687TIP3    H117067   3.818   2.221   1.619 -0.4333  2.0323 -0.0879
 5687TIP3    H217068   3.736   2.263   1.498 -1.2416 -1.0044 -0.6662
 5688TIP3   OH217069   0.689   5.431   3.584 -0.4075 -0.0791 -0.1123
 5688TIP3    H117070   0.752   5.371   3.625  0.8560  1.4292  0.2747
 5688TIP3    H217071   0.709   5.427   3.491 -0.3934 -0.3379 -0.0982
 5689TIP3   OH217072   2.518   4.066   3.286  0.1866 -0.0987  0.0838
 5689TIP3    H117073   2.517   4.020   3.370  1.4667  0.3940  0.3884
 5689TIP3    H217074   2.510   4.158   3.308  2.4252  0.2109 -0.1517
 5690TIP3   OH217075   1.983   2.351   0.619  0.4601 -0.3714 -0.2232
 5690TIP3    H117076   1.970   2.259   0.643 -0.5792 -0.3943 -0.8254
 5690TIP3    H217077   1.917   2.398   0.670 -0.4473 -0.2062 -1.5179
 5691TIP3   OH217078   1.081   2.332   3.332 -0.4076 -0.0719  0.2589
 5691TIP3    H117079   0.994   2.361   3.307 -0.3469 -0.2093 -0.1087
 5691TIP3    H217080   1.076   2.320   3.427 -0.5326  0.7840  0.3670
 5692TIP3   OH217081   2.159   4.573   4.766  0.0004 -0.3728 -0.5143
 5692TIP3    H117082   2.191   4.487   4.739  0.6216 -0.5997  0.8808
 5692TIP3    H217083   2.233   4.632   4.750  0.1999 -0.4223  0.1994
 5693TIP3   OH217084   0.383   1.962   0.595  0.5848  0.0123 -0.0671
 5693TIP3    H117085   0.308   1.942   0.650  0.1857  1.7807  0.0862
 5693TIP3    H217086   0.387   1.889   0.533 -1.6396  0.1316 -0.4564
 5694TIP3   OH217087   3.864   5.340   1.260  0.2830 -0.3955 -0.2835
 5694TIP3    H117088   3.798   5.398   1.297  1.0388  1.5353 -1.7978
 5694TIP3    H217089   3.818   5.257   1.247 -1.8165  0.8063 -1.0929
 5695TIP3   OH217090   1.444   2.260   2.383 -0.2882  0.5375  0.9061
 5695TIP3    H117091   1.476   2.230   2.468 -0.2606 -1.4496  0.2452
 5695TIP3    H217092   1.376   2.197   2.360 -0.7431  1.4219 -0.2810
 5696TIP3   OH217093   5.258   1.413   2.376 -0.4456 -0.0739 -0.0544
 5696TIP3    H117094   5.183   1.412   2.316 -0.3114 -0.8479 -0.2245
 5696TIP3    H217095   5.236   1.349   2.443  0.4456 -0.9648 -0.5983
 5697TIP3   OH217096   2.918   0.016   2.745  0.1455  0.2328  0.6256
 5697TIP3    H117097   2.876   0.101   2.727 -0.3159  0.0621  0.8658
 5697TIP3    H217098   2.931   0.015   2.840 -0.1780 -0.1102  0.6683
 5698TIP3   OH217099   5.585   1.477   3.358 -0.4768  0.6394  0.2399
 5698TIP3    H117100   5.542   1.499   3.441  0.2372 -1.7175  1.3175
 5698TIP3    H217101   5.523   1.505   3.291 -1.7803  1.1868  1.6194
 5699TIP3   OH217102   4.288   5.257   1.823  0.2967  0.4657 -0.4036
 5699TIP3    H117103   4.316   5.264   1.914  0.5151  0.7754 -0.4944
 5699TIP3    H217104   4.207   5.308   1.819 -1.3137 -1.8534  0.2714
 5700TIP3   OH217105   4.849   4.367   3.523 -0.1680  0.8846  0.6249
 5700TIP3    H117106   4.900   4.380   3.603 -0.7371  2.6935  0.7317
 5700TIP3    H217107   4.912   4.377   3.452  0.0148  1.0401  0.8064
 5701TIP3   OH217108   5.972   4.161   3.888 -0.3361  0.1136 -0.5337
 5701TIP3    H117109   6.025   4.084   3.907 -0.1826  0.4070  0.2432
 5701TIP3    H217110   5.933   4.142   3.803 -1.8966 -1.7015  0.5094
 5702TIP3   OH217111   0.460   2.228   3.869  0.5960 -0.0156 -0.2207
 5702TIP3    H117112   0.551   2.244   3.847  0.5731  0.5726  0.0966
 5702TIP3    H217113   0.457   2.233   3.965  0.6648 -2.3784 -0.0273
 5703TIP3   OH217114   1.438   2.087   0.078  0.0779 -0.8237  0.0996
 5703TIP3    H117115   1.350   2.117   0.057  0.4446  0.7238  0.6453
 5703TIP3    H217116   1.430   1.992   0.084 -1.2969 -0.8109 -0.9977
 5704TIP3   OH217117   4.850   3.361   0.010 -0.4984  0.0463 -0.3146
 5704TIP3    H117118   4.906   3.399   0.078  0.0134  0.3212 -0.8842
 5704TIP3    H217119   4.902   3.367  -0.070 -0.6138 -1.3793 -0.5168
 5705TIP3   OH217120   2.749   2.522   0.975 -0.0230  0.1405  0.7047
 5705TIP3    H117121   2.770   2.439   0.931 -0.0970  0.7012 -0.4233
 5705TIP3    H217122   2.804   2.587   0.931 -1.1651  0.9544  0.4380
 5706TIP3   OH217123   5.429   5.953   4.143  0.3571  0.0843 -0.0368
 5706TIP3    H117124   5.347   5.983   4.105  1.1518 -0.8223 -2.6917
 5706TIP3    H217125   5.434   5.998   4.227 -0.8285  3.5376 -1.6038
 5707TIP3   OH217126   1.105   5.409   1.814  0.0074 -0.1551  0.3949
 5707TIP3    H117127   1.171   5.343   1.793  0.0086 -0.2582  0.7198
 5707TIP3    H217128   1.047   5.410   1.738 -2.2442 -3.2709  1.8139
 5708TIP3   OH217129   4.274   5.552   2.938 -0.4916  0.3281 -0.6089
 5708TIP3    H117130   4.214   5.480   2.918  0.7323 -0.8683 -0.1819
 5708TIP3    H217131   4.242   5.589   3.019  1.1340 -2.5081  1.5360
 5709TIP3   OH217132   2.690   1.825   3.736 -0.2942 -1.1135 -0.4237
 5709TIP3    H117133   2.619   1.794   3.791  0.1137 -0.4147  0.5220
 5709TIP3    H217134   2.770   1.798   3.782  0.0558 -1.0232 -0.9623
 5710TIP3   OH217135   0.114   5.470   1.986 -0.2740 -0.4592 -0.1960
 5710TIP3    H117136   0.143   5.509   2.068 -2.3879  1.5233 -0.2794
 5710TIP3    H217137   0.167   5.391   1.976  2.1307  0.8280  1.5362
 5711TIP3   OH217138   4.334   5.613   2.489  0.2344  0.0626 -0.3814
 5711TIP3    H117139   4.283   5.668   2.430 -1.6607 -1.0449  0.1231
 5711TIP3    H217140   4.301   5.524   2.473  1.9276 -0.6915  0.0886
 5712TIP3   OH217141   4.380   0.625   3.485 -0.3627  0.0274  0.3001
 5712TIP3    H117142   4.308   0.687   3.496 -1.4710 -1.1281 -0.1383
 5712TIP3    H217143   4.359   0.553   3.544  1.3563  0.4115  1.4586
 5713TIP3   OH217144   2.845   2.436   2.041  0.1217  0.1641 -0.1198
 5713TIP3    H117145   2.773   2.441   1.977  0.6980 -2.7458 -1.1376
 5713TIP3    H217146   2.924   2.432   1.988  0.8360  0.5188  0.8937
 5714TIP3   OH217147   3.112   1.147   3.592  0.5040  0.9676 -0.1815
 5714TIP3    H117148   3.148   1.208   3.528  1.9569 -0.2773 -0.5937
 5714TIP3    H217149   3.165   1.068   3.583 -0.4963  0.0866  1.2397
 5715TIP3   OH217150   0.340   2.501   4.101 -0.2958 -0.4381  0.0761
 5715TIP3    H117151   0.276   2.517   4.171 -1.3259  0.3779 -1.0014
 5715TIP3    H217152   0.293   2.525   4.021  1.3787  0.1637 -0.7532
 5716TIP3   OH217153   0.802   0.479   1.731 -0.6011 -0.2015 -0.0495
 5716TIP3    H117154   0.788   0.568   1.763 -0.4828  0.2288 -1.1660
 5716TIP3    H217155   0.848   0.435   1.802 -0.3949  0.7132  0.3917
 5717TIP3   OH217156   3.970   0.131   2.776  0.2416 -0.2754 -0.1596
 5717TIP3    H117157   4.035   0.150   2.708 -1.0105  3.6099 -0.5175
 5717TIP3    H217158   4.002   0.176   2.853 -1.0487 -0.0138  0.2346
 5718TIP3   OH217159   1.664   5.747   1.867  0.0109 -0.0714 -0.3249
 5718TIP3    H117160   1.612   5.826   1.851 -0.8099 -1.1841 -4.0520
 5718TIP3    H217161   1.740   5.778   1.916 -0.0147  3.1783 -2.0721
 5719TIP3   OH217162   6.099   1.821   0.567  0.1191 -0.0709 -0.0307
 5719TIP3    H117163   6.043   1.889   0.529  0.3680  0.5270  0.6438
 5719TIP3    H217164   6.186   1.841   0.534  0.0264 -0.7164 -0.6940
 5720TIP3   OH217165   4.084   2.166   2.408  0.3028 -0.4770 -0.1311
 5720TIP3    H117166   4.124   2.253   2.398 -0.5471  0.0298  0.7184
 5720TIP3    H217167   4.087   2.149   2.502 -1.6965 -0.2982  0.0060
 5721TIP3   OH217168   2.236   0.562   1.490 -0.3676  0.2374 -0.2285
 5721TIP3    H117169   2.243   0.644   1.441  0.8882 -0.1000 -0.6749
 5721TIP3    H217170   2.238   0.588   1.582 -1.4243  0.7893 -0.3466
 5722TIP3   OH217171   5.939   1.613   0.691  0.6784  0.0193 -0.3820
 5722TIP3    H117172   5.856   1.622   0.644  0.6584 -0.4885 -0.4469
 5722TIP3    H217173   6.004   1.649   0.632  0.3507  1.7162  0.2169
 5723TIP3   OH217174   1.486   4.372   2.713  0.8612 -0.1979  0.0557
 5723TIP3    H117175   1.505   4.286   2.676  0.4844  0.1638 -1.0292
 5723TIP3    H217176   1.543   4.432   2.665  1.1092  0.1627  0.7911
 5724TIP3   OH217177   0.373   1.633   4.733  0.0410  0.1519 -0.1011
 5724TIP3    H117178   0.330   1.683   4.802 -1.3097  0.1834 -0.9158
 5724TIP3    H217179   0.461   1.617   4.766 -0.0254  1.6022  0.9059
 5725TIP3   OH217180   1.375   5.560   0.822 -0.0789  0.3003 -0.5296
 5725TIP3    H117181   1.297   5.603   0.785  0.1262  0.3916 -0.8548
 5725TIP3    H217182   1.435   5.632   0.842  0.8353  0.0935 -2.3785
 5726TIP3   OH217183   3.572   2.079   0.273  0.1343  0.0266 -0.0049
 5726TIP3    H117184   3.612   2.166   0.281  1.7939 -0.8409  1.9192
 5726TIP3    H217185   3.483   2.091   0.307 -0.0939  1.2021 -0.9208
 5727TIP3   OH217186   2.629   1.130   0.715 -0.2594 -0.0181  0.2948
 5727TIP3    H117187   2.594   1.112   0.802  0.2235 -1.6720  0.1851
 5727TIP3    H217188   2.552   1.139   0.659 -0.5636 -1.4182  0.4561
 5728TIP3   OH217189   5.578   2.641   0.249  0.1961 -0.7712  0.0300
 5728TIP3    H117190   5.504   2.681   0.204  1.2534  1.0906 -0.1838
 5728TIP3    H217191   5.613   2.712   0.303  2.2204 -1.3719 -0.4165
 5729TIP3   OH217192   2.225   5.468   3.843  0.3761  0.1091  0.3648
 5729TIP3    H117193   2.205   5.375   3.859  0.5747  0.0230  0.1132
 5729TIP3    H217194   2.164   5.515   3.900  1.8139 -0.2183  2.2938
 5730TIP3   OH217195   5.225   0.700   2.624  0.1333  0.1560 -0.0466
 5730TIP3    H117196   5.170   0.695   2.545 -0.7475  1.1058  0.4784
 5730TIP3    H217197   5.214   0.790   2.654 -0.9156 -0.6359  2.1227
 5731TIP3   OH217198   0.635   1.022   2.904  0.1654 -0.6084 -0.1772
 5731TIP3    H117199   0.706   0.966   2.871  1.0167  0.1383  0.3261
 5731TIP3    H217200   0.597   1.061   2.826  2.2621  1.2710 -0.3690
 5732TIP3   OH217201   1.189   3.857   0.186  0.3681  0.4030 -0.4688
 5732TIP3    H117202   1.229   3.943   0.179 -1.2871  1.3884  1.2214
 5732TIP3    H217203   1.188   3.838   0.280 -3.4228  0.6847 -0.3155
 5733TIP3   OH217204   1.682   3.834   1.224  0.0125  0.7392  0.0231
 5733TIP3    H117205   1.632   3.753   1.232 -0.5821  1.2267  1.7138
 5733TIP3    H217206   1.699   3.861   1.315  3.0091  0.8215 -0.4654
 5734TIP3   OH217207   5.843   0.997   4.481  0.4068  0.3378 -0.1398
 5734TIP3    H117208   5.920   1.036   4.522  2.0125  0.6669 -3.1568
 5734TIP3    H217209   5.879   0.937   4.415 -1.8952  0.9380 -2.0885
 5735TIP3   OH217210   2.776   0.068   0.344 -0.4361 -0.3400 -0.1787
 5735TIP3    H117211   2.784  -0.027   0.334 -0.9606 -0.4206  0.1133
 5735TIP3    H217212   2.863   0.102   0.322 -0.4077 -0.8358 -0.8642
 5736TIP3   OH217213   5.620   4.322   0.895 -0.4552 -0.2044  0.4630
 5736TIP3    H117214   5.562   4.268   0.841 -0.1356  0.4827 -0.6037
 5736TIP3    H217215   5.647   4.264   0.966 -2.0196 -0.6879  0.6912
 5737TIP3   OH217216   2.326   1.014   0.680 -0.1074 -0.2699  0.3567
 5737TIP3    H117217   2.252   0.959   0.654 -1.1061  1.8796 -1.6717
 5737TIP3    H217218   2.391   0.952   0.713 -0.9398 -2.7591 -2.2674
 5738TIP3   OH217219   5.352   5.723   1.131 -0.0539  0.7655 -0.3635
 5738TIP3    H117220   5.392   5.807   1.110  0.4601  0.6531  0.1320
 5738TIP3    H217221   5.258   5.741   1.137  0.2451  1.9424  2.5555
 5739TIP3   OH217222   0.789   5.785   2.247 -0.2066 -0.1274  0.6423
 5739TIP3    H117223   0.701   5.750   2.237 -0.8915  0.8278  2.7217
 5739TIP3    H217224   0.776   5.877   2.273  1.3081 -0.3331  2.4142
 5740TIP3   OH217225   1.869   4.189   3.375 -0.4839  0.7114  0.4382
 5740TIP3    H117226   1.867   4.279   3.405  1.2580  1.2296 -0.8097
 5740TIP3    H217227   1.820   4.189   3.293 -1.9642  0.1258  1.2981
 5741TIP3   OH217228   3.085   2.324   3.088 -0.0670 -0.4069 -0.1159
 5741TIP3    H117229   3.175   2.300   3.066  0.4212  1.0664  0.1780
 5741TIP3    H217230   3.031   2.261   3.040  1.0245  0.3923 -2.5439
 5742TIP3   OH217231   5.271   3.122   1.279 -0.2968  1.2234 -0.2501
 5742TIP3    H117232   5.350   3.167   1.308  0.1728 -0.0352  0.4948
 5742TIP3    H217233   5.264   3.046   1.337 -1.9243  1.1840 -0.4627
 5743TIP3   OH217234   5.315   0.676   0.425 -0.3081 -0.0209  0.0499
 5743TIP3    H117235   5.325   0.703   0.516  0.3284  1.9500 -0.5542
 5743TIP3    H217236   5.405   0.664   0.394 -0.4402  0.9168 -0.7405
 5744TIP3   OH217237   3.489   3.014   1.374  0.2121 -0.2383 -0.5395
 5744TIP3    H117238   3.479   2.986   1.283  2.5265 -2.1382 -0.3278
 5744TIP3    H217239   3.516   3.106   1.368 -1.3050  0.1824 -1.6237
 5745TIP3   OH217240   3.472   0.513   3.594  0.2193  0.0134 -0.1158
 5745TIP3    H117241   3.409   0.574   3.631  0.3299 -0.1205  0.2914
 5745TIP3    H217242   3.548   0.568   3.572  0.8437 -0.1586  1.4646
 5746TIP3   OH217243   5.634   2.660   3.273  0.2850 -0.1283 -0.3184
 5746TIP3    H117244   5.657   2.568   3.288 -0.5303 -0.4183 -0.7829
 5746TIP3    H217245   5.549   2.656   3.229  0.9172  0.8082 -1.6732
 5747TIP3   OH217246   4.774   2.905   3.161 -0.3705  0.2039 -1.4055
 5747TIP3    H117247   4.795   2.917   3.253  1.5184  0.5017 -1.8436
 5747TIP3    H217248   4.856   2.877   3.121 -1.2966 -0.4837 -2.9017
 5748TIP3   OH217249   4.278   5.476   1.083  0.4611 -0.0639 -0.0718
 5748TIP3    H117250   4.183   5.469   1.093  0.5050 -1.5741 -0.3972
 5748TIP3    H217251   4.291   5.528   1.004 -0.0939  0.2626  0.0536
 5749TIP3   OH217252   2.213   5.180   3.947  0.1779 -0.4927  0.4250
 5749TIP3    H117253   2.269   5.158   3.872 -1.2722 -3.5303  0.1066
 5749TIP3    H217254   2.254   5.135   4.021  0.1641  0.3542  0.9622
 5750TIP3   OH217255   3.637   2.660   1.936  0.2941 -0.3989 -0.1657
 5750TIP3    H117256   3.681   2.743   1.922  0.8852 -0.3047  1.9613
 5750TIP3    H217257   3.544   2.680   1.927  0.5052  0.0114 -1.7557
 5751TIP3   OH217258   5.977   3.560   0.350  0.0375  0.5010 -0.3446
 5751TIP3    H117259   6.032   3.583   0.275  1.6286  1.4097  1.0256
 5751TIP3    H217260   6.033   3.578   0.426 -0.9572 -1.8855  1.0318
 5752TIP3   OH217261   3.041   0.589   4.039  0.3331 -0.5334 -0.0025
 5752TIP3    H117262   3.003   0.511   4.000  1.1757 -1.7328  1.4811
 5752TIP3    H217263   2.994   0.662   3.997  2.8856 -1.4030 -5.2829
 5753TIP3   OH217264   4.174   0.349   3.583 -0.0772 -0.1316  0.3274
 5753TIP3    H117265   4.215   0.265   3.559  0.7600  0.5389 -0.6852
 5753TIP3    H217266   4.134   0.380   3.501 -0.3940  0.4480  0.6989
 5754TIP3   OH217267   4.415   1.467   4.323  0.0291  0.2369 -0.3543
 5754TIP3    H117268   4.493   1.423   4.357 -0.8357  0.4082  2.0034
 5754TIP3    H217269   4.426   1.559   4.347 -1.2410  0.1277  0.7277
 5755TIP3   OH217270   0.505   5.509   0.563  0.0249 -0.0629 -0.2350
 5755TIP3    H117271   0.438   5.494   0.630  1.6432  0.9326  1.7142
 5755TIP3    H217272   0.555   5.428   0.561 -0.6953 -0.4961 -1.0703
 5756TIP3   OH217273   5.907   2.191   3.848  0.3326  0.3793  0.4734
 5756TIP3    H117274   5.984   2.141   3.874  0.4187  0.6880  0.8200
 5756TIP3    H217275   5.842   2.172   3.915 -0.3838 -0.9777 -0.5438
 5757TIP3   OH217276   0.576   5.147   3.890  0.7709 -0.3609  0.7076
 5757TIP3    H117277   0.581   5.146   3.794  0.3864 -2.5684  0.6568
 5757TIP3    H217278   0.496   5.197   3.909  1.6520  1.4181 -0.0122
 5758TIP3   OH217279   4.724   5.081   2.672 -0.3893  0.4741  0.0789
 5758TIP3    H117280   4.792   5.093   2.739 -1.0657 -1.4608  1.1822
 5758TIP3    H217281   4.642   5.100   2.717 -0.7196  1.1897 -0.7961
 5759TIP3   OH217282   0.024   2.448   1.598 -0.3677  0.5581  0.3151
 5759TIP3    H117283  -0.034   2.391   1.548  0.3236  1.2841 -1.3970
 5759TIP3    H217284   0.033   2.405   1.683 -0.7038 -1.3370 -0.5629
 5760TIP3   OH217285   2.203   4.232   0.481  0.0690 -0.2359  0.3874
 5760TIP3    H117286   2.220   4.288   0.405  0.6931 -0.1021  0.6183
 5760TIP3    H217287   2.258   4.155   0.468  0.4550 -0.0487  0.8769
 5761TIP3   OH217288   6.211   0.736   2.653  0.2279  0.3176  0.2673
 5761TIP3    H117289   6.198   0.825   2.618 -0.4409  0.1009 -0.0638
 5761TIP3    H217290   6.231   0.683   2.576 -0.3841  0.0010  0.3185
 5762TIP3   OH217291   2.916   1.586   0.596  0.9071  0.1946 -0.0203
 5762TIP3    H117292   2.953   1.585   0.684  1.4852  0.7335 -0.2460
 5762TIP3    H217293   2.837   1.532   0.602  0.8138  0.4175  0.8821
 5763TIP3   OH217294   2.975   3.980   3.751  0.2240 -0.0507  0.0392
 5763TIP3    H117295   2.967   3.963   3.657  0.6919 -0.7158  0.1070
 5763TIP3    H217296   2.886   3.996   3.780  0.2376  1.6451 -0.7756
 5764TIP3   OH217297   0.598   0.592   0.895 -0.3949  0.0929 -0.0254
 5764TIP3    H117298   0.594   0.568   0.803  1.1170  0.6609 -0.2694
 5764TIP3    H217299   0.669   0.539   0.931 -2.0954 -1.4287  1.2671
 5765TIP3   OH217300   1.025   3.612   0.234  0.0882 -0.2304  0.1621
 5765TIP3    H117301   0.960   3.587   0.169  1.1199 -1.0174 -0.6157
 5765TIP3    H217302   1.063   3.694   0.201 -0.5084  0.2403  0.6265
 5766TIP3   OH217303   1.672   3.889   3.322  0.3193 -0.2575 -0.2490
 5766TIP3    H117304   1.604   3.887   3.390  3.7139  1.2649  3.6441
 5766TIP3    H217305   1.670   3.978   3.287  2.2973  1.0321  2.5018
 5767TIP3   OH217306   4.012   0.131   3.091 -0.4447  0.1609  0.3628
 5767TIP3    H117307   3.965   0.049   3.076 -1.2640  0.9440 -1.8138
 5767TIP3    H217308   3.975   0.167   3.171  0.2905 -1.7973  1.6438
 5768TIP3   OH217309   3.905   2.165   0.192 -0.0297  0.1307 -0.7325
 5768TIP3    H117310   3.927   2.129   0.107  0.6574 -1.3356  0.0408
 5768TIP3    H217311   3.821   2.124   0.215  1.0662 -1.5822  0.4356
 5769TIP3   OH217312   6.259   1.618   2.211 -0.0128  0.3834  0.8048
 5769TIP3    H117313   6.270   1.601   2.118 -0.4716 -1.4308  1.0574
 5769TIP3    H217314   6.345   1.601   2.249 -0.3054 -0.8192  0.9632
 5770TIP3   OH217315   0.248   1.593   4.482  0.6520  0.2444 -0.3349
 5770TIP3    H117316   0.277   1.614   4.570 -0.2443  1.1496 -0.2289
 5770TIP3    H217317   0.326   1.559   4.438  2.3488  3.9164 -0.5289
 5771TIP3   OH217318   5.227   3.505   1.735  0.3240  0.0532 -0.0848
 5771TIP3    H117319   5.263   3.465   1.815 -1.7737 -0.5879  0.5975
 5771TIP3    H217320   5.296   3.493   1.670  0.9888 -1.9892  0.8949
 5772TIP3   OH217321   4.268   0.712   2.063  0.3005 -0.0396 -0.1921
 5772TIP3    H117322   4.188   0.749   2.026  0.6382 -0.0249 -0.9213
 5772TIP3    H217323   4.267   0.739   2.155  0.8185  2.3107 -0.8167
 5773TIP3   OH217324   2.818   5.052   3.440 -0.0264  0.6532 -0.1635
 5773TIP3    H117325   2.902   5.089   3.415  0.0777 -0.1980 -1.1111
 5773TIP3    H217326   2.787   5.108   3.511 -0.0532  2.7849 -1.7758
 5774TIP3   OH217327   0.429   0.336   3.510 -0.0626  0.0740 -0.3299
 5774TIP3    H117328   0.342   0.313   3.543  1.3293 -1.4426  2.6158
 5774TIP3    H217329   0.412   0.391   3.433 -3.5959 -1.8462 -1.0994
 5775TIP3   OH217330   0.760   0.312   0.589  0.2098  0.0631 -0.7286
 5775TIP3    H117331   0.817   0.246   0.549 -0.2065 -0.8646  0.1644
 5775TIP3    H217332   0.813   0.351   0.659 -0.1216 -0.5548 -0.1256
 5776TIP3   OH217333   5.152   2.028   1.380 -0.1415  0.2341 -0.0462
 5776TIP3    H117334   5.084   2.027   1.448 -0.3663 -0.0877 -0.2737
 5776TIP3    H217335   5.230   2.061   1.424 -0.7288  1.6964 -0.0406
 5777TIP3   OH217336   4.817   4.790   3.686 -0.0825  0.1460 -0.6641
 5777TIP3    H117337   4.847   4.881   3.679  0.5881 -0.0700 -0.6055
 5777TIP3    H217338   4.843   4.762   3.773  0.8141 -0.4913 -1.1215
 5778TIP3   OH217339   0.623   4.248   1.298  0.9926  0.2104 -0.7479
 5778TIP3    H117340   0.650   4.187   1.367  1.1592  0.7272 -0.3483
 5778TIP3    H217341   0.690   4.317   1.300  0.4945  0.7001 -0.8039
 5779TIP3   OH217342   0.185   1.612   0.897 -0.2827 -0.1823 -0.5350
 5779TIP3    H117343   0.193   1.652   0.984 -0.4983  2.2470 -1.5605
 5779TIP3    H217344   0.275   1.608   0.864 -0.3921  0.9024 -1.0087
 5780TIP3   OH217345   1.141   2.192   1.868 -0.1030 -0.0009 -0.0632
 5780TIP3    H117346   1.177   2.225   1.950 -0.7529  0.9562 -0.1432
 5780TIP3    H217347   1.066   2.249   1.851  0.7014  0.5610 -1.9163
 5781TIP3   OH217348   1.890   5.520   4.347 -0.0177  0.0968 -0.1410
 5781TIP3    H117349   1.946   5.597   4.350 -0.1900  0.2015  0.7241
 5781TIP3    H217350   1.803   5.553   4.327 -0.0161  0.0815 -0.1732
 5782TIP3   OH217351   3.698   3.931   4.699  0.2195 -0.1850  0.0804
 5782TIP3    H117352   3.724   3.918   4.607 -0.4181  0.4590 -0.2023
 5782TIP3    H217353   3.772   3.976   4.739  1.0146 -1.5548  0.2055
 5783TIP3   OH217354   2.862   4.908   3.933 -0.1720 -0.2711  0.2565
 5783TIP3    H117355   2.869   4.820   3.894  0.3197 -0.1717  0.1184
 5783TIP3    H217356   2.774   4.938   3.908  1.0238  0.8576 -3.0430
 5784TIP3   OH217357   5.100   0.909   4.681  0.1965  0.3797  0.1494
 5784TIP3    H117358   5.017   0.916   4.728  0.7020  1.5678  0.9214
 5784TIP3    H217359   5.076   0.885   4.592 -1.0624  1.8049  0.0785
 5785TIP3   OH217360   2.464   4.711   0.556  0.6603 -0.0947  0.1722
 5785TIP3    H117361   2.534   4.674   0.501  0.1316 -1.5161  0.4123
 5785TIP3    H217362   2.445   4.796   0.517 -1.1799 -1.8577 -3.2565
 5786TIP3   OH217363   4.556   1.058   4.814  0.1152  0.4380  0.3451
 5786TIP3    H117364   4.548   1.016   4.900  1.6313 -0.1915  0.2031
 5786TIP3    H217365   4.497   1.008   4.758  0.3696 -0.2213  0.6536
 5787TIP3   OH217366   0.081   0.988   3.865  0.2792  0.2044 -0.0651
 5787TIP3    H117367   0.047   1.077   3.870  2.6881  1.2513 -1.1944
 5787TIP3    H217368   0.005   0.935   3.839 -0.7390  2.2442 -1.5191
 5788TIP3   OH217369   3.468   2.960   1.086  0.2171 -0.3391  0.4016
 5788TIP3    H117370   3.549   2.918   1.056  0.9309 -0.1610  2.0014
 5788TIP3    H217371   3.399   2.914   1.039  1.0459 -2.5873  1.2676
 5789TIP3   OH217372   0.818   5.399   2.993  0.6721  0.1460  0.0650
 5789TIP3    H117373   0.860   5.363   2.915 -0.0419 -2.9652  0.9488
 5789TIP3    H217374   0.865   5.360   3.066 -1.2624 -0.3910  1.1101
 5790TIP3   OH217375   1.147   2.886   4.111  0.2521  0.7009 -0.6252
 5790TIP3    H117376   1.230   2.875   4.063 -0.2987 -0.2719 -1.4108
 5790TIP3    H217377   1.160   2.840   4.193 -0.0321 -0.8932 -1.4356
 5791TIP3   OH217378   5.846   1.799   1.203  0.0548  0.0293 -1.0602
 5791TIP3    H117379   5.838   1.828   1.294  1.7767 -1.4033 -0.3932
 5791TIP3    H217380   5.799   1.716   1.200 -0.8066  0.5189 -1.7588
 5792TIP3   OH217381   2.147   0.532   4.101  0.2981 -0.2267  0.4299
 5792TIP3    H117382   2.110   0.590   4.168 -1.2684 -1.6228  0.8472
 5792TIP3    H217383   2.084   0.536   4.029  0.9456 -0.2861 -0.1529
 5793TIP3   OH217384   1.819   0.756   4.698 -0.4390 -0.3506 -0.3481
 5793TIP3    H117385   1.837   0.688   4.763 -2.4014  0.3378  1.0145
 5793TIP3    H217386   1.905   0.776   4.660  0.5485 -1.8345  0.9645
 5794TIP3   OH217387   0.059   2.774   2.554  0.4105  0.1919  0.0904
 5794TIP3    H117388   0.091   2.813   2.636 -2.1421  2.2488  0.2410
 5794TIP3    H217389  -0.009   2.712   2.582  0.1106  0.2846 -0.4269
 5795TIP3   OH217390   2.454   0.328   0.264  0.5907 -0.3714  0.8759
 5795TIP3    H117391   2.520   0.396   0.250  0.3274  0.0163  1.4841
 5795TIP3    H217392   2.477   0.290   0.349 -0.3518  0.2250  1.4197
 5796TIP3   OH217393   3.164   1.992   0.995  0.1247  0.1063 -0.5960
 5796TIP3    H117394   3.130   2.078   1.021 -0.6974 -0.1813 -0.6947
 5796TIP3    H217395   3.242   2.012   0.943 -0.2361  0.8028 -0.8890
 5797TIP3   OH217396   2.506   1.971   0.264 -0.1551  0.4142 -0.1406
 5797TIP3    H117397   2.427   1.917   0.256  0.0347  0.2683 -1.0531
 5797TIP3    H217398   2.498   2.011   0.351 -1.5886  0.9725 -0.5121
 5798TIP3   OH217399   4.984   0.673   1.063 -0.3756 -0.0081 -0.0202
 5798TIP3    H117400   5.052   0.700   1.125  0.3609 -1.0763 -0.3335
 5798TIP3    H217401   4.955   0.587   1.094  0.0924 -0.6180 -1.1979
 5799TIP3   OH217402   6.149   3.953   3.579 -0.4733  0.1605 -0.1056
 5799TIP3    H117403   6.081   3.931   3.643 -1.2801  4.0624  0.6193
 5799TIP3    H217404   6.229   3.961   3.631 -0.3528 -0.2004 -0.2306
 5800TIP3   OH217405   0.949   2.474   1.527 -0.0298  0.0174  0.7817
 5800TIP3    H117406   0.971   2.566   1.509  0.6907  0.1175  2.0458
 5800TIP3    H217407   0.854   2.469   1.513  0.1605  0.5724 -0.7936
 5801TIP3   OH217408   6.031   5.211   1.583 -0.1170 -0.1433  0.2022
 5801TIP3    H117409   5.967   5.167   1.528  0.5891 -0.7467 -0.1417
 5801TIP3    H217410   6.115   5.199   1.538  0.1066  1.5450  0.0905
 5802TIP3   OH217411   4.467   2.611   2.761  0.2260 -1.3553 -0.0506
 5802TIP3    H117412   4.552   2.654   2.753 -1.1358  1.7726  0.4355
 5802TIP3    H217413   4.436   2.635   2.848 -1.5833 -1.4846 -0.6057
 5803TIP3   OH217414   6.088   4.438   2.024 -0.5779  0.6271 -0.6259
 5803TIP3    H117415   6.142   4.465   1.950 -0.7544  1.4619 -0.4618
 5803TIP3    H217416   6.148   4.439   2.099 -0.4121 -0.1637 -0.7392
 5804TIP3   OH217417   5.872   4.919   0.369  0.2215 -0.6904  0.0090
 5804TIP3    H117418   5.842   4.935   0.458  1.2489 -0.6883  0.3710
 5804TIP3    H217419   5.925   4.839   0.375  0.2258 -0.7389 -0.6127
 5805TIP3   OH217420   0.970   3.072   2.559 -0.3225 -0.3812 -0.1275
 5805TIP3    H117421   0.876   3.087   2.573  0.0231  1.2510  0.6195
 5805TIP3    H217422   1.009   3.081   2.646  0.7234  0.6413 -0.6745
 5806TIP3   OH217423   4.127   1.165   0.694  0.1613 -0.0210 -0.0401
 5806TIP3    H117424   4.111   1.075   0.665 -0.7139 -0.0495  0.4804
 5806TIP3    H217425   4.157   1.156   0.784  0.5255  0.1882 -0.1402
 5807TIP3   OH217426   3.765   1.655   5.050 -0.7685  0.1873 -0.1477
 5807TIP3    H117427   3.837   1.622   4.995  0.1923 -0.2964  1.3405
 5807TIP3    H217428   3.751   1.586   5.115 -2.3033  0.4837 -0.1252
 5808TIP3   OH217429   5.020   5.217   1.282  0.4401  0.2168 -0.3232
 5808TIP3    H117430   4.973   5.139   1.251 -1.0273  1.8993 -2.5842
 5808TIP3    H217431   4.951   5.279   1.304  1.6056  1.1784  0.7252
 5809TIP3   OH217432   1.683   2.453   1.509  0.7266 -0.6133 -0.1655
 5809TIP3    H117433   1.606   2.397   1.500  1.0720 -0.8443 -2.2155
 5809TIP3    H217434   1.723   2.426   1.592 -0.9219 -1.0505  0.5274
 5810TIP3   OH217435   2.888   0.164   3.364 -0.0704 -0.3039  0.0966
 5810TIP3    H117436   2.863   0.234   3.304 -0.5779 -1.6974 -1.3917
 5810TIP3    H217437   2.974   0.190   3.397 -0.4068  1.1846 -0.1397
 5811TIP3   OH217438   5.410   1.639   3.988 -0.4589  0.4726 -0.3303
 5811TIP3    H117439   5.438   1.679   4.070 -3.0482 -2.3930  2.2445
 5811TIP3    H217440   5.490   1.609   3.946  0.9080 -0.8147  2.8689
 5812TIP3   OH217441   5.588   1.093   1.626  0.9353  0.3551 -0.2013
 5812TIP3    H117442   5.633   1.061   1.548  0.2996  0.1348 -0.4832
 5812TIP3    H217443   5.571   1.185   1.608 -1.5035 -0.2659 -1.4528
 5813TIP3   OH217444   4.938   2.859   0.228 -0.2632 -0.0745 -0.2861
 5813TIP3    H117445   4.961   2.893   0.142  0.2176 -0.9450 -0.5197
 5813TIP3    H217446   5.013   2.878   0.283 -0.2378 -0.2316 -0.2664
 5814TIP3   OH217447   3.563   4.818   1.936  0.2590 -0.1156 -0.3691
 5814TIP3    H117448   3.624   4.747   1.956  0.3479 -0.6213 -2.2103
 5814TIP3    H217449   3.604   4.865   1.863 -1.5424 -0.5065 -1.7016
 5815TIP3   OH217450   5.165   2.152   4.153 -0.6482  0.1757 -0.0827
 5815TIP3    H117451   5.097   2.092   4.122 -1.1401 -0.5781  2.2677
 5815TIP3    H217452   5.131   2.239   4.133 -0.7049 -0.2413 -1.9913
 5816TIP3   OH217453   1.862   4.316   2.096  0.2336 -0.5024 -0.8548
 5816TIP3    H117454   1.826   4.240   2.141 -2.6998  1.2416  0.0038
 5816TIP3    H217455   1.902   4.280   2.017  0.5706 -3.0623  0.3575
 5817TIP3   OH217456   0.335   2.357   2.583 -0.0255 -0.4568 -0.0121
 5817TIP3    H117457   0.281   2.422   2.628  0.4328  0.7071 -1.0913
 5817TIP3    H217458   0.271   2.295   2.546 -0.4378 -0.9936  1.5231
 5818TIP3   OH217459   2.043   3.707   4.470  0.3034 -0.2159  0.1208
 5818TIP3    H117460   2.127   3.661   4.475  0.4002  0.0259  0.7602
 5818TIP3    H217461   2.001   3.671   4.392 -0.1902 -2.3491  1.2971
 5819TIP3   OH217462   4.742   3.655   1.020  0.1835  0.0857 -0.1972
 5819TIP3    H117463   4.740   3.569   0.979 -1.9693  0.1033 -0.2473
 5819TIP3    H217464   4.689   3.711   0.963  1.5854  1.4960 -0.2088
 5820TIP3   OH217465   4.722   0.696   5.008 -0.2224  0.3284 -0.2426
 5820TIP3    H117466   4.724   0.629   4.939  0.3821  0.9082 -0.8014
 5820TIP3    H217467   4.680   0.652   5.082  0.6973 -0.8750 -0.3866
 5821TIP3   OH217468   4.224   1.911   4.854 -0.0659  0.7552  0.1230
 5821TIP3    H117469   4.175   1.851   4.911 -1.6558  0.4584 -1.4492
 5821TIP3    H217470   4.160   1.978   4.830  0.3173  0.4601 -1.8671
 5822TIP3   OH217471   5.965   0.608  -0.011 -0.0598  0.2976  0.3126
 5822TIP3    H117472   6.034   0.611   0.056 -0.1506  1.2518  0.3770
 5822TIP3    H217473   5.897   0.667   0.022 -0.5807 -0.0555 -0.1099
 5823TIP3   OH217474   3.216   4.118   4.138 -0.6914 -0.2332 -0.5552
 5823TIP3    H117475   3.151   4.155   4.077 -0.8373 -0.2862 -0.4340
 5823TIP3    H217476   3.300   4.136   4.097 -0.6480  1.7148  0.2840
 5824TIP3   OH217477   3.669   3.325   1.099  0.0474 -0.0622  0.4753
 5824TIP3    H117478   3.746   3.280   1.135  0.8287  0.5183 -0.4376
 5824TIP3    H217479   3.595   3.272   1.128  0.8579 -1.2127  0.5087
 5825TIP3   OH217480   5.626   4.560   4.925 -0.3779  0.0856 -0.0947
 5825TIP3    H117481   5.560   4.623   4.895  1.2091  1.9473  0.1020
 5825TIP3    H217482   5.631   4.575   5.020  1.1250  0.8382 -0.2683
 5826TIP3   OH217483   3.345   0.117   0.883  0.0717 -0.5757  0.1236
 5826TIP3    H117484   3.441   0.110   0.884 -0.0249 -2.2944  1.4169
 5826TIP3    H217485   3.315   0.050   0.944 -2.1058 -2.3176 -2.5911
 5827TIP3   OH217486   4.007   5.696   3.684 -0.0138 -0.4871 -0.7130
 5827TIP3    H117487   4.059   5.680   3.762 -1.5285  1.3296  0.7750
 5827TIP3    H217488   3.932   5.637   3.693 -0.8941  0.6800  0.0006
 5828TIP3   OH217489   4.671   0.511   4.180 -0.9548 -0.3647  0.2873
 5828TIP3    H117490   4.695   0.488   4.270 -1.1389  1.7873  0.9402
 5828TIP3    H217491   4.689   0.604   4.174  0.5369 -0.7210 -2.4149
 5829TIP3   OH217492   0.799   3.437   4.613 -0.0962 -0.4371 -0.2551
 5829TIP3    H117493   0.852   3.494   4.669  1.9410 -1.1692 -1.3257
 5829TIP3    H217494   0.789   3.486   4.531  0.2282 -0.9205 -0.5879
 5830TIP3   OH217495   0.193   4.757   3.540 -0.5851  0.8321  0.2124
 5830TIP3    H117496   0.114   4.704   3.530 -1.0230  1.7442 -1.7721
 5830TIP3    H217497   0.168   4.827   3.599 -1.0955  0.7859  0.0574
 5831TIP3   OH217498   5.004   1.728   1.350  0.3334 -0.0232  0.1890
 5831TIP3    H117499   5.006   1.804   1.292 -0.5810 -0.6597 -0.7224
 5831TIP3    H217500   4.926   1.679   1.323  1.4468 -1.8242  0.0199
 5832TIP3   OH217501   4.117   3.035   0.210  0.3933 -0.5894  0.7752
 5832TIP3    H117502   4.121   3.122   0.170  0.5642 -0.2672  1.4789
 5832TIP3    H217503   4.028   3.029   0.245  0.7557 -0.1781  1.8343
 5833TIP3   OH217504   5.697   5.132   2.546  0.5867 -0.6582 -0.0115
 5833TIP3    H117505   5.696   5.073   2.471  1.2842 -0.2771 -0.3218
 5833TIP3    H217506   5.779   5.112   2.591 -0.9246 -2.7338  2.1565
 5834TIP3   OH217507   2.065   3.819   2.139  0.4094 -0.2598 -0.4197
 5834TIP3    H117508   2.015   3.842   2.217 -1.6797  1.9671 -2.2410
 5834TIP3    H217509   2.155   3.807   2.170 -0.3003  0.6730  2.2721
 5835TIP3   OH217510   4.441   5.708   3.445  0.4863  0.0455 -0.1575
 5835TIP3    H117511   4.434   5.624   3.399  1.3477 -0.8861  1.3068
 5835TIP3    H217512   4.352   5.742   3.447  0.1141 -0.8475 -0.7689
 5836TIP3   OH217513   1.204   4.285   4.869 -1.3314 -0.1354  0.5272
 5836TIP3    H117514   1.257   4.252   4.942 -0.5470 -0.9411 -0.3886
 5836TIP3    H217515   1.151   4.355   4.908 -0.8140 -0.4415  1.8313
 5837TIP3   OH217516   3.892   5.151   3.505 -0.1124  0.1832 -0.1408
 5837TIP3    H117517   3.854   5.238   3.501  1.6451  0.9835 -0.1273
 5837TIP3    H217518   3.882   5.116   3.416  0.9943  1.2192 -0.6985
 5838TIP3   OH217519   2.012   4.850   0.174 -0.4726 -0.4093 -0.1425
 5838TIP3    H117520   1.926   4.888   0.188 -0.7987 -0.7572 -1.1640
 5838TIP3    H217521   2.073   4.915   0.209 -1.0302  0.9819 -1.6240
 5839TIP3   OH217522   2.757   3.191   2.311  0.3436 -0.0414 -0.9860
 5839TIP3    H117523   2.735   3.269   2.259  0.1917 -0.3788 -1.4324
 5839TIP3    H217524   2.776   3.226   2.398  1.7521  0.6657 -1.5453
 5840TIP3   OH217525   5.915   4.989   0.835  0.2532 -0.0690  0.5596
 5840TIP3    H117526   5.835   5.024   0.795 -0.3351 -0.3100  1.4714
 5840TIP3    H217527   5.943   4.920   0.776  0.3049  0.6223 -0.2378
 5841TIP3   OH217528   1.200   4.978   1.457  0.8101  0.2245  0.6834
 5841TIP3    H117529   1.194   4.994   1.551 -1.1204  2.1074  0.3048
 5841TIP3    H217530   1.288   4.942   1.445  0.9489 -0.4877  3.2320
 5842TIP3   OH217531   1.759   1.117   4.093 -0.6665 -0.2900 -0.3358
 5842TIP3    H117532   1.824   1.127   4.162 -1.3523  0.5211  0.2153
 5842TIP3    H217533   1.800   1.059   4.029  0.9289  0.8621 -0.4164
 5843TIP3   OH217534   6.124   1.012   2.667  0.2141 -0.2651  0.2549
 5843TIP3    H117535   6.085   1.054   2.744  0.5355  0.7742 -0.1248
 5843TIP3    H217536   6.206   1.060   2.653  0.9383 -1.4870  0.2076
 5844TIP3   OH217537   1.733   4.744   1.260 -0.3488  0.8985  0.9424
 5844TIP3    H117538   1.759   4.805   1.192 -0.2987  1.7523  1.7084
 5844TIP3    H217539   1.730   4.659   1.216 -1.6846  1.6193 -0.4548
 5845TIP3   OH217540   0.813   1.607   1.449  0.1329 -0.5926  0.2920
 5845TIP3    H117541   0.732   1.640   1.411 -0.5791 -0.2707  2.0287
 5845TIP3    H217542   0.803   1.512   1.448  0.7738 -0.6960 -1.6303
 5846TIP3   OH217543   4.838   1.827   3.539  0.1223 -0.4279 -0.1379
 5846TIP3    H117544   4.768   1.784   3.492 -0.0221 -0.5033  0.1455
 5846TIP3    H217545   4.910   1.763   3.540 -0.2992 -0.8920  0.7999
 5847TIP3   OH217546   3.104   4.719   4.270 -0.4254 -0.1861 -0.3285
 5847TIP3    H117547   3.127   4.753   4.184 -2.3065  2.1804  0.0021
 5847TIP3    H217548   3.127   4.788   4.332 -1.1529 -0.9052  0.8073
 5848TIP3   OH217549   6.260   0.588   3.749  0.0376 -0.3198  0.0645
 5848TIP3    H117550   6.261   0.569   3.655  0.0990 -2.7810  0.4947
 5848TIP3    H217551   6.352   0.584   3.775  0.2602  2.3646 -0.0520
 5849TIP3   OH217552   0.279   3.301   2.378  0.1702 -0.2640  0.0610
 5849TIP3    H117553   0.222   3.229   2.350  0.5004 -0.2309 -0.7298
 5849TIP3    H217554   0.281   3.295   2.473  1.6136 -2.4252 -0.0492
 5850TIP3   OH217555   1.573   1.138   4.997  0.1876 -0.6017 -0.0967
 5850TIP3    H117556   1.596   1.216   4.947 -0.4820  0.8599  1.7545
 5850TIP3    H217557   1.615   1.066   4.950  1.8457  1.0053 -1.2172
 5851TIP3   OH217558   1.625   4.638   0.156 -0.7125 -0.2645  0.7006
 5851TIP3    H117559   1.705   4.672   0.197  0.7112 -0.8553 -1.4020
 5851TIP3    H217560   1.601   4.562   0.210  1.1329 -1.0774  0.4509
 5852TIP3   OH217561   2.519   2.990   3.564  0.5017  0.0649 -0.2396
 5852TIP3    H117562   2.587   2.956   3.622 -0.1421 -1.0365 -0.1012
 5852TIP3    H217563   2.490   3.071   3.605  1.2796  0.2140  0.0352
 5853TIP3   OH217564   3.542   1.328   0.205 -0.3325 -0.3945 -0.0449
 5853TIP3    H117565   3.462   1.382   0.211  0.1318  0.3339 -0.2406
 5853TIP3    H217566   3.606   1.386   0.162  0.5784 -0.6601  0.9313
 5854TIP3   OH217567   5.842   1.553   3.297 -0.6477 -0.2361  0.6048
 5854TIP3    H117568   5.860   1.645   3.317  1.6252 -0.6568  0.7238
 5854TIP3    H217569   5.766   1.531   3.351 -1.3417  1.6035  0.4375
 5855TIP3   OH217570   5.037   3.319   0.919  0.0504 -0.4645 -0.2158
 5855TIP3    H117571   4.956   3.268   0.919 -0.2993  0.0190  1.9927
 5855TIP3    H217572   5.012   3.402   0.878 -0.8731  0.0622  1.3379
 5856TIP3   OH217573   1.688   1.350   2.129  0.4209 -0.0563 -0.3867
 5856TIP3    H117574   1.672   1.258   2.152  1.0226 -0.4012 -1.2545
 5856TIP3    H217575   1.606   1.379   2.088 -0.3089  0.2746  1.2233
 5857TIP3   OH217576   2.391   2.318   1.947  0.1265  0.2984 -0.4449
 5857TIP3    H117577   2.366   2.229   1.969 -1.1244  0.9687  0.9754
 5857TIP3    H217578   2.340   2.339   1.869  0.3985 -0.2095 -0.7625
 5858TIP3   OH217579   1.814   5.176   4.763  0.1986 -0.7409  0.5697
 5858TIP3    H117580   1.848   5.258   4.727  1.0006 -0.4285  1.9710
 5858TIP3    H217581   1.763   5.138   4.691  0.9707  0.2888 -0.5751
 5859TIP3   OH217582   5.425   3.599   3.724 -0.7625  0.6145 -0.1790
 5859TIP3    H117583   5.491   3.622   3.659 -2.9559  0.4927 -2.6219
 5859TIP3    H217584   5.471   3.602   3.808  2.3101  0.4719 -1.7304
 5860TIP3   OH217585   3.542   2.858   3.857  0.6476 -0.2812  0.0437
 5860TIP3    H117586   3.571   2.880   3.945 -1.6967 -1.4214  1.1786
 5860TIP3    H217587   3.618   2.815   3.818  1.6001 -0.1542  1.6613
 5861TIP3   OH217588   3.796   0.854   3.096  0.4008 -0.6771  0.4761
 5861TIP3    H117589   3.769   0.914   3.166  0.3288 -0.9070  0.6443
 5861TIP3    H217590   3.720   0.850   3.038  0.2285 -0.9931  0.7263
 5862TIP3   OH217591   0.052   5.058   1.785 -0.0598 -0.1498  0.1672
 5862TIP3    H117592  -0.027   5.048   1.838 -0.0318 -2.1907 -0.0887
 5862TIP3    H217593   0.027   5.119   1.716 -1.0039  0.2442  0.8366
 5863TIP3   OH217594   3.711   3.885   4.173  0.1187 -0.3680  0.3791
 5863TIP3    H117595   3.682   3.799   4.143 -0.1704  0.0985 -0.7385
 5863TIP3    H217596   3.684   3.945   4.103  2.0333  0.3633  0.1933
 5864TIP3   OH217597   3.038   5.251   2.824 -0.1963 -0.4733  0.1440
 5864TIP3    H117598   2.983   5.253   2.746  0.2220  0.9809 -0.1300
 5864TIP3    H217599   3.127   5.261   2.791 -0.0409  0.4879  0.8192
 5865TIP3   OH217600   3.212   3.481   2.634 -0.6069  0.3440 -0.0904
 5865TIP3    H117601   3.298   3.452   2.603 -0.5279  1.1403 -0.6571
 5865TIP3    H217602   3.179   3.408   2.685  0.1603 -0.2028 -0.3545
 5866TIP3   OH217603   4.229   3.084   4.808 -0.3679 -0.2306 -0.5053
 5866TIP3    H117604   4.306   3.087   4.752  0.2233 -0.4023  0.2694
 5866TIP3    H217605   4.157   3.114   4.753  0.2110 -0.2985 -1.3120
 5867TIP3   OH217606   0.939   2.319   0.408 -0.1896 -0.1573  0.4051
 5867TIP3    H117607   0.878   2.290   0.476 -0.3486 -0.3604  0.1764
 5867TIP3    H217608   1.024   2.322   0.452 -0.2657 -0.4321  0.5763
 5868TIP3   OH217609   5.160   2.457   0.401 -0.0095  0.1224  0.6157
 5868TIP3    H117610   5.117   2.511   0.335  1.5265  0.1887 -0.3657
 5868TIP3    H217611   5.184   2.518   0.471 -1.4208  0.0888  1.1716
 5869TIP3   OH217612   1.969   5.228   3.857  0.2347  0.1553  0.7613
 5869TIP3    H117613   2.051   5.209   3.903  0.5409  0.6499  0.4309
 5869TIP3    H217614   1.945   5.316   3.886  0.0731  0.2010  0.4920
 5870TIP3   OH217615   6.013   1.912   5.026 -0.3449  0.3040  0.2991
 5870TIP3    H117616   6.090   1.918   4.970  0.6488 -2.5691  1.1862
 5870TIP3    H217617   6.048   1.911   5.115 -1.6373  1.4005  0.8594
 5871TIP3   OH217618   3.459   3.804   2.036 -0.2281 -0.5445 -0.0851
 5871TIP3    H117619   3.421   3.816   1.949 -0.8338 -0.2447  0.2118
 5871TIP3    H217620   3.386   3.774   2.090  0.0074 -0.1611  0.4512
 5872TIP3   OH217621   5.778   4.131   0.709 -0.3199 -0.7124  0.3526
 5872TIP3    H117622   5.826   4.142   0.790  1.4531  0.8933 -0.8259
 5872TIP3    H217623   5.790   4.213   0.662 -2.1923 -1.1849 -1.1039
 5873TIP3   OH217624   3.658   0.435   3.829  0.2733 -0.2342  0.0765
 5873TIP3    H117625   3.623   0.454   3.741  0.3314 -2.3328 -0.4602
 5873TIP3    H217626   3.744   0.476   3.829  0.5261 -0.7217 -1.0850
 5874TIP3   OH217627   3.343   5.512   5.124 -0.6785 -0.5958 -0.2216
 5874TIP3    H117628   3.261   5.541   5.083 -0.0265  1.3446 -0.2572
 5874TIP3    H217629   3.314   5.459   5.199 -1.9116 -1.3797 -1.1972
 5875TIP3   OH217630   1.537   4.241   2.993  0.0623 -0.6128 -0.4199
 5875TIP3    H117631   1.490   4.165   3.027 -0.8465  0.5111  0.9700
 5875TIP3    H217632   1.500   4.255   2.906 -1.5492 -0.3202  0.2787
 5876TIP3   OH217633   4.316   4.479   2.625  0.0681 -0.0563 -0.3589
 5876TIP3    H117634   4.402   4.437   2.628 -0.4839 -1.2258 -0.6099
 5876TIP3    H217635   4.312   4.520   2.539  1.4229  2.3561  0.6157
 5877TIP3   OH217636   4.791   1.569   1.724  0.8248  0.8410 -0.6506
 5877TIP3    H117637   4.807   1.515   1.646  0.3482  0.3612 -0.4223
 5877TIP3    H217638   4.773   1.506   1.794  3.6007  1.1433  0.4571
 5878TIP3   OH217639   2.710   5.167   3.780  0.1985  0.5065 -0.0039
 5878TIP3    H117640   2.679   5.077   3.790  1.4191  0.0807  0.1886
 5878TIP3    H217641   2.644   5.210   3.726 -1.8838  0.3072  2.2315
 5879TIP3   OH217642   6.279   4.833   2.814 -0.0794 -0.0639 -0.3240
 5879TIP3    H117643   6.236   4.900   2.761  1.1906  0.8081 -0.2997
 5879TIP3    H217644   6.327   4.780   2.751  1.5787  1.0822 -0.1033
 5880TIP3   OH217645   1.635   0.252   1.496  0.3268  0.3291  0.0062
 5880TIP3    H117646   1.717   0.209   1.472 -0.5991 -0.7937 -1.2695
 5880TIP3    H217647   1.595   0.278   1.413 -1.8129 -1.4908  0.3497
 5881TIP3   OH217648   4.423   4.909   2.897 -0.5400  0.1558  0.1892
 5881TIP3    H117649   4.496   4.945   2.947  2.3409 -1.8717 -2.1749
 5881TIP3    H217650   4.415   4.968   2.822 -0.7996 -0.0278  0.0714
 5882TIP3   OH217651   0.433   1.312   0.863  0.9677  0.4414 -0.5389
 5882TIP3    H117652   0.514   1.285   0.906  0.9566  0.5598 -0.4453
 5882TIP3    H217653   0.416   1.242   0.800  1.5344  0.7648 -1.0691
 5883TIP3   OH217654   5.775   3.324   4.153 -0.0350 -0.0864  0.0660
 5883TIP3    H117655   5.818   3.354   4.073 -0.8754 -1.6006 -1.0146
 5883TIP3    H217656   5.746   3.404   4.197  0.9691  0.7953 -0.8283
 5884TIP3   OH217657   0.334   5.325   4.212  0.1993  0.4736  0.0156
 5884TIP3    H117658   0.356   5.285   4.128  0.1471 -0.4483  0.4222
 5884TIP3    H217659   0.248   5.290   4.234  1.5199 -1.9048  1.9296
 5885TIP3   OH217660   2.967   1.702   4.200 -0.0110  0.5903  0.6291
 5885TIP3    H117661   2.893   1.668   4.252 -0.0499 -0.7547 -0.2813
 5885TIP3    H217662   3.038   1.640   4.215 -0.4649 -0.7148 -2.0555
 5886TIP3   OH217663   0.000   0.611   4.577  0.0857 -0.0656  0.0797
 5886TIP3    H117664   0.051   0.645   4.504  0.7333 -0.5389  0.2988
 5886TIP3    H217665  -0.020   0.521   4.552  0.1378 -0.1665  0.3981
 5887TIP3   OH217666   1.956   3.731   2.912 -0.0062 -0.0596  0.8421
 5887TIP3    H117667   2.015   3.757   2.841 -1.1238  1.7166  0.4968
 5887TIP3    H217668   1.874   3.708   2.868 -0.3741  0.0205  1.4724
 5888TIP3   OH217669   2.791   1.236   4.305  0.2780  0.1350 -0.4986
 5888TIP3    H117670   2.742   1.225   4.387  1.8604  0.6446  0.5733
 5888TIP3    H217671   2.883   1.232   4.332  0.8800  2.5875 -1.8822
 5889TIP3   OH217672   4.519   1.912   1.690 -0.0322  0.3982 -0.0895
 5889TIP3    H117673   4.523   1.834   1.746  2.1853  0.5876  0.1087
 5889TIP3    H217674   4.478   1.979   1.745  1.7263  0.4618  1.2357
 5890TIP3   OH217675   0.996   5.152   1.653 -0.0929 -0.1160 -0.0578
 5890TIP3    H117676   0.986   5.058   1.665 -1.1579  0.0713  0.6864
 5890TIP3    H217677   1.079   5.173   1.695 -1.9642 -0.0693  4.1399
 5891TIP3   OH217678   5.596   2.411   1.855 -0.1248 -0.0450  0.7028
 5891TIP3    H117679   5.501   2.419   1.864 -0.3386 -0.8282 -0.5597
 5891TIP3    H217680   5.616   2.325   1.894  0.0140 -0.0199  0.6860
 5892TIP3   OH217681   0.073   4.577   0.659  0.2023 -0.5123 -0.4914
 5892TIP3    H117682   0.000   4.520   0.632 -0.9239  0.1566  1.0331
 5892TIP3    H217683   0.036   4.665   0.660  1.1138 -0.1208  0.0257
 5893TIP3   OH217684   5.207   5.350   1.044  0.3070 -0.1984  0.4519
 5893TIP3    H117685   5.259   5.305   1.110 -0.6759 -1.0850  0.6498
 5893TIP3    H217686   5.133   5.292   1.027  0.1675  0.3308 -0.9295
 5894TIP3   OH217687   0.907   1.958   2.528  0.0773  0.6755  0.2961
 5894TIP3    H117688   0.811   1.963   2.532  0.0814  0.2868  2.8703
 5894TIP3    H217689   0.936   2.048   2.542  0.0409  0.5338  1.4386
 5895TIP3   OH217690   2.290   3.161   0.059  0.3574 -0.1435 -0.7975
 5895TIP3    H117691   2.376   3.203   0.063 -0.4099  1.4599  0.0356
 5895TIP3    H217692   2.302   3.088  -0.002  1.9023  1.0090 -1.9829
 5896TIP3   OH217693   2.057   3.215   5.096 -0.1328  0.2214  0.1637
 5896TIP3    H117694   2.150   3.218   5.120 -0.3423  0.7862  0.9206
 5896TIP3    H217695   2.040   3.301   5.058 -0.3573  0.1243  0.0462
 5897TIP3   OH217696   2.538   2.816   0.022 -0.1086  0.3798 -0.0552
 5897TIP3    H117697   2.625   2.777   0.012  0.3481  1.5149 -0.6622
 5897TIP3    H217698   2.550   2.883   0.090  0.2389  2.5514 -2.1298
 5898TIP3   OH217699   3.429   1.665  -0.001  0.0331 -0.7430 -0.2225
 5898TIP3    H117700   3.453   1.702   0.084 -1.6514 -0.5138  0.1852
 5898TIP3    H217701   3.412   1.573   0.018 -1.0280 -0.5433 -0.1485
 5899TIP3   OH217702   1.287   3.130   1.868  0.6670 -0.1863  0.8457
 5899TIP3    H117703   1.339   3.055   1.896 -1.0491 -1.6420  0.2675
 5899TIP3    H217704   1.261   3.109   1.778  0.0196  1.0339  0.7320
 5900TIP3   OH217705   5.606   1.498   0.141 -0.1173 -0.1401 -0.8952
 5900TIP3    H117706   5.694   1.486   0.105 -0.2796  2.3326 -2.3638
 5900TIP3    H217707   5.617   1.559   0.214 -0.7474  1.6527 -2.2303
 5901TIP3   OH217708   2.351   3.162   3.372 -0.1479  0.0264 -0.4169
 5901TIP3    H117709   2.331   3.256   3.365 -2.4745 -0.4906 -2.0527
 5901TIP3    H217710   2.425   3.150   3.312  0.5589  0.8870  0.2506
 5902TIP3   OH217711   5.097   3.692   2.349  0.6675  0.3851  0.0054
 5902TIP3    H117712   5.166   3.712   2.286  0.2649  1.8755  0.0111
 5902TIP3    H217713   5.119   3.604   2.381  0.3780 -0.8590 -2.8807
 5903TIP3   OH217714   0.497   3.469   4.982 -0.4887 -0.3027 -0.3108
 5903TIP3    H117715   0.481   3.385   5.024  1.1750 -0.9263 -0.8338
 5903TIP3    H217716   0.527   3.446   4.894  0.7394  0.8108 -0.2057
 5904TIP3   OH217717   4.685   2.834   0.314 -0.1877 -0.2013 -0.3905
 5904TIP3    H117718   4.777   2.858   0.305 -0.5558  1.9311  0.8864
 5904TIP3    H217719   4.686   2.738   0.321  1.8290 -0.2980 -1.2066
 5905TIP3   OH217720   1.746   0.967   0.401 -0.3507 -0.2514 -0.3953
 5905TIP3    H117721   1.808   1.007   0.462  0.4091 -0.4809 -0.9955
 5905TIP3    H217722   1.688   1.039   0.375  0.3571  0.2339 -0.6663
 5906TIP3   OH217723   1.241   1.852   4.819 -0.5725  0.7517  0.7697
 5906TIP3    H117724   1.196   1.869   4.736 -1.0713  0.4559  0.9759
 5906TIP3    H217725   1.222   1.928   4.873 -1.1529  0.4547  0.9916
 5907TIP3   OH217726   0.742   2.070   3.081  0.3557  0.1148 -0.2960
 5907TIP3    H117727   0.663   2.124   3.083  1.1533  1.3240 -0.3767
 5907TIP3    H217728   0.712   1.984   3.108 -0.5400  1.1227  2.2379
 5908TIP3   OH217729   5.541   4.509   1.093  0.8845  0.6693 -0.3467
 5908TIP3    H117730   5.586   4.431   1.058  0.4653  0.5896 -0.7172
 5908TIP3    H217731   5.467   4.523   1.034  0.4345  0.8212  0.2387
 5909TIP3   OH217732   4.614   3.702   2.560  0.5490 -0.8760  0.6310
 5909TIP3    H117733   4.690   3.743   2.601  0.8158  0.1606 -0.8278
 5909TIP3    H217734   4.541   3.759   2.586  1.0698  1.3533 -2.3048
 5910TIP3   OH217735   0.197   1.696   2.824  0.4320  0.2148 -0.5473
 5910TIP3    H117736   0.259   1.664   2.889 -1.3334 -0.6518  0.7858
 5910TIP3    H217737   0.224   1.654   2.742  0.0539 -2.2957  0.5387
 5911TIP3   OH217738   2.046   0.036   4.400 -0.2190  0.0543  0.1475
 5911TIP3    H117739   2.114   0.103   4.395 -0.5652  0.6804  2.5518
 5911TIP3    H217740   2.085  -0.032   4.457 -0.3837 -1.1887 -1.1632
 5912TIP3   OH217741   3.029   5.222   3.385  0.3865  0.2732 -0.4702
 5912TIP3    H117742   3.109   5.170   3.386  1.2293  1.5221  0.1984
 5912TIP3    H217743   3.002   5.223   3.293  0.0323 -1.7291 -0.4444
 5913TIP3   OH217744   0.529   2.390   0.735 -0.1355  0.2389  0.1743
 5913TIP3    H117745   0.505   2.396   0.827 -2.3746  0.3393 -0.3679
 5913TIP3    H217746   0.466   2.329   0.697  2.6473 -2.3333 -0.7479
 5914TIP3   OH217747   4.040   1.272   1.667 -0.2743 -0.3060 -0.6277
 5914TIP3    H117748   3.954   1.244   1.696 -0.0021  0.5556  1.1121
 5914TIP3    H217749   4.036   1.368   1.671  0.7695 -0.2598 -0.5076
 5915TIP3   OH217750   4.285   4.358   0.020  0.0776  0.5570  0.3428
 5915TIP3    H117751   4.316   4.268   0.008  0.5168  0.8143 -0.5522
 5915TIP3    H217752   4.286   4.372   0.115 -1.6067 -0.9233  0.6262
 5916TIP3   OH217753   3.033   2.168   3.671  0.0037 -0.3183  0.0794
 5916TIP3    H117754   2.947   2.138   3.640  0.1221 -0.3904 -0.1857
 5916TIP3    H217755   3.077   2.089   3.702  0.3957 -0.4644 -0.8138
 5917TIP3   OH217756   6.086   1.310   4.798 -0.0320 -0.3784  0.2411
 5917TIP3    H117757   6.166   1.357   4.820 -0.2506 -0.0552  0.3645
 5917TIP3    H217758   6.016   1.371   4.820 -0.2779 -0.2296 -0.9290
 5918TIP3   OH217759   3.623   1.806   0.131  0.6349  0.3476 -0.0786
 5918TIP3    H117760   3.595   1.875   0.191  0.4946  0.1367  0.1030
 5918TIP3    H217761   3.710   1.833   0.101 -0.4438  1.9280 -2.0304
 5919TIP3   OH217762   1.593   1.882   2.570  0.0907  0.5220  0.1832
 5919TIP3    H117763   1.634   1.968   2.575 -2.6655  1.9302  0.4099
 5919TIP3    H217764   1.499   1.899   2.581 -0.6213 -2.4611 -0.3334
 5920TIP3   OH217765   6.174   2.733   4.487  1.0252  0.1628  0.4682
 5920TIP3    H117766   6.176   2.663   4.553 -2.4418  0.6811  1.3122
 5920TIP3    H217767   6.115   2.701   4.419  0.1358  1.8453  0.4016
 5921TIP3   OH217768   4.839   2.330   3.397 -0.1478  0.2333  0.3919
 5921TIP3    H117769   4.881   2.404   3.441 -2.2038  0.5324  2.0440
 5921TIP3    H217770   4.875   2.253   3.440 -0.3813  0.4330  0.9617
 5922TIP3   OH217771   4.566   2.614   1.249  0.0584 -0.4284  0.0716
 5922TIP3    H117772   4.529   2.561   1.319 -0.5941 -0.2145 -0.1060
 5922TIP3    H217773   4.514   2.693   1.248  0.7857  0.0641  0.0802
 5923TIP3   OH217774   6.035   4.175   0.522  0.1702 -0.6449 -0.5374
 5923TIP3    H117775   6.069   4.088   0.541  1.6798  0.0888  0.4058
 5923TIP3    H217776   6.014   4.174   0.429 -1.3517 -2.4689 -0.2096
 5924TIP3   OH217777   1.009   3.994   4.810  0.1163  0.3789  0.2417
 5924TIP3    H117778   0.988   4.059   4.878 -0.7209  0.6449 -0.2496
 5924TIP3    H217779   1.060   4.042   4.746  2.7839 -0.3825  1.6601
 5925TIP3   OH217780   4.672   3.349   3.640  0.6040  0.1201  0.3584
 5925TIP3    H117781   4.757   3.357   3.684  0.6888  1.0295  0.0531
 5925TIP3    H217782   4.688   3.381   3.551  0.6590 -2.5400 -0.6889
 5926TIP3   OH217783   3.783   1.750   2.268  0.0457  0.6397 -0.1220
 5926TIP3    H117784   3.837   1.828   2.273  1.7184 -0.4393 -0.5849
 5926TIP3    H217785   3.753   1.735   2.358  0.5767  1.2014  0.1535
 5927TIP3   OH217786   1.033   4.029   1.662 -0.0783 -0.2449 -0.3086
 5927TIP3    H117787   0.950   4.010   1.705  0.2614 -0.1333  0.4185
 5927TIP3    H217788   1.014   4.023   1.568 -1.5762  2.5089 -0.2759
 5928TIP3   OH217789   0.843   0.547   2.871  0.1499  0.1618 -0.2252
 5928TIP3    H117790   0.809   0.492   2.942  3.2154  0.6093  1.7892
 5928TIP3    H217791   0.878   0.486   2.807 -0.0169 -0.2241  0.0477
 5929TIP3   OH217792   0.310   0.411   4.814  0.0748 -0.1233 -0.2655
 5929TIP3    H117793   0.242   0.428   4.749  0.0713 -0.5697 -0.3842
 5929TIP3    H217794   0.297   0.477   4.881 -1.5663 -1.2473  0.5791
 5930TIP3   OH217795   5.750   4.724   3.581 -0.7431  0.3452 -0.4032
 5930TIP3    H117796   5.703   4.691   3.505 -0.1745  1.4821 -1.2887
 5930TIP3    H217797   5.696   4.796   3.614  0.1432  1.4201 -1.2075
 5931TIP3   OH217798   1.910   3.675   2.473 -0.1696  0.2647 -0.4513
 5931TIP3    H117799   1.959   3.758   2.474  0.0312  0.1506 -0.8455
 5931TIP3    H217800   1.977   3.607   2.470 -0.2457 -0.0076  2.0017
 5932TIP3   OH217801   4.651   2.114   4.681  0.4166 -0.1660  0.5177
 5932TIP3    H117802   4.637   2.043   4.744 -1.5712 -0.5956 -0.3215
 5932TIP3    H217803   4.580   2.176   4.699  1.6156  1.2004  0.6606
 5933TIP3   OH217804   5.544   2.065   2.573  0.2519  0.4633 -0.4161
 5933TIP3    H117805   5.630   2.029   2.553 -0.2230 -0.2788 -1.1627
 5933TIP3    H217806   5.561   2.132   2.639  1.5658  1.2030 -1.4519
 5934TIP3   OH217807   3.088   1.449   4.201  0.5659 -0.5170  0.0685
 5934TIP3    H117808   3.063   1.384   4.266 -0.0385 -1.6943 -1.2882
 5934TIP3    H217809   3.183   1.453   4.207  0.4376  2.0837  3.4694
 5935TIP3   OH217810   2.799   4.736   3.408  0.1780  0.1472 -0.4914
 5935TIP3    H117811   2.880   4.714   3.361  0.4008 -1.1079  0.4144
 5935TIP3    H217812   2.792   4.831   3.401  1.5457  0.2378 -0.8844
 5936TIP3   OH217813   0.187   0.390   3.636  0.2611 -0.0289 -0.0267
 5936TIP3    H117814   0.168   0.340   3.715  0.8728 -0.7919 -0.3568
 5936TIP3    H217815   0.154   0.336   3.565  3.2511 -1.3049 -0.6121
 5937TIP3   OH217816   6.163   1.931   0.808 -0.0059  0.4019  0.3713
 5937TIP3    H117817   6.152   2.024   0.787 -1.5017  0.4969  1.4140
 5937TIP3    H217818   6.135   1.885   0.729 -0.1725  0.8225  0.1814
 5938TIP3   OH217819   2.333   2.431   4.398  0.1680  0.3444 -0.2965
 5938TIP3    H117820   2.244   2.453   4.425 -0.5641 -2.4321 -0.1645
 5938TIP3    H217821   2.388   2.461   4.471 -0.7290  1.2633  0.0270
 5939TIP3   OH217822   5.948   2.042   2.003  0.4503 -0.2174 -0.8596
 5939TIP3    H117823   6.041   2.044   2.027  0.0553 -1.7876  1.0773
 5939TIP3    H217824   5.926   1.949   2.003 -1.8951  0.1930  2.2412
 5940TIP3   OH217825   1.194   0.447   1.484 -0.0362 -0.3500 -0.1937
 5940TIP3    H117826   1.131   0.518   1.500  0.7142  0.2695  0.0523
 5940TIP3    H217827   1.191   0.434   1.389 -0.0543  0.1228 -0.2589
 5941TIP3   OH217828   0.811   5.807   1.743 -0.4162 -0.0658  0.4923
 5941TIP3    H117829   0.733   5.779   1.695  0.1525  0.5308 -0.8520
 5941TIP3    H217830   0.843   5.883   1.694  0.9472 -0.2509  1.0506
 5942TIP3   OH217831   0.544   1.171   3.130  0.5018  0.3557  0.6185
 5942TIP3    H117832   0.598   1.128   3.065 -0.4342  0.6357 -0.3660
 5942TIP3    H217833   0.580   1.142   3.214  1.9999  0.3441 -0.0059
 5943TIP3   OH217834   3.289   5.416   0.141 -0.2702  0.1124 -0.0717
 5943TIP3    H117835   3.335   5.417   0.225 -0.3111  0.0582 -0.0489
 5943TIP3    H217836   3.208   5.465   0.157 -1.0702 -1.2942  0.3664
 5944TIP3   OH217837   6.316   3.362   0.894 -0.1346 -0.3844 -0.2022
 5944TIP3    H117838   6.314   3.370   0.990  1.4433 -0.1675 -0.1744
 5944TIP3    H217839   6.348   3.447   0.864  0.9744 -1.0054 -0.8178
 5945TIP3   OH217840   1.383   4.332   1.001 -0.3137  0.0341 -0.3138
 5945TIP3    H117841   1.419   4.405   0.949  0.5570 -0.6854 -0.7571
 5945TIP3    H217842   1.414   4.254   0.955 -2.1085 -0.6337 -0.4436
 5946TIP3   OH217843   5.241   4.331   3.585  0.4686  0.2067 -0.0684
 5946TIP3    H117844   5.192   4.350   3.506  1.2901  0.2797 -0.5693
 5946TIP3    H217845   5.175   4.330   3.655 -0.1427  0.9330 -0.6247
 5947TIP3   OH217846   3.279   2.165   1.674 -0.5787 -0.2875  0.0888
 5947TIP3    H117847   3.315   2.253   1.674 -0.7604 -0.1904 -1.1031
 5947TIP3    H217848   3.302   2.128   1.759  0.9892  0.3023 -0.0663
 5948TIP3   OH217849   2.375   4.703   3.901 -0.3289 -0.1135  0.2420
 5948TIP3    H117850   2.289   4.686   3.938 -0.4792  0.9781  0.4438
 5948TIP3    H217851   2.408   4.779   3.951  0.1892  0.2981 -0.6963
 5949TIP3   OH217852   2.675   0.471   2.979  0.2698 -0.5971 -0.5109
 5949TIP3    H117853   2.592   0.424   2.969 -0.3189  0.0501  1.0601
 5949TIP3    H217854   2.674   0.536   2.909 -0.4228 -0.7780 -0.6758
 5950TIP3   OH217855   2.092   2.789   4.226 -0.4027  0.1108  0.1267
 5950TIP3    H117856   2.166   2.849   4.219  0.1540 -0.5915 -0.2437
 5950TIP3    H217857   2.104   2.745   4.310 -0.8996  0.6300  0.4719
 5951TIP3   OH217858   5.631   2.798   0.548 -0.0967  0.1220 -0.1460
 5951TIP3    H117859   5.584   2.802   0.631  2.0768  0.8965  1.1223
 5951TIP3    H217860   5.592   2.867   0.494 -2.7329 -1.5161 -0.5380
 5952TIP3   OH217861   5.525   5.549   3.335 -0.2520 -0.1497  0.3118
 5952TIP3    H117862   5.515   5.499   3.254  0.6089 -0.1408  0.1948
 5952TIP3    H217863   5.619   5.560   3.346 -0.2762 -1.2100  1.9563
 5953TIP3   OH217864   5.682   1.439   2.173 -0.6088  0.7585  0.5463
 5953TIP3    H117865   5.774   1.424   2.195 -0.5948 -0.8154 -0.5078
 5953TIP3    H217866   5.645   1.480   2.252  0.5833 -0.1796  1.6234
 5954TIP3   OH217867   2.885   5.005   1.653 -0.2083  0.1041 -0.2860
 5954TIP3    H117868   2.926   5.091   1.658 -0.5548  0.3126 -0.9534
 5954TIP3    H217869   2.952   4.945   1.687 -0.4776  0.7816  1.5727
 5955TIP3   OH217870   4.952   0.545   2.753 -0.7308  0.0199 -0.1703
 5955TIP3    H117871   4.910   0.560   2.838 -0.6641  0.2092 -0.1702
 5955TIP3    H217872   5.001   0.625   2.737  0.2821 -0.5056  0.2027
 5956TIP3   OH217873   1.153   5.952   0.537  0.2726  0.0756 -0.2466
 5956TIP3    H117874   1.182   5.933   0.448 -0.9792 -0.9679 -0.4528
 5956TIP3    H217875   1.183   5.877   0.588 -0.8283 -0.3411 -0.1987
 5957TIP3   OH217876   2.819   4.280   4.126 -0.1401 -0.2205 -0.4646
 5957TIP3    H117877   2.734   4.237   4.120  0.5092 -1.8097  0.8428
 5957TIP3    H217878   2.869   4.244   4.052  0.1260 -1.1524  0.1394
 5958TIP3   OH217879   2.189   1.508   0.322 -0.3811 -0.0727 -0.7415
 5958TIP3    H117880   2.178   1.426   0.274 -1.5125 -0.0553 -0.5407
 5958TIP3    H217881   2.132   1.570   0.277 -0.6638  0.2136 -0.0049
 5959TIP3   OH217882   0.197   2.509   0.681 -0.6848  0.2090  0.4235
 5959TIP3    H117883   0.279   2.483   0.639 -1.3421 -1.1444 -0.0868
 5959TIP3    H217884   0.209   2.601   0.703  1.3336 -0.2217  1.2522
 5960TIP3   OH217885   3.955   1.081   1.466 -0.2527  0.3441  0.7459
 5960TIP3    H117886   3.924   1.099   1.555  1.5292 -0.3185  1.5591
 5960TIP3    H217887   4.003   0.998   1.474  0.3299  0.5079 -0.7392
 5961TIP3   OH217888   5.897   4.583   1.807  0.2825  0.4981  0.6615
 5961TIP3    H117889   5.884   4.497   1.848  0.6805 -0.4537 -1.0918
 5961TIP3    H217890   5.859   4.645   1.869  0.2443 -0.9029  2.1229
 5962TIP3   OH217891   2.173   1.913   4.280 -0.1598  0.4183  0.0735
 5962TIP3    H117892   2.093   1.881   4.240 -0.3383  1.5263 -0.4830
 5962TIP3    H217893   2.144   1.976   4.346  0.2005 -0.2391  0.8799
 5963TIP3   OH217894   4.840   4.937   4.125  0.0320 -0.0678 -0.6378
 5963TIP3    H117895   4.822   4.890   4.206  0.0494 -0.1574 -0.6856
 5963TIP3    H217896   4.836   5.029   4.149  1.4299 -0.0946 -0.2296
 5964TIP3   OH217897   5.447   4.836   1.310 -0.0480 -0.3708  0.1581
 5964TIP3    H117898   5.389   4.843   1.385 -0.2405 -0.2202 -0.0040
 5964TIP3    H217899   5.533   4.818   1.348 -0.1157 -0.1514  0.4214
 5965TIP3   OH217900   4.038   3.946   4.926  0.3919 -0.5962 -0.2069
 5965TIP3    H117901   4.004   3.910   4.845 -1.1480  2.3698 -1.0359
 5965TIP3    H217902   3.970   3.929   4.991 -0.2482  0.5463 -0.5533
 5966TIP3   OH217903   1.845   4.570   0.329  0.5137  0.4402  0.3496
 5966TIP3    H117904   1.790   4.576   0.407  1.6037  2.1852  1.0380
 5966TIP3    H217905   1.934   4.567   0.362  0.9270 -2.2408 -0.7505
 5967TIP3   OH217906   0.766   3.998   2.034 -0.3659 -0.0685  0.6800
 5967TIP3    H117907   0.777   4.087   2.069  0.7191  0.0287  0.1665
 5967TIP3    H217908   0.856   3.966   2.025 -0.5782 -0.1012 -1.9334
 5968TIP3   OH217909   2.006   5.338   2.990 -0.1770  0.5094 -0.6946
 5968TIP3    H117910   2.001   5.422   2.943 -0.7583  0.0753 -1.4279
 5968TIP3    H217911   2.075   5.352   3.055  0.6182  1.1577 -1.6309
 5969TIP3   OH217912   1.413   2.442   1.909  0.1959 -0.8046  0.8704
 5969TIP3    H117913   1.345   2.389   1.951 -0.7436 -0.1683  0.2042
 5969TIP3    H217914   1.371   2.476   1.830  0.3273  1.9170  1.8660
 5970TIP3   OH217915   2.722   4.029   3.809  0.4368 -0.8632  0.6451
 5970TIP3    H117916   2.659   4.100   3.802  0.0504 -1.1479  1.1092
 5970TIP3    H217917   2.668   3.949   3.807  0.5727 -1.0781  2.7942
 5971TIP3   OH217918   4.317   1.485   4.656  0.2091  0.0492  0.4163
 5971TIP3    H117919   4.228   1.472   4.621  0.7462 -0.0841 -0.9486
 5971TIP3    H217920   4.374   1.445   4.591  1.2042 -1.3923  2.0968
 5972TIP3   OH217921   3.938   5.998   4.638  0.2847  0.1594  0.1727
 5972TIP3    H117922   3.952   6.032   4.549  1.2993 -1.1347 -0.1878
 5972TIP3    H217923   3.986   5.916   4.640 -1.5098 -0.9252  1.2301
 5973TIP3   OH217924   3.361   5.594   3.441  0.8142 -0.0310  0.1888
 5973TIP3    H117925   3.273   5.564   3.462  0.7793 -0.6021 -0.7225
 5973TIP3    H217926   3.349   5.655   3.368  1.0287  1.1609  1.1034
 5974TIP3   OH217927   4.376   0.069   4.036  0.0742  0.2715 -0.0978
 5974TIP3    H117928   4.460   0.029   4.058 -0.1534  0.8667  2.0582
 5974TIP3    H217929   4.390   0.163   4.053 -0.6347  0.5819 -1.1005
 5975TIP3   OH217930   2.021   5.252   0.211 -0.2533  0.7547 -0.4673
 5975TIP3    H117931   2.076   5.199   0.269 -2.2632 -0.1663  0.7060
 5975TIP3    H217932   2.057   5.340   0.218  2.1639 -0.1057 -1.1918
 5976TIP3   OH217933   6.324   0.884   2.389  0.0543  0.6339  0.5029
 5976TIP3    H117934   6.230   0.871   2.373  0.0632  0.6824  0.4084
 5976TIP3    H217935   6.365   0.805   2.355 -0.0629  0.0375  1.6990
 5977TIP3   OH217936   5.467   4.408   3.180  0.1736  0.5544 -0.3982
 5977TIP3    H117937   5.456   4.343   3.250  0.1692  1.1827  0.1976
 5977TIP3    H217938   5.554   4.445   3.197  0.8157 -0.3252 -1.6190
 5978TIP3   OH217939   1.845   0.161   3.511  0.1481 -0.1123 -0.6320
 5978TIP3    H117940   1.916   0.146   3.449  0.0565  2.4462 -1.4765
 5978TIP3    H217941   1.765   0.148   3.460  0.0725  1.7004 -1.0312
 5979TIP3   OH217942   0.519   4.226   4.690 -0.1169  0.1741  0.2466
 5979TIP3    H117943   0.555   4.228   4.778 -0.7526  1.5921  0.5061
 5979TIP3    H217944   0.596   4.222   4.633  0.3511  0.5451  0.8375
 5980TIP3   OH217945   2.261   0.582   1.937  1.1879 -0.4097  0.2811
 5980TIP3    H117946   2.356   0.573   1.943  1.3021  0.2586 -0.4164
 5980TIP3    H217947   2.247   0.669   1.901  0.3253 -0.7106 -0.1355
 5981TIP3   OH217948   4.209   4.081   4.319 -0.5014 -0.2696  0.1089
 5981TIP3    H117949   4.274   4.040   4.263 -1.3579 -1.6305  0.0553
 5981TIP3    H217950   4.259   4.140   4.375  0.7176 -0.9255 -0.2463
 5982TIP3   OH217951   2.691   1.922   0.852 -0.0373  0.1871 -0.6380
 5982TIP3    H117952   2.774   1.885   0.884  0.8054  0.5980 -2.2573
 5982TIP3    H217953   2.676   1.998   0.908 -0.8687 -1.4781  1.5638
 5983TIP3   OH217954   4.463   0.832   3.754  0.0690  0.1413 -0.1227
 5983TIP3    H117955   4.544   0.781   3.760  0.3479  0.3207 -1.7982
 5983TIP3    H217956   4.443   0.834   3.660  0.1138  3.1696 -0.1622
 5984TIP3   OH217957   5.459   3.290   2.308  0.3172 -0.4046  0.9455
 5984TIP3    H117958   5.548   3.278   2.341  0.4201 -1.1929  0.4075
 5984TIP3    H217959   5.423   3.361   2.361  0.9492 -0.7006  1.7951
 5985TIP3   OH217960   1.718   5.850   2.992 -0.3773  0.0672  0.6889
 5985TIP3    H117961   1.748   5.822   3.079  0.2214  0.8568  0.7506
 5985TIP3    H217962   1.771   5.799   2.931  0.5801  0.8842  0.8008
 5986TIP3   OH217963   4.445   5.972   3.337  0.0141 -0.5948 -0.2158
 5986TIP3    H117964   4.423   5.893   3.386 -0.9544 -0.1923  0.0281
 5986TIP3    H217965   4.540   5.967   3.324  0.2754 -0.8257  1.5242
 5987TIP3   OH217966   4.313   1.993   5.196 -0.5869  0.0239 -0.0339
 5987TIP3    H117967   4.342   2.082   5.215  0.0669 -0.2579  0.3248
 5987TIP3    H217968   4.387   1.953   5.151 -0.4201 -0.7031  0.8672
 5988TIP3   OH217969   2.875   0.631   3.794 -0.0339  0.1630  0.2225
 5988TIP3    H117970   2.799   0.577   3.771 -0.1119 -0.5075  1.9260
 5988TIP3    H217971   2.838   0.705   3.842  0.3906 -0.5147  1.6676
 5989TIP3   OH217972   0.526   1.210   0.399  0.3981  0.2797 -0.0405
 5989TIP3    H117973   0.488   1.167   0.476 -1.5837  0.1257 -1.0312
 5989TIP3    H217974   0.492   1.299   0.403  1.9742  0.8923  0.3316
 5990TIP3   OH217975   2.360   4.183   1.617  0.0794 -0.3340 -0.4111
 5990TIP3    H117976   2.292   4.171   1.550  0.3299 -0.7247 -0.5981
 5990TIP3    H217977   2.442   4.168   1.570  0.2410 -0.9534  0.0686
 5991TIP3   OH217978   3.328   2.638   2.150  0.1270 -0.4093 -0.3670
 5991TIP3    H117979   3.307   2.582   2.225  1.1845  1.1745  1.2027
 5991TIP3    H217980   3.355   2.721   2.189 -1.0119  1.1054 -2.5870
 5992TIP3   OH217981   1.666   5.643   2.489 -0.4011 -0.1668 -0.0950
 5992TIP3    H117982   1.751   5.608   2.516 -0.6197 -0.0520  0.7874
 5992TIP3    H217983   1.674   5.738   2.502 -0.7861 -0.1951  0.3743
 5993TIP3   OH217984   6.112   0.642   1.318  0.3579  0.0028  0.6050
 5993TIP3    H117985   6.157   0.724   1.298  1.5596 -1.0845 -1.4738
 5993TIP3    H217986   6.048   0.631   1.247  2.6755 -2.5198 -1.2994
 5994TIP3   OH217987   3.910   2.499   1.571  0.1086 -0.0727 -0.2391
 5994TIP3    H117988   3.894   2.412   1.609  0.0490 -0.7047 -1.6402
 5994TIP3    H217989   4.005   2.503   1.560  0.2037  0.4238  0.6515
 5995TIP3   OH217990   2.329   1.393   3.962 -0.2357 -0.3408  0.8379
 5995TIP3    H117991   2.419   1.399   3.997 -0.6177  1.1359  1.6452
 5995TIP3    H217992   2.316   1.299   3.948  1.4081 -0.5993  0.7648
 5996TIP3   OH217993   5.176   2.388   4.424  0.0464 -0.0375  0.2519
 5996TIP3    H117994   5.208   2.388   4.333  0.9290 -1.1180  0.5332
 5996TIP3    H217995   5.242   2.438   4.472 -0.8786  1.2991  0.1814
 5997TIP3   OH217996   6.024   0.675   0.601 -0.5468  0.2967  0.2383
 5997TIP3    H117997   5.994   0.650   0.688  0.3424  0.1406  0.5111
 5997TIP3    H217998   6.111   0.637   0.594 -1.0826 -0.7227 -1.1957
 5998TIP3   OH217999   2.429   4.878   4.486  0.2303  0.6244 -0.2300
 5998TIP3    H118000   2.482   4.954   4.512  0.9989  0.2400 -0.6110
 5998TIP3    H218001   2.340   4.900   4.512  0.3178  1.9764 -0.9664
 5999TIP3   OH218002   3.256   0.982   3.946  0.4210  0.2655 -0.4319
 5999TIP3    H118003   3.283   1.068   3.978 -0.0507  0.7559 -1.3208
 5999TIP3    H218004   3.186   1.001   3.884  0.0411 -0.7937 -0.3349
 6000TIP3   OH218005   0.947   4.339   4.964  0.5545 -0.2135  0.8574
 6000TIP3    H118006   0.936   4.401   4.892  2.1977  0.3787  1.0744
 6000TIP3    H218007   0.995   4.388   5.031  1.0437 -1.4213  1.4221
 6001TIP3   OH218008   1.778   0.434   0.690  0.2247 -0.2023 -0.4698
 6001TIP3    H118009   1.825   0.414   0.771 -1.7535  1.7425  1.3025
 6001TIP3    H218010   1.685   0.434   0.715 -0.3841  1.9118 -2.3492
 6002TIP3   OH218011   2.723   4.016   5.095  0.2559 -0.3403  0.1106
 6002TIP3    H118012   2.738   3.923   5.078 -0.4348 -0.3202 -0.7016
 6002TIP3    H218013   2.796   4.060   5.051  0.4674 -0.4863  0.3146
 6003TIP3   OH218014   2.634   1.491   3.754  0.1289 -0.0645  0.3713
 6003TIP3    H118015   2.627   1.586   3.756  0.5837  0.0364 -1.3082
 6003TIP3    H218016   2.679   1.468   3.835  1.2488  1.2723  0.1590
 6004TIP3   OH218017   5.278   2.735   0.187 -0.0402 -0.1874 -0.4769
 6004TIP3    H118018   5.283   2.641   0.171  0.8713 -0.3199  0.5063
 6004TIP3    H218019   5.219   2.768   0.119  0.3219 -1.3311 -1.3633
 6005TIP3   OH218020   5.204   1.140   4.539 -0.1152  0.6797  0.5146
 6005TIP3    H118021   5.250   1.196   4.602 -1.0678  0.9510  0.9870
 6005TIP3    H218022   5.173   1.066   4.591 -1.4179  1.1926  0.5091
 6006TIP3   OH218023   4.128   4.480   0.778 -0.0542 -0.1083  0.3085
 6006TIP3    H118024   4.206   4.529   0.806  1.4079  0.3296 -3.9100
 6006TIP3    H218025   4.162   4.394   0.752 -0.5439  0.6217 -3.1285
 6007TIP3   OH218026   2.307   2.005   4.829 -0.1434  0.1119 -0.3127
 6007TIP3    H118027   2.351   2.012   4.744 -1.8594  1.4011 -1.1606
 6007TIP3    H218028   2.332   2.085   4.875 -1.3423  0.7280 -0.7009
 6008TIP3   OH218029   3.836   2.945   1.360  0.0336 -0.0128 -0.5146
 6008TIP3    H118030   3.782   2.920   1.435 -0.4154 -0.8271 -1.0937
 6008TIP3    H218031   3.890   2.868   1.342  1.4218  0.8029  0.0710
 6009TIP3   OH218032   4.049   3.970   2.663 -0.1306 -0.1835 -0.7318
 6009TIP3    H118033   4.062   4.060   2.633  0.6152 -0.4038 -1.0991
 6009TIP3    H218034   3.955   3.963   2.680  0.0696  1.2872  1.3259
 6010TIP3   OH218035   4.612   3.684   2.252 -0.0367 -0.2797  0.6940
 6010TIP3    H118036   4.688   3.643   2.211  0.1358  0.4002  0.3098
 6010TIP3    H218037   4.648   3.728   2.330  0.3957  1.8970 -0.6542
 6011TIP3   OH218038   2.131   2.805   1.283 -0.8613 -0.0288 -0.4085
 6011TIP3    H118039   2.174   2.886   1.312 -0.3900 -1.0630  2.0741
 6011TIP3    H218040   2.196   2.763   1.226 -0.6106  0.7456 -0.7112
 6012TIP3   OH218041   1.218   2.168   2.751  0.4327  0.5255  0.1317
 6012TIP3    H118042   1.269   2.236   2.708 -0.0527  1.0974  0.4386
 6012TIP3    H218043   1.270   2.143   2.827  0.8640  0.1685 -0.2829
 6013TIP3   OH218044   0.284   2.944   1.720 -0.0829  0.1184  0.1667
 6013TIP3    H118045   0.239   2.862   1.699 -0.1669  0.2956 -0.3741
 6013TIP3    H218046   0.377   2.921   1.722 -0.2097 -0.3728  1.8634
 6014TIP3   OH218047   2.739   5.538   0.229 -0.0849  0.4237  0.2764
 6014TIP3    H118048   2.777   5.480   0.295 -0.3175  0.6919  0.6463
 6014TIP3    H218049   2.782   5.512   0.147 -0.2183 -0.2967  0.4296
 6015TIP3   OH218050   1.652   3.381   1.447  0.3318 -0.6625  0.0536
 6015TIP3    H118051   1.661   3.454   1.386  0.4685 -1.3830 -0.8224
 6015TIP3    H218052   1.651   3.303   1.391 -1.6694 -1.2405  0.7889
 6016TIP3   OH218053   5.292   0.154   2.834  0.0666 -0.4735  0.1978
 6016TIP3    H118054   5.241   0.172   2.913  0.6277 -1.0465  0.6940
 6016TIP3    H218055   5.275   0.229   2.777  0.4311  0.4209  1.2458
 6017TIP3   OH218056   3.068   5.617   0.180 -0.2376  0.9058 -0.0886
 6017TIP3    H118057   3.140   5.667   0.216 -1.7635  2.8297  0.4912
 6017TIP3    H218058   2.989   5.656   0.219 -1.6458 -0.5349 -1.3162
 6018TIP3   OH218059   6.168   5.221   4.729 -0.0858 -0.4910  0.0148
 6018TIP3    H118060   6.107   5.149   4.744 -2.3576  0.9453 -1.6913
 6018TIP3    H218061   6.179   5.225   4.634  0.4375  1.0555  0.0990
 6019TIP3   OH218062   1.529   1.715   3.208  0.5052 -0.0943  0.1809
 6019TIP3    H118063   1.600   1.737   3.149 -1.1479  1.3845 -1.3494
 6019TIP3    H218064   1.514   1.794   3.260 -0.3986 -0.1875  0.0807
 6020TIP3   OH218065   1.689   3.403   3.038  0.4455 -0.5422 -0.0119
 6020TIP3    H118066   1.677   3.315   3.075  0.2291 -0.2555  0.6242
 6020TIP3    H218067   1.676   3.462   3.113  1.5484 -0.0166 -0.2146
 6021TIP3   OH218068   4.584   2.466   3.048 -0.5839  0.4375  0.2640
 6021TIP3    H118069   4.659   2.468   2.989 -0.0385 -1.9977  0.7317
 6021TIP3    H218070   4.610   2.519   3.123  0.0501  0.8408 -0.2334
 6022TIP3   OH218071   5.389   2.690   2.427 -0.7648 -0.5998  0.5276
 6022TIP3    H118072   5.346   2.740   2.496 -0.3788 -0.4012  0.6207
 6022TIP3    H218073   5.337   2.609   2.421 -2.9868  0.8473 -1.3709
 6023TIP3   OH218074   5.193   3.893   0.138  0.3242  0.4456  0.0299
 6023TIP3    H118075   5.128   3.954   0.172  0.4427  0.1028  0.8856
 6023TIP3    H218076   5.184   3.899   0.042 -0.3956  0.9998  0.1276
 6024TIP3   OH218077   4.855   4.320   1.576 -0.0725  0.7710 -0.4809
 6024TIP3    H118078   4.778   4.334   1.631 -0.9254 -0.9006 -1.1626
 6024TIP3    H218079   4.928   4.319   1.637 -0.6997  1.3943  0.3075
 6025TIP3   OH218080   4.247   0.536   0.322 -0.0369  0.4636 -0.7533
 6025TIP3    H118081   4.232   0.616   0.373  0.7770  2.2349 -3.1132
 6025TIP3    H218082   4.164   0.520   0.278 -0.7389 -1.0652  0.9931
 6026TIP3   OH218083   3.166   4.467   0.167  0.3414 -0.3646 -0.0083
 6026TIP3    H118084   3.071   4.471   0.161  0.3591 -0.8622 -0.7271
 6026TIP3    H218085   3.189   4.532   0.234 -0.4944 -0.2129  0.1344
 6027TIP3   OH218086   5.162   0.064   0.473  0.2178 -0.0834 -0.0138
 6027TIP3    H118087   5.192  -0.026   0.485 -0.4173 -0.2049  0.7761
 6027TIP3    H218088   5.189   0.087   0.385  1.7995 -0.4995  0.3366
 6028TIP3   OH218089   0.309   1.805   2.150  0.1414 -0.5397 -0.4987
 6028TIP3    H118090   0.397   1.827   2.181  0.2397 -0.2110 -1.0109
 6028TIP3    H218091   0.319   1.792   2.056 -0.4275 -0.1576 -0.6115
 6029TIP3   OH218092   2.517   5.967   4.078 -0.2715 -0.4856 -0.0360
 6029TIP3    H118093   2.528   5.896   4.014  0.5510  0.8283 -1.4496
 6029TIP3    H218094   2.587   5.953   4.142  0.2950 -0.6216 -0.6677
 6030TIP3   OH218095   5.203   3.008   1.031  0.0244  0.3953 -0.0846
 6030TIP3    H118096   5.216   3.047   1.117 -0.4766 -0.5204  0.4260
 6030TIP3    H218097   5.115   3.036   1.005  1.0899  2.8077 -1.4962
 6031TIP3   OH218098   4.906   0.447   0.225 -0.8040 -0.0309  0.0949
 6031TIP3    H118099   4.967   0.380   0.195  0.6951  1.6920 -0.8615
 6031TIP3    H218100   4.921   0.454   0.319 -2.9296 -2.8709  0.7811
 6032TIP3   OH218101   2.627   0.612   2.718 -0.7787  0.2524  0.1640
 6032TIP3    H118102   2.577   0.677   2.767  0.4757  2.2231 -1.0364
 6032TIP3    H218103   2.668   0.662   2.647  1.7095 -1.5145  0.2507
 6033TIP3   OH218104   6.198   1.961   1.344 -0.4134  0.0854  0.2320
 6033TIP3    H118105   6.216   1.890   1.406  1.3335  0.6596  0.4443
 6033TIP3    H218106   6.146   1.919   1.275  1.3829 -1.6893 -0.1376
 6034TIP3   OH218107   0.706   1.456   3.794  0.0523  0.3108  0.0335
 6034TIP3    H118108   0.798   1.453   3.766 -0.0439  0.5368 -0.3231
 6034TIP3    H218109   0.658   1.417   3.721 -0.0094 -1.2271  0.8654
 6035TIP3   OH218110   4.578   3.208   4.936  0.3100  0.4797  0.0098
 6035TIP3    H118111   4.643   3.236   5.000 -0.3745  0.8549  0.5524
 6035TIP3    H218112   4.499   3.192   4.987 -0.2514  0.8017 -0.7372
 6036TIP3   OH218113   1.702   2.205   4.038 -0.2808  0.3206 -0.1816
 6036TIP3    H118114   1.624   2.235   3.991 -0.6880 -0.2030  0.1461
 6036TIP3    H218115   1.775   2.241   3.988 -0.7318  0.8904 -0.4430
 6037TIP3   OH218116   5.676   1.679   0.322 -0.0188 -0.0820 -0.4988
 6037TIP3    H118117   5.659   1.771   0.339 -0.5035 -0.1848 -0.4102
 6037TIP3    H218118   5.772   1.672   0.318  0.0231  0.3869 -0.3091
 6038TIP3   OH218119   4.216   4.676   0.414 -0.8698  0.4703 -0.1144
 6038TIP3    H118120   4.126   4.687   0.447 -0.3552 -0.3431  1.7243
 6038TIP3    H218121   4.271   4.694   0.490  0.4524 -0.6307 -0.7674
 6039TIP3   OH218122   3.473   3.495   2.890 -0.4183 -0.4605  0.5466
 6039TIP3    H118123   3.523   3.489   2.971 -1.3581 -0.9496  1.1062
 6039TIP3    H218124   3.456   3.404   2.865 -0.3994 -0.3097 -0.0359
 6040TIP3   OH218125   2.340   2.623   1.695 -0.3534 -0.4505  0.3301
 6040TIP3    H118126   2.323   2.603   1.603  1.1218 -0.0712 -0.0391
 6040TIP3    H218127   2.339   2.719   1.700  0.6781 -0.4433  0.4838
 6041TIP3   OH218128   4.433   0.057   2.443 -0.4541  0.2091  0.2568
 6041TIP3    H118129   4.391   0.141   2.430  0.5480  0.6185 -0.4680
 6041TIP3    H218130   4.385   0.016   2.515 -1.5856  0.9665 -0.0551
 6042TIP3   OH218131   0.315   0.035   3.943  0.6574  0.4182 -0.1755
 6042TIP3    H118132   0.240   0.008   3.889  0.3944 -0.3348  0.5546
 6042TIP3    H218133   0.387  -0.019   3.912 -0.0041 -1.6901  1.6918
 6043TIP3   OH218134   3.324   1.974   4.671 -0.8864 -0.5812  0.2364
 6043TIP3    H118135   3.301   2.058   4.632  1.4500  0.6726  1.3368
 6043TIP3    H218136   3.339   1.916   4.597 -1.9790  0.1113 -0.5487
 6044TIP3   OH218137   3.795   4.801   5.159 -0.2596  0.2458  0.1992
 6044TIP3    H118138   3.733   4.772   5.092 -0.3184 -0.1429  0.4245
 6044TIP3    H218139   3.877   4.757   5.135 -0.4221 -0.3444  0.7096
 6045TIP3   OH218140   4.372   3.197   0.494 -0.3046  0.3591 -0.1616
 6045TIP3    H118141   4.285   3.192   0.535  0.0025  1.9329  0.7505
 6045TIP3    H218142   4.370   3.129   0.427 -1.6249 -0.8064  0.9795
 6046TIP3   OH218143   5.944   3.333   2.178  0.2230  0.0872 -0.0332
 6046TIP3    H118144   6.017   3.388   2.206  1.0444 -1.4580  1.0008
 6046TIP3    H218145   5.986   3.262   2.129 -0.4759 -1.2051  1.1756
 6047TIP3   OH218146   1.091   4.989   4.680  0.3615  0.4765  0.9243
 6047TIP3    H118147   1.176   4.969   4.720  1.3157 -0.4180 -1.3787
 6047TIP3    H218148   1.105   5.071   4.634  1.2574 -1.4834 -2.6164
 6048TIP3   OH218149   5.784   5.130   3.981 -0.5835 -0.1854 -0.0083
 6048TIP3    H118150   5.819   5.054   4.027 -0.2337  0.0824  0.1714
 6048TIP3    H218151   5.691   5.130   4.001 -0.4453 -0.1102  0.6422
 6049TIP3   OH218152   2.353   2.733   3.583  0.4327  0.0006  0.4977
 6049TIP3    H118153   2.294   2.779   3.523 -0.5261  0.0970  1.4574
 6049TIP3    H218154   2.422   2.796   3.603  0.9630 -0.1626 -0.7579
 6050TIP3   OH218155   1.869   1.302   0.820 -0.4136  0.1392 -0.6361
 6050TIP3    H118156   1.820   1.346   0.751  0.5704 -0.7120 -1.9356
 6050TIP3    H218157   1.921   1.371   0.861 -0.0431  0.4721 -1.6284
 6051TIP3   OH218158   3.298   0.947   3.573 -0.0776  0.1920  0.0049
 6051TIP3    H118159   3.308   0.854   3.595  1.3513  0.2246 -0.3952
 6051TIP3    H218160   3.348   0.993   3.639 -1.0946  0.7270  0.4231
 6052TIP3   OH218161   5.982   4.460   3.212 -0.5513 -0.3577  0.4658
 6052TIP3    H118162   6.024   4.540   3.243 -0.6902 -0.4648  0.9410
 6052TIP3    H218163   6.048   4.417   3.158  0.1331 -0.7788  1.6178
 6053TIP3   OH218164   6.055   4.439   4.537 -0.3005 -0.7158  0.2999
 6053TIP3    H118165   6.071   4.392   4.619 -0.7808  0.5165  1.1167
 6053TIP3    H218166   6.042   4.369   4.473  0.4432 -1.7117  1.1756
 6054TIP3   OH218167   4.311   4.326   4.397  0.3996  0.1996  0.2661
 6054TIP3    H118168   4.298   4.358   4.486 -0.2394  1.3769 -0.2248
 6054TIP3    H218169   4.244   4.370   4.345  1.3209  0.2355 -0.9576
 6055TIP3   OH218170   0.703   1.856   5.104  0.0104 -0.5259 -0.1145
 6055TIP3    H118171   0.643   1.783   5.120 -0.2444 -0.2895  0.0099
 6055TIP3    H218172   0.786   1.814   5.080 -0.7535 -0.8681 -2.3661
 6056TIP3   OH218173   3.969   2.392   0.744  0.4301  0.3974  0.2626
 6056TIP3    H118174   4.026   2.326   0.783 -0.0720  0.9633  2.0298
 6056TIP3    H218175   3.977   2.468   0.801 -1.6884  0.6639  0.2925
 6057TIP3   OH218176   0.223   4.746   4.997 -0.5435 -0.6519 -0.0879
 6057TIP3    H118177   0.153   4.788   4.948 -0.2614 -1.9539 -1.6977
 6057TIP3    H218178   0.189   4.659   5.019 -0.1459 -0.5861  0.8317
 6058TIP3   OH218179   1.931   3.153   1.059 -0.4908  0.4338  0.2574
 6058TIP3    H118180   1.908   3.060   1.052 -0.3841  0.4164  0.1229
 6058TIP3    H218181   1.988   3.159   1.135 -0.5314  0.3953  0.2905
 6059TIP3   OH218182   0.320   3.411   3.297 -0.2762 -0.9912 -0.6377
 6059TIP3    H118183   0.290   3.359   3.371  0.8832  0.6742  1.0823
 6059TIP3    H218184   0.377   3.351   3.248  2.8646 -0.9101  2.4995
 6060TIP3   OH218185   3.875   5.298   1.683 -0.4104  0.1700  0.7717
 6060TIP3    H118186   3.945   5.299   1.618  1.0805  0.9442  2.2831
 6060TIP3    H218187   3.809   5.359   1.649  0.3995  0.6701  0.0619
 6061TIP3   OH218188   5.344   0.850   3.624 -0.3938  0.5203 -0.0637
 6061TIP3    H118189   5.270   0.792   3.644  0.1787 -0.1389  0.1511
 6061TIP3    H218190   5.380   0.817   3.542  1.3514 -0.8873  1.1976
 6062TIP3   OH218191   0.739   0.947   1.626  0.1988  0.1130 -0.3634
 6062TIP3    H118192   0.653   0.980   1.600  0.2616 -0.1179 -0.8606
 6062TIP3    H218193   0.801   0.992   1.569  0.5130  1.0678  0.6864
 6063TIP3   OH218194   5.872   3.386   1.116  0.5952  0.7858  0.1532
 6063TIP3    H118195   5.872   3.402   1.021  1.9408  0.7442  0.1369
 6063TIP3    H218196   5.958   3.351   1.135 -0.4407 -1.4610  1.0518
 6064TIP3   OH218197   0.267   3.601   0.993  0.2560  0.0145  0.3516
 6064TIP3    H118198   0.270   3.561   0.906  0.5883 -0.0742  0.4038
 6064TIP3    H218199   0.292   3.692   0.978  0.6424 -0.0830  0.4033
 6065TIP3   OH218200   5.340   5.053   0.089 -0.0341  0.2727  0.2301
 6065TIP3    H118201   5.322   5.028  -0.002 -1.0380 -1.4143  0.8450
 6065TIP3    H218202   5.422   5.008   0.110 -2.2848 -3.6109  1.6136
 6066TIP3   OH218203   2.929   5.783   5.054  0.1629 -0.3793 -0.3404
 6066TIP3    H118204   2.928   5.786   5.150 -2.1155 -1.6681 -0.2476
 6066TIP3    H218205   2.932   5.874   5.027  0.8522  0.0010  0.9432
 6067TIP3   OH218206   5.249   4.906   4.979  0.3626  0.4597 -0.2889
 6067TIP3    H118207   5.178   4.938   5.034  1.8151  0.0689  1.9548
 6067TIP3    H218208   5.241   4.810   4.983  1.2820  0.3987  0.4226
 6068TIP3   OH218209   1.661   0.927   2.987  0.0787 -0.1709 -0.3518
 6068TIP3    H118210   1.664   0.886   2.901  0.9880 -0.2491 -0.2975
 6068TIP3    H218211   1.592   0.880   3.034 -3.2776  2.4273 -2.2588
 6069TIP3   OH218212   0.812   2.888   4.842 -0.1796  0.4699 -0.2366
 6069TIP3    H118213   0.886   2.927   4.796  2.5116 -1.0834  2.4455
 6069TIP3    H218214   0.816   2.924   4.931 -3.4623  1.2356 -0.2651
 6070TIP3   OH218215   2.772   5.552   3.834 -0.3283  0.2472 -0.3924
 6070TIP3    H118216   2.685   5.537   3.797 -0.1019 -0.9066 -0.4785
 6070TIP3    H218217   2.820   5.471   3.817  0.5184  0.5745  0.3671
 6071TIP3   OH218218   0.031   1.503   4.319  0.7013 -0.1051 -0.1830
 6071TIP3    H118219   0.120   1.533   4.335  1.0157 -0.2889 -1.4840
 6071TIP3    H218220   0.042   1.417   4.277 -0.1248 -0.7985  0.9623
 6072TIP3   OH218221   5.193   1.063   2.126  0.4251 -0.4552  0.3049
 6072TIP3    H118222   5.202   1.008   2.047  2.1477 -1.8028  1.3604
 6072TIP3    H218223   5.100   1.081   2.132  0.0704 -1.5585 -1.2395
 6073TIP3   OH218224   5.901   1.982   2.752  0.4208  0.3618  0.3457
 6073TIP3    H118225   5.951   1.975   2.833 -0.1543  0.6943  0.7370
 6073TIP3    H218226   5.940   1.916   2.694  0.7695  0.0474  0.9239
 6074TIP3   OH218227   3.868   3.175   1.210 -0.3089 -0.2213  0.2320
 6074TIP3    H118228   3.952   3.150   1.173  0.6566  1.4968  1.1047
 6074TIP3    H218229   3.841   3.100   1.263  0.6508 -0.8138 -0.1026
 6075TIP3   OH218230   1.678   3.548   1.663  0.4356 -0.4289  0.1587
 6075TIP3    H118231   1.668   3.501   1.746  1.9569 -0.3931  0.3923
 6075TIP3    H218232   1.663   3.482   1.595  1.7225 -1.0721  0.4820
 6076TIP3   OH218233   5.108   0.610   5.177 -0.2212  0.8069 -0.2139
 6076TIP3    H118234   5.035   0.666   5.203 -1.5597 -1.4275  1.2172
 6076TIP3    H218235   5.080   0.571   5.094 -2.3047 -2.4576  1.7926
 6077TIP3   OH218236   3.309   2.808   3.754  0.3852 -0.2025  0.0754
 6077TIP3    H118237   3.400   2.813   3.784  0.8702  0.3602 -1.3779
 6077TIP3    H218238   3.257   2.815   3.834  1.6112  0.0850  0.8828
 6078TIP3   OH218239   4.677   4.614   2.693  0.6352  0.5365 -0.1393
 6078TIP3    H118240   4.591   4.655   2.679 -0.5272 -2.0381 -1.2430
 6078TIP3    H218241   4.667   4.563   2.773  0.5880 -0.9645 -1.0602
 6079TIP3   OH218242   4.619   1.857   2.055 -0.5062 -0.0553  0.1215
 6079TIP3    H118243   4.587   1.779   2.011  1.9587 -1.2438  0.2748
 6079TIP3    H218244   4.611   1.838   2.148 -1.7084  0.7043  0.1926
 6080TIP3   OH218245   3.641   1.952   1.368  0.4172 -0.7381  0.2127
 6080TIP3    H118246   3.692   1.969   1.447 -1.0582 -0.5066  1.1553
 6080TIP3    H218247   3.550   1.962   1.395 -0.1939 -1.9914 -1.2083
 6081TIP3   OH218248   3.664   4.941   3.566 -0.3129 -0.6132 -0.0125
 6081TIP3    H118249   3.580   4.898   3.554  0.6604 -3.1988  1.6305
 6081TIP3    H218250   3.646   5.034   3.550 -3.0749 -1.2714 -1.2913
 6082TIP3   OH218251   4.972   0.186   3.298  0.0056 -0.0293  0.0355
 6082TIP3    H118252   4.911   0.113   3.308 -0.0257  0.1145  1.0587
 6082TIP3    H218253   5.058   0.146   3.308  0.1843 -0.4229 -2.5475
 6083TIP3   OH218254   4.240   3.288   3.928 -0.6261 -0.7440  0.5212
 6083TIP3    H118255   4.262   3.252   4.014  0.2131  1.4994  1.3163
 6083TIP3    H218256   4.306   3.252   3.869  1.1739  0.6406  1.5926
 6084TIP3   OH218257   3.078   1.259   0.815  0.1449  0.1854 -0.1548
 6084TIP3    H118258   3.148   1.195   0.825 -0.2883 -0.2999 -0.2259
 6084TIP3    H218259   3.000   1.208   0.793 -0.7044  0.5114  1.8711
 6085TIP3   OH218260   1.636   2.691   4.019 -0.5297  0.8041  0.7581
 6085TIP3    H118261   1.704   2.754   4.044 -0.3209  0.5993  0.7056
 6085TIP3    H218262   1.684   2.610   4.002 -0.7145  0.8251  0.1177
 6086TIP3   OH218263   1.152   0.610   1.981  0.4359 -0.4733  0.0192
 6086TIP3    H118264   1.235   0.565   1.994  0.4597 -0.8434 -1.3252
 6086TIP3    H218265   1.086   0.543   1.996  0.4661 -0.9405 -1.7026
 6087TIP3   OH218266   3.745   4.166   5.126  0.0499 -0.0253  0.0590
 6087TIP3    H118267   3.709   4.108   5.060 -2.3488  0.5816  0.7313
 6087TIP3    H218268   3.839   4.152   5.121 -0.2408 -1.8889 -1.6798
 6088TIP3   OH218269   0.948   0.711   2.605 -0.0118 -0.1015 -0.3038
 6088TIP3    H118270   0.951   0.703   2.510 -0.6233 -0.1205 -0.3227
 6088TIP3    H218271   0.975   0.625   2.637  1.2222  0.2086 -0.4410
 6089TIP3   OH218272   0.042   5.282   3.956  0.2360 -0.3226 -0.0525
 6089TIP3    H118273  -0.021   5.235   3.902 -0.3618  1.9372 -1.4313
 6089TIP3    H218274   0.022   5.374   3.942  2.1270  0.4116  1.5978
 6090TIP3   OH218275   3.461   0.432   4.002 -0.0037 -0.3074 -0.2850
 6090TIP3    H118276   3.388   0.415   3.943  0.0904  0.2748 -0.5803
 6090TIP3    H218277   3.539   0.419   3.949  0.1043 -0.7499 -0.0194
 6091TIP3   OH218278   2.956   2.739   1.078 -0.4152 -0.0179 -0.7640
 6091TIP3    H118279   2.890   2.735   1.147  1.1366  1.7833  0.9335
 6091TIP3    H218280   3.019   2.671   1.101  0.7564  1.3950  0.3994
 6092TIP3   OH218281   0.160   1.100   0.037  0.2388 -0.3615 -0.3699
 6092TIP3    H118282   0.246   1.142   0.045 -0.0784  0.2295  0.0341
 6092TIP3    H218283   0.146   1.094  -0.058  0.0390  1.0070 -0.4532
 6093TIP3   OH218284   1.463   0.983   1.697  0.3194 -0.2392  0.3841
 6093TIP3    H118285   1.468   0.981   1.792  1.0843 -2.0221  0.3383
 6093TIP3    H218286   1.422   0.900   1.673  0.8982 -0.1883 -0.8720
 6094TIP3   OH218287   1.941   4.226   0.952 -0.2427 -0.1017 -0.5704
 6094TIP3    H118288   2.017   4.267   0.991 -1.1841  1.4596 -0.3079
 6094TIP3    H218289   1.930   4.144   1.000  0.8254  0.0005 -0.1362
 6095TIP3   OH218290   4.597   5.248   0.185 -0.4333 -0.1537 -0.5639
 6095TIP3    H118291   4.577   5.226   0.277 -2.0541 -0.2500 -0.9095
 6095TIP3    H218292   4.671   5.191   0.163 -0.8488 -1.0757  0.3046
 6096TIP3   OH218293   4.937   5.180   2.806  0.2624  0.0758 -0.3413
 6096TIP3    H118294   4.876   5.253   2.795  3.1258  2.4184 -2.8164
 6096TIP3    H218295   5.008   5.217   2.859  2.1921 -0.4745 -2.3633
 6097TIP3   OH218296   0.511   1.117   3.874 -0.1958 -0.1495  0.2084
 6097TIP3    H118297   0.526   1.190   3.814  2.0174  0.7636  1.7453
 6097TIP3    H218298   0.593   1.067   3.872 -1.5682 -2.5142 -0.6119
 6098TIP3   OH218299   1.493   0.357   3.120  0.2070  0.2041  0.0054
 6098TIP3    H118300   1.425   0.423   3.104  0.5463  0.0865 -2.2308
 6098TIP3    H218301   1.449   0.290   3.173 -1.1819  0.5579 -0.6518
 6099TIP3   OH218302   1.226   2.881   3.177  0.0840  0.2571  0.1958
 6099TIP3    H118303   1.314   2.854   3.149 -0.2774 -0.3523 -0.3666
 6099TIP3    H218304   1.167   2.823   3.130 -0.8187  2.7290 -1.9494
 6100TIP3   OH218305   3.934   5.144   4.639  0.4096 -0.1634 -0.2042
 6100TIP3    H118306   3.924   5.239   4.640  1.3476 -0.0214 -1.5783
 6100TIP3    H218307   3.872   5.112   4.705  0.5373  1.4327  0.7273
 6101TIP3   OH218308   2.692   1.566   2.107  0.1364 -0.1385 -0.2835
 6101TIP3    H118309   2.782   1.597   2.109  0.1592 -0.1909 -0.4346
 6101TIP3    H218310   2.700   1.470   2.113  0.0642 -0.1145  0.2395
 6102TIP3   OH218311   2.051   4.367   4.378 -0.5722 -0.3548  0.4227
 6102TIP3    H118312   2.134   4.379   4.423 -0.3235 -0.9439  0.1360
 6102TIP3    H218313   2.055   4.278   4.344 -1.3550 -0.4192  0.4732
 6103TIP3   OH218314   1.167   4.472   5.107 -0.1777  0.8485  0.1876
 6103TIP3    H118315   1.208   4.413   5.171 -3.5167 -0.4762  1.2858
 6103TIP3    H218316   1.172   4.558   5.147  1.7260  0.8415  0.1008
 6104TIP3   OH218317   5.079   5.542   1.192 -0.5631  0.7197  0.1132
 6104TIP3    H118318   5.080   5.615   1.130  0.9241  0.2869 -0.4279
 6104TIP3    H218319   5.126   5.472   1.146 -1.6386 -0.4698  0.7591
 6105TIP3   OH218320   2.580   0.426   4.520  0.2281  0.2938  0.5708
 6105TIP3    H118321   2.629   0.426   4.438 -0.8542  0.0641 -0.0965
 6105TIP3    H218322   2.624   0.492   4.574  1.2062  0.1502 -0.0300
 6106TIP3   OH218323   2.016   1.208   2.690  0.5007 -0.1530  0.3203
 6106TIP3    H118324   1.935   1.192   2.641 -0.0050 -0.3803  1.2182
 6106TIP3    H218325   2.083   1.162   2.640  0.0179 -0.2867 -0.2270
 6107TIP3   OH218326   5.796   1.514   1.592 -0.1820 -0.7637  0.0672
 6107TIP3    H118327   5.834   1.439   1.638 -1.1069 -0.1061  2.0114
 6107TIP3    H218328   5.861   1.536   1.525  1.5696 -1.3735  1.4735
 6108TIP3   OH218329   0.018   2.302   0.795  0.1651  0.0945 -0.6469
 6108TIP3    H118330   0.097   2.344   0.761  0.9087 -1.5267 -0.9732
 6108TIP3    H218331  -0.029   2.274   0.717  1.1315 -2.2834 -0.4418
 6109TIP3   OH218332   4.327   0.805   1.625  0.0112  0.7520  0.4168
 6109TIP3    H118333   4.349   0.893   1.594  0.7627  0.9823  1.5369
 6109TIP3    H218334   4.346   0.807   1.719  0.9071 -0.8709  0.3072
 6110TIP3   OH218335   2.036   3.190   1.347 -0.4329 -0.3305 -0.2693
 6110TIP3    H118336   1.982   3.160   1.420 -0.3074  1.2424  0.5061
 6110TIP3    H218337   2.120   3.147   1.360 -1.0802 -1.8565 -0.8137
 6111TIP3   OH218338   4.125   1.091   4.882  0.0958 -0.2474  0.4859
 6111TIP3    H118339   4.177   1.044   4.816  0.5785 -1.9791  2.0170
 6111TIP3    H218340   4.165   1.178   4.887  1.3007 -0.7478 -0.0994
 6112TIP3   OH218341   3.609   0.773   1.551 -0.3970  0.0077  0.6173
 6112TIP3    H118342   3.685   0.831   1.555  0.7008 -1.3189 -0.2221
 6112TIP3    H218343   3.589   0.753   1.643  0.1772  0.4798  0.8482
 6113TIP3   OH218344   6.205   4.284  -0.026 -0.8045  0.0815  0.1999
 6113TIP3    H118345   6.253   4.250   0.050 -0.2504 -0.2607 -0.2919
 6113TIP3    H218346   6.119   4.242  -0.020 -0.9157  0.3946  0.8761
 6114TIP3   OH218347   1.486   1.538   2.987 -0.1663  0.2015  0.2177
 6114TIP3    H118348   1.490   1.606   3.054  2.0575  0.0006  0.3749
 6114TIP3    H218349   1.560   1.480   3.007 -1.4063 -1.7160 -0.4910
 6115TIP3   OH218350   5.092   1.818   0.383  0.3505 -0.0912  0.0084
 6115TIP3    H118351   5.175   1.792   0.422  0.4570 -1.5771 -1.1372
 6115TIP3    H218352   5.099   1.913   0.372  1.8380 -0.1807  0.0518
 6116TIP3   OH218353   1.192   0.581   4.497  0.2786  0.1913 -0.0397
 6116TIP3    H118354   1.177   0.675   4.507  1.8817  0.5547 -0.7560
 6116TIP3    H218355   1.279   0.575   4.459  0.7203 -1.6404  1.1526
 6117TIP3   OH218356   4.728   1.632   3.988  0.2370  0.0031  0.2099
 6117TIP3    H118357   4.664   1.638   4.059 -0.5289 -0.3139 -0.4360
 6117TIP3    H218358   4.736   1.721   3.955  0.9306  0.2300  0.9767
 6118TIP3   OH218359   5.475   2.425   2.240  0.2537 -0.0645  0.1146
 6118TIP3    H118360   5.463   2.500   2.182  1.1674 -0.4645 -0.6157
 6118TIP3    H218361   5.446   2.456   2.326  1.2059  1.3393 -0.0337
 6119TIP3   OH218362   1.243   4.514   0.266  0.0585  0.3190 -0.2732
 6119TIP3    H118363   1.315   4.457   0.295  0.5098  0.6364 -0.7562
 6119TIP3    H218364   1.219   4.564   0.344  0.9598  0.8409 -0.3203
 6120TIP3   OH218365   5.228   2.471   2.421 -0.2285  0.6189 -0.7601
 6120TIP3    H118366   5.230   2.443   2.512 -0.4601  0.4352 -0.8131
 6120TIP3    H218367   5.153   2.426   2.382 -0.8586  1.6131 -0.7431
 6121TIP3   OH218368   4.266   2.768   0.294 -0.1947  0.3996  0.3231
 6121TIP3    H118369   4.218   2.849   0.275 -2.3335 -0.5712  1.2811
 6121TIP3    H218370   4.198   2.706   0.320  1.2861 -1.9887 -1.1927
 6122TIP3   OH218371   5.137   5.417   1.630  0.5411  0.2495 -0.6804
 6122TIP3    H118372   5.043   5.413   1.613  0.4702 -1.0032 -0.1183
 6122TIP3    H218373   5.145   5.426   1.725  0.9757 -1.4927 -0.5176
 6123TIP3   OH218374   5.177   0.038   1.936  0.1394 -0.0194  0.0210
 6123TIP3    H118375   5.228   0.103   1.984 -1.2529  2.6086 -1.7671
 6123TIP3    H218376   5.203   0.050   1.845 -2.3533  0.2627 -0.7379
 6124TIP3   OH218377   4.625   4.344   1.734 -0.6594  0.0956  0.0448
 6124TIP3    H118378   4.664   4.313   1.816 -0.3599 -1.1880 -0.5591
 6124TIP3    H218379   4.561   4.410   1.762  0.7180  1.0170  1.1663
 6125TIP3   OH218380   2.010   0.667   4.319  0.0820 -0.0330 -0.2733
 6125TIP3    H118381   1.968   0.582   4.333 -2.9092  1.2673 -0.7804
 6125TIP3    H218382   2.010   0.708   4.405  1.4090 -0.4032 -0.0579
 6126TIP3   OH218383   3.126   2.842   3.079 -0.2098 -0.2208 -0.3786
 6126TIP3    H118384   3.136   2.754   3.116 -1.1568  0.3341  1.3223
 6126TIP3    H218385   3.149   2.901   3.151 -0.9443  0.9344 -1.0529
 6127TIP3   OH218386   3.464   1.856   0.689 -0.1327  0.0073  0.0523
 6127TIP3    H118387   3.548   1.846   0.645  0.8631 -0.3452  1.9478
 6127TIP3    H218388   3.477   1.928   0.751 -1.3714  0.2539  0.0674
 6128TIP3   OH218389   5.105   2.784   5.011 -0.2001 -0.1915  0.1160
 6128TIP3    H118390   5.197   2.759   5.023 -0.1138 -0.1032 -0.3460
 6128TIP3    H218391   5.108   2.859   4.952 -0.5651 -0.1239  0.1813
 6129TIP3   OH218392   2.107   3.809   3.153 -0.4030  0.0536 -0.3185
 6129TIP3    H118393   2.071   3.780   3.070  0.2786 -0.7874 -0.3347
 6129TIP3    H218394   2.051   3.768   3.219 -0.4069 -0.0058 -0.3583
 6130TIP3   OH218395   0.292   3.467   1.795 -0.2892 -0.6531  0.2525
 6130TIP3    H118396   0.249   3.474   1.880  3.0361 -0.5514  2.0994
 6130TIP3    H218397   0.316   3.375   1.788  0.5563 -0.4291  0.0485
 6131TIP3   OH218398   1.222   5.677   0.379 -0.0260  0.0728  0.4867
 6131TIP3    H118399   1.203   5.646   0.290  0.4882 -1.1694  0.7910
 6131TIP3    H218400   1.318   5.682   0.383 -0.0556  0.3777  0.8972
 6132TIP3   OH218401   5.569   2.868   1.597  0.2209  0.5161 -0.1482
 6132TIP3    H118402   5.605   2.820   1.522 -1.8415  0.4593 -1.1574
 6132TIP3    H218403   5.558   2.958   1.565 -0.9639  0.4216 -0.0501
 6133TIP3   OH218404   3.648   0.015   2.807 -0.1256 -0.0613  0.2905
 6133TIP3    H118405   3.741   0.024   2.828  0.2430 -0.7364 -1.0009
 6133TIP3    H218406   3.629   0.091   2.752 -0.1120 -0.4097 -0.1965
 6134TIP3   OH218407   6.252   4.154   5.163  0.9597  0.3489  0.0728
 6134TIP3    H118408   6.319   4.192   5.106 -0.1646  0.7911 -0.9957
 6134TIP3    H218409   6.222   4.228   5.217  1.2769  0.1632  0.5115
 6135TIP3   OH218410   0.055   2.250   0.115  0.3250 -0.1434  0.4708
 6135TIP3    H118411   0.010   2.177   0.072 -0.8587  1.6132 -1.4745
 6135TIP3    H218412   0.053   2.320   0.050  1.6691  1.5449  2.1598
 6136TIP3   OH218413   4.019   3.877   1.069 -0.4540  0.1877 -0.3195
 6136TIP3    H118414   4.023   3.838   1.157  1.3687  1.4797  0.2275
 6136TIP3    H218415   4.037   3.970   1.083 -1.1817  0.6131 -1.9713
 6137TIP3   OH218416   2.254   3.875   1.751 -0.2130  0.0229 -0.0102
 6137TIP3    H118417   2.288   3.940   1.813  2.0105 -0.4767 -0.5991
 6137TIP3    H218418   2.222   3.804   1.806 -0.2168  0.4885  0.6026
 6138TIP3   OH218419   1.459   4.691   4.334  0.2329  0.1512  0.2473
 6138TIP3    H118420   1.413   4.767   4.299  0.0697  0.5051  1.1960
 6138TIP3    H218421   1.426   4.617   4.283  0.3098  0.6928 -0.6095
 6139TIP3   OH218422   4.938   4.007   0.163  0.0708 -0.0469 -0.0682
 6139TIP3    H118423   4.907   4.096   0.151  0.8047  0.5722  2.1666
 6139TIP3    H218424   4.901   3.980   0.248 -0.1781 -1.9054 -0.7160
 6140TIP3   OH218425   5.955   5.472   4.779  0.3914  0.5588 -0.4175
 6140TIP3    H118426   5.986   5.430   4.859  1.3790 -0.0180 -1.0726
 6140TIP3    H218427   5.951   5.401   4.715  0.4341  1.1551 -1.0999
 6141TIP3   OH218428   4.111   1.342   1.192 -0.7463 -0.0967 -0.3173
 6141TIP3    H118429   4.020   1.341   1.163 -1.5550  0.7801  1.8946
 6141TIP3    H218430   4.149   1.418   1.149 -0.5315 -1.4062 -2.5534
 6142TIP3   OH218431   2.194   4.908   5.024 -0.1814 -0.3076  0.7128
 6142TIP3    H118432   2.245   4.847   5.076 -2.8319 -2.5583  0.9397
 6142TIP3    H218433   2.256   4.944   4.961  1.9928 -1.4738  2.0633
 6143TIP3   OH218434   2.630   2.996   4.749 -0.4284  0.5032 -0.0190
 6143TIP3    H118435   2.607   3.037   4.665  0.3871  0.2662 -0.3649
 6143TIP3    H218436   2.570   2.922   4.756  0.9884 -0.8801 -1.5320
 6144TIP3   OH218437   1.298   1.684   0.973  0.0478  0.6634 -0.3397
 6144TIP3    H118438   1.248   1.685   0.892 -0.2944  2.3911 -0.1398
 6144TIP3    H218439   1.336   1.771   0.979  0.5287  0.3786  1.0712
 6145TIP3   OH218440   2.341   5.390   0.036  0.0591  0.3281  0.2074
 6145TIP3    H118441   2.437   5.389   0.029 -0.0122  1.8314 -2.3529
 6145TIP3    H218442   2.314   5.303   0.006  0.5798  0.7502 -1.6037
 6146TIP3   OH218443   2.448   5.063   2.205  0.3266  0.2856  0.1003
 6146TIP3    H118444   2.411   5.093   2.288 -0.9208  0.6163 -0.5531
 6146TIP3    H218445   2.448   4.967   2.212 -2.9817  0.1013 -0.7549
 6147TIP3   OH218446   1.572   5.882   5.141  0.0317 -0.2909  0.0547
 6147TIP3    H118447   1.638   5.940   5.179 -0.7905  0.7110  0.0016
 6147TIP3    H218448   1.614   5.846   5.063  0.5319  0.2964  0.0432
 6148TIP3   OH218449   2.572   3.730   0.657  0.4295  0.3017  0.1249
 6148TIP3    H118450   2.636   3.698   0.593  1.0088  1.5990  0.0316
 6148TIP3    H218451   2.624   3.750   0.735 -0.2132 -0.8553  0.8714
 6149TIP3   OH218452   1.433   0.071   5.082 -0.1715 -0.1770  0.2713
 6149TIP3    H118453   1.527   0.049   5.086 -0.1723 -0.0948  0.9710
 6149TIP3    H218454   1.405   0.068   5.174 -1.2508 -1.8710 -0.0744
 6150TIP3   OH218455   4.296   4.646   2.845  0.2699 -0.2785 -0.3772
 6150TIP3    H118456   4.292   4.573   2.783  0.8156 -0.7236  0.0872
 6150TIP3    H218457   4.333   4.718   2.795  1.9813 -1.0206 -0.2542
 6151TIP3   OH218458   6.165   4.664   3.237 -0.2941  0.2171 -0.1970
 6151TIP3    H118459   6.242   4.716   3.260 -0.6526  0.1055  1.3694
 6151TIP3    H218460   6.188   4.623   3.154  2.3472 -1.7178  1.3398
 6152TIP3   OH218461   6.327   5.090   0.394 -0.1889  0.1987 -0.2467
 6152TIP3    H118462   6.357   5.129   0.476 -0.6089  2.5131 -1.1162
 6152TIP3    H218463   6.276   5.159   0.352  1.4178 -0.2571 -3.2322
 6153TIP3   OH218464   3.189   1.169   0.581 -0.3771 -0.0074  1.0574
 6153TIP3    H118465   3.166   1.256   0.548 -1.0684 -0.1605  1.1373
 6153TIP3    H218466   3.234   1.186   0.664 -0.2369  0.2871  0.9224
 6154TIP3   OH218467   1.215   4.463   4.295 -0.5452 -0.3748  0.7200
 6154TIP3    H118468   1.122   4.441   4.297 -0.7557  0.4312  0.2079
 6154TIP3    H218469   1.242   4.463   4.387 -1.0893 -0.4566  0.8826
 6155TIP3   OH218470   1.517   0.446   3.857  0.5622 -0.2296 -0.1159
 6155TIP3    H118471   1.459   0.373   3.879  0.6910  0.3870  2.6704
 6155TIP3    H218472   1.460   0.523   3.858  1.0400  0.1250  0.5951
 6156TIP3   OH218473   5.968   0.154   1.812 -0.6365  0.7139 -0.2596
 6156TIP3    H118474   5.968   0.208   1.891  0.6832  0.1315  0.1598
 6156TIP3    H218475   6.043   0.185   1.761  1.2849 -1.8485  0.8258
 6157TIP3   OH218476   5.290   1.967   2.811  0.0666 -0.2629  0.7368
 6157TIP3    H118477   5.316   1.960   2.902 -0.3381 -0.6487  0.8246
 6157TIP3    H218478   5.245   1.885   2.791  0.2203 -0.2185  0.1665
 6158TIP3   OH218479   3.556   0.526   1.452 -0.2876  0.1442 -0.5285
 6158TIP3    H118480   3.562   0.608   1.501 -1.3270 -0.0020 -0.1198
 6158TIP3    H218481   3.466   0.523   1.421 -0.7182 -1.4843  0.6682
 6159TIP3   OH218482   2.710   1.981   4.375 -0.2492 -0.3714  0.1124
 6159TIP3    H118483   2.749   1.897   4.398 -0.1724 -0.2826  0.3076
 6159TIP3    H218484   2.726   1.991   4.281  1.4502  0.3169  0.4361
 6160TIP3   OH218485   1.561   4.280   0.022  0.1021  0.7254 -0.0820
 6160TIP3    H118486   1.644   4.294   0.068 -0.3615  0.9465  0.6974
 6160TIP3    H218487   1.494   4.286   0.090 -0.3609 -2.9161 -0.0124
 6161TIP3   OH218488   6.183   5.493   0.055 -0.0201  0.5750 -0.0319
 6161TIP3    H118489   6.089   5.495   0.038  0.2208  2.5092 -1.5591
 6161TIP3    H218490   6.215   5.421   0.001 -0.4001  1.1807 -1.0945
 6162TIP3   OH218491   2.707   1.437   2.653  0.2784  0.2093 -0.2210
 6162TIP3    H118492   2.733   1.527   2.632  0.3058 -0.0231 -1.1956
 6162TIP3    H218493   2.761   1.414   2.729  0.8094  0.7524 -0.4287
 6163TIP3   OH218494   1.873   4.065   0.254  0.2549 -0.2347 -0.2233
 6163TIP3    H118495   1.814   4.125   0.300  1.1539  2.9278 -2.7402
 6163TIP3    H218496   1.815   4.011   0.200 -0.5396  1.0715 -0.7486
 6164TIP3   OH218497   4.840   4.995   1.126 -0.1964 -0.2509 -0.4531
 6164TIP3    H118498   4.807   4.921   1.075  1.0871  1.0131 -3.3785
 6164TIP3    H218499   4.767   5.057   1.129 -0.5823 -0.7214  0.1362
 6165TIP3   OH218500   5.015   4.803   1.286  0.3880 -0.2717 -0.7185
 6165TIP3    H118501   4.938   4.857   1.268  0.8035  0.4029 -0.5088
 6165TIP3    H218502   4.996   4.759   1.369  0.9589  1.3045  0.2953
 6166TIP3   OH218503   3.937   4.689   0.444  0.5217  0.1050  0.1683
 6166TIP3    H118504   3.969   4.599   0.457 -0.6845 -0.1396  1.8540
 6166TIP3    H218505   3.842   4.681   0.454 -0.2943  0.7697 -4.6917
 6167TIP3   OH218506   0.259   1.321   0.588 -0.4227  0.0971 -0.1794
 6167TIP3    H118507   0.208   1.273   0.653  0.3297 -1.4998 -0.6835
 6167TIP3    H218508   0.196   1.375   0.541 -1.4785 -1.0435 -0.1143
 6168TIP3   OH218509   3.664   1.776   3.993 -0.0090  0.9329 -0.1996
 6168TIP3    H118510   3.640   1.724   4.070 -1.2079  0.7098 -0.7039
 6168TIP3    H218511   3.746   1.737   3.963 -0.4921 -0.1833 -0.1153
 6169TIP3   OH218512   0.679   1.999   2.795 -0.3088 -0.0536  0.2706
 6169TIP3    H118513   0.621   1.939   2.843 -0.5168 -0.8085 -0.8884
 6169TIP3    H218514   0.766   1.960   2.804 -0.4903 -0.7124 -0.7405
 6170TIP3   OH218515   6.288  -0.013   4.125 -0.5268  0.5982  0.2832
 6170TIP3    H118516   6.206  -0.011   4.174 -0.8879 -1.4946 -0.1202
 6170TIP3    H218517   6.282   0.062   4.066 -2.8643 -0.2859 -0.7572
 6171TIP3   OH218518   4.619   1.051   1.051  0.1543  0.6080  0.3633
 6171TIP3    H118519   4.527   1.078   1.056 -0.1420 -0.6088  2.7869
 6171TIP3    H218520   4.633   0.998   1.129  2.6143 -0.2647 -0.5729
 6172TIP3   OH218521   3.580   4.039   0.920  0.6028 -0.2658  0.1435
 6172TIP3    H118522   3.550   4.088   0.843 -0.5676  0.4061  0.9930
 6172TIP3    H218523   3.619   3.959   0.884 -1.3164 -0.6998 -1.1027
 6173TIP3   OH218524   0.069   4.352   0.408  0.3258  0.4832  0.6698
 6173TIP3    H118525   0.145   4.366   0.465  0.2679  0.4406  0.7578
 6173TIP3    H218526   0.063   4.432   0.355  0.9629  0.1274  0.0457
 6174TIP3   OH218527   3.921   1.291   3.877 -0.3951 -0.0658 -0.2798
 6174TIP3    H118528   3.904   1.268   3.968 -0.4835  0.9280 -0.0338
 6174TIP3    H218529   3.950   1.382   3.880 -2.3711  0.6612 -1.4192
 6175TIP3   OH218530   2.430   3.253   1.707  0.0841  0.5411 -0.7232
 6175TIP3    H118531   2.397   3.223   1.792 -0.8361  1.9527 -0.5481
 6175TIP3    H218532   2.515   3.210   1.698  1.1283  1.8243  1.8126
 6176TIP3   OH218533   0.321   2.677   1.931  0.2027 -0.1110  0.0775
 6176TIP3    H118534   0.285   2.660   1.844  0.5927  2.5800 -0.7219
 6176TIP3    H218535   0.272   2.753   1.962 -0.2998 -1.3457  2.4906
 6177TIP3   OH218536   1.364   0.399   3.438  0.0884  0.7279 -0.3123
 6177TIP3    H118537   1.282   0.436   3.471 -0.6010 -0.9099 -0.1141
 6177TIP3    H218538   1.343   0.371   3.349 -0.0431 -1.0575  0.2391
 6178TIP3   OH218539   3.083   0.153   2.123 -0.0441  0.5862 -0.3975
 6178TIP3    H118540   3.058   0.078   2.068  0.6787 -0.8746  1.1672
 6178TIP3    H218541   3.013   0.217   2.109 -0.2185  0.0101 -2.4821
 6179TIP3   OH218542   4.423   5.973   2.887 -0.2734 -0.5172  0.3842
 6179TIP3    H118543   4.376   5.901   2.845 -2.0327 -1.5500  3.7386
 6179TIP3    H218544   4.376   6.052   2.859 -0.8322 -1.0675 -0.2671
 6180TIP3   OH218545   2.196   4.377   2.208  0.0555 -0.1113  0.2050
 6180TIP3    H118546   2.127   4.386   2.273 -0.4785 -0.6212 -0.2874
 6180TIP3    H218547   2.162   4.421   2.130  0.8540  0.8468  0.3711
 6181TIP3   OH218548   4.379   0.904   2.964  0.0626  0.1413 -0.3495
 6181TIP3    H118549   4.372   0.914   3.059 -0.3760  0.5801 -0.4204
 6181TIP3    H218550   4.314   0.965   2.929  0.8600  0.6570 -0.9558
 6182TIP3   OH218551   3.521   0.497   4.279  0.2232  0.0089 -0.0622
 6182TIP3    H118552   3.607   0.526   4.246  0.6290  0.0889  1.0153
 6182TIP3    H218553   3.485   0.444   4.208  2.1497 -1.9301  0.2920
 6183TIP3   OH218554   5.611   0.654   1.414 -0.1686  0.4115  0.3353
 6183TIP3    H118555   5.616   0.679   1.506 -0.9100 -1.8488  1.0625
 6183TIP3    H218556   5.527   0.609   1.406  0.1561  0.0281 -1.3089
 6184TIP3   OH218557   2.931   2.355   3.810 -0.2296  0.2349  0.0882
 6184TIP3    H118558   2.909   2.410   3.735 -1.9571 -0.3377  0.1248
 6184TIP3    H218559   2.958   2.271   3.771  2.3259  0.9917  0.0346
 6185TIP3   OH218560   4.210   1.968   2.289  0.4363 -0.6005  0.1109
 6185TIP3    H118561   4.183   2.056   2.312  1.4308  0.2777 -1.8775
 6185TIP3    H218562   4.268   1.941   2.361  1.0091  0.8141  0.2077
 6186TIP3   OH218563   5.138   4.702   2.352 -0.2084 -0.1857 -0.3662
 6186TIP3    H118564   5.219   4.667   2.389 -0.3872 -1.0777 -0.8074
 6186TIP3    H218565   5.077   4.629   2.354 -1.2829  0.6980  0.7554
 6187TIP3   OH218566   1.926   3.845   0.626 -0.1396 -0.2410  0.6843
 6187TIP3    H118567   1.904   3.810   0.713 -0.2257  0.0605  0.7836
 6187TIP3    H218568   1.902   3.775   0.566 -0.2792 -0.3695  0.8866
 6188TIP3   OH218569   3.105   3.232   4.118 -0.1990 -0.0877 -0.0830
 6188TIP3    H118570   3.104   3.236   4.213  2.0408  2.2855 -0.0402
 6188TIP3    H218571   3.079   3.320   4.090 -0.6843 -0.7024 -1.6606
 6189TIP3   OH218572   3.374   4.288   3.316 -0.1264 -0.1238  0.3305
 6189TIP3    H118573   3.413   4.213   3.271  1.3002  0.1679  1.0357
 6189TIP3    H218574   3.302   4.314   3.259  0.7838 -0.6028 -1.1156
 6190TIP3   OH218575   4.509   0.717   0.508  0.4221 -0.2719 -0.2971
 6190TIP3    H118576   4.542   0.642   0.460 -1.6020 -1.3581 -0.1049
 6190TIP3    H218577   4.520   0.791   0.448  0.5102 -1.0939 -1.3187
 6191TIP3   OH218578   2.666   3.159   3.173  0.6949 -0.3443  0.3837
 6191TIP3    H118579   2.708   3.082   3.212  1.4852  0.2048  0.6409
 6191TIP3    H218580   2.618   3.124   3.098  0.1655 -1.2403  1.1136
 6192TIP3   OH218581   3.961   3.641   2.164  0.4515 -0.0923  0.6309
 6192TIP3    H118582   3.930   3.686   2.086 -2.4908 -0.4277  1.4812
 6192TIP3    H218583   3.988   3.711   2.223  1.7916  0.1986 -0.2820
 6193TIP3   OH218584   1.172   5.949   1.087  0.0774  0.4703  0.2617
 6193TIP3    H118585   1.092   5.964   1.136  0.3913 -0.0304  0.9443
 6193TIP3    H218586   1.189   5.855   1.095 -0.3954  0.1664 -1.6488
 6194TIP3   OH218587   0.528   2.601   2.850 -0.1617 -0.0116 -0.0319
 6194TIP3    H118588   0.505   2.516   2.812 -0.9091  0.0381  0.3000
 6194TIP3    H218589   0.615   2.620   2.814  0.5056 -1.4219  0.7424
 6195TIP3   OH218590   0.224   5.060   4.203 -0.1335 -0.3507  0.2188
 6195TIP3    H118591   0.134   5.031   4.186 -0.0678 -0.6955  0.4578
 6195TIP3    H218592   0.279   4.991   4.167  0.0437 -0.0696 -0.0613
 6196TIP3   OH218593   3.946   5.663   4.072  0.2212  0.0527  0.3022
 6196TIP3    H118594   3.975   5.583   4.029  1.6131  0.9217 -0.4393
 6196TIP3    H218595   4.021   5.690   4.126  0.4365  1.7372 -0.7650
 6197TIP3   OH218596   1.911   0.631   0.943  0.1605  0.4455 -0.0720
 6197TIP3    H118597   2.000   0.617   0.911  0.1370 -0.7865  0.3405
 6197TIP3    H218598   1.922   0.656   1.034  0.1035  1.0101 -0.2152
 6198TIP3   OH218599   4.420   0.636   0.128 -0.0768 -0.1817  0.1489
 6198TIP3    H118600   4.383   0.606   0.211  0.1655  2.9584  1.5397
 6198TIP3    H218601   4.365   0.710   0.103  0.8999  0.0095 -1.6084
 6199TIP3   OH218602   3.285   3.064   4.334 -0.3218 -0.3006 -0.0088
 6199TIP3    H118603   3.305   3.139   4.389  1.0036 -1.6223  1.4231
 6199TIP3    H218604   3.240   3.003   4.393 -0.3638 -1.0727 -0.8261
 6200TIP3   OH218605   3.674   1.358   1.870  0.2290  0.3259 -0.3082
 6200TIP3    H118606   3.727   1.401   1.936  1.5548 -0.3994 -0.8488
 6200TIP3    H218607   3.584   1.384   1.889  0.9578  3.8715 -0.9998
 6201TIP3   OH218608   3.366   0.139   4.822  0.2146 -0.3526 -0.1978
 6201TIP3    H118609   3.329   0.064   4.868 -0.2869  0.3149  0.5095
 6201TIP3    H218610   3.403   0.194   4.891  0.0051  0.3598 -0.6454
 6202TIP3   OH218611   4.562   5.447   2.515 -0.0900  0.3615  0.4640
 6202TIP3    H118612   4.549   5.541   2.523  1.6353  0.7082 -0.3238
 6202TIP3    H218613   4.642   5.429   2.565  0.9158 -0.2585 -1.2745
 6203TIP3   OH218614   3.015   0.881   2.421  0.2803  0.2524  0.3097
 6203TIP3    H118615   3.094   0.871   2.369 -0.1453  0.1091 -0.3148
 6203TIP3    H218616   2.956   0.932   2.365 -0.0045  0.5122  0.8408
 6204TIP3   OH218617   3.635   1.024   4.001 -0.2127  0.3898  0.0555
 6204TIP3    H118618   3.729   1.039   3.998  0.2783 -2.4319 -1.8934
 6204TIP3    H218619   3.623   0.954   4.065 -1.0935  1.1539  0.7531
 6205TIP3   OH218620   1.629   3.710   2.560  0.1133 -0.5182  0.0937
 6205TIP3    H118621   1.603   3.691   2.470  0.9188  0.3244 -0.3395
 6205TIP3    H218622   1.723   3.730   2.554  0.0848 -0.0255  1.0497
 6206TIP3   OH218623   0.411   2.308   1.193  0.2025 -0.2969  0.2022
 6206TIP3    H118624   0.456   2.227   1.167  1.7515  0.3911  0.5943
 6206TIP3    H218625   0.417   2.364   1.116 -1.4440 -0.7628 -0.2896
 6207TIP3   OH218626   1.639   5.773   4.906 -0.1495  0.1870 -0.6453
 6207TIP3    H118627   1.633   5.795   4.813 -1.4300 -0.4510 -0.7437
 6207TIP3    H218628   1.632   5.678   4.909 -0.4669  0.2252  0.1224
 6208TIP3   OH218629   1.291   5.765   4.571  0.2116  0.2970 -0.1199
 6208TIP3    H118630   1.228   5.824   4.530  0.4938 -0.4273 -1.6679
 6208TIP3    H218631   1.375   5.788   4.531  0.5374 -0.2806  0.2174
 6209TIP3   OH218632   2.611   4.466   0.919 -0.1620 -0.0602  0.4409
 6209TIP3    H118633   2.611   4.384   0.870 -0.5639  0.7794 -1.0425
 6209TIP3    H218634   2.704   4.489   0.926  0.1174 -1.6214  2.6736
 6210TIP3   OH218635   5.683   5.004   2.246 -0.5753  0.0346 -0.5610
 6210TIP3    H118636   5.767   5.034   2.211 -0.5509 -0.8868 -1.3321
 6210TIP3    H218637   5.624   5.002   2.171 -0.7297 -1.2450 -0.4299
 6211TIP3   OH218638   0.077   3.732   3.741  0.1487  0.1068 -0.2582
 6211TIP3    H118639   0.087   3.828   3.741 -1.7501  0.3804  1.8321
 6211TIP3    H218640  -0.001   3.717   3.689 -1.4467  0.0497  2.0144
 6212TIP3   OH218641   6.083   0.309   4.036 -0.6316 -0.2156  0.0917
 6212TIP3    H118642   6.157   0.266   3.993 -0.5156  0.3988 -0.3369
 6212TIP3    H218643   6.028   0.237   4.066 -0.8648 -0.6889 -1.3590
 6213TIP3   OH218644   0.140   0.553   4.989  0.0119  0.5656 -0.4065
 6213TIP3    H118645   0.105   0.514   5.070 -0.5071 -1.1660 -1.4221
 6213TIP3    H218646   0.172   0.639   5.017 -1.8121  0.7837  1.2839
 6214TIP3   OH218647   4.114   3.352   5.130 -0.0200 -0.3462 -0.1305
 6214TIP3    H118648   4.054   3.279   5.114 -0.2792 -0.1200 -0.1957
 6214TIP3    H218649   4.081   3.423   5.075  0.5199 -0.3325 -0.4415
 6215TIP3   OH218650   4.029   3.162   4.671  0.3798 -0.0293  0.2940
 6215TIP3    H118651   3.972   3.238   4.684  0.1161 -0.3034  0.7693
 6215TIP3    H218652   3.987   3.114   4.600  1.8872  1.5313 -1.7782
 6216TIP3   OH218653   5.030   1.534   0.689 -0.4605  0.6382 -0.0684
 6216TIP3    H118654   5.118   1.497   0.680 -0.8711 -0.1080 -1.2411
 6216TIP3    H218655   4.989   1.520   0.604 -1.6402  1.1936  0.3852
 6217TIP3   OH218656   5.089   1.464   1.443 -0.0385 -0.0878 -0.5525
 6217TIP3    H118657   5.067   1.551   1.411  3.3620  1.2174  0.2080
 6217TIP3    H218658   5.165   1.438   1.391  0.1835 -1.7597  0.5325
 6218TIP3   OH218659   5.930   5.706   3.055 -0.1749 -0.4107  0.2080
 6218TIP3    H118660   5.940   5.647   2.980 -1.0898  2.4555 -2.3839
 6218TIP3    H218661   6.016   5.746   3.066 -0.4110  0.2639 -0.3419
 6219TIP3   OH218662   1.926   0.570   3.897  0.0808  0.0258 -0.0327
 6219TIP3    H118663   1.930   0.508   3.824  0.6272 -1.0828  0.9068
 6219TIP3    H218664   1.879   0.523   3.966 -0.7451  1.1871  0.2247
 6220TIP3   OH218665   1.551   5.210   2.887  0.5478  0.0847 -0.4424
 6220TIP3    H118666   1.596   5.196   2.970 -2.3252 -0.6026  1.1506
 6220TIP3    H218667   1.512   5.297   2.895  0.2915  0.0358 -1.0985
 6221TIP3   OH218668   4.530   4.298   0.918  0.5062 -0.0619 -0.2642
 6221TIP3    H118669   4.533   4.314   0.824  1.7622  0.4671 -0.1506
 6221TIP3    H218670   4.616   4.261   0.939  0.9465  1.5657  0.9584
 6222TIP3   OH218671   4.286   0.031   3.115 -0.2147  0.3650  0.1794
 6222TIP3    H118672   4.336   0.095   3.066 -0.3360  0.2092 -0.1523
 6222TIP3    H218673   4.203   0.075   3.136 -0.9949 -0.2257 -1.5014
 6223TIP3   OH218674   4.496   5.988   2.234 -0.0199  0.5812 -0.2080
 6223TIP3    H118675   4.579   6.033   2.250  0.5600 -0.4534 -0.1960
 6223TIP3    H218676   4.505   5.905   2.281 -0.1676 -0.5012 -2.0270
 6224TIP3   OH218677   3.065   4.565   2.591  0.4763  0.6177 -0.5306
 6224TIP3    H118678   3.005   4.501   2.552  0.8792 -1.0035  1.3777
 6224TIP3    H218679   3.014   4.609   2.658  0.2161  2.3447 -1.8056
 6225TIP3   OH218680   4.564   4.815   0.374 -0.7133 -0.5270  0.6611
 6225TIP3    H118681   4.497   4.823   0.441 -0.4202 -1.4185  1.0825
 6225TIP3    H218682   4.537   4.875   0.305 -0.7185  0.8444  1.8113
 6226TIP3   OH218683   3.891   1.868   4.785 -0.1841 -0.2318 -0.2974
 6226TIP3    H118684   3.887   1.963   4.791 -2.1231 -0.3480  1.1244
 6226TIP3    H218685   3.819   1.845   4.726  0.7023 -0.8104 -1.1913
 6227TIP3   OH218686   3.064   2.826   0.337  0.0321  0.4800 -0.2564
 6227TIP3    H118687   3.107   2.829   0.422  0.9837  0.6451 -0.7258
 6227TIP3    H218688   2.976   2.791   0.355  0.2267  0.4944  0.7759
 6228TIP3   OH218689   2.408   0.051   1.361  0.6144 -0.2264 -0.2001
 6228TIP3    H118690   2.449   0.050   1.274  0.9903  0.3088 -0.0399
 6228TIP3    H218691   2.431   0.137   1.396 -0.7064  0.1066 -0.1202
 6229TIP3   OH218692   5.376   2.659   0.546  0.1563 -0.0515  0.2600
 6229TIP3    H118693   5.463   2.663   0.506  0.2889 -1.6574  0.2878
 6229TIP3    H218694   5.390   2.686   0.636  0.0020  2.8097 -0.4778
 6230TIP3   OH218695   2.947   2.150   1.044 -0.0458 -0.7644  0.0726
 6230TIP3    H118696   2.857   2.125   1.065  0.0923 -0.6766  0.7973
 6230TIP3    H218697   2.941   2.194   0.959 -0.9495  0.7918  0.8890
 6231TIP3   OH218698   2.438   1.367   3.583  0.5119  0.3920 -0.5414
 6231TIP3    H118699   2.490   1.408   3.651 -0.4464  0.0316  0.4338
 6231TIP3    H218700   2.375   1.434   3.557  1.1760  0.6929 -1.4368
 6232TIP3   OH218701   2.668   2.978   1.762  0.2440  0.2128  0.7495
 6232TIP3    H118702   2.737   3.013   1.706  1.0349 -2.4130 -0.0858
 6232TIP3    H218703   2.712   2.914   1.818 -0.9295  1.1455  2.8652
 6233TIP3   OH218704   0.777   3.992   0.905  0.6642 -0.0768 -0.0629
 6233TIP3    H118705   0.811   3.955   0.987 -1.6861 -0.4102  0.8504
 6233TIP3    H218706   0.816   3.938   0.836 -0.3682 -2.4569  1.0873
 6234TIP3   OH218707   0.328   3.289   2.657 -0.4673 -0.1173  0.0158
 6234TIP3    H118708   0.257   3.241   2.700 -0.4727 -0.9556 -0.8825
 6234TIP3    H218709   0.408   3.249   2.690 -0.3793  0.8689  1.0748
 6235TIP3   OH218710   5.998   2.924   3.857  0.0521 -0.5163 -0.1347
 6235TIP3    H118711   6.033   2.901   3.943  0.7847 -0.2832 -0.3604
 6235TIP3    H218712   6.056   2.993   3.826 -1.7060  1.1977  0.2425
 6236TIP3   OH218713   4.855   4.537   0.259 -0.0787 -0.3170  0.0362
 6236TIP3    H118714   4.773   4.569   0.221 -0.2624 -1.2777 -0.4088
 6236TIP3    H218715   4.871   4.594   0.334 -0.5070  0.6536 -0.6057
 6237TIP3   OH218716   4.151   2.105   0.080 -0.4687  0.0754  0.4310
 6237TIP3    H118717   4.097   2.075   0.006  1.1501 -1.1169 -0.3164
 6237TIP3    H218718   4.158   2.029   0.137 -0.8678  0.7040  1.3517
 6238TIP3   OH218719   4.623   2.167   5.157  0.5056 -0.0042  0.2296
 6238TIP3    H118720   4.601   2.229   5.088 -2.0173 -0.5242  0.4839
 6238TIP3    H218721   4.622   2.081   5.114 -0.1650 -0.2440  0.7045
 6239TIP3   OH218722   0.884   3.759   1.577  0.0758 -0.6348  0.1321
 6239TIP3    H118723   0.863   3.745   1.669 -2.8843 -0.8248 -0.4763
 6239TIP3    H218724   0.882   3.671   1.538  0.9266 -0.5139 -0.2211
 6240TIP3   OH218725   2.101   0.995   2.359 -0.0878  0.4045 -0.0738
 6240TIP3    H118726   2.107   0.908   2.398  1.8429 -0.2850 -1.7655
 6240TIP3    H218727   2.041   0.984   2.285  0.1779  0.5028 -0.3044
 6241TIP3   OH218728   4.705   4.804   4.326 -0.0308 -0.1899  0.1555
 6241TIP3    H118729   4.642   4.823   4.396  1.7991 -0.1105  1.8705
 6241TIP3    H218730   4.702   4.708   4.318 -1.0340 -0.1199 -0.4585
 6242TIP3   OH218731   0.750   2.140   4.481 -0.0234  0.2380 -0.3152
 6242TIP3    H118732   0.810   2.201   4.524  1.3149  2.3643 -4.6202
 6242TIP3    H218733   0.777   2.054   4.513  0.6013  1.5407  3.0852
 6243TIP3   OH218734   5.051   0.966   1.690  0.1343 -0.1479 -0.6308
 6243TIP3    H118735   4.975   1.024   1.685 -0.1148 -0.3801  0.2837
 6243TIP3    H218736   5.126   1.021   1.668 -0.2796  0.1147 -1.4015
 6244TIP3   OH218737   3.522   4.091   2.048  0.1489  1.1206 -0.7936
 6244TIP3    H118738   3.455   4.139   2.097  0.1365  0.6737 -0.3578
 6244TIP3    H218739   3.500   3.999   2.063  1.0401  0.9669 -0.3898
 6245TIP3   OH218740   4.241   1.883   1.856 -0.0818  0.2692  0.4969
 6245TIP3    H118741   4.157   1.929   1.856  0.5727  1.5001 -0.5019
 6245TIP3    H218742   4.243   1.837   1.772  1.0058  1.7299 -0.3108
 6246TIP3   OH218743   4.080   3.289   0.873  0.1455 -0.1546  0.4617
 6246TIP3    H118744   3.987   3.268   0.862 -0.1438  0.7101  1.0942
 6246TIP3    H218745   4.082   3.385   0.883  1.3842  0.1799 -2.1526
 6247TIP3   OH218746   3.574   4.464   3.405  0.4126 -0.1996  0.2466
 6247TIP3    H118747   3.569   4.541   3.349  1.0055 -0.6543 -0.4575
 6247TIP3    H218748   3.524   4.397   3.358  0.7545 -0.5338  0.3508
 6248TIP3   OH218749   5.422   1.739   0.069 -0.0644 -0.1520 -0.2342
 6248TIP3    H118750   5.388   1.825   0.044  0.3621  0.2323  0.4727
 6248TIP3    H218751   5.499   1.759   0.122  1.0864 -1.0000 -1.5257
 6249TIP3   OH218752   5.282   3.065   4.361 -0.2448 -0.2288 -0.3468
 6249TIP3    H118753   5.297   2.992   4.302  0.3096 -0.3488 -0.0676
 6249TIP3    H218754   5.354   3.060   4.424 -0.5634  0.1727  0.0580
 6250TIP3   OH218755   0.926   5.623   1.916  0.0644  0.2659 -0.1261
 6250TIP3    H118756   0.883   5.677   1.850  0.6354 -0.9013 -1.4969
 6250TIP3    H218757   0.993   5.574   1.868 -0.7578 -2.0501  0.9273
 6251TIP3   OH218758   4.899   1.872   2.248  0.2416  0.4376 -0.1182
 6251TIP3    H118759   4.927   1.908   2.164  2.1607  0.9634  0.7016
 6251TIP3    H218760   4.893   1.777   2.233  0.5205  0.5294 -0.8375
 6252TIP3   OH218761   4.289   4.852   1.605 -0.8662  0.1174  0.2006
 6252TIP3    H118762   4.237   4.932   1.594 -0.8641  0.1111  0.1463
 6252TIP3    H218763   4.348   4.872   1.679  0.7598  1.0273 -1.2556
 6253TIP3   OH218764   1.024   1.110   3.598 -0.6430 -0.0558 -0.1594
 6253TIP3    H118765   1.088   1.111   3.526  1.0410  0.5679  1.2514
 6253TIP3    H218766   0.950   1.061   3.564  0.5209 -0.6714 -1.9628
 6254TIP3   OH218767   0.526   4.402   0.585  0.0567 -0.3121  0.2123
 6254TIP3    H118768   0.595   4.423   0.522 -0.2402  1.6108  0.4625
 6254TIP3    H218769   0.453   4.370   0.531  0.4669 -0.4967 -0.2381
 6255TIP3   OH218770   5.506   1.541   2.354 -0.2122  0.3173 -0.2638
 6255TIP3    H118771   5.480   1.633   2.360 -1.1216  0.0702 -0.1832
 6255TIP3    H218772   5.425   1.493   2.372  0.5260 -0.5099  0.9913
 6256TIP3   OH218773   5.701   5.849   1.496 -0.2208 -0.4547 -0.1193
 6256TIP3    H118774   5.616   5.831   1.454 -0.2839  0.3101 -0.3412
 6256TIP3    H218775   5.681   5.857   1.589 -1.2748  4.2043 -0.5047
 6257TIP3   OH218776   5.720   4.370   3.759 -0.6818 -0.0934 -0.2191
 6257TIP3    H118777   5.665   4.432   3.807  1.4355 -1.0988  3.9894
 6257TIP3    H218778   5.667   4.290   3.754 -0.8956 -0.0240  0.7097
 6258TIP3   OH218779   6.136   3.316   4.246  0.4322 -0.3477 -0.2636
 6258TIP3    H118780   6.101   3.240   4.293 -0.6816  0.4883  0.3193
 6258TIP3    H218781   6.059   3.370   4.228  1.2430  0.7951 -0.3780
 6259TIP3   OH218782   3.291   2.451   2.822  0.2298 -0.0144 -0.1841
 6259TIP3    H118783   3.287   2.545   2.804  0.2607  0.0692  0.2285
 6259TIP3    H218784   3.199   2.423   2.828  0.1803 -0.3258 -1.8373
 6260TIP3   OH218785   3.325   5.760   3.150  0.1373  0.5721  0.0506
 6260TIP3    H118786   3.273   5.792   3.076  0.3774  2.7308  0.7284
 6260TIP3    H218787   3.359   5.675   3.121 -1.6262  0.3048 -1.4081
 6261TIP3   OH218788   0.804   1.264   0.426 -0.7974 -0.4044  0.1058
 6261TIP3    H118789   0.734   1.202   0.404 -1.8148  1.3242 -1.8167
 6261TIP3    H218790   0.832   1.300   0.341  2.2598 -0.7919  0.8147
 6262TIP3   OH218791   1.511   0.763   3.178 -0.0121  0.1419 -0.4420
 6262TIP3    H118792   1.432   0.729   3.137  0.0205 -0.3480 -0.1072
 6262TIP3    H218793   1.556   0.685   3.211 -0.3600  0.5750  1.1029
 6263TIP3   OH218794   5.160   2.198   0.880 -0.1321 -0.2026  0.6283
 6263TIP3    H118795   5.072   2.202   0.917 -0.4252  1.5345 -0.1648
 6263TIP3    H218796   5.153   2.242   0.796  2.0283  2.5758  1.7311
 6264TIP3   OH218797   5.536   0.158   2.507 -0.0645  0.3511  0.3458
 6264TIP3    H118798   5.555   0.090   2.442  0.2237  0.7254  0.0253
 6264TIP3    H218799   5.604   0.147   2.574  0.1757  0.5180  0.1343
 6265TIP3   OH218800   1.395   1.243   1.206  0.0226  0.0256  0.0061
 6265TIP3    H118801   1.357   1.188   1.275  0.8490 -0.9764 -0.3154
 6265TIP3    H218802   1.393   1.188   1.128  1.3823  0.2456 -0.1943
 6266TIP3   OH218803   2.064   5.916   1.699  0.8806  0.0445  0.0615
 6266TIP3    H118804   2.142   5.885   1.744 -0.4849 -1.5453  1.4751
 6266TIP3    H218805   2.046   6.002   1.737  1.1148 -0.2336  0.8105
 6267TIP3   OH218806   0.252   1.518   3.362 -0.2324 -0.9205 -0.2379
 6267TIP3    H118807   0.258   1.457   3.288 -0.8941 -3.1225  1.4125
 6267TIP3    H218808   0.337   1.511   3.405 -0.4821 -1.0558  0.2324
 6268TIP3   OH218809   0.556   3.055   3.736 -0.2567  0.2404 -0.0227
 6268TIP3    H118810   0.516   3.137   3.763 -2.8337 -0.6709 -0.7977
 6268TIP3    H218811   0.643   3.056   3.778 -0.9842  2.3969  1.6389
 6269TIP3   OH218812   0.539   0.020   1.467  0.1483  0.0421  0.2307
 6269TIP3    H118813   0.477   0.074   1.419  0.5342  1.1005  0.8727
 6269TIP3    H218814   0.625   0.049   1.435  0.6533  3.0410  3.5633
 6270TIP3   OH218815   2.311   1.850   1.923 -0.0464 -0.3731  0.6336
 6270TIP3    H118816   2.401   1.822   1.939 -0.7581 -3.3395  0.0798
 6270TIP3    H218817   2.298   1.835   1.830 -0.4402  2.4280  0.1544
 6271TIP3   OH218818   2.894   3.311   2.555  0.2692 -0.1795  0.4807
 6271TIP3    H118819   2.931   3.225   2.535 -0.5066 -0.4925  0.3618
 6271TIP3    H218820   2.937   3.338   2.636  2.3411  0.4268 -0.7317
 6272TIP3   OH218821   1.996   1.637   5.063 -0.2637  0.0922  0.4797
 6272TIP3    H118822   2.011   1.728   5.034 -0.3340 -0.2528 -0.7057
 6272TIP3    H218823   1.943   1.646   5.142 -1.4880  1.0589 -0.4171
 6273TIP3   OH218824   4.314   1.588   5.017 -0.0261 -0.1565 -0.2397
 6273TIP3    H118825   4.243   1.652   5.017 -1.7265 -1.8468  2.5665
 6273TIP3    H218826   4.341   1.582   5.109  1.0180 -2.4398 -0.6220
 6274TIP3   OH218827   3.210   3.794   2.268  0.4786 -0.1898 -0.5542
 6274TIP3    H118828   3.225   3.861   2.335 -3.1367  1.0940 -0.7877
 6274TIP3    H218829   3.178   3.718   2.318  3.5099 -1.5085 -0.4029
 6275TIP3   OH218830   3.022   2.220   2.664  0.2389 -0.4096  0.2010
 6275TIP3    H118831   3.052   2.262   2.583 -0.4867  1.9269  1.0453
 6275TIP3    H218832   2.926   2.225   2.658  0.0692 -2.7407  0.0229
 6276TIP3   OH218833   5.854   2.463   3.024 -0.1186 -0.7348 -0.3509
 6276TIP3    H118834   5.905   2.472   2.943  0.7765 -1.2383  0.1434
 6276TIP3    H218835   5.813   2.549   3.035  2.0959  0.3447  0.2024
 6277TIP3   OH218836   3.284   3.398   3.292 -0.2795 -0.2181  0.2148
 6277TIP3    H118837   3.232   3.476   3.272  1.6334  0.5543 -2.2674
 6277TIP3    H218838   3.294   3.354   3.208  2.2298 -0.8309  0.7559
 6278TIP3   OH218839   0.475   0.857   3.529 -0.7381 -0.0207 -0.0733
 6278TIP3    H118840   0.421   0.891   3.600 -0.8366 -2.3985  1.0907
 6278TIP3    H218841   0.548   0.919   3.523 -1.4156  0.9602  1.1802
 6279TIP3   OH218842   0.249   2.080   2.883 -0.3847 -0.3472 -0.1235
 6279TIP3    H118843   0.307   2.021   2.932  1.3477  1.0621 -0.4021
 6279TIP3    H218844   0.263   2.166   2.923 -2.0071  0.1071 -0.4806
 6280TIP3   OH218845   5.572   1.937   4.776  0.8838 -0.2225  0.0062
 6280TIP3    H118846   5.649   1.885   4.797  0.6339 -0.7213 -0.3113
 6280TIP3    H218847   5.605   2.027   4.769  1.2485 -0.2777  0.9227
 6281TIP3   OH218848   2.416   5.921   3.259  0.1309  0.0758  0.4757
 6281TIP3    H118849   2.329   5.959   3.247  0.3273 -0.1515 -2.6684
 6281TIP3    H218850   2.400   5.829   3.280 -0.4117  0.0381 -0.0720
 6282TIP3   OH218851   0.134   5.015   4.742  0.1984 -0.2450  0.4233
 6282TIP3    H118852   0.180   5.090   4.779  2.3597 -1.9731  1.4636
 6282TIP3    H218853   0.129   5.033   4.648 -1.5393  2.2466  0.8932
 6283TIP3   OH218854   2.310   0.307   0.771  0.3638 -0.2298 -0.2260
 6283TIP3    H118855   2.277   0.394   0.745  1.6974 -0.4677 -3.1485
 6283TIP3    H218856   2.241   0.247   0.744  0.3836 -0.2376 -0.2595
 6284TIP3   OH218857   3.482   4.862   0.751  0.3542 -0.1600 -0.1025
 6284TIP3    H118858   3.497   4.954   0.775  0.2796  0.0950 -0.9795
 6284TIP3    H218859   3.521   4.812   0.822 -0.2910  0.5584  0.7748
 6285TIP3   OH218860   2.127   0.960   4.679 -0.2835  0.1872  0.2208
 6285TIP3    H118861   2.042   1.002   4.669 -0.0999  0.7520  0.9902
 6285TIP3    H218862   2.159   0.990   4.763  0.8652  0.3027 -0.2397
 6286TIP3   OH218863   1.916   1.561   3.674  0.5410  0.5240 -0.4859
 6286TIP3    H118864   1.981   1.490   3.673 -0.0640 -0.0270 -0.9535
 6286TIP3    H218865   1.870   1.553   3.591 -0.4160  0.6482  0.0244
 6287TIP3   OH218866   6.058   2.376   0.051  0.2039  0.1407  0.6251
 6287TIP3    H118867   6.096   2.418  -0.027  0.3233  0.7812  1.0176
 6287TIP3    H218868   6.035   2.450   0.108  0.9521 -0.3554  1.5931
 6288TIP3   OH218869   0.023   2.905   4.390 -0.3069 -0.4218 -0.7565
 6288TIP3    H118870  -0.066   2.887   4.419 -0.1132 -1.4795 -0.7792
 6288TIP3    H218871   0.054   2.822   4.353  0.6797 -0.0674 -0.7684
 6289TIP3   OH218872   3.909   0.295   1.036  0.6822  0.0257 -0.2372
 6289TIP3    H118873   3.861   0.261   0.960  0.9069  0.1071 -0.4169
 6289TIP3    H218874   3.981   0.346   0.998  0.5998  0.3419  0.0321
 6290TIP3   OH218875   3.082   1.696   4.817 -0.3672 -0.6855  0.1824
 6290TIP3    H118876   3.143   1.694   4.890 -0.0448  2.2506  0.0789
 6290TIP3    H218877   3.126   1.644   4.749  1.7504  0.7367  0.3559
 6291TIP3   OH218878   1.696   3.012   4.453  0.1050 -0.0266  0.0042
 6291TIP3    H118879   1.695   3.053   4.367  0.0920 -0.8889 -0.4164
 6291TIP3    H218880   1.680   3.084   4.514 -2.2740  0.2423 -0.8585
 6292TIP3   OH218881   5.280   1.657   2.713  0.3646 -0.2841 -0.2862
 6292TIP3    H118882   5.274   1.689   2.622  1.3614  0.0986 -0.2203
 6292TIP3    H218883   5.198   1.609   2.726  0.3302 -0.5909 -1.4861
 6293TIP3   OH218884   2.188   0.357   0.180 -0.1394  0.0920 -0.5920
 6293TIP3    H118885   2.283   0.353   0.174 -0.1348  0.1331 -0.5505
 6293TIP3    H218886   2.168   0.451   0.179  0.0966  0.3457  3.4242
 6294TIP3   OH218887   2.183   2.642   1.971  0.9770 -0.1554  0.2622
 6294TIP3    H118888   2.139   2.610   2.049  2.0970 -0.7039  0.7004
 6294TIP3    H218889   2.246   2.706   2.003  2.0883 -1.0464 -0.0508
 6295TIP3   OH218890   4.398   3.947   3.846  0.2744 -0.0478 -0.1912
 6295TIP3    H118891   4.455   3.886   3.893  0.2756  1.8480  2.5323
 6295TIP3    H218892   4.458   4.005   3.799  0.3155 -1.2776 -1.7227
 6296TIP3   OH218893   1.370   2.895   2.595  0.1685 -0.1983 -0.1457
 6296TIP3    H118894   1.332   2.812   2.565  0.2475 -0.0618 -0.6422
 6296TIP3    H218895   1.464   2.884   2.580  0.1895 -0.0590 -0.1121
 6297TIP3   OH218896   1.874   3.617   0.481  0.0208  0.6722  0.0507
 6297TIP3    H118897   1.846   3.549   0.542 -0.4009  1.2942  0.5796
 6297TIP3    H218898   1.933   3.574   0.420 -0.8617 -0.3357 -0.1112
 6298TIP3   OH218899   2.391   1.283   0.651 -0.5198  0.2918 -0.2550
 6298TIP3    H118900   2.361   1.200   0.686 -0.7728  0.9812  1.2435
 6298TIP3    H218901   2.314   1.340   0.656 -0.4624  0.5342 -1.6337
 6299TIP3   OH218902   0.717   3.207   2.479 -0.4007  0.0153 -0.1112
 6299TIP3    H118903   0.687   3.263   2.407 -0.0638  0.3563  0.0139
 6299TIP3    H218904   0.710   3.263   2.556  0.2848  0.0022 -0.0383
 6300TIP3   OH218905   4.122   3.931   1.788 -0.1134 -0.0961 -0.4223
 6300TIP3    H118906   4.215   3.935   1.767  0.0969  0.0333  0.4838
 6300TIP3    H218907   4.101   4.017   1.822 -0.3310 -0.4238  0.2878
 6301TIP3   OH218908   1.002   5.719   4.117 -0.3158 -0.5134  0.4079
 6301TIP3    H118909   1.052   5.794   4.148  1.9309 -1.9304  0.4104
 6301TIP3    H218910   0.918   5.727   4.162  0.1550  1.5206  1.0476
 6302TIP3   OH218911   1.990   3.760   0.046 -0.1355  0.2935 -0.1032
 6302TIP3    H118912   2.022   3.683  -0.002 -1.0685  0.1501 -0.5223
 6302TIP3    H218913   1.904   3.733   0.079 -0.5062  1.1930 -0.3226
 6303TIP3   OH218914   4.033   5.280   1.477 -0.3710  0.0752 -0.4698
 6303TIP3    H118915   4.002   5.299   1.388  0.6688  1.0391 -0.6520
 6303TIP3    H218916   4.117   5.326   1.483  0.8190 -2.0601  0.1514
 6304TIP3   OH218917   1.090   1.533   4.741  0.6324  0.0399 -0.2290
 6304TIP3    H118918   1.135   1.593   4.682  0.8741 -0.3858 -0.4813
 6304TIP3    H218919   1.051   1.590   4.808  0.5738  0.5020 -0.6516
 6305TIP3   OH218920   5.980   3.758   2.915  0.3263 -0.2538 -0.3400
 6305TIP3    H118921   5.894   3.745   2.956  0.6341 -0.6188  0.2085
 6305TIP3    H218922   6.014   3.837   2.958 -0.0330  0.3178 -1.0820
 6306TIP3   OH218923   2.830   4.834   2.485 -0.1279 -0.1307 -0.0407
 6306TIP3    H118924   2.828   4.823   2.389 -1.0711  2.2362 -0.3600
 6306TIP3    H218925   2.801   4.750   2.519  1.5315 -1.5015 -1.7543
 6307TIP3   OH218926   0.501   2.543   2.426 -0.3012 -0.1722  0.2916
 6307TIP3    H118927   0.458   2.468   2.467 -0.5247  1.3520  3.1225
 6307TIP3    H218928   0.436   2.580   2.367 -0.3947 -1.8025 -0.6740
 6308TIP3   OH218929   4.540   3.112   0.722  0.0316 -0.0953 -0.4626
 6308TIP3    H118930   4.456   3.157   0.715  0.1963  0.1966 -0.5742
 6308TIP3    H218931   4.525   3.045   0.789 -0.4776 -0.4761 -0.9471
 6309TIP3   OH218932   0.823   5.596   2.706 -0.3959 -0.5089 -0.3202
 6309TIP3    H118933   0.918   5.586   2.696 -0.4194  0.1565 -1.3388
 6309TIP3    H218934   0.799   5.663   2.642 -1.2277  1.0214  1.4626
 6310TIP3   OH218935   0.855   0.771   4.727 -0.0665 -0.1408  0.6433
 6310TIP3    H118936   0.878   0.818   4.807 -0.5922 -1.3038  1.5136
 6310TIP3    H218937   0.763   0.792   4.711 -0.2546 -0.7021  0.9386
 6311TIP3   OH218938   3.045   3.776   4.662  0.2976  0.2722 -0.2327
 6311TIP3    H118939   3.028   3.743   4.750 -1.2266 -0.9526 -0.9440
 6311TIP3    H218940   3.117   3.839   4.673 -2.7177  3.6632  2.6267
 6312TIP3   OH218941   3.523   5.413   4.938 -0.0259  0.4563 -0.1356
 6312TIP3    H118942   3.468   5.438   4.864 -1.2817  1.0700  0.9624
 6312TIP3    H218943   3.478   5.449   5.014  1.0584 -0.4379  0.9658
 6313TIP3   OH218944   3.651   2.638   2.218 -0.1430  0.2774 -0.1905
 6313TIP3    H118945   3.637   2.731   2.232 -1.2136  0.1126 -0.1172
 6313TIP3    H218946   3.613   2.620   2.132  0.9565  0.0898 -0.6579
 6314TIP3   OH218947   1.078   0.902   3.292  0.0959 -0.7608  0.4800
 6314TIP3    H118948   0.999   0.936   3.250  0.4589  0.5480  0.7926
 6314TIP3    H218949   1.133   0.979   3.303  1.5993 -1.7222 -0.1042
 6315TIP3   OH218950   4.129   2.363   4.019 -0.8435  0.2730 -0.0081
 6315TIP3    H118951   4.152   2.271   4.028 -0.2992  0.3590 -0.4530
 6315TIP3    H218952   4.213   2.407   4.006 -1.2252  0.6353 -1.3619
 6316TIP3   OH218953   1.259   0.115   0.611 -0.0989 -0.3444 -0.3036
 6316TIP3    H118954   1.263   0.020   0.625 -0.9313 -0.2411  0.8666
 6316TIP3    H218955   1.298   0.129   0.525  1.3451 -1.5956  0.1064
 6317TIP3   OH218956   1.379   0.546   0.453 -0.0549 -0.0854 -0.0852
 6317TIP3    H118957   1.391   0.564   0.360  1.2711  2.5366  0.5098
 6317TIP3    H218958   1.435   0.470   0.470  1.7652  0.9891 -0.9879
 6318TIP3   OH218959   6.140   5.107   3.587 -0.6384  0.6712 -0.4361
 6318TIP3    H118960   6.075   5.047   3.623 -0.1926  0.1463 -0.5037
 6318TIP3    H218961   6.089   5.185   3.562 -1.3802 -0.0661 -1.3085
 6319TIP3   OH218962   0.337   0.975   3.734 -0.4318 -0.6480 -0.5122
 6319TIP3    H118963   0.262   0.969   3.793 -0.1856  1.7198  0.1515
 6319TIP3    H218964   0.393   1.042   3.773  1.1373 -1.0399 -1.9596
 6320TIP3   OH218965   2.016   4.219   2.457  0.0927 -0.0290  0.1115
 6320TIP3    H118966   2.005   4.302   2.411  2.6224  0.2791 -0.0892
 6320TIP3    H218967   1.955   4.223   2.531 -2.2176  0.5486 -1.7132
 6321TIP3   OH218968   0.850   2.091   3.632  0.5022  0.1515  0.2959
 6321TIP3    H118969   0.895   2.013   3.665  0.8209  0.2001 -0.0101
 6321TIP3    H218970   0.788   2.058   3.567  1.5992  0.2549 -0.8421
 6322TIP3   OH218971   5.740   4.866   3.066  0.2678 -0.2445 -0.3621
 6322TIP3    H118972   5.817   4.882   3.011  1.9701 -0.9922  1.6462
 6322TIP3    H218973   5.751   4.925   3.140 -1.7493  0.4456 -0.5613
 6323TIP3   OH218974   0.743   0.140   1.329 -0.1607  0.1344 -0.6063
 6323TIP3    H118975   0.808   0.069   1.338 -1.7011 -1.2332  0.3632
 6323TIP3    H218976   0.767   0.202   1.398  1.0092  0.4254 -1.2472
 6324TIP3   OH218977   1.288   2.034   3.871  0.1565 -0.0511  0.2371
 6324TIP3    H118978   1.286   1.959   3.930 -1.2315 -0.9798 -0.9123
 6324TIP3    H218979   1.222   2.094   3.906 -0.2698 -0.3510 -0.0429
 6325TIP3   OH218980   1.438   1.866   2.152 -0.5100 -0.7046 -0.0574
 6325TIP3    H118981   1.384   1.915   2.213  2.0572  1.3378  0.7490
 6325TIP3    H218982   1.500   1.819   2.207  1.2392  0.3967 -1.0023
 6326TIP3   OH218983   5.151   0.341   0.240  0.5612 -0.5047  0.3215
 6326TIP3    H118984   5.217   0.276   0.266  2.2454  1.2976  0.7906
 6326TIP3    H218985   5.159   0.346   0.145 -0.0214 -1.4141  0.2163
 6327TIP3   OH218986   1.418   5.379   0.323 -0.0458 -0.5947  0.2293
 6327TIP3    H118987   1.443   5.380   0.416 -0.9969  1.6527  0.5181
 6327TIP3    H218988   1.458   5.458   0.287 -1.3503 -0.3729 -0.7973
 6328TIP3   OH218989   1.264   0.350   2.668 -0.1608 -0.3080 -0.5773
 6328TIP3    H118990   1.258   0.443   2.648 -0.1473 -0.2504 -0.3197
 6328TIP3    H218991   1.356   0.328   2.653 -0.3860 -0.5354 -1.7177
 6329TIP3   OH218992   4.729   1.742   2.891 -0.4171 -0.1361  0.1489
 6329TIP3    H118993   4.810   1.769   2.848 -0.6297 -1.0185 -0.8369
 6329TIP3    H218994   4.745   1.757   2.984  0.1460  1.5713 -0.1968
 6330TIP3   OH218995   3.649   5.624   1.206 -0.4185 -0.2844 -0.4484
 6330TIP3    H118996   3.608   5.539   1.194 -2.1730  0.4679  0.0317
 6330TIP3    H218997   3.579   5.687   1.195  0.7189  1.0920 -0.1451
 6331TIP3   OH218998   4.592   2.642   0.931 -0.1794 -0.0996  0.2583
 6331TIP3    H118999   4.598   2.550   0.907  1.1605 -0.6601  2.4363
 6331TIP3    H219000   4.590   2.641   1.027 -0.3339  2.1426  0.3269
 6332TIP3   OH219001   1.548   4.107   2.114  0.3400  0.3014  0.0088
 6332TIP3    H119002   1.532   4.071   2.202  0.6849 -0.4230 -0.2168
 6332TIP3    H219003   1.479   4.172   2.102  0.9019  1.1617  1.2223
 6333TIP3   OH219004   0.223   5.877   0.357  0.1673 -0.3604  0.2798
 6333TIP3    H119005   0.172   5.802   0.326  0.5842 -1.1461  1.4335
 6333TIP3    H219006   0.202   5.947   0.295 -0.7419 -1.2324 -0.4395
 6334TIP3   OH219007   0.531   3.453   2.353 -0.2779  0.5440  0.3143
 6334TIP3    H119008   0.574   3.412   2.278 -0.5995 -0.1312  0.4921
 6334TIP3    H219009   0.442   3.418   2.353 -0.8315  1.8709 -0.0013
 6335TIP3   OH219010   0.957   5.682   3.059 -0.3098 -0.2794  0.6382
 6335TIP3    H119011   0.906   5.758   3.084 -1.0833 -0.4905 -0.2467
 6335TIP3    H219012   0.893   5.621   3.021  0.4660 -0.8941  0.2770
 6336TIP3   OH219013   6.358   4.262   1.540  0.0877  0.0632  0.3811
 6336TIP3    H119014   6.350   4.176   1.580 -0.9468  0.0982  0.2720
 6336TIP3    H219015   6.285   4.312   1.577 -1.0263  0.0461 -1.6531
 6337TIP3   OH219016   3.820   0.657   4.864  0.2379 -0.1949 -0.1081
 6337TIP3    H119017   3.913   0.639   4.882  0.4116  1.8679  1.4126
 6337TIP3    H219018   3.820   0.688   4.773  0.7623 -1.7161 -0.6702
 6338TIP3   OH219019   4.656   3.352   4.714  0.2409 -0.1258 -0.7343
 6338TIP3    H119020   4.636   3.305   4.796  1.5519  1.3230  0.4668
 6338TIP3    H219021   4.723   3.299   4.672  2.4080  1.0115  1.0730
 6339TIP3   OH219022   2.502   2.399   1.602  0.3496 -0.3005 -0.6705
 6339TIP3    H119023   2.452   2.472   1.638 -0.3074 -0.9016 -0.3426
 6339TIP3    H219024   2.451   2.322   1.625  3.5985 -1.5040  3.7877
 6340TIP3   OH219025   3.971   4.803   2.005 -0.1159  0.1915 -0.6174
 6340TIP3    H119026   4.044   4.840   1.955 -1.8399  0.9736 -2.6983
 6340TIP3    H219027   3.910   4.876   2.016 -1.7919 -1.0288 -1.3322
 6341TIP3   OH219028   5.900   4.437   0.011 -0.7811 -0.2694  0.3336
 6341TIP3    H119029   5.827   4.455   0.070 -0.0300  1.4271  0.8138
 6341TIP3    H219030   5.883   4.349  -0.021 -3.2879  0.2332  0.0425
 6342TIP3   OH219031   6.296   4.737   5.164  0.0386  0.0300 -0.5155
 6342TIP3    H119032   6.226   4.672   5.165  1.8489 -2.0407 -0.0903
 6342TIP3    H219033   6.321   4.745   5.071  0.7543 -1.0322 -0.4362
 6343TIP3   OH219034   1.994   3.000   1.636 -0.5479  0.0665 -0.2637
 6343TIP3    H119035   1.949   2.976   1.555  0.2439  0.6387 -0.8962
 6343TIP3    H219036   2.012   2.917   1.680  0.6102 -0.4030 -1.5615
 6344TIP3   OH219037   0.390   3.563   2.566 -0.2650  0.4119 -0.4115
 6344TIP3    H119038   0.461   3.546   2.505  1.5950 -2.1733  2.1616
 6344TIP3    H219039   0.359   3.476   2.591 -0.7873  1.2974  2.3566
 6345TIP3   OH219040   3.885   5.414   4.642 -0.3568 -0.2935 -0.2573
 6345TIP3    H119041   3.796   5.438   4.619  0.3850  2.6327 -0.4285
 6345TIP3    H219042   3.927   5.497   4.667  2.6696 -1.3464 -1.3891
 6346TIP3   OH219043   3.892   1.368   1.391 -0.4857 -0.6963 -0.2781
 6346TIP3    H119044   3.892   1.282   1.434  1.5911 -1.0090 -0.8221
 6346TIP3    H219045   3.927   1.351   1.304 -0.1863  0.7018 -0.4475
 6347TIP3   OH219046   3.659   0.174   2.119  0.0122 -0.0983 -0.2503
 6347TIP3    H119047   3.578   0.224   2.117  0.7384  1.1059 -1.0366
 6347TIP3    H219048   3.632   0.084   2.100 -1.6057 -0.5502  3.4666
 6348TIP3   OH219049   2.342   1.494   2.209 -0.2503  0.2664  0.6436
 6348TIP3    H119050   2.390   1.569   2.246  1.3530 -0.5678  0.3380
 6348TIP3    H219051   2.290   1.532   2.138 -0.5869  1.3074  1.4153
 6349TIP3   OH219052   3.149   0.999   4.666 -0.1312  0.4844  0.1244
 6349TIP3    H119053   3.095   0.922   4.685 -1.1728  0.9053 -1.0754
 6349TIP3    H219054   3.144   1.052   4.746  1.1763 -0.9792  1.2450
 6350TIP3   OH219055   0.289   2.869   4.486 -0.4398 -0.1148  0.0173
 6350TIP3    H119056   0.305   2.960   4.513 -0.2482  0.7599 -2.6540
 6350TIP3    H219057   0.202   2.871   4.447  0.1907 -0.6595 -1.4897
 6351TIP3   OH219058   0.862   3.387   0.876  0.1998  0.4032 -0.3057
 6351TIP3    H119059   0.855   3.341   0.792 -0.1600 -1.7480  0.8412
 6351TIP3    H219060   0.912   3.327   0.932  0.0143  1.5785  1.1732
 6352TIP3   OH219061   4.064   4.171   2.469 -0.5003 -0.4239 -0.2351
 6352TIP3    H119062   3.982   4.180   2.420  0.3002 -0.5253 -1.6510
 6352TIP3    H219063   4.115   4.107   2.418  1.7739  2.0408 -1.2743
 6353TIP3   OH219064   4.709   4.408   4.749 -0.0846 -0.2531  0.2944
 6353TIP3    H119065   4.653   4.407   4.672 -1.0876  2.3876  0.8726
 6353TIP3    H219066   4.700   4.321   4.787 -0.3998 -1.2571 -1.9410
 6354TIP3   OH219067   4.712   4.684   1.827  0.1808 -0.1760 -0.0858
 6354TIP3    H119068   4.647   4.639   1.881 -0.1814 -0.4467 -0.7361
 6354TIP3    H219069   4.727   4.767   1.871  0.7234 -0.8424  1.0485
 6355TIP3   OH219070   0.487   4.197   3.853  0.6137 -0.2280  0.1929
 6355TIP3    H119071   0.566   4.142   3.846 -1.0152 -2.9919  1.7431
 6355TIP3    H219072   0.497   4.242   3.937 -0.0403 -1.6779  1.0775
 6356TIP3   OH219073   4.200   4.308   3.478  0.3359  0.3510 -0.1178
 6356TIP3    H119074   4.141   4.379   3.455  0.3451  0.1207 -0.9184
 6356TIP3    H219075   4.222   4.322   3.570 -1.0309  0.3830  0.2259
 6357TIP3   OH219076   1.933   4.473   1.323  0.0465 -0.6839  0.0915
 6357TIP3    H119077   1.955   4.510   1.408 -1.2341 -0.6305  0.4132
 6357TIP3    H219078   1.876   4.399   1.342 -0.3997 -0.5662 -0.7305
 6358TIP3   OH219079   2.013   2.371   4.474  0.1885 -0.0631 -0.1927
 6358TIP3    H119080   1.929   2.363   4.520 -0.4587 -2.3005 -1.6070
 6358TIP3    H219081   1.996   2.436   4.405 -0.3840 -0.4491 -0.4288
 6359TIP3   OH219082  -0.014   2.117   1.503 -0.5880  0.0830 -0.1962
 6359TIP3    H119083  -0.022   2.060   1.427 -1.0298 -0.0196 -0.0775
 6359TIP3    H219084   0.079   2.116   1.525 -0.2818  0.9671 -1.3778
 6360TIP3   OH219085   2.612   2.494   2.434  0.0419 -0.1960  0.2059
 6360TIP3    H119086   2.678   2.425   2.441  0.5944  0.2448 -0.5584
 6360TIP3    H219087   2.545   2.457   2.376  1.0755  0.4575 -1.4483
 6361TIP3   OH219088   5.002   2.915   1.312 -0.1043 -0.3578  0.1102
 6361TIP3    H119089   4.955   2.833   1.295  0.0981 -0.2353 -1.0846
 6361TIP3    H219090   5.090   2.900   1.276 -0.1861  0.5288 -0.4792
 6362TIP3   OH219091   5.670   1.560   1.931  0.0713 -0.0853  0.2509
 6362TIP3    H119092   5.758   1.574   1.897  0.2841  0.0879  0.8633
 6362TIP3    H219093   5.683   1.517   2.016 -0.4384 -0.2457  0.2533
 6363TIP3   OH219094   4.173   3.747   2.513  0.0843  0.1251 -0.6602
 6363TIP3    H119095   4.149   3.828   2.559 -0.1316  0.7387 -1.8303
 6363TIP3    H219096   4.126   3.679   2.560 -0.9420  0.8634 -0.5836
 6364TIP3   OH219097   1.333   0.011   2.995  0.4403 -1.0187  0.1291
 6364TIP3    H119098   1.373   0.049   2.917 -1.4243  2.3306  0.6417
 6364TIP3    H219099   1.400   0.016   3.063  0.0296  2.4955  0.4245
 6365TIP3   OH219100   0.976   5.730   1.175  0.7966  0.4821  0.2166
 6365TIP3    H119101   0.974   5.695   1.265 -0.8741  0.4465  0.2032
 6365TIP3    H219102   0.934   5.816   1.183 -2.2040 -0.7308 -0.9438
 6366TIP3   OH219103   0.400   3.043   0.700 -0.0130 -0.3614  0.3955
 6366TIP3    H119104   0.332   2.991   0.743  1.4136 -0.8536  2.1793
 6366TIP3    H219105   0.351   3.103   0.643 -1.8598 -1.4505  0.7402
 6367TIP3   OH219106   1.287   4.730   3.942  0.2072 -0.1707  0.2210
 6367TIP3    H119107   1.201   4.733   3.984 -0.1649  1.2403 -0.6039
 6367TIP3    H219108   1.281   4.655   3.882 -0.0535 -0.7593  0.9690
 6368TIP3   OH219109   4.916   5.755   5.164  0.0190  0.5233  0.4520
 6368TIP3    H119110   4.943   5.755   5.072  0.7274 -0.8116  0.6231
 6368TIP3    H219111   4.978   5.814   5.208  1.0857 -0.5207  0.4077
 6369TIP3   OH219112   1.580   0.716   4.605  0.7355 -0.1453  0.3655
 6369TIP3    H119113   1.566   0.796   4.555  0.7677 -0.3554  0.0173
 6369TIP3    H219114   1.670   0.723   4.638  0.0147  1.0152  2.2585
 6370TIP3   OH219115   4.437   1.529   3.634 -0.0333  0.2858 -0.2788
 6370TIP3    H119116   4.441   1.538   3.538 -1.7489 -3.0984 -0.8397
 6370TIP3    H219117   4.507   1.467   3.655  1.5093  2.3188  1.0467
 6371TIP3   OH219118   0.806   2.250   4.228  0.4251 -0.3648 -0.2610
 6371TIP3    H119119   0.731   2.266   4.170 -0.8428 -0.6451  1.2425
 6371TIP3    H219120   0.792   2.310   4.301  1.7679 -0.3282 -0.0261
 6372TIP3   OH219121   3.362   5.030   3.175  0.1218  0.2631  0.6041
 6372TIP3    H119122   3.341   5.029   3.082 -0.2684  1.3270  0.6607
 6372TIP3    H219123   3.441   4.977   3.183 -0.1736 -0.3189 -0.2394
 6373TIP3   OH219124   2.162   3.794   5.006 -0.1998 -0.0463  0.2686
 6373TIP3    H119125   2.090   3.782   4.944  0.3838  0.3811 -0.5236
 6373TIP3    H219126   2.196   3.706   5.020 -0.0192 -0.1002 -0.4333
 6374TIP3   OH219127   2.328   3.260   5.148 -0.0898  0.1339  0.2298
 6374TIP3    H119128   2.346   3.328   5.212 -0.1037 -0.7935  1.2463
 6374TIP3    H219129   2.413   3.240   5.109 -0.3096  1.9007 -1.3546
 6375TIP3   OH219130   2.896   5.421   1.532  0.0482  0.1744 -0.0392
 6375TIP3    H119131   2.855   5.398   1.448 -2.1395  0.3550  0.9049
 6375TIP3    H219132   2.855   5.504   1.557  1.4219  0.6421  0.7408
 6376TIP3   OH219133   4.955   1.086   2.292  0.0260 -0.4309 -0.7554
 6376TIP3    H119134   4.860   1.088   2.281 -0.2084  0.3500  1.1929
 6376TIP3    H219135   4.969   1.058   2.382  1.6293  0.2478 -0.7541
 6377TIP3   OH219136   1.496   3.604   4.586  0.0760  0.5108 -0.1130
 6377TIP3    H119137   1.434   3.569   4.523  0.3222  0.7639 -0.4991
 6377TIP3    H219138   1.482   3.699   4.584  0.5140  0.5751 -0.2467
 6378TIP3   OH219139   4.511   4.758   3.718  0.0887  0.1463  0.4461
 6378TIP3    H119140   4.521   4.833   3.776  1.5177 -0.3346  0.8885
 6378TIP3    H219141   4.598   4.748   3.677 -0.7254  0.1440 -1.3879
 6379TIP3   OH219142   4.106   1.615   2.026  0.6278  0.0175 -0.2796
 6379TIP3    H119143   4.194   1.650   2.041  1.2532 -2.2049  2.0750
 6379TIP3    H219144   4.067   1.614   2.113 -1.1255 -0.6176 -1.0431
 6380TIP3   OH219145   3.653   4.663   4.950  0.1652 -0.2386  0.0912
 6380TIP3    H119146   3.667   4.569   4.948  0.6320 -0.1700  0.0831
 6380TIP3    H219147   3.648   4.689   4.858  0.3726 -0.2032  0.0913
 6381TIP3   OH219148   0.393   2.788   2.648 -0.0957 -0.0682 -0.6131
 6381TIP3    H119149   0.440   2.716   2.606  0.2397 -0.8900  1.0938
 6381TIP3    H219150   0.447   2.865   2.630  0.3983 -0.5151 -1.0896
 6382TIP3   OH219151   4.922   1.225   2.552  0.6294 -0.4214 -0.0513
 6382TIP3    H119152   4.881   1.252   2.634 -0.7811  1.9018 -1.3983
 6382TIP3    H219153   5.013   1.254   2.559  0.9196 -1.5574  1.2135
 6383TIP3   OH219154   4.464   4.215   0.665 -0.1300  0.3776  0.0035
 6383TIP3    H119155   4.370   4.226   0.678 -0.2574 -0.3634 -0.2325
 6383TIP3    H219156   4.478   4.120   0.671  0.9569  0.6015  2.5220
 6384TIP3   OH219157   0.040   1.693   0.161  0.6573  0.0421  0.0477
 6384TIP3    H119158   0.110   1.754   0.186 -0.8796  1.7881  0.3158
 6384TIP3    H219159   0.075   1.646   0.085  1.1064  2.9469 -1.7096
 6385TIP3   OH219160   3.517   3.547   2.422 -0.1883 -0.3536  0.8962
 6385TIP3    H119161   3.539   3.542   2.329  1.9967  0.4759  1.3066
 6385TIP3    H219162   3.485   3.636   2.435  0.9992  0.0555  1.1803
 6386TIP3   OH219163   0.175   3.592   0.369 -0.1249  0.1084  0.6008
 6386TIP3    H119164   0.213   3.526   0.311 -1.3503 -0.2612  0.1934
 6386TIP3    H219165   0.248   3.650   0.390  0.5936 -0.3894 -0.4225
 6387TIP3   OH219166   3.202   0.636   2.817 -0.5823 -0.4068  0.7637
 6387TIP3    H119167   3.294   0.642   2.843 -0.3846 -0.5536  0.1260
 6387TIP3    H219168   3.187   0.713   2.762 -0.3611 -1.2395 -0.5155
 6388TIP3   OH219169   5.250   2.812   2.630  0.5954  0.7508  0.1070
 6388TIP3    H119170   5.205   2.894   2.607 -1.0485  0.0856  0.7974
 6388TIP3    H219171   5.182   2.757   2.669  1.2675 -1.5494 -1.6941
 6389TIP3   OH219172   3.448   0.722   1.785 -0.5039  0.2019  0.6357
 6389TIP3    H119173   3.441   0.627   1.790  0.3119  0.1915  2.1736
 6389TIP3    H219174   3.370   0.750   1.736 -0.9648 -1.2169  0.5339
 6390TIP3   OH219175   6.237   4.109   4.174  0.2557  0.3669  0.0272
 6390TIP3    H119176   6.327   4.126   4.202  0.1182  0.9660  0.1271
 6390TIP3    H219177   6.238   4.019   4.143  0.6163 -0.0314  1.1338
 6391TIP3   OH219178   1.683   2.999   0.896  0.0434  0.5019 -0.0793
 6391TIP3    H119179   1.640   3.002   0.981  1.4410 -0.5312  0.7213
 6391TIP3    H219180   1.630   3.054   0.839 -1.8570 -0.1058  1.0368
 6392TIP3   OH219181   5.252   3.373   3.769  0.0249  0.1786 -0.2685
 6392TIP3    H119182   5.182   3.403   3.827 -0.4263  0.4893 -0.9542
 6392TIP3    H219183   5.299   3.453   3.745 -1.1974  0.3944 -2.1242
 6393TIP3   OH219184   2.928   1.191   2.198 -0.2368  0.0213 -0.1722
 6393TIP3    H119185   2.863   1.238   2.145 -1.0431 -1.3708 -0.4738
 6393TIP3    H219186   2.883   1.173   2.280 -0.3106 -1.0552 -0.4275
 6394TIP3   OH219187   5.349   2.035   4.451 -0.4646  0.0649  0.0193
 6394TIP3    H119188   5.424   2.075   4.407 -1.3314  2.0626  0.2467
 6394TIP3    H219189   5.381   2.013   4.539  0.1758 -0.2692 -0.2902
 6395TIP3   OH219190   5.100   3.959   2.902 -0.2127 -0.1363 -0.5114
 6395TIP3    H119191   5.124   4.020   2.972 -0.6399  0.2735 -0.7199
 6395TIP3    H219192   5.035   4.005   2.851 -0.7759 -0.8883 -0.4964
 6396TIP3   OH219193   1.913   1.622   4.778 -0.4751 -0.0039 -0.2284
 6396TIP3    H119194   1.899   1.613   4.873  0.2139 -1.1746 -0.2246
 6396TIP3    H219195   1.989   1.679   4.770 -1.5008  1.4493 -0.1386
 6397TIP3   OH219196   4.013   0.485   4.335 -0.4428  0.0352 -0.8586
 6397TIP3    H119197   4.018   0.576   4.367  1.9465 -0.0928 -0.6791
 6397TIP3    H219198   3.957   0.441   4.399 -0.8284  1.1700 -0.3802
 6398TIP3   OH219199   5.370   2.529   2.863  0.0222  0.1587 -0.0572
 6398TIP3    H119200   5.323   2.511   2.781 -0.2116 -0.5386  0.2230
 6398TIP3    H219201   5.429   2.454   2.874  0.7508  0.7171 -0.0771
 6399TIP3   OH219202   4.665   1.147   3.550  0.3680  0.1918  0.1035
 6399TIP3    H119203   4.582   1.114   3.517  1.4936  0.6103 -3.6712
 6399TIP3    H219204   4.694   1.081   3.614 -1.5363 -1.4335 -0.6066
 6400TIP3   OH219205   1.217   1.326   2.713  0.2280 -0.0043  0.2554
 6400TIP3    H119206   1.199   1.330   2.807  0.9130 -3.5979  0.6953
 6400TIP3    H219207   1.309   1.350   2.705 -0.4457  2.9357  0.0242
 6401TIP3   OH219208   0.610   5.514   3.105 -0.3261 -0.1399 -0.0292
 6401TIP3    H119209   0.538   5.456   3.080  0.3390 -1.1811  0.3681
 6401TIP3    H219210   0.684   5.485   3.051 -0.1363  0.7696 -0.2769
 6402TIP3   OH219211   2.915   3.391   1.054 -0.1551 -0.7157 -0.2871
 6402TIP3    H119212   2.830   3.433   1.044 -0.0123 -0.2646  0.3706
 6402TIP3    H219213   2.906   3.337   1.133 -0.4291 -2.1677 -1.2585
 6403TIP3   OH219214   3.291   4.364   2.905  0.4204  0.0119  0.7393
 6403TIP3    H119215   3.384   4.341   2.909  0.8807  1.8934  2.1910
 6403TIP3    H219216   3.287   4.435   2.841  0.2969  1.1177  1.9307
 6404TIP3   OH219217   3.769   0.604   0.941 -0.7166  0.4968  0.3872
 6404TIP3    H119218   3.726   0.548   1.005 -0.9607 -1.1883 -1.1579
 6404TIP3    H219219   3.861   0.604   0.966 -0.3145 -2.4153 -0.7244
 6405TIP3   OH219220   2.017   0.896   0.304  0.0707 -0.3327  0.0874
 6405TIP3    H119221   1.937   0.874   0.351  0.4233 -0.3276  0.6987
 6405TIP3    H219222   2.086   0.886   0.369  0.6978 -1.4129 -0.7136
 6406TIP3   OH219223   1.443   2.087   4.982 -0.3898  0.1290  0.0448
 6406TIP3    H119224   1.524   2.084   5.032  0.0490  0.9917 -0.5984
 6406TIP3    H219225   1.471   2.092   4.890 -1.1746 -0.7063 -0.2565
 6407TIP3   OH219226   1.509   2.597   4.980 -0.0975 -0.1180  0.5579
 6407TIP3    H119227   1.537   2.647   4.903 -0.8059 -0.0945  0.3151
 6407TIP3    H219228   1.465   2.520   4.944  0.6582 -0.7513  0.9316
 6408TIP3   OH219229   1.175   1.036   1.662  0.3591  0.1446  0.6411
 6408TIP3    H119230   1.189   1.104   1.729 -1.4158  1.7703 -0.5245
 6408TIP3    H219231   1.198   0.954   1.706  2.6869  1.4432  2.0927
 6409TIP3   OH219232   4.685   1.480   3.148 -0.0800  0.4807 -0.3273
 6409TIP3    H119233   4.655   1.500   3.059  0.7859 -0.6028 -0.8921
 6409TIP3    H219234   4.686   1.385   3.153  1.0894  0.5032  0.4020
 6410TIP3   OH219235   3.770   0.958   4.951  0.2738 -0.1114  0.1131
 6410TIP3    H119236   3.839   0.957   4.886  1.8704 -0.6893  1.7376
 6410TIP3    H219237   3.716   0.881   4.930  1.2040 -0.7269 -0.0964
 6411TIP3   OH219238   1.105   4.289   3.031  0.5378  0.0950 -0.2737
 6411TIP3    H119239   1.135   4.212   2.982  0.2053  0.8109 -1.6710
 6411TIP3    H219240   1.011   4.294   3.012  0.5161  0.7298 -0.0253
 6412TIP3   OH219241   0.769   2.521   1.169  0.1705  0.4881 -0.7976
 6412TIP3    H119242   0.805   2.432   1.180  1.3587  0.8741 -1.3425
 6412TIP3    H219243   0.846   2.577   1.165 -0.5369  1.4525 -1.3000
 6413TIP3   OH219244   5.838   3.641   5.140 -0.2341  0.2948 -1.0782
 6413TIP3    H119245   5.757   3.636   5.091  0.1437 -0.2244 -1.6629
 6413TIP3    H219246   5.889   3.566   5.110 -0.9376 -1.5163  1.8674
 6414TIP3   OH219247   1.847   5.617   4.649 -0.2682 -0.3382 -0.3045
 6414TIP3    H119248   1.874   5.681   4.716 -0.2925 -1.1295  0.4798
 6414TIP3    H219249   1.858   5.664   4.566 -0.6586  0.8203  0.2667
 6415TIP3   OH219250   4.009   1.426   4.653  0.0604  0.3971  0.2855
 6415TIP3    H119251   3.996   1.341   4.696  0.7000  0.8052  1.3213
 6415TIP3    H219252   3.972   1.490   4.713 -0.5441  0.8622 -0.5556
 6416TIP3   OH219253   1.151   0.518   3.853  0.3375 -0.0994 -0.3284
 6416TIP3    H119254   1.202   0.438   3.840 -0.3436 -0.7002  0.6045
 6416TIP3    H219255   1.083   0.514   3.787  0.5241 -0.1032 -0.5214
 6417TIP3   OH219256   0.375   5.901   3.510 -0.2367  0.0640  0.4805
 6417TIP3    H119257   0.441   5.964   3.483 -0.3178 -0.3264 -0.6831
 6417TIP3    H219258   0.425   5.826   3.544 -0.1196  0.3138  0.8611
 6418TIP3   OH219259   3.269   1.925   0.208 -0.0643 -0.2166 -0.7282
 6418TIP3    H119260   3.205   1.875   0.157  0.9708 -1.2413 -1.0628
 6418TIP3    H219261   3.219   1.998   0.244 -0.7703  0.8833 -3.6538
 6419TIP3   OH219262   1.483   2.850   4.498 -0.1481 -0.2128 -0.3580
 6419TIP3    H119263   1.543   2.924   4.484 -0.8518  0.3919 -0.2342
 6419TIP3    H219264   1.479   2.806   4.413 -2.6399  2.1276 -1.6184
 6420TIP3   OH219265   2.753   2.665   1.291  0.1128 -0.2259 -0.0354
 6420TIP3    H119266   2.731   2.751   1.328  0.4907 -0.1349 -0.0234
 6420TIP3    H219267   2.673   2.613   1.302 -0.5204  0.4773 -1.0907
 6421TIP3   OH219268   6.338   1.513   1.445 -0.1957  0.2435  0.1588
 6421TIP3    H119269   6.324   1.603   1.474 -0.0059  0.8095 -1.4191
 6421TIP3    H219270   6.325   1.516   1.350  0.5548 -1.2417 -0.0178
 6422TIP3   OH219271   5.508   3.749   2.943  0.0633  0.3960  0.0074
 6422TIP3    H119272   5.485   3.787   3.029 -1.4451 -1.8765  0.6800
 6422TIP3    H219273   5.513   3.825   2.885  0.3691  1.9441  1.9164
 6423TIP3   OH219274   5.673   4.462   2.576 -0.0484 -0.3660 -0.0954
 6423TIP3    H119275   5.595   4.408   2.564 -0.4364 -0.1612  1.2904
 6423TIP3    H219276   5.640   4.552   2.570  0.3171 -0.2840 -0.8425
 6424TIP3   OH219277   2.870   5.927   1.577 -0.3202  0.3308  0.4845
 6424TIP3    H119278   2.954   5.965   1.549  0.3180 -0.0625  1.7729
 6424TIP3    H219279   2.838   5.988   1.643 -0.7340  0.1474  0.4525
 6425TIP3   OH219280   4.963   1.453   3.306  0.0417 -0.1206  0.2780
 6425TIP3    H119281   4.868   1.437   3.305  0.0671 -0.2929 -0.5529
 6425TIP3    H219282   4.975   1.528   3.246  0.6665 -1.7009 -1.6907
 6426TIP3   OH219283   4.349   2.767   4.443  0.2707 -0.1167  0.0468
 6426TIP3    H119284   4.413   2.831   4.471 -0.4090 -0.1482  1.7944
 6426TIP3    H219285   4.389   2.724   4.367  1.2818  1.4489 -0.3471
 6427TIP3   OH219286   2.119   0.013   1.830  0.3455 -0.5970  0.2785
 6427TIP3    H119287   2.174   0.060   1.892 -1.6207  2.7405 -0.2542
 6427TIP3    H219288   2.033   0.009   1.871 -0.6127  0.2798 -1.4885
 6428TIP3   OH219289   4.752   0.797   1.659 -0.3645  0.1718 -0.1413
 6428TIP3    H119290   4.774   0.876   1.707  0.8939 -0.2262 -0.0365
 6428TIP3    H219291   4.827   0.782   1.601 -0.8124 -0.6582 -0.5303
 6429TIP3   OH219292   1.448   5.535   1.383  0.1772  0.2714 -0.2029
 6429TIP3    H119293   1.500   5.458   1.402 -1.3048 -0.8788 -0.6202
 6429TIP3    H219294   1.374   5.502   1.331 -1.6849  1.5779  1.4639
 6430TIP3   OH219295   1.364   5.267   0.850  0.1409  0.4578 -0.1120
 6430TIP3    H119296   1.437   5.225   0.895 -0.6711 -0.5678  0.2923
 6430TIP3    H219297   1.369   5.359   0.876  0.8123  0.2462  0.5377
 6431TIP3   OH219298   6.158   3.512   1.843 -0.2119 -0.5636  0.1199
 6431TIP3    H119299   6.206   3.541   1.766 -1.1699  0.7514  0.0013
 6431TIP3    H219300   6.214   3.537   1.917 -0.1102 -0.2431 -0.0654
 6432TIP3   OH219301   6.147   5.298   0.897 -0.5389 -0.5021  0.1210
 6432TIP3    H119302   6.157   5.257   0.982 -2.0484 -1.1409  0.0325
 6432TIP3    H219303   6.216   5.260   0.843 -0.1351 -0.7644  0.8199
 6433TIP3   OH219304   2.604   0.831   0.440  0.3504 -0.2731 -0.6746
 6433TIP3    H119305   2.634   0.820   0.530  1.7640 -2.2090 -1.3225
 6433TIP3    H219306   2.542   0.759   0.426 -0.5093  0.5120 -1.0149
 6434TIP3   OH219307   6.191   5.926   0.677  0.4586 -0.7656  0.0272
 6434TIP3    H119308   6.117   5.914   0.737  0.1863 -1.7350 -0.4750
 6434TIP3    H219309   6.186   5.851   0.618  0.5205  0.3343 -1.4230
 6435TIP3   OH219310   1.781   2.329   1.025 -0.3273  0.7282 -0.4500
 6435TIP3    H119311   1.700   2.306   1.071  0.4908 -0.7911  0.3090
 6435TIP3    H219312   1.845   2.342   1.095  0.7252 -0.7598 -1.0890
 6436TIP3   OH219313   0.553   4.892   0.766 -0.2841 -0.0954 -0.0122
 6436TIP3    H119314   0.574   4.828   0.697  0.5974  0.6167 -0.4174
 6436TIP3    H219315   0.457   4.894   0.768 -0.3623 -1.8706  0.4293
 6437TIP3   OH219316   0.946   2.064   3.992  0.0026 -0.4745 -0.0082
 6437TIP3    H119317   0.979   2.050   4.081 -0.3966 -1.0103  0.0613
 6437TIP3    H219318   0.854   2.090   4.005 -0.1219 -0.7819 -0.2755
 6438TIP3   OH219319   4.910   0.223   1.345 -0.1556  0.2625  0.2397
 6438TIP3    H119320   4.874   0.145   1.304  1.0973 -0.1161 -0.1719
 6438TIP3    H219321   4.840   0.254   1.403 -0.5751 -1.3088  0.6253
 6439TIP3   OH219322   4.164   4.859   2.335 -0.4086 -0.2810 -0.2285
 6439TIP3    H119323   4.144   4.772   2.370 -1.0633 -1.4728 -3.2040
 6439TIP3    H219324   4.242   4.845   2.280  0.7938  1.5252  0.9253
 6440TIP3   OH219325   3.862   5.282   2.387 -0.2342  0.7262  0.2647
 6440TIP3    H119326   3.875   5.190   2.361 -0.4289  1.1202 -1.3322
 6440TIP3    H219327   3.825   5.323   2.309 -0.0863  2.1836  0.9458
 6441TIP3   OH219328   1.483   0.660   1.312 -0.3759 -0.1280  0.7612
 6441TIP3    H119329   1.475   0.755   1.318 -1.0214 -0.1416  0.1766
 6441TIP3    H219330   1.511   0.633   1.400 -1.1157  0.5108  1.2044
 6442TIP3   OH219331   5.563   2.103   0.442  0.2265 -0.3727  0.0550
 6442TIP3    H119332   5.590   2.112   0.533 -1.4883  1.3392  0.4635
 6442TIP3    H219333   5.572   2.191   0.405 -0.9061 -0.6103 -0.8673
 6443TIP3   OH219334   1.255   4.069   1.790  0.1046 -0.3316  0.4504
 6443TIP3    H119335   1.255   4.031   1.877  0.2779 -0.3368  0.4474
 6443TIP3    H219336   1.169   4.048   1.755 -0.0029 -0.2421  0.6585
 6444TIP3   OH219337   0.674   4.976   1.768  0.2315 -0.0197 -0.0629
 6444TIP3    H119338   0.695   4.952   1.678 -0.0168  3.0869 -1.0887
 6444TIP3    H219339   0.622   4.903   1.801 -0.0478 -1.0810 -2.5966
 6445TIP3   OH219340   4.846   5.759   0.423  0.0874  0.0213 -0.6554
 6445TIP3    H119341   4.797   5.755   0.505  0.3174 -0.2972 -0.5311
 6445TIP3    H219342   4.904   5.835   0.434 -0.6301  0.6289 -0.9530
 6446TIP3   OH219343   1.730   1.521   4.585 -0.3377  0.1060  0.2670
 6446TIP3    H119344   1.645   1.507   4.626 -0.4571 -0.4190 -0.1535
 6446TIP3    H219345   1.783   1.564   4.652 -1.2112  1.2741  0.2350
 6447TIP3   OH219346   3.929   3.803   3.749 -0.2341 -0.4730 -0.0743
 6447TIP3    H119347   4.022   3.825   3.742 -0.3024  0.1168  0.6904
 6447TIP3    H219348   3.925   3.738   3.818 -0.6552  1.5958  1.9789
 6448TIP3   OH219349   3.359   4.546   2.666 -0.0972  0.5350  0.7338
 6448TIP3    H119350   3.411   4.624   2.645  1.3836 -0.0456  2.0271
 6448TIP3    H219351   3.274   4.563   2.627  1.0056  1.6027 -1.3892
 6449TIP3   OH219352   3.042   1.072   3.118  0.1897 -0.3635 -0.6552
 6449TIP3    H119353   3.028   1.028   3.202  0.4902 -1.5191 -1.1907
 6449TIP3    H219354   2.973   1.138   3.113  1.8604  1.7632  1.8059
 6450TIP3   OH219355   2.632   5.807   4.932  0.9796  0.0105 -0.4114
 6450TIP3    H119356   2.622   5.864   5.008 -0.0667 -0.0889 -0.4628
 6450TIP3    H219357   2.574   5.845   4.866  2.0312  0.2164 -1.2468
 6451TIP3   OH219358   3.602   5.234   2.693 -0.2054  0.2718  0.3423
 6451TIP3    H119359   3.608   5.323   2.658  0.8387  0.1015  0.0736
 6451TIP3    H219360   3.508   5.220   2.704 -0.4858  0.8323 -1.0818
 6452TIP3   OH219361   0.635   3.187   4.365 -0.4194 -0.0817 -0.4472
 6452TIP3    H119362   0.612   3.134   4.288 -0.4343  0.4411 -0.8128
 6452TIP3    H219363   0.730   3.194   4.360 -0.1549 -2.0264  0.9206
 6453TIP3   OH219364   1.465   2.448   3.157 -0.3419  0.0483 -0.2289
 6453TIP3    H119365   1.389   2.435   3.100 -0.1167 -2.2886 -0.1045
 6453TIP3    H219366   1.463   2.374   3.217  1.6555  0.3012  0.2271
 6454TIP3   OH219367   4.402   4.538   1.191 -0.1915  0.6287  0.0182
 6454TIP3    H119368   4.408   4.453   1.233  0.8207  0.9090  0.4828
 6454TIP3    H219369   4.486   4.580   1.210 -0.2343  1.2958 -1.1416
 6455TIP3   OH219370   4.827   2.562   2.499  0.4608 -0.3630 -0.0302
 6455TIP3    H119371   4.769   2.607   2.437 -1.1626  0.4191  1.9605
 6455TIP3    H219372   4.841   2.475   2.461 -1.0830 -0.1620 -1.1187
 6456TIP3   OH219373   3.037   3.899   3.146 -0.0905  0.1093 -0.6403
 6456TIP3    H119374   3.053   3.925   3.055  1.5608  1.3851 -0.0405
 6456TIP3    H219375   2.942   3.898   3.155 -0.3115 -1.1220 -2.6544
 6457TIP3   OH219376   0.667   1.164   4.345 -0.3873 -0.2167 -0.3631
 6457TIP3    H119377   0.722   1.133   4.272 -0.7826 -1.0459 -0.3213
 6457TIP3    H219378   0.727   1.211   4.402  1.0187 -3.7173  1.2958
 6458TIP3   OH219379   0.480   0.059   3.306  0.3139  0.2071 -0.2781
 6458TIP3    H119380   0.484   0.061   3.210 -1.3993 -0.5399 -0.3983
 6458TIP3    H219381   0.570   0.075   3.334  1.2858 -1.7157 -2.0358
 6459TIP3   OH219382   0.823   3.788   3.071  0.2284  0.4365 -0.1544
 6459TIP3    H119383   0.909   3.747   3.064  0.0415 -0.0046  0.0895
 6459TIP3    H219384   0.830   3.850   3.143  0.2801  0.2445  0.0049
 6460TIP3   OH219385   2.335   2.626   2.312 -0.2258  0.3566 -0.0877
 6460TIP3    H119386   2.341   2.680   2.234  0.1023  0.1493 -0.2121
 6460TIP3    H219387   2.355   2.537   2.281 -3.2418 -0.3063 -0.3605
 6461TIP3   OH219388   3.296   5.411   4.129 -0.4171  0.6139 -0.2867
 6461TIP3    H119389   3.276   5.462   4.207 -3.8423 -0.8978  0.0357
 6461TIP3    H219390   3.250   5.457   4.058 -2.0215 -0.9112 -0.3081
 6462TIP3   OH219391   1.934   3.059   0.375 -0.0623  0.3696 -0.3942
 6462TIP3    H119392   1.941   3.043   0.281 -1.3154  1.4344 -0.7021
 6462TIP3    H219393   2.023   3.052   0.408  0.3335 -0.4562 -1.5858
 6463TIP3   OH219394   2.609   4.189   1.868  0.3376  0.1739 -0.6697
 6463TIP3    H119395   2.659   4.108   1.855 -0.0334 -0.3116  0.7228
 6463TIP3    H219396   2.518   4.164   1.849  0.0948  0.0020  0.6145
 6464TIP3   OH219397   0.644   0.515   0.067  0.1232  0.6610 -0.9854
 6464TIP3    H119398   0.663   0.605   0.093  0.1067  0.3371  0.1798
 6464TIP3    H219399   0.697   0.461   0.125 -0.5571 -0.1099 -1.0613
 6465TIP3   OH219400   4.837   2.938   3.422  0.1818 -0.0841 -0.0486
 6465TIP3    H119401   4.921   2.900   3.445  0.9742  1.5070 -0.2113
 6465TIP3    H219402   4.788   2.941   3.505  1.0574  0.8407  0.4481
 6466TIP3   OH219403   2.757   2.470   0.508  0.3230  0.0403  0.0550
 6466TIP3    H119404   2.754   2.558   0.472 -3.0412  0.8066  1.8155
 6466TIP3    H219405   2.742   2.413   0.433  1.4125  0.9728 -0.9183
 6467TIP3   OH219406   5.187   0.363   1.654 -0.1428  0.5550  0.6308
 6467TIP3    H119407   5.261   0.341   1.711 -0.0977  0.1238  0.4115
 6467TIP3    H219408   5.170   0.283   1.604  1.0070  1.4222 -1.2816
 6468TIP3   OH219409   0.448   1.243   4.158  0.3737 -0.0646 -0.2833
 6468TIP3    H119410   0.511   1.200   4.216  0.3405  0.7631  0.3728
 6468TIP3    H219411   0.363   1.208   4.185  0.4381 -0.3233 -0.4100
 6469TIP3   OH219412   6.030   3.942   1.418  0.1724 -0.4151  0.4361
 6469TIP3    H119413   5.999   3.858   1.452  0.0371 -0.2384  0.7629
 6469TIP3    H219414   5.991   4.007   1.477  2.1618 -0.2303  1.6624
 6470TIP3   OH219415   3.570   1.171   1.216  0.2145  0.0065 -0.5052
 6470TIP3    H119416   3.595   1.081   1.234  0.9552  0.0801 -1.1685
 6470TIP3    H219417   3.577   1.215   1.301  1.7067 -0.1269 -0.5385
 6471TIP3   OH219418   2.782   0.970   3.739  0.4772  0.1992 -0.4578
 6471TIP3    H119419   2.835   1.046   3.712  0.5181  0.5474  0.5505
 6471TIP3    H219420   2.810   0.953   3.829 -0.4752 -0.1866 -0.2264
 6472TIP3   OH219421   6.149   4.997   4.990 -0.3354 -0.0220  0.0566
 6472TIP3    H119422   6.209   4.929   4.961 -0.3901 -0.2798  0.5333
 6472TIP3    H219423   6.101   5.023   4.912  1.1443  0.9459 -0.5604
 6473TIP3   OH219424   6.135   2.995   4.849  0.2789  0.4829  0.1040
 6473TIP3    H119425   6.151   3.084   4.879  2.1710  0.2375 -0.0495
 6473TIP3    H219426   6.202   2.943   4.894  0.6342 -0.4920 -1.5048
 6474TIP3   OH219427   5.634   2.004   1.008 -0.4545  0.0712 -0.1316
 6474TIP3    H119428   5.713   2.020   0.957 -0.6610  0.7959 -0.2444
 6474TIP3    H219429   5.588   2.088   1.007 -2.1708 -0.8261 -1.6577
 6475TIP3   OH219430   0.304   4.218   3.357  0.1716 -0.1756  0.0071
 6475TIP3    H119431   0.348   4.273   3.421  0.6023 -0.0901 -0.3587
 6475TIP3    H219432   0.221   4.263   3.339 -0.2313 -0.5098  0.9445
 6476TIP3   OH219433   3.368   4.192   4.404 -0.5617  0.5607  0.2839
 6476TIP3    H119434   3.306   4.188   4.332  2.3812  1.8937 -2.5382
 6476TIP3    H219435   3.378   4.285   4.423  1.1518  0.4368  0.1027
 6477TIP3   OH219436   2.791   1.649   2.408  0.2510 -0.5371 -0.9405
 6477TIP3    H119437   2.776   1.733   2.366  1.1553 -0.3370 -0.8767
 6477TIP3    H219438   2.841   1.599   2.344 -2.2175 -1.8975 -1.9444
 6478TIP3   OH219439   1.352   0.569   3.007  0.0665 -0.1424 -0.7126
 6478TIP3    H119440   1.260   0.578   2.981  0.7042  2.3878 -2.4585
 6478TIP3    H219441   1.401   0.581   2.925  2.0132  1.3558  0.5821
 6479TIP3   OH219442   4.000   4.083   3.416  0.5707  0.3455 -0.0997
 6479TIP3    H119443   4.036   4.053   3.333 -1.7214  1.2217 -1.4926
 6479TIP3    H219444   4.048   4.163   3.435  1.5988 -0.2264 -0.1589
 6480TIP3   OH219445   4.992   3.572   2.689  0.5373  0.5480  0.1569
 6480TIP3    H119446   4.984   3.609   2.777 -0.2497  0.2856  0.2068
 6480TIP3    H219447   5.039   3.639   2.639 -0.9109  1.6720  0.2277
 6481TIP3   OH219448   0.112   2.486   0.408 -0.4449 -0.0666 -0.4293
 6481TIP3    H119449   0.147   2.416   0.353  0.1277 -0.1069 -0.0209
 6481TIP3    H219450   0.121   2.453   0.497 -0.3120  0.4655 -0.2445
 6482TIP3   OH219451   3.938   1.315   2.524  0.2459 -0.2655 -0.6897
 6482TIP3    H119452   4.021   1.361   2.517  0.0772  0.0878 -0.3751
 6482TIP3    H219453   3.890   1.339   2.445 -0.8950  2.2056  0.6573
 6483TIP3   OH219454   1.002   4.969   0.867  0.5541  0.1007 -0.0599
 6483TIP3    H119455   1.022   5.032   0.797 -0.4717 -0.2523 -0.6801
 6483TIP3    H219456   0.914   4.993   0.896  0.1379 -1.0471 -0.3159
 6484TIP3   OH219457   4.763   1.366   3.903  0.1540  0.3351  0.1208
 6484TIP3    H119458   4.812   1.335   3.980 -2.4196  0.0316  1.7670
 6484TIP3    H219459   4.765   1.461   3.911  0.4798  0.3293  0.1504
 6485TIP3   OH219460   4.146   1.827   4.315  0.2627  0.0087 -0.0903
 6485TIP3    H119461   4.168   1.790   4.400  0.3138  0.3469  0.0445
 6485TIP3    H219462   4.171   1.919   4.321 -0.3828  0.1963 -0.2310
 6486TIP3   OH219463   0.567   5.527   5.026  0.0456 -0.0434 -0.5571
 6486TIP3    H119464   0.544   5.549   5.116  0.6200 -2.3559  0.2429
 6486TIP3    H219465   0.663   5.528   5.024  0.0890 -1.4949 -0.6630
 6487TIP3   OH219466   1.271   2.136   1.638 -0.3197 -0.1970  0.0392
 6487TIP3    H119467   1.229   2.138   1.724 -1.1810 -1.8073 -0.2926
 6487TIP3    H219468   1.273   2.043   1.615 -1.8866  0.3037 -2.5179
 6488TIP3   OH219469   1.738   1.285   1.803 -0.4507 -0.4066 -0.3277
 6488TIP3    H119470   1.670   1.247   1.859 -1.3041 -0.5575 -1.4365
 6488TIP3    H219471   1.696   1.362   1.765 -0.0435 -0.5841 -1.1368
 6489TIP3   OH219472   4.522   2.719   4.225 -0.4335  0.2383  0.2749
 6489TIP3    H119473   4.498   2.808   4.200 -1.4472  0.7264  2.7334
 6489TIP3    H219474   4.605   2.728   4.271  1.0945 -0.5663 -2.1235
 6490TIP3   OH219475   4.985   5.039   0.063  0.2792 -0.0843  0.6492
 6490TIP3    H119476   4.992   5.089   0.144 -1.0250  0.1967  0.6029
 6490TIP3    H219477   5.075   5.015   0.042  0.7088  0.4889  1.7707
 6491TIP3   OH219478   4.505   3.438   0.510  0.1682  0.0533  0.2821
 6491TIP3    H119479   4.416   3.444   0.478  0.4333  0.7217 -0.3706
 6491TIP3    H219480   4.519   3.345   0.528 -0.2923 -0.2130 -0.6754
 6492TIP3   OH219481   0.911   4.859   4.272  0.0554  0.6475 -0.1987
 6492TIP3    H119482   0.829   4.843   4.319  0.8376 -0.4763  0.8386
 6492TIP3    H219483   0.885   4.915   4.198 -1.3321  1.7803  1.0852
 6493TIP3   OH219484   1.691   4.902   2.927  0.3284 -0.2063 -0.1368
 6493TIP3    H119485   1.601   4.935   2.919 -0.4002 -1.6143  1.5938
 6493TIP3    H219486   1.735   4.966   2.983 -0.2627 -0.6444  0.8545
 6494TIP3   OH219487   6.369   1.064   4.383  0.6652 -0.1275  0.3216
 6494TIP3    H119488   6.411   1.028   4.461  0.1884 -1.5101 -0.0233
 6494TIP3    H219489   6.283   1.024   4.382  0.8645 -0.5819 -1.2073
 6495TIP3   OH219490   0.200   2.051   1.668  0.1002 -0.5531 -0.2741
 6495TIP3    H119491   0.232   2.023   1.754  0.0087  0.4323  0.0962
 6495TIP3    H219492   0.270   2.026   1.608  1.1883  0.7322  0.3981
 6496TIP3   OH219493   4.787   1.568   2.563 -0.3755  0.0344  0.1074
 6496TIP3    H119494   4.783   1.511   2.486  1.0194  1.9434 -1.5147
 6496TIP3    H219495   4.838   1.644   2.533 -1.6315  1.8613  2.2919
 6497TIP3   OH219496   5.025   1.122   0.764 -0.5326  0.1682  0.9409
 6497TIP3    H119497   5.047   1.206   0.724 -1.9589  0.2491  0.2434
 6497TIP3    H219498   4.929   1.124   0.771 -0.7494 -2.0198 -0.5227
 6498TIP3   OH219499   4.811   1.053   4.286  0.7829 -0.0496 -0.2734
 6498TIP3    H119500   4.879   1.119   4.267 -0.1634  0.9424 -0.2949
 6498TIP3    H219501   4.814   1.044   4.381 -0.4630  1.5985 -0.0289
 6499TIP3   OH219502   3.738   2.939   4.057  0.1974  0.5093  0.1223
 6499TIP3    H119503   3.694   3.005   4.110 -0.7785  0.6812 -0.8611
 6499TIP3    H219504   3.829   2.968   4.053 -0.3545  2.2193 -0.9045
 6500TIP3   OH219505   1.441   2.655   4.247  0.2601  0.0720  0.0299
 6500TIP3    H119506   1.488   2.693   4.173  0.9151 -0.3124  0.2366
 6500TIP3    H219507   1.464   2.562   4.245  0.2707  0.0534  0.6992
 6501TIP3   OH219508   2.859   0.572   1.169  0.4368  0.4293  0.0840
 6501TIP3    H119509   2.789   0.543   1.227 -0.5606  0.6060 -0.9831
 6501TIP3    H219510   2.878   0.496   1.114  1.7433  0.0982  0.9701
 6502TIP3   OH219511   4.890   1.344   2.820 -0.0688 -0.2965 -0.5073
 6502TIP3    H119512   4.972   1.300   2.843 -0.2420 -0.3226  0.0868
 6502TIP3    H219513   4.823   1.298   2.870 -0.3987 -0.0534 -0.7207
 6503TIP3   OH219514   1.659   5.020   1.589  0.7248 -0.6681 -0.4622
 6503TIP3    H119515   1.660   5.084   1.517 -0.0132 -1.3520 -1.0938
 6503TIP3    H219516   1.738   4.967   1.574  1.9467  0.7267  0.6863
 6504TIP3   OH219517   1.549   1.925   1.353 -0.0726  0.2385 -0.0347
 6504TIP3    H119518   1.591   1.995   1.403  0.2841  0.2758 -0.3793
 6504TIP3    H219519   1.616   1.897   1.291 -0.0989 -0.6255  0.3118
 6505TIP3   OH219520   0.631   4.774   2.094 -0.5721  0.2195  0.3081
 6505TIP3    H119521   0.658   4.780   2.185 -1.1020  2.5129  0.3894
 6505TIP3    H219522   0.553   4.830   2.089 -1.2379 -0.7886 -1.3136
 6506TIP3   OH219523   3.590   3.591   1.742  0.0111 -0.1886 -0.0612
 6506TIP3    H119524   3.497   3.568   1.748 -0.2567  0.2277 -1.7840
 6506TIP3    H219525   3.589   3.683   1.713  0.9615 -0.1742 -0.0702
 6507TIP3   OH219526   3.993   4.430   0.537  0.0478  0.3074  0.0952
 6507TIP3    H119527   4.010   4.336   0.528  0.4250  0.2296  1.4302
 6507TIP3    H219528   4.012   4.449   0.629  1.9657  2.0922 -0.5959
 6508TIP3   OH219529   4.268   2.739   1.028  0.0253 -0.8080  1.4269
 6508TIP3    H119530   4.250   2.670   1.093  0.1725 -1.4531  0.7877
 6508TIP3    H219531   4.230   2.706   0.947 -0.7613  0.3022  1.3252
 6509TIP3   OH219532   5.005   5.181   2.146  0.1896  0.0150 -0.4189
 6509TIP3    H119533   4.984   5.162   2.237 -0.6418  2.5947  0.0281
 6509TIP3    H219534   4.922   5.211   2.108  1.2455  2.5739 -0.9209
 6510TIP3   OH219535   3.157   2.482   0.500 -0.2393  0.2824 -0.1638
 6510TIP3    H119536   3.099   2.498   0.425  2.2154 -0.3437 -2.3265
 6510TIP3    H219537   3.168   2.387   0.501  0.8930  0.4095  0.0740
 6511TIP3   OH219538   2.496   4.796   2.224 -0.2470 -0.0442  0.2346
 6511TIP3    H119539   2.511   4.715   2.274  0.5852 -0.2215 -0.2758
 6511TIP3    H219540   2.436   4.772   2.155 -0.7822  0.0138  0.6760
 6512TIP3   OH219541   2.282   2.283   4.115  0.2587  0.8019  0.7110
 6512TIP3    H119542   2.301   2.210   4.056  0.8072  1.0838  0.5375
 6512TIP3    H219543   2.209   2.251   4.168 -1.6814  1.3053 -1.4902
 6513TIP3   OH219544   3.534   0.155   1.742  0.1051 -0.3062 -0.5081
 6513TIP3    H119545   3.500   0.066   1.739 -2.2831  0.5465 -1.9197
 6513TIP3    H219546   3.582   0.165   1.660  2.6993 -1.0160  0.8021
 6514TIP3   OH219547   5.269   3.103   2.267  0.5745  0.1338 -0.3520
 6514TIP3    H119548   5.275   3.080   2.360  0.6207 -0.7157 -0.5563
 6514TIP3    H219549   5.304   3.192   2.262 -0.4611  0.6180  0.6076
 6515TIP3   OH219550   1.746   2.374   5.067 -0.7731  0.3973 -0.1172
 6515TIP3    H119551   1.709   2.347   4.983 -0.2333 -1.0040  0.0728
 6515TIP3    H219552   1.670   2.395   5.122 -1.1882 -0.0996 -0.4929
 6516TIP3   OH219553   4.395   2.273   0.571  0.0663  0.1878 -0.5097
 6516TIP3    H119554   4.452   2.350   0.564  0.7752 -0.0955  1.3763
 6516TIP3    H219555   4.307   2.310   0.582  0.4758  0.8090  1.0484
 6517TIP3   OH219556   0.591   0.587   4.737  0.3718 -0.1749  0.5121
 6517TIP3    H119557   0.526   0.523   4.766 -1.2474  0.0871 -2.2057
 6517TIP3    H219558   0.620   0.554   4.652  1.9216  1.0665  0.5283
 6518TIP3   OH219559   4.020   4.188   4.538  0.6355 -0.3498 -0.7347
 6518TIP3    H119560   4.051   4.113   4.589 -0.2675  1.3737  2.6424
 6518TIP3    H219561   4.084   4.257   4.556 -1.3293  1.2063  0.6688
 6519TIP3   OH219562   2.982   5.194   3.096  0.0854 -0.1497 -0.2969
 6519TIP3    H119563   3.019   5.282   3.095  0.1583 -0.1693  0.6409
 6519TIP3    H219564   3.005   5.158   3.010  2.3874 -0.2252  0.2949
 6520TIP3   OH219565   4.693   1.268   0.348  0.0191 -0.1323  0.2235
 6520TIP3    H119566   4.641   1.246   0.271  0.0477 -0.9042  0.4186
 6520TIP3    H219567   4.781   1.233   0.330  0.0613 -0.2025  0.5407
 6521TIP3   OH219568   0.656   0.073   2.406 -0.4117 -0.0613 -0.1746
 6521TIP3    H119569   0.651   0.168   2.405 -1.5377 -0.0979  0.3281
 6521TIP3    H219570   0.576   0.045   2.450 -0.0864 -1.2422 -0.2884
 6522TIP3   OH219571   1.275   3.389   1.423 -0.1813  0.4118 -0.7282
 6522TIP3    H119572   1.277   3.303   1.382 -0.9124 -0.3120  0.6992
 6522TIP3    H219573   1.362   3.399   1.462 -0.5755 -0.3477  0.3848
 6523TIP3   OH219574   1.343   1.222   4.322 -0.3126 -0.0290 -0.0634
 6523TIP3    H119575   1.255   1.209   4.289 -0.6663  0.0247  0.8280
 6523TIP3    H219576   1.399   1.220   4.245 -1.1678  0.5885 -0.7097
 6524TIP3   OH219577   2.186   5.007   1.507 -0.4290 -0.0676  0.1308
 6524TIP3    H119578   2.271   5.040   1.536  0.3694 -0.5706 -1.5236
 6524TIP3    H219579   2.162   5.064   1.434 -1.4066 -0.0832  0.4247
 6525TIP3   OH219580   6.021   1.730   4.714  0.2368 -0.3089  0.2234
 6525TIP3    H119581   6.075   1.690   4.783  0.3009 -0.0731  0.3109
 6525TIP3    H219582   6.051   1.687   4.633  0.6070 -0.1301  0.2615
 6526TIP3   OH219583   2.222   3.665   2.449  0.5369 -0.5095 -0.0885
 6526TIP3    H119584   2.169   3.592   2.416 -0.7570 -0.3873  1.6117
 6526TIP3    H219585   2.281   3.686   2.376  1.5465 -3.7641 -0.3994
 6527TIP3   OH219586   3.896   5.865   1.823 -0.6231 -0.0393 -0.4352
 6527TIP3    H119587   3.868   5.957   1.819 -1.3023 -0.2059  0.3414
 6527TIP3    H219588   3.984   5.866   1.786 -1.7956  0.4189 -3.5353
 6528TIP3   OH219589   3.952   0.376   1.972  0.2157  0.3496  0.4010
 6528TIP3    H119590   4.022   0.312   1.956 -1.3597 -1.2801 -0.3229
 6528TIP3    H219591   3.974   0.415   2.056  1.8671 -0.3010  0.3023
 6529TIP3   OH219592   5.785   5.294   3.224 -0.5054 -1.1516  0.8377
 6529TIP3    H119593   5.710   5.313   3.169  0.9936 -0.1649 -0.9791
 6529TIP3    H219594   5.810   5.379   3.262  0.9407 -1.0177 -0.3126
 6530TIP3   OH219595   1.513   3.563   2.152 -0.2226  0.0453 -0.1979
 6530TIP3    H119596   1.581   3.550   2.218 -0.0960 -0.6814 -0.4622
 6530TIP3    H219597   1.469   3.478   2.146  0.3421 -0.1737 -1.6781
 6531TIP3   OH219598   2.628   2.827   2.348  0.5838 -0.0159 -0.6271
 6531TIP3    H119599   2.652   2.742   2.312 -0.4199  0.4296 -2.4774
 6531TIP3    H219600   2.606   2.880   2.272 -3.0364  0.5923  0.6514
 6532TIP3   OH219601   3.152   1.578   3.815 -1.1006  0.3950 -0.1293
 6532TIP3    H119602   3.163   1.612   3.727  0.9726  2.0451  0.6727
 6532TIP3    H219603   3.225   1.516   3.826 -0.9249  0.7258  0.6431
 6533TIP3   OH219604   3.624   1.553   4.185 -0.2815 -0.2232  0.0116
 6533TIP3    H119605   3.678   1.556   4.265  0.3444 -0.6727 -0.3857
 6533TIP3    H219606   3.623   1.461   4.160 -0.8100 -0.1405 -0.2816
 6534TIP3   OH219607   3.635   5.720   0.068  0.2675 -0.0216  0.0409
 6534TIP3    H119608   3.604   5.806   0.040 -0.9812 -0.8433 -1.2522
 6534TIP3    H219609   3.631   5.666  -0.011 -1.0148 -1.7951  1.2328
 6535TIP3   OH219610   3.259   2.696   4.001 -0.1925  0.1611 -0.4200
 6535TIP3    H119611   3.335   2.642   3.977  0.8206  1.0143  0.7520
 6535TIP3    H219612   3.295   2.767   4.054 -2.0380 -0.3974  1.7191
 6536TIP3   OH219613   0.373   4.367   0.044  0.1672 -0.2608  0.3467
 6536TIP3    H119614   0.311   4.297   0.024 -0.9545  0.9525 -0.6393
 6536TIP3    H219615   0.439   4.361  -0.024  0.6606 -0.9902  0.8726
 6537TIP3   OH219616   0.037   3.309   2.682  0.2461  0.3153 -0.1665
 6537TIP3    H119617   0.016   3.242   2.617  2.5950  0.9432 -1.6745
 6537TIP3    H219618  -0.001   3.276   2.763 -1.0014 -1.4977 -1.4105
 6538TIP3   OH219619   5.359   3.932   3.489 -0.5946 -0.5403 -0.0415
 6538TIP3    H119620   5.266   3.948   3.473 -0.4905 -0.2744 -0.4016
 6538TIP3    H219621   5.363   3.900   3.579 -0.8506  1.1559  0.6081
 6539TIP3   OH219622   5.065   2.757   2.220 -0.1071  0.3660  0.0588
 6539TIP3    H119623   5.066   2.670   2.182 -0.9175 -0.9590  2.7862
 6539TIP3    H219624   5.155   2.788   2.213  0.2757 -0.8515 -0.6060
 6540TIP3   OH219625   1.071   3.227   3.430  0.0393 -0.0541  0.0245
 6540TIP3    H119626   1.066   3.277   3.512  0.1191  1.2289 -0.7366
 6540TIP3    H219627   1.123   3.150   3.453  1.1818  0.9290  0.8804
 6541TIP3   OH219628   4.324   2.537   3.021 -0.6559  0.1081  0.3325
 6541TIP3    H119629   4.310   2.540   3.115  1.3581  1.3356  0.6416
 6541TIP3    H219630   4.402   2.483   3.010 -1.6653 -1.2074 -0.7876
 6542TIP3   OH219631   4.438   0.600   4.578 -0.1242  0.1851 -0.2224
 6542TIP3    H119632   4.354   0.565   4.608  0.1079  0.5508  0.9084
 6542TIP3    H219633   4.420   0.634   4.490 -0.9620 -0.4447 -0.3074
 6543TIP3   OH219634   2.558   1.506   5.020  0.2329 -0.5910 -0.1648
 6543TIP3    H119635   2.627   1.571   5.028 -0.0280 -0.5063  1.8817
 6543TIP3    H219636   2.515   1.526   4.936  0.9171  1.0831 -0.1471
 6544TIP3   OH219637   1.669   3.593   3.242 -0.4082  0.1796  0.2674
 6544TIP3    H119638   1.710   3.679   3.234  0.6242 -0.2606  0.6480
 6544TIP3    H219639   1.637   3.590   3.332 -0.5661  0.2216  0.2122
 6545TIP3   OH219640   0.863   1.421   5.006  0.0620  0.0925 -0.4437
 6545TIP3    H119641   0.808   1.490   4.970 -0.7330 -0.2139  0.1673
 6545TIP3    H219642   0.952   1.445   4.980 -0.3354  0.6910 -1.2728
 6546TIP3   OH219643   2.178   5.043   0.320 -0.4419  0.1633  0.0675
 6546TIP3    H119644   2.267   5.067   0.296 -0.5316  1.4772  0.9702
 6546TIP3    H219645   2.188   4.989   0.399 -0.4647  0.5633  0.3432
 6547TIP3   OH219646   3.177   2.672   1.705  0.1514  0.9218 -0.3359
 6547TIP3    H119647   3.128   2.590   1.697  0.4089  0.8894 -1.9429
 6547TIP3    H219648   3.126   2.735   1.655  1.0862  1.1892 -0.9816
 6548TIP3   OH219649   6.142   0.841   0.830 -0.8951  0.1639 -0.6191
 6548TIP3    H119650   6.228   0.814   0.797 -1.2653 -0.6232 -0.9864
 6548TIP3    H219651   6.099   0.758   0.852 -1.6900  0.5295 -0.7865
 6549TIP3   OH219652   5.757   0.355   4.710 -0.3176 -0.0958 -0.0225
 6549TIP3    H119653   5.716   0.275   4.679 -0.7843  0.2719 -0.3780
 6549TIP3    H219654   5.774   0.406   4.630 -0.1387  0.2124  0.2074
 6550TIP3   OH219655   1.618   3.518   0.815 -0.5328 -0.4564  0.2018
 6550TIP3    H119656   1.550   3.452   0.801 -0.4565 -0.8221  1.4510
 6550TIP3    H219657   1.684   3.474   0.868  0.2756  0.1633 -0.2607
 6551TIP3   OH219658   2.685   0.063   1.639 -0.5875 -0.3144 -0.0865
 6551TIP3    H119659   2.710   0.151   1.612 -1.3313 -0.2919 -0.7157
 6551TIP3    H219660   2.594   0.071   1.666 -0.5458 -0.8156  0.2153
 6552TIP3   OH219661   5.710  -0.012   0.007  0.2975  0.0144  0.6981
 6552TIP3    H119662   5.694   0.068   0.056 -0.2578  1.7386 -2.0921
 6552TIP3    H219663   5.779   0.011  -0.055 -0.5133 -1.3494 -0.7995
 6553TIP3   OH219664   2.727   4.014   1.538  0.5536  0.0956  0.6009
 6553TIP3    H119665   2.717   4.109   1.530  2.8761  0.5193  1.7225
 6553TIP3    H219666   2.701   3.995   1.629  0.3642 -0.2993  0.4660
 6554TIP3   OH219667   3.060   0.062   4.608 -0.6885 -0.3845  0.2985
 6554TIP3    H119668   3.067   0.019   4.693  0.1900  1.4397  1.2082
 6554TIP3    H219669   3.024   0.149   4.628  2.0030  1.1011 -0.7579
 6555TIP3   OH219670   2.481   5.752   3.905  0.5208 -0.0959 -0.3851
 6555TIP3    H119671   2.516   5.672   3.865 -0.9421 -1.5654  1.0663
 6555TIP3    H219672   2.418   5.720   3.971 -0.1397  2.2678  0.2396
 6556TIP3   OH219673   0.394   2.595   3.079  0.4525  0.1663 -0.2973
 6556TIP3    H119674   0.389   2.688   3.099  1.8481  0.5654 -1.6342
 6556TIP3    H219675   0.421   2.591   2.987  0.6408 -1.5467 -0.2021
 6557TIP3   OH219676   0.429   0.048   1.979 -0.3026  0.2029 -0.4395
 6557TIP3    H119677   0.438   0.079   1.889  0.4854  2.7532  0.4244
 6557TIP3    H219678   0.496  -0.020   1.988  0.8424  1.1753 -1.3206
 6558TIP3   OH219679   3.231   3.153   2.664  0.6443 -0.4877 -0.2919
 6558TIP3    H119680   3.264   3.065   2.649  0.3551 -0.2542 -2.6494
 6558TIP3    H219681   3.144   3.154   2.624 -0.3204  0.2580  1.6896
 6559TIP3   OH219682   5.430   3.495   2.825  0.1050 -0.0616 -0.1938
 6559TIP3    H119683   5.419   3.445   2.906  3.8471 -1.6883 -0.4880
 6559TIP3    H219684   5.444   3.585   2.855  0.0205 -0.3849  0.8630
 6560TIP3   OH219685   2.725   4.659   4.639 -0.8400 -0.3184 -0.1024
 6560TIP3    H119686   2.750   4.624   4.725 -0.9265 -1.1027 -0.3890
 6560TIP3    H219687   2.803   4.704   4.608  0.5655 -3.2318 -1.2475
 6561TIP3   OH219688   2.385   0.969   3.323  0.0125 -0.1753 -0.1177
 6561TIP3    H119689   2.353   0.902   3.385  0.8834 -1.6360 -1.1713
 6561TIP3    H219690   2.447   1.021   3.374  1.8314 -2.2680 -0.0362
 6562TIP3   OH219691   0.823   1.231   5.194 -0.2433 -0.0224 -0.0736
 6562TIP3    H119692   0.819   1.155   5.136  0.2671  0.2810 -0.5074
 6562TIP3    H219693   0.846   1.304   5.137  1.2388  0.1168  0.6474
 6563TIP3   OH219694   4.824   5.551   0.719  0.1689 -0.2387  0.9814
 6563TIP3    H119695   4.905   5.557   0.770  1.1228 -1.0474 -0.3637
 6563TIP3    H219696   4.761   5.605   0.767  2.0573  2.1142  0.9719
 6564TIP3   OH219697   0.009   1.587   3.443 -0.3542 -0.3279  0.7171
 6564TIP3    H119698   0.097   1.559   3.414 -1.3274  0.4338 -3.7798
 6564TIP3    H219699   0.026   1.653   3.510  2.5236 -0.2866  0.0977
 6565TIP3   OH219700   5.226   2.557   4.134  0.3395 -0.0197 -0.3051
 6565TIP3    H119701   5.302   2.563   4.077  0.6490  0.0965  0.1166
 6565TIP3    H219702   5.253   2.602   4.214 -0.4213  0.6845 -0.4251
 6566TIP3   OH219703   4.377   4.378   3.009  0.1364  0.0138 -0.3974
 6566TIP3    H119704   4.377   4.337   3.096  0.2891  1.1345  0.1434
 6566TIP3    H219705   4.289   4.364   2.976 -0.0198 -0.1253  0.0755
 6567TIP3   OH219706   2.713   2.218   2.422  0.4530  0.1030 -0.0755
 6567TIP3    H119707   2.719   2.212   2.517  0.8289 -0.0269 -0.1069
 6567TIP3    H219708   2.620   2.206   2.404  0.3296  0.4675  0.2973
 6568TIP3   OH219709   4.296   2.317   1.036  0.0007 -0.3988 -0.9526
 6568TIP3    H119710   4.317   2.410   1.027 -1.9886 -0.0400 -2.5508
 6568TIP3    H219711   4.327   2.294   1.124  1.8795  1.3586 -1.0712
 6569TIP3   OH219712   0.194   0.412   2.230 -0.0456 -0.1149 -0.0070
 6569TIP3    H119713   0.273   0.370   2.264 -0.3486  0.0112  0.8889
 6569TIP3    H219714   0.133   0.412   2.304 -0.8372 -0.0861 -0.6408
 6570TIP3   OH219715   1.038   0.100   1.697 -0.2415  0.1822 -0.4560
 6570TIP3    H119716   1.026   0.087   1.791  0.3433  0.4169 -0.3418
 6570TIP3    H219717   1.038   0.011   1.661 -1.5138  0.1384 -0.3771
 6571TIP3   OH219718   3.581   3.633   4.048  0.4874  0.4517 -0.6403
 6571TIP3    H119719   3.658   3.602   4.001 -0.4695  0.7794 -2.5213
 6571TIP3    H219720   3.517   3.653   3.980 -0.6713  1.8351  0.7624
 6572TIP3   OH219721   0.200   2.848   2.848  0.0964 -0.3059 -0.0566
 6572TIP3    H119722   0.226   2.937   2.874 -0.6547 -0.1461  0.1575
 6572TIP3    H219723   0.264   2.824   2.780 -0.8874  1.2036 -1.6124
 6573TIP3   OH219724   0.968   2.106   1.301 -0.3235  0.1910 -0.8927
 6573TIP3    H119725   0.969   2.141   1.390  1.1463  0.3701 -0.9539
 6573TIP3    H219726   0.962   2.011   1.312  1.9334  0.0374 -0.4814
 6574TIP3   OH219727   4.955   2.278   1.067 -0.2647 -0.1744  0.3611
 6574TIP3    H119728   4.891   2.208   1.053  0.2469 -0.4465 -0.7063
 6574TIP3    H219729   4.902   2.353   1.096 -1.2981  0.0290 -1.8185
 6575TIP3   OH219730   1.334   4.386   3.137  0.1708  0.6068 -0.2606
 6575TIP3    H119731   1.241   4.376   3.114  0.0446 -1.8393  0.9817
 6575TIP3    H219732   1.380   4.341   3.066  0.1470 -1.2798  0.8600
 6576TIP3   OH219733   6.150   4.070   4.910  0.7964 -0.1398 -0.3508
 6576TIP3    H119734   6.076   4.012   4.930  0.8728  0.1047  0.7039
 6576TIP3    H219735   6.186   4.093   4.996 -0.2635  2.8135 -0.5991
 6577TIP3   OH219736   4.374   0.547   2.378  0.2955 -0.2757  0.1553
 6577TIP3    H119737   4.445   0.601   2.345  0.4338 -0.5588 -0.0137
 6577TIP3    H219738   4.305   0.609   2.402 -0.2010 -0.1193 -1.5970
 6578TIP3   OH219739   3.663   4.190   2.958  0.1397 -0.1752  0.0168
 6578TIP3    H119740   3.602   4.155   2.893  0.2435 -1.3067  0.5127
 6578TIP3    H219741   3.720   4.247   2.907 -2.0029  1.8611 -0.2834
 6579TIP3   OH219742   2.878   2.442   1.373  0.6164  0.0580  0.6540
 6579TIP3    H119743   2.846   2.522   1.330  0.4777  0.3060  1.2052
 6579TIP3    H219744   2.806   2.380   1.366 -0.0748  0.6643  2.0222
 6580TIP3   OH219745   2.063   5.051   3.018  0.0949 -0.2596 -0.5208
 6580TIP3    H119746   2.129   5.081   3.081  0.8701 -0.3517 -1.2783
 6580TIP3    H219747   2.021   5.131   2.987 -1.0776 -0.2626  0.9147
 6581TIP3   OH219748   4.610   2.233   3.321 -0.0478 -0.5112 -0.0659
 6581TIP3    H119749   4.701   2.259   3.328 -0.4391  1.5633 -1.6009
 6581TIP3    H219750   4.585   2.255   3.231 -1.9814 -1.3397  0.1947
 6582TIP3   OH219751   1.960   5.824   0.644 -0.0795  0.2883 -0.6654
 6582TIP3    H119752   1.948   5.837   0.739 -0.8720  0.6618 -0.8041
 6582TIP3    H219753   1.918   5.901   0.605  0.7887  0.4481 -1.3051
 6583TIP3   OH219754   3.190   1.149   2.100  0.3401 -0.4659  0.0295
 6583TIP3    H119755   3.179   1.162   2.006  1.2081 -0.8649 -0.1386
 6583TIP3    H219756   3.113   1.190   2.140 -0.9517 -1.7892 -0.9606
 6584TIP3   OH219757   4.273   4.764   1.157  0.3529 -0.3591  0.3024
 6584TIP3    H119758   4.208   4.722   1.100  1.7724 -0.4043 -1.3737
 6584TIP3    H219759   4.324   4.691   1.193  0.8668 -0.2384 -0.1652
 6585TIP3   OH219760   4.703   3.786   3.047 -0.1394  0.3221 -0.1028
 6585TIP3    H119761   4.640   3.849   3.081 -0.3409 -0.3322  0.7927
 6585TIP3    H219762   4.707   3.718   3.114 -0.0128 -0.6736 -1.0846
 6586TIP3   OH219763   6.067   3.830   2.069 -0.2419  0.1418 -0.7655
 6586TIP3    H119764   6.053   3.908   2.016  0.6542 -0.6138 -2.1806
 6586TIP3    H219765   5.985   3.781   2.060 -0.6375  0.6869 -0.2372
 6587TIP3   OH219766   5.465   1.955   3.022  0.1545 -0.8191  0.3287
 6587TIP3    H119767   5.473   1.929   3.114  1.8913 -2.7073 -0.3000
 6587TIP3    H219768   5.542   1.918   2.980 -1.0589 -0.7531 -2.0850
 6588TIP3   OH219769   4.160   2.954   1.366  0.6780  0.4421  0.4260
 6588TIP3    H119770   4.080   2.902   1.371  0.8365  0.2384  0.9375
 6588TIP3    H219771   4.146   3.013   1.292  0.7580 -0.7532 -0.5689
 6589TIP3   OH219772   5.763   3.178   5.043 -0.4009 -0.4114 -0.0103
 6589TIP3    H119773   5.774   3.110   5.109  0.0990 -1.2499 -0.9178
 6589TIP3    H219774   5.716   3.248   5.087  0.0543 -0.8900  1.2578
 6590TIP3   OH219775   5.561   5.877   0.280 -0.4425 -0.2228 -0.3596
 6590TIP3    H119776   5.544   5.797   0.230  1.5540 -0.1351 -1.2714
 6590TIP3    H219777   5.647   5.907   0.250 -0.3001  1.2498  1.3226
 6591TIP3   OH219778   4.538   3.012   1.845  0.1042 -0.0574  0.2620
 6591TIP3    H119779   4.605   3.038   1.908 -1.9817 -0.1247  2.6545
 6591TIP3    H219780   4.480   2.955   1.894 -1.2405 -0.7403 -1.9792
 6592TIP3   OH219781   5.057   4.914   2.772  0.2080  0.2615 -0.4176
 6592TIP3    H119782   5.149   4.917   2.746  0.8316 -0.4224  1.4817
 6592TIP3    H219783   5.034   5.005   2.791  0.5574  0.4042 -0.6717
 6593TIP3   OH219784   4.977   4.545   1.920 -0.2125  0.2600  0.0398
 6593TIP3    H119785   4.923   4.594   1.857  0.9480 -1.1269 -2.1684
 6593TIP3    H219786   4.920   4.477   1.953 -0.1966 -0.5010 -1.4211
 6594TIP3   OH219787   3.105   5.370   4.825 -0.3651  0.9543 -0.0246
 6594TIP3    H119788   3.143   5.443   4.875  0.6164  0.6041 -0.2331
 6594TIP3    H219789   3.090   5.405   4.738  1.5060  0.5285 -0.5605
 6595TIP3   OH219790   5.243   1.130   4.924 -0.2031 -0.3171 -0.6217
 6595TIP3    H119791   5.304   1.201   4.908  1.4284 -1.6354 -0.5050
 6595TIP3    H219792   5.166   1.152   4.871  1.4626  0.0029 -3.0863
 6596TIP3   OH219793   4.825   0.881   4.837  0.0850 -0.0896  0.2749
 6596TIP3    H119794   4.811   0.948   4.903 -0.0859 -0.4446  0.6026
 6596TIP3    H219795   4.798   0.799   4.879  2.0825 -0.6450  0.5409
 6597TIP3   OH219796   4.376   1.010   3.540  0.1990 -0.2443 -0.1006
 6597TIP3    H119797   4.303   0.953   3.515 -0.3150 -0.0683  0.9000
 6597TIP3    H219798   4.353   1.040   3.629  0.5988  1.2700 -0.4716
 6598TIP3   OH219799   1.191   5.180   2.291  0.2995 -0.7504 -1.1226
 6598TIP3    H119800   1.280   5.157   2.318  0.9140  1.0511 -1.4455
 6598TIP3    H219801   1.204   5.248   2.225 -1.3171  0.3732 -0.3468
 6599TIP3   OH219802   0.202   5.369   4.573 -0.3916  0.2221  0.3249
 6599TIP3    H119803   0.266   5.301   4.553  1.0818  1.2660  1.3096
 6599TIP3    H219804   0.252   5.437   4.616 -1.8487  1.8984 -0.5002
 6600TIP3   OH219805   2.514   3.011   2.763  0.3025  0.8772  0.6419
 6600TIP3    H119806   2.529   3.104   2.750  2.3120  0.7157  1.5537
 6600TIP3    H219807   2.496   3.002   2.857  0.7720  0.2690  0.6776
 6601TIP3   OH219808   4.390   5.669   4.089  0.3786 -0.4109 -0.4150
 6601TIP3    H119809   4.417   5.699   4.176 -0.1468 -1.5981  0.1917
 6601TIP3    H219810   4.472   5.645   4.045  0.6807  0.5512 -0.4065
 6602TIP3   OH219811   5.420   1.385   4.408  0.0021 -0.0242 -0.1187
 6602TIP3    H119812   5.432   1.295   4.379  1.0216 -0.3127  1.0733
 6602TIP3    H219813   5.376   1.377   4.493  1.1758  0.5159  0.5607
 6603TIP3   OH219814   4.968   4.237   4.601  0.1402  0.1215  0.3983
 6603TIP3    H119815   4.968   4.290   4.681 -0.1569  0.3046  0.2782
 6603TIP3    H219816   5.003   4.152   4.628 -0.6812 -0.0669  0.8868
 6604TIP3   OH219817   6.118   2.487   0.708  0.5411  0.7645 -0.1836
 6604TIP3    H119818   6.161   2.554   0.656 -0.6522  0.7750 -1.2050
 6604TIP3    H219819   6.147   2.503   0.798  2.0184  1.2368 -0.7141
 6605TIP3   OH219820   2.194   5.969   2.699  0.3314 -0.2328 -0.3260
 6605TIP3    H119821   2.184   6.062   2.716  1.3626 -0.0477 -0.6465
 6605TIP3    H219822   2.254   5.938   2.767 -0.5554 -0.8110  0.2013
 6606TIP3   OH219823   4.732   0.637   0.150 -0.0758 -0.0466  0.0972
 6606TIP3    H119824   4.641   0.615   0.170 -0.4954  0.4183 -1.1531
 6606TIP3    H219825   4.784   0.578   0.204 -1.0974  0.5674  1.7985
 6607TIP3   OH219826   5.369   3.857   0.469 -0.4292  0.9867 -0.3506
 6607TIP3    H119827   5.395   3.858   0.376 -0.5572  0.8154 -0.3897
 6607TIP3    H219828   5.444   3.894   0.515  0.4488 -0.6928 -0.3319
 6608TIP3   OH219829   2.864   1.961   2.058 -0.0053  0.2867  0.0734
 6608TIP3    H119830   2.872   2.054   2.081 -0.7103  0.0512  1.3359
 6608TIP3    H219831   2.817   1.962   1.974  1.1322  1.1022 -0.5919
 6609TIP3   OH219832   0.190   1.018   4.564  0.1605  0.1726 -0.2961
 6609TIP3    H119833   0.270   1.071   4.565  0.2799 -0.0126  0.0080
 6609TIP3    H219834   0.154   1.027   4.653 -0.0442  0.0849 -0.3699
 6610TIP3   OH219835   1.955   5.483   4.972 -0.9472 -0.1812  0.4406
 6610TIP3    H119836   2.033   5.434   4.997 -0.0684  0.4556 -0.9455
 6610TIP3    H219837   1.974   5.516   4.884 -2.4684  0.6410  0.3836
 6611TIP3   OH219838   2.980   0.425   0.102 -0.0776  0.1527 -0.4105
 6611TIP3    H119839   3.012   0.486   0.169  2.6257 -0.9682 -0.5679
 6611TIP3    H219840   2.978   0.476   0.021  2.8884 -0.0531 -0.6974
 6612TIP3   OH219841   0.921   3.932   1.133 -0.1478  0.1277 -0.3234
 6612TIP3    H119842   0.924   3.837   1.145 -5.2554 -0.4595 -1.2368
 6612TIP3    H219843   0.930   3.968   1.221  2.0317 -1.1196  0.0174
 6613TIP3   OH219844   6.124   0.814   2.920 -0.1360 -0.0102 -0.1567
 6613TIP3    H119845   6.155   0.820   2.829  0.6574 -1.7450 -0.0439
 6613TIP3    H219846   6.033   0.786   2.912  0.1582 -0.9236 -0.4219
 6614TIP3   OH219847   5.098   5.291   2.461 -0.3438 -0.1051  0.3399
 6614TIP3    H119848   5.148   5.209   2.456  0.3792  0.3776 -0.6035
 6614TIP3    H219849   5.016   5.271   2.417  0.0967 -0.1455 -0.4876
 6615TIP3   OH219850   2.640   0.436   1.524  0.3879  0.5223  0.1963
 6615TIP3    H119851   2.716   0.385   1.552 -0.9415 -1.1563  0.8789
 6615TIP3    H219852   2.649   0.441   1.429  1.4350  0.5011  0.2790
 6616TIP3   OH219853   2.046   3.510   3.043 -0.6554  0.0542  0.1330
 6616TIP3    H119854   2.002   3.586   3.006 -1.7359 -0.6312 -0.0179
 6616TIP3    H219855   1.986   3.437   3.028  0.4264 -0.8638  0.1477
 6617TIP3   OH219856   5.799   5.028   3.311 -0.0543  0.6261 -0.0154
 6617TIP3    H119857   5.881   4.980   3.299 -0.4571  0.1257 -0.7848
 6617TIP3    H219858   5.822   5.119   3.292  0.2432  0.4356 -0.5880
 6618TIP3   OH219859   5.227   1.596   1.193  0.1469  0.5175 -0.3896
 6618TIP3    H119860   5.286   1.655   1.147  1.1864  0.7766  1.1982
 6618TIP3    H219861   5.184   1.652   1.258  1.2291 -0.4352  1.2160
 6619TIP3   OH219862   0.048   5.245   0.038  0.2708 -0.0386 -0.0555
 6619TIP3    H119863   0.031   5.305   0.111  0.4315 -0.9178  0.7315
 6619TIP3    H219864  -0.018   5.268  -0.027  1.3938  2.1336 -0.5235
 6620TIP3   OH219865   0.364   4.853   4.454  1.0057  0.7410 -0.5809
 6620TIP3    H119866   0.301   4.785   4.476  0.9627  1.2293  0.9245
 6620TIP3    H219867   0.392   4.888   4.539  3.0421  0.7737 -1.2043
 6621TIP3   OH219868   2.220   2.918   3.415 -0.1759 -0.5080 -0.1432
 6621TIP3    H119869   2.172   2.953   3.490 -1.2588 -0.1000 -1.0045
 6621TIP3    H219870   2.267   2.993   3.379 -1.1534 -0.2670 -0.9745
 6622TIP3   OH219871   4.472   0.485   2.650 -0.2387  0.4143 -0.5782
 6622TIP3    H119872   4.421   0.499   2.570  0.6404  0.8962 -1.0602
 6622TIP3    H219873   4.563   0.491   2.622  0.1853 -2.6174 -0.1335
 6623TIP3   OH219874   5.081   2.618   2.960  0.1515  0.1641 -0.4633
 6623TIP3    H119875   5.046   2.541   2.915  0.6897 -1.2059  1.3416
 6623TIP3    H219876   5.176   2.610   2.951  0.2177  0.5139 -0.1254
 6624TIP3   OH219877   1.051   1.411   1.246 -0.1697 -0.5876  0.5660
 6624TIP3    H119878   1.084   1.362   1.171 -0.3882  0.9664 -0.5914
 6624TIP3    H219879   1.056   1.502   1.219 -0.6953 -0.0124  2.2828
 6625TIP3   OH219880   6.209   4.365   0.639 -0.0022  0.2278 -0.2888
 6625TIP3    H119881   6.229   4.381   0.547 -0.7789 -1.6244 -0.8252
 6625TIP3    H219882   6.189   4.271   0.644  0.5447  0.1546  1.8726
 6626TIP3   OH219883   6.310   3.219   5.088  0.7097 -0.3143 -0.6477
 6626TIP3    H119884   6.322   3.309   5.119 -0.9197 -1.0382  2.5390
 6626TIP3    H219885   6.398   3.183   5.083  1.2409  0.6697  0.8215
 6627TIP3   OH219886   4.949   2.545   4.557  0.1653  0.1353 -0.0461
 6627TIP3    H119887   5.007   2.488   4.507  1.2347  0.6817  0.5468
 6627TIP3    H219888   4.937   2.501   4.641 -1.2575 -0.5559 -0.5823
 6628TIP3   OH219889   5.822   3.554   2.025  0.3253  0.0658 -0.4883
 6628TIP3    H119890   5.847   3.478   2.077  0.8386  0.3268 -0.3581
 6628TIP3    H219891   5.829   3.628   2.085  1.2492  0.4152 -1.0157
 6629TIP3   OH219892   5.667   0.364   2.085 -0.1673 -0.0910 -0.1765
 6629TIP3    H119893   5.745   0.372   2.030  0.9128  1.4741  1.5021
 6629TIP3    H219894   5.619   0.446   2.072 -0.9407 -0.5391 -0.2661
 6630TIP3   OH219895   1.412   2.431   3.864  0.4701  0.0465  0.1615
 6630TIP3    H119896   1.472   2.396   3.798  1.3653  0.5880  0.6676
 6630TIP3    H219897   1.406   2.363   3.930  0.3627 -0.0893  0.0131
 6631TIP3   OH219898   5.187   0.623   0.849 -0.2324  0.1957  0.2565
 6631TIP3    H119899   5.115   0.641   0.909 -0.2018  1.1472  0.0147
 6631TIP3    H219900   5.242   0.559   0.896 -0.0691  1.1148  1.3484
 6632TIP3   OH219901   2.285   5.300   0.572 -0.5121 -0.2362  0.3044
 6632TIP3    H119902   2.249   5.371   0.518  0.5077  0.7489  0.8848
 6632TIP3    H219903   2.339   5.249   0.511  0.5950  0.8432  0.3479
 6633TIP3   OH219904   4.225   5.898   0.174  0.8090  0.0677  0.0706
 6633TIP3    H119905   4.221   5.814   0.220 -0.8790  0.3834  0.5927
 6633TIP3    H219906   4.136   5.912   0.143  1.3663  1.0549 -1.1578
 6634TIP3   OH219907   2.925   2.854   2.888 -0.1629  0.2836 -0.0286
 6634TIP3    H119908   2.856   2.789   2.881 -0.9162  0.7580  2.0911
 6634TIP3    H219909   2.977   2.825   2.963 -0.3742  1.9229  0.8045
 6635TIP3   OH219910   5.292   2.165   1.140 -0.5014  0.3574  0.3918
 6635TIP3    H119911   5.234   2.156   1.065 -1.0231  0.7080  0.7433
 6635TIP3    H219912   5.236   2.198   1.210  0.4225  2.0911  0.3502
 6636TIP3   OH219913   2.434   4.011   0.690 -0.5695 -0.8864 -0.4188
 6636TIP3    H119914   2.369   3.947   0.662 -2.1534  0.4957 -0.0469
 6636TIP3    H219915   2.462   4.053   0.608 -0.8059 -0.8722 -0.4935
 6637TIP3   OH219916   0.431   2.435   4.486 -0.1310  0.4661 -0.0377
 6637TIP3    H119917   0.388   2.358   4.449 -1.0947  1.9965 -2.3373
 6637TIP3    H219918   0.369   2.467   4.552 -0.3182  0.0155  0.0132
 6638TIP3   OH219919   6.166   3.790   0.886  0.1442 -0.0673 -0.5782
 6638TIP3    H119920   6.228   3.788   0.959 -1.4448  2.8649  1.0420
 6638TIP3    H219921   6.080   3.801   0.928 -1.1058 -0.5409 -2.8515
 6639TIP3   OH219922   3.308   5.402   1.022  0.6820  0.7271  0.3315
 6639TIP3    H119923   3.274   5.350   0.949  1.7006  0.9111 -0.2969
 6639TIP3    H219924   3.255   5.375   1.097 -1.2235  1.4195 -0.6873
 6640TIP3   OH219925   4.717   4.029   1.836 -0.3950 -0.1836  0.6733
 6640TIP3    H119926   4.745   4.032   1.745 -0.2580 -0.3457  0.7111
 6640TIP3    H219927   4.798   4.018   1.887 -0.5354 -0.7723  0.7728
 6641TIP3   OH219928   6.268   3.793   4.442  0.1779 -0.3865  0.2549
 6641TIP3    H119929   6.307   3.728   4.500 -0.9113 -1.8376 -0.5521
 6641TIP3    H219930   6.275   3.755   4.355 -1.2773  0.1562 -0.1382
 6642TIP3   OH219931   3.827   0.392   4.508 -0.4883  0.4894  0.3052
 6642TIP3    H119932   3.752   0.439   4.545  0.6596  1.7433  1.1738
 6642TIP3    H219933   3.850   0.328   4.575 -1.3934 -0.6218 -0.4146
 6643TIP3   OH219934   0.763   4.331   4.139 -0.8049  0.1808  0.3718
 6643TIP3    H119935   0.829   4.273   4.101 -1.3738 -0.6048  0.5498
 6643TIP3    H219936   0.688   4.274   4.155 -2.2327  1.4285 -1.5660
 6644TIP3   OH219937   1.902   5.164   1.564  0.5458  0.1407 -0.1711
 6644TIP3    H119938   1.990   5.202   1.562 -0.6430  3.2168 -0.6200
 6644TIP3    H219939   1.888   5.130   1.476  0.4717  1.8765 -0.8668
 6645TIP3   OH219940   5.455   5.674   4.321  0.2208  0.0123  0.3803
 6645TIP3    H119941   5.413   5.727   4.388 -0.9022  0.7391 -0.8588
 6645TIP3    H219942   5.406   5.693   4.241  0.7686 -1.7331 -0.4123
   6.35543   5.99196   5.18919   0.00000   0.00000  -2.11848   0.00000  -2.11848  -2.99598
