Title
19942
    1ASP      N    1   4.105   3.365   4.950  0.2040  0.1434 -0.2506
    1ASP    HT1    2   4.134   3.337   5.046  0.5045  0.0015 -0.3806
    1ASP    HT2    3   4.013   3.414   4.953 -0.5713 -1.2557  2.0896
    1ASP    HT3    4   4.177   3.430   4.913  0.7916 -0.4104 -0.0907
    1ASP     CA    5   4.110   3.242   4.867  0.3032  0.1731  0.2273
    1ASP     HA    6   4.211   3.207   4.851  0.0450 -0.3948 -0.1936
    1ASP     CB    7   4.023   3.122   4.933 -0.7300 -0.0409 -0.2443
    1ASP    HB1    8   4.015   3.029   4.872 -2.0428  1.6719 -2.8685
    1ASP    HB2    9   3.925   3.170   4.957 -1.1476  0.3876 -2.6109
    1ASP     CG   10   4.076   3.088   5.070 -0.0648 -0.1638  0.0401
    1ASP    OD1   11   4.148   3.172   5.132  0.3714  0.6120 -0.4853
    1ASP    OD2   12   4.043   2.986   5.134 -0.0322 -0.7497  0.3257
    1ASP      C   13   4.053   3.274   4.727 -1.8260  0.5514 -0.3065
    1ASP      O   14   3.999   3.378   4.694  0.1558 -0.1710 -0.0696
    2ALA      N   15   4.070   3.175   4.632 -0.9462 -0.3336  0.1896
    2ALA     HN   16   4.128   3.098   4.654 -1.9974 -0.9772  0.7777
    2ALA     CA   17   3.995   3.159   4.511 -0.4700 -0.5253  0.4186
    2ALA     HA   18   3.986   3.260   4.472  1.2151  0.3177  2.0527
    2ALA     CB   19   4.079   3.066   4.418 -0.1127 -0.2907  0.3371
    2ALA    HB1   20   4.029   3.056   4.319 -0.2180  0.5923  0.2933
    2ALA    HB2   21   4.091   2.964   4.462  1.0715 -0.5238 -0.4901
    2ALA    HB3   22   4.177   3.109   4.392 -0.3971 -0.8084 -1.7780
    2ALA      C   23   3.853   3.107   4.525  0.0187 -0.4043  0.1833
    2ALA      O   24   3.817   3.049   4.626 -0.4001  0.3203  0.1229
    3ASP      N   25   3.769   3.129   4.422 -0.7970  0.0952  0.5570
    3ASP     HN   26   3.800   3.182   4.344  0.7869 -3.0243 -1.1250
    3ASP     CA   27   3.631   3.088   4.415 -0.9410  0.3102  0.2015
    3ASP     HA   28   3.602   3.104   4.517 -1.2090 -0.5025  0.2599
    3ASP     CB   29   3.561   3.177   4.317 -0.1751  0.1683 -0.2716
    3ASP    HB1   30   3.451   3.166   4.316 -0.1433 -0.3927  0.6837
    3ASP    HB2   31   3.606   3.182   4.216  1.0577  0.9825  0.2922
    3ASP     CG   32   3.580   3.323   4.368  0.1204 -0.0502  0.7831
    3ASP    OD1   33   3.539   3.358   4.482  0.0351  0.1150  0.0634
    3ASP    OD2   34   3.631   3.409   4.296 -0.2050 -0.3295  1.1673
    3ASP      C   35   3.610   2.939   4.380 -0.2505  0.1169 -0.3405
    3ASP      O   36   3.659   2.885   4.279  0.9104 -0.0958  0.4735
    4GLY      N   37   3.538   2.867   4.465  0.0379 -0.5763  0.2841
    4GLY     HN   38   3.503   2.914   4.546 -0.3773 -0.7859  0.2333
    4GLY     CA   39   3.509   2.727   4.462  0.6213 -0.3793 -0.1627
    4GLY    HA1   40   3.427   2.716   4.531 -0.7716  0.6552 -1.5670
    4GLY    HA2   41   3.609   2.687   4.472  1.6263  1.9053 -0.3117
    4GLY      C   42   3.442   2.675   4.337 -0.5890 -0.2190  0.5459
    4GLY      O   43   3.393   2.753   4.254 -0.4102 -0.1764 -0.4757
    5PRO      N   44   3.439   2.542   4.326  0.1218 -0.5673  0.3884
    5PRO     CD   45   3.522   2.448   4.412  0.3614  0.1289 -0.0027
    5PRO    HD1   46   3.507   2.468   4.520 -0.2369 -0.5598  0.0502
    5PRO    HD2   47   3.630   2.457   4.389  0.1748  1.6446 -0.4008
    5PRO     CA   48   3.347   2.471   4.240 -0.3533  0.0895  0.4014
    5PRO     HA   49   3.391   2.470   4.142  1.8994 -1.2210  1.3298
    5PRO     CB   50   3.338   2.327   4.316  0.3798 -0.2239 -0.2217
    5PRO    HB1   51   3.319   2.249   4.240 -1.3658 -0.1441  0.0849
    5PRO    HB2   52   3.275   2.330   4.408  2.5401  1.0995  1.3207
    5PRO     CG   53   3.477   2.310   4.375 -0.4741  0.3218 -0.4406
    5PRO    HG1   54   3.473   2.248   4.468 -0.8375  1.5956  0.4240
    5PRO    HG2   55   3.547   2.259   4.305 -0.9681 -0.2505 -0.5175
    5PRO      C   56   3.210   2.529   4.239  0.6315  0.1666  0.5582
    5PRO      O   57   3.152   2.550   4.348 -0.0846  0.6055  0.1135
    6GLY      N   58   3.149   2.534   4.116 -0.2173 -0.6465 -0.1588
    6GLY     HN   59   3.199   2.506   4.035  2.6967 -0.1391  1.3472
    6GLY     CA   60   3.011   2.576   4.095  0.6032  1.0870  0.5969
    6GLY    HA1   61   2.984   2.565   3.991  0.1122 -0.2796  0.8385
    6GLY    HA2   62   2.983   2.676   4.125 -0.4395  0.9040  0.2753
    6GLY      C   63   2.914   2.484   4.171  0.1463 -0.3652 -0.0628
    6GLY      O   64   2.947   2.367   4.201 -0.9457 -0.3992  0.7593
    7ASP      N   65   2.794   2.535   4.207  0.0718  0.2777 -0.6848
    7ASP     HN   66   2.763   2.628   4.186 -0.8872  0.1180 -0.0143
    7ASP     CA   67   2.711   2.450   4.288 -0.2460 -0.0048  0.5927
    7ASP     HA   68   2.770   2.416   4.372  0.6443 -2.1513 -0.8285
    7ASP     CB   69   2.572   2.514   4.352  0.1383 -0.0856 -0.0876
    7ASP    HB1   70   2.537   2.447   4.433 -1.6494 -0.2771 -0.9689
    7ASP    HB2   71   2.491   2.540   4.280  0.0532  0.7714  0.3061
    7ASP     CG   72   2.602   2.641   4.428 -0.2219 -0.1041  0.3145
    7ASP    OD1   73   2.522   2.737   4.425 -0.1217  0.5489 -0.2878
    7ASP    OD2   74   2.700   2.646   4.507  0.1150  0.0015 -0.3511
    7ASP      C   75   2.670   2.327   4.212  0.1389  0.0113 -0.0765
    7ASP      O   76   2.642   2.339   4.093 -0.3504 -0.1667 -0.0578
    8PRO      N   77   2.671   2.201   4.271 -0.1361  0.6173  0.1350
    8PRO     CD   78   2.743   2.166   4.392 -0.3302 -0.3165 -0.3020
    8PRO    HD1   79   2.706   2.228   4.476 -0.0784 -1.0252  0.3374
    8PRO    HD2   80   2.848   2.199   4.384  0.2614 -1.5897  1.6832
    8PRO     CA   81   2.591   2.085   4.223  0.2966  0.3687 -0.7873
    8PRO     HA   82   2.650   2.042   4.143  0.6649 -1.7481  0.5647
    8PRO     CB   83   2.577   2.000   4.344  0.9671  0.5378  0.2300
    8PRO    HB1   84   2.581   1.895   4.307  0.3130  0.5468  0.1261
    8PRO    HB2   85   2.489   2.021   4.408  1.1944 -0.7651  1.0100
    8PRO     CG   86   2.712   2.025   4.418 -0.0103 -0.3080  0.4256
    8PRO    HG1   87   2.722   1.989   4.523 -0.5347 -1.0267  0.2346
    8PRO    HG2   88   2.790   1.967   4.364 -1.4751 -2.6893  0.7200
    8PRO      C   89   2.456   2.115   4.160  0.0477 -0.0005 -0.3705
    8PRO      O   90   2.372   2.183   4.217  0.0699 -0.0292  0.6742
    9ASP      N   91   2.433   2.070   4.042  0.1963  0.6216  0.8146
    9ASP     HN   92   2.504   2.019   3.995 -0.4732  0.3536  0.0663
    9ASP     CA   93   2.316   2.106   3.965 -0.4755 -0.0775 -0.4590
    9ASP     HA   94   2.254   2.177   4.016  2.9318  1.1436  2.4479
    9ASP     CB   95   2.373   2.179   3.840 -0.3896 -0.5615 -0.0728
    9ASP    HB1   96   2.419   2.105   3.771  1.9479 -0.2083  0.9848
    9ASP    HB2   97   2.445   2.259   3.867 -0.2512 -1.0185  0.9541
    9ASP     CG   98   2.271   2.258   3.759  0.6770 -0.5201 -0.7450
    9ASP    OD1   99   2.151   2.240   3.777 -0.0108 -0.0025 -0.6063
    9ASP    OD2  100   2.307   2.343   3.674  0.0842 -0.1593 -0.0936
    9ASP      C  101   2.228   1.988   3.934 -0.2935  0.1192 -0.0522
    9ASP      O  102   2.276   1.874   3.935 -0.0976  0.4309 -0.1197
   10ALA      N  103   2.098   2.014   3.923 -0.0458  0.5076  0.3817
   10ALA     HN  104   2.061   2.106   3.931  0.7281  0.9092 -0.4656
   10ALA     CA  105   1.992   1.907   3.897 -0.2598  0.0838  0.5844
   10ALA     HA  106   2.039   1.811   3.913  2.4627  1.0904 -0.6719
   10ALA     CB  107   1.884   1.931   4.004  0.5178  0.2889 -0.3355
   10ALA    HB1  108   1.929   1.926   4.105 -0.4057  1.7221  0.1616
   10ALA    HB2  109   1.798   1.861   3.990 -0.0305  1.0848 -1.0532
   10ALA    HB3  110   1.840   2.032   3.992  0.8301  0.2999 -1.4754
   10ALA      C  111   1.941   1.920   3.753 -0.7791  0.5594  0.1521
   10ALA      O  112   1.854   1.849   3.701 -0.2757 -0.2352  0.7358
   11GLY      N  113   1.995   2.014   3.675 -1.0059  0.0212  1.0723
   11GLY     HN  114   2.059   2.084   3.706  0.6059 -0.0416 -1.7464
   11GLY     CA  115   1.963   2.033   3.533 -0.5367 -0.3603 -0.2746
   11GLY    HA1  116   1.855   2.027   3.524 -0.5078 -0.7902 -0.3504
   11GLY    HA2  117   2.022   1.967   3.471 -1.3105 -1.0283 -0.3192
   11GLY      C  118   2.000   2.177   3.505 -0.5552 -0.0343  0.4367
   11GLY    OT1  119   2.111   2.211   3.465 -0.1404  0.1025 -0.0496
   11GLY    OT2  120   1.926   2.266   3.554  0.1154 -0.0780  0.2565
   12LIT    LIT  121   2.660   2.834   4.543  0.1169 -0.1957  1.3604
   13LIT    LIT  122   6.203   5.750   2.259  0.6199  0.7582  0.6958
   14LIT    LIT  123   5.451   3.569   4.422 -0.6068 -0.7513 -0.9726
   15LIT    LIT  124   2.023   0.058   4.051 -0.3554  0.1100  0.2353
   16LIT    LIT  125   0.505   3.719   4.791  0.4118  0.5845 -0.2245
   17LIT    LIT  126   2.802   4.828   3.074 -0.1373  0.2327 -0.1334
   18LIT    LIT  127   1.010   5.973   1.992  0.7832 -0.3526  0.3895
   19LIT    LIT  128   5.855   5.521   0.576 -0.0489  0.0734 -0.0014
   20LIT    LIT  129   5.794   0.719   1.269 -0.0637  0.0701  0.9119
   21LIT    LIT  130   3.268   5.260   0.381  0.4122  0.9997 -0.4231
   22LIT    LIT  131   5.681   0.779   3.573 -0.1135 -0.0006 -0.1486
   23LIT    LIT  132   1.536   2.789   3.096  1.0398 -0.1297 -0.0215
   24LIT    LIT  133   3.997   5.159   2.492 -0.5276 -0.8997  0.5657
   25LIT    LIT  134   2.447   4.039   1.453 -0.5278  0.8849 -0.2473
   26LIT    LIT  135   0.628   1.156   0.999  0.0641 -0.2335 -0.4293
   27LIT    LIT  136   2.061   0.039   0.088  0.1865 -1.0752  0.1977
   28LIT    LIT  137   2.631   2.874   1.835 -0.0144 -0.2092 -0.2472
   29LIT    LIT  138   2.187   1.073   3.078 -0.3146  0.3852 -0.9066
   30LIT    LIT  139   4.630   0.707   2.371  0.3996  0.1094  1.0433
   31LIT    LIT  140   5.472   1.564   4.396  0.1184 -0.1521 -0.1695
   32LIT    LIT  141   2.134   2.339   3.605  0.6274 -0.7046 -0.0775
   33LIT    LIT  142   3.287   2.196   1.100  0.7878  0.0703  0.3467
   34CLA    CLA  143   2.409   0.189   2.836  0.6294 -0.0273  0.2652
   35CLA    CLA  144   4.737   5.792   3.453 -0.2533 -0.5422 -0.7838
   36CLA    CLA  145   1.479   3.229   1.787 -0.3984  0.1152  0.0669
   37CLA    CLA  146   4.109   0.627   3.377  0.1226  0.3610 -0.2185
   38CLA    CLA  147   3.956   2.302   2.070  0.3349  0.2088  0.3062
   39CLA    CLA  148   5.847   3.505   4.957  0.2891 -0.0057  0.0642
   40CLA    CLA  149   3.942   2.275   1.172  0.0554 -0.0583  0.0586
   41CLA    CLA  150   5.728   5.441   1.723 -0.5989 -0.0973 -0.6477
   42CLA    CLA  151   3.164   0.981   4.405  0.3385 -0.0071  0.1197
   43CLA    CLA  152   0.846   0.333   0.353  0.2604  0.0151  0.1878
   44CLA    CLA  153   4.222   4.576   2.665  0.2192 -0.4378  0.0732
   45CLA    CLA  154   1.742   5.683   2.718 -0.0210  0.0838  0.0147
   46CLA    CLA  155   1.293   0.867   4.407 -0.0807  0.4230 -0.0831
   47CLA    CLA  156   1.470   1.566   4.310 -0.1581 -0.1302  0.0853
   48CLA    CLA  157   4.600   2.207   3.593  0.0579  0.0484 -0.0126
   49CLA    CLA  158   1.995   5.171   0.076 -0.1180 -0.1305  0.1594
   50CLA    CLA  159   4.044   5.914   0.695 -0.2030  0.0862  0.0857
   51CLA    CLA  160   5.700   3.143   3.810  0.1663 -0.0306  0.0493
   52TIP3   OH2  161   4.629   1.093   2.593 -0.7583  0.3644  0.0519
   52TIP3    H1  162   4.721   1.070   2.603 -0.9373 -0.8712 -0.9547
   52TIP3    H2  163   4.619   1.173   2.645  1.0643  1.0159 -0.5299
   53TIP3   OH2  164   1.274   3.427   2.594  0.5892  0.1244 -0.2225
   53TIP3    H1  165   1.294   3.412   2.686 -0.2811 -1.6335 -0.2851
   53TIP3    H2  166   1.179   3.436   2.591  0.6193  0.2974 -0.9443
   54TIP3   OH2  167   3.739   1.495   4.811 -0.1207 -0.0627 -0.0224
   54TIP3    H1  168   3.764   1.562   4.875 -0.0383 -0.1118 -0.0027
   54TIP3    H2  169   3.794   1.420   4.833 -1.2562 -0.6574  0.9191
   55TIP3   OH2  170   4.806   2.441   1.511 -0.4150 -0.3101 -0.3284
   55TIP3    H1  171   4.892   2.428   1.470  0.0774 -2.6667  1.2231
   55TIP3    H2  172   4.745   2.399   1.451  0.0558 -2.0220  0.3276
   56TIP3   OH2  173   1.762   4.458   4.474 -0.0881  0.3517 -0.1293
   56TIP3    H1  174   1.832   4.513   4.508 -0.4982  0.6456  0.2586
   56TIP3    H2  175   1.767   4.377   4.525  0.6052 -0.0386 -0.7968
   57TIP3   OH2  176   2.983   5.000   4.809 -0.0703 -0.4220  0.2244
   57TIP3    H1  177   3.014   4.910   4.804 -1.0152 -0.7467 -0.1411
   57TIP3    H2  178   2.997   5.036   4.721  0.1640 -0.2691  0.3259
   58TIP3   OH2  179   2.010   2.199   5.107  0.1377 -0.1418  0.2991
   58TIP3    H1  180   2.000   2.295   5.109  0.4670  0.0075 -2.2201
   58TIP3    H2  181   2.034   2.179   5.016  0.8371 -2.5648  0.9388
   59TIP3   OH2  182   1.975   4.233   1.595 -0.4469 -0.2346  0.0536
   59TIP3    H1  183   1.980   4.138   1.588 -2.5551 -0.2913 -1.6231
   59TIP3    H2  184   1.882   4.253   1.593 -0.0544  1.9060  0.0690
   60TIP3   OH2  185   3.235   1.659   5.109 -0.2344  0.0804  0.3908
   60TIP3    H1  186   3.147   1.647   5.147 -0.2491 -0.0031  0.3318
   60TIP3    H2  187   3.274   1.571   5.111  0.3848  0.3607  1.7198
   61TIP3   OH2  188   4.870   1.266   3.342  0.2547  0.0867 -0.3709
   61TIP3    H1  189   4.835   1.311   3.265 -1.4984 -0.2334  0.1812
   61TIP3    H2  190   4.874   1.334   3.409  0.4794  0.0657 -0.3620
   62TIP3   OH2  191   5.146   0.285   1.798 -0.7678  0.1671  0.3313
   62TIP3    H1  192   5.117   0.253   1.713  1.7901  1.2529 -1.0643
   62TIP3    H2  193   5.075   0.341   1.828 -0.7355  1.8611 -2.3752
   63TIP3   OH2  194   6.140   5.071   3.851 -0.3435  0.0549  0.2841
   63TIP3    H1  195   6.068   5.015   3.880 -0.3250 -1.2201 -1.8795
   63TIP3    H2  196   6.105   5.118   3.776  0.6800  0.3801 -0.0085
   64TIP3   OH2  197   3.799   1.605   2.050 -0.8913  0.2967 -0.3771
   64TIP3    H1  198   3.841   1.626   2.134  1.1226  0.2656 -1.3271
   64TIP3    H2  199   3.723   1.553   2.074 -0.9654  1.1766  1.4960
   65TIP3   OH2  200   2.308   2.380   2.928  0.5059  0.1200  0.0920
   65TIP3    H1  201   2.226   2.345   2.892  2.2781 -3.2464 -1.1434
   65TIP3    H2  202   2.349   2.423   2.853  0.3795  0.8639  0.4405
   66TIP3   OH2  203   4.084   0.087   1.795 -0.1697  0.6894  0.2707
   66TIP3    H1  204   4.079   0.179   1.770  0.3865  0.7063  0.2076
   66TIP3    H2  205   4.143   0.086   1.870 -1.5723  0.6024  1.4165
   67TIP3   OH2  206   4.417   4.706   1.184  0.0313 -0.2726 -0.3158
   67TIP3    H1  207   4.428   4.643   1.255  0.5421 -0.7480 -0.8046
   67TIP3    H2  208   4.326   4.736   1.191 -0.0478 -0.6422  0.2594
   68TIP3   OH2  209   2.916   2.528   4.894 -0.0035  0.1608 -0.3647
   68TIP3    H1  210   2.939   2.558   4.806 -2.5492 -1.4427 -1.6927
   68TIP3    H2  211   2.858   2.595   4.929  0.1199  0.2643 -0.3588
   69TIP3   OH2  212   1.387   2.058   1.057 -0.2400 -0.5002 -0.5468
   69TIP3    H1  213   1.477   2.028   1.048 -0.4466 -1.1166 -0.5735
   69TIP3    H2  214   1.360   2.029   1.144 -0.6300 -0.9122 -0.7989
   70TIP3   OH2  215   1.587   1.200   2.131  0.2431  0.4773  0.0008
   70TIP3    H1  216   1.648   1.254   2.080  0.2189 -0.9914 -1.6565
   70TIP3    H2  217   1.628   1.194   2.218  0.4418  2.7748  0.1188
   71TIP3   OH2  218   0.646   2.270   3.681 -0.4981  0.9144 -0.5422
   71TIP3    H1  219   0.550   2.260   3.682 -0.6695  0.9584  4.1328
   71TIP3    H2  220   0.660   2.364   3.683 -0.4169  0.8919  0.0471
   72TIP3   OH2  221   6.052   1.948   0.452  0.0010  0.3556  0.4612
   72TIP3    H1  222   5.997   2.013   0.409 -0.2027 -0.2113 -0.1493
   72TIP3    H2  223   6.022   1.948   0.543  0.4846  1.6111  0.6551
   73TIP3   OH2  224   0.828   2.638   4.667 -0.2069 -0.3587  0.2282
   73TIP3    H1  225   0.823   2.544   4.689  0.2985 -0.6436 -0.8142
   73TIP3    H2  226   0.742   2.659   4.633  0.3054 -1.0195 -1.6161
   74TIP3   OH2  227   3.254   4.519   3.625 -0.0426  0.4533 -0.1263
   74TIP3    H1  228   3.320   4.453   3.649 -1.5697 -1.1797 -0.2458
   74TIP3    H2  229   3.210   4.541   3.707  0.9338  1.9356  0.0424
   75TIP3   OH2  230   3.854   5.855  -0.011 -0.3238  0.0286 -0.2594
   75TIP3    H1  231   3.779   5.911   0.009 -1.0410 -1.1128  0.3673
   75TIP3    H2  232   3.880   5.819   0.073  0.4620 -0.1561 -0.5781
   76TIP3   OH2  233   5.404   0.433   3.217  0.2775 -0.0682 -0.8637
   76TIP3    H1  234   5.403   0.338   3.233  0.6304  0.0432 -0.1202
   76TIP3    H2  235   5.312   0.459   3.221  0.2448 -0.2569 -0.2300
   77TIP3   OH2  236   1.042   4.355   2.826 -0.4518  0.2660 -0.2747
   77TIP3    H1  237   0.970   4.302   2.861 -1.6959  2.1434  0.1382
   77TIP3    H2  238   1.113   4.345   2.890 -1.0804  0.0112  0.3845
   78TIP3   OH2  239   5.661   4.814   3.793 -0.3634 -0.2556 -0.6747
   78TIP3    H1  240   5.730   4.822   3.728  0.7063  1.1450  0.5589
   78TIP3    H2  241   5.598   4.881   3.770  0.9491  1.5821  0.7218
   79TIP3   OH2  242   0.417   5.023   4.650 -0.0681  0.1184  0.5521
   79TIP3    H1  243   0.346   4.959   4.652  0.1555 -0.2629 -1.4878
   79TIP3    H2  244   0.451   5.018   4.561  1.9033  0.9864  1.2086
   80TIP3   OH2  245   1.073   1.142   1.448  0.5469  0.4560 -0.7640
   80TIP3    H1  246   0.982   1.114   1.441  0.4609 -0.3427  2.1274
   80TIP3    H2  247   1.068   1.238   1.449 -0.2816  0.4223 -0.6873
   81TIP3   OH2  248   1.380   4.069   1.687 -0.2926  0.5060  0.1928
   81TIP3    H1  249   1.307   4.011   1.712  0.7275  0.0097  2.2680
   81TIP3    H2  250   1.402   4.042   1.598 -0.5436 -1.6006  0.7079
   82TIP3   OH2  251   3.327   2.097   1.925 -0.2368  0.3595 -0.3009
   82TIP3    H1  252   3.267   2.129   1.858  1.6369 -0.1741 -2.3308
   82TIP3    H2  253   3.413   2.128   1.898  0.7087 -0.6054  1.4173
   83TIP3   OH2  254   0.309   1.591   3.404 -0.1298 -0.6263  0.0120
   83TIP3    H1  255   0.309   1.594   3.499  1.8431  0.0168  0.0330
   83TIP3    H2  256   0.217   1.582   3.380 -0.6349 -1.0431  1.9702
   84TIP3   OH2  257   0.718   1.378   3.606 -0.2608 -0.1024  0.4689
   84TIP3    H1  258   0.753   1.464   3.583  0.9047 -1.1334 -1.9573
   84TIP3    H2  259   0.623   1.389   3.605 -0.1296  1.1979  0.5085
   85TIP3   OH2  260   3.097   3.825   1.722 -0.1239  0.5678  0.0299
   85TIP3    H1  261   3.098   3.808   1.627 -0.2952  1.9810 -0.2376
   85TIP3    H2  262   3.019   3.879   1.736  0.2408  0.8777  0.8966
   86TIP3   OH2  263   3.385   3.966   2.825  0.1014  0.4968  0.5452
   86TIP3    H1  264   3.463   3.937   2.873 -0.9519  0.3665  2.2402
   86TIP3    H2  265   3.318   3.902   2.847 -0.8606  1.3638  0.2232
   87TIP3   OH2  266   4.695   5.435   2.584 -0.1169  0.8670  0.0732
   87TIP3    H1  267   4.620   5.426   2.643 -1.6179  0.0313 -1.8292
   87TIP3    H2  268   4.714   5.529   2.583 -0.7518  1.0197  1.0538
   88TIP3   OH2  269   1.853   3.840   3.969  0.2369 -0.2382 -0.4314
   88TIP3    H1  270   1.853   3.848   3.873 -0.1599 -0.0673 -0.4163
   88TIP3    H2  271   1.761   3.845   3.994  0.2827 -0.9421 -0.0929
   89TIP3   OH2  272   3.376   4.197   3.989  0.2311 -0.0765  0.3981
   89TIP3    H1  273   3.406   4.110   3.963 -0.6473 -1.0679  2.4538
   89TIP3    H2  274   3.389   4.251   3.912 -0.0722 -2.2369 -1.2594
   90TIP3   OH2  275   0.428   2.925   4.926 -0.3904 -0.4800 -0.9880
   90TIP3    H1  276   0.350   2.884   4.887 -0.8137 -1.4297  0.7807
   90TIP3    H2  277   0.471   2.855   4.974  1.4104  0.1213 -1.6629
   91TIP3   OH2  278   6.076   0.317   3.715 -0.0740  0.4591  0.1055
   91TIP3    H1  279   6.089   0.412   3.716 -1.3000  0.6365  1.1045
   91TIP3    H2  280   6.154   0.283   3.759  0.0264  1.0505  0.4009
   92TIP3   OH2  281   0.653   0.697   3.592  0.4239 -0.0050  0.5905
   92TIP3    H1  282   0.649   0.668   3.683  0.6634  1.2545  1.0211
   92TIP3    H2  283   0.575   0.750   3.581  0.8950  0.6486  0.3586
   93TIP3   OH2  284   5.617   5.180   4.846 -0.2742  0.2579 -0.5788
   93TIP3    H1  285   5.546   5.116   4.839 -1.5151  1.2918  1.4840
   93TIP3    H2  286   5.572   5.265   4.844  0.9681  0.9571  0.1289
   94TIP3   OH2  287   3.386   5.050   1.177  0.2486  0.3229  0.4327
   94TIP3    H1  288   3.396   5.132   1.129 -1.4664 -0.3660 -1.2469
   94TIP3    H2  289   3.376   4.983   1.109  1.2719 -1.2563  1.7531
   95TIP3   OH2  290   0.447   5.257   4.808 -0.0901 -0.5724 -0.1974
   95TIP3    H1  291   0.353   5.269   4.800 -0.0983 -1.0016 -0.8593
   95TIP3    H2  292   0.465   5.177   4.758  0.4652 -1.1534  0.9016
   96TIP3   OH2  293   1.300   4.151   1.371  0.3917 -0.1748  0.0219
   96TIP3    H1  294   1.395   4.148   1.375  0.4279  0.9488  0.2742
   96TIP3    H2  295   1.281   4.186   1.283  0.2677  1.0972  0.5325
   97TIP3   OH2  296   2.650   0.841   5.022 -0.1791 -0.0360 -0.4497
   97TIP3    H1  297   2.650   0.755   4.982  0.4916 -0.2000 -0.1198
   97TIP3    H2  298   2.743   0.864   5.029 -0.3117  0.3382  0.2432
   98TIP3   OH2  299   4.772   5.281   3.619  0.3888  0.4051  0.6568
   98TIP3    H1  300   4.855   5.292   3.665  0.5218  1.5465  0.1629
   98TIP3    H2  301   4.795   5.244   3.534  0.0707 -2.5459  1.7470
   99TIP3   OH2  302   5.449   0.442   0.271  0.6529  0.2626 -0.0282
   99TIP3    H1  303   5.393   0.497   0.326  1.9682  0.2671  1.3575
   99TIP3    H2  304   5.463   0.363   0.323  2.8753  0.7462  0.2045
  100TIP3   OH2  305   5.921   2.042   2.702  0.0483  0.0885  0.3876
  100TIP3    H1  306   5.877   2.019   2.783  1.7545 -0.4318  1.2077
  100TIP3    H2  307   5.947   2.133   2.713 -0.8107  0.4066 -0.1103
  101TIP3   OH2  308   4.858   4.096   4.785  0.1813  0.2872  0.7299
  101TIP3    H1  309   4.897   4.183   4.773  2.2169 -0.5476  0.8750
  101TIP3    H2  310   4.823   4.098   4.874  0.3457  0.9082  0.7878
  102TIP3   OH2  311   5.545   0.553   2.992 -0.2313 -0.2360  0.6529
  102TIP3    H1  312   5.513   0.496   3.062 -0.7362  0.3152  0.8787
  102TIP3    H2  313   5.555   0.496   2.917 -0.2189 -0.7270  1.0254
  103TIP3   OH2  314   5.688   4.086   1.662 -1.0278  0.3125  0.2985
  103TIP3    H1  315   5.647   4.172   1.668  1.3436  1.5696 -0.0699
  103TIP3    H2  316   5.781   4.103   1.676 -0.1819 -1.8593 -1.9353
  104TIP3   OH2  317   6.030   4.386   1.261 -0.0161 -0.3373  0.0345
  104TIP3    H1  318   5.947   4.375   1.215 -0.2111  0.4914  0.1839
  104TIP3    H2  319   6.085   4.434   1.199 -0.5767  1.6092  0.9776
  105TIP3   OH2  320   0.611   5.565   0.463  0.3108 -0.3391  0.1836
  105TIP3    H1  321   0.521   5.593   0.475  0.3757 -0.4199  0.9082
  105TIP3    H2  322   0.648   5.629   0.403 -0.2376 -0.3238 -0.1388
  106TIP3   OH2  323   6.211   3.554   1.467 -0.0419 -0.4887  0.2591
  106TIP3    H1  324   6.213   3.645   1.497 -0.4279 -0.0459 -0.9850
  106TIP3    H2  325   6.278   3.550   1.399  0.3177 -1.2712  0.6493
  107TIP3   OH2  326   6.117   2.747   2.124 -0.0644  0.2161 -0.5587
  107TIP3    H1  327   6.204   2.774   2.096 -0.0371  0.1494 -0.5387
  107TIP3    H2  328   6.060   2.768   2.050 -0.5073  2.7641  0.3748
  108TIP3   OH2  329   6.010   1.461   1.860  0.1387  0.1894 -0.4709
  108TIP3    H1  330   5.978   1.484   1.773  0.1279  0.3829 -0.4171
  108TIP3    H2  331   5.944   1.402   1.896 -1.2991  2.2715  0.4935
  109TIP3   OH2  332   0.319   4.166   2.847  0.4805  1.2003 -0.1202
  109TIP3    H1  333   0.324   4.254   2.810  0.0734  1.2100 -0.1525
  109TIP3    H2  334   0.382   4.114   2.796 -0.1219  1.1966 -0.8635
  110TIP3   OH2  335   4.829   0.002   2.800  0.3084  0.6237 -0.2771
  110TIP3    H1  336   4.800   0.037   2.716  0.1018  0.5352 -0.2435
  110TIP3    H2  337   4.925  -0.004   2.792  0.5073  2.4621  0.1978
  111TIP3   OH2  338   4.226   0.582   4.159 -0.0088  0.8246 -0.5837
  111TIP3    H1  339   4.145   0.628   4.181  0.6859  2.1412 -0.6290
  111TIP3    H2  340   4.240   0.520   4.231 -2.7163 -1.8115 -2.1508
  112TIP3   OH2  341   0.035   5.189   3.737  0.4280 -0.2462  0.1363
  112TIP3    H1  342   0.122   5.202   3.774 -0.3575  1.3141  1.5374
  112TIP3    H2  343  -0.018   5.160   3.810 -0.5588  0.2465 -0.3700
  113TIP3   OH2  344   0.767   3.957   3.853 -0.1343 -0.0801 -0.0482
  113TIP3    H1  345   0.710   3.983   3.925  0.9868 -0.3439  0.9770
  113TIP3    H2  346   0.785   4.039   3.806 -0.7777  0.1169  0.0376
  114TIP3   OH2  347   4.880   4.078   1.099 -0.2394  0.1961  0.0560
  114TIP3    H1  348   4.827   4.148   1.059 -0.8628 -0.4067 -0.1964
  114TIP3    H2  349   4.904   4.113   1.185  0.7029  1.3103 -0.6196
  115TIP3   OH2  350   2.136   1.093   0.971 -0.0323  0.1954 -0.7001
  115TIP3    H1  351   2.072   1.095   0.900 -1.7883  1.4294  0.8484
  115TIP3    H2  352   2.131   1.004   1.005 -0.2783  0.0420 -1.1271
  116TIP3   OH2  353   6.329   1.681   0.593 -0.8729  0.6398 -0.0985
  116TIP3    H1  354   6.336   1.756   0.652  0.4712  0.6971 -0.3036
  116TIP3    H2  355   6.325   1.720   0.506  1.3286  0.4798 -0.3191
  117TIP3   OH2  356   6.048   3.279   3.872  0.2369 -0.1798 -0.1448
  117TIP3    H1  357   6.034   3.361   3.919 -2.0334  0.0649 -1.0967
  117TIP3    H2  358   6.013   3.212   3.930 -1.7646  0.0347 -0.9946
  118TIP3   OH2  359   5.176   1.267   3.686 -0.7646  0.0125  0.1419
  118TIP3    H1  360   5.198   1.338   3.748 -2.2409 -0.5814  1.4168
  118TIP3    H2  361   5.082   1.255   3.697 -0.7041 -1.4783 -0.8044
  119TIP3   OH2  362   5.137   5.510   3.955 -0.6737 -0.3788  0.3239
  119TIP3    H1  363   5.220   5.547   3.925 -0.5268 -0.4043  0.7032
  119TIP3    H2  364   5.155   5.477   4.043 -1.1612 -0.1107  0.5318
  120TIP3   OH2  365   1.387   1.523   4.833 -0.1632  0.1207 -0.4897
  120TIP3    H1  366   1.338   1.581   4.775 -0.2869 -0.5073 -1.0130
  120TIP3    H2  367   1.332   1.516   4.911 -0.0846  0.8103 -0.3588
  121TIP3   OH2  368   5.869   0.559   3.131  0.8915 -0.4476  0.9379
  121TIP3    H1  369   5.824   0.642   3.147  0.4836 -0.3716 -0.4303
  121TIP3    H2  370   5.815   0.493   3.176  0.2253 -0.1672  0.5682
  122TIP3   OH2  371   3.453   2.481   0.409  0.4426 -0.3928  0.3449
  122TIP3    H1  372   3.407   2.400   0.431 -0.1370  0.1438  1.1364
  122TIP3    H2  373   3.495   2.461   0.325  2.9837 -2.6087  1.9644
  123TIP3   OH2  374   1.981   2.680   1.054 -0.3363 -0.0050  0.0602
  123TIP3    H1  375   1.905   2.700   0.999  0.0189  2.3158  0.3166
  123TIP3    H2  376   2.056   2.710   1.003  0.0873  1.0411  1.2565
  124TIP3   OH2  377   3.190   2.767   1.572  0.8042  0.4734 -0.4025
  124TIP3    H1  378   3.201   2.761   1.477 -0.7836 -0.6429 -0.5551
  124TIP3    H2  379   3.268   2.723   1.607  1.3198  0.7377 -1.1851
  125TIP3   OH2  380   4.602   2.150   0.140  0.6688 -0.4187 -0.5643
  125TIP3    H1  381   4.681   2.202   0.121  0.7905  0.1529  1.3483
  125TIP3    H2  382   4.636   2.067   0.174  0.5025  0.3637  1.6468
  126TIP3   OH2  383   5.032   3.163   2.172  0.1620  0.1952 -0.1888
  126TIP3    H1  384   4.941   3.135   2.169 -0.2461  1.5005 -0.8127
  126TIP3    H2  385   5.068   3.137   2.087 -0.4336  2.1551 -1.0884
  127TIP3   OH2  386   5.869   3.655   3.175 -0.3227  0.1673  0.1898
  127TIP3    H1  387   5.929   3.610   3.116  0.7909  0.8858  0.7383
  127TIP3    H2  388   5.819   3.714   3.117 -0.4601 -0.3764 -0.2582
  128TIP3   OH2  389   5.727   3.381   0.830  0.5334  0.2343 -0.2634
  128TIP3    H1  390   5.774   3.306   0.867 -0.2484 -0.3661 -0.4495
  128TIP3    H2  391   5.646   3.343   0.795 -0.0243  1.2205 -0.0769
  129TIP3   OH2  392   3.811   1.319   2.986 -0.5987  0.3827  0.3151
  129TIP3    H1  393   3.785   1.410   2.968 -0.3251  0.1160 -1.5856
  129TIP3    H2  394   3.754   1.266   2.931 -0.0900 -0.5582  0.6712
  130TIP3   OH2  395   3.053   0.444   1.684  0.4182 -0.0316  0.3981
  130TIP3    H1  396   3.034   0.350   1.677  1.1488 -0.2861  1.6062
  130TIP3    H2  397   3.111   0.462   1.610 -0.3676 -0.3466 -0.3142
  131TIP3   OH2  398   2.021   4.150   4.314  0.5938 -0.4538  0.8983
  131TIP3    H1  399   2.044   4.088   4.245 -0.4230  0.7308 -0.5765
  131TIP3    H2  400   2.007   4.233   4.268 -0.4853  0.3026  2.4872
  132TIP3   OH2  401   0.150   0.955   3.998  0.0524  0.5077  0.2642
  132TIP3    H1  402   0.239   0.919   3.994 -0.6561 -1.5512  1.4137
  132TIP3    H2  403   0.146   0.997   4.084  0.8909  3.6194 -1.0910
  133TIP3   OH2  404   2.626   2.606   3.959 -0.1833  0.4360 -0.3027
  133TIP3    H1  405   2.616   2.526   4.010 -1.0449  1.2973  0.9486
  133TIP3    H2  406   2.547   2.609   3.904 -1.2323  1.4510  1.1920
  134TIP3   OH2  407   1.539   3.305   2.069  0.4286 -0.3110 -0.2291
  134TIP3    H1  408   1.591   3.236   2.109 -0.3123 -0.4615  0.5192
  134TIP3    H2  409   1.503   3.265   1.989  1.0681 -0.3477 -0.5073
  135TIP3   OH2  410   3.440   2.126   1.023 -0.1304 -0.0819 -0.5187
  135TIP3    H1  411   3.514   2.068   1.040 -0.5217 -0.3151  0.4583
  135TIP3    H2  412   3.465   2.175   0.944  1.6389  0.7979  0.5321
  136TIP3   OH2  413   4.335   5.375   4.331 -0.0981  0.2937  0.4168
  136TIP3    H1  414   4.267   5.419   4.280 -0.6592 -0.9418  0.0750
  136TIP3    H2  415   4.406   5.361   4.269  0.0722  0.6730  0.5206
  137TIP3   OH2  416   0.904   2.443   2.413 -0.4079 -0.5054  0.1886
  137TIP3    H1  417   0.884   2.446   2.507  0.3909 -0.9368  0.3763
  137TIP3    H2  418   0.837   2.500   2.373  0.4731  1.3733  1.2253
  138TIP3   OH2  419   0.934   4.592   2.065  0.7468  0.0320  0.0928
  138TIP3    H1  420   0.875   4.516   2.065  0.2289  0.4327  0.2448
  138TIP3    H2  421   0.991   4.577   1.990  1.0426 -0.8126  0.4720
  139TIP3   OH2  422   3.477   3.449   2.219 -0.0884  0.0518 -0.3192
  139TIP3    H1  423   3.546   3.503   2.257  0.4222 -0.7896 -0.0348
  139TIP3    H2  424   3.494   3.361   2.251  0.1334 -0.6254 -2.1618
  140TIP3   OH2  425   4.366   4.571   3.864  0.1235  0.1949 -0.4240
  140TIP3    H1  426   4.374   4.660   3.898  0.1457  0.3986 -0.9449
  140TIP3    H2  427   4.343   4.583   3.772  2.1532 -0.3010 -1.0499
  141TIP3   OH2  428   1.442   0.765   0.988  0.2540  0.0290  0.1148
  141TIP3    H1  429   1.473   0.773   0.898  0.1569  0.3926  0.1131
  141TIP3    H2  430   1.493   0.693   1.024 -0.7440 -1.1190 -0.6771
  142TIP3   OH2  431   5.522   1.171   1.165 -0.0678 -0.2072 -0.1262
  142TIP3    H1  432   5.556   1.237   1.225 -1.6199 -1.5308  2.3347
  142TIP3    H2  433   5.450   1.214   1.119 -1.4947 -0.2676  1.9238
  143TIP3   OH2  434   4.983   3.743   2.238 -0.0331 -0.5187 -0.3456
  143TIP3    H1  435   5.056   3.742   2.176  0.2164 -0.1920 -0.0672
  143TIP3    H2  436   4.906   3.722   2.186  0.5285 -3.0095 -0.2595
  144TIP3   OH2  437   2.181   1.369   3.426 -0.2281  0.4473 -0.0054
  144TIP3    H1  438   2.119   1.396   3.494  0.2573  2.5610 -0.3276
  144TIP3    H2  439   2.268   1.383   3.466  0.0728 -0.7639 -0.1881
  145TIP3   OH2  440   3.706   4.819   2.522 -0.2568  0.1227  0.5097
  145TIP3    H1  441   3.649   4.798   2.597 -0.6107  1.7958  0.7386
  145TIP3    H2  442   3.743   4.734   2.496  0.2641 -0.4515  2.8903
  146TIP3   OH2  443   4.414   0.975  -0.010  0.0209  0.2919  0.2958
  146TIP3    H1  444   4.409   0.969   0.086 -1.2585  0.2379  0.2557
  146TIP3    H2  445   4.389   1.065  -0.030 -0.1496  0.1785 -0.0040
  147TIP3   OH2  446   6.058   5.805   3.689 -0.3989 -0.4689 -0.4245
  147TIP3    H1  447   6.037   5.751   3.765 -0.5703 -1.9190 -1.4680
  147TIP3    H2  448   6.138   5.766   3.654 -0.2404  0.2821 -0.9149
  148TIP3   OH2  449   0.722   1.645   3.127 -0.5628 -0.1690 -0.4477
  148TIP3    H1  450   0.671   1.623   3.206 -0.6599  1.2402 -0.0965
  148TIP3    H2  451   0.778   1.717   3.154 -1.7343  1.4296 -2.0865
  149TIP3   OH2  452   4.421   1.950   2.880 -0.6468 -0.0318  0.4692
  149TIP3    H1  453   4.445   1.889   2.949  0.0610 -0.1520  0.1266
  149TIP3    H2  454   4.331   1.928   2.858 -0.3588 -1.0630  0.2472
  150TIP3   OH2  455   2.685   3.301   2.146  0.3082  0.5175  0.2940
  150TIP3    H1  456   2.756   3.306   2.210 -0.5600  0.9317  1.2615
  150TIP3    H2  457   2.661   3.392   2.129 -1.5457  0.3903  1.8244
  151TIP3   OH2  458   2.164   2.219   2.099 -0.8270 -0.4196 -0.0052
  151TIP3    H1  459   2.103   2.151   2.128 -0.2727 -0.8910  0.0574
  151TIP3    H2  460   2.212   2.243   2.178 -1.1586  0.1960  0.0162
  152TIP3   OH2  461   3.861   1.448   1.527  0.1865  0.8769  0.3509
  152TIP3    H1  462   3.905   1.489   1.602  1.0249  1.2792 -0.3390
  152TIP3    H2  463   3.768   1.463   1.544  0.2982  0.2419  1.7107
  153TIP3   OH2  464   4.632   0.339   2.549  0.8690 -0.2474  0.1792
  153TIP3    H1  465   4.676   0.344   2.463  0.4495  1.3410  0.0272
  153TIP3    H2  466   4.564   0.273   2.537  1.7153 -1.0792 -0.2635
  154TIP3   OH2  467   2.487   2.354   3.491 -0.1272 -0.1192  0.7472
  154TIP3    H1  468   2.408   2.378   3.540  1.3631  2.3985  2.1613
  154TIP3    H2  469   2.466   2.270   3.451 -4.0751  1.1190 -0.2495
  155TIP3   OH2  470   1.583   5.383   3.185 -0.0791  0.3099 -0.2274
  155TIP3    H1  471   1.521   5.314   3.209 -0.7768  1.1999  0.6333
  155TIP3    H2  472   1.630   5.403   3.266  0.6127  0.3594 -0.6372
  156TIP3   OH2  473   3.406   3.341   3.233 -0.0149  0.4094 -0.0750
  156TIP3    H1  474   3.364   3.297   3.159 -0.7802 -1.2433  1.2896
  156TIP3    H2  475   3.437   3.271   3.289  1.3857  1.6255  0.7632
  157TIP3   OH2  476   1.602   3.458   4.355 -0.1041 -0.3353  0.2615
  157TIP3    H1  477   1.673   3.442   4.417 -0.1859 -0.0297  0.4327
  157TIP3    H2  478   1.545   3.381   4.364 -0.0825 -0.3228  0.5218
  158TIP3   OH2  479  -0.024   3.339   4.167 -0.7426  0.1248  0.2039
  158TIP3    H1  480   0.036   3.397   4.120 -0.1290  0.9691  1.9603
  158TIP3    H2  481   0.033   3.285   4.221 -1.5035  0.0832  0.9750
  159TIP3   OH2  482   1.243   2.291   0.373  0.0147  0.4944 -0.2586
  159TIP3    H1  483   1.166   2.321   0.421  0.5364  0.5578  0.5518
  159TIP3    H2  484   1.316   2.312   0.430  0.9555  3.1412 -2.2123
  160TIP3   OH2  485   3.847   4.436   0.236  0.1085 -0.6021 -0.2283
  160TIP3    H1  486   3.876   4.471   0.151 -0.5260  0.0056 -0.2035
  160TIP3    H2  487   3.806   4.510   0.280 -0.7322 -1.2246  0.0775
  161TIP3   OH2  488   2.932   4.526   1.666  0.2731 -0.3507 -0.1879
  161TIP3    H1  489   2.972   4.534   1.580  1.8399  0.2384  0.5568
  161TIP3    H2  490   2.913   4.616   1.692  0.8713 -0.4262  0.5471
  162TIP3   OH2  491   4.482   0.254   4.790  0.0825  0.0965  0.3003
  162TIP3    H1  492   4.458   0.204   4.712  1.8501 -1.9466  0.9641
  162TIP3    H2  493   4.452   0.343   4.772 -2.6903 -1.0189 -1.2072
  163TIP3   OH2  494   0.743   1.148   4.871 -0.2513  0.4208  0.2352
  163TIP3    H1  495   0.672   1.204   4.840  0.7493  1.1567 -0.8310
  163TIP3    H2  496   0.821   1.184   4.829  0.5618 -1.2333  0.2513
  164TIP3   OH2  497   5.320   3.801   2.968 -0.4492 -0.1074  0.1625
  164TIP3    H1  498   5.325   3.833   3.058  0.6689 -2.8357  1.1814
  164TIP3    H2  499   5.245   3.847   2.930 -0.6405  1.4890  2.3011
  165TIP3   OH2  500   5.150   0.087   3.022 -0.4747 -0.1915  0.2972
  165TIP3    H1  501   5.222   0.032   3.052  1.2688  1.4813 -0.6174
  165TIP3    H2  502   5.103   0.110   3.103  3.0662  2.7657  1.8106
  166TIP3   OH2  503   6.226   2.054   4.893  0.5383  0.3486  0.7785
  166TIP3    H1  504   6.311   2.098   4.901  1.3657  0.1058 -3.9803
  166TIP3    H2  505   6.162   2.125   4.895  1.2023  0.9671  0.6137
  167TIP3   OH2  506   1.296   1.750   2.589  0.2262  0.1962 -0.0015
  167TIP3    H1  507   1.338   1.674   2.629 -3.0528 -2.1548 -0.6026
  167TIP3    H2  508   1.251   1.793   2.661  0.3294  0.2993  0.0012
  168TIP3   OH2  509   5.406   4.497   1.904  0.4490 -0.0055 -0.0872
  168TIP3    H1  510   5.471   4.474   1.838 -0.1047 -1.3318 -0.2116
  168TIP3    H2  511   5.358   4.415   1.920  1.3799 -0.0969  2.8691
  169TIP3   OH2  512   2.726   5.493   2.023 -0.6993  0.0653  0.4737
  169TIP3    H1  513   2.655   5.556   2.031 -0.6334  0.0853  0.9081
  169TIP3    H2  514   2.800   5.535   2.066 -0.1662  0.4273 -0.7466
  170TIP3   OH2  515   5.918   0.232   3.212 -0.3541 -0.0344  0.4062
  170TIP3    H1  516   5.857   0.203   3.280  0.7683 -1.2218  0.9736
  170TIP3    H2  517   5.988   0.275   3.261 -0.5382  0.9658 -0.1963
  171TIP3   OH2  518   2.834   2.869   4.626 -0.1334 -0.0900 -0.5816
  171TIP3    H1  519   2.924   2.853   4.597 -0.2114 -0.3375 -0.6840
  171TIP3    H2  520   2.843   2.897   4.717  0.1307  0.8821 -0.8891
  172TIP3   OH2  521   0.373   0.921   0.575 -0.4419  0.4473  0.3069
  172TIP3    H1  522   0.461   0.959   0.576 -0.3164  0.1568  0.7188
  172TIP3    H2  523   0.375   0.856   0.645 -1.6569  1.9144  1.7778
  173TIP3   OH2  524   3.111  -0.017   2.639  0.5238 -0.2151 -0.7545
  173TIP3    H1  525   3.069   0.033   2.569 -1.1965 -0.1014  0.2979
  173TIP3    H2  526   3.114   0.043   2.713  2.1454 -0.3977 -0.6444
  174TIP3   OH2  527   1.327   1.838   4.746 -0.1460 -0.8886  0.6420
  174TIP3    H1  528   1.398   1.898   4.770  0.1235 -0.0055 -2.0739
  174TIP3    H2  529   1.247   1.884   4.773  0.0830  0.5688 -1.0179
  175TIP3   OH2  530   6.071   1.311   3.054  0.0446 -0.1622 -0.0658
  175TIP3    H1  531   6.014   1.354   2.990  0.7474  2.3160  0.8615
  175TIP3    H2  532   6.159   1.324   3.020  0.4117  0.9834  1.2407
  176TIP3   OH2  533   6.160   3.502   2.834 -0.1488  0.1331 -0.2271
  176TIP3    H1  534   6.122   3.486   2.921 -0.1259 -0.5249 -0.3290
  176TIP3    H2  535   6.121   3.434   2.779  1.5918 -0.9167 -0.2073
  177TIP3   OH2  536   2.103   5.504   4.319 -0.1965  0.2424  0.3038
  177TIP3    H1  537   2.131   5.422   4.359  2.5015  1.4689  1.1766
  177TIP3    H2  538   2.174   5.526   4.258 -0.6046  2.1388  0.4572
  178TIP3   OH2  539   0.535   0.122   1.737 -0.1402  0.7700 -0.2387
  178TIP3    H1  540   0.588   0.202   1.735  2.5768 -0.8573  1.5965
  178TIP3    H2  541   0.571   0.067   1.668 -0.7035  0.3346 -0.1955
  179TIP3   OH2  542   3.669   1.514   2.771  0.3436 -0.0323  0.0522
  179TIP3    H1  543   3.697   1.588   2.717  1.1210  0.0115  0.5053
  179TIP3    H2  544   3.729   1.444   2.747  0.3411 -0.1751  0.4699
  180TIP3   OH2  545   5.226   3.436   1.915 -0.0784 -0.1966  0.0857
  180TIP3    H1  546   5.175   3.363   1.879  1.7921 -1.3625 -0.3467
  180TIP3    H2  547   5.229   3.500   1.843  0.9539 -1.1376 -0.7605
  181TIP3   OH2  548   1.958   4.900   2.637 -0.1374 -0.3973 -0.0573
  181TIP3    H1  549   1.921   4.989   2.642  2.0572  0.5380  0.4439
  181TIP3    H2  550   1.894   4.851   2.585 -2.0240  1.1242  0.7041
  182TIP3   OH2  551   4.414   5.547   3.724 -0.2821  0.2792  0.1768
  182TIP3    H1  552   4.498   5.565   3.765 -0.2664  1.4204 -0.3089
  182TIP3    H2  553   4.436   5.517   3.636 -0.3308 -1.7419  0.7916
  183TIP3   OH2  554   4.973   2.289   4.801 -0.0013  0.2139 -0.3194
  183TIP3    H1  555   4.961   2.200   4.834  1.2237 -0.6478 -2.0365
  183TIP3    H2  556   5.038   2.328   4.860 -0.3422 -0.1195  0.2839
  184TIP3   OH2  557   4.665   4.559   4.762  0.0758 -0.4124  0.2005
  184TIP3    H1  558   4.746   4.596   4.726 -0.0779  0.3441  0.6103
  184TIP3    H2  559   4.607   4.634   4.772 -1.5933 -1.2469 -2.3331
  185TIP3   OH2  560   4.465   3.255   3.962  0.2372 -0.2850  0.2449
  185TIP3    H1  561   4.514   3.186   4.007 -0.8934 -0.7446  0.8020
  185TIP3    H2  562   4.419   3.209   3.891  1.1020  0.2473 -0.6722
  186TIP3   OH2  563   5.307   3.990   1.781 -0.5744  0.0451  0.4519
  186TIP3    H1  564   5.324   3.975   1.687  2.9591  3.0386  0.3820
  186TIP3    H2  565   5.385   3.956   1.824 -1.9664 -0.8926  2.3328
  187TIP3   OH2  566   2.374   4.104   2.728  0.1665 -0.2040  0.4878
  187TIP3    H1  567   2.394   4.171   2.662 -0.3611  0.0585  0.5956
  187TIP3    H2  568   2.373   4.152   2.811 -1.0503 -0.1782  0.4732
  188TIP3   OH2  569   0.756   3.492   4.077 -0.3404  0.4363  0.0943
  188TIP3    H1  570   0.808   3.492   4.158  1.6527 -0.9105 -1.1060
  188TIP3    H2  571   0.723   3.582   4.070 -0.4559  0.6250  2.3029
  189TIP3   OH2  572   0.952   4.748   4.029 -0.7061 -0.2324  0.1976
  189TIP3    H1  573   1.012   4.761   4.103 -1.9760  2.0298  0.9371
  189TIP3    H2  574   0.999   4.689   3.970  1.7733  0.5731  1.2298
  190TIP3   OH2  575   3.789   1.980   4.071  0.1842 -0.4977 -0.4409
  190TIP3    H1  576   3.869   1.928   4.064 -0.2623 -1.0569 -1.4818
  190TIP3    H2  577   3.727   1.938   4.013 -1.4614 -1.1252  1.6323
  191TIP3   OH2  578   6.142   5.873   2.676  0.8257  0.6105 -0.0094
  191TIP3    H1  579   6.055   5.844   2.651  1.1116 -1.3147  1.0764
  191TIP3    H2  580   6.128   5.961   2.712 -1.0189 -0.4378  2.0671
  192TIP3   OH2  581   5.647   5.751   4.185  0.0911  0.0752  0.0946
  192TIP3    H1  582   5.694   5.692   4.126  0.9953  1.2581 -0.4180
  192TIP3    H2  583   5.567   5.704   4.208  0.0796 -0.7378 -1.4784
  193TIP3   OH2  584   1.328   1.522   1.976  0.2843  0.2176 -0.1552
  193TIP3    H1  585   1.284   1.590   2.027 -1.7582 -0.0852 -1.4131
  193TIP3    H2  586   1.257   1.472   1.935  1.7783  0.1153 -2.8608
  194TIP3   OH2  587   1.970   4.636   4.540  0.3526  0.1855 -0.0535
  194TIP3    H1  588   2.036   4.696   4.573 -1.3900  2.4239 -0.4304
  194TIP3    H2  589   1.912   4.690   4.487 -2.7230 -1.3151  1.5294
  195TIP3   OH2  590   3.225   2.232   3.946  0.0620  0.3406 -0.8561
  195TIP3    H1  591   3.297   2.184   3.986  0.0685  1.0227 -0.0057
  195TIP3    H2  592   3.146   2.194   3.985 -0.0790 -0.6505 -2.0555
  196TIP3   OH2  593   3.218   3.504   2.995 -0.0666  0.0518  0.0991
  196TIP3    H1  594   3.228   3.409   2.996 -0.7712 -0.0352 -0.6641
  196TIP3    H2  595   3.125   3.519   3.011 -0.4262  0.5097 -2.1821
  197TIP3   OH2  596   2.761   0.439   2.008 -0.4182 -0.0536 -0.6060
  197TIP3    H1  597   2.756   0.414   2.100  2.6616  0.9444 -0.0625
  197TIP3    H2  598   2.697   0.383   1.964  0.8824 -3.4954  1.5528
  198TIP3   OH2  599   0.147   0.483   2.314 -1.1834  0.3390  0.4937
  198TIP3    H1  600   0.121   0.396   2.345 -1.0362 -0.0186 -0.3653
  198TIP3    H2  601   0.103   0.492   2.229 -1.1472  1.0814  0.5474
  199TIP3   OH2  602   1.497   3.940   2.067  0.1560 -0.1393  0.5647
  199TIP3    H1  603   1.502   4.022   2.117  1.7913 -0.5439  1.1328
  199TIP3    H2  604   1.553   3.954   1.991 -0.9075 -0.1654 -0.2521
  200TIP3   OH2  605   2.225   0.635   3.063  0.5570 -0.0592  0.9393
  200TIP3    H1  606   2.282   0.674   2.998 -0.9056 -0.2073 -0.4859
  200TIP3    H2  607   2.236   0.540   3.051  1.1980 -0.1059  1.7708
  201TIP3   OH2  608   5.305   3.296   4.893 -0.5225  0.3608  0.0213
  201TIP3    H1  609   5.340   3.370   4.842 -0.2301  0.7073  0.7001
  201TIP3    H2  610   5.366   3.224   4.876 -1.2705  0.0179 -1.2963
  202TIP3   OH2  611   0.485   4.341   1.522 -0.2289 -0.2315  0.1558
  202TIP3    H1  612   0.485   4.249   1.494 -0.7671 -0.4320  0.7883
  202TIP3    H2  613   0.492   4.391   1.441  1.3300 -0.8400 -0.1252
  203TIP3   OH2  614   3.289   1.373   5.121 -0.4078 -0.6304 -0.3796
  203TIP3    H1  615   3.384   1.367   5.117 -0.2792  0.8354 -0.1682
  203TIP3    H2  616   3.260   1.363   5.031  0.0230 -0.2513 -0.5669
  204TIP3   OH2  617   3.197   5.641   4.104 -0.3183 -0.4672 -0.4692
  204TIP3    H1  618   3.287   5.670   4.116  0.4907 -3.4650  2.1063
  204TIP3    H2  619   3.187   5.631   4.009  1.6839  0.8049 -0.8753
  205TIP3   OH2  620   5.366   5.454   4.635 -0.0568 -0.2524 -0.0295
  205TIP3    H1  621   5.382   5.360   4.631  2.1995  0.1092 -0.9754
  205TIP3    H2  622   5.367   5.474   4.729  2.3794 -0.7949  0.1369
  206TIP3   OH2  623   0.521   0.022   4.333  0.2192 -0.4380 -0.2517
  206TIP3    H1  624   0.615   0.034   4.347  0.1298 -0.2448  0.1881
  206TIP3    H2  625   0.515  -0.011   4.243  0.5744  1.5990 -1.0753
  207TIP3   OH2  626   1.710   1.216   0.860 -0.1657 -0.3428 -0.2784
  207TIP3    H1  627   1.797   1.227   0.822  0.0909  0.3358  0.4584
  207TIP3    H2  628   1.679   1.306   0.874 -0.1399 -0.5368  1.2827
  208TIP3   OH2  629   4.537   3.715   4.609 -0.1589  0.1956 -0.1776
  208TIP3    H1  630   4.548   3.773   4.533 -3.0608  0.0755 -0.8208
  208TIP3    H2  631   4.521   3.629   4.571 -0.1931 -0.1561  0.6224
  209TIP3   OH2  632   1.147   2.360   2.828 -0.1700  0.4393  0.0734
  209TIP3    H1  633   1.074   2.367   2.889 -2.7862  0.7284 -2.8695
  209TIP3    H2  634   1.140   2.438   2.773  1.8483  0.0266 -0.8727
  210TIP3   OH2  635   2.358   3.908   1.576 -0.1545  0.1877 -0.1216
  210TIP3    H1  636   2.359   3.829   1.522 -0.8946  0.0755  0.0173
  210TIP3    H2  637   2.267   3.916   1.605  0.5927 -0.9645  2.9182
  211TIP3   OH2  638   5.314   4.487   3.398 -0.5977  0.1255 -0.2230
  211TIP3    H1  639   5.385   4.509   3.338  0.2980  0.1394  0.8319
  211TIP3    H2  640   5.281   4.571   3.429  0.0436  0.0865  0.5779
  212TIP3   OH2  641   5.493   1.689   1.529 -0.4629  0.3454  0.4403
  212TIP3    H1  642   5.474   1.610   1.579 -0.0777  0.6024  0.9966
  212TIP3    H2  643   5.453   1.760   1.579 -1.2763  0.4580 -0.3315
  213TIP3   OH2  644   4.900   3.998   2.827  0.4692 -0.0007 -0.1613
  213TIP3    H1  645   4.931   4.088   2.813  1.4229 -0.0050  1.6073
  213TIP3    H2  646   4.806   4.002   2.810  0.3698  1.5012  0.5543
  214TIP3   OH2  647   4.675   5.238   4.343 -0.1526  0.1206  0.0229
  214TIP3    H1  648   4.624   5.272   4.416  1.8705  0.6360  1.2639
  214TIP3    H2  649   4.716   5.315   4.304  1.4317 -0.4851  0.4512
  215TIP3   OH2  650   1.117   1.047   4.974 -0.4979  0.3746 -0.1979
  215TIP3    H1  651   1.145   1.109   4.906  2.1103  1.3268  1.5625
  215TIP3    H2  652   1.181   0.976   4.969 -0.9426 -0.0872  0.5409
  216TIP3   OH2  653   3.574   3.210   3.926 -0.0992  0.1070 -0.2326
  216TIP3    H1  654   3.585   3.129   3.976 -0.6157 -0.1985 -0.6014
  216TIP3    H2  655   3.493   3.249   3.961 -0.0555  0.2739 -0.3151
  217TIP3   OH2  656   6.072   2.996   0.858 -0.1416 -0.1042  0.3340
  217TIP3    H1  657   6.117   2.968   0.938 -0.7120 -1.1863  0.3008
  217TIP3    H2  658   6.135   3.051   0.813  2.4184 -3.8141 -1.1343
  218TIP3   OH2  659   1.174   2.877   1.460 -0.2618 -0.0164 -0.5201
  218TIP3    H1  660   1.252   2.890   1.407 -0.0797  0.5664 -0.1126
  218TIP3    H2  661   1.130   2.802   1.419  0.2170  0.0030 -1.0868
  219TIP3   OH2  662   6.320   3.783   1.601 -0.0346  0.3011 -0.1787
  219TIP3    H1  663   6.276   3.779   1.686  2.2217  0.0978  1.0331
  219TIP3    H2  664   6.385   3.853   1.610  1.0695 -0.5277 -1.3074
  220TIP3   OH2  665   1.895   4.677   1.733 -0.1510 -0.1423  0.4691
  220TIP3    H1  666   1.968   4.615   1.725 -0.1357  0.0764 -1.6351
  220TIP3    H2  667   1.896   4.703   1.826  2.2574 -0.3676  0.5837
  221TIP3   OH2  668   2.174   0.548   2.684  0.0842  0.4180  0.1663
  221TIP3    H1  669   2.197   0.637   2.707 -1.5295  0.9657 -0.2107
  221TIP3    H2  670   2.114   0.557   2.609 -1.3454 -0.8710  1.0989
  222TIP3   OH2  671   4.376   5.404   4.603  0.1154  0.2488 -0.7137
  222TIP3    H1  672   4.372   5.401   4.507  2.3924  1.6960 -0.9184
  222TIP3    H2  673   4.359   5.495   4.625 -1.8588 -0.3398  0.4287
  223TIP3   OH2  674   2.410   0.540   1.030 -0.4270 -0.0562 -0.3351
  223TIP3    H1  675   2.454   0.591   1.097  0.2852 -0.1500 -0.7111
  223TIP3    H2  676   2.450   0.569   0.948 -0.9057 -0.3173 -0.6678
  224TIP3   OH2  677   2.144   0.887   4.914  0.3721  0.3619 -0.3625
  224TIP3    H1  678   2.087   0.955   4.879  0.3177  0.6240  0.2239
  224TIP3    H2  679   2.126   0.810   4.860  0.5196  0.8463 -1.1004
  225TIP3   OH2  680   5.944   3.538   3.951  0.1986  0.3616  0.0617
  225TIP3    H1  681   5.896   3.469   3.998  0.9656 -0.2247 -0.0051
  225TIP3    H2  682   5.878   3.606   3.936 -0.4906 -0.2077  0.4250
  226TIP3   OH2  683   1.733   4.333   1.504 -0.0212  0.4072  0.5926
  226TIP3    H1  684   1.674   4.319   1.429  2.1996 -0.3104 -1.1389
  226TIP3    H2  685   1.749   4.427   1.504 -0.3369  0.4618  0.4117
  227TIP3   OH2  686   2.135   3.267   1.445 -0.0410  0.0547  0.1343
  227TIP3    H1  687   2.061   3.322   1.416  0.8562  0.0403 -2.4285
  227TIP3    H2  688   2.101   3.177   1.438 -0.0855  0.0907 -0.1584
  228TIP3   OH2  689   2.016   3.530   4.462  0.5935 -0.6311  0.2815
  228TIP3    H1  690   2.107   3.557   4.475  0.0587  0.5919  1.8574
  228TIP3    H2  691   1.967   3.612   4.461 -0.3461 -1.1108 -2.5184
  229TIP3   OH2  692   2.778   0.802   3.781 -0.1406  0.1024  0.1423
  229TIP3    H1  693   2.808   0.801   3.872 -1.1850 -0.0644  0.5044
  229TIP3    H2  694   2.760   0.711   3.761 -0.0997  0.1615 -0.1621
  230TIP3   OH2  695   0.128   0.975   5.004 -0.5666 -0.3731 -0.5902
  230TIP3    H1  696   0.057   0.959   4.942  0.5984 -0.1389 -2.0420
  230TIP3    H2  697   0.205   0.988   4.950  0.8305 -1.6328  0.9577
  231TIP3   OH2  698   1.011   5.130   1.859  0.2244  0.1932 -0.3262
  231TIP3    H1  699   1.077   5.083   1.909 -0.0470 -0.4269 -0.5354
  231TIP3    H2  700   1.027   5.105   1.768  0.6346  1.2109 -0.5422
  232TIP3   OH2  701   1.257   3.146   3.319  0.1114 -0.5189 -0.4157
  232TIP3    H1  702   1.293   3.088   3.386  3.5633  0.6038 -1.1336
  232TIP3    H2  703   1.207   3.212   3.369  1.1523 -0.6923  0.9206
  233TIP3   OH2  704   6.203   4.549   0.566  0.7780 -0.1789 -0.2390
  233TIP3    H1  705   6.152   4.611   0.515  0.1960  0.3068  0.8992
  233TIP3    H2  706   6.166   4.463   0.545  1.4376 -0.1521 -1.6421
  234TIP3   OH2  707   1.665   1.345   3.933 -0.1846 -0.1232  0.0379
  234TIP3    H1  708   1.623   1.279   3.988 -1.2391  1.8117  1.7208
  234TIP3    H2  709   1.746   1.367   3.980 -0.4699  0.6444  0.1886
  235TIP3   OH2  710   0.978   1.060   3.225 -0.1013 -0.2115  0.4389
  235TIP3    H1  711   0.922   0.985   3.206 -1.9599  1.1808  0.0714
  235TIP3    H2  712   0.970   1.073   3.319  0.8234 -0.8993  0.6232
  236TIP3   OH2  713   0.985   2.214   1.664  0.2223  0.2438 -0.0221
  236TIP3    H1  714   0.935   2.155   1.720  1.2697 -0.4581  0.2082
  236TIP3    H2  715   1.038   2.266   1.724  1.0919 -0.2702 -0.3238
  237TIP3   OH2  716   2.736   3.392   3.269  0.1124  0.5667  0.2321
  237TIP3    H1  717   2.691   3.308   3.275  0.4416  0.4790  2.0377
  237TIP3    H2  718   2.693   3.437   3.196  0.0056 -1.1815 -0.8387
  238TIP3   OH2  719   5.957   5.833   0.013  0.3405  0.1092  0.6283
  238TIP3    H1  720   5.987   5.792   0.094 -0.3934  0.5082  1.1155
  238TIP3    H2  721   6.033   5.882  -0.019  1.3548 -1.8700 -0.1602
  239TIP3   OH2  722   3.834   1.603   5.039  0.4702 -0.0893  0.0714
  239TIP3    H1  723   3.888   1.615   5.117  0.5580  0.6626 -0.1007
  239TIP3    H2  724   3.805   1.691   5.015 -0.1951 -0.3958 -0.2941
  240TIP3   OH2  725   4.834   2.815   3.441 -0.5105  0.3626 -0.6444
  240TIP3    H1  726   4.843   2.902   3.402 -0.3895  0.6124 -0.0669
  240TIP3    H2  727   4.797   2.831   3.528  1.1916 -0.0018  0.1865
  241TIP3   OH2  728   0.901   1.437   2.777 -0.1233  0.4196  0.0397
  241TIP3    H1  729   0.937   1.418   2.865  0.1398  0.3790 -0.0741
  241TIP3    H2  730   0.860   1.355   2.751  0.9634 -0.0047 -0.4257
  242TIP3   OH2  731   3.779   1.726   2.565 -0.0421 -0.2464  0.0597
  242TIP3    H1  732   3.818   1.781   2.632 -1.8838  2.3105 -0.8337
  242TIP3    H2  733   3.840   1.653   2.555  2.7616  1.8209  1.0076
  243TIP3   OH2  734   6.050   0.162   4.339  0.0579  0.4597  0.5169
  243TIP3    H1  735   6.028   0.187   4.428 -0.0360 -1.2111  0.9950
  243TIP3    H2  736   6.146   0.168   4.335  0.2191 -1.2374  1.3194
  244TIP3   OH2  737   5.447   3.112   0.954 -0.2083 -0.3091 -0.3778
  244TIP3    H1  738   5.418   3.191   0.999 -0.6760 -0.2790 -0.7153
  244TIP3    H2  739   5.466   3.141   0.865 -2.3444 -0.9127 -1.0983
  245TIP3   OH2  740   5.578   0.690   2.757 -0.0220 -0.2201 -0.1083
  245TIP3    H1  741   5.570   0.682   2.852  0.5649 -0.2075 -0.0502
  245TIP3    H2  742   5.528   0.768   2.735  0.4368  0.1959  0.2906
  246TIP3   OH2  743   4.174   2.041  -0.018  0.6039 -0.2029 -0.5129
  246TIP3    H1  744   4.225   2.022   0.061 -1.5195 -0.5051  0.8707
  246TIP3    H2  745   4.130   2.124   0.001 -0.8575 -0.8649 -0.8494
  247TIP3   OH2  746   3.446   1.307   2.680 -0.1477 -0.5147 -0.4014
  247TIP3    H1  747   3.429   1.244   2.610  0.0419 -1.1943  0.1548
  247TIP3    H2  748   3.459   1.390   2.634  1.3032 -1.1966 -1.3011
  248TIP3   OH2  749   1.350   1.451   0.000 -0.0699  0.6363 -0.2404
  248TIP3    H1  750   1.413   1.471   0.070  0.9803  2.3344 -1.5579
  248TIP3    H2  751   1.294   1.383   0.036  0.5252  1.3304  2.1804
  249TIP3   OH2  752   4.990   0.721   0.137 -0.2423  0.6955  0.3389
  249TIP3    H1  753   5.005   0.769   0.218 -1.4312 -0.0389  1.0036
  249TIP3    H2  754   5.049   0.763   0.074  1.2469  0.8008  1.7414
  250TIP3   OH2  755   4.310   0.444   0.201  0.0561  0.1289  0.5083
  250TIP3    H1  756   4.357   0.366   0.230 -2.5802 -1.4273  0.8774
  250TIP3    H2  757   4.227   0.412   0.167 -0.5762  2.6825 -0.6486
  251TIP3   OH2  758   5.415   3.187   4.254 -0.3985 -0.0227 -0.8972
  251TIP3    H1  759   5.430   3.211   4.163  3.6570  0.0552 -0.3750
  251TIP3    H2  760   5.397   3.092   4.251  0.4958 -0.1790 -1.7363
  252TIP3   OH2  761   2.122   4.174   1.173  0.3398 -0.0477 -1.0353
  252TIP3    H1  762   2.036   4.131   1.171 -0.9997  2.3639  0.0513
  252TIP3    H2  763   2.114   4.246   1.111  0.1863  2.4287  1.6274
  253TIP3   OH2  764   5.621   3.608   4.342  0.1516  0.1014 -1.0857
  253TIP3    H1  765   5.708   3.590   4.377 -0.1528 -0.1669 -0.4595
  253TIP3    H2  766   5.633   3.688   4.291  0.4929  0.8448  0.1125
  254TIP3   OH2  767   5.167   2.396   2.579 -0.2895  0.1714 -0.0231
  254TIP3    H1  768   5.095   2.343   2.546 -1.1965  0.6630  1.1205
  254TIP3    H2  769   5.127   2.457   2.640  0.6174  2.6113 -1.6954
  255TIP3   OH2  770   5.932   2.508   1.879 -0.3328  0.1603  0.2741
  255TIP3    H1  771   5.886   2.479   1.958 -1.3141 -0.9343 -0.6536
  255TIP3    H2  772   6.021   2.474   1.889 -0.5107 -0.1684  0.7949
  256TIP3   OH2  773   6.039   2.876   1.910 -0.3305 -0.0844 -0.6873
  256TIP3    H1  774   5.996   2.867   1.825  1.6298 -0.3786 -1.6910
  256TIP3    H2  775   6.076   2.964   1.908  0.3587 -0.3640 -0.4562
  257TIP3   OH2  776   1.453   4.636   2.223  0.4693 -0.6865 -0.1780
  257TIP3    H1  777   1.360   4.660   2.229  0.7775  0.7452 -0.7517
  257TIP3    H2  778   1.456   4.568   2.156 -0.1158 -0.4230 -0.4814
  258TIP3   OH2  779   3.668   5.486   3.654  0.3000 -0.5293  0.0320
  258TIP3    H1  780   3.687   5.408   3.707 -0.3251 -1.4217 -1.0262
  258TIP3    H2  781   3.738   5.487   3.588  0.4088 -0.0928  0.1539
  259TIP3   OH2  782   2.690   2.210   1.715  0.3945 -0.3922  0.1823
  259TIP3    H1  783   2.613   2.177   1.669  1.1905 -0.4426 -1.1559
  259TIP3    H2  784   2.755   2.140   1.707  0.9427  0.0909  0.3525
  260TIP3   OH2  785   0.960   1.499   3.416  0.7194  0.0947 -0.1537
  260TIP3    H1  786   0.930   1.458   3.334  1.2924 -0.0869 -0.2744
  260TIP3    H2  787   1.031   1.443   3.446  1.1942  0.7374 -0.0650
  261TIP3   OH2  788   6.048   4.494   2.946 -0.3361 -0.1711  0.2089
  261TIP3    H1  789   6.136   4.468   2.974  0.4052  0.9366 -0.9835
  261TIP3    H2  790   6.028   4.571   2.999 -0.4840 -0.2604  0.2841
  262TIP3   OH2  791   4.982   5.699   4.248 -0.4908  0.0627 -0.2106
  262TIP3    H1  792   5.075   5.683   4.228 -0.5269 -0.4126 -0.0034
  262TIP3    H2  793   4.983   5.772   4.310 -0.4468  2.9143 -3.2596
  263TIP3   OH2  794   1.543   1.343   0.647 -0.5648  0.0191 -0.1132
  263TIP3    H1  795   1.599   1.294   0.588  0.4120 -0.4863  1.1799
  263TIP3    H2  796   1.455   1.309   0.632 -0.2227 -0.5970 -0.7431
  264TIP3   OH2  797   1.254   4.387   4.720  0.2448  0.1950 -0.5163
  264TIP3    H1  798   1.253   4.452   4.791  2.4478  1.5116 -1.5778
  264TIP3    H2  799   1.162   4.364   4.708 -0.4729  2.0200  0.8964
  265TIP3   OH2  800   0.895   5.097   2.120  0.2786 -0.1255 -0.2859
  265TIP3    H1  801   0.894   5.111   2.026  1.0194 -0.0891 -0.2956
  265TIP3    H2  802   0.966   5.152   2.152 -0.4907  0.4930  0.4094
  266TIP3   OH2  803   1.966   2.499   2.186 -0.3419 -0.3504 -0.6420
  266TIP3    H1  804   2.000   2.547   2.263  0.4359  1.0382 -1.7948
  266TIP3    H2  805   1.948   2.411   2.219  2.6218 -0.6477  0.5362
  267TIP3   OH2  806   0.469   1.917   1.370  0.4297 -0.5162 -0.3415
  267TIP3    H1  807   0.496   1.864   1.295 -0.7323 -1.9812  0.2118
  267TIP3    H2  808   0.483   1.859   1.445  0.5947  0.5484  0.4601
  268TIP3   OH2  809   0.062   4.660   0.703  0.3814 -0.5895  0.0617
  268TIP3    H1  810   0.143   4.635   0.658  0.8508 -1.0616  1.1489
  268TIP3    H2  811  -0.007   4.612   0.655  0.6908  0.0274 -1.0351
  269TIP3   OH2  812   5.994   1.424   4.650 -0.1426  0.4425 -0.0994
  269TIP3    H1  813   6.018   1.339   4.687 -0.0346  0.2015 -0.6982
  269TIP3    H2  814   6.069   1.448   4.595 -0.9952 -0.0428 -1.5298
  270TIP3   OH2  815   6.099   2.527   3.633  0.1306  0.5299  0.4208
  270TIP3    H1  816   6.110   2.436   3.662 -0.6136  0.5009  0.6529
  270TIP3    H2  817   6.053   2.520   3.549  0.1433  0.6911  0.4003
  271TIP3   OH2  818   3.663   2.878   1.222 -0.0821 -0.0996  0.0570
  271TIP3    H1  819   3.703   2.792   1.212  1.0492  0.0817  2.3632
  271TIP3    H2  820   3.646   2.886   1.316 -1.8700  1.4745 -0.3501
  272TIP3   OH2  821   1.938   5.269   3.514 -0.3374 -0.6623 -0.2042
  272TIP3    H1  822   1.960   5.187   3.559 -1.4303  0.2492  2.1324
  272TIP3    H2  823   2.021   5.298   3.476  1.5231 -0.0474  3.7883
  273TIP3   OH2  824   3.986   3.714   3.507  0.1385 -0.0914 -0.3547
  273TIP3    H1  825   3.993   3.778   3.578 -1.3748  0.8063 -0.9570
  273TIP3    H2  826   3.897   3.680   3.514  0.1072 -0.3021 -1.5691
  274TIP3   OH2  827   1.954   3.901   4.672  0.4149 -0.0242 -0.2791
  274TIP3    H1  828   1.993   3.848   4.741 -1.2921 -1.8970 -0.6582
  274TIP3    H2  829   1.863   3.913   4.700 -0.7261 -2.0202 -2.7745
  275TIP3   OH2  830   6.173   2.907   1.266 -0.3561 -0.2841 -0.4846
  275TIP3    H1  831   6.151   2.876   1.354  2.3466 -0.0553  0.3726
  275TIP3    H2  832   6.178   2.828   1.213  0.5411 -0.7104  0.2161
  276TIP3   OH2  833   5.762   1.614   1.156 -0.0214  0.5155 -0.3625
  276TIP3    H1  834   5.709   1.672   1.102  0.2527  2.0399  0.9463
  276TIP3    H2  835   5.756   1.651   1.244  1.6347 -0.4088  0.1702
  277TIP3   OH2  836   3.203   1.732   2.115  0.3449  0.1267 -0.1646
  277TIP3    H1  837   3.295   1.749   2.136 -0.0797 -0.0408  2.0798
  277TIP3    H2  838   3.196   1.637   2.113  0.1376  0.1333  0.1366
  278TIP3   OH2  839   3.116   4.552   3.877 -0.5550  0.3378 -0.4419
  278TIP3    H1  840   3.112   4.502   3.958 -0.7109  0.6570 -0.2512
  278TIP3    H2  841   3.194   4.607   3.886  0.3855 -0.8393 -1.2215
  279TIP3   OH2  842   2.561   4.716   5.046  0.1755 -0.3278 -0.5581
  279TIP3    H1  843   2.565   4.786   5.112 -2.9000  1.1282 -1.7348
  279TIP3    H2  844   2.601   4.641   5.089  0.7489  1.2750  1.9457
  280TIP3   OH2  845   0.039   0.267   2.396  0.2435 -0.4448 -0.3438
  280TIP3    H1  846   0.088   0.206   2.340  1.4271 -0.0249  0.2025
  280TIP3    H2  847  -0.051   0.258   2.366  0.6892 -0.9764 -1.6434
  281TIP3   OH2  848   2.952   1.465   1.821  0.1575 -0.1308  0.4444
  281TIP3    H1  849   2.943   1.446   1.727  0.6760 -0.2879  0.4200
  281TIP3    H2  850   3.003   1.546   1.824  0.9552 -0.6288  0.5970
  282TIP3   OH2  851   2.753   1.270   3.256  0.2916  0.2985  0.4055
  282TIP3    H1  852   2.660   1.265   3.276  0.2964 -0.0710  0.3440
  282TIP3    H2  853   2.789   1.330   3.321  0.2249 -0.4932  1.1926
  283TIP3   OH2  854   3.966   4.479   2.900  0.7192  0.3549 -0.1053
  283TIP3    H1  855   4.026   4.406   2.919 -2.9129 -3.2142 -0.9029
  283TIP3    H2  856   3.999   4.517   2.819  1.8050 -1.6381 -0.6665
  284TIP3   OH2  857   1.461   5.417   1.084 -0.3444 -0.4402 -0.0329
  284TIP3    H1  858   1.416   5.488   1.039 -2.2999 -1.0615  0.8163
  284TIP3    H2  859   1.401   5.342   1.078  0.2514 -1.1339  1.7345
  285TIP3   OH2  860   0.757   5.379   4.671  0.3957 -0.8441  0.0032
  285TIP3    H1  861   0.734   5.290   4.699 -0.4598 -0.7220 -0.2827
  285TIP3    H2  862   0.817   5.410   4.738 -1.3488 -0.6846  1.5702
  286TIP3   OH2  863   2.254   2.734   0.863  0.4690 -0.3703  0.5594
  286TIP3    H1  864   2.309   2.703   0.936  0.6422 -1.2682  0.0567
  286TIP3    H2  865   2.242   2.828   0.881  1.7564 -0.2531  0.9427
  287TIP3   OH2  866   2.808   3.328   3.835 -0.6167  0.3242  0.0255
  287TIP3    H1  867   2.816   3.411   3.788  0.0659  0.3452  0.1575
  287TIP3    H2  868   2.845   3.346   3.921  0.7229 -0.4306 -0.3578
  288TIP3   OH2  869   1.049   5.395   1.894 -0.7014 -0.1372  0.0217
  288TIP3    H1  870   1.118   5.393   1.960  0.0281  1.5218 -0.6095
  288TIP3    H2  871   1.038   5.304   1.867  2.7967 -0.3045 -1.3755
  289TIP3   OH2  872   2.415   4.977   0.162  0.1127 -0.1019  0.2834
  289TIP3    H1  873   2.436   5.068   0.182 -2.5258  0.4254  1.0744
  289TIP3    H2  874   2.397   4.937   0.247 -1.4164 -0.5888 -0.2325
  290TIP3   OH2  875   3.851   1.119   4.140  0.2317  0.2453 -0.2681
  290TIP3    H1  876   3.945   1.137   4.128 -0.0992  3.4703  1.0042
  290TIP3    H2  877   3.807   1.199   4.112 -2.3518 -1.7061 -2.2470
  291TIP3   OH2  878   5.895   2.456   4.853  0.0479  0.1349  0.1516
  291TIP3    H1  879   5.965   2.422   4.907  0.0075 -0.5826 -0.2291
  291TIP3    H2  880   5.893   2.398   4.777 -0.5494  0.5171 -0.1371
  292TIP3   OH2  881   2.404   0.097   1.313 -0.0383 -0.0690  0.1971
  292TIP3    H1  882   2.496   0.111   1.336  0.7208 -1.5968 -1.6266
  292TIP3    H2  883   2.371   0.036   1.378 -0.3179  1.7652  1.8731
  293TIP3   OH2  884   4.101   2.275   2.793 -0.1396 -0.3991  0.5401
  293TIP3    H1  885   4.129   2.205   2.734 -2.2815 -0.1033 -0.9310
  293TIP3    H2  886   4.070   2.229   2.871 -0.3348 -1.0222  0.1067
  294TIP3   OH2  887   4.355   5.728   1.766 -0.2022 -0.1187 -0.1368
  294TIP3    H1  888   4.303   5.661   1.813 -2.1830  0.9438 -0.6847
  294TIP3    H2  889   4.295   5.802   1.756  1.2243  0.9233 -1.4893
  295TIP3   OH2  890   3.008   2.223   3.299 -0.3355 -0.8241  0.1000
  295TIP3    H1  891   3.030   2.312   3.329 -0.8930 -0.0369 -1.7178
  295TIP3    H2  892   2.912   2.222   3.296 -0.3158 -1.3350 -0.3474
  296TIP3   OH2  893   4.871   1.950   1.363  0.4755  0.0316  0.2100
  296TIP3    H1  894   4.855   1.932   1.456  2.4112 -2.8204  0.1091
  296TIP3    H2  895   4.793   1.918   1.319  0.4974 -0.7454  0.7114
  297TIP3   OH2  896   3.768   5.483   2.281 -0.0726  0.6923 -0.5789
  297TIP3    H1  897   3.770   5.503   2.187  0.7627  0.6043 -0.5892
  297TIP3    H2  898   3.850   5.520   2.315  0.5916 -0.9925 -0.2573
  298TIP3   OH2  899   2.953   5.654   1.358  0.0986  0.3722  0.2377
  298TIP3    H1  900   2.865   5.642   1.395  0.2866  0.5340  0.7395
  298TIP3    H2  901   2.988   5.565   1.350 -0.1039  0.3082  0.0464
  299TIP3   OH2  902   0.533   5.695   3.489 -0.1639 -0.7860  0.0020
  299TIP3    H1  903   0.469   5.652   3.433  0.4650 -2.5314  0.5407
  299TIP3    H2  904   0.540   5.784   3.455 -1.8500 -0.9672 -0.9064
  300TIP3   OH2  905   1.988   3.504   1.768 -0.1863  0.1725  0.0214
  300TIP3    H1  906   1.914   3.445   1.781 -0.5310  1.0067  2.2053
  300TIP3    H2  907   1.950   3.591   1.772  0.6322  0.6034 -1.0149
  301TIP3   OH2  908   2.679   3.148   0.005 -1.2785  0.0657 -0.0629
  301TIP3    H1  909   2.609   3.152   0.071  1.2214  1.4889  2.7198
  301TIP3    H2  910   2.752   3.105   0.050  0.8379  1.8400 -1.5739
  302TIP3   OH2  911   5.716   2.531   1.251 -0.2095  0.4205  0.1541
  302TIP3    H1  912   5.747   2.601   1.193 -1.8754  1.4040  0.3724
  302TIP3    H2  913   5.631   2.562   1.282 -1.0414 -1.7321  0.2255
  303TIP3   OH2  914   5.138   2.802   3.718 -0.2350 -0.0932  0.1093
  303TIP3    H1  915   5.228   2.797   3.688 -0.2574 -1.4552  0.2277
  303TIP3    H2  916   5.086   2.763   3.648 -0.4286 -1.9009  1.1873
  304TIP3   OH2  917   2.546   1.763   2.523  0.2243  0.1263  0.2335
  304TIP3    H1  918   2.533   1.750   2.617  1.6084 -3.2408  0.1224
  304TIP3    H2  919   2.472   1.815   2.495 -0.8674  0.2299  3.0033
  305TIP3   OH2  920   6.127   5.010   2.856 -0.3075  0.8071 -0.2593
  305TIP3    H1  921   6.116   4.924   2.815  0.5892  0.4286  0.2662
  305TIP3    H2  922   6.221   5.015   2.874 -0.7325  0.7461  2.2091
  306TIP3   OH2  923   3.664   2.571   0.955  0.2816 -0.6455  0.3608
  306TIP3    H1  924   3.734   2.576   0.890 -0.5968  1.0763 -0.5245
  306TIP3    H2  925   3.583   2.583   0.905 -0.3816  1.4247  1.8068
  307TIP3   OH2  926   2.322   5.737   5.035  0.3394 -0.6317 -0.0434
  307TIP3    H1  927   2.380   5.709   5.105 -0.0566  1.6108  1.2815
  307TIP3    H2  928   2.373   5.802   4.987 -0.5929  0.4112  0.3417
  308TIP3   OH2  929   4.388   0.151   0.261 -0.1167 -0.0018  0.2873
  308TIP3    H1  930   4.302   0.145   0.303  0.6603  1.2311  2.1970
  308TIP3    H2  931   4.372   0.126   0.171 -2.0469 -2.0465  1.1062
  309TIP3   OH2  932   3.558   4.347   0.911  0.1141 -0.1180  0.6072
  309TIP3    H1  933   3.485   4.346   0.849 -0.1587 -0.9547  0.9158
  309TIP3    H2  934   3.634   4.372   0.859 -0.5269  1.6628  0.4659
  310TIP3   OH2  935   2.930   3.864   2.218  0.0128 -0.4996 -0.1138
  310TIP3    H1  936   2.850   3.911   2.240  0.6924  0.2938  0.7339
  310TIP3    H2  937   2.918   3.839   2.126 -1.8456 -1.7481  0.4167
  311TIP3   OH2  938   2.469   1.785   1.234 -0.1314 -0.2620  0.5122
  311TIP3    H1  939   2.559   1.766   1.263  0.0718  0.0103  0.0707
  311TIP3    H2  940   2.463   1.744   1.147 -0.1786  0.4004  0.2023
  312TIP3   OH2  941   0.447   3.367   2.611 -0.0929 -0.5289  0.3174
  312TIP3    H1  942   0.531   3.357   2.655  0.3368  3.2928  0.6844
  312TIP3    H2  943   0.383   3.372   2.681 -0.0511  0.5430  0.3013
  313TIP3   OH2  944   6.270   2.221   0.466 -0.1555  0.2528 -0.0760
  313TIP3    H1  945   6.259   2.167   0.388 -0.7258  1.0004 -0.5227
  313TIP3    H2  946   6.365   2.235   0.472 -0.0369 -0.4622 -0.1752
  314TIP3   OH2  947   3.056   2.253   0.313 -0.1512  0.0622 -0.4167
  314TIP3    H1  948   2.978   2.199   0.324  1.0281 -1.7778 -0.7241
  314TIP3    H2  949   3.022   2.338   0.284 -2.1052 -0.2597  0.7408
  315TIP3   OH2  950   4.724   3.612   3.592  0.1318  0.4966  0.1801
  315TIP3    H1  951   4.769   3.695   3.576  1.8003 -0.2968  0.5151
  315TIP3    H2  952   4.675   3.625   3.673  0.6772  1.0443  0.4260
  316TIP3   OH2  953   0.347   5.854   0.873  0.3856 -0.3218  0.5521
  316TIP3    H1  954   0.313   5.937   0.905 -1.3891 -0.1940 -1.4359
  316TIP3    H2  955   0.314   5.788   0.933 -0.1526  0.1842  0.8132
  317TIP3   OH2  956   6.084   3.463   1.682 -0.0669 -1.2942 -0.3557
  317TIP3    H1  957   6.005   3.518   1.677 -0.0120 -1.2208 -0.4204
  317TIP3    H2  958   6.133   3.485   1.603 -0.4436 -2.0482 -0.8078
  318TIP3   OH2  959   3.899   1.932   4.948 -0.3759 -0.6884 -0.1008
  318TIP3    H1  960   3.890   1.910   5.041 -2.0480 -0.8906 -0.2791
  318TIP3    H2  961   3.969   1.875   4.916 -0.6252 -1.5058  0.7707
  319TIP3   OH2  962   4.201   3.235   4.146 -0.4578  1.1453 -0.9082
  319TIP3    H1  963   4.206   3.149   4.104  0.6750  1.7726 -2.1345
  319TIP3    H2  964   4.109   3.245   4.171 -0.4987 -0.6520 -0.2087
  320TIP3   OH2  965   1.668   4.479   3.145 -0.2047 -0.2390  0.1514
  320TIP3    H1  966   1.715   4.546   3.195  1.3809 -0.6449 -0.6916
  320TIP3    H2  967   1.733   4.409   3.133 -1.1527 -0.9886 -0.7712
  321TIP3   OH2  968   4.929   0.473   3.570  0.1071 -0.2222 -0.4991
  321TIP3    H1  969   4.840   0.448   3.596 -0.2727  0.8707 -0.6459
  321TIP3    H2  970   4.933   0.567   3.590  1.5472 -0.4426  0.3385
  322TIP3   OH2  971   2.319   3.619   2.112  0.5408  0.0613 -0.0967
  322TIP3    H1  972   2.285   3.644   2.026 -1.8780  3.0635  1.5381
  322TIP3    H2  973   2.415   3.621   2.101  0.3740 -1.8522 -3.1677
  323TIP3   OH2  974   3.659   2.553   3.308  0.1759 -0.2185 -0.6001
  323TIP3    H1  975   3.581   2.509   3.342  0.5180  0.2734  0.8602
  323TIP3    H2  976   3.624   2.628   3.259 -0.3077 -0.8305 -1.2246
  324TIP3   OH2  977   3.124   4.836   4.101  0.2545 -0.0379 -0.3035
  324TIP3    H1  978   3.166   4.776   4.040  3.4657  0.8868  0.7426
  324TIP3    H2  979   3.156   4.808   4.187 -1.1233  0.9506  0.5663
  325TIP3   OH2  980   1.885   2.407   2.733 -0.0856 -0.5002 -0.4031
  325TIP3    H1  981   1.815   2.441   2.788  0.2967  0.6231 -0.5819
  325TIP3    H2  982   1.925   2.485   2.695  1.1431 -1.1342 -0.4497
  326TIP3   OH2  983   4.699   3.696   2.163  0.1469 -0.2274 -0.3241
  326TIP3    H1  984   4.652   3.770   2.125 -1.0627 -0.4681  0.6047
  326TIP3    H2  985   4.640   3.621   2.149  0.5482 -0.6697  0.2963
  327TIP3   OH2  986   1.945   5.598   3.562  0.3157 -0.9116 -0.5387
  327TIP3    H1  987   1.955   5.585   3.468 -3.5862  0.4701 -1.3137
  327TIP3    H2  988   1.956   5.692   3.575 -2.8215 -0.4787 -0.3494
  328TIP3   OH2  989   5.151   0.265   2.628  0.4336  0.1922 -0.2927
  328TIP3    H1  990   5.147   0.238   2.720 -0.4584  0.0718 -0.3591
  328TIP3    H2  991   5.190   0.352   2.631  0.9954 -0.0684  0.1437
  329TIP3   OH2  992   5.307   4.489   2.435 -0.0572 -0.2484 -0.1576
  329TIP3    H1  993   5.218   4.460   2.450 -0.6921  1.6503  0.0517
  329TIP3    H2  994   5.349   4.417   2.387 -1.8629 -0.9141 -0.7986
  330TIP3   OH2  995   5.084   0.916   0.689 -1.0343 -0.7848  0.7754
  330TIP3    H1  996   5.022   0.979   0.653 -0.5454 -1.1613 -0.8212
  330TIP3    H2  997   5.066   0.835   0.641  0.1262 -1.1192  0.8795
  331TIP3   OH2  998   0.255   0.405   1.948 -0.0913 -0.1010 -0.0997
  331TIP3    H1  999   0.279   0.313   1.956 -0.9453 -0.3048  0.1961
  331TIP3    H2 1000   0.312   0.451   2.010  1.8544 -0.1261 -1.7553
  332TIP3   OH2 1001   2.915   1.218   0.116  0.0471 -0.2692 -0.0306
  332TIP3    H1 1002   2.977   1.291   0.116 -0.9240  0.5800  0.2994
  332TIP3    H2 1003   2.842   1.248   0.061 -1.6220  0.1557  2.2376
  333TIP3   OH2 1004   2.061   3.580   0.067  0.9649 -0.4577  0.5695
  333TIP3    H1 1005   2.153   3.607   0.065  0.9174 -0.3270 -0.6349
  333TIP3    H2 1006   2.063   3.487   0.088  1.4980 -0.8469 -1.0198
  334TIP3   OH2 1007   4.755   0.758   3.890  0.2529  0.5662  0.4761
  334TIP3    H1 1008   4.786   0.848   3.889  0.3680  0.5776 -1.8337
  334TIP3    H2 1009   4.737   0.738   3.798 -1.2331 -1.2769  1.0922
  335TIP3   OH2 1010   1.172   1.487   4.147  0.1983 -0.1915 -0.3762
  335TIP3    H1 1011   1.120   1.549   4.198  0.1787 -1.5290  1.3210
  335TIP3    H2 1012   1.262   1.501   4.175  0.0135 -2.0693  1.4157
  336TIP3   OH2 1013   2.531   5.654   2.175 -0.2089  0.3245  0.2949
  336TIP3    H1 1014   2.531   5.663   2.270 -3.0152  0.2192  0.3943
  336TIP3    H2 1015   2.571   5.735   2.143 -1.2017  1.3712  1.5658
  337TIP3   OH2 1016   1.554   4.333   1.295 -0.0928 -0.1040  0.0344
  337TIP3    H1 1017   1.600   4.389   1.233 -1.4780  1.0939  0.0192
  337TIP3    H2 1018   1.517   4.262   1.242  0.7692 -0.4554 -0.1101
  338TIP3   OH2 1019   4.975   5.035   0.732 -0.7544  0.8095  0.1967
  338TIP3    H1 1020   4.981   4.943   0.756 -0.2032  0.4989 -1.0333
  338TIP3    H2 1021   4.881   5.055   0.736 -0.8490  0.2698  0.7272
  339TIP3   OH2 1022   3.796   1.073   4.841  0.4739 -0.7199  0.1725
  339TIP3    H1 1023   3.830   1.140   4.783  0.6761  0.1450  1.2701
  339TIP3    H2 1024   3.757   1.008   4.782  2.7592 -1.0841 -1.0559
  340TIP3   OH2 1025   2.125   1.357   4.241 -0.3426  0.1404 -0.0208
  340TIP3    H1 1026   2.156   1.272   4.209  0.0770  0.5868 -0.8247
  340TIP3    H2 1027   2.187   1.421   4.204 -0.0346  0.7140  1.4152
  341TIP3   OH2 1028   0.107   2.449   1.701  0.3263  0.1495  0.6880
  341TIP3    H1 1029   0.130   2.384   1.635 -0.1085 -0.0988  0.7741
  341TIP3    H2 1030   0.046   2.403   1.759 -0.5014  0.8406  0.3707
  342TIP3   OH2 1031   5.775   5.511   5.036  0.0413 -0.1303  0.2311
  342TIP3    H1 1032   5.774   5.513   4.941 -1.2455 -0.4474  0.2180
  342TIP3    H2 1033   5.759   5.602   5.062 -3.8969 -0.5926  0.0544
  343TIP3   OH2 1034   0.137   3.855   4.679  0.2903  0.5227  0.1461
  343TIP3    H1 1035   0.104   3.922   4.740 -0.0148  1.4353 -0.9832
  343TIP3    H2 1036   0.104   3.773   4.714  0.5873  0.9579  1.5246
  344TIP3   OH2 1037   0.840   3.204   0.926  0.6039  0.3138 -0.3527
  344TIP3    H1 1038   0.785   3.212   0.849  0.2218  0.5449 -0.0583
  344TIP3    H2 1039   0.929   3.219   0.894  0.2703  2.5494 -0.4224
  345TIP3   OH2 1040   3.920   1.845   4.657  0.4303 -0.0372  0.0408
  345TIP3    H1 1041   3.857   1.912   4.684  2.2547  1.4880  0.7036
  345TIP3    H2 1042   3.960   1.815   4.738 -0.7127 -2.3844 -0.1871
  346TIP3   OH2 1043   4.902   1.785   5.173  0.2874  0.3313 -0.4251
  346TIP3    H1 1044   4.924   1.817   5.086  1.2734 -0.2109 -0.3895
  346TIP3    H2 1045   4.807   1.784   5.175  0.2362 -0.5708 -1.8492
  347TIP3   OH2 1046   6.002   4.177   2.862  0.3091 -0.2684  0.0889
  347TIP3    H1 1047   6.011   4.192   2.768 -2.3526 -0.6372 -0.2817
  347TIP3    H2 1048   5.995   4.265   2.900  2.1742 -0.0820  0.0948
  348TIP3   OH2 1049   4.050   5.712   1.227 -0.1078  0.7695  0.6018
  348TIP3    H1 1050   3.971   5.669   1.193 -0.5796  0.9477  1.4344
  348TIP3    H2 1051   4.108   5.640   1.251 -0.0368  0.6365  0.0547
  349TIP3   OH2 1052   3.607   5.488   5.159 -0.2557  0.2198  0.0816
  349TIP3    H1 1053   3.525   5.456   5.120 -0.0113  0.5680 -0.7330
  349TIP3    H2 1054   3.581   5.522   5.244 -0.7115 -1.0938  0.4927
  350TIP3   OH2 1055   1.198   3.734   1.183 -0.3314 -0.2722 -0.0835
  350TIP3    H1 1056   1.141   3.658   1.197 -0.0825 -0.2908  0.9661
  350TIP3    H2 1057   1.282   3.707   1.219 -0.2297  0.4855  0.2646
  351TIP3   OH2 1058   1.462   2.386   1.396 -0.0846 -0.5445  0.5126
  351TIP3    H1 1059   1.436   2.376   1.488  0.6679 -0.2568  0.7664
  351TIP3    H2 1060   1.503   2.303   1.373 -0.8953 -0.8705  0.2188
  352TIP3   OH2 1061   6.060   5.139   1.080  0.0477 -0.3954 -0.4928
  352TIP3    H1 1062   6.048   5.202   1.009 -0.2319 -0.3462 -0.4033
  352TIP3    H2 1063   6.090   5.192   1.154  0.8627 -0.5182 -0.7181
  353TIP3   OH2 1064   4.243   3.554   4.171  0.3685  0.3365  0.6385
  353TIP3    H1 1065   4.275   3.467   4.193  0.1582  0.2167  0.4661
  353TIP3    H2 1066   4.159   3.561   4.217  0.5277  0.5619  0.8990
  354TIP3   OH2 1067   6.260   1.003   5.165  0.4940 -0.3116  0.0433
  354TIP3    H1 1068   6.192   1.018   5.099  0.1159 -0.3918  0.4099
  354TIP3    H2 1069   6.342   1.028   5.122  0.1903  0.1362 -0.2830
  355TIP3   OH2 1070   2.157   3.287   1.716  0.6821 -0.1423 -0.0514
  355TIP3    H1 1071   2.162   3.282   1.621  1.1910  0.2897 -0.0489
  355TIP3    H2 1072   2.113   3.370   1.734  1.3128  0.1615  0.1044
  356TIP3   OH2 1073   3.359   2.630   2.968 -0.4066 -0.1355  0.2330
  356TIP3    H1 1074   3.410   2.573   2.910  1.5048  0.1414  1.5473
  356TIP3    H2 1075   3.295   2.572   3.009 -0.2299 -0.7945 -0.4132
  357TIP3   OH2 1076   1.994   2.669   2.687  0.0745  0.0963 -0.5294
  357TIP3    H1 1077   2.080   2.660   2.647 -0.1552  1.3849 -1.4011
  357TIP3    H2 1078   2.011   2.710   2.772  0.4082 -0.8233 -0.1426
  358TIP3   OH2 1079   0.821   2.649   1.998  0.6748  0.3957 -0.2768
  358TIP3    H1 1080   0.906   2.624   2.034 -0.7686 -0.6172  2.7622
  358TIP3    H2 1081   0.762   2.577   2.022 -1.5111  2.0554 -0.3344
  359TIP3   OH2 1082   0.334   1.966   4.752  0.5966  0.0514 -0.1157
  359TIP3    H1 1083   0.415   1.999   4.789  0.8047 -0.5318 -0.0482
  359TIP3    H2 1084   0.330   2.005   4.664  0.9781  0.0290 -0.1408
  360TIP3   OH2 1085   0.225   2.764   0.618 -1.2131 -0.6967 -0.0548
  360TIP3    H1 1086   0.262   2.718   0.694  1.2856  2.5690  0.9927
  360TIP3    H2 1087   0.180   2.839   0.656 -0.3946  0.7085 -1.7079
  361TIP3   OH2 1088   4.180   2.229   1.363 -0.6413  0.5157  0.4293
  361TIP3    H1 1089   4.104   2.279   1.331 -1.1052  0.7749  1.8607
  361TIP3    H2 1090   4.142   2.147   1.394 -0.5597  1.1297  2.2876
  362TIP3   OH2 1091   1.118   1.380   1.899  0.0009  0.2941  0.3599
  362TIP3    H1 1092   1.058   1.372   1.973 -1.5559  0.6301 -0.7962
  362TIP3    H2 1093   1.115   1.295   1.856  2.7362 -0.7037  1.9294
  363TIP3   OH2 1094   3.879   2.804   1.770 -0.2603  0.2664 -0.0319
  363TIP3    H1 1095   3.955   2.757   1.735 -1.3148 -2.3820  0.9564
  363TIP3    H2 1096   3.809   2.786   1.707 -0.4359  1.5010 -0.2070
  364TIP3   OH2 1097   2.338   2.121   3.410 -0.1178 -0.0446  0.1221
  364TIP3    H1 1098   2.352   2.059   3.482  0.2150 -1.2140 -0.9200
  364TIP3    H2 1099   2.250   2.156   3.426  0.2691  0.3447  1.5432
  365TIP3   OH2 1100   1.775   5.191   2.133 -0.0098  0.3329  0.4775
  365TIP3    H1 1101   1.740   5.260   2.076 -1.5544 -1.6714 -1.1555
  365TIP3    H2 1102   1.853   5.160   2.089  0.0502  0.2685  0.6272
  366TIP3   OH2 1103   2.413   4.004   3.615 -0.3874 -0.8660  0.1708
  366TIP3    H1 1104   2.456   3.961   3.541  0.7601  0.8224 -0.2086
  366TIP3    H2 1105   2.468   3.982   3.691 -0.7629 -1.4394  0.2797
  367TIP3   OH2 1106   1.262   1.125   2.881 -0.4048  0.3459  0.0624
  367TIP3    H1 1107   1.174   1.141   2.914 -1.1659  1.1516 -2.1729
  367TIP3    H2 1108   1.249   1.083   2.796  1.4236 -1.3719  0.5404
  368TIP3   OH2 1109   2.407   0.826   4.352  0.2263 -0.3386 -0.0894
  368TIP3    H1 1110   2.405   0.921   4.341 -1.0360 -0.4396 -0.9345
  368TIP3    H2 1111   2.457   0.794   4.277  1.0308 -0.3345  0.4279
  369TIP3   OH2 1112   5.593   5.591   3.503  0.1191 -0.1653  0.3662
  369TIP3    H1 1113   5.502   5.567   3.522 -0.0700  1.0982  1.2367
  369TIP3    H2 1114   5.642   5.510   3.514 -0.3425 -0.1198  4.0716
  370TIP3   OH2 1115   0.070   0.057   3.391  0.1438  0.3754 -0.4634
  370TIP3    H1 1116   0.006   0.049   3.320 -2.8528 -0.3358  2.0858
  370TIP3    H2 1117   0.088  -0.033   3.417  2.0580  0.5854 -0.9085
  371TIP3   OH2 1118   5.823   4.437   0.444 -0.2030  0.3586  0.4104
  371TIP3    H1 1119   5.907   4.394   0.458 -0.8567 -1.1745 -0.2070
  371TIP3    H2 1120   5.804   4.480   0.527  0.7685 -0.0267  0.8449
  372TIP3   OH2 1121   4.140   1.835   2.455 -0.1235  0.3183 -0.3082
  372TIP3    H1 1122   4.179   1.860   2.371  0.9041  0.9618  0.3364
  372TIP3    H2 1123   4.182   1.752   2.476  0.2940  0.5958 -0.0192
  373TIP3   OH2 1124   6.223   0.593   0.245 -0.4945  0.1073 -0.1818
  373TIP3    H1 1125   6.138   0.629   0.217  0.0781  0.5539 -1.4162
  373TIP3    H2 1126   6.205   0.501   0.264 -1.4956  0.4650  0.7389
  374TIP3   OH2 1127   3.387   2.654   0.884  0.2817 -0.4149  0.2586
  374TIP3    H1 1128   3.356   2.592   0.818 -1.6266  0.1319  0.5692
  374TIP3    H2 1129   3.317   2.656   0.949  1.1384  0.7085  1.1822
  375TIP3   OH2 1130   1.225   2.822   4.299 -0.1447  0.1015 -0.0919
  375TIP3    H1 1131   1.302   2.773   4.329 -0.8231 -0.9808 -0.0874
  375TIP3    H2 1132   1.200   2.874   4.376  0.0061 -0.2780  0.2208
  376TIP3   OH2 1133   0.402   5.053   2.561  0.3782  0.4597 -0.2198
  376TIP3    H1 1134   0.314   5.058   2.524  0.1470 -2.2191 -0.2703
  376TIP3    H2 1135   0.395   5.093   2.647 -1.3313 -1.0471  0.3933
  377TIP3   OH2 1136   2.229   5.629   1.757  0.0673  1.0049 -0.1299
  377TIP3    H1 1137   2.279   5.694   1.806  1.1064  1.1178 -1.2820
  377TIP3    H2 1138   2.292   5.592   1.696 -1.5283  2.1972 -2.6786
  378TIP3   OH2 1139   3.827   0.627   4.381 -0.7120  0.1592  0.4224
  378TIP3    H1 1140   3.803   0.637   4.473  0.0385  0.1163  0.6325
  378TIP3    H2 1141   3.846   0.534   4.371  0.3671  0.3519  0.5301
  379TIP3   OH2 1142   4.552   2.743   0.091 -0.2830 -0.3749 -0.2293
  379TIP3    H1 1143   4.557   2.648   0.081  0.1827 -0.9379  3.7267
  379TIP3    H2 1144   4.461   2.765   0.069 -0.1672 -1.5143 -2.0864
  380TIP3   OH2 1145   2.989   1.721   4.373  0.2312  0.1996  0.0691
  380TIP3    H1 1146   2.994   1.811   4.341 -2.4409  0.0690 -0.9359
  380TIP3    H2 1147   2.992   1.730   4.468 -0.9180  1.4802  0.0273
  381TIP3   OH2 1148   0.943   1.785   3.427 -0.0527  0.1446 -0.2141
  381TIP3    H1 1149   0.937   1.691   3.440 -0.3758  0.2201  0.1986
  381TIP3    H2 1150   0.892   1.802   3.348 -3.1041  0.4038  1.6244
  382TIP3   OH2 1151   5.890   4.938   1.170  0.3139  0.1558 -0.3022
  382TIP3    H1 1152   5.934   5.005   1.117 -0.9130 -0.5397 -2.3449
  382TIP3    H2 1153   5.812   4.982   1.203 -0.6564 -0.2756 -1.9029
  383TIP3   OH2 1154   3.867   1.519   3.467 -0.1079 -0.2191 -0.2561
  383TIP3    H1 1155   3.817   1.478   3.538 -2.3105  2.1195 -0.2926
  383TIP3    H2 1156   3.829   1.482   3.387 -1.1181  0.7347 -0.2535
  384TIP3   OH2 1157   2.543   4.716   4.175  0.5718  0.2218  0.7541
  384TIP3    H1 1158   2.589   4.675   4.248 -0.4530 -0.1860  1.2051
  384TIP3    H2 1159   2.538   4.647   4.108  1.9096  0.7398  0.1047
  385TIP3   OH2 1160   5.127   4.567   0.117  1.0245  0.0374 -0.4171
  385TIP3    H1 1161   5.063   4.613   0.063  1.8406 -0.1126 -1.5592
  385TIP3    H2 1162   5.099   4.476   0.115 -0.5282  0.3767  1.7525
  386TIP3   OH2 1163   2.052   1.025   1.861  0.7129  0.1956  0.0498
  386TIP3    H1 1164   2.128   1.033   1.804 -0.3515  1.0373 -1.3118
  386TIP3    H2 1165   1.980   1.001   1.803  0.1139 -1.6682  1.4517
  387TIP3   OH2 1166   5.833   1.245   1.947  0.1836  0.0573  0.3136
  387TIP3    H1 1167   5.916   1.200   1.935 -0.0477 -0.4125  0.4370
  387TIP3    H2 1168   5.800   1.213   2.031 -0.2510  0.0339  0.1363
  388TIP3   OH2 1169   3.647   3.907   4.095 -0.4047 -0.8565 -0.5081
  388TIP3    H1 1170   3.607   3.870   4.174 -1.6958  0.5827 -0.4378
  388TIP3    H2 1171   3.734   3.937   4.124 -0.1623 -1.9431 -0.0824
  389TIP3   OH2 1172   0.875   5.749   1.337  0.5462 -0.0675 -0.0680
  389TIP3    H1 1173   0.925   5.736   1.257  0.0213  0.5178 -0.5027
  389TIP3    H2 1174   0.789   5.711   1.318  1.0261 -1.7772  0.9428
  390TIP3   OH2 1175   2.355   3.741   1.361  0.2437  0.0252  0.2646
  390TIP3    H1 1176   2.340   3.652   1.331  0.7318  1.3721 -5.1860
  390TIP3    H2 1177   2.451   3.749   1.365  0.2042  0.2992  0.7649
  391TIP3   OH2 1178   5.980   2.821   3.068 -0.4536 -0.3288  0.1871
  391TIP3    H1 1179   5.935   2.868   3.138 -0.3636  0.3636 -0.2081
  391TIP3    H2 1180   5.910   2.800   3.005 -0.3781 -0.0830  0.0204
  392TIP3   OH2 1181   2.712   4.974   4.860 -0.2499 -0.1958 -0.0148
  392TIP3    H1 1182   2.803   4.975   4.831 -0.1670 -1.4152  0.1664
  392TIP3    H2 1183   2.663   4.939   4.786 -0.4203 -0.5655  0.2685
  393TIP3   OH2 1184   2.484   0.973   1.833  0.3817  0.0113  0.2742
  393TIP3    H1 1185   2.516   0.908   1.895 -1.0458 -0.7261  0.2900
  393TIP3    H2 1186   2.561   0.998   1.781  1.5642  0.5104  2.1791
  394TIP3   OH2 1187   0.610   3.710   4.100 -0.0100  0.3106 -0.1942
  394TIP3    H1 1188   0.547   3.730   4.169  0.1223  0.5228 -0.1338
  394TIP3    H2 1189   0.560   3.715   4.019  0.4594  3.1031 -0.4063
  395TIP3   OH2 1190   3.037   5.128   4.121 -0.1051  0.0678  0.5307
  395TIP3    H1 1191   3.044   5.033   4.110 -1.5026  0.0285 -0.3136
  395TIP3    H2 1192   2.977   5.138   4.195 -1.6412  0.2368 -0.6786
  396TIP3   OH2 1193   2.704   3.583   3.977  0.7348 -0.0424 -0.1082
  396TIP3    H1 1194   2.735   3.580   3.886  2.3598 -2.5744  0.4057
  396TIP3    H2 1195   2.751   3.657   4.016  1.2009  0.1162 -0.9460
  397TIP3   OH2 1196   4.228   0.987   4.786 -0.1085 -0.3680  0.0974
  397TIP3    H1 1197   4.143   0.951   4.758  0.9702 -3.5815  0.5303
  397TIP3    H2 1198   4.242   0.950   4.873  1.9424 -0.3541 -0.1750
  398TIP3   OH2 1199   5.226   0.946   3.529  0.2675  0.0525  0.1178
  398TIP3    H1 1200   5.164   0.890   3.483  1.0241  0.1020 -1.0124
  398TIP3    H2 1201   5.177   0.980   3.603 -1.3670  0.8595 -1.2641
  399TIP3   OH2 1202   4.942   4.670   3.570 -0.4200  0.1762  0.0217
  399TIP3    H1 1203   4.897   4.603   3.621  1.4167  0.4914  2.2140
  399TIP3    H2 1204   4.882   4.744   3.569 -1.8047 -0.9153 -1.0619
  400TIP3   OH2 1205   2.481   5.163   1.226 -0.0535 -0.1495  0.2826
  400TIP3    H1 1206   2.392   5.155   1.259 -0.3194 -2.6492 -0.7891
  400TIP3    H2 1207   2.506   5.254   1.244 -3.0998  0.8780 -0.1445
  401TIP3   OH2 1208   0.345   3.103   4.639 -0.2015 -0.2071 -0.3641
  401TIP3    H1 1209   0.310   3.043   4.706  2.4767  0.3321  1.6713
  401TIP3    H2 1210   0.312   3.189   4.665  0.9749  0.0272  0.4586
  402TIP3   OH2 1211   2.561   5.705   2.755 -0.2865  0.1470  0.0400
  402TIP3    H1 1212   2.514   5.777   2.713  0.7086  2.0855  2.0659
  402TIP3    H2 1213   2.653   5.725   2.742  0.0236 -1.3395 -0.2250
  403TIP3   OH2 1214   1.497   4.240   4.065 -0.4677  0.4024  0.1362
  403TIP3    H1 1215   1.572   4.226   4.123 -0.2335  0.9513 -0.0366
  403TIP3    H2 1216   1.421   4.235   4.124 -0.3829 -1.0977  0.1712
  404TIP3   OH2 1217   4.731   3.375   1.892  0.5055  0.0421  0.9005
  404TIP3    H1 1218   4.754   3.459   1.933 -0.7337  0.3265  1.0328
  404TIP3    H2 1219   4.668   3.398   1.824 -1.3556 -0.9670  2.2111
  405TIP3   OH2 1220   0.041   5.441   4.014  0.2395  0.3842 -0.7525
  405TIP3    H1 1221  -0.031   5.379   4.011  1.1798 -0.7433 -0.5024
  405TIP3    H2 1222   0.026   5.491   4.095  0.1549 -0.3599 -0.3050
  406TIP3   OH2 1223   4.900   2.806   1.496 -0.0594 -0.2876  0.0309
  406TIP3    H1 1224   4.852   2.758   1.564  0.6152 -1.3991 -0.2463
  406TIP3    H2 1225   4.877   2.761   1.415  0.2557  0.1405 -0.3015
  407TIP3   OH2 1226   4.405   1.647   2.760  0.2406 -0.4799 -0.0310
  407TIP3    H1 1227   4.389   1.678   2.671 -0.3280  0.4758  0.3791
  407TIP3    H2 1228   4.500   1.653   2.771  0.1690  1.1955  0.0220
  408TIP3   OH2 1229   5.069   1.733   2.559  0.2350  0.2372 -0.4096
  408TIP3    H1 1230   5.161   1.726   2.534 -0.0417 -1.5432 -1.1259
  408TIP3    H2 1231   5.070   1.757   2.652  1.4318 -0.5324 -0.2096
  409TIP3   OH2 1232   1.273   5.278   0.353  0.1106  0.4159 -0.3417
  409TIP3    H1 1233   1.347   5.219   0.343 -0.0120  0.3164 -0.6626
  409TIP3    H2 1234   1.212   5.229   0.409 -0.2731 -0.0323 -1.1358
  410TIP3   OH2 1235   5.311   0.661   4.752 -0.1623  0.0454 -0.2306
  410TIP3    H1 1236   5.225   0.660   4.794 -0.7844 -1.8343 -1.4318
  410TIP3    H2 1237   5.297   0.707   4.669 -0.3800 -1.4681 -1.0642
  411TIP3   OH2 1238   5.501   4.167   4.419  0.5964 -0.0282  0.2064
  411TIP3    H1 1239   5.531   4.086   4.459 -1.1625 -0.4108  0.8457
  411TIP3    H2 1240   5.516   4.234   4.485 -2.5607 -0.7020  1.8209
  412TIP3   OH2 1241   4.274   5.492   3.458  0.1305  0.2854  0.0165
  412TIP3    H1 1242   4.349   5.443   3.425  0.4741  0.1411  0.9991
  412TIP3    H2 1243   4.252   5.452   3.542 -2.0363 -0.6740 -0.9298
  413TIP3   OH2 1244   1.470   3.481   4.664 -0.1893 -0.5766 -0.4346
  413TIP3    H1 1245   1.390   3.460   4.616 -1.9150  1.4275  1.3570
  413TIP3    H2 1246   1.539   3.481   4.597 -1.5910 -2.5707 -1.9964
  414TIP3   OH2 1247   6.213   4.576   3.836  0.2051 -0.2566  0.5801
  414TIP3    H1 1248   6.152   4.515   3.794 -2.0839 -1.0612  4.5286
  414TIP3    H2 1249   6.277   4.520   3.880  0.3871  0.3195  1.0617
  415TIP3   OH2 1250   5.381   2.874   1.092 -0.2604 -0.6776 -0.7331
  415TIP3    H1 1251   5.401   2.916   1.176 -4.9364  0.8787 -0.0924
  415TIP3    H2 1252   5.429   2.926   1.027 -1.1904  2.0398  0.5830
  416TIP3   OH2 1253   0.393   1.275   2.449  0.0569  0.1083 -0.2847
  416TIP3    H1 1254   0.316   1.328   2.471  0.5412  1.1156 -0.9332
  416TIP3    H2 1255   0.365   1.221   2.376 -0.8393 -1.5341  1.1927
  417TIP3   OH2 1256   4.860   5.660   2.657  0.0994 -0.1406  0.1996
  417TIP3    H1 1257   4.829   5.669   2.747 -0.4378 -0.6388  0.0695
  417TIP3    H2 1258   4.818   5.732   2.610  0.1229 -0.0740  0.2792
  418TIP3   OH2 1259   4.030   2.915   3.293  0.6016  0.0095 -0.7099
  418TIP3    H1 1260   3.975   2.837   3.285  1.0763 -0.5318  0.9817
  418TIP3    H2 1261   3.973   2.981   3.333  0.2604  0.5108 -1.9571
  419TIP3   OH2 1262   5.197   0.564   0.543  0.6190 -0.3075 -0.2427
  419TIP3    H1 1263   5.105   0.590   0.538  0.4079 -0.5663  1.6065
  419TIP3    H2 1264   5.228   0.600   0.626  2.6335  1.0528 -1.5095
  420TIP3   OH2 1265   4.907   5.468   1.114 -0.3198  0.0391 -0.0516
  420TIP3    H1 1266   4.885   5.391   1.062 -0.4164  0.4330 -0.6026
  420TIP3    H2 1267   4.936   5.533   1.050 -0.5802  0.5838  0.3742
  421TIP3   OH2 1268   0.373   0.606   1.270 -0.3377 -0.2921 -0.4564
  421TIP3    H1 1269   0.465   0.613   1.248 -0.1768  0.5864  0.4436
  421TIP3    H2 1270   0.368   0.525   1.322 -0.2536 -0.8430 -1.2764
  422TIP3   OH2 1271   2.294   1.943   0.723  0.9877 -0.0358  0.1841
  422TIP3    H1 1272   2.317   2.023   0.770  1.1604 -1.3673  2.5343
  422TIP3    H2 1273   2.199   1.948   0.713  0.5620 -0.8028  3.0255
  423TIP3   OH2 1274   2.875   0.813   2.918 -0.2694  0.0572  0.2251
  423TIP3    H1 1275   2.835   0.884   2.969 -0.2488  0.7907 -0.7507
  423TIP3    H2 1276   2.824   0.810   2.837 -0.4226 -1.2196  0.3469
  424TIP3   OH2 1277   4.160   5.363   3.086 -0.3673 -0.1308  0.6671
  424TIP3    H1 1278   4.246   5.320   3.090 -0.4139 -0.5083 -1.3827
  424TIP3    H2 1279   4.122   5.347   3.172  0.4332 -2.5112  0.6591
  425TIP3   OH2 1280   4.007   3.537   3.204 -0.1714 -0.2965  0.6700
  425TIP3    H1 1281   3.953   3.553   3.281  0.8002  3.4263  0.7751
  425TIP3    H2 1282   4.093   3.513   3.240 -0.2006 -0.4273  0.6564
  426TIP3   OH2 1283   5.036   1.458   0.069 -0.1579 -0.2784  0.0053
  426TIP3    H1 1284   5.100   1.509   0.120 -1.1648  1.4010 -0.3234
  426TIP3    H2 1285   5.077   1.447  -0.017 -0.4651  1.2188 -0.3619
  427TIP3   OH2 1286   4.126   2.182   3.041  0.2965 -0.6756  0.2730
  427TIP3    H1 1287   4.036   2.175   3.072  0.3798 -3.9983  0.0730
  427TIP3    H2 1288   4.176   2.208   3.118 -0.7132  0.7656  0.4898
  428TIP3   OH2 1289   4.893   3.740   2.740  0.0472  0.6125 -0.4100
  428TIP3    H1 1290   4.894   3.834   2.756 -1.7250  0.7204 -0.7548
  428TIP3    H2 1291   4.880   3.730   2.646  0.9833  0.0039 -0.4922
  429TIP3   OH2 1292   6.071   2.719   2.691  0.1564 -0.3717  0.4022
  429TIP3    H1 1293   6.147   2.707   2.747 -0.2361 -0.9838  0.8276
  429TIP3    H2 1294   6.084   2.803   2.649  2.1848 -1.4336 -1.2671
  430TIP3   OH2 1295   1.742   2.430   1.924 -0.5138 -0.3131  0.0308
  430TIP3    H1 1296   1.734   2.467   2.012 -0.0967  0.2949 -0.1811
  430TIP3    H2 1297   1.778   2.343   1.938 -0.5196 -0.2482  0.4639
  431TIP3   OH2 1298   0.166   5.382   4.979 -0.2190  0.1132 -0.6209
  431TIP3    H1 1299   0.086   5.349   4.939 -0.8885  0.0038  0.7303
  431TIP3    H2 1300   0.180   5.467   4.939 -1.5528  0.5500 -0.2148
  432TIP3   OH2 1301   1.084   3.158   2.423 -0.1804 -0.3930 -0.3817
  432TIP3    H1 1302   1.178   3.172   2.428 -0.4585  1.1687  1.9178
  432TIP3    H2 1303   1.054   3.221   2.358  0.3258 -0.7318 -0.9499
  433TIP3   OH2 1304   3.190   0.511   0.634 -0.0509 -0.1413 -0.0018
  433TIP3    H1 1305   3.124   0.472   0.692  0.5866 -1.0231  0.1394
  433TIP3    H2 1306   3.191   0.604   0.659 -1.4368 -0.0478 -0.2081
  434TIP3   OH2 1307   0.511   2.518   1.077 -0.0403 -0.2977  0.1020
  434TIP3    H1 1308   0.579   2.460   1.111  0.6212  1.3517  1.7390
  434TIP3    H2 1309   0.559   2.579   1.020 -0.2506  0.3687  0.6249
  435TIP3   OH2 1310   2.467   2.956   1.794  0.2768 -0.2313  0.1473
  435TIP3    H1 1311   2.385   2.915   1.769  0.3554 -0.4339  0.2205
  435TIP3    H2 1312   2.444   3.046   1.815  0.1090 -0.2303 -0.0426
  436TIP3   OH2 1313   2.315   2.091   2.754 -0.4516 -0.0653  0.6573
  436TIP3    H1 1314   2.298   1.997   2.750 -1.3417  0.0752  0.8510
  436TIP3    H2 1315   2.296   2.116   2.844 -2.6083  0.6976  0.0602
  437TIP3   OH2 1316   5.861   4.670   0.207  0.0970  0.3517 -0.5654
  437TIP3    H1 1317   5.780   4.684   0.157 -1.6839  0.0748  2.0225
  437TIP3    H2 1318   5.836   4.608   0.276  1.5335  2.7277  2.3327
  438TIP3   OH2 1319   3.663   2.961   3.665 -0.0946  0.4825 -0.0708
  438TIP3    H1 1320   3.677   2.903   3.740  2.0991 -1.1979 -1.6463
  438TIP3    H2 1321   3.591   2.920   3.617  1.7751 -1.4466 -1.4549
  439TIP3   OH2 1322   3.954   0.822   3.845 -0.0531  0.0847  0.0805
  439TIP3    H1 1323   4.017   0.843   3.915  1.4578 -0.1398 -1.1582
  439TIP3    H2 1324   3.870   0.818   3.890  0.9995 -1.2365  2.1222
  440TIP3   OH2 1325   2.421   5.811   0.780  0.1425 -0.4196 -0.2144
  440TIP3    H1 1326   2.428   5.906   0.773  1.1503 -0.5295 -0.9778
  440TIP3    H2 1327   2.385   5.796   0.867  0.2357  0.6484  0.0281
  441TIP3   OH2 1328   3.672   3.330   4.715  0.0959  0.0540 -0.0218
  441TIP3    H1 1329   3.629   3.324   4.630  0.9526 -1.0774 -0.3994
  441TIP3    H2 1330   3.691   3.240   4.740  0.5968  0.4127  0.9883
  442TIP3   OH2 1331   0.641   0.100   3.781 -0.3249  0.5790 -0.0315
  442TIP3    H1 1332   0.636   0.146   3.864  0.5301 -1.4257  1.2054
  442TIP3    H2 1333   0.734   0.080   3.769 -0.2869  1.7203 -2.0175
  443TIP3   OH2 1334   0.765   5.409   3.667  0.4285  0.2788 -0.1903
  443TIP3    H1 1335   0.786   5.443   3.580  0.8497 -0.7861 -0.5280
  443TIP3    H2 1336   0.771   5.485   3.724 -0.5086  1.1384 -1.1738
  444TIP3   OH2 1337   5.945   4.250   3.197 -0.3127  0.6759 -0.0975
  444TIP3    H1 1338   5.894   4.209   3.268 -2.3215  0.0417 -1.8135
  444TIP3    H2 1339   5.972   4.176   3.142 -1.4398  1.3644 -1.6392
  445TIP3   OH2 1340   2.309   3.685   1.838  0.5916 -0.5001  0.5576
  445TIP3    H1 1341   2.298   3.780   1.843 -0.3988 -0.5496 -0.1779
  445TIP3    H2 1342   2.255   3.659   1.762  0.5284 -1.6854  0.9856
  446TIP3   OH2 1343   6.307   2.431   2.240  1.0139  0.2063 -0.0767
  446TIP3    H1 1344   6.212   2.424   2.242  1.1034 -1.3316  1.7659
  446TIP3    H2 1345   6.326   2.485   2.163 -1.4832  3.5275  1.4015
  447TIP3   OH2 1346   3.239   1.641   3.751  0.2133 -0.0999 -0.1118
  447TIP3    H1 1347   3.262   1.551   3.775 -0.7215 -0.2530  0.2373
  447TIP3    H2 1348   3.237   1.640   3.656  1.6992 -0.0578 -0.1714
  448TIP3   OH2 1349   2.996   3.435   3.321  0.3355  0.4305  0.7627
  448TIP3    H1 1350   3.023   3.344   3.318  0.8139  0.5445  1.3996
  448TIP3    H2 1351   2.900   3.432   3.326  0.4059 -0.0854  2.2346
  449TIP3   OH2 1352   4.446   5.908   0.778 -0.0376 -0.1719 -0.5143
  449TIP3    H1 1353   4.377   5.841   0.780 -1.2253  1.0146  1.3475
  449TIP3    H2 1354   4.518   5.869   0.827  0.1023 -0.8798 -1.2611
  450TIP3   OH2 1355   3.378   0.161   4.585  0.1199  0.6319  0.0533
  450TIP3    H1 1356   3.348   0.133   4.671  2.2748  1.3507  1.1074
  450TIP3    H2 1357   3.417   0.083   4.547 -0.2695  0.4727 -0.0287
  451TIP3   OH2 1358   1.603   0.434   1.516  0.1956  0.2549  0.2396
  451TIP3    H1 1359   1.650   0.464   1.438 -0.4880 -0.8786 -0.6552
  451TIP3    H2 1360   1.513   0.463   1.501 -0.2077 -1.0758 -0.0377
  452TIP3   OH2 1361   0.925   0.340   4.358 -0.2524  0.3433  0.1103
  452TIP3    H1 1362   0.967   0.366   4.440 -2.2506 -0.2927  1.3905
  452TIP3    H2 1363   0.837   0.376   4.364 -1.2386 -1.8080 -0.6269
  453TIP3   OH2 1364   1.013   4.992   1.609 -0.7210 -0.1289 -0.2366
  453TIP3    H1 1365   1.003   4.903   1.576 -3.0476  0.4282 -1.2842
  453TIP3    H2 1366   0.956   5.045   1.553  2.8821  2.6315 -1.7058
  454TIP3   OH2 1367   0.099   4.151   2.352 -0.3121  0.4384 -0.0238
  454TIP3    H1 1368   0.120   4.215   2.421 -0.2644  0.9427 -0.5004
  454TIP3    H2 1369   0.166   4.166   2.285 -0.3578 -0.0543 -0.1791
  455TIP3   OH2 1370   5.517   1.312   0.250 -0.0094  0.1107 -0.0049
  455TIP3    H1 1371   5.471   1.228   0.253  0.1913 -0.0198 -0.4688
  455TIP3    H2 1372   5.536   1.332   0.342 -1.3727  0.3975  0.2350
  456TIP3   OH2 1373   5.433   0.749   0.114 -0.0715 -0.2420 -0.2852
  456TIP3    H1 1374   5.408   0.726   0.203  0.4712  0.3326  0.0219
  456TIP3    H2 1375   5.430   0.845   0.112  1.1805 -0.1941 -0.5010
  457TIP3   OH2 1376   0.185   4.303   3.067 -0.7936  0.1933  0.1420
  457TIP3    H1 1377   0.243   4.263   3.002 -0.9230 -1.5387  1.0383
  457TIP3    H2 1378   0.136   4.229   3.103 -1.4180  1.2451  1.5077
  458TIP3   OH2 1379   1.282   1.706   3.908 -0.3189 -0.1174 -0.7415
  458TIP3    H1 1380   1.275   1.727   4.000 -1.3861  1.4435 -1.1599
  458TIP3    H2 1381   1.208   1.749   3.866  0.2274 -0.6457 -2.3607
  459TIP3   OH2 1382   2.351   5.489   4.188 -0.6192  0.1660 -0.1979
  459TIP3    H1 1383   2.410   5.559   4.216 -3.3439  1.3460  3.2575
  459TIP3    H2 1384   2.403   5.409   4.194  0.9366  1.2521  1.6875
  460TIP3   OH2 1385   0.443   2.195   4.313  0.5082  0.1571 -0.2971
  460TIP3    H1 1386   0.473   2.278   4.351  1.3655  1.1293 -2.8732
  460TIP3    H2 1387   0.522   2.154   4.278 -0.3132 -0.1093 -1.9662
  461TIP3   OH2 1388   3.711   4.523   1.075 -0.2114 -0.7633  0.3154
  461TIP3    H1 1389   3.775   4.452   1.066  0.2217 -0.1888 -2.0081
  461TIP3    H2 1390   3.652   4.510   1.001 -0.3121  1.0725  0.0290
  462TIP3   OH2 1391   4.998   1.207   0.277 -0.6350 -0.3792 -0.1775
  462TIP3    H1 1392   4.911   1.167   0.278 -1.0536  0.5142  0.0887
  462TIP3    H2 1393   4.997   1.266   0.202  0.0630 -1.0256 -0.7118
  463TIP3   OH2 1394   1.080   2.829   5.032  0.6759  0.4690  0.1137
  463TIP3    H1 1395   1.016   2.883   5.078 -0.0835 -2.3336  2.7495
  463TIP3    H2 1396   1.156   2.826   5.090  1.3435  0.0184 -0.7497
  464TIP3   OH2 1397   5.336   5.239   4.249 -0.1226 -0.4381 -0.4881
  464TIP3    H1 1398   5.410   5.207   4.198  0.2146  0.3621 -0.5289
  464TIP3    H2 1399   5.354   5.209   4.338 -1.2137 -2.6812 -0.9706
  465TIP3   OH2 1400   1.938   1.641   3.517  0.5409 -0.2073  0.3991
  465TIP3    H1 1401   1.905   1.710   3.574  0.3042  0.5544 -0.6274
  465TIP3    H2 1402   1.960   1.569   3.576  0.6458  0.6843  1.4798
  466TIP3   OH2 1403   3.954   1.521   1.279  0.0460 -0.4847 -0.4963
  466TIP3    H1 1404   3.910   1.478   1.352 -0.4204  0.4997 -0.1846
  466TIP3    H2 1405   3.941   1.614   1.295 -0.4106 -0.2608 -2.0566
  467TIP3   OH2 1406   5.407   1.057   3.360 -0.0437  0.5294  0.0604
  467TIP3    H1 1407   5.426   1.149   3.373 -0.7196  0.7476 -0.4535
  467TIP3    H2 1408   5.320   1.044   3.399  0.0573  0.1029  0.1582
  468TIP3   OH2 1409   1.340   1.814   1.586  0.1479 -0.3527 -1.0372
  468TIP3    H1 1410   1.431   1.799   1.611  0.2469  2.6170  0.8493
  468TIP3    H2 1411   1.307   1.877   1.650 -2.8005 -0.1510 -2.5650
  469TIP3   OH2 1412   3.374   2.261   2.526  0.2496  0.4147  0.1337
  469TIP3    H1 1413   3.387   2.244   2.433 -1.5793 -1.5337  0.1694
  469TIP3    H2 1414   3.401   2.352   2.538  0.1826  0.8145 -2.3548
  470TIP3   OH2 1415   3.729   4.097   3.189  0.0602 -0.1260  0.2786
  470TIP3    H1 1416   3.696   4.083   3.277 -1.2994  1.1808  0.0127
  470TIP3    H2 1417   3.659   4.066   3.132  1.7564 -2.9657 -0.4404
  471TIP3   OH2 1418   6.337   4.787   4.762  0.4114  0.0943  0.0396
  471TIP3    H1 1419   6.365   4.854   4.824 -1.0769  1.9379 -1.1795
  471TIP3    H2 1420   6.242   4.794   4.760  0.3027 -1.3061 -0.9643
  472TIP3   OH2 1421   1.489   5.784   4.073  0.0017 -0.0489  0.1353
  472TIP3    H1 1422   1.448   5.839   4.006 -0.1578 -0.9193 -0.4982
  472TIP3    H2 1423   1.503   5.843   4.147  0.9753  1.1479 -0.9548
  473TIP3   OH2 1424   5.099   1.248   4.041  0.1348  0.4684 -0.0653
  473TIP3    H1 1425   5.082   1.295   4.122 -0.7624  0.3838 -0.1946
  473TIP3    H2 1426   5.019   1.259   3.989  0.7291  0.5983 -0.9766
  474TIP3   OH2 1427   6.213   2.311   4.678  0.5203  0.1072  0.2434
  474TIP3    H1 1428   6.245   2.364   4.605 -2.1300  2.7974  0.8237
  474TIP3    H2 1429   6.238   2.360   4.756 -0.1299 -0.6367  0.9429
  475TIP3   OH2 1430   6.196   2.407   1.870 -0.4669  0.1686  0.2932
  475TIP3    H1 1431   6.255   2.458   1.926 -0.8525  1.7104 -0.6240
  475TIP3    H2 1432   6.175   2.329   1.922  2.3969 -0.4959  0.6233
  476TIP3   OH2 1433   1.534   0.794   0.712  0.2232 -0.5887  0.0352
  476TIP3    H1 1434   1.564   0.745   0.636  1.1285 -1.0456  0.6804
  476TIP3    H2 1435   1.531   0.885   0.683 -1.6268 -0.9907 -1.2230
  477TIP3   OH2 1436   5.628   2.478   4.575  0.3182  0.2935  0.4647
  477TIP3    H1 1437   5.590   2.565   4.585 -1.6202 -0.3230 -0.9063
  477TIP3    H2 1438   5.654   2.453   4.664  1.0114  2.2781  0.8589
  478TIP3   OH2 1439   0.993   0.556   2.361 -0.2970  0.1223 -0.1327
  478TIP3    H1 1440   0.970   0.649   2.357  2.3593  0.8511 -0.0068
  478TIP3    H2 1441   1.057   0.550   2.431  2.1492 -1.1694 -2.3239
  479TIP3   OH2 1442   3.041   3.426   4.651 -0.5285 -0.3408 -0.4509
  479TIP3    H1 1443   3.007   3.494   4.593 -1.3842 -0.6933 -0.3788
  479TIP3    H2 1444   3.123   3.398   4.610  1.7254  3.1085  1.2858
  480TIP3   OH2 1445   3.583   1.497   1.574  0.2958 -0.0518  0.4056
  480TIP3    H1 1446   3.556   1.499   1.666  0.1570 -0.2808  0.3686
  480TIP3    H2 1447   3.508   1.461   1.527  0.4778 -0.2172  0.2395
  481TIP3   OH2 1448   2.508   5.976   4.463 -0.2788 -0.1861  0.3342
  481TIP3    H1 1449   2.434   5.920   4.487  0.9010 -2.5341 -1.0874
  481TIP3    H2 1450   2.474   6.030   4.392 -1.3129  0.6338  1.4043
  482TIP3   OH2 1451   3.626   5.305   3.062  0.0171 -0.1056  0.2653
  482TIP3    H1 1452   3.698   5.249   3.088  0.2756  0.0418 -0.1284
  482TIP3    H2 1453   3.668   5.386   3.032 -0.2898 -0.1405 -0.2758
  483TIP3   OH2 1454   0.231   0.858   0.346 -0.5775  0.5246 -0.2729
  483TIP3    H1 1455   0.260   0.911   0.421 -1.3817  0.7156 -0.0880
  483TIP3    H2 1456   0.162   0.802   0.381 -0.6334  0.2734 -0.7700
  484TIP3   OH2 1457   2.214   0.365  -0.025 -0.6863 -0.3321 -0.2228
  484TIP3    H1 1458   2.177   0.279  -0.006 -2.6978  0.5316 -0.0098
  484TIP3    H2 1459   2.197   0.416   0.054 -0.7014  0.6400 -0.8351
  485TIP3   OH2 1460   1.281   3.760   2.106 -0.8655 -0.3156 -0.1232
  485TIP3    H1 1461   1.273   3.766   2.201 -0.3355 -0.3457 -0.0745
  485TIP3    H2 1462   1.372   3.782   2.088 -0.8246 -0.8386 -0.5759
  486TIP3   OH2 1463   4.851   5.493   2.269 -0.4312  0.3873  0.0954
  486TIP3    H1 1464   4.805   5.417   2.304  0.9714 -0.0569  1.0379
  486TIP3    H2 1465   4.916   5.515   2.336 -0.0123  1.6863 -0.6987
  487TIP3   OH2 1466   1.342   3.966   3.429 -0.1525  0.2931  0.1942
  487TIP3    H1 1467   1.304   3.980   3.343  0.2336 -3.4884 -0.7378
  487TIP3    H2 1468   1.281   3.907   3.473  2.1128 -2.0362  0.4576
  488TIP3   OH2 1469   0.461   1.103   2.978 -0.1996  0.2942 -0.1616
  488TIP3    H1 1470   0.386   1.046   2.994  0.5409 -0.6613  0.0331
  488TIP3    H2 1471   0.507   1.062   2.905  0.2255  0.7796 -0.1707
  489TIP3   OH2 1472   0.874   1.382   3.168  0.3644  0.4250  0.3478
  489TIP3    H1 1473   0.823   1.304   3.146 -0.3866 -0.1243  3.5262
  489TIP3    H2 1474   0.828   1.453   3.123 -0.1821 -0.6862 -0.9321
  490TIP3   OH2 1475   2.403   0.400   3.054 -0.1813 -0.1090 -0.0391
  490TIP3    H1 1476   2.408   0.323   2.998  0.3331 -0.6365  0.7188
  490TIP3    H2 1477   2.404   0.365   3.144  0.6470  0.8045  0.3170
  491TIP3   OH2 1478   6.044   5.317   2.671  0.0487 -0.5025  0.1930
  491TIP3    H1 1479   5.981   5.258   2.712  0.5839  0.7686  3.0537
  491TIP3    H2 1480   6.030   5.305   2.577 -0.7085 -4.2164  0.6281
  492TIP3   OH2 1481   5.479   0.217   4.654  0.2904 -0.1967 -0.9304
  492TIP3    H1 1482   5.386   0.200   4.667  0.1464  0.1228 -1.5302
  492TIP3    H2 1483   5.521   0.133   4.672 -0.3236 -0.9829 -2.9452
  493TIP3   OH2 1484   4.400   3.219   0.966  0.2937 -0.5582 -0.2098
  493TIP3    H1 1485   4.318   3.249   1.006  0.1306 -2.1544  0.7069
  493TIP3    H2 1486   4.434   3.153   1.027  1.3119 -1.2674 -1.5116
  494TIP3   OH2 1487   6.098   3.910   3.795  0.4283 -0.5457  0.2564
  494TIP3    H1 1488   6.110   3.815   3.790 -0.9138 -0.8326  1.5187
  494TIP3    H2 1489   6.004   3.921   3.812  0.5938  1.0004  0.3171
  495TIP3   OH2 1490   2.501   3.910   0.569 -0.0359 -0.5044  1.1766
  495TIP3    H1 1491   2.491   3.975   0.499 -0.6933 -0.2097  1.5407
  495TIP3    H2 1492   2.523   3.829   0.523  0.1256 -0.1817  0.6723
  496TIP3   OH2 1493   3.930   5.327   1.839 -0.4735 -0.1445  0.5167
  496TIP3    H1 1494   3.872   5.262   1.801 -0.6396 -0.0289  0.5723
  496TIP3    H2 1495   3.944   5.297   1.929  0.6271 -0.9006  0.1181
  497TIP3   OH2 1496   5.295   5.167   1.083 -0.4669  0.3310  0.1496
  497TIP3    H1 1497   5.208   5.142   1.054 -0.1338  1.2626 -1.8337
  497TIP3    H2 1498   5.287   5.259   1.108 -0.0965  0.3825  0.0911
  498TIP3   OH2 1499   0.308   4.617   2.031 -0.2683  0.0872 -0.4178
  498TIP3    H1 1500   0.375   4.612   2.099 -2.0930  1.1577  1.5803
  498TIP3    H2 1501   0.256   4.537   2.042 -1.8397  1.2441  0.9255
  499TIP3   OH2 1502   5.355   2.073   2.052  0.2442 -0.8915  0.4375
  499TIP3    H1 1503   5.336   2.125   2.130 -0.7232  0.6059 -0.7443
  499TIP3    H2 1504   5.278   2.016   2.042  1.0839 -2.2765  1.4475
  500TIP3   OH2 1505   6.158   0.240   1.174 -0.0772 -0.0072 -0.2839
  500TIP3    H1 1506   6.081   0.277   1.131  0.5263 -0.4605 -1.8192
  500TIP3    H2 1507   6.139   0.146   1.179 -0.4605  0.1277  1.1650
  501TIP3   OH2 1508   0.770   4.211   2.915  0.5128 -0.6905  0.0825
  501TIP3    H1 1509   0.751   4.229   2.823  0.4007  0.4216  0.3032
  501TIP3    H2 1510   0.708   4.266   2.963 -0.0125 -1.9014  0.8335
  502TIP3   OH2 1511   0.179   4.830   4.562 -0.0895  0.6832  0.6437
  502TIP3    H1 1512   0.110   4.828   4.629 -0.3735  0.9697  0.3595
  502TIP3    H2 1513   0.173   4.917   4.523  0.0084  0.4792  0.1709
  503TIP3   OH2 1514   5.385   1.547   1.773  0.3596  0.3699 -0.3107
  503TIP3    H1 1515   5.330   1.550   1.851  0.3160 -0.8133 -0.2837
  503TIP3    H2 1516   5.472   1.524   1.806  0.1444 -1.0960 -0.6769
  504TIP3   OH2 1517   2.398   0.293   3.788  0.2242 -0.9302  0.0392
  504TIP3    H1 1518   2.337   0.322   3.856  1.9677  2.1659  0.4521
  504TIP3    H2 1519   2.429   0.208   3.819  0.5910  0.1295  2.9248
  505TIP3   OH2 1520   2.151   2.333   4.699 -0.3018  0.3152  0.0768
  505TIP3    H1 1521   2.240   2.364   4.716 -0.9818  1.4108  1.9436
  505TIP3    H2 1522   2.132   2.363   4.610  1.3804 -0.4725 -0.5862
  506TIP3   OH2 1523   1.786   0.523   1.305  0.6392 -0.5927  0.5528
  506TIP3    H1 1524   1.859   0.584   1.315  1.4265 -1.2504 -0.8221
  506TIP3    H2 1525   1.826   0.442   1.271 -0.9115 -0.2955 -2.3444
  507TIP3   OH2 1526   4.639   1.492   2.067 -0.1059 -0.3781  0.0047
  507TIP3    H1 1527   4.576   1.559   2.041  0.4235 -0.1082 -0.6167
  507TIP3    H2 1528   4.704   1.538   2.119 -1.3965 -0.9980  2.2889
  508TIP3   OH2 1529   4.288   2.117   4.756  0.4039  0.1690 -0.0659
  508TIP3    H1 1530   4.348   2.104   4.829 -0.5867  0.2971  0.7932
  508TIP3    H2 1531   4.284   2.033   4.712  0.7837  0.0107  0.1991
  509TIP3   OH2 1532   3.022   5.891   0.765  0.3548  0.1050  0.0847
  509TIP3    H1 1533   3.054   5.881   0.676 -0.2711 -4.0279  0.1353
  509TIP3    H2 1534   2.930   5.864   0.761  0.2288  0.0922  1.8925
  510TIP3   OH2 1535   5.240   0.777   4.515  0.2116  0.2040 -0.5429
  510TIP3    H1 1536   5.259   0.870   4.503 -0.4329  0.4479  0.2609
  510TIP3    H2 1537   5.282   0.735   4.440  1.0698  1.0657 -0.5697
  511TIP3   OH2 1538   0.610   3.641   0.675 -0.3606  0.2152 -0.1069
  511TIP3    H1 1539   0.609   3.737   0.684  0.6287  0.3289 -0.9662
  511TIP3    H2 1540   0.689   3.614   0.721  0.0467 -0.0410 -0.9262
  512TIP3   OH2 1541   5.957   3.921   3.212 -0.6070 -0.0444 -0.2659
  512TIP3    H1 1542   6.019   3.892   3.279 -0.0569 -0.0991 -0.7883
  512TIP3    H2 1543   5.973   3.862   3.138 -2.1733 -0.8884  0.0277
  513TIP3   OH2 1544   2.031   2.126   4.800 -0.2391  0.0276  0.3650
  513TIP3    H1 1545   2.069   2.212   4.779  0.4292 -0.7731 -2.0792
  513TIP3    H2 1546   2.060   2.070   4.729 -1.2069 -2.1010  1.5645
  514TIP3   OH2 1547   2.891   4.639   1.015 -0.3050  0.3657  0.4595
  514TIP3    H1 1548   2.864   4.561   0.967 -0.4030  0.5959  0.1317
  514TIP3    H2 1549   2.986   4.641   1.007 -0.3002  0.2590  0.4977
  515TIP3   OH2 1550   4.514   3.892   3.511 -0.0960  0.0891  0.3792
  515TIP3    H1 1551   4.492   3.801   3.494  0.8369 -0.4290  1.7095
  515TIP3    H2 1552   4.431   3.938   3.508 -0.5495 -0.7508 -0.5800
  516TIP3   OH2 1553   4.558   4.253   0.407  0.4883  0.0386 -0.0038
  516TIP3    H1 1554   4.575   4.183   0.344  0.5738  0.8353 -0.8831
  516TIP3    H2 1555   4.503   4.316   0.360 -0.3085  0.1684  1.0473
  517TIP3   OH2 1556   1.835   5.444   2.928  0.0560  0.1758 -0.0143
  517TIP3    H1 1557   1.888   5.483   2.997  0.6564  0.1604 -0.4617
  517TIP3    H2 1558   1.824   5.513   2.863  1.2024 -0.4094 -0.8529
  518TIP3   OH2 1559   0.072   0.641   2.607  0.6902  0.7670  0.4366
  518TIP3    H1 1560  -0.013   0.645   2.652  0.6231  2.2730  0.2293
  518TIP3    H2 1561   0.051   0.623   2.516  0.5139  2.0012  0.2210
  519TIP3   OH2 1562   5.184   4.764   4.834 -0.4867 -0.2038  0.3585
  519TIP3    H1 1563   5.100   4.718   4.835  0.0928 -1.3250  1.5010
  519TIP3    H2 1564   5.217   4.754   4.924  1.0191 -0.1076 -0.1551
  520TIP3   OH2 1565   4.483   1.589   1.247 -0.0314  0.2339  0.9811
  520TIP3    H1 1566   4.483   1.641   1.328 -0.2032  1.2191  0.3679
  520TIP3    H2 1567   4.463   1.653   1.178  0.8731 -0.4448  0.0652
  521TIP3   OH2 1568   4.830   4.439   3.723  0.4856  0.1110  0.2269
  521TIP3    H1 1569   4.765   4.371   3.738 -0.0531  0.5291 -0.1357
  521TIP3    H2 1570   4.794   4.517   3.767  0.6419  0.3955 -0.1407
  522TIP3   OH2 1571   3.297   4.428   4.650 -0.5992  0.4494  0.4815
  522TIP3    H1 1572   3.255   4.504   4.610  1.9793  1.0853 -1.2913
  522TIP3    H2 1573   3.297   4.361   4.582  0.6976  0.2875  0.6105
  523TIP3   OH2 1574   5.567   3.904   2.739 -1.0653 -0.2244  0.5445
  523TIP3    H1 1575   5.655   3.905   2.702 -1.0133 -0.8846  0.6384
  523TIP3    H2 1576   5.575   3.849   2.818 -1.1577  1.1750  1.5672
  524TIP3   OH2 1577   6.002   1.160   0.734  0.2017 -0.3960 -0.1817
  524TIP3    H1 1578   6.055   1.213   0.793 -0.5603  1.1785 -0.8655
  524TIP3    H2 1579   6.022   1.070   0.759  2.1544  0.1658  0.4822
  525TIP3   OH2 1580   3.486   2.563   4.797 -0.0907  0.0384 -0.3775
  525TIP3    H1 1581   3.574   2.584   4.766  0.0803 -1.4525 -1.0138
  525TIP3    H2 1582   3.480   2.606   4.882  1.1314  0.4343 -0.4630
  526TIP3   OH2 1583   2.404   5.090   3.880  0.2513  0.2929 -0.0887
  526TIP3    H1 1584   2.355   5.110   3.800  0.4619  0.8337 -0.0868
  526TIP3    H2 1585   2.458   5.014   3.857  0.8973  0.9197 -0.7078
  527TIP3   OH2 1586   1.640   2.965   3.995  0.3649 -0.2401 -0.1057
  527TIP3    H1 1587   1.654   3.035   4.059  1.0461 -0.8404  0.4227
  527TIP3    H2 1588   1.719   2.912   4.001 -0.2752 -1.2246 -0.2852
  528TIP3   OH2 1589   3.085   5.431   4.904 -0.0154  0.7346  0.9513
  528TIP3    H1 1590   3.146   5.413   4.832  0.6052  0.7670  1.4672
  528TIP3    H2 1591   3.099   5.524   4.925 -1.0060  1.0330  0.3664
  529TIP3   OH2 1592   4.680   1.855   0.964 -0.6571 -0.3263 -0.1246
  529TIP3    H1 1593   4.695   1.833   0.872  0.3455  1.3350 -0.4106
  529TIP3    H2 1594   4.726   1.787   1.013  0.1782 -0.3314 -0.8921
  530TIP3   OH2 1595   1.171   5.818   2.461  0.0911 -0.2225  0.0475
  530TIP3    H1 1596   1.110   5.849   2.528 -1.6586  0.0313 -1.5875
  530TIP3    H2 1597   1.121   5.754   2.410  1.2188 -0.1000 -1.2844
  531TIP3   OH2 1598   1.301   2.659   2.595  0.5521 -0.2898 -0.3795
  531TIP3    H1 1599   1.256   2.590   2.546  0.9157  0.9533 -2.5820
  531TIP3    H2 1600   1.387   2.665   2.554  0.8949  0.7991  0.4637
  532TIP3   OH2 1601   4.301   3.541   3.184  0.0171 -0.4227 -0.5306
  532TIP3    H1 1602   4.253   3.597   3.122 -0.1403 -0.1631 -0.1781
  532TIP3    H2 1603   4.317   3.460   3.135  1.6319  0.4860 -1.6070
  533TIP3   OH2 1604   6.127   3.134   4.124  0.3678  0.0046  0.1299
  533TIP3    H1 1605   6.186   3.098   4.057  0.5668 -0.1852  0.4075
  533TIP3    H2 1606   6.166   3.218   4.147 -0.5705  0.8369 -1.1597
  534TIP3   OH2 1607   5.577   4.796   0.182  0.9303 -0.3796  0.0083
  534TIP3    H1 1608   5.510   4.738   0.218  0.4216  1.3840  2.1016
  534TIP3    H2 1609   5.532   4.848   0.116  0.4058  0.2473  0.8448
  535TIP3   OH2 1610   5.615   4.182   2.443 -0.4998 -0.0163  0.1635
  535TIP3    H1 1611   5.548   4.220   2.386  0.9352 -0.8758 -2.2534
  535TIP3    H2 1612   5.691   4.169   2.385  1.5327  0.2398  2.6010
  536TIP3   OH2 1613   3.554   1.067   1.134 -0.4450 -0.0648 -0.2968
  536TIP3    H1 1614   3.630   1.094   1.186 -0.3011 -0.9938 -0.0040
  536TIP3    H2 1615   3.530   1.145   1.085 -0.7445  0.9335  1.3512
  537TIP3   OH2 1616   1.420   4.780   4.707  0.0758 -0.6353 -0.1663
  537TIP3    H1 1617   1.456   4.868   4.699 -0.7679 -0.1712  0.9065
  537TIP3    H2 1618   1.484   4.724   4.664  1.8905  0.2031  1.3195
  538TIP3   OH2 1619   0.387   2.296   4.828 -0.4357 -0.4477 -0.3902
  538TIP3    H1 1620   0.303   2.273   4.788 -0.2786 -1.8109  0.0185
  538TIP3    H2 1621   0.392   2.244   4.908  0.5149  0.0966 -0.0716
  539TIP3   OH2 1622   1.158   2.409   4.754 -0.0178  0.1580 -0.5299
  539TIP3    H1 1623   1.146   2.441   4.665 -2.8551  0.3324 -0.1859
  539TIP3    H2 1624   1.133   2.317   4.750  0.4880 -0.0041 -0.0508
  540TIP3   OH2 1625   3.241   5.184   4.368 -0.1366  1.0364 -0.9656
  540TIP3    H1 1626   3.298   5.260   4.363  1.5717 -0.1896 -1.1069
  540TIP3    H2 1627   3.208   5.172   4.279  2.3335 -0.3192 -1.8109
  541TIP3   OH2 1628   4.708   2.402   0.961  0.2575  0.4497  0.4388
  541TIP3    H1 1629   4.726   2.495   0.949  0.2627  0.3438 -0.4740
  541TIP3    H2 1630   4.779   2.358   0.913 -0.6769  0.0075 -0.5768
  542TIP3   OH2 1631   1.256   1.962   0.067 -0.7033  0.8879  0.3205
  542TIP3    H1 1632   1.212   2.046   0.085 -0.1140  1.3781 -0.4828
  542TIP3    H2 1633   1.339   1.987   0.028  0.4179 -0.0230  2.0026
  543TIP3   OH2 1634   0.960   4.380   3.557  0.2798 -0.3857  0.5548
  543TIP3    H1 1635   0.907   4.305   3.530 -0.5381 -0.1748  1.5282
  543TIP3    H2 1636   0.953   4.382   3.652  1.5104  0.0486  0.6604
  544TIP3   OH2 1637   0.978   4.179   2.465 -0.7350  0.9095 -0.0091
  544TIP3    H1 1638   1.070   4.158   2.478 -0.7208  2.0228  1.9782
  544TIP3    H2 1639   0.936   4.095   2.449  0.0057 -0.1920  3.2003
  545TIP3   OH2 1640   6.049   1.436   0.910  0.3651  0.2424  0.4513
  545TIP3    H1 1641   5.961   1.405   0.930  0.3066  0.7309  0.9907
  545TIP3    H2 1642   6.041   1.531   0.907  0.8669  0.2894  0.4941
  546TIP3   OH2 1643   3.747   4.646   0.386 -0.0042  0.2702  0.2464
  546TIP3    H1 1644   3.739   4.612   0.476 -2.3467  0.4585  0.1905
  546TIP3    H2 1645   3.656   4.657   0.357  0.6980  1.0725 -1.8431
  547TIP3   OH2 1646   0.620   3.235   2.293  0.5446  0.2940 -0.0014
  547TIP3    H1 1647   0.556   3.184   2.343  0.3988  0.7119  0.2468
  547TIP3    H2 1648   0.610   3.205   2.203 -1.5886  1.8969 -0.3819
  548TIP3   OH2 1649   5.107   3.394   4.535  0.2743  0.0778  0.1885
  548TIP3    H1 1650   5.048   3.454   4.580  0.1543 -1.3480  2.0317
  548TIP3    H2 1651   5.052   3.349   4.471 -0.4763 -0.6587  1.3284
  549TIP3   OH2 1652   5.032   3.435   2.190  0.7289  0.4706  0.7252
  549TIP3    H1 1653   5.051   3.343   2.169  0.2235  0.6002 -0.3852
  549TIP3    H2 1654   5.002   3.433   2.281 -2.2613 -0.9154 -0.1803
  550TIP3   OH2 1655   0.742   1.647   3.948  0.0556  0.3616  0.0953
  550TIP3    H1 1656   0.821   1.592   3.949 -0.4894 -0.4438  0.7243
  550TIP3    H2 1657   0.698   1.625   3.866  0.4085  0.7160 -0.1950
  551TIP3   OH2 1658   5.787   3.808   4.275 -0.2067  0.0823 -0.4014
  551TIP3    H1 1659   5.797   3.829   4.183  1.5733  0.9189 -0.0626
  551TIP3    H2 1660   5.877   3.797   4.307 -0.7789 -0.0635  1.2552
  552TIP3   OH2 1661   2.458   0.219   2.034 -0.0887 -0.2683  0.3936
  552TIP3    H1 1662   2.478   0.285   1.967 -0.7684 -0.2903  0.1642
  552TIP3    H2 1663   2.495   0.255   2.115  0.2658  0.0105  0.1086
  553TIP3   OH2 1664   4.705   0.382   3.181 -0.5653 -0.4768 -0.0925
  553TIP3    H1 1665   4.655   0.442   3.236 -0.8235 -0.0294 -0.8014
  553TIP3    H2 1666   4.796   0.405   3.197 -0.6508 -0.1310 -0.0932
  554TIP3   OH2 1667   6.051   1.491   3.678  0.1813 -0.0812  0.2264
  554TIP3    H1 1668   6.002   1.410   3.692 -1.5516  0.9235  0.1151
  554TIP3    H2 1669   6.067   1.493   3.583 -1.1996  0.4927 -0.0052
  555TIP3   OH2 1670   5.065   3.680   4.261 -0.4172  0.3299  0.1979
  555TIP3    H1 1671   5.073   3.735   4.183 -0.3809  1.3586  0.9227
  555TIP3    H2 1672   5.119   3.723   4.327  1.2471 -1.6261  0.2181
  556TIP3   OH2 1673   2.055   0.533   1.650 -0.0448  0.2593 -0.6264
  556TIP3    H1 1674   2.006   0.518   1.731  1.6489 -0.1067  0.3720
  556TIP3    H2 1675   2.060   0.628   1.641 -0.7620  0.3008 -0.6499
  557TIP3   OH2 1676   4.938   2.956   2.708 -0.2430  0.2452  0.5063
  557TIP3    H1 1677   4.988   2.946   2.627 -1.9866  0.7467 -0.6928
  557TIP3    H2 1678   4.995   2.919   2.776  0.2905 -2.5222 -1.2777
  558TIP3   OH2 1679   4.584   0.473   0.790  0.2649 -0.4942  0.5620
  558TIP3    H1 1680   4.551   0.410   0.725 -1.5038  0.4946  0.4315
  558TIP3    H2 1681   4.505   0.508   0.830  1.2294  1.2757  0.9955
  559TIP3   OH2 1682   1.624   3.200   0.441 -0.6350 -0.0119  0.1485
  559TIP3    H1 1683   1.656   3.158   0.362  2.0246  0.2079  0.9750
  559TIP3    H2 1684   1.638   3.135   0.510 -0.6291  0.6496  0.7846
  560TIP3   OH2 1685   0.065   0.622   0.036 -0.2491  0.6123  0.0280
  560TIP3    H1 1686   0.027   0.595   0.120 -0.1841 -0.2047 -0.1939
  560TIP3    H2 1687   0.009   0.692   0.005 -1.1201 -0.0414  0.0903
  561TIP3   OH2 1688   3.105   3.446   0.491 -0.1400 -0.7248 -0.2768
  561TIP3    H1 1689   3.059   3.529   0.489  2.6327  0.9763  0.3940
  561TIP3    H2 1690   3.110   3.418   0.400 -0.8870 -0.0300 -0.5377
  562TIP3   OH2 1691   0.406   5.128   1.821 -0.2161 -0.4132 -0.2480
  562TIP3    H1 1692   0.379   5.037   1.812 -1.6919  0.1812 -2.8176
  562TIP3    H2 1693   0.501   5.127   1.809 -0.1960 -1.6287 -0.0327
  563TIP3   OH2 1694   0.265   5.920   1.706  0.1417  0.1891  0.4597
  563TIP3    H1 1695   0.330   5.900   1.774 -0.5789  0.4070  1.2254
  563TIP3    H2 1696   0.181   5.899   1.747 -0.2513 -0.6998 -0.7370
  564TIP3   OH2 1697   0.011   1.301   2.982  0.7096  0.3210  0.0823
  564TIP3    H1 1698   0.047   1.273   2.898  0.4232  0.5081 -0.1023
  564TIP3    H2 1699   0.061   1.379   3.005 -0.6015  1.5116 -0.9278
  565TIP3   OH2 1700   5.824   3.403   3.650  0.6681 -0.1437  0.2925
  565TIP3    H1 1701   5.762   3.330   3.658  0.4742 -0.2493 -1.6776
  565TIP3    H2 1702   5.910   3.363   3.663  0.4839 -0.5084  0.4024
  566TIP3   OH2 1703   6.077   4.333   1.799 -0.4106 -0.3323  0.5058
  566TIP3    H1 1704   6.039   4.409   1.844 -3.0912 -0.6533 -1.0240
  566TIP3    H2 1705   6.053   4.345   1.707 -2.2445 -3.6724  0.3808
  567TIP3   OH2 1706   0.125   3.951   2.904 -0.5011  0.2715  0.2439
  567TIP3    H1 1707   0.181   4.025   2.880  0.2355 -0.6401 -0.9663
  567TIP3    H2 1708   0.088   3.921   2.821 -1.1503 -0.4344  0.7788
  568TIP3   OH2 1709   0.152   5.875   1.435 -0.5783  0.2224  0.0104
  568TIP3    H1 1710   0.184   5.794   1.395  0.9504  1.8388 -2.2937
  568TIP3    H2 1711   0.202   5.882   1.516  2.4849  0.8372 -1.7768
  569TIP3   OH2 1712   2.353   2.259   4.490  0.3177  0.2032 -0.7051
  569TIP3    H1 1713   2.386   2.251   4.401 -0.0779 -0.7765 -0.7717
  569TIP3    H2 1714   2.274   2.313   4.481 -0.1242 -0.4872 -1.0582
  570TIP3   OH2 1715   3.424   3.187   3.703  0.6569 -0.7122  0.3486
  570TIP3    H1 1716   3.506   3.181   3.751  1.3339 -0.9532 -0.8126
  570TIP3    H2 1717   3.394   3.277   3.719  0.6115 -0.9204  1.5853
  571TIP3   OH2 1718   0.705   0.588   2.214  0.0756 -0.1801  0.0556
  571TIP3    H1 1719   0.615   0.615   2.194  0.2254  1.0942  1.0038
  571TIP3    H2 1720   0.744   0.665   2.255  1.5096 -0.8315 -0.0487
  572TIP3   OH2 1721   0.888   5.886   3.753  0.0346 -0.5377  0.3987
  572TIP3    H1 1722   0.816   5.928   3.706 -0.2367 -0.3186  0.9976
  572TIP3    H2 1723   0.905   5.945   3.827 -0.9133 -1.8804  1.7420
  573TIP3   OH2 1724   1.225   3.462   4.484 -0.4127  0.0165  0.3976
  573TIP3    H1 1725   1.140   3.470   4.528 -1.4109  1.3678 -1.5932
  573TIP3    H2 1726   1.239   3.548   4.444  1.7558 -0.3012  0.3679
  574TIP3   OH2 1727   2.305   2.914   0.461 -0.2581 -0.4266  0.0301
  574TIP3    H1 1728   2.220   2.905   0.418 -0.3330  0.7637 -0.0862
  574TIP3    H2 1729   2.307   3.003   0.494  0.8737 -0.4989  0.2078
  575TIP3   OH2 1730   6.235   2.933   3.016 -0.2501 -0.1549 -0.3285
  575TIP3    H1 1731   6.152   2.885   3.018  0.4253 -1.3530  0.6329
  575TIP3    H2 1732   6.302   2.865   3.024  0.7520  0.9242  0.9845
  576TIP3   OH2 1733   4.012   5.692   2.227  0.2965  0.7404 -0.4633
  576TIP3    H1 1734   4.088   5.635   2.231  0.3973  0.9434  1.7346
  576TIP3    H2 1735   3.962   5.660   2.152  1.1678 -1.1806 -0.2829
  577TIP3   OH2 1736   3.395   0.476   2.163  0.3139 -0.4073  0.2211
  577TIP3    H1 1737   3.313   0.453   2.206  0.4085 -0.7456  0.2250
  577TIP3    H2 1738   3.461   0.420   2.204  0.5138 -0.2783  0.0819
  578TIP3   OH2 1739   4.154   4.634   3.561  0.2408 -0.3725 -0.0809
  578TIP3    H1 1740   4.106   4.622   3.643 -0.1183 -0.7389 -0.3451
  578TIP3    H2 1741   4.182   4.546   3.536  0.6849 -0.2138 -0.1524
  579TIP3   OH2 1742   1.925   4.465   4.746 -0.1515  0.3879 -0.0162
  579TIP3    H1 1743   1.978   4.418   4.682  0.1699  0.7751 -0.0346
  579TIP3    H2 1744   1.916   4.553   4.710 -0.4398  0.4507  0.2006
  580TIP3   OH2 1745   0.505   5.273   0.967 -0.2395  0.4400  0.8066
  580TIP3    H1 1746   0.582   5.250   0.915 -0.8596  0.4355 -0.1421
  580TIP3    H2 1747   0.459   5.190   0.981 -0.7208  0.6031  0.2692
  581TIP3   OH2 1748   1.111   0.059   1.392  0.0859  0.3260  0.2996
  581TIP3    H1 1749   1.101   0.048   1.297 -0.2662  0.1027  0.3618
  581TIP3    H2 1750   1.148   0.147   1.403 -1.6682  1.1156  0.0683
  582TIP3   OH2 1751   5.250   2.106   1.100  0.0576  0.3196 -0.2560
  582TIP3    H1 1752   5.236   2.068   1.187  1.9281  0.8098  0.3091
  582TIP3    H2 1753   5.268   2.199   1.117 -0.0829  0.5320 -1.2185
  583TIP3   OH2 1754   2.404   3.161   5.077 -0.3009 -0.1239 -0.1946
  583TIP3    H1 1755   2.488   3.139   5.118  0.5209  5.0740  1.6453
  583TIP3    H2 1756   2.428   3.196   4.991 -0.2802  2.2492  0.6926
  584TIP3   OH2 1757   5.971   3.036   4.952  0.0732  0.3554 -0.2598
  584TIP3    H1 1758   5.944   3.009   5.040 -1.0361  0.9827 -0.3874
  584TIP3    H2 1759   6.046   2.980   4.932  1.4309  1.3316  1.7421
  585TIP3   OH2 1760   1.513   5.136   3.694  0.3112 -0.6462  0.4247
  585TIP3    H1 1761   1.430   5.172   3.725  1.5384  0.4902  2.6497
  585TIP3    H2 1762   1.511   5.149   3.599 -1.9278 -0.4384  0.4544
  586TIP3   OH2 1763   3.793   2.987   2.125  0.7500 -0.4697 -0.3766
  586TIP3    H1 1764   3.787   3.006   2.218  0.5324 -0.4891 -0.3875
  586TIP3    H2 1765   3.853   2.912   2.120  0.7094 -0.5109 -0.2486
  587TIP3   OH2 1766   1.248   3.033   4.510 -0.1464  0.4260 -0.2701
  587TIP3    H1 1767   1.302   3.077   4.444  0.0844 -0.2810 -0.5639
  587TIP3    H2 1768   1.289   3.056   4.593 -0.6158  1.5688 -0.3436
  588TIP3   OH2 1769   0.510   2.399   2.342  0.0639 -0.0376  0.0145
  588TIP3    H1 1770   0.474   2.349   2.415  1.2701 -0.5591  0.2870
  588TIP3    H2 1771   0.558   2.470   2.385  0.2216  0.0432 -0.2975
  589TIP3   OH2 1772   3.038   0.132   2.444 -0.1846  0.3681 -0.1182
  589TIP3    H1 1773   3.038   0.155   2.351 -0.5279 -0.8719 -0.4498
  589TIP3    H2 1774   2.979   0.196   2.485  1.0726  1.8218 -0.4852
  590TIP3   OH2 1775   1.037   2.021   2.039  0.7634  0.4188  0.3653
  590TIP3    H1 1776   0.973   2.078   1.997 -0.8606 -0.5395  1.4320
  590TIP3    H2 1777   1.068   2.071   2.115 -2.1482 -0.7129  2.4871
  591TIP3   OH2 1778   3.812   0.242   0.133  0.0896  0.2213  0.0719
  591TIP3    H1 1779   3.906   0.253   0.147 -0.1455  0.2137  1.8291
  591TIP3    H2 1780   3.781   0.328   0.107  0.9659 -0.3389 -3.3837
  592TIP3   OH2 1781   2.107   5.880   0.248 -0.3488 -0.6452 -0.0285
  592TIP3    H1 1782   2.114   5.932   0.168 -1.0135  0.2607  0.4852
  592TIP3    H2 1783   2.013   5.869   0.262 -0.2816 -0.0745  1.0611
  593TIP3   OH2 1784   0.573   0.444   3.798 -0.4194 -0.1695  0.0385
  593TIP3    H1 1785   0.664   0.467   3.816 -0.6027  0.1366  0.5930
  593TIP3    H2 1786   0.548   0.387   3.871 -0.2137 -1.5124 -0.8982
  594TIP3   OH2 1787   3.334   1.544   0.571 -0.6486  0.2725  0.4742
  594TIP3    H1 1788   3.310   1.551   0.479 -0.6047 -2.0531  0.2380
  594TIP3    H2 1789   3.419   1.588   0.577  1.6250 -3.3910 -1.6335
  595TIP3   OH2 1790   0.814   4.599   1.782 -0.1886 -0.0442  0.0995
  595TIP3    H1 1791   0.838   4.560   1.698  1.6660 -0.3694  0.7187
  595TIP3    H2 1792   0.875   4.560   1.845 -0.5726  1.2592  1.3471
  596TIP3   OH2 1793   5.965   2.963   3.852 -0.3999 -0.1341 -0.0286
  596TIP3    H1 1794   5.893   3.021   3.828 -0.2378  0.6669  1.2981
  596TIP3    H2 1795   5.923   2.880   3.876 -1.1395  0.9167  2.6393
  597TIP3   OH2 1796   0.726   5.196   0.844 -0.0734 -0.5468  0.0235
  597TIP3    H1 1797   0.717   5.131   0.774 -0.5369  1.7446 -2.2009
  597TIP3    H2 1798   0.787   5.261   0.809 -0.8931  1.0727  1.4481
  598TIP3   OH2 1799   5.452   0.208   4.006 -0.2427 -0.0400 -0.3047
  598TIP3    H1 1800   5.471   0.168   3.922  1.6867  1.3464 -0.5748
  598TIP3    H2 1801   5.456   0.136   4.069 -2.6937 -1.2863 -1.4263
  599TIP3   OH2 1802   4.755   1.776   2.293  0.2937  0.1834  0.5646
  599TIP3    H1 1803   4.768   1.688   2.326 -0.1401  0.1735  0.7108
  599TIP3    H2 1804   4.792   1.775   2.205 -0.7040 -0.4520  0.1421
  600TIP3   OH2 1805   2.379   4.355   1.325 -0.5326 -0.1346 -0.0801
  600TIP3    H1 1806   2.345   4.388   1.408  0.0662 -1.7727  0.8632
  600TIP3    H2 1807   2.305   4.310   1.285 -0.7049  0.2767 -0.2251
  601TIP3   OH2 1808   6.250   3.433   2.195  0.5824 -0.1583  0.4162
  601TIP3    H1 1809   6.219   3.495   2.128  0.9601  0.7918  1.1011
  601TIP3    H2 1810   6.301   3.487   2.256  1.4324 -1.2538  0.7042
  602TIP3   OH2 1811   3.040   0.387   0.143 -0.1421  0.1534 -0.1332
  602TIP3    H1 1812   3.093   0.308   0.129 -0.9502 -0.9964  2.7325
  602TIP3    H2 1813   2.956   0.367   0.101 -0.4413 -0.6842  0.8215
  603TIP3   OH2 1814   2.576   3.855   3.806  0.7020  0.0149 -0.0977
  603TIP3    H1 1815   2.613   3.767   3.813  1.0602  0.1696 -0.0002
  603TIP3    H2 1816   2.643   3.912   3.845  0.6213  0.3661 -0.4697
  604TIP3   OH2 1817   4.495   4.809   4.828 -0.0720  0.0879  0.6204
  604TIP3    H1 1818   4.438   4.769   4.763  0.4264  0.4578 -0.0642
  604TIP3    H2 1819   4.490   4.751   4.904  0.5618 -1.2377 -0.3115
  605TIP3   OH2 1820   0.930   0.230   4.795 -0.5385  0.1021  0.1486
  605TIP3    H1 1821   0.899   0.311   4.834 -2.9339  0.4031 -2.1065
  605TIP3    H2 1822   1.006   0.256   4.742 -0.5887  0.6530  0.3416
  606TIP3   OH2 1823   4.705   4.033   1.722  0.6466  0.2156  0.6235
  606TIP3    H1 1824   4.709   4.128   1.718 -0.3634  0.4551  3.0744
  606TIP3    H2 1825   4.796   4.004   1.711  0.7805  1.3063 -1.6147
  607TIP3   OH2 1826   2.197   5.577   0.503 -0.2694 -0.0730 -0.0128
  607TIP3    H1 1827   2.152   5.530   0.433  0.4646  0.1311 -0.6431
  607TIP3    H2 1828   2.129   5.599   0.566 -0.8329 -0.8364 -0.3473
  608TIP3   OH2 1829   4.517   3.828   0.275 -0.1606  0.4803  0.0121
  608TIP3    H1 1830   4.576   3.866   0.211 -1.2588  2.5348  0.1225
  608TIP3    H2 1831   4.480   3.751   0.232  1.2672  0.1636 -0.6883
  609TIP3   OH2 1832   1.876   5.308   4.589  0.3307 -0.5942 -0.3192
  609TIP3    H1 1833   1.949   5.308   4.527  0.9676  1.6332  0.3461
  609TIP3    H2 1834   1.867   5.216   4.614  0.8322 -1.3837 -2.7586
  610TIP3   OH2 1835   3.406   5.134   0.812  0.2512 -0.7962 -0.5702
  610TIP3    H1 1836   3.322   5.157   0.852  0.2235 -1.4092 -0.2643
  610TIP3    H2 1837   3.471   5.180   0.866  0.0137  2.0696 -2.5045
  611TIP3   OH2 1838   0.529   2.233   4.622  0.3432 -0.5182  0.5841
  611TIP3    H1 1839   0.492   2.311   4.580 -2.0066 -2.4296 -1.1736
  611TIP3    H2 1840   0.487   2.230   4.708  0.3554  0.0716  0.6159
  612TIP3   OH2 1841   1.992   0.688   1.372 -0.1563 -0.6547 -0.0788
  612TIP3    H1 1842   2.069   0.660   1.322 -0.9777 -1.0817 -1.1594
  612TIP3    H2 1843   2.005   0.652   1.459  0.0421 -2.2883 -0.7400
  613TIP3   OH2 1844   5.987   0.383   0.980 -0.7159 -0.3960  0.1978
  613TIP3    H1 1845   6.076   0.356   0.959  0.4772  2.0045  1.6307
  613TIP3    H2 1846   5.977   0.468   0.936 -1.3760  0.4836  1.9304
  614TIP3   OH2 1847   3.444   0.812   0.777  0.1232  0.2620  0.3380
  614TIP3    H1 1848   3.396   0.878   0.726 -1.4491  0.2247  1.6754
  614TIP3    H2 1849   3.513   0.861   0.820 -1.0225  1.0828  1.3041
  615TIP3   OH2 1850   4.458   1.601   0.590  0.0549  0.5897  0.2673
  615TIP3    H1 1851   4.437   1.663   0.660 -2.8610  0.2292 -0.1398
  615TIP3    H2 1852   4.430   1.516   0.623  0.6157  0.0656 -0.5604
  616TIP3   OH2 1853   3.121   1.713   1.848 -0.1438 -0.1212 -0.3842
  616TIP3    H1 1854   3.032   1.741   1.868 -0.7623 -3.1192  1.7135
  616TIP3    H2 1855   3.173   1.742   1.922  0.2111 -0.2160 -0.5903
  617TIP3   OH2 1856   0.576   1.900   1.899  0.3004  0.0275  0.2290
  617TIP3    H1 1857   0.568   1.932   1.809 -2.0481 -1.1157 -0.0458
  617TIP3    H2 1858   0.487   1.906   1.934  0.3629 -3.1599  1.1942
  618TIP3   OH2 1859   4.435   5.010   2.033  0.3734  0.6698  0.2658
  618TIP3    H1 1860   4.502   5.059   1.985  0.4383  1.1598  0.8525
  618TIP3    H2 1861   4.468   4.920   2.034 -0.6748  0.1633 -2.5123
  619TIP3   OH2 1862   0.034   5.843   1.803  0.4113  0.7547 -1.4345
  619TIP3    H1 1863   0.034   5.859   1.898  2.5422  0.0452 -1.2605
  619TIP3    H2 1864  -0.048   5.881   1.772 -0.8073  0.1312  0.8318
  620TIP3   OH2 1865   4.936   3.448   3.510  0.4785 -0.0531  0.0094
  620TIP3    H1 1866   4.932   3.477   3.419 -1.4152  0.6665  0.2704
  620TIP3    H2 1867   4.868   3.499   3.555  2.7725  1.2186  2.3372
  621TIP3   OH2 1868   6.130   4.427   3.332  0.4698 -0.2113  0.0666
  621TIP3    H1 1869   6.216   4.394   3.306  0.2312  1.0487 -2.6568
  621TIP3    H2 1870   6.069   4.381   3.274 -0.6200 -0.3989  1.3272
  622TIP3   OH2 1871   1.181   0.257   2.706 -0.1766  0.1976 -0.8732
  622TIP3    H1 1872   1.136   0.203   2.642 -2.3401  1.7149 -0.7648
  622TIP3    H2 1873   1.132   0.340   2.706  1.0449  1.0051  1.2043
  623TIP3   OH2 1874   4.921   0.249   3.769 -0.1508  0.1093  0.3688
  623TIP3    H1 1875   4.842   0.303   3.772 -0.5578 -0.4175 -0.5901
  623TIP3    H2 1876   4.987   0.305   3.728 -0.5836 -0.1265 -0.6673
  624TIP3   OH2 1877   4.221   3.123   2.430 -0.5076 -0.5255  0.0172
  624TIP3    H1 1878   4.303   3.170   2.445  0.3010 -1.3864 -1.4286
  624TIP3    H2 1879   4.154   3.191   2.433  0.4602  0.4993 -0.4986
  625TIP3   OH2 1880   1.908   1.583   4.218 -0.4763  0.6746 -0.2069
  625TIP3    H1 1881   2.002   1.598   4.225 -0.3491 -0.7347  2.3168
  625TIP3    H2 1882   1.897   1.534   4.137  0.9787  0.7086 -0.4551
  626TIP3   OH2 1883   3.549   3.939   3.033  0.1130  0.6384  0.0459
  626TIP3    H1 1884   3.475   3.976   3.081 -1.1402 -1.3257 -0.2721
  626TIP3    H2 1885   3.527   3.846   3.022  2.5303  0.0285 -0.2432
  627TIP3   OH2 1886   0.231   5.610   1.862 -0.0261 -0.6988  0.6994
  627TIP3    H1 1887   0.211   5.522   1.829 -0.1030 -0.3849 -0.1172
  627TIP3    H2 1888   0.149   5.659   1.850  0.0810 -0.4553  0.9507
  628TIP3   OH2 1889   5.530   2.289   1.063 -0.3316  0.0597  0.2466
  628TIP3    H1 1890   5.480   2.368   1.083 -1.4131 -0.1932 -1.2647
  628TIP3    H2 1891   5.465   2.218   1.067  0.6013 -0.7620  1.4954
  629TIP3   OH2 1892   0.034   3.362   4.776  1.3785 -0.4532 -0.3426
  629TIP3    H1 1893  -0.020   3.331   4.849  2.4673 -0.1102  0.6304
  629TIP3    H2 1894  -0.010   3.328   4.698  1.0628 -2.1966  0.5407
  630TIP3   OH2 1895   0.665   2.526   4.214 -0.1215  0.3377 -0.1166
  630TIP3    H1 1896   0.632   2.615   4.206 -1.1101  0.0266  0.3839
  630TIP3    H2 1897   0.645   2.485   4.130 -1.4522  0.0247  0.3253
  631TIP3   OH2 1898   2.182   3.627   1.568  0.4871  0.1719 -0.3266
  631TIP3    H1 1899   2.121   3.582   1.625  1.1383  1.4431  1.4636
  631TIP3    H2 1900   2.128   3.660   1.496 -0.5626 -0.5073  0.1373
  632TIP3   OH2 1901   0.949   4.195   1.215  0.1709  0.3062  0.1479
  632TIP3    H1 1902   0.957   4.100   1.223  1.8192  0.4472  0.5683
  632TIP3    H2 1903   0.912   4.223   1.299 -3.3506 -0.1966 -1.0992
  633TIP3   OH2 1904   5.396   4.894   1.669 -0.2317 -0.1749  0.0238
  633TIP3    H1 1905   5.482   4.856   1.650 -0.9784 -0.8098 -2.4890
  633TIP3    H2 1906   5.387   4.888   1.764  3.3999  1.9594  0.7120
  634TIP3   OH2 1907   3.869   2.418   0.439 -0.1342  0.1428  0.3521
  634TIP3    H1 1908   3.797   2.477   0.460 -0.4939  0.0706 -0.6408
  634TIP3    H2 1909   3.944   2.454   0.488 -0.9284 -0.0535  1.7679
  635TIP3   OH2 1910   3.932   2.780   0.492  0.4226  0.4821  0.1634
  635TIP3    H1 1911   3.897   2.704   0.445 -0.6386  0.2901  1.2518
  635TIP3    H2 1912   4.025   2.758   0.505 -0.1005 -1.1583  1.4573
  636TIP3   OH2 1913   1.615   1.748   0.296 -0.1775 -0.1079  0.0555
  636TIP3    H1 1914   1.650   1.712   0.377 -0.7831  0.2967  0.5064
  636TIP3    H2 1915   1.618   1.843   0.308  0.1900 -0.0307 -0.5989
  637TIP3   OH2 1916   2.894   2.768   2.044  0.2204 -0.0757 -0.1312
  637TIP3    H1 1917   2.970   2.742   2.095  0.0867  0.0458  0.1356
  637TIP3    H2 1918   2.924   2.769   1.953  1.2920  2.5143  0.1710
  638TIP3   OH2 1919   4.038   5.583   0.911  0.5973  0.3232  0.5483
  638TIP3    H1 1920   3.972   5.549   0.971  0.2452  2.0565  1.2075
  638TIP3    H2 1921   3.988   5.636   0.848  1.2571  0.8548  0.4658
  639TIP3   OH2 1922   5.227   2.601   1.398  0.2161  0.0602 -0.2495
  639TIP3    H1 1923   5.213   2.634   1.487 -1.1685 -0.2747 -0.3187
  639TIP3    H2 1924   5.139   2.592   1.361  0.6687 -1.3517 -1.0842
  640TIP3   OH2 1925   6.313   5.682   3.809 -0.4809 -0.0039 -0.3584
  640TIP3    H1 1926   6.297   5.589   3.795  2.2051 -0.4151 -1.2919
  640TIP3    H2 1927   6.306   5.720   3.721 -1.3744  0.6731 -0.0092
  641TIP3   OH2 1928   5.315   4.253   1.932 -0.1615  0.1424 -0.3098
  641TIP3    H1 1929   5.313   4.174   1.878  2.0666 -1.6819  2.0691
  641TIP3    H2 1930   5.279   4.226   2.016  0.0186  1.8720  0.3741
  642TIP3   OH2 1931   4.480   3.931   3.951  0.2032 -0.2040 -0.3238
  642TIP3    H1 1932   4.535   3.937   4.029 -1.6696  0.4012  1.0096
  642TIP3    H2 1933   4.401   3.887   3.981 -0.5461  0.0193 -1.8931
  643TIP3   OH2 1934   3.814   1.983   0.783 -0.2420  0.0647 -0.0916
  643TIP3    H1 1935   3.878   2.053   0.793 -1.0630  0.7104  0.7483
  643TIP3    H2 1936   3.838   1.942   0.700  1.6614 -0.1506  0.5171
  644TIP3   OH2 1937   3.402   4.325   2.032  0.2820  0.4719 -0.1900
  644TIP3    H1 1938   3.409   4.364   2.118 -0.6751  0.6592 -0.1835
  644TIP3    H2 1939   3.358   4.391   1.978 -2.3166 -0.8802  0.0771
  645TIP3   OH2 1940   4.559   0.496   2.775  0.0584  0.3054  0.3524
  645TIP3    H1 1941   4.582   0.419   2.723  1.7807  0.4018  0.9218
  645TIP3    H2 1942   4.643   0.529   2.808 -0.5616  2.7423 -0.3178
  646TIP3   OH2 1943   0.490   2.304   1.568  0.0457 -0.2544  0.1118
  646TIP3    H1 1944   0.444   2.376   1.612 -0.3632 -0.3789 -0.1101
  646TIP3    H2 1945   0.570   2.344   1.535  0.2420 -0.1041  0.7614
  647TIP3   OH2 1946   6.276   1.804   2.332  0.0890  0.2829  0.2838
  647TIP3    H1 1947   6.245   1.789   2.422 -1.7965  2.3241  0.0674
  647TIP3    H2 1948   6.309   1.894   2.332  0.6132  0.1126 -0.9432
  648TIP3   OH2 1949   5.277   1.071   3.933 -0.0529  0.2795  0.5155
  648TIP3    H1 1950   5.216   0.997   3.930  0.2811  0.0277 -1.1142
  648TIP3    H2 1951   5.224   1.145   3.962 -0.3663 -0.5893  2.3253
  649TIP3   OH2 1952   5.339   5.727   3.862 -0.0195  0.0617  0.2786
  649TIP3    H1 1953   5.408   5.765   3.808  0.7762 -1.1850  0.4031
  649TIP3    H2 1954   5.305   5.802   3.913  0.6747  0.8317 -0.3672
  650TIP3   OH2 1955   6.007   3.708   0.397 -0.3578  0.1873 -0.0679
  650TIP3    H1 1956   6.020   3.674   0.309 -0.4237 -2.2451  0.7821
  650TIP3    H2 1957   6.095   3.708   0.436 -0.6039 -0.7307  0.5070
  651TIP3   OH2 1958   1.801   1.931   3.273  0.6478 -0.4950  0.1431
  651TIP3    H1 1959   1.720   1.915   3.224  0.7525  0.1034 -0.2330
  651TIP3    H2 1960   1.844   2.003   3.227  0.8614 -0.0671  0.9864
  652TIP3   OH2 1961   4.770   2.644   1.711 -0.4295 -0.2562 -0.4362
  652TIP3    H1 1962   4.687   2.607   1.741  0.2174 -0.8545  0.7001
  652TIP3    H2 1963   4.797   2.588   1.639 -0.4311 -0.7923 -0.0236
  653TIP3   OH2 1964   1.979   0.725   0.093  0.8678 -0.1562  0.2599
  653TIP3    H1 1965   2.065   0.705   0.055  1.2556  0.1514  0.9606
  653TIP3    H2 1966   1.937   0.782   0.028  1.6458  0.6109  0.4083
  654TIP3   OH2 1967   1.617   2.142   2.231  0.2190 -0.0822  0.6844
  654TIP3    H1 1968   1.558   2.131   2.305 -0.1964 -0.4518  0.3078
  654TIP3    H2 1969   1.580   2.216   2.183  0.1642 -0.1975  0.5474
  655TIP3   OH2 1970   3.866   5.289   0.326 -0.3056  0.2662 -0.4323
  655TIP3    H1 1971   3.919   5.264   0.402 -0.9773  0.0765 -0.0178
  655TIP3    H2 1972   3.909   5.246   0.252  0.3327  0.4200 -0.1576
  656TIP3   OH2 1973   4.303   5.194   0.773  0.2340 -0.0128 -0.2706
  656TIP3    H1 1974   4.359   5.224   0.844 -0.6005  0.8367  0.0541
  656TIP3    H2 1975   4.237   5.263   0.764 -1.4493 -1.4895  0.1614
  657TIP3   OH2 1976   5.366   2.882   3.081 -0.2524 -0.7170 -0.1826
  657TIP3    H1 1977   5.319   2.902   3.162 -0.1693  0.4288 -0.4054
  657TIP3    H2 1978   5.403   2.795   3.096 -1.3742 -1.1009  0.4815
  658TIP3   OH2 1979   0.681   2.908   2.672  0.0392 -0.0003 -0.6823
  658TIP3    H1 1980   0.658   2.815   2.673  1.0714 -0.2922  1.4264
  658TIP3    H2 1981   0.697   2.928   2.580  2.0045 -2.5111 -0.9956
  659TIP3   OH2 1982   4.197   2.969   0.418  0.1266 -0.0641  0.4570
  659TIP3    H1 1983   4.150   3.028   0.359 -1.4231 -0.9094  0.7935
  659TIP3    H2 1984   4.285   3.005   0.423 -0.1563  0.9258 -1.1162
  660TIP3   OH2 1985   3.199   2.416   2.190 -0.3879  0.1833  0.2229
  660TIP3    H1 1986   3.130   2.350   2.178 -0.5788  0.3226  0.5352
  660TIP3    H2 1987   3.186   2.477   2.117  0.7447 -0.9299 -0.9764
  661TIP3   OH2 1988   0.291   5.389   4.580 -0.7965 -0.0386 -0.5911
  661TIP3    H1 1989   0.222   5.453   4.599 -0.9975 -0.2777 -0.5154
  661TIP3    H2 1990   0.360   5.440   4.537 -0.2723  0.5385  0.8969
  662TIP3   OH2 1991   0.233   3.849   3.476 -0.7990  0.2476  0.3018
  662TIP3    H1 1992   0.196   3.911   3.538  0.2824  1.7952 -0.5306
  662TIP3    H2 1993   0.319   3.885   3.454  0.2778 -2.0309  0.4581
  663TIP3   OH2 1994   5.536   3.111   3.085 -0.0306 -0.3035  0.3437
  663TIP3    H1 1995   5.541   3.141   2.994 -0.1253  0.0183  0.4437
  663TIP3    H2 1996   5.468   3.044   3.084  0.8500 -1.2125 -0.0683
  664TIP3   OH2 1997   5.040   3.267   0.979  0.0815 -0.1164 -0.5762
  664TIP3    H1 1998   5.112   3.326   1.001  0.2390 -0.5557  0.1141
  664TIP3    H2 1999   5.073   3.180   0.999 -1.1767 -0.2137  1.3634
  665TIP3   OH2 2000   2.757   5.171   4.217 -0.4060  0.6112  0.1109
  665TIP3    H1 2001   2.696   5.226   4.169 -1.5484 -0.5021  0.2354
  665TIP3    H2 2002   2.756   5.087   4.171  1.6767  0.8048 -0.3662
  666TIP3   OH2 2003   1.938   4.899   3.394  0.1848  0.2143 -0.5216
  666TIP3    H1 2004   1.963   4.970   3.335  0.1180  1.9016  1.3473
  666TIP3    H2 2005   2.019   4.873   3.436  0.1438 -0.5558 -0.9122
  667TIP3   OH2 2006   1.426   5.435   4.368  0.0334  0.1479 -0.5671
  667TIP3    H1 2007   1.517   5.450   4.395 -0.4676  0.6149  0.9553
  667TIP3    H2 2008   1.407   5.346   4.397 -0.3887  0.5153  0.3203
  668TIP3   OH2 2009   0.329   1.388   0.160  0.6368 -0.1438 -0.2237
  668TIP3    H1 2010   0.376   1.445   0.221 -0.2130  1.1240 -0.7283
  668TIP3    H2 2011   0.370   1.302   0.172  0.8859  0.2032  1.6857
  669TIP3   OH2 2012   1.511   1.865   2.454  0.2235 -0.0877 -0.3675
  669TIP3    H1 2013   1.491   1.845   2.362 -0.4910  0.5918 -0.3758
  669TIP3    H2 2014   1.430   1.844   2.501  0.9084 -1.3829  0.2657
  670TIP3   OH2 2015   2.373   4.315   2.575 -0.3638  0.0538  0.3386
  670TIP3    H1 2016   2.284   4.338   2.549 -0.9683 -1.6374  0.7469
  670TIP3    H2 2017   2.404   4.391   2.624 -1.1949  1.0712 -0.6415
  671TIP3   OH2 2018   6.205   5.014   3.374  0.1626  0.1727  0.4056
  671TIP3    H1 2019   6.193   4.920   3.388  2.5579 -0.1077  1.0463
  671TIP3    H2 2020   6.165   5.031   3.289  0.6354 -1.6701 -0.2339
  672TIP3   OH2 2021   1.063   3.469   2.912 -0.0386  0.1554  0.5370
  672TIP3    H1 2022   1.154   3.445   2.897 -0.4841 -0.8944 -0.8093
  672TIP3    H2 2023   1.061   3.564   2.909  0.8590  0.1523 -0.5206
  673TIP3   OH2 2024   1.387   2.102   2.899  0.1126 -0.3284  0.3117
  673TIP3    H1 2025   1.295   2.122   2.878  0.6897  2.2776 -0.0191
  673TIP3    H2 2026   1.384   2.013   2.935 -2.1595 -1.4431 -2.2700
  674TIP3   OH2 2027   4.029   0.188   2.429 -0.7451 -0.0547 -0.3441
  674TIP3    H1 2028   3.950   0.146   2.396 -1.0033  0.2592 -0.1327
  674TIP3    H2 2029   4.004   0.224   2.515 -0.6026  0.7081 -0.6073
  675TIP3   OH2 2030   0.025   4.592   3.204  0.2454 -0.1624 -0.1336
  675TIP3    H1 2031   0.049   4.659   3.268  0.3897  1.0227 -1.3791
  675TIP3    H2 2032   0.109   4.565   3.166  0.0851 -0.0844 -0.5511
  676TIP3   OH2 2033   3.131   3.085   2.767 -0.3332 -0.3411 -0.1296
  676TIP3    H1 2034   3.067   3.021   2.737 -1.5838  1.4270 -1.4113
  676TIP3    H2 2035   3.207   3.072   2.710 -1.1567  0.2800 -1.4082
  677TIP3   OH2 2036   3.653   2.470   1.518  0.4753  0.1477 -0.0062
  677TIP3    H1 2037   3.692   2.469   1.606  0.9824 -0.1622 -0.2324
  677TIP3    H2 2038   3.636   2.378   1.498  0.5387  0.2013 -0.3094
  678TIP3   OH2 2039   2.203   0.866   0.211 -1.0306  0.4891 -0.4262
  678TIP3    H1 2040   2.215   0.787   0.159 -0.5327 -0.4978  1.1294
  678TIP3    H2 2041   2.161   0.836   0.292 -1.3160  1.8952 -0.0146
  679TIP3   OH2 2042   2.484   5.725   4.706  0.2394 -0.0134  0.0273
  679TIP3    H1 2043   2.556   5.787   4.716  1.7586 -1.6292 -0.3873
  679TIP3    H2 2044   2.500   5.660   4.774 -1.4088  0.0941  0.5499
  680TIP3   OH2 2045   6.245   1.197   4.342 -0.3530 -0.1712 -0.2093
  680TIP3    H1 2046   6.225   1.278   4.390  0.8569  0.5920 -0.9520
  680TIP3    H2 2047   6.164   1.178   4.293 -0.5444  0.7702 -0.2717
  681TIP3   OH2 2048   1.067   0.534   0.251  0.0132 -0.0093  0.1984
  681TIP3    H1 2049   1.000   0.481   0.294 -1.2458 -0.5187 -2.2162
  681TIP3    H2 2050   1.017   0.590   0.191  1.6448  0.7890 -0.4494
  682TIP3   OH2 2051   1.932   4.245   0.398 -0.3826  0.4286  0.0902
  682TIP3    H1 2052   1.907   4.233   0.489  0.0277 -0.5221  0.0878
  682TIP3    H2 2053   2.024   4.219   0.394  0.2294  2.4451 -0.2039
  683TIP3   OH2 2054   3.732   0.292   3.995 -0.3102  0.6564  0.0285
  683TIP3    H1 2055   3.800   0.316   3.933 -0.0766  0.8022  0.3405
  683TIP3    H2 2056   3.759   0.206   4.027 -1.5467 -0.4421 -1.6732
  684TIP3   OH2 2057   4.567   2.973   5.019  0.0303 -0.1970 -0.4413
  684TIP3    H1 2058   4.515   3.046   4.986  0.9542  0.9611  0.5574
  684TIP3    H2 2059   4.574   2.913   4.945  0.3062  1.3244 -1.6927
  685TIP3   OH2 2060   4.755   0.079   1.656  0.0175  0.4998 -0.1234
  685TIP3    H1 2061   4.726   0.094   1.566  2.1925  0.3931 -0.8996
  685TIP3    H2 2062   4.683   0.111   1.710 -1.3197  0.6233 -1.8805
  686TIP3   OH2 2063   6.009   0.999   3.876  0.1239 -0.7963  0.1793
  686TIP3    H1 2064   6.002   1.007   3.971  0.3413 -0.2140  0.1477
  686TIP3    H2 2065   5.918   0.999   3.845  0.0708 -0.2499  0.3309
  687TIP3   OH2 2066   0.814   5.788   1.590 -0.0835  0.4926 -0.6765
  687TIP3    H1 2067   0.822   5.786   1.495  0.9846  2.1471 -0.6562
  687TIP3    H2 2068   0.902   5.809   1.621 -0.9032  2.3682  0.5363
  688TIP3   OH2 2069   3.755   1.388   0.955 -0.0290  0.1874 -0.4034
  688TIP3    H1 2070   3.799   1.449   0.896 -1.8390  1.5151 -0.4628
  688TIP3    H2 2071   3.735   1.440   1.033  0.0751 -0.8599  0.3470
  689TIP3   OH2 2072   4.695   2.960   0.198  0.1801  0.1970 -0.2055
  689TIP3    H1 2073   4.743   2.909   0.264 -0.4392 -0.6963 -0.4142
  689TIP3    H2 2074   4.641   2.895   0.153 -1.9367  1.2791  0.6366
  690TIP3   OH2 2075   2.561   3.386   0.424  0.6723 -0.2075 -0.1368
  690TIP3    H1 2076   2.586   3.300   0.455  0.6506 -0.9582 -2.0661
  690TIP3    H2 2077   2.473   3.375   0.388  0.7066  0.5832 -0.5022
  691TIP3   OH2 2078   0.699   1.663   3.634 -0.0323  0.2836  0.1123
  691TIP3    H1 2079   0.667   1.751   3.616 -1.9340 -0.5794 -1.0196
  691TIP3    H2 2080   0.784   1.676   3.677 -0.2358  2.6387 -0.1064
  692TIP3   OH2 2081   2.381   3.573   3.492  0.2758 -0.0072 -0.1868
  692TIP3    H1 2082   2.345   3.649   3.536  0.9205  0.2940 -0.1738
  692TIP3    H2 2083   2.334   3.569   3.408 -1.3292 -0.8902  0.7187
  693TIP3   OH2 2084   5.924   5.301   0.053 -0.7192 -0.3372  0.2803
  693TIP3    H1 2085   5.885   5.357   0.120  0.8808 -0.3529  1.2812
  693TIP3    H2 2086   5.851   5.249   0.019 -2.1299  1.8737 -0.2333
  694TIP3   OH2 2087   4.807   2.769   0.760 -0.0262  0.1779 -0.0242
  694TIP3    H1 2088   4.737   2.709   0.788  0.1115  0.2980  0.6078
  694TIP3    H2 2089   4.771   2.856   0.778  0.3123  0.2382  0.3721
  695TIP3   OH2 2090   4.293   1.061   2.817 -0.2153 -0.0619 -0.3549
  695TIP3    H1 2091   4.201   1.058   2.843 -0.0396 -0.0793  0.2815
  695TIP3    H2 2092   4.326   1.143   2.854  0.0857 -0.1716 -0.3752
  696TIP3   OH2 2093   4.377   3.129   0.700 -0.3072  0.1078 -0.1859
  696TIP3    H1 2094   4.325   3.165   0.773 -0.0769  0.8148 -0.3639
  696TIP3    H2 2095   4.375   3.034   0.714 -1.3042  0.1471  0.0437
  697TIP3   OH2 2096   3.446   5.892   5.153  0.1865 -0.5826  0.0427
  697TIP3    H1 2097   3.380   5.873   5.087  0.3457 -1.3093  0.0835
  697TIP3    H2 2098   3.458   5.809   5.200 -0.8320  0.2110  1.8146
  698TIP3   OH2 2099   4.664   4.750   1.468 -0.2151 -0.1183  0.6629
  698TIP3    H1 2100   4.608   4.802   1.410 -0.8539 -0.7597  0.6804
  698TIP3    H2 2101   4.749   4.749   1.425 -0.5594 -0.2119 -0.0445
  699TIP3   OH2 2102   5.078   1.062   2.136 -0.2377  0.7162  0.0049
  699TIP3    H1 2103   5.135   1.137   2.119 -1.1368  1.9798  2.0582
  699TIP3    H2 2104   5.047   1.076   2.226 -1.5686 -1.3954 -0.0531
  700TIP3   OH2 2105   0.110   3.459   3.470 -0.2238  0.8260 -0.3226
  700TIP3    H1 2106   0.097   3.408   3.550 -1.4182  0.4170 -0.7555
  700TIP3    H2 2107   0.043   3.528   3.474  0.0776  1.1495 -0.6988
  701TIP3   OH2 2108   6.320   2.426   2.694  0.3972  0.1752  0.1293
  701TIP3    H1 2109   6.334   2.443   2.600  1.9773 -0.0169  0.3204
  701TIP3    H2 2110   6.352   2.505   2.737  0.9782 -0.3127  0.5916
  702TIP3   OH2 2111   3.909   1.862   2.777 -0.1487  0.2995  0.7744
  702TIP3    H1 2112   3.939   1.776   2.806  0.7643  0.9452  1.8290
  702TIP3    H2 2113   3.865   1.899   2.854  0.5517  1.2547  0.7363
  703TIP3   OH2 2114   3.312   4.164   1.030  0.2178  0.4029 -0.4370
  703TIP3    H1 2115   3.303   4.072   1.056 -0.0783 -0.0868 -2.1372
  703TIP3    H2 2116   3.406   4.181   1.037  0.3714 -0.2499 -0.7211
  704TIP3   OH2 2117   5.359   4.807   0.925  0.4610 -0.6717 -0.0495
  704TIP3    H1 2118   5.298   4.840   0.992 -0.6601  1.5158 -1.9987
  704TIP3    H2 2119   5.308   4.743   0.876  0.9262 -1.4507  0.4596
  705TIP3   OH2 2120   4.707   5.932   4.607  0.2761  0.3303  0.0819
  705TIP3    H1 2121   4.782   5.920   4.548  0.3595 -0.0359  0.2598
  705TIP3    H2 2122   4.638   5.964   4.550  0.8989  1.8273  0.1254
  706TIP3   OH2 2123   2.788   1.054   2.279 -0.1185 -0.2807 -0.2117
  706TIP3    H1 2124   2.756   0.964   2.266 -1.3236 -0.1182  1.3728
  706TIP3    H2 2125   2.808   1.059   2.373 -1.1854  1.4272 -0.0252
  707TIP3   OH2 2126   3.386   3.367   1.119  0.1358 -0.5568  0.6376
  707TIP3    H1 2127   3.464   3.420   1.103  0.7251 -1.0935  1.6647
  707TIP3    H2 2128   3.400   3.289   1.064  0.3641 -0.6855  0.8744
  708TIP3   OH2 2129   3.432   1.907   3.686  0.2677  0.9440  0.3816
  708TIP3    H1 2130   3.343   1.935   3.707  0.2283  0.8210  0.3810
  708TIP3    H2 2131   3.421   1.824   3.640  0.2081  2.3856 -2.4252
  709TIP3   OH2 2132   5.319   1.740   2.485 -0.3096 -0.2712 -0.5569
  709TIP3    H1 2133   5.371   1.686   2.425  2.5577  0.3423  1.1963
  709TIP3    H2 2134   5.332   1.830   2.453  1.7227  0.1223  1.1875
  710TIP3   OH2 2135   4.909   4.540   4.097 -0.2099  0.1352  0.3566
  710TIP3    H1 2136   4.960   4.551   4.017  1.2576  0.4569  1.2957
  710TIP3    H2 2137   4.827   4.498   4.068  0.4237 -0.0719 -1.2394
  711TIP3   OH2 2138   2.860   3.362   2.351 -0.1368 -0.0182 -0.5886
  711TIP3    H1 2139   2.870   3.370   2.446  1.2476  1.1028 -0.7956
  711TIP3    H2 2140   2.907   3.438   2.316 -0.8931 -0.2437 -2.1618
  712TIP3   OH2 2141   0.680   4.550   3.596 -0.1951  0.1826 -0.0668
  712TIP3    H1 2142   0.710   4.575   3.683  0.8167  1.5822 -0.7873
  712TIP3    H2 2143   0.600   4.601   3.582 -0.5908 -0.3561  0.1888
  713TIP3   OH2 2144   0.426   3.948   1.836 -0.1149 -0.1358 -0.0476
  713TIP3    H1 2145   0.356   3.919   1.894 -0.1069 -1.4821 -0.6722
  713TIP3    H2 2146   0.412   3.898   1.755  1.4810 -0.3179 -0.2331
  714TIP3   OH2 2147   3.070   0.398   3.727  0.0944 -0.0478  0.1475
  714TIP3    H1 2148   3.164   0.409   3.715  0.0628 -0.4454 -0.5101
  714TIP3    H2 2149   3.045   0.329   3.666 -0.4883 -0.5349  0.9027
  715TIP3   OH2 2150   4.463   0.247   0.685 -0.0704 -0.3634  0.1104
  715TIP3    H1 2151   4.501   0.159   0.689  0.3804 -0.1352  0.9338
  715TIP3    H2 2152   4.384   0.242   0.738 -0.6098 -0.5322 -0.6813
  716TIP3   OH2 2153   0.631   5.824   4.955 -0.2315  0.0838 -0.1394
  716TIP3    H1 2154   0.628   5.732   4.984  1.2894 -0.1751 -0.7095
  716TIP3    H2 2155   0.629   5.875   5.036 -2.1264 -0.3888  0.1541
  717TIP3   OH2 2156   1.632   3.568   2.077  0.4898 -0.1937 -0.0296
  717TIP3    H1 2157   1.578   3.490   2.068 -0.9695  0.7880 -0.3112
  717TIP3    H2 2158   1.606   3.605   2.162  2.6197 -1.0122  1.0735
  718TIP3   OH2 2159   5.839   5.619   0.981 -0.2728 -0.2399 -0.1620
  718TIP3    H1 2160   5.834   5.537   1.030 -0.8922 -0.7419 -1.0249
  718TIP3    H2 2161   5.895   5.676   1.034  1.1868 -1.6371 -0.1192
  719TIP3   OH2 2162   4.856   5.562   1.755 -0.1890  0.5224 -0.1982
  719TIP3    H1 2163   4.853   5.517   1.840 -2.5825  1.2454  0.1611
  719TIP3    H2 2164   4.807   5.643   1.769  0.6394  1.3774 -1.9122
  720TIP3   OH2 2165   2.719   3.857   2.055 -0.2412 -0.2394 -0.2182
  720TIP3    H1 2166   2.781   3.922   2.021 -3.4157  3.0082 -0.4059
  720TIP3    H2 2167   2.688   3.811   1.976  0.4947 -0.5675 -0.3282
  721TIP3   OH2 2168   5.886   0.359   2.173 -0.1096 -0.7043 -0.1975
  721TIP3    H1 2169   5.863   0.335   2.083 -1.4713 -0.1910 -0.0055
  721TIP3    H2 2170   5.971   0.401   2.165 -1.3229  1.7095 -1.6435
  722TIP3   OH2 2171   2.728   3.857   0.368 -0.0891  0.1578  0.1845
  722TIP3    H1 2172   2.708   3.840   0.276  1.1872 -1.0961  0.1075
  722TIP3    H2 2173   2.683   3.786   0.416  1.5530 -0.8909  0.2537
  723TIP3   OH2 2174   6.097   4.683   4.059 -0.2385 -0.1298  0.3262
  723TIP3    H1 2175   6.119   4.645   3.974 -1.1539  0.6556 -0.2736
  723TIP3    H2 2176   6.168   4.743   4.078 -1.1487  1.4510 -1.0111
  724TIP3   OH2 2177   3.827   5.964   2.179  0.6033 -0.4353 -0.1937
  724TIP3    H1 2178   3.741   5.983   2.216  1.6428  1.0900  1.6271
  724TIP3    H2 2179   3.821   5.873   2.151 -1.2534 -0.7201  0.9223
  725TIP3   OH2 2180   2.514   1.686   2.796 -0.4361 -0.0087  0.0299
  725TIP3    H1 2181   2.592   1.702   2.849 -0.4702 -0.1244  0.1145
  725TIP3    H2 2182   2.442   1.721   2.849 -0.2346  1.9748 -0.9173
  726TIP3   OH2 2183   2.132   4.432   2.264  0.2244 -0.6998  0.2625
  726TIP3    H1 2184   2.130   4.396   2.352  1.7822  2.4605  1.7743
  726TIP3    H2 2185   2.102   4.523   2.275 -0.1478 -0.3846 -2.5970
  727TIP3   OH2 2186   2.988   0.085   3.296 -0.0652  0.1609 -0.3993
  727TIP3    H1 2187   3.051   0.053   3.231 -1.6190  2.3794 -3.2194
  727TIP3    H2 2188   2.918   0.020   3.295 -0.1495  0.2518 -1.1141
  728TIP3   OH2 2189   0.211   2.095   3.622 -0.1408  0.5737  0.2289
  728TIP3    H1 2190   0.165   2.149   3.556 -0.4982  0.5105  0.4229
  728TIP3    H2 2191   0.274   2.155   3.662 -1.2372  1.1433  1.1613
  729TIP3   OH2 2192   2.484   2.074   3.176  0.9627  0.9306  0.2447
  729TIP3    H1 2193   2.477   2.106   3.266  0.8019 -1.8212  1.3005
  729TIP3    H2 2194   2.395   2.051   3.152  0.8129  2.7089 -1.1328
  730TIP3   OH2 2195   4.432   3.073   3.095  0.1641  0.2316  0.7200
  730TIP3    H1 2196   4.489   3.048   3.168 -0.0551 -0.1116  0.7737
  730TIP3    H2 2197   4.374   2.998   3.083  1.0951 -0.3030 -0.7297
  731TIP3   OH2 2198   2.610   1.636   3.338  0.1467  0.1498  0.2879
  731TIP3    H1 2199   2.516   1.617   3.333 -0.4330  2.7234 -0.0890
  731TIP3    H2 2200   2.620   1.719   3.292  2.7976 -0.5204 -0.5123
  732TIP3   OH2 2201   5.381   5.374   4.901 -0.5891 -0.0856 -0.0371
  732TIP3    H1 2202   5.355   5.311   4.968 -2.9629 -0.0690 -0.8336
  732TIP3    H2 2203   5.332   5.454   4.923 -0.2904  0.3694 -0.9721
  733TIP3   OH2 2204   1.751   2.133   4.938 -0.4780 -0.1099  0.1132
  733TIP3    H1 2205   1.826   2.192   4.928 -1.8096  1.4396 -1.5028
  733TIP3    H2 2206   1.781   2.050   4.900 -0.0196  0.9356 -1.9913
  734TIP3   OH2 2207   4.826   2.927   4.015  0.0042  0.0468 -0.0257
  734TIP3    H1 2208   4.809   3.021   4.004  1.7851  0.2703 -1.3987
  734TIP3    H2 2209   4.906   2.923   4.068  1.8560 -0.4965 -2.6476
  735TIP3   OH2 2210   4.127   3.286   1.056  0.0437 -0.3673 -0.0363
  735TIP3    H1 2211   4.116   3.217   0.991  0.5067 -0.6958  0.2306
  735TIP3    H2 2212   4.118   3.241   1.140  1.1076 -0.2502  0.1577
  736TIP3   OH2 2213   5.995   3.322   2.690 -0.1789  0.1967  0.4792
  736TIP3    H1 2214   5.952   3.237   2.682 -2.4687  1.3221 -0.0737
  736TIP3    H2 2215   5.922   3.385   2.696  1.3370  2.4210 -2.1149
  737TIP3   OH2 2216   4.122   5.413   5.030 -0.4164  0.4345  0.3969
  737TIP3    H1 2217   4.033   5.448   5.025 -0.3177  0.6081 -0.1831
  737TIP3    H2 2218   4.138   5.376   4.943 -0.9683 -2.1842  1.3065
  738TIP3   OH2 2219   4.408   3.058   2.802 -0.2241 -0.0865  0.1474
  738TIP3    H1 2220   4.473   3.003   2.760  0.3922 -0.4510  1.5114
  738TIP3    H2 2221   4.441   3.070   2.891 -0.9623  1.4778  0.2490
  739TIP3   OH2 2222   3.219   5.447   0.445 -0.3271 -0.4300 -0.2189
  739TIP3    H1 2223   3.273   5.523   0.422  0.0454  0.2697  2.6623
  739TIP3    H2 2224   3.131   5.482   0.455 -0.6837 -0.9185 -1.3934
  740TIP3   OH2 2225   0.973   5.691   3.306  0.1122  0.9532 -0.7366
  740TIP3    H1 2226   0.892   5.656   3.345  0.2414  0.6033 -0.7813
  740TIP3    H2 2227   0.947   5.777   3.272  0.0763  1.4091  0.4064
  741TIP3   OH2 2228   2.670   3.330   1.005 -0.1420  0.2785  0.0107
  741TIP3    H1 2229   2.672   3.301   0.914  1.1945  0.0688  0.0857
  741TIP3    H2 2230   2.734   3.274   1.049 -1.2873 -0.1041  1.2302
  742TIP3   OH2 2231   4.200   4.108   0.828  0.5942  0.0031 -0.0874
  742TIP3    H1 2232   4.165   4.023   0.804 -1.0921  0.2854  1.1282
  742TIP3    H2 2233   4.210   4.155   0.745 -1.8053 -0.1911 -0.5539
  743TIP3   OH2 2234   4.046   2.984   0.635  0.0034 -0.2220  0.5413
  743TIP3    H1 2235   3.980   2.924   0.600 -1.1084  1.0683  0.3096
  743TIP3    H2 2236   4.120   2.977   0.574 -1.0036  0.2898 -0.7927
  744TIP3   OH2 2237   2.084   0.737   1.926 -0.6868 -0.2992  0.9163
  744TIP3    H1 2238   2.009   0.692   1.965 -0.6657 -0.6599  0.5523
  744TIP3    H2 2239   2.051   0.824   1.904 -1.4381 -0.9289 -0.5822
  745TIP3   OH2 2240   6.052   0.618   3.454  0.5607  0.2888  0.1662
  745TIP3    H1 2241   6.093   0.677   3.391 -0.1653 -0.3002 -0.8880
  745TIP3    H2 2242   6.107   0.625   3.532  0.2673  2.6374  0.2279
  746TIP3   OH2 2243   4.454   1.144   0.912 -0.8628  0.0392  0.1231
  746TIP3    H1 2244   4.547   1.153   0.936 -0.9610 -0.7449  0.8421
  746TIP3    H2 2245   4.425   1.234   0.896 -0.0788  0.3334  0.2851
  747TIP3   OH2 2246   2.499   3.339   3.015  0.0727 -0.3094  0.0438
  747TIP3    H1 2247   2.481   3.410   2.953  0.9564 -0.4722 -0.4170
  747TIP3    H2 2248   2.575   3.294   2.978  0.1128 -0.9070  0.8343
  748TIP3   OH2 2249   0.580   3.584   0.391 -0.3141 -0.2795 -0.2198
  748TIP3    H1 2250   0.613   3.615   0.476 -2.0825 -0.9899  0.7900
  748TIP3    H2 2251   0.658   3.557   0.343  0.7169 -0.1422  1.3160
  749TIP3   OH2 2252   0.091   4.892   0.522  0.1820  0.8527  0.3360
  749TIP3    H1 2253   0.012   4.889   0.575  1.0879  0.8959  1.7577
  749TIP3    H2 2254   0.142   4.816   0.550  1.3238  1.6905  0.6328
  750TIP3   OH2 2255   0.864   3.316   4.858 -0.1899  0.4367  0.3246
  750TIP3    H1 2256   0.830   3.280   4.940 -0.5540  1.7785  0.7973
  750TIP3    H2 2257   0.929   3.253   4.829 -2.6057 -1.9355 -0.2969
  751TIP3   OH2 2258   2.753   0.239   3.070 -0.2092 -0.0857 -0.2718
  751TIP3    H1 2259   2.744   0.231   2.975 -0.4353 -0.7703 -0.2005
  751TIP3    H2 2260   2.839   0.280   3.083  0.2914 -0.9578 -0.7488
  752TIP3   OH2 2261   6.326   1.335   0.158  0.7548 -0.9653 -0.2528
  752TIP3    H1 2262   6.234   1.325   0.180  0.4292 -1.8670 -1.9540
  752TIP3    H2 2263   6.373   1.308   0.237 -0.4068 -1.8606  0.1402
  753TIP3   OH2 2264   1.877   3.174   0.767 -0.1534 -0.4511  0.4111
  753TIP3    H1 2265   1.944   3.106   0.777 -0.1236 -0.3998  0.5533
  753TIP3    H2 2266   1.794   3.127   0.775 -0.1400 -0.5533  0.0039
  754TIP3   OH2 2267   2.897   0.304   5.150 -0.1620 -0.0085 -0.0368
  754TIP3    H1 2268   2.869   0.256   5.071  0.0421  1.0710 -0.7820
  754TIP3    H2 2269   2.832   0.280   5.216 -1.5139  0.5882 -1.0870
  755TIP3   OH2 2270   5.795   2.648   0.295 -0.4666  0.5003 -0.1179
  755TIP3    H1 2271   5.727   2.688   0.241 -0.7801 -0.1926 -0.2384
  755TIP3    H2 2272   5.810   2.711   0.366  0.4259  1.7436 -1.3638
  756TIP3   OH2 2273   3.095   1.906   4.211  0.0438 -0.4584 -0.2261
  756TIP3    H1 2274   3.179   1.916   4.257 -0.1129  0.0818 -0.0518
  756TIP3    H2 2275   3.085   1.988   4.162 -0.7556 -0.1880  0.3728
  757TIP3   OH2 2276   5.588   2.590   0.601  0.2740 -0.3823 -0.1178
  757TIP3    H1 2277   5.577   2.681   0.574  2.0322 -0.1020 -0.0485
  757TIP3    H2 2278   5.669   2.563   0.558  0.1155 -1.7132  0.3927
  758TIP3   OH2 2279   0.634   2.086   2.069  0.1603 -0.5431  0.2891
  758TIP3    H1 2280   0.556   2.088   2.125  1.2575 -0.0326  1.8776
  758TIP3    H2 2281   0.617   2.016   2.006 -1.9675  0.1822 -0.0188
  759TIP3   OH2 2282   1.241   4.735   0.799 -0.0739  0.3383  0.1561
  759TIP3    H1 2283   1.238   4.812   0.742 -1.5017 -0.0799 -0.3915
  759TIP3    H2 2284   1.239   4.770   0.888 -1.4920  0.9469 -0.0861
  760TIP3   OH2 2285   5.733   4.904   4.776 -0.4708  0.1372  0.1854
  760TIP3    H1 2286   5.709   4.994   4.755 -1.3910  0.3776  2.1089
  760TIP3    H2 2287   5.682   4.883   4.854  0.4683 -1.7286  0.3411
  761TIP3   OH2 2288   1.911   3.028   2.913  0.5217 -0.5274  0.1339
  761TIP3    H1 2289   1.956   3.107   2.884  1.2737 -0.7968  0.5391
  761TIP3    H2 2290   1.964   2.995   2.985  0.0700 -1.2567  0.1465
  762TIP3   OH2 2291   0.189   0.123   2.217 -0.3295  0.1775 -0.0546
  762TIP3    H1 2292   0.275   0.127   2.260 -0.8131 -1.6716  1.1978
  762TIP3    H2 2293   0.203   0.070   2.139 -0.4638 -0.8070  0.5735
  763TIP3   OH2 2294   1.194   5.288   4.013 -0.0893  0.1436 -0.2627
  763TIP3    H1 2295   1.288   5.308   4.012  0.0171 -0.3290 -0.1388
  763TIP3    H2 2296   1.156   5.348   3.949  0.7046 -1.6289 -2.5611
  764TIP3   OH2 2297   4.244   4.939   2.554 -0.2311 -0.1437 -0.1603
  764TIP3    H1 2298   4.282   4.910   2.471  0.6015  1.5456 -0.4078
  764TIP3    H2 2299   4.235   4.859   2.606  1.5728 -0.9159 -0.9553
  765TIP3   OH2 2300   2.652   0.498   0.140  0.3110 -0.0220  0.0274
  765TIP3    H1 2301   2.611   0.446   0.071 -1.7212  0.7644  0.5816
  765TIP3    H2 2302   2.704   0.435   0.190 -0.2298 -1.0757 -0.6974
  766TIP3   OH2 2303   1.009   4.034   0.649  0.1630  0.1891  0.0784
  766TIP3    H1 2304   1.044   4.052   0.736 -1.1617  0.5300  0.5539
  766TIP3    H2 2305   0.942   3.967   0.664  1.9098 -1.9682 -1.0721
  767TIP3   OH2 2306   3.314   3.437   1.703  0.2368  0.3491 -0.1326
  767TIP3    H1 2307   3.392   3.437   1.757 -0.1776 -0.5761  0.4910
  767TIP3    H2 2308   3.295   3.345   1.688 -0.2565  0.5756 -0.9884
  768TIP3   OH2 2309   4.891   1.269   3.743  0.2920  0.4185  0.2883
  768TIP3    H1 2310   4.826   1.308   3.684  0.4152  1.9178  1.0859
  768TIP3    H2 2311   4.849   1.190   3.777 -0.1170  0.0049 -1.1116
  769TIP3   OH2 2312   6.169   2.989   2.537 -0.4959  0.1615 -0.0566
  769TIP3    H1 2313   6.183   2.973   2.444 -0.1293  0.6913 -0.0901
  769TIP3    H2 2314   6.212   3.072   2.555 -2.6021  1.2967  0.0729
  770TIP3   OH2 2315   2.521   1.464   5.070 -0.4790  0.2176  0.1678
  770TIP3    H1 2316   2.545   1.381   5.029  0.8470 -0.1416  1.5859
  770TIP3    H2 2317   2.479   1.514   5.000 -0.1892 -1.1643 -1.0394
  771TIP3   OH2 2318   2.082   3.736   2.262 -0.0789  0.6502 -0.5091
  771TIP3    H1 2319   2.047   3.681   2.192  0.3441  2.1246 -1.9592
  771TIP3    H2 2320   2.006   3.757   2.317 -0.2956 -1.0562 -0.1298
  772TIP3   OH2 2321   5.693   2.277   1.867 -0.4971 -0.0634 -0.1667
  772TIP3    H1 2322   5.743   2.295   1.947  1.5697 -1.1218 -1.1588
  772TIP3    H2 2323   5.602   2.272   1.897  0.1840 -0.2195  2.0795
  773TIP3   OH2 2324   3.042   2.807   3.001 -0.1212 -0.4425 -0.5163
  773TIP3    H1 2325   3.112   2.795   2.937  0.0840 -0.8283 -0.2226
  773TIP3    H2 2326   3.016   2.899   2.991  1.2513  0.0479  0.2124
  774TIP3   OH2 2327   2.911   3.634   4.522  0.1742 -0.2248  0.5802
  774TIP3    H1 2328   2.918   3.728   4.509 -0.9536 -0.1177  0.6832
  774TIP3    H2 2329   2.914   3.597   4.434 -2.5915  0.1623  0.2434
  775TIP3   OH2 2330   3.481   3.838   1.402  0.1752 -0.3984 -0.4300
  775TIP3    H1 2331   3.444   3.753   1.426 -0.7982  0.2432  0.4593
  775TIP3    H2 2332   3.534   3.864   1.478 -2.7835  1.5700  1.1845
  776TIP3   OH2 2333   3.372   4.494   0.232 -0.3578 -0.2023 -0.4212
  776TIP3    H1 2334   3.300   4.453   0.183 -0.0918 -1.1755 -0.0057
  776TIP3    H2 2335   3.329   4.531   0.309 -0.6791  0.7991 -1.0458
  777TIP3   OH2 2336   4.788   5.162   4.978 -0.3224  0.1453 -0.3465
  777TIP3    H1 2337   4.705   5.135   4.939  0.2314 -1.5403 -0.4274
  777TIP3    H2 2338   4.855   5.130   4.918  0.4203  0.9992 -0.0045
  778TIP3   OH2 2339   0.408   4.657   3.796  0.0487 -0.0722 -0.6189
  778TIP3    H1 2340   0.497   4.623   3.810 -0.7313 -1.3259  1.7318
  778TIP3    H2 2341   0.421   4.732   3.738  2.4441 -1.2130 -1.7271
  779TIP3   OH2 2342   4.187   5.851   3.975  0.1016 -0.0184  0.2280
  779TIP3    H1 2343   4.247   5.860   3.901  0.4411  0.0516  0.5113
  779TIP3    H2 2344   4.101   5.868   3.938  0.5171  2.9779  0.3969
  780TIP3   OH2 2345   1.249   4.006   4.833 -0.1805 -0.2231  0.0773
  780TIP3    H1 2346   1.287   4.037   4.751  0.6907 -2.4952 -0.4466
  780TIP3    H2 2347   1.202   3.927   4.809  1.2578 -1.7409  1.9495
  781TIP3   OH2 2348   0.545   2.653   3.351 -0.3301 -0.4240 -0.0750
  781TIP3    H1 2349   0.609   2.617   3.290  0.0520 -0.7151  0.4834
  781TIP3    H2 2350   0.535   2.745   3.325 -1.6008 -1.0001 -1.7520
  782TIP3   OH2 2351   0.609   0.070   1.327 -0.6559 -0.0667 -0.4542
  782TIP3    H1 2352   0.642   0.081   1.238  1.3923 -1.1162  0.0932
  782TIP3    H2 2353   0.675   0.111   1.382  0.8787 -3.7525  0.8146
  783TIP3   OH2 2354   0.183   2.592   0.424  0.4668  0.3024  0.0289
  783TIP3    H1 2355   0.191   2.633   0.510  0.7784  2.2139 -0.8452
  783TIP3    H2 2356   0.209   2.661   0.363  2.3779 -1.6664 -1.5121
  784TIP3   OH2 2357   1.379   3.278   3.115  0.0516 -0.3312  0.0559
  784TIP3    H1 2358   1.466   3.312   3.138 -1.1843  1.7221  2.1008
  784TIP3    H2 2359   1.355   3.221   3.188 -0.7372 -0.0339  0.0416
  785TIP3   OH2 2360   3.139   2.525   5.067  0.8707  0.3238  0.0675
  785TIP3    H1 2361   3.136   2.613   5.105 -1.5905 -0.0520  0.9153
  785TIP3    H2 2362   3.077   2.529   4.994  0.8180 -0.6842  0.0451
  786TIP3   OH2 2363   0.081   5.110   1.725  0.5625  0.0617  0.1462
  786TIP3    H1 2364   0.052   5.056   1.799 -0.8496 -0.0717 -0.4771
  786TIP3    H2 2365   0.035   5.074   1.650  2.7683 -0.4861 -1.0398
  787TIP3   OH2 2366   1.999   0.787   4.079  0.3066  0.5357 -0.0082
  787TIP3    H1 2367   1.993   0.692   4.082  0.9642  0.4489 -1.0203
  787TIP3    H2 2368   1.986   0.814   4.170  1.5319 -0.6142  0.5417
  788TIP3   OH2 2369   3.525   1.048   0.470  0.9416  0.1497  0.3495
  788TIP3    H1 2370   3.562   0.986   0.532  0.5312  0.8322  1.3098
  788TIP3    H2 2371   3.431   1.049   0.489  0.6818 -0.2114 -0.8227
  789TIP3   OH2 2372   6.031   1.604   1.203 -0.0985  0.0630 -0.2252
  789TIP3    H1 2373   6.033   1.698   1.186 -0.4450 -0.3790 -3.2508
  789TIP3    H2 2374   5.943   1.577   1.177  0.4621 -1.3034 -0.7827
  790TIP3   OH2 2375   4.883   5.895   4.060  0.3271  0.6501 -0.0506
  790TIP3    H1 2376   4.926   5.831   4.117 -1.2664 -0.7387 -0.3342
  790TIP3    H2 2377   4.866   5.847   3.979 -0.6639  1.5187 -0.3760
  791TIP3   OH2 2378   1.546   4.881   4.215  0.2222 -0.4816 -0.5424
  791TIP3    H1 2379   1.579   4.800   4.178 -1.5565 -0.5527 -2.0784
  791TIP3    H2 2380   1.535   4.940   4.140  0.7103  0.9347  0.4362
  792TIP3   OH2 2381   0.018   3.684   0.927  0.0732  0.1480 -0.1730
  792TIP3    H1 2382   0.065   3.674   0.844  0.7295  2.2704 -0.1090
  792TIP3    H2 2383   0.066   3.629   0.988  0.2401 -0.5819 -0.9322
  793TIP3   OH2 2384   2.177   0.816   2.789 -0.3117 -0.4771 -0.1263
  793TIP3    H1 2385   2.248   0.788   2.847 -0.2203 -2.0290 -0.9425
  793TIP3    H2 2386   2.097   0.791   2.834 -0.3169  0.2096  0.2591
  794TIP3   OH2 2387   5.424   5.662   2.603  0.3178 -0.6050  0.0616
  794TIP3    H1 2388   5.518   5.668   2.624  0.5386  1.1133 -1.1590
  794TIP3    H2 2389   5.417   5.585   2.547  0.8604 -1.1804  0.7557
  795TIP3   OH2 2390   5.421   2.298   1.905  0.3362  0.0663 -0.3091
  795TIP3    H1 2391   5.397   2.217   1.950  2.6535 -0.9081 -0.7148
  795TIP3    H2 2392   5.393   2.367   1.966 -0.4363 -1.0501  0.6685
  796TIP3   OH2 2393   4.240   1.930   0.992 -0.1696  0.2083 -0.2148
  796TIP3    H1 2394   4.271   2.018   0.970  2.0983  0.0301  1.8551
  796TIP3    H2 2395   4.149   1.943   1.019  0.6298  2.3257  1.8498
  797TIP3   OH2 2396   4.548   0.593   0.220  0.2955  0.1890 -0.0465
  797TIP3    H1 2397   4.460   0.560   0.237  0.1555  1.1032  1.1562
  797TIP3    H2 2398   4.606   0.519   0.238 -0.0600  0.3206  1.7484
  798TIP3   OH2 2399   4.382   2.232   2.882 -0.4054  0.2262  0.3206
  798TIP3    H1 2400   4.423   2.147   2.871 -0.7680  0.0667  0.2146
  798TIP3    H2 2401   4.293   2.213   2.910  0.1086  0.5868  2.3728
  799TIP3   OH2 2402   5.185   1.809   4.583  0.3641 -0.5857  0.0551
  799TIP3    H1 2403   5.092   1.809   4.607  0.8015  0.5939  1.9873
  799TIP3    H2 2404   5.231   1.800   4.667  2.0047 -0.6022 -0.8087
  800TIP3   OH2 2405   2.243   0.374   2.182 -0.5191  0.0613  0.1383
  800TIP3    H1 2406   2.303   0.299   2.174 -0.6947 -0.2365  1.4325
  800TIP3    H2 2407   2.286   0.433   2.243 -1.1058  0.2798  0.3465
  801TIP3   OH2 2408   6.212   5.521   4.757 -0.4960  0.4703 -0.2439
  801TIP3    H1 2409   6.208   5.616   4.768 -0.6689  0.4361  0.0085
  801TIP3    H2 2410   6.302   5.498   4.779 -0.0518  0.7413 -1.7223
  802TIP3   OH2 2411   3.375   5.754   1.625 -0.1214 -0.6785 -0.4447
  802TIP3    H1 2412   3.404   5.711   1.545 -0.2895 -1.1016 -0.2842
  802TIP3    H2 2413   3.376   5.685   1.691 -0.6527 -0.5023 -0.2420
  803TIP3   OH2 2414   4.766   4.867   4.664  0.0379 -0.0215 -0.4286
  803TIP3    H1 2415   4.672   4.867   4.645  0.2119  1.1432 -1.3602
  803TIP3    H2 2416   4.773   4.913   4.748 -0.2644 -0.6518 -0.0464
  804TIP3   OH2 2417   1.581   1.992   0.380 -0.1352  0.3622 -0.0473
  804TIP3    H1 2418   1.518   2.041   0.328  1.4177  0.0105 -2.4464
  804TIP3    H2 2419   1.624   2.057   0.435 -0.3293  1.1540 -0.8180
  805TIP3   OH2 2420   1.615   1.350   3.655  0.4502  0.0364  0.2889
  805TIP3    H1 2421   1.529   1.388   3.635 -2.0558 -5.2294 -0.7136
  805TIP3    H2 2422   1.619   1.348   3.751 -1.4039 -0.9864  0.3962
  806TIP3   OH2 2423   4.600   2.997   0.882  0.3000  0.9102 -0.4073
  806TIP3    H1 2424   4.592   2.972   0.974 -1.2997  0.0754 -0.7484
  806TIP3    H2 2425   4.571   3.089   0.879  0.9856  1.1421  0.0139
  807TIP3   OH2 2426   1.201   3.515   4.159 -0.1437 -0.2670 -0.8127
  807TIP3    H1 2427   1.170   3.439   4.210  1.1804  0.5890  1.4253
  807TIP3    H2 2428   1.296   3.508   4.161  0.0251  1.6316 -0.2217
  808TIP3   OH2 2429   4.809   2.434   3.816 -0.2032  0.4686 -0.3194
  808TIP3    H1 2430   4.830   2.523   3.787 -0.8348  0.4998 -0.6981
  808TIP3    H2 2431   4.867   2.378   3.765  0.2969  0.6649  0.0213
  809TIP3   OH2 2432   2.225   5.430   1.355 -0.0126 -0.0900  0.2810
  809TIP3    H1 2433   2.218   5.523   1.332  2.1902  0.3101  1.0211
  809TIP3    H2 2434   2.238   5.386   1.271 -0.9488  0.2584 -0.0625
  810TIP3   OH2 2435   4.671   1.936   2.495 -0.8041  0.0918  0.9469
  810TIP3    H1 2436   4.580   1.964   2.489 -0.5942  0.5116 -1.0895
  810TIP3    H2 2437   4.688   1.891   2.412  0.5653 -0.8397  1.7043
  811TIP3   OH2 2438   3.465   0.181   5.160  0.0329 -0.1790 -0.1379
  811TIP3    H1 2439   3.495   0.102   5.116  0.3588  0.9238 -2.0003
  811TIP3    H2 2440   3.543   0.235   5.168 -0.2754  0.1540  0.7023
  812TIP3   OH2 2441   3.646   4.774   5.151  0.0159  0.4676  0.0534
  812TIP3    H1 2442   3.588   4.703   5.125  2.1063 -1.2625 -0.1351
  812TIP3    H2 2443   3.725   4.760   5.099  1.3148  1.6247  1.6279
  813TIP3   OH2 2444   3.216   0.373   2.362 -0.3401 -0.1406 -0.4877
  813TIP3    H1 2445   3.188   0.303   2.421 -1.5667  0.0174 -0.8639
  813TIP3    H2 2446   3.227   0.449   2.419  0.4270 -0.4728 -0.1704
  814TIP3   OH2 2447   5.263   4.414   0.351  0.1973 -0.3887 -0.1818
  814TIP3    H1 2448   5.301   4.437   0.436  1.2575 -0.0908 -0.7306
  814TIP3    H2 2449   5.170   4.438   0.359  0.0807 -1.1731  1.1886
  815TIP3   OH2 2450   1.849   0.611   2.391  0.4600  0.5817  0.3035
  815TIP3    H1 2451   1.898   0.565   2.323 -0.7646  1.3728 -1.1801
  815TIP3    H2 2452   1.801   0.542   2.437  0.4786  0.1350 -0.3342
  816TIP3   OH2 2453   1.171   3.804   3.583 -0.0481 -0.3471  0.1774
  816TIP3    H1 2454   1.151   3.805   3.677 -0.3685  0.6190  0.1035
  816TIP3    H2 2455   1.086   3.807   3.540  0.1314  0.1259 -0.1454
  817TIP3   OH2 2456   5.264   5.628   3.381 -0.0228  0.3788  0.1000
  817TIP3    H1 2457   5.285   5.709   3.428  0.3977 -0.0992  0.7647
  817TIP3    H2 2458   5.217   5.656   3.303  0.9395  1.3345 -0.1593
  818TIP3   OH2 2459   2.165   0.755   2.186 -0.0803  1.0096  0.4131
  818TIP3    H1 2460   2.173   0.847   2.162  1.4617  1.0373  0.9054
  818TIP3    H2 2461   2.141   0.710   2.105 -1.0305  1.8532  0.2149
  819TIP3   OH2 2462   2.181   4.890   3.870 -0.3877 -0.0045  0.5333
  819TIP3    H1 2463   2.238   4.957   3.907 -0.9846  0.7316  0.1375
  819TIP3    H2 2464   2.231   4.809   3.879  0.2683  0.4571  1.1815
  820TIP3   OH2 2465   1.174   2.068   3.469 -0.3743  0.3674 -0.6736
  820TIP3    H1 2466   1.210   1.992   3.515 -0.0805 -0.1075 -1.6635
  820TIP3    H2 2467   1.090   2.084   3.511  0.3471  0.6095  0.7338
  821TIP3   OH2 2468   5.270   5.751   0.060  0.1372  0.6517 -0.2358
  821TIP3    H1 2469   5.186   5.716   0.088  0.5914 -3.1431 -2.8353
  821TIP3    H2 2470   5.328   5.739   0.135 -1.2258  1.9288  1.0689
  822TIP3   OH2 2471   3.838   3.250   0.472 -0.0610 -0.5261  0.2356
  822TIP3    H1 2472   3.827   3.209   0.558 -0.9513 -1.3721 -0.2601
  822TIP3    H2 2473   3.914   3.206   0.434  0.6651  0.2255  0.7901
  823TIP3   OH2 2474   3.102   1.134   4.977 -0.0887 -0.0381  0.0893
  823TIP3    H1 2475   3.116   1.098   4.889  0.5551 -0.4770  0.3617
  823TIP3    H2 2476   3.016   1.175   4.973 -0.4516 -0.8301 -0.4932
  824TIP3   OH2 2477   4.852   5.088   3.940 -0.1986 -0.1945 -0.0697
  824TIP3    H1 2478   4.757   5.093   3.936 -0.1922 -0.4998 -0.6403
  824TIP3    H2 2479   4.871   5.052   4.027 -0.5336  1.4175  0.7103
  825TIP3   OH2 2480   0.973   5.481   4.848 -0.2604 -0.3113 -0.6889
  825TIP3    H1 2481   1.023   5.461   4.927 -1.1951  0.0542  0.0123
  825TIP3    H2 2482   1.039   5.510   4.784  0.5441 -0.9692 -0.1771
  826TIP3   OH2 2483   5.341   2.526   4.800 -0.2973 -0.1320  0.4393
  826TIP3    H1 2484   5.326   2.459   4.733 -0.3604 -0.6873  0.9975
  826TIP3    H2 2485   5.432   2.512   4.827 -0.6156 -0.6646  1.2717
  827TIP3   OH2 2486   0.060   4.732   0.969  0.4331  0.3936 -0.3006
  827TIP3    H1 2487   0.028   4.707   0.882  3.8375  1.8564 -2.1701
  827TIP3    H2 2488  -0.009   4.788   1.004 -1.0989 -0.3331 -1.9792
  828TIP3   OH2 2489   4.344   3.424   2.437  0.2954 -0.5077 -0.5038
  828TIP3    H1 2490   4.365   3.363   2.366 -0.1156 -2.0875  0.6576
  828TIP3    H2 2491   4.375   3.379   2.516  1.6422  1.6248  0.2690
  829TIP3   OH2 2492   0.152   3.544   3.914  0.1524  0.0343  0.1627
  829TIP3    H1 2493   0.115   3.603   3.848  2.4133 -1.0063 -2.1638
  829TIP3    H2 2494   0.177   3.602   3.986 -0.2220  1.5353 -0.8761
  830TIP3   OH2 2495   1.966   4.838   0.949 -0.4554 -0.1118  0.3720
  830TIP3    H1 2496   1.909   4.836   0.871  1.6827 -1.5612 -1.2824
  830TIP3    H2 2497   1.947   4.755   0.994 -0.7560  0.1304  0.6981
  831TIP3   OH2 2498   3.680   1.361   2.473  0.7731 -0.3722  0.0554
  831TIP3    H1 2499   3.644   1.279   2.439  1.7070 -0.3528 -1.0475
  831TIP3    H2 2500   3.739   1.335   2.543  2.9645 -0.9170 -1.8691
  832TIP3   OH2 2501   0.549   5.963   0.396  0.4336  0.2183  0.4717
  832TIP3    H1 2502   0.547   5.977   0.491  1.4809  1.3987  0.3453
  832TIP3    H2 2503   0.460   5.980   0.367 -0.1472 -1.1089  1.3432
  833TIP3   OH2 2504   1.022   0.185   0.576 -0.1543  0.5106  0.5626
  833TIP3    H1 2505   1.043   0.244   0.648  1.8047  1.2113 -0.4965
  833TIP3    H2 2506   0.960   0.233   0.522 -0.7225  0.4489  1.1494
  834TIP3   OH2 2507   4.442   5.070   2.887  0.2121  0.5477  0.0797
  834TIP3    H1 2508   4.501   5.046   2.816  0.0895  0.5533 -0.0246
  834TIP3    H2 2509   4.494   5.126   2.944 -0.4145  2.5907 -1.2794
  835TIP3   OH2 2510   4.034   0.347   1.174  0.0010  0.2973 -0.1516
  835TIP3    H1 2511   3.954   0.362   1.225  1.5500  0.0443  2.5841
  835TIP3    H2 2512   4.036   0.252   1.161 -0.3670  0.3546 -0.6474
  836TIP3   OH2 2513   1.996   5.255   0.983 -0.1672 -0.4283 -0.2884
  836TIP3    H1 2514   2.008   5.235   0.890 -0.5611 -0.2848 -0.3710
  836TIP3    H2 2515   1.902   5.247   0.997  0.0253 -1.8774  0.4280
  837TIP3   OH2 2516   3.676   0.190   1.619 -0.6248 -0.3446  0.0879
  837TIP3    H1 2517   3.718   0.147   1.544  0.3311  0.3576  0.2096
  837TIP3    H2 2518   3.724   0.272   1.630 -1.7354  0.2689  0.5318
  838TIP3   OH2 2519   3.071   3.371   4.174 -0.2402 -0.0488 -0.1123
  838TIP3    H1 2520   3.074   3.289   4.224  1.4018 -1.8298 -2.7937
  838TIP3    H2 2521   3.074   3.342   4.082 -0.8310  3.0218 -1.2063
  839TIP3   OH2 2522   2.250   2.768   3.690  0.4173 -0.2420  0.0836
  839TIP3    H1 2523   2.160   2.746   3.715  0.3127 -0.0526 -0.1231
  839TIP3    H2 2524   2.247   2.863   3.674  0.2646 -0.5062 -1.5663
  840TIP3   OH2 2525   1.853   4.441   2.093  0.3133  0.0312  0.0515
  840TIP3    H1 2526   1.937   4.417   2.132  0.2501 -1.5024 -0.6850
  840TIP3    H2 2527   1.806   4.485   2.163  1.1207 -0.5081  0.9615
  841TIP3   OH2 2528   5.940   3.437   3.009  0.1722 -0.4231  0.4629
  841TIP3    H1 2529   5.880   3.483   2.950  0.1928 -0.2572  0.5740
  841TIP3    H2 2530   5.904   3.348   3.013 -0.7950 -0.0043  1.5288
  842TIP3   OH2 2531   6.072   5.202   4.669  0.4674  0.5358  0.3585
  842TIP3    H1 2532   6.030   5.282   4.636  0.6887  0.6514  0.3578
  842TIP3    H2 2533   6.022   5.131   4.629  0.6810  0.6754 -0.1608
  843TIP3   OH2 2534   1.687   3.902   3.386  0.2890 -0.4559 -0.4830
  843TIP3    H1 2535   1.719   3.980   3.429  0.5581 -0.9512  0.2235
  843TIP3    H2 2536   1.595   3.921   3.367  0.1632 -0.2429  0.3297
  844TIP3   OH2 2537   1.899   4.375   3.400 -0.0601  0.3245  0.2543
  844TIP3    H1 2538   1.981   4.395   3.445  0.4893  0.6008 -0.8405
  844TIP3    H2 2539   1.869   4.459   3.366 -0.3289  0.0851 -0.1074
  845TIP3   OH2 2540   3.408   4.632   0.810  0.4662  0.5197  0.2268
  845TIP3    H1 2541   3.433   4.716   0.771 -1.4491  1.9050  1.7849
  845TIP3    H2 2542   3.323   4.612   0.771  1.5399 -1.5631 -1.2704
  846TIP3   OH2 2543   6.184   4.429   2.192  0.6338 -0.0657  0.0251
  846TIP3    H1 2544   6.136   4.481   2.127 -0.7874 -1.1191  0.1766
  846TIP3    H2 2545   6.179   4.482   2.272  2.3154  1.1961 -0.6484
  847TIP3   OH2 2546   4.415   0.105   2.734  0.3184  0.3585 -0.0030
  847TIP3    H1 2547   4.408   0.081   2.826 -2.0288 -0.9679 -0.4293
  847TIP3    H2 2548   4.356   0.180   2.724 -1.0998 -0.7947 -0.7417
  848TIP3   OH2 2549   3.895   0.166   2.705 -0.2708 -0.3164 -0.1009
  848TIP3    H1 2550   3.827   0.118   2.658 -0.9791  0.1015  0.4637
  848TIP3    H2 2551   3.848   0.240   2.745  1.0758  2.0124 -2.5125
  849TIP3   OH2 2552   2.974   4.303   4.435 -0.0587  0.2389  0.6444
  849TIP3    H1 2553   2.942   4.285   4.523 -0.6596  0.3031  0.4378
  849TIP3    H2 2554   3.064   4.269   4.436 -0.9828 -2.4981  0.4000
  850TIP3   OH2 2555   0.336   0.080   2.614 -0.0924  0.2145 -0.1435
  850TIP3    H1 2556   0.419   0.127   2.626  0.7347 -1.1869 -0.1009
  850TIP3    H2 2557   0.269   0.143   2.639  1.0651  0.5981  2.3270
  851TIP3   OH2 2558   1.866   2.459   0.543 -0.3366 -0.6604 -0.0899
  851TIP3    H1 2559   1.889   2.436   0.633 -0.6082  0.8425  0.3972
  851TIP3    H2 2560   1.933   2.522   0.516 -2.1182  1.5697  0.3399
  852TIP3   OH2 2561   4.208   2.892   3.101  0.1813 -0.2376 -0.3304
  852TIP3    H1 2562   4.187   2.802   3.078  0.3172 -0.5398  0.6946
  852TIP3    H2 2563   4.144   2.915   3.169  0.9346  0.0075  0.3137
  853TIP3   OH2 2564   6.058   3.667   2.120 -0.2104 -0.2857  0.4839
  853TIP3    H1 2565   6.123   3.729   2.153 -1.3447  2.0728 -1.3404
  853TIP3    H2 2566   6.030   3.705   2.036 -3.9439 -1.0812  1.1965
  854TIP3   OH2 2567   0.826   3.041   1.328  0.4353  0.2309 -0.4803
  854TIP3    H1 2568   0.865   3.059   1.413 -1.6392 -1.1380  0.8504
  854TIP3    H2 2569   0.796   3.126   1.296 -0.1038  0.5712  0.8773
  855TIP3   OH2 2570   4.254   0.027   2.952 -0.5652  0.3131 -0.2781
  855TIP3    H1 2571   4.219   0.091   3.015 -0.1994 -0.5794  0.8798
  855TIP3    H2 2572   4.187   0.022   2.884  0.4313  3.6485 -1.6923
  856TIP3   OH2 2573   4.919   2.066   1.040 -0.0345  0.2962  0.9264
  856TIP3    H1 2574   5.013   2.079   1.030  0.0428 -0.1497  1.0427
  856TIP3    H2 2575   4.910   1.976   1.072 -0.5184  0.2082  0.5580
  857TIP3   OH2 2576   1.133   0.605   1.380 -0.0177  0.3857 -0.1956
  857TIP3    H1 2577   1.041   0.628   1.399 -0.2768  1.0980 -2.1401
  857TIP3    H2 2578   1.183   0.680   1.414 -0.0773 -0.1956  1.2556
  858TIP3   OH2 2579   3.770   2.857   2.615 -0.0075  0.0986 -0.1713
  858TIP3    H1 2580   3.854   2.822   2.647 -0.7182 -0.3852  1.2589
  858TIP3    H2 2581   3.733   2.785   2.563  0.8668  0.6612 -1.6389
  859TIP3   OH2 2582   3.949   4.116   1.548 -0.2269 -0.2805 -0.1011
  859TIP3    H1 2583   3.871   4.122   1.493 -0.4128  0.6005  0.2417
  859TIP3    H2 2584   3.953   4.200   1.594  1.0303 -0.2211 -0.2628
  860TIP3   OH2 2585   2.647   2.936   2.011 -0.6211  0.0849 -0.0143
  860TIP3    H1 2586   2.715   2.924   2.077  0.6043  2.1526 -0.8176
  860TIP3    H2 2587   2.579   2.988   2.055 -1.4680 -1.4976  0.6150
  861TIP3   OH2 2588   4.077   1.679   4.491  0.5274  0.7904 -0.7628
  861TIP3    H1 2589   4.045   1.611   4.431  0.0956  1.5655 -1.4235
  861TIP3    H2 2590   4.000   1.701   4.544  1.1965 -0.7421  0.9291
  862TIP3   OH2 2591   4.209   3.819   3.261 -0.2335 -0.6969  0.0013
  862TIP3    H1 2592   4.217   3.772   3.178 -0.2580 -1.6069  0.5033
  862TIP3    H2 2593   4.277   3.781   3.317  1.2606  1.3863 -0.2476
  863TIP3   OH2 2594   5.918   3.914   5.174  0.5091  0.4973 -0.0943
  863TIP3    H1 2595   5.884   3.907   5.084 -0.4965  0.0862  0.3038
  863TIP3    H2 2596   5.862   3.980   5.215  1.5565  1.3555 -0.0273
  864TIP3   OH2 2597   5.589   5.401   1.287  0.6304 -0.1067 -0.2494
  864TIP3    H1 2598   5.619   5.311   1.305 -0.5503 -0.7028 -1.1487
  864TIP3    H2 2599   5.530   5.421   1.360  2.4990  0.7766  1.1015
  865TIP3   OH2 2600   4.300   1.313   1.611 -0.4864 -0.3172  0.1573
  865TIP3    H1 2601   4.396   1.311   1.609 -0.5039 -1.3970 -0.0468
  865TIP3    H2 2602   4.277   1.386   1.554  0.2091 -0.3301 -0.1556
  866TIP3   OH2 2603   3.271   5.303   4.737 -0.3821 -0.5074  0.1505
  866TIP3    H1 2604   3.359   5.318   4.702 -0.1003 -1.2413  0.5166
  866TIP3    H2 2605   3.212   5.315   4.662  0.2680 -2.8897 -0.8188
  867TIP3   OH2 2606   5.368   5.348   3.325  0.1342  0.5293  0.1370
  867TIP3    H1 2607   5.343   5.441   3.322 -0.5039  0.4257  1.4392
  867TIP3    H2 2608   5.373   5.328   3.418  0.7744 -0.6249 -0.1307
  868TIP3   OH2 2609   4.277   3.292   2.202  0.1343 -0.0415  0.4532
  868TIP3    H1 2610   4.197   3.306   2.153  2.1831  3.5255 -2.3057
  868TIP3    H2 2611   4.330   3.235   2.147  0.4481 -0.4428  1.1454
  869TIP3   OH2 2612   1.685   3.847   1.097 -0.6134  0.6539  0.3501
  869TIP3    H1 2613   1.613   3.846   1.160 -0.6128  0.9368  0.3590
  869TIP3    H2 2614   1.691   3.757   1.064 -0.1886  0.3494  1.2368
  870TIP3   OH2 2615   5.072   0.783   2.200 -0.3811  0.0355 -0.4769
  870TIP3    H1 2616   5.064   0.867   2.155 -2.3147  0.4270  0.4763
  870TIP3    H2 2617   5.045   0.718   2.135 -1.4068  0.4204 -0.4539
  871TIP3   OH2 2618   4.515   3.194   1.396 -0.1043  0.0134 -0.1707
  871TIP3    H1 2619   4.438   3.238   1.433  0.4881  1.6922 -0.8602
  871TIP3    H2 2620   4.558   3.260   1.342  1.2058 -1.2305 -0.7391
  872TIP3   OH2 2621   0.011   5.261   0.648 -0.2132  0.4567  0.1822
  872TIP3    H1 2622   0.064   5.341   0.647  2.3048 -1.0087  2.4697
  872TIP3    H2 2623   0.024   5.224   0.735 -3.4552 -1.1476  0.1551
  873TIP3   OH2 2624   2.539   3.537   2.327 -0.2030 -1.0743 -0.0770
  873TIP3    H1 2625   2.578   3.596   2.391 -1.1999  0.8781 -1.1755
  873TIP3    H2 2626   2.478   3.484   2.378 -0.9200  0.3887  0.6461
  874TIP3   OH2 2627   3.326   0.534   0.246 -0.0787  0.1834  0.4755
  874TIP3    H1 2628   3.353   0.454   0.291 -0.6577 -0.9231 -1.0340
  874TIP3    H2 2629   3.282   0.503   0.166 -0.2414  2.0117 -0.2032
  875TIP3   OH2 2630   2.709   5.767   0.709  0.1448 -0.4351  0.3065
  875TIP3    H1 2631   2.702   5.777   0.614  0.0801 -1.2613  0.2178
  875TIP3    H2 2632   2.622   5.790   0.742  0.2796  0.2313  0.2033
  876TIP3   OH2 2633   3.251   2.358   1.019  0.7714  0.3188  0.3298
  876TIP3    H1 2634   3.175   2.362   0.961  0.9610  0.1168  0.0639
  876TIP3    H2 2635   3.262   2.448   1.050 -0.1495  0.1766  1.1177
  877TIP3   OH2 2636   0.180   2.745   0.176  0.2550  0.1660  0.3497
  877TIP3    H1 2637   0.095   2.784   0.155 -0.1436 -0.8109  0.0892
  877TIP3    H2 2638   0.239   2.820   0.189 -0.9089  0.8975  1.7024
  878TIP3   OH2 2639   2.034   4.977   0.313 -0.0825 -0.1528  0.7374
  878TIP3    H1 2640   2.032   5.025   0.230 -0.0781 -2.0401 -0.4128
  878TIP3    H2 2641   2.096   5.026   0.367  0.4866  0.7285 -0.6386
  879TIP3   OH2 2642   3.737   1.296   5.038  0.6090 -0.3338 -0.2914
  879TIP3    H1 2643   3.825   1.314   5.005  1.4628  0.1912  2.0675
  879TIP3    H2 2644   3.703   1.382   5.065  0.3214 -0.8203  0.9656
  880TIP3   OH2 2645   0.966   5.665   2.324 -0.2874  0.2121 -0.0890
  880TIP3    H1 2646   0.953   5.579   2.284 -0.0588 -1.2207  2.6680
  880TIP3    H2 2647   0.903   5.667   2.396  2.0380  0.8122  2.0775
  881TIP3   OH2 2648   6.255   4.939   1.578 -0.2984  0.6593 -0.3182
  881TIP3    H1 2649   6.241   4.953   1.484  1.3002  0.0729 -0.6609
  881TIP3    H2 2650   6.329   4.880   1.583 -0.9492 -0.0722  1.3195
  882TIP3   OH2 2651   4.093   2.628   3.072  0.2650  0.4234 -0.2214
  882TIP3    H1 2652   4.003   2.619   3.042 -0.2700  2.2090  0.7148
  882TIP3    H2 2653   4.147   2.614   2.994 -0.6524 -2.6317 -0.4449
  883TIP3   OH2 2654   2.385   2.523   1.845 -0.5274 -0.0727  0.6981
  883TIP3    H1 2655   2.447   2.452   1.862  1.5402  1.0875 -1.3163
  883TIP3    H2 2656   2.341   2.538   1.928  2.3472 -0.5986  2.4399
  884TIP3   OH2 2657   0.848   1.077   4.100 -0.1586  0.5276  0.1095
  884TIP3    H1 2658   0.909   1.067   4.027 -1.0702 -1.6119 -0.4253
  884TIP3    H2 2659   0.886   1.026   4.171 -1.2386 -0.8218 -0.2254
  885TIP3   OH2 2660   4.858   3.223   2.749  0.1420 -0.1779 -0.5265
  885TIP3    H1 2661   4.805   3.229   2.669  0.2385 -0.8483 -0.6517
  885TIP3    H2 2662   4.904   3.139   2.741 -0.6591 -0.7801  0.7091
  886TIP3   OH2 2663   5.157   3.231   3.994 -0.0356  0.4661 -0.9376
  886TIP3    H1 2664   5.246   3.268   3.988  0.0207  0.0952 -3.1527
  886TIP3    H2 2665   5.170   3.137   3.985 -0.5699  0.2908  0.0149
  887TIP3   OH2 2666   3.671   1.944   0.204  0.5073  0.2209 -0.0994
  887TIP3    H1 2667   3.702   1.854   0.196 -0.3797 -0.0557 -0.5634
  887TIP3    H2 2668   3.605   1.953   0.136 -0.3826  0.7995  0.8069
  888TIP3   OH2 2669   3.201   4.348   0.080  0.4385 -0.4207  0.2387
  888TIP3    H1 2670   3.122   4.339   0.026  0.0029 -0.7268  0.9193
  888TIP3    H2 2671   3.223   4.258   0.104  1.4101 -0.4007 -0.5277
  889TIP3   OH2 2672   0.915   4.048   1.784 -0.5343  0.0477  0.7127
  889TIP3    H1 2673   0.920   4.082   1.874 -0.5174  2.4333 -0.1026
  889TIP3    H2 2674   0.844   4.099   1.744 -0.6348 -1.0824 -0.5946
  890TIP3   OH2 2675   3.558   3.779   1.127  0.0271 -0.1932 -0.5071
  890TIP3    H1 2676   3.504   3.775   1.206 -0.3204 -1.3158 -0.7844
  890TIP3    H2 2677   3.635   3.727   1.148  0.4763  0.4475 -0.5239
  891TIP3   OH2 2678   1.105   4.611   5.069 -0.2451  0.3057 -0.3990
  891TIP3    H1 2679   1.157   4.545   5.115 -1.2073 -2.4339 -2.9918
  891TIP3    H2 2680   1.024   4.567   5.045 -1.3626  2.7448 -1.4708
  892TIP3   OH2 2681   2.294   3.559   4.527 -0.4519 -0.0971 -0.2631
  892TIP3    H1 2682   2.348   3.634   4.550 -1.4937  0.4476  0.4749
  892TIP3    H2 2683   2.300   3.501   4.603  2.4562 -2.0953 -1.8001
  893TIP3   OH2 2684   2.882   5.108   3.867 -0.4952  0.4910  0.3243
  893TIP3    H1 2685   2.916   5.021   3.847  1.5738  1.4096 -0.4320
  893TIP3    H2 2686   2.909   5.125   3.957  0.9749  1.1298 -0.2025
  894TIP3   OH2 2687   1.375   4.303   4.332  0.3297  0.3835 -0.7806
  894TIP3    H1 2688   1.470   4.310   4.344  0.2299 -1.2190  1.8039
  894TIP3    H2 2689   1.342   4.391   4.351  1.2364  0.7873 -1.0120
  895TIP3   OH2 2690   2.392   5.229   4.577 -0.2485  0.0526 -0.2916
  895TIP3    H1 2691   2.405   5.323   4.580 -0.2319  0.0291  0.8782
  895TIP3    H2 2692   2.448   5.194   4.646 -0.3629 -0.8061 -0.6096
  896TIP3   OH2 2693   2.356   0.627   5.203  0.0529 -0.2045  0.7940
  896TIP3    H1 2694   2.436   0.576   5.197  0.1754 -0.0937  1.4308
  896TIP3    H2 2695   2.360   0.687   5.128  0.1640 -0.7533  0.3560
  897TIP3   OH2 2696   1.227   2.246   2.566 -0.0864 -1.1039  0.0346
  897TIP3    H1 2697   1.205   2.333   2.531  1.3597 -0.2799  1.0467
  897TIP3    H2 2698   1.225   2.258   2.661 -0.2967 -2.3151  0.1879
  898TIP3   OH2 2699   4.106   1.514   3.680 -0.1049  0.0863 -0.8914
  898TIP3    H1 2700   4.097   1.421   3.699  0.1277  0.2838  0.2524
  898TIP3    H2 2701   4.091   1.521   3.586  1.6988 -1.3501 -1.3386
  899TIP3   OH2 2702   3.511   2.761   0.332 -0.0593 -0.0484 -0.3563
  899TIP3    H1 2703   3.587   2.710   0.361 -0.2622  0.6300  1.4870
  899TIP3    H2 2704   3.509   2.837   0.390 -0.3950  1.5488 -2.3499
  900TIP3   OH2 2705   2.917   0.875   3.321 -0.2819 -0.4079 -0.2553
  900TIP3    H1 2706   2.984   0.857   3.387  0.0608  0.6815 -0.2845
  900TIP3    H2 2707   2.862   0.797   3.321  0.8297 -1.2138 -0.0411
  901TIP3   OH2 2708   5.639   2.002   2.025 -0.8479 -0.3253  0.3882
  901TIP3    H1 2709   5.658   1.929   1.967 -1.3234 -0.7890  0.8145
  901TIP3    H2 2710   5.546   2.019   2.013 -0.7933  0.0469  0.4811
  902TIP3   OH2 2711   1.672   0.071   0.251  0.0491  0.0356  0.4323
  902TIP3    H1 2712   1.578   0.082   0.249 -0.0904 -1.0000  0.2750
  902TIP3    H2 2713   1.702   0.104   0.166 -0.2621 -0.2309  0.2128
  903TIP3   OH2 2714   5.481   3.289   0.753  0.1789 -0.1232  0.2987
  903TIP3    H1 2715   5.464   3.380   0.775  0.3098 -0.0691  0.1721
  903TIP3    H2 2716   5.497   3.289   0.659 -1.0035 -0.4375  0.0763
  904TIP3   OH2 2717   0.661   3.063   4.203  0.2985  0.4423 -0.3256
  904TIP3    H1 2718   0.727   3.104   4.146 -0.1287  0.9121 -0.4856
  904TIP3    H2 2719   0.623   3.135   4.252  2.1000 -0.1362  2.1284
  905TIP3   OH2 2720   0.542   4.432   2.509  0.0306 -0.3338  0.6220
  905TIP3    H1 2721   0.609   4.493   2.477 -0.2470  0.5502  1.6544
  905TIP3    H2 2722   0.486   4.416   2.432  0.2427  0.5497  0.2632
  906TIP3   OH2 2723   0.722   2.081   4.526 -0.4177 -0.2543  0.2609
  906TIP3    H1 2724   0.777   2.138   4.472  1.5358 -0.1229  2.2754
  906TIP3    H2 2725   0.652   2.139   4.558  0.4313  0.5509  0.7093
  907TIP3   OH2 2726   4.876   2.017   0.448  0.5011  0.3128 -0.2301
  907TIP3    H1 2727   4.915   2.094   0.487 -1.1725 -0.3103  3.0395
  907TIP3    H2 2728   4.934   1.945   0.472  0.3731  0.1514 -0.3982
  908TIP3   OH2 2729   4.381   3.204   0.445 -0.2080 -0.0875  0.2493
  908TIP3    H1 2730   4.405   3.155   0.524 -1.1065 -2.0321 -0.6102
  908TIP3    H2 2731   4.287   3.222   0.456 -0.3795 -0.5251 -0.4285
  909TIP3   OH2 2732   3.662   3.874   3.429  0.0697  0.2981  0.5427
  909TIP3    H1 2733   3.597   3.813   3.396 -0.5116  1.4801 -0.5749
  909TIP3    H2 2734   3.736   3.868   3.368  0.0792  0.5738  0.5223
  910TIP3   OH2 2735   5.646   4.798   1.590 -0.1656  0.0489  0.1735
  910TIP3    H1 2736   5.696   4.858   1.646  1.1230  0.9646 -1.8328
  910TIP3    H2 2737   5.682   4.711   1.610 -1.3238  0.0029  2.3550
  911TIP3   OH2 2738   1.316   2.730   3.807 -0.3680 -0.4070 -0.0391
  911TIP3    H1 2739   1.328   2.659   3.870  0.6722  1.2943  1.7712
  911TIP3    H2 2740   1.254   2.694   3.743  1.1504 -3.4103 -0.0127
  912TIP3   OH2 2741   2.214   2.827   0.167 -0.0884 -0.2829  0.2141
  912TIP3    H1 2742   2.146   2.778   0.121  1.7917 -0.4181 -2.7548
  912TIP3    H2 2743   2.271   2.759   0.203 -0.7615 -0.1847  1.4861
  913TIP3   OH2 2744   5.305   5.259   1.403 -0.1789 -0.1693  0.1076
  913TIP3    H1 2745   5.351   5.330   1.447 -2.8924  0.7282  1.7593
  913TIP3    H2 2746   5.268   5.299   1.324  0.2508 -0.3945 -0.2144
  914TIP3   OH2 2747   0.536   1.327   5.029 -0.0073 -0.2730 -0.3759
  914TIP3    H1 2748   0.542   1.409   5.079 -1.5966 -0.9080  0.9415
  914TIP3    H2 2749   0.474   1.347   4.959  1.2479  0.2349 -1.3984
  915TIP3   OH2 2750   4.929   2.180   1.669 -0.4301 -0.2236  0.1275
  915TIP3    H1 2751   4.909   2.267   1.633  1.8770  0.3916  0.2205
  915TIP3    H2 2752   4.867   2.169   1.741 -1.6570  0.7358 -0.7317
  916TIP3   OH2 2753   5.777   2.570   1.525 -0.5624 -0.1953  0.0352
  916TIP3    H1 2754   5.754   2.548   1.435  1.3635  2.3810 -1.2248
  916TIP3    H2 2755   5.779   2.486   1.570 -0.2425 -1.7654 -2.6604
  917TIP3   OH2 2756   1.052   3.460   0.304 -0.6880 -0.5038  0.4426
  917TIP3    H1 2757   1.111   3.399   0.260 -0.4829  0.3255 -0.4655
  917TIP3    H2 2758   1.110   3.519   0.351 -0.5177  1.9212 -2.4918
  918TIP3   OH2 2759   4.300   2.534   4.345  0.1477  0.4238 -0.2680
  918TIP3    H1 2760   4.228   2.555   4.405  0.3460 -0.6644  0.3721
  918TIP3    H2 2761   4.276   2.450   4.307 -0.2396  1.3401 -2.1639
  919TIP3   OH2 2762   5.114   0.686   4.949 -0.2468  0.0218 -0.6776
  919TIP3    H1 2763   5.142   0.684   5.041 -0.5843  1.0453 -0.5348
  919TIP3    H2 2764   5.031   0.639   4.948  0.5444 -1.4189 -0.7678
  920TIP3   OH2 2765   3.516   4.785   2.723 -0.2465 -0.3162  0.2000
  920TIP3    H1 2766   3.426   4.795   2.753 -0.8377 -0.9138 -1.2816
  920TIP3    H2 2767   3.561   4.741   2.796 -0.9590  0.6211  1.2332
  921TIP3   OH2 2768   6.184   0.527   1.812 -0.1698 -0.7409  0.6245
  921TIP3    H1 2769   6.129   0.601   1.788 -1.1080 -1.6471 -0.0950
  921TIP3    H2 2770   6.271   0.551   1.780 -0.7558 -0.5676 -0.9228
  922TIP3   OH2 2771   5.963  -0.014   3.080  0.4422 -0.2419 -0.2639
  922TIP3    H1 2772   5.989   0.067   3.123 -1.4072 -0.0383  0.5536
  922TIP3    H2 2773   5.868  -0.016   3.087  0.1698 -0.9959 -2.9473
  923TIP3   OH2 2774   5.225   3.724   0.726  1.0460 -0.0552 -0.1145
  923TIP3    H1 2775   5.293   3.657   0.727 -0.2174 -1.3871  0.2338
  923TIP3    H2 2776   5.188   3.718   0.638  1.9208  1.2646 -0.5951
  924TIP3   OH2 2777   2.192   5.490   2.169  0.3167  0.3824  0.1271
  924TIP3    H1 2778   2.129   5.441   2.221  0.9268 -0.7900 -0.2135
  924TIP3    H2 2779   2.186   5.579   2.203 -1.1693  0.2013  0.4153
  925TIP3   OH2 2780   0.275   2.577   1.191  0.7028 -0.4067  0.5333
  925TIP3    H1 2781   0.343   2.552   1.129  1.5515 -0.3927  1.4382
  925TIP3    H2 2782   0.256   2.497   1.239  2.0950  0.1928  2.1680
  926TIP3   OH2 2783   6.095   4.583   0.073 -0.6268 -0.6225 -0.0271
  926TIP3    H1 2784   6.042   4.602   0.150  0.1437 -1.5290  0.7456
  926TIP3    H2 2785   6.157   4.516   0.102  0.8320  0.2815 -0.9570
  927TIP3   OH2 2786   4.624   3.825   1.476  0.4201 -0.0609  0.2292
  927TIP3    H1 2787   4.685   3.829   1.549  0.8137 -0.7204 -0.0624
  927TIP3    H2 2788   4.538   3.836   1.516  0.5255 -1.7364  0.9565
  928TIP3   OH2 2789   1.054   3.752   4.094 -0.1376  0.4014  0.1280
  928TIP3    H1 2790   1.028   3.726   4.005  1.6282  0.1617 -0.3392
  928TIP3    H2 2791   1.087   3.672   4.133 -2.3869  0.1111  1.6306
  929TIP3   OH2 2792   0.329   4.635   3.300 -0.2069  0.4331 -0.0881
  929TIP3    H1 2793   0.260   4.701   3.305 -1.2578 -0.6800  0.7216
  929TIP3    H2 2794   0.286   4.554   3.326  1.5051 -0.2215  0.8534
  930TIP3   OH2 2795   4.258   3.981   3.507 -0.0459  0.3012  0.1574
  930TIP3    H1 2796   4.234   4.034   3.583  0.0512 -0.3752  0.6690
  930TIP3    H2 2797   4.181   3.927   3.490 -0.5252  1.3047 -0.9950
  931TIP3   OH2 2798   2.679   5.533   2.526 -0.3664  0.0786 -0.1210
  931TIP3    H1 2799   2.748   5.579   2.574 -1.2215  0.8950  0.3358
  931TIP3    H2 2800   2.638   5.601   2.472 -0.1252 -0.6121 -1.2123
  932TIP3   OH2 2801   6.323   3.894   1.105  0.2271 -0.0432 -0.1581
  932TIP3    H1 2802   6.337   3.840   1.028  2.5227  1.6721 -1.0678
  932TIP3    H2 2803   6.313   3.983   1.070 -0.3290  0.5595  1.4448
  933TIP3   OH2 2804   5.299   4.735   0.265  0.1684 -0.1232  0.4165
  933TIP3    H1 2805   5.236   4.684   0.213  0.2254 -1.3278  1.4604
  933TIP3    H2 2806   5.259   4.739   0.352 -0.5515  2.9773  0.0414
  934TIP3   OH2 2807   3.957   5.164   2.085  0.4632  0.0457 -0.0843
  934TIP3    H1 2808   4.018   5.107   2.130  0.3089 -0.3111 -0.3214
  934TIP3    H2 2809   3.872   5.121   2.094  0.1005  0.9178  0.9122
  935TIP3   OH2 2810   4.666   0.794   2.781 -0.8069 -0.7120 -0.0852
  935TIP3    H1 2811   4.579   0.802   2.740 -0.4058  1.4301 -0.6847
  935TIP3    H2 2812   4.668   0.864   2.846  0.3071 -1.0243  0.2357
  936TIP3   OH2 2813   1.826   3.479   4.128 -0.1077 -0.1066 -0.1079
  936TIP3    H1 2814   1.903   3.473   4.184  0.2027 -0.6567 -0.5821
  936TIP3    H2 2815   1.768   3.541   4.173 -0.0138 -0.7832  0.9879
  937TIP3   OH2 2816   4.249   5.044   4.664 -0.3631  0.0820  0.2278
  937TIP3    H1 2817   4.183   5.030   4.596 -0.3298  0.6190  0.0755
  937TIP3    H2 2818   4.332   5.045   4.617 -0.3696  0.8076  0.2207
  938TIP3   OH2 2819   5.287   1.898   3.065  0.9746  0.3517 -0.0530
  938TIP3    H1 2820   5.261   1.987   3.040  1.8666  0.6752  0.1220
  938TIP3    H2 2821   5.323   1.908   3.153 -0.3133 -0.4480  0.5862
  939TIP3   OH2 2822   1.201   2.132   1.501 -0.1640  0.5990  0.0587
  939TIP3    H1 2823   1.279   2.143   1.556 -0.5920 -0.4570  0.9197
  939TIP3    H2 2824   1.137   2.091   1.559 -1.2461  1.1313 -0.7373
  940TIP3   OH2 2825   1.393   2.205   3.615  0.3808 -0.4407 -0.7596
  940TIP3    H1 2826   1.344   2.145   3.558 -0.3458 -0.1202 -0.4799
  940TIP3    H2 2827   1.340   2.284   3.618  0.1348 -0.6337  0.7770
  941TIP3   OH2 2828   0.454   2.884   1.129  0.8173  0.3317  0.4242
  941TIP3    H1 2829   0.455   2.815   1.195  2.4792 -0.3936 -0.2877
  941TIP3    H2 2830   0.546   2.892   1.101  0.6769  2.7645  0.4012
  942TIP3   OH2 2831   4.233   4.115   3.202  0.6071 -0.0072  0.5620
  942TIP3    H1 2832   4.236   4.039   3.260 -0.2662  1.1636  2.2456
  942TIP3    H2 2833   4.308   4.168   3.230 -0.9830  1.5362  2.1079
  943TIP3   OH2 2834   1.308   1.882   5.124  0.3008  0.2617  0.0896
  943TIP3    H1 2835   1.249   1.835   5.065  1.0139 -0.1830 -0.2836
  943TIP3    H2 2836   1.250   1.918   5.192 -0.3939 -0.1928 -0.2451
  944TIP3   OH2 2837   4.409   2.018   4.273  0.0288 -0.8629  0.7443
  944TIP3    H1 2838   4.426   2.103   4.314  1.3065 -0.7115 -0.0562
  944TIP3    H2 2839   4.424   2.033   4.180 -0.6799 -1.7499  0.4726
  945TIP3   OH2 2840   3.152   4.853   0.565 -0.1511 -0.2612  0.1556
  945TIP3    H1 2841   3.138   4.859   0.471  0.7643 -0.8022 -0.0281
  945TIP3    H2 2842   3.163   4.759   0.581 -0.0205 -0.1459  0.7598
  946TIP3   OH2 2843   5.724   2.677   3.394  0.0763 -0.0549  0.2108
  946TIP3    H1 2844   5.662   2.750   3.395  1.0388  0.7930  0.4548
  946TIP3    H2 2845   5.680   2.607   3.442 -1.2531  0.0178 -0.8582
  947TIP3   OH2 2846   5.583   0.546   1.811  0.0073  0.5273 -0.4023
  947TIP3    H1 2847   5.571   0.617   1.748  0.2560  1.8186  0.9475
  947TIP3    H2 2848   5.650   0.579   1.871 -1.5006  0.0934  1.5992
  948TIP3   OH2 2849   2.186   5.740   3.243 -0.2084 -0.5952  0.2522
  948TIP3    H1 2850   2.234   5.778   3.170  0.9852  0.3014  1.4416
  948TIP3    H2 2851   2.236   5.767   3.321 -1.8505 -0.8360  1.4500
  949TIP3   OH2 2852   2.737   2.529   3.118  0.6876 -0.1623 -0.2918
  949TIP3    H1 2853   2.778   2.519   3.032 -0.9257  0.5254 -1.1815
  949TIP3    H2 2854   2.669   2.462   3.120 -0.4937  0.9833 -0.3391
  950TIP3   OH2 2855   0.791   5.307   2.546 -0.6706  0.4831  0.0585
  950TIP3    H1 2856   0.733   5.326   2.620  0.7310  1.0529  1.0723
  950TIP3    H2 2857   0.853   5.243   2.580 -0.5067  0.1297 -0.8872
  951TIP3   OH2 2858   5.320   2.864   0.655 -0.1738 -0.2323  0.0035
  951TIP3    H1 2859   5.311   2.799   0.725 -1.6435 -1.0493 -0.8903
  951TIP3    H2 2860   5.412   2.860   0.630 -0.2673 -2.1858 -0.1982
  952TIP3   OH2 2861   5.160   0.981   3.103 -0.5124 -0.5021  0.0935
  952TIP3    H1 2862   5.147   0.909   3.165 -0.5056 -1.4375 -0.9648
  952TIP3    H2 2863   5.227   0.949   3.043 -2.7100 -0.9303 -2.3064
  953TIP3   OH2 2864   5.713   0.506   4.482  0.2346 -0.1306  0.1468
  953TIP3    H1 2865   5.622   0.513   4.512  0.8342  0.0509  2.0404
  953TIP3    H2 2866   5.737   0.415   4.500  0.8764  0.2099  1.0651
  954TIP3   OH2 2867   2.656   2.663   2.157  0.0495 -0.2641 -0.4030
  954TIP3    H1 2868   2.714   2.667   2.081 -0.7661 -1.3127 -1.1126
  954TIP3    H2 2869   2.656   2.571   2.182  0.5302  0.1132  1.0723
  955TIP3   OH2 2870   4.959   2.570   2.726  0.1970  0.9407  0.0619
  955TIP3    H1 2871   4.884   2.574   2.785  0.3269 -0.8244  0.3958
  955TIP3    H2 2872   5.015   2.643   2.753 -1.7514  2.8674 -0.7738
  956TIP3   OH2 2873   0.393   1.162   0.307 -0.0432 -0.7935  0.2692
  956TIP3    H1 2874   0.457   1.193   0.371 -0.5558  0.8410  0.0426
  956TIP3    H2 2875   0.309   1.174   0.350 -0.4130  0.5780 -0.7773
  957TIP3   OH2 2876   2.496   1.322   4.513  0.4134 -0.2636 -0.5510
  957TIP3    H1 2877   2.457   1.261   4.451 -0.4148  0.9952 -1.3123
  957TIP3    H2 2878   2.426   1.341   4.575  0.5025  0.3146 -0.6270
  958TIP3   OH2 2879   5.798   5.130   3.201 -0.1373  0.0837  0.7410
  958TIP3    H1 2880   5.713   5.086   3.202 -0.7587  1.2504  1.1923
  958TIP3    H2 2881   5.828   5.126   3.292  1.1738 -1.8837  0.3093
  959TIP3   OH2 2882   2.909   4.957   1.916 -0.0410  0.0203  0.5109
  959TIP3    H1 2883   2.898   5.030   1.855 -0.4990 -0.9119 -0.5717
  959TIP3    H2 2884   2.997   4.968   1.951 -0.4458  1.6018  1.0932
  960TIP3   OH2 2885   0.040   5.040   0.825  0.1093 -0.2361 -0.2919
  960TIP3    H1 2886   0.025   5.049   0.919  1.4232  0.3096 -0.1084
  960TIP3    H2 2887  -0.033   4.986   0.794  0.5229 -1.8401  1.3297
  961TIP3   OH2 2888   5.324   1.014   0.078  0.7572 -0.4125  0.2480
  961TIP3    H1 2889   5.250   0.963   0.044  1.5284 -1.7267  0.4910
  961TIP3    H2 2890   5.318   1.098   0.032 -2.8423  0.8860  2.6028
  962TIP3   OH2 2891   1.543   4.683   2.486 -0.2258  0.0348  0.5854
  962TIP3    H1 2892   1.505   4.693   2.399  2.9661  0.1788 -0.9131
  962TIP3    H2 2893   1.503   4.753   2.538 -2.1270 -0.0010 -0.7285
  963TIP3   OH2 2894   4.233   1.318   1.210  0.6425  0.0491  0.1707
  963TIP3    H1 2895   4.223   1.378   1.283 -1.2508  0.0853 -0.0729
  963TIP3    H2 2896   4.210   1.370   1.133 -0.6058 -0.8230 -0.0869
  964TIP3   OH2 2897   5.192   2.150   3.041  0.2717 -0.0239 -0.1734
  964TIP3    H1 2898   5.124   2.175   2.978 -1.3154 -0.4910  1.2744
  964TIP3    H2 2899   5.144   2.122   3.119  2.1590  0.9391  1.4419
  965TIP3   OH2 2900   2.318   3.853   0.082  0.0883 -0.6619  0.9068
  965TIP3    H1 2901   2.287   3.893   0.001 -1.9633 -0.9361  1.4938
  965TIP3    H2 2902   2.389   3.794   0.055 -0.7825 -0.9954 -0.7356
  966TIP3   OH2 2903   5.025   5.918   5.147  0.0939 -0.4108 -0.2325
  966TIP3    H1 2904   5.002   5.968   5.068 -0.1784  1.8339  1.1940
  966TIP3    H2 2905   5.119   5.904   5.140  0.2982  0.9441 -0.3266
  967TIP3   OH2 2906   0.353   1.837   4.097 -0.5705 -0.3058 -0.0319
  967TIP3    H1 2907   0.328   1.913   4.045  0.2041 -0.0984 -0.1036
  967TIP3    H2 2908   0.304   1.764   4.058 -0.6776  0.0057 -0.4870
  968TIP3   OH2 2909   0.824   1.488   1.659  0.0668 -0.1114  0.2921
  968TIP3    H1 2910   0.764   1.429   1.614  2.1640 -2.2699  0.1597
  968TIP3    H2 2911   0.822   1.460   1.750 -1.1127  1.6085  0.8515
  969TIP3   OH2 2912   5.595   2.073   3.819  0.0473 -0.3198  0.3672
  969TIP3    H1 2913   5.611   2.029   3.735  0.9130 -1.6699  1.1980
  969TIP3    H2 2914   5.676   2.121   3.837  0.6893 -1.7167  1.3844
  970TIP3   OH2 2915   5.498   2.625   2.753  0.0326  0.1722 -0.3823
  970TIP3    H1 2916   5.541   2.582   2.827 -1.8698 -0.8841  0.1715
  970TIP3    H2 2917   5.562   2.618   2.682  1.4087  0.1157  0.7995
  971TIP3   OH2 2918   0.715   1.169   3.095  0.2460  0.2545  0.4486
  971TIP3    H1 2919   0.633   1.166   3.045  1.1032 -2.5061 -1.0143
  971TIP3    H2 2920   0.692   1.138   3.182 -0.2899 -0.4845  0.0533
  972TIP3   OH2 2921   1.387   2.341   1.669 -0.6131 -0.2947 -0.0831
  972TIP3    H1 2922   1.362   2.433   1.680 -3.3056 -1.0452  0.7500
  972TIP3    H2 2923   1.374   2.302   1.755  1.7039 -1.2856 -0.0915
  973TIP3   OH2 2924   3.352   2.351   4.905  0.3464 -0.5277  0.0955
  973TIP3    H1 2925   3.286   2.401   4.952  0.3817 -0.8884  0.5300
  973TIP3    H2 2926   3.401   2.417   4.855  0.5178 -0.0984  0.8121
  974TIP3   OH2 2927   6.139   4.157   2.325 -0.2224 -0.1117 -0.3911
  974TIP3    H1 2928   6.225   4.118   2.314 -0.9157 -1.3261 -2.0311
  974TIP3    H2 2929   6.143   4.240   2.277  0.4595  0.6158  0.8635
  975TIP3   OH2 2930   3.073   4.898   0.303 -0.3097 -0.3614  0.0906
  975TIP3    H1 2931   2.983   4.864   0.298 -0.8500  1.1671 -2.3830
  975TIP3    H2 2932   3.109   4.883   0.216  1.7538 -0.5766  0.9328
  976TIP3   OH2 2933   4.999   3.207   0.711  0.2847  0.3842  0.3557
  976TIP3    H1 2934   4.988   3.253   0.794  0.4388  1.3130 -0.1208
  976TIP3    H2 2935   5.082   3.161   0.719  0.2598  0.4088  0.7481
  977TIP3   OH2 2936   3.242   2.789   2.799  0.3442  0.9039  0.5801
  977TIP3    H1 2937   3.311   2.836   2.752 -0.2697  1.2250 -0.0173
  977TIP3    H2 2938   3.288   2.739   2.866  1.0895  1.7320  0.7060
  978TIP3   OH2 2939   5.196   2.097   1.728  0.0345 -0.0824 -0.0923
  978TIP3    H1 2940   5.102   2.110   1.716 -0.2656 -0.0183  1.9468
  978TIP3    H2 2941   5.233   2.185   1.724 -0.2460  0.0876  0.8142
  979TIP3   OH2 2942   1.838   4.954   2.329 -0.1775  0.2644  0.5571
  979TIP3    H1 2943   1.787   5.007   2.390 -0.3465  1.6656 -0.7351
  979TIP3    H2 2944   1.917   5.005   2.313  1.4254 -1.6103  2.0701
  980TIP3   OH2 2945   3.112   5.466   2.522 -0.0785 -0.7301 -0.1751
  980TIP3    H1 2946   3.084   5.554   2.500 -0.1203 -0.7418 -0.1695
  980TIP3    H2 2947   3.072   5.448   2.607 -0.1051 -0.7702 -0.1960
  981TIP3   OH2 2948   5.467   4.961   4.904 -0.2079 -0.0067  0.1857
  981TIP3    H1 2949   5.483   4.890   4.967 -0.8167 -3.0045 -2.7103
  981TIP3    H2 2950   5.375   4.985   4.918  0.1221  0.6007  1.4814
  982TIP3   OH2 2951   4.493   4.217   3.265  1.0418 -0.0740 -0.1798
  982TIP3    H1 2952   4.539   4.144   3.306 -1.1422 -1.4594 -0.0211
  982TIP3    H2 2953   4.507   4.291   3.324  0.5461 -1.2378  1.4568
  983TIP3   OH2 2954   3.976   5.928   1.061  0.5414  0.0926  0.1449
  983TIP3    H1 2955   4.013   5.844   1.086  0.0389 -0.3985 -0.7162
  983TIP3    H2 2956   4.017   5.949   0.977  0.6717  0.7156  0.3566
  984TIP3   OH2 2957   5.144   3.862   4.459  0.2957  0.1058 -0.3001
  984TIP3    H1 2958   5.097   3.944   4.444  1.3728  1.1850  1.7065
  984TIP3    H2 2959   5.132   3.844   4.552  2.4219 -0.4684 -0.0734
  985TIP3   OH2 2960   1.570   2.171   1.822  0.9017 -0.2080 -0.1146
  985TIP3    H1 2961   1.603   2.190   1.734  1.0513 -0.1819 -0.0536
  985TIP3    H2 2962   1.648   2.173   1.877  0.6039  1.5336  0.3198
  986TIP3   OH2 2963   2.565   4.389   1.153 -0.4616 -0.3956  0.1966
  986TIP3    H1 2964   2.625   4.448   1.198 -0.8438  0.6263 -0.5756
  986TIP3    H2 2965   2.489   4.383   1.211  0.3605 -1.7213  1.1929
  987TIP3   OH2 2966   2.075   1.993   2.265 -0.2312  0.2695  0.1727
  987TIP3    H1 2967   2.078   1.974   2.359  1.1332  0.9871  0.3080
  987TIP3    H2 2968   2.108   1.913   2.223 -1.3811 -0.2619  0.2474
  988TIP3   OH2 2969   2.534   4.690   3.215 -0.3471 -0.3478 -0.3864
  988TIP3    H1 2970   2.583   4.611   3.239 -3.3690 -2.6284 -1.1256
  988TIP3    H2 2971   2.543   4.748   3.291  3.6244 -0.3953 -0.6093
  989TIP3   OH2 2972   1.206   0.535   1.126  0.2000 -0.2809  0.3584
  989TIP3    H1 2973   1.183   0.612   1.073 -1.1120  0.3996  1.8438
  989TIP3    H2 2974   1.205   0.567   1.216 -1.4642 -2.2833  1.1099
  990TIP3   OH2 2975   0.715   5.106   4.705  0.3446  0.2704  0.2353
  990TIP3    H1 2976   0.626   5.071   4.714 -0.3160  1.1754 -2.0125
  990TIP3    H2 2977   0.771   5.029   4.714 -0.8513 -0.8099 -0.9943
  991TIP3   OH2 2978   3.057   3.156   3.323 -0.0169 -0.1874  0.2299
  991TIP3    H1 2979   3.034   3.194   3.238  0.5679  1.4855  0.7796
  991TIP3    H2 2980   2.974   3.125   3.359 -0.8631  2.1448  0.4655
  992TIP3   OH2 2981   1.628   1.284   0.351 -0.2356  0.4731 -0.3110
  992TIP3    H1 2982   1.554   1.344   0.352 -0.0170  0.7477  0.7529
  992TIP3    H2 2983   1.591   1.200   0.323 -0.7595  0.8318 -0.6997
  993TIP3   OH2 2984   0.742   5.298   4.076  0.1261  0.7666 -1.1088
  993TIP3    H1 2985   0.664   5.244   4.088  0.9415 -0.2064  0.1515
  993TIP3    H2 2986   0.737   5.364   4.145  1.3273 -0.4989  0.2790
  994TIP3   OH2 2987   3.450   0.755   2.098  0.1039  0.2952 -0.1975
  994TIP3    H1 2988   3.411   0.807   2.168  0.6692  0.6430 -0.1281
  994TIP3    H2 2989   3.457   0.667   2.134 -0.8767  0.1642 -0.3203
  995TIP3   OH2 2990   5.796   4.789   0.607  0.4806 -0.1639 -0.4926
  995TIP3    H1 2991   5.707   4.800   0.572 -0.2635 -1.4536  0.8850
  995TIP3    H2 2992   5.796   4.839   0.689  0.0303 -2.5174  1.0269
  996TIP3   OH2 2993   1.485   0.516   0.792 -0.1840 -0.4058 -0.2985
  996TIP3    H1 2994   1.395   0.519   0.760 -0.5597  0.6531  0.7768
  996TIP3    H2 2995   1.517   0.606   0.784  0.7663 -0.7576 -0.6228
  997TIP3   OH2 2996   1.279   4.128   2.433  0.4432  0.0491 -0.1095
  997TIP3    H1 2997   1.359   4.081   2.412  0.7138 -0.0037  0.9779
  997TIP3    H2 2998   1.285   4.145   2.527 -1.4329 -1.1344  0.2863
  998TIP3   OH2 2999   3.944   4.974   2.535 -0.4676  0.6649  0.1381
  998TIP3    H1 3000   3.855   4.939   2.535 -0.4484  0.5918 -0.8501
  998TIP3    H2 3001   3.999   4.900   2.563 -0.6333  0.4840 -0.0139
  999TIP3   OH2 3002   0.878   4.910   4.851 -0.2442 -0.2762 -0.0485
  999TIP3    H1 3003   0.900   4.975   4.918 -2.4189  0.2542  0.2300
  999TIP3    H2 3004   0.962   4.876   4.822  0.8880  1.6105  0.8431
 1000TIP3   OH2 3005   4.465   3.133   4.651 -0.4372 -0.3808 -0.4811
 1000TIP3    H1 3006   4.556   3.109   4.637 -0.5525 -0.0729 -1.8251
 1000TIP3    H2 3007   4.420   3.108   4.570 -1.0041  2.0922 -1.0079
 1001TIP3   OH2 3008   5.395   5.618   4.219  0.2550 -0.7931  0.0863
 1001TIP3    H1 3009   5.323   5.680   4.211 -1.2344 -2.3129  1.0246
 1001TIP3    H2 3010   5.355   5.532   4.205  1.4598 -1.8571  2.4558
 1002TIP3   OH2 3011   0.488   1.953   2.791 -0.0955  0.3035 -0.0487
 1002TIP3    H1 3012   0.415   1.995   2.836  1.1105  0.9373  1.3933
 1002TIP3    H2 3013   0.524   2.022   2.735 -1.1522 -0.2842 -1.5292
 1003TIP3   OH2 3014   5.066   1.341   1.876 -0.1181  0.6421  0.1082
 1003TIP3    H1 3015   5.015   1.353   1.956  1.3250  0.9382  1.0314
 1003TIP3    H2 3016   5.033   1.408   1.817 -2.4891 -0.7552 -0.2804
 1004TIP3   OH2 3017   3.665   2.830   4.947  0.5095  0.0690 -0.0621
 1004TIP3    H1 3018   3.643   2.745   4.985  1.3954 -0.2704 -0.2819
 1004TIP3    H2 3019   3.760   2.837   4.959  0.3812  1.2530  0.4016
 1005TIP3   OH2 3020   3.982   5.744   2.643 -0.4710  0.1353 -0.1819
 1005TIP3    H1 3021   4.004   5.810   2.577  0.3948 -0.2893 -0.3294
 1005TIP3    H2 3022   3.994   5.789   2.727  0.8936 -0.0324 -0.2550
 1006TIP3   OH2 3023   6.004   0.366   2.657 -0.4213  0.2212  0.3706
 1006TIP3    H1 3024   6.034   0.292   2.604  0.9732  0.3962  0.8636
 1006TIP3    H2 3025   5.960   0.326   2.731  1.2300 -0.2040  1.1782
 1007TIP3   OH2 3026   4.114   4.500   4.713  0.1676  0.3602 -0.4714
 1007TIP3    H1 3027   4.127   4.460   4.627  0.2039  0.0446 -0.3229
 1007TIP3    H2 3028   4.024   4.479   4.736  0.1445  0.4816 -0.4507
 1008TIP3   OH2 3029   2.488   2.744   1.513 -0.4808 -0.4296  0.0729
 1008TIP3    H1 3030   2.581   2.754   1.532 -0.3731 -0.1273 -0.6056
 1008TIP3    H2 3031   2.478   2.653   1.486 -0.6977 -0.9833  1.8608
 1009TIP3   OH2 3032   4.024   0.451   3.130  0.4070 -0.2937 -0.4528
 1009TIP3    H1 3033   3.932   0.431   3.150  0.7386 -1.5036 -0.0167
 1009TIP3    H2 3034   4.056   0.495   3.208  0.1346  0.3737 -0.7110
 1010TIP3   OH2 3035   4.754   3.494   1.544 -0.0747  0.4571  0.2638
 1010TIP3    H1 3036   4.731   3.586   1.560 -2.4269  0.5781 -2.8169
 1010TIP3    H2 3037   4.671   3.447   1.555  0.2249 -0.6642 -1.7387
 1011TIP3   OH2 3038   2.455   3.758   4.605 -0.0714 -0.1821 -0.2859
 1011TIP3    H1 3039   2.535   3.750   4.656  0.0229 -1.4805 -0.5823
 1011TIP3    H2 3040   2.399   3.816   4.656  0.7670  0.1319  0.2953
 1012TIP3   OH2 3041   3.987   1.206   4.458 -0.6794 -0.3129  0.6566
 1012TIP3    H1 3042   4.026   1.231   4.542 -0.1368  0.8387  0.0823
 1012TIP3    H2 3043   3.893   1.223   4.470 -0.6737 -0.6226  1.1855
 1013TIP3   OH2 3044   5.211   4.730   3.477 -0.0822  0.0188 -0.0152
 1013TIP3    H1 3045   5.129   4.727   3.526 -0.5599  1.4147 -0.6801
 1013TIP3    H2 3046   5.249   4.815   3.501  0.1536  0.2877 -1.2850
 1014TIP3   OH2 3047   4.700   4.206   2.631  0.1243 -0.1257  0.0734
 1014TIP3    H1 3048   4.684   4.131   2.689  1.2894  0.0760  0.6778
 1014TIP3    H2 3049   4.676   4.282   2.684 -1.2939 -0.0597 -0.6243
 1015TIP3   OH2 3050   3.857   1.284   2.683 -0.1344 -0.2146  0.7923
 1015TIP3    H1 3051   3.938   1.236   2.700  0.3616 -0.5328 -1.9772
 1015TIP3    H2 3052   3.790   1.215   2.673 -0.5137 -0.0171  1.8916
 1016TIP3   OH2 3053   1.433   1.958   1.948 -0.2952  0.1045  0.1526
 1016TIP3    H1 3054   1.355   1.963   1.892  0.1238 -1.0054 -0.5527
 1016TIP3    H2 3055   1.500   2.005   1.899  0.2445 -1.4077 -0.6040
 1017TIP3   OH2 3056   5.149   0.380   2.267 -0.3218  0.0151 -0.1044
 1017TIP3    H1 3057   5.185   0.299   2.232 -1.7763 -0.9416  0.5317
 1017TIP3    H2 3058   5.144   0.439   2.192 -0.5124 -0.9462 -0.8610
 1018TIP3   OH2 3059   5.269   4.287   3.627  0.0970 -0.0415 -0.2905
 1018TIP3    H1 3060   5.212   4.347   3.676  0.5251  0.4913 -0.4431
 1018TIP3    H2 3061   5.308   4.340   3.558  3.2465  0.4472  1.6675
 1019TIP3   OH2 3062   5.101   2.110   2.695  0.1200  0.0056 -0.2205
 1019TIP3    H1 3063   5.069   2.142   2.610 -1.0832 -0.4422  0.0479
 1019TIP3    H2 3064   5.101   2.187   2.751 -1.1209 -0.0957 -0.0551
 1020TIP3   OH2 3065   5.103   2.390   4.534 -0.1615 -0.1233  0.5081
 1020TIP3    H1 3066   5.087   2.324   4.467 -0.3233 -0.3497  0.7654
 1020TIP3    H2 3067   5.086   2.344   4.617  1.8230 -0.3893  0.8179
 1021TIP3   OH2 3068   4.584   4.204   2.090  0.4433 -0.3494 -0.6517
 1021TIP3    H1 3069   4.634   4.264   2.145  0.5822 -1.1188  0.0870
 1021TIP3    H2 3070   4.498   4.199   2.132  0.4607 -0.7260 -0.6547
 1022TIP3   OH2 3071   0.106   0.548   1.134 -0.1266 -0.1572 -0.1965
 1022TIP3    H1 3072   0.095   0.468   1.083 -0.4294  0.5500 -1.2646
 1022TIP3    H2 3073   0.199   0.548   1.158  0.5232  0.4890 -2.5005
 1023TIP3   OH2 3074   0.317   3.367   2.845 -0.3408  0.2139  0.3116
 1023TIP3    H1 3075   0.251   3.435   2.828 -0.0105  0.1371 -1.3965
 1023TIP3    H2 3076   0.386   3.413   2.893 -0.9542  0.6324  0.8178
 1024TIP3   OH2 3077   1.245   0.040   3.168 -0.3416  0.8197 -0.1398
 1024TIP3    H1 3078   1.182   0.090   3.116 -0.0254  0.3279 -1.0279
 1024TIP3    H2 3079   1.210  -0.049   3.169 -0.5267  0.8974  0.8040
 1025TIP3   OH2 3080   0.988   3.733   3.803 -0.3143  0.0536 -0.2662
 1025TIP3    H1 3081   0.951   3.648   3.781 -0.6888 -0.3454  1.6960
 1025TIP3    H2 3082   0.912   3.790   3.816 -0.0977  0.4084 -0.5268
 1026TIP3   OH2 3083   3.263   2.740   3.762  0.2067  0.1472 -0.3541
 1026TIP3    H1 3084   3.268   2.645   3.772  1.2265  0.0981 -1.1792
 1026TIP3    H2 3085   3.335   2.773   3.816  0.4297  0.3899 -0.7946
 1027TIP3   OH2 3086   4.496   3.798   5.001 -0.3979  0.2840  0.0358
 1027TIP3    H1 3087   4.558   3.738   4.960 -0.8743  0.2038 -0.5884
 1027TIP3    H2 3088   4.453   3.842   4.928 -2.6093 -1.2287  0.3134
 1028TIP3   OH2 3089   3.816   4.854   0.126  0.2097 -0.3177 -0.4001
 1028TIP3    H1 3090   3.755   4.852   0.199  0.0761  0.1255 -0.4951
 1028TIP3    H2 3091   3.765   4.887   0.052  0.7009  0.6139 -0.3418
 1029TIP3   OH2 3092   5.774   1.775   0.459 -0.4542 -0.0190 -0.2975
 1029TIP3    H1 3093   5.757   1.867   0.437  0.3054  0.1665 -0.1445
 1029TIP3    H2 3094   5.731   1.726   0.389  0.0399  0.4897 -0.9714
 1030TIP3   OH2 3095   3.599   3.547   3.627 -1.0193  0.1741 -0.3074
 1030TIP3    H1 3096   3.592   3.457   3.658  1.2479 -0.0556 -0.2954
 1030TIP3    H2 3097   3.609   3.599   3.706 -2.0432  0.4228 -0.3303
 1031TIP3   OH2 3098   1.356   0.482   3.029  0.2162 -1.1255  0.0420
 1031TIP3    H1 3099   1.320   0.419   3.091 -1.9937  0.6638  0.7056
 1031TIP3    H2 3100   1.286   0.496   2.966  1.6999 -1.3830 -1.7597
 1032TIP3   OH2 3101   5.161   3.033   0.942  0.3309 -0.2228 -0.2439
 1032TIP3    H1 3102   5.154   2.937   0.939  0.4859 -0.3726  2.1911
 1032TIP3    H2 3103   5.252   3.049   0.965 -0.4322  0.2943  2.8688
 1033TIP3   OH2 3104   3.989   2.780   4.725  0.1167  0.0109  0.6253
 1033TIP3    H1 3105   4.048   2.852   4.704 -0.3467  0.2300  0.0482
 1033TIP3    H2 3106   4.002   2.764   4.818  1.2441 -0.0909  0.4584
 1034TIP3   OH2 3107   3.485   4.941   3.806 -0.3230  0.4250  0.3278
 1034TIP3    H1 3108   3.482   4.983   3.892 -0.2166  2.0963 -0.4438
 1034TIP3    H2 3109   3.549   4.992   3.757 -0.8821 -0.0704 -0.9634
 1035TIP3   OH2 3110   5.779   0.900   4.169  0.3461 -0.0269  0.0425
 1035TIP3    H1 3111   5.751   0.943   4.088  1.3534 -1.1448 -0.9531
 1035TIP3    H2 3112   5.865   0.936   4.187  0.4008 -0.2527  0.2429
 1036TIP3   OH2 3113   6.337   0.694   1.327 -0.1439  0.1013  0.2365
 1036TIP3    H1 3114   6.256   0.644   1.336  1.0992 -1.8317  1.3988
 1036TIP3    H2 3115   6.386   0.648   1.260  0.6259  0.3162  0.6376
 1037TIP3   OH2 3116   5.708   3.002   1.065  0.1200 -0.1204 -0.2284
 1037TIP3    H1 3117   5.636   3.066   1.068  0.1082 -0.1556  0.5214
 1037TIP3    H2 3118   5.784   3.050   1.099  0.4686 -0.0692 -1.0719
 1038TIP3   OH2 3119   3.217   4.689   1.248  0.3321 -1.3596  0.7252
 1038TIP3    H1 3120   3.233   4.770   1.198 -1.0986 -1.8408 -0.6021
 1038TIP3    H2 3121   3.290   4.632   1.225  0.1677 -1.2417 -0.1128
 1039TIP3   OH2 3122   4.451   3.660   1.914 -0.2721  0.1973 -0.1625
 1039TIP3    H1 3123   4.520   3.726   1.916 -0.1493  0.1249 -1.3196
 1039TIP3    H2 3124   4.453   3.620   2.001 -1.4220  2.7665  1.1614
 1040TIP3   OH2 3125   5.633   0.436   3.779 -0.7198 -0.4967  0.7552
 1040TIP3    H1 3126   5.639   0.345   3.750  0.9437 -0.0311 -0.5535
 1040TIP3    H2 3127   5.689   0.440   3.857  0.8455 -0.2229 -0.3358
 1041TIP3   OH2 3128   4.056   1.370   1.725  0.3251  0.1971  1.0416
 1041TIP3    H1 3129   3.999   1.293   1.728  1.8639 -0.9743  2.9038
 1041TIP3    H2 3130   4.139   1.337   1.692  0.5728  1.4149  0.4022
 1042TIP3   OH2 3131   5.434   5.608   0.279 -0.7280 -0.0052 -0.3682
 1042TIP3    H1 3132   5.451   5.656   0.360 -0.5188 -1.7115  0.6416
 1042TIP3    H2 3133   5.407   5.521   0.308  0.5605 -1.0537 -2.1366
 1043TIP3   OH2 3134   4.920   1.345   2.117 -0.0635 -0.0278 -0.0027
 1043TIP3    H1 3135   4.951   1.358   2.206 -2.2727  1.3708  0.6487
 1043TIP3    H2 3136   4.827   1.366   2.121 -0.0928  0.7653 -2.7668
 1044TIP3   OH2 3137   2.509   1.832   0.253  0.2627 -0.1028 -0.2651
 1044TIP3    H1 3138   2.476   1.870   0.171 -0.7146  0.4595  0.3780
 1044TIP3    H2 3139   2.462   1.878   0.322  0.0144 -1.5799  0.5897
 1045TIP3   OH2 3140   2.369   0.978   0.472 -0.4056 -0.0962  0.3748
 1045TIP3    H1 3141   2.457   0.941   0.466 -0.5616 -0.2657 -1.3758
 1045TIP3    H2 3142   2.339   0.983   0.381 -1.4695  1.7374  0.7813
 1046TIP3   OH2 3143   2.001   2.936   3.150 -0.0198  0.3346  0.6170
 1046TIP3    H1 3144   2.015   2.870   3.218  0.8102 -1.7660 -1.4678
 1046TIP3    H2 3145   1.916   2.974   3.171 -2.1683 -3.6954  0.2272
 1047TIP3   OH2 3146   4.252   5.688   0.783 -0.1405  0.4197  0.3044
 1047TIP3    H1 3147   4.197   5.635   0.841 -0.1733  0.1342  0.0088
 1047TIP3    H2 3148   4.194   5.760   0.757  0.4985  1.7681  2.3261
 1048TIP3   OH2 3149   0.974   4.890   2.479 -0.6879 -0.2140 -0.3449
 1048TIP3    H1 3150   0.938   4.889   2.390 -0.3580 -3.1834 -0.5342
 1048TIP3    H2 3151   1.026   4.810   2.485  0.0366  0.3468  2.2708
 1049TIP3   OH2 3152   2.247   3.106   0.210 -0.1654 -0.3457  0.0131
 1049TIP3    H1 3153   2.342   3.097   0.200  0.0489 -0.0118  1.4583
 1049TIP3    H2 3154   2.212   3.021   0.184  0.3377  0.1117 -2.3634
 1050TIP3   OH2 3155   5.046   0.611   4.214 -0.2484  0.0518  0.0895
 1050TIP3    H1 3156   5.055   0.547   4.284  0.7746 -1.2495 -1.1618
 1050TIP3    H2 3157   5.134   0.647   4.203 -0.3587  0.1322 -0.6011
 1051TIP3   OH2 3158   5.004   0.387   5.155 -0.3679 -0.8989 -0.1272
 1051TIP3    H1 3159   4.912   0.376   5.130 -0.4410 -0.3331 -0.1278
 1051TIP3    H2 3160   5.040   0.298   5.157 -1.3512 -1.3069  1.5728
 1052TIP3   OH2 3161   6.055   4.179   2.577  0.1719  0.3685 -0.4868
 1052TIP3    H1 3162   5.973   4.226   2.565  0.5168  1.2456  0.4456
 1052TIP3    H2 3163   6.103   4.192   2.496 -0.0541  0.9799 -0.5258
 1053TIP3   OH2 3164   1.760   5.351   4.845 -0.0199 -0.7798  0.6519
 1053TIP3    H1 3165   1.802   5.365   4.760 -1.0399 -0.3126  0.2043
 1053TIP3    H2 3166   1.762   5.257   4.858  0.0573 -0.8621  0.0654
 1054TIP3   OH2 3167   4.609   1.664   4.856  0.1430 -0.1744  0.1980
 1054TIP3    H1 3168   4.582   1.742   4.808  1.3093  1.6178  2.2464
 1054TIP3    H2 3169   4.554   1.664   4.935  0.4599 -1.1957  0.4392
 1055TIP3   OH2 3170   3.550   3.159   0.624  0.0324  0.1794  0.9942
 1055TIP3    H1 3171   3.561   3.219   0.551 -0.5838 -2.7448 -1.7139
 1055TIP3    H2 3172   3.639   3.133   0.648  0.2274  0.9602  1.1254
 1056TIP3   OH2 3173   5.895   5.659   3.858 -0.1907 -0.1195 -0.1645
 1056TIP3    H1 3174   5.910   5.564   3.865 -1.0193 -0.2581 -0.1111
 1056TIP3    H2 3175   5.804   5.670   3.886 -0.4564  0.5541 -1.2673
 1057TIP3   OH2 3176   4.840   4.487   1.173 -0.1484 -0.1826 -0.4966
 1057TIP3    H1 3177   4.911   4.509   1.113  0.1491 -0.1848 -0.1491
 1057TIP3    H2 3178   4.826   4.568   1.223  0.7528 -0.6717  0.5901
 1058TIP3   OH2 3179   4.174   5.553   2.685  0.5123 -0.6664 -0.0679
 1058TIP3    H1 3180   4.225   5.595   2.755  1.7621 -0.2191 -1.1921
 1058TIP3    H2 3181   4.118   5.622   2.651  1.9261 -0.0670 -1.3220
 1059TIP3   OH2 3182   0.398   2.351   0.864  0.1420 -0.0940  0.1367
 1059TIP3    H1 3183   0.403   2.386   0.953  1.4821  0.7473 -0.2553
 1059TIP3    H2 3184   0.458   2.276   0.864  0.6885  0.3371 -0.2437
 1060TIP3   OH2 3185   1.075   0.440   1.898  0.3967  0.5215  0.2249
 1060TIP3    H1 3186   1.017   0.434   1.974  0.4282 -0.1676  0.2019
 1060TIP3    H2 3187   1.160   0.462   1.935  0.2933  0.7392  0.3362
 1061TIP3   OH2 3188   6.308   4.930   1.907  0.1555  0.5072  0.1067
 1061TIP3    H1 3189   6.286   4.920   2.000 -1.2699 -0.1205 -0.2684
 1061TIP3    H2 3190   6.345   4.845   1.883  1.8215  1.1154  0.4020
 1062TIP3   OH2 3191   4.780   2.881   0.430 -0.1318  0.5768 -0.5695
 1062TIP3    H1 3192   4.798   2.793   0.462 -0.0224  0.6535 -0.4195
 1062TIP3    H2 3193   4.790   2.937   0.507 -0.8874  0.6386 -0.5092
 1063TIP3   OH2 3194   4.773   3.538   0.284  0.1674 -0.5543  0.4382
 1063TIP3    H1 3195   4.763   3.631   0.267  0.2816 -0.4145  1.1153
 1063TIP3    H2 3196   4.695   3.514   0.335 -0.7351 -1.2024 -1.1630
 1064TIP3   OH2 3197   5.658   4.309   2.014 -0.6430  0.7153  0.5265
 1064TIP3    H1 3198   5.633   4.391   2.056  1.0302  2.3162 -1.3845
 1064TIP3    H2 3199   5.644   4.324   1.921 -0.8157 -1.3938  0.1611
 1065TIP3   OH2 3200   5.756   5.393   4.443 -0.4043  0.0614 -0.5807
 1065TIP3    H1 3201   5.692   5.457   4.474 -0.0523  0.5729 -0.9056
 1065TIP3    H2 3202   5.837   5.443   4.432 -0.7903  0.2089 -3.4712
 1066TIP3   OH2 3203   5.747   5.788   2.106  0.3084  0.7003 -0.3281
 1066TIP3    H1 3204   5.659   5.771   2.071 -0.3804 -0.2482  1.7591
 1066TIP3    H2 3205   5.798   5.711   2.082  0.5415  1.1408 -1.3198
 1067TIP3   OH2 3206   2.927   4.282   3.875  0.1004  0.4552 -0.0374
 1067TIP3    H1 3207   2.894   4.353   3.929 -1.3208  0.4595 -0.8405
 1067TIP3    H2 3208   2.961   4.325   3.796 -1.1096  0.2533 -0.6915
 1068TIP3   OH2 3209   4.356   3.921   1.015  0.1247 -0.0242  0.2341
 1068TIP3    H1 3210   4.310   3.949   0.936  1.3483 -1.7253 -1.1669
 1068TIP3    H2 3211   4.376   4.003   1.061 -1.9654  0.8948 -0.4073
 1069TIP3   OH2 3212   0.377   4.738   4.373  0.7877  0.2209 -0.4021
 1069TIP3    H1 3213   0.386   4.821   4.326  0.4186 -0.5789 -1.9369
 1069TIP3    H2 3214   0.305   4.752   4.434 -0.2133  0.5857 -1.6489
 1070TIP3   OH2 3215   0.227   1.722   0.502  0.1228  0.0660  0.3227
 1070TIP3    H1 3216   0.184   1.793   0.454  0.8597  0.7594  0.6661
 1070TIP3    H2 3217   0.155   1.674   0.543 -0.4288  0.2403 -0.4067
 1071TIP3   OH2 3218   5.365   1.936   0.264  0.3541 -0.2831 -0.3949
 1071TIP3    H1 3219   5.337   1.995   0.194 -0.5744 -1.1377 -0.7728
 1071TIP3    H2 3220   5.416   1.869   0.219 -0.3621 -0.9109 -0.2877
 1072TIP3   OH2 3221   1.948   1.902   0.905 -0.5359  0.8996 -0.3387
 1072TIP3    H1 3222   1.917   1.945   0.825 -1.7167  0.5622 -0.0834
 1072TIP3    H2 3223   1.966   1.974   0.965 -1.4270  1.0977 -0.2951
 1073TIP3   OH2 3224   6.037   3.801   4.366  0.3961  0.1664  0.2767
 1073TIP3    H1 3225   6.054   3.793   4.273 -0.5901  0.4065  0.0677
 1073TIP3    H2 3226   6.120   3.830   4.403  0.9910 -0.6164 -0.4187
 1074TIP3   OH2 3227   3.211   1.198   0.329 -0.1598 -0.6106 -0.5506
 1074TIP3    H1 3228   3.224   1.166   0.418 -0.6386 -0.9549 -0.5969
 1074TIP3    H2 3229   3.163   1.280   0.339  1.4443  0.3456 -0.4099
 1075TIP3   OH2 3230   0.060   3.159   3.611  0.1225  0.3104  0.3139
 1075TIP3    H1 3231  -0.006   3.091   3.627 -0.7422  1.7337  3.5756
 1075TIP3    H2 3232   0.049   3.181   3.518 -1.0484 -2.4083 -0.2870
 1076TIP3   OH2 3233   6.160   3.595   0.759 -0.1540  0.2862  0.2685
 1076TIP3    H1 3234   6.255   3.595   0.742  0.5006 -0.1010  3.2938
 1076TIP3    H2 3235   6.127   3.520   0.711  0.6540  1.5455 -2.4647
 1077TIP3   OH2 3236   2.442   3.397   3.670  0.3107  0.2162  0.0198
 1077TIP3    H1 3237   2.354   3.386   3.706 -0.3413 -1.4092 -1.8676
 1077TIP3    H2 3238   2.431   3.458   3.597  1.4235  2.6601  1.7541
 1078TIP3   OH2 3239   1.923   4.859   0.650 -0.2979 -0.4038  0.4191
 1078TIP3    H1 3240   1.978   4.932   0.678 -1.4689  0.8713 -0.4480
 1078TIP3    H2 3241   1.980   4.805   0.595 -0.1590  1.4974 -1.4107
 1079TIP3   OH2 3242   0.748   4.695   5.105  0.1822  0.1667 -0.2614
 1079TIP3    H1 3243   0.773   4.729   5.019 -1.2216 -0.3123 -0.8877
 1079TIP3    H2 3244   0.696   4.617   5.087 -0.0490 -0.0122  1.0275
 1080TIP3   OH2 3245   0.529   5.289   4.343  0.2358 -0.2308 -0.9177
 1080TIP3    H1 3246   0.460   5.239   4.388  0.4774  1.0470  0.9899
 1080TIP3    H2 3247   0.497   5.379   4.342  0.9110  0.0120 -2.0308
 1081TIP3   OH2 3248   0.416   5.631   3.159 -0.1983  0.1454 -0.3101
 1081TIP3    H1 3249   0.363   5.709   3.171  0.5780  0.6232  0.1019
 1081TIP3    H2 3250   0.493   5.661   3.111  1.2128  0.1285  1.7996
 1082TIP3   OH2 3251   1.086   3.960   1.306  0.4918  0.2147 -0.0620
 1082TIP3    H1 3252   1.166   3.989   1.350  0.0651  0.0208  0.8640
 1082TIP3    H2 3253   1.117   3.921   1.224  1.3524  0.1245  0.2939
 1083TIP3   OH2 3254   3.995   0.193   0.387  0.1075 -0.4102 -0.5323
 1083TIP3    H1 3255   4.057   0.165   0.454 -0.1676  0.9474  0.3250
 1083TIP3    H2 3256   3.918   0.223   0.436  0.9297  3.2188 -1.2148
 1084TIP3   OH2 3257   5.582   0.717   4.249 -0.2146  0.7495  0.2266
 1084TIP3    H1 3258   5.582   0.638   4.195  2.9724  1.2208 -0.7195
 1084TIP3    H2 3259   5.653   0.771   4.212  3.3567  0.5307  5.5733
 1085TIP3   OH2 3260   1.838   0.799   2.167 -0.4669  0.3431 -0.9853
 1085TIP3    H1 3261   1.834   0.710   2.201  1.2739  0.4824 -0.3352
 1085TIP3    H2 3262   1.783   0.797   2.088 -0.6621 -1.2236 -0.8390
 1086TIP3   OH2 3263   0.947   5.935   4.841  0.9272 -0.1208 -0.4816
 1086TIP3    H1 3264   0.906   5.881   4.909 -0.6811 -0.3921 -1.6114
 1086TIP3    H2 3265   0.979   6.012   4.887 -1.9247  0.6713  0.3513
 1087TIP3   OH2 3266   1.324   2.600   4.062  0.8018  0.3405 -0.3629
 1087TIP3    H1 3267   1.378   2.620   4.139 -1.6216  0.2463  1.4657
 1087TIP3    H2 3268   1.240   2.642   4.079  0.0638  0.0609 -2.8653
 1088TIP3   OH2 3269   0.844   0.470   1.580 -0.2166  0.1294  0.1588
 1088TIP3    H1 3270   0.852   0.379   1.550 -0.1451  0.1665  0.0651
 1088TIP3    H2 3271   0.860   0.465   1.674 -1.1597 -0.0880  0.3106
 1089TIP3   OH2 3272   5.227   4.034   5.143 -0.4988 -0.4075  0.1191
 1089TIP3    H1 3273   5.160   4.037   5.211  0.1411 -1.9681  0.8704
 1089TIP3    H2 3274   5.195   4.094   5.076 -1.7852  0.1974  1.2133
 1090TIP3   OH2 3275   0.099   4.521   4.862  0.2875  0.1799  0.4200
 1090TIP3    H1 3276   0.046   4.463   4.917  1.5519 -0.4090  1.0621
 1090TIP3    H2 3277   0.060   4.608   4.873 -1.0545 -0.3587  0.1893
 1091TIP3   OH2 3278   0.695   3.217   2.996 -0.4015 -0.4320 -0.1919
 1091TIP3    H1 3279   0.757   3.171   3.053  0.6120  0.9978 -0.0696
 1091TIP3    H2 3280   0.634   3.259   3.056  1.4175  2.1375  0.0374
 1092TIP3   OH2 3281   5.117   5.990   3.712 -0.1395 -0.8041  0.0978
 1092TIP3    H1 3282   5.178   6.020   3.645  0.5219 -1.9237  0.1947
 1092TIP3    H2 3283   5.081   5.909   3.678  1.6549 -2.4476  1.8975
 1093TIP3   OH2 3284   1.596   3.369   0.651 -0.4066  0.0415 -0.3128
 1093TIP3    H1 3285   1.646   3.314   0.591 -0.6233 -1.7976  1.0990
 1093TIP3    H2 3286   1.519   3.317   0.672 -2.1165  2.1169 -1.1218
 1094TIP3   OH2 3287   2.181   4.555   4.084  0.3620 -0.2339 -0.0079
 1094TIP3    H1 3288   2.105   4.512   4.045 -1.0958  0.6758  1.6277
 1094TIP3    H2 3289   2.226   4.486   4.133 -0.3875 -0.4830  0.3528
 1095TIP3   OH2 3290   4.959   5.432   1.979 -0.1062 -0.3622  0.1661
 1095TIP3    H1 3291   4.952   5.470   2.066 -0.6320  1.7669 -0.7597
 1095TIP3    H2 3292   5.044   5.387   1.979  0.3875  0.5295  1.4270
 1096TIP3   OH2 3293   4.360   1.317   3.449  0.1468 -0.2948 -0.2645
 1096TIP3    H1 3294   4.270   1.337   3.424  0.3751  0.9175 -0.1374
 1096TIP3    H2 3295   4.413   1.346   3.374  0.6434  1.3449  0.6877
 1097TIP3   OH2 3296   1.039   1.534   0.132 -0.1704  0.0355 -0.1083
 1097TIP3    H1 3297   1.070   1.547   0.221 -0.9155 -0.4824  0.2371
 1097TIP3    H2 3298   0.962   1.591   0.124 -0.9873 -1.0154  0.0742
 1098TIP3   OH2 3299   2.710   0.745   4.413 -0.6087  0.2120 -0.2300
 1098TIP3    H1 3300   2.655   0.822   4.394  0.9029  1.8215  1.5423
 1098TIP3    H2 3301   2.759   0.769   4.491  2.3465 -1.2988 -1.4772
 1099TIP3   OH2 3302   0.109   3.663   4.175 -0.0426 -0.0664  0.4181
 1099TIP3    H1 3303   0.021   3.687   4.143 -0.7177 -2.5372  0.2381
 1099TIP3    H2 3304   0.097   3.645   4.268  0.2223 -0.5813  0.3563
 1100TIP3   OH2 3305   6.363   5.284   2.458 -0.5885 -0.0781 -0.1428
 1100TIP3    H1 3306   6.272   5.262   2.477 -0.3912 -0.9163 -0.1552
 1100TIP3    H2 3307   6.387   5.227   2.385  1.0088 -2.5190  2.1031
 1101TIP3   OH2 3308   1.371   2.543   1.982 -0.2511  0.4898 -0.3118
 1101TIP3    H1 3309   1.377   2.627   2.029  0.6265 -0.1204  0.7218
 1101TIP3    H2 3310   1.432   2.486   2.028  0.6205 -0.1717 -2.2073
 1102TIP3   OH2 3311   5.949   2.523   3.388 -0.2893  0.7818  0.0277
 1102TIP3    H1 3312   6.006   2.537   3.312  0.5645 -1.0528  0.2790
 1102TIP3    H2 3313   5.870   2.574   3.368 -0.3965 -0.2196 -2.4386
 1103TIP3   OH2 3314   0.778   1.499   4.828 -0.5869  0.1227  0.1023
 1103TIP3    H1 3315   0.778   1.431   4.760 -1.1988 -0.1165  0.3394
 1103TIP3    H2 3316   0.810   1.577   4.782  2.6407 -0.8643  0.4192
 1104TIP3   OH2 3317   3.068   4.044   3.511  0.2849 -0.0872  0.1334
 1104TIP3    H1 3318   3.053   4.089   3.428 -0.1466 -0.1917  0.1476
 1104TIP3    H2 3319   3.108   3.961   3.486  1.9258  0.6598  0.1717
 1105TIP3   OH2 3320   5.225   5.128   3.372  0.0369 -0.9461 -0.2886
 1105TIP3    H1 3321   5.278   5.198   3.334  0.4771 -1.2910 -0.3196
 1105TIP3    H2 3322   5.283   5.052   3.374 -0.3252 -1.2217  0.0649
 1106TIP3   OH2 3323   0.514   1.601   2.947  0.3186 -0.5633 -0.0957
 1106TIP3    H1 3324   0.492   1.513   2.979  0.7299 -0.4325  0.5456
 1106TIP3    H2 3325   0.591   1.627   2.997  0.0558  0.2699 -0.1056
 1107TIP3   OH2 3326   1.670   2.489   1.152 -0.5380  0.9175 -0.5137
 1107TIP3    H1 3327   1.633   2.416   1.103 -0.9574  0.0182  1.0869
 1107TIP3    H2 3328   1.757   2.460   1.178  0.1926  1.8875 -1.7603
 1108TIP3   OH2 3329   3.930   1.774   3.421 -0.2630 -0.2231  0.4986
 1108TIP3    H1 3330   4.000   1.762   3.356  1.7719  1.4986  2.2018
 1108TIP3    H2 3331   3.901   1.685   3.442  1.1870 -0.9911 -0.5499
 1109TIP3   OH2 3332   1.690   0.933   4.571  0.0466  0.1397  0.4506
 1109TIP3    H1 3333   1.621   0.996   4.547  0.6271  0.3763 -0.6654
 1109TIP3    H2 3334   1.768   0.964   4.525  0.1592 -1.8335 -0.7769
 1110TIP3   OH2 3335   1.334   5.905   0.176 -0.3509 -0.1660 -0.2647
 1110TIP3    H1 3336   1.290   5.919   0.260  0.6948 -0.3366  0.3249
 1110TIP3    H2 3337   1.266   5.924   0.111 -0.3093  3.3494  0.5152
 1111TIP3   OH2 3338   4.683   4.741   4.351  0.2806 -0.6500  0.9282
 1111TIP3    H1 3339   4.759   4.709   4.399 -0.1469 -1.3131  1.1692
 1111TIP3    H2 3340   4.643   4.805   4.410 -1.5853 -3.1266  2.5565
 1112TIP3   OH2 3341   0.822   5.261   1.197  0.4118 -0.0932 -0.0116
 1112TIP3    H1 3342   0.908   5.249   1.157 -0.4063  1.0407 -2.2779
 1112TIP3    H2 3343   0.767   5.195   1.156 -0.4375  1.0430 -0.7468
 1113TIP3   OH2 3344   1.975   5.487   2.323  0.4035  0.5271 -0.5905
 1113TIP3    H1 3345   1.996   5.425   2.393 -1.5907 -0.2199 -0.5820
 1113TIP3    H2 3346   1.938   5.563   2.368 -0.5061  0.2111 -0.7814
 1114TIP3   OH2 3347   0.037   0.078   0.954  0.4032  0.4221 -0.6078
 1114TIP3    H1 3348   0.065   0.011   0.891 -1.7163 -0.4650 -0.6755
 1114TIP3    H2 3349   0.021   0.030   1.035 -0.2258  1.0042 -0.3823
 1115TIP3   OH2 3350   1.791   0.416   2.914  0.4749  0.0689  0.5158
 1115TIP3    H1 3351   1.764   0.346   2.974 -0.3056 -1.3079 -1.3497
 1115TIP3    H2 3352   1.812   0.489   2.972 -1.1403 -0.8620  2.4375
 1116TIP3   OH2 3353   4.690   1.410   4.758  0.5117  0.1571  0.3328
 1116TIP3    H1 3354   4.727   1.420   4.670 -0.8450  0.3069 -0.2471
 1116TIP3    H2 3355   4.661   1.498   4.782  0.7800  0.0973  0.8966
 1117TIP3   OH2 3356   6.211   1.611   4.952  0.0882  0.2348  0.0040
 1117TIP3    H1 3357   6.250   1.595   5.038  1.5036  2.7919 -0.0636
 1117TIP3    H2 3358   6.116   1.613   4.969  0.3096  0.1068  1.3922
 1118TIP3   OH2 3359   2.661   4.668   4.433  0.2930  0.1080 -0.1632
 1118TIP3    H1 3360   2.626   4.747   4.473  0.7655  0.3761 -0.2734
 1118TIP3    H2 3361   2.695   4.617   4.507  1.1782  0.6087 -0.2204
 1119TIP3   OH2 3362   5.087   4.072   0.553 -0.6444  0.5506  0.0113
 1119TIP3    H1 3363   5.116   4.000   0.608  0.0503  0.7858 -0.0407
 1119TIP3    H2 3364   5.021   4.034   0.495 -0.5407  0.0416  0.2301
 1120TIP3   OH2 3365   2.716   4.931   4.065 -0.3161 -0.7489 -0.2298
 1120TIP3    H1 3366   2.689   4.840   4.080  0.0770 -0.5942  1.6264
 1120TIP3    H2 3367   2.651   4.965   4.003 -0.9224 -2.0559 -0.3484
 1121TIP3   OH2 3368   5.078   4.345   3.816  0.0924 -0.5149  0.1142
 1121TIP3    H1 3369   4.988   4.345   3.784  0.2823 -2.0372 -0.5053
 1121TIP3    H2 3370   5.093   4.435   3.845 -2.1892 -0.6303  1.9510
 1122TIP3   OH2 3371   1.475   1.466   1.744  0.1731  0.0156 -0.1929
 1122TIP3    H1 3372   1.398   1.512   1.709  0.6007  1.4113  0.6116
 1122TIP3    H2 3373   1.464   1.469   1.839  1.4072  0.6163 -0.0451
 1123TIP3   OH2 3374   5.581   3.142   0.258  0.0889 -0.0805  0.5145
 1123TIP3    H1 3375   5.597   3.169   0.167 -1.6691 -0.1873  0.1254
 1123TIP3    H2 3376   5.599   3.048   0.258  2.3525  0.2865  0.8979
 1124TIP3   OH2 3377   2.064   2.510   3.596  0.5436 -1.0656  0.0125
 1124TIP3    H1 3378   1.976   2.508   3.559  0.6992 -1.4469 -0.3330
 1124TIP3    H2 3379   2.068   2.594   3.642 -0.6668 -1.8413  1.6552
 1125TIP3   OH2 3380   2.996   4.638   1.422 -0.0216  0.6926  0.1220
 1125TIP3    H1 3381   2.919   4.667   1.374  0.0568  2.3196  0.8936
 1125TIP3    H2 3382   3.070   4.671   1.370  0.1115  0.6629  0.2920
 1126TIP3   OH2 3383   1.277   1.542   5.098  0.2523 -0.4020  0.1692
 1126TIP3    H1 3384   1.202   1.583   5.056 -0.2034 -0.9695  0.4119
 1126TIP3    H2 3385   1.258   1.548   5.192  1.0869  0.5295  0.2894
 1127TIP3   OH2 3386   2.802   0.284   3.869 -0.4840 -0.6688  0.4639
 1127TIP3    H1 3387   2.881   0.281   3.923  1.0921 -0.5455 -1.7090
 1127TIP3    H2 3388   2.769   0.194   3.869 -0.4780 -0.6822  1.5256
 1128TIP3   OH2 3389   1.290   3.894   4.125  0.3909 -0.1060 -0.3483
 1128TIP3    H1 3390   1.211   3.845   4.101  1.0118 -0.7138 -1.2147
 1128TIP3    H2 3391   1.261   3.953   4.194 -0.6165 -0.9568 -0.0152
 1129TIP3   OH2 3392   3.657   3.444   3.124 -0.0359 -0.0135 -0.1046
 1129TIP3    H1 3393   3.567   3.426   3.151  0.3650 -0.4595  0.9710
 1129TIP3    H2 3394   3.690   3.506   3.188 -0.4900  2.5510 -2.1787
 1130TIP3   OH2 3395   1.149   0.579   2.583 -0.5356  0.2527 -0.2695
 1130TIP3    H1 3396   1.159   0.564   2.677 -2.1400  1.7477  0.1998
 1130TIP3    H2 3397   1.229   0.625   2.557 -0.5243  0.7549  0.6035
 1131TIP3   OH2 3398   0.939   5.115   0.304 -0.2807  0.0515  0.7051
 1131TIP3    H1 3399   0.984   5.085   0.383 -1.9186 -0.1624  1.5860
 1131TIP3    H2 3400   0.856   5.068   0.304 -0.9705  1.2134 -0.3162
 1132TIP3   OH2 3401   4.083   0.295   4.104  0.5263 -0.2169 -0.1343
 1132TIP3    H1 3402   4.174   0.277   4.078  0.2286 -0.0883 -1.3271
 1132TIP3    H2 3403   4.069   0.387   4.081  0.1220 -0.2052  0.1501
 1133TIP3   OH2 3404   3.447   0.206   1.377  0.8974 -0.4898 -0.3850
 1133TIP3    H1 3405   3.538   0.197   1.347  0.9502  2.9350 -1.7092
 1133TIP3    H2 3406   3.401   0.240   1.301 -1.0640 -0.2471  0.8587
 1134TIP3   OH2 3407   6.292   4.157   3.383  0.4352  0.6002  0.3886
 1134TIP3    H1 3408   6.293   4.159   3.287 -1.7912  0.1650  0.3093
 1134TIP3    H2 3409   6.201   4.174   3.406  0.9106  0.5617  2.4492
 1135TIP3   OH2 3410   5.793   3.602   2.825 -0.4887 -0.0993 -0.0693
 1135TIP3    H1 3411   5.777   3.604   2.731  1.7252  2.2293 -0.4895
 1135TIP3    H2 3412   5.712   3.636   2.863 -1.0152 -0.0367 -1.1972
 1136TIP3   OH2 3413   1.734   1.709   4.411  0.0931  0.0505  0.6370
 1136TIP3    H1 3414   1.798   1.685   4.344 -0.8469  1.6516 -0.9114
 1136TIP3    H2 3415   1.653   1.665   4.385 -0.2821  0.6911  0.6714
 1137TIP3   OH2 3416   6.188   4.835   0.008 -0.5895  0.0501 -0.2595
 1137TIP3    H1 3417   6.154   4.748   0.029  0.8652 -0.0242  2.0780
 1137TIP3    H2 3418   6.117   4.894   0.034 -0.9655 -0.3360 -0.3789
 1138TIP3   OH2 3419   5.200   2.294   3.279 -0.3491  0.2103 -0.1373
 1138TIP3    H1 3420   5.234   2.224   3.335  0.4498  0.6792 -0.0099
 1138TIP3    H2 3421   5.203   2.257   3.190  0.2111  0.1202 -0.0894
 1139TIP3   OH2 3422   6.146   2.506   1.328 -0.8860  0.5710 -0.2732
 1139TIP3    H1 3423   6.204   2.430   1.328 -0.2035  1.0787  0.8204
 1139TIP3    H2 3424   6.134   2.528   1.420 -1.6468  1.3717 -0.5459
 1140TIP3   OH2 3425   6.120   3.644   3.769 -0.5352  0.6587  0.3782
 1140TIP3    H1 3426   6.156   3.568   3.722  1.0903  1.6410 -0.0592
 1140TIP3    H2 3427   6.058   3.606   3.832 -1.4592 -0.8254 -1.3412
 1141TIP3   OH2 3428   2.981   5.705   2.401  0.0032 -0.0618  0.2626
 1141TIP3    H1 3429   3.064   5.710   2.354  1.3170 -0.3569  2.3947
 1141TIP3    H2 3430   2.922   5.762   2.352  2.4675  3.0436  0.5376
 1142TIP3   OH2 3431   0.196   2.456   0.042  0.1261  0.3802 -0.3536
 1142TIP3    H1 3432   0.202   2.546   0.073  1.0142  0.5176 -0.9047
 1142TIP3    H2 3433   0.117   2.421   0.085 -0.7932  1.7188 -0.9010
 1143TIP3   OH2 3434   5.797   4.908   2.445 -0.0108 -0.0163 -0.2632
 1143TIP3    H1 3435   5.758   4.929   2.530  0.3407  0.8228 -0.2947
 1143TIP3    H2 3436   5.792   4.990   2.396  0.2807 -0.3487 -0.8581
 1144TIP3   OH2 3437   4.711   2.892   4.393  0.5078 -0.3692 -0.7276
 1144TIP3    H1 3438   4.739   2.811   4.437  1.4326  0.0819 -0.4504
 1144TIP3    H2 3439   4.689   2.864   4.304  1.2325 -0.8716 -0.7645
 1145TIP3   OH2 3440   1.422   1.565   3.538 -0.2313  0.0338  0.0517
 1145TIP3    H1 3441   1.352   1.628   3.553 -0.2625 -0.0497  0.2507
 1145TIP3    H2 3442   1.497   1.619   3.511 -0.1989  0.1768  0.4181
 1146TIP3   OH2 3443   2.838   5.513   1.134  0.0463  0.1029 -0.2899
 1146TIP3    H1 3444   2.861   5.524   1.042  2.6665 -0.6318  0.2062
 1146TIP3    H2 3445   2.885   5.583   1.180 -0.2756 -0.2474  0.6142
 1147TIP3   OH2 3446   1.523   1.233   4.810  0.0392 -0.1396 -0.0764
 1147TIP3    H1 3447   1.568   1.241   4.726  0.6571  0.4603  0.2973
 1147TIP3    H2 3448   1.489   1.320   4.827 -1.6626 -0.6878 -0.5503
 1148TIP3   OH2 3449   3.254   1.598   0.037  0.1665  0.2868  0.1635
 1148TIP3    H1 3450   3.307   1.529  -0.003 -0.3017 -0.4819  0.8440
 1148TIP3    H2 3451   3.180   1.551   0.076  0.5229  1.0342  1.7924
 1149TIP3   OH2 3452   5.256   0.626   3.507  0.7785 -0.4189  0.5426
 1149TIP3    H1 3453   5.332   0.568   3.504  1.9145  1.0257 -0.1580
 1149TIP3    H2 3454   5.231   0.629   3.600  1.8155 -0.6353  0.8387
 1150TIP3   OH2 3455   0.735   4.237   2.652 -0.0935  0.0909  0.5787
 1150TIP3    H1 3456   0.795   4.204   2.585 -0.5708  1.5915 -0.6563
 1150TIP3    H2 3457   0.673   4.291   2.603 -0.0863  1.7522  2.3105
 1151TIP3   OH2 3458   5.258   5.413   2.630  0.5624  0.2856 -0.0439
 1151TIP3    H1 3459   5.314   5.340   2.603  0.1569  0.0503 -0.2739
 1151TIP3    H2 3460   5.263   5.413   2.725 -0.5548 -0.9727  0.0518
 1152TIP3   OH2 3461   0.783   3.475   0.251  0.2880 -0.4695 -0.0708
 1152TIP3    H1 3462   0.879   3.468   0.256  0.3705 -0.6110 -1.5332
 1152TIP3    H2 3463   0.759   3.425   0.173 -0.8821  0.4833 -0.3508
 1153TIP3   OH2 3464   2.230   3.944   1.994  0.0910 -0.0750 -0.1050
 1153TIP3    H1 3465   2.211   3.903   2.078 -0.7226 -2.1896 -1.2422
 1153TIP3    H2 3466   2.147   3.942   1.947  0.9089 -0.5913 -1.5874
 1154TIP3   OH2 3467   0.085   4.446   1.998 -0.0669  0.2628  0.9124
 1154TIP3    H1 3468   0.068   4.362   1.955 -2.3282  2.4901 -3.2120
 1154TIP3    H2 3469   0.035   4.442   2.079 -3.6434 -1.0301 -1.1464
 1155TIP3   OH2 3470   0.508   1.960   0.733  0.3431 -0.2959  0.0987
 1155TIP3    H1 3471   0.475   2.046   0.706  0.1833 -0.3420  0.1461
 1155TIP3    H2 3472   0.537   1.972   0.823  0.9242 -0.1287 -0.1080
 1156TIP3   OH2 3473   4.426   2.381   1.689  0.0803 -0.1028  0.3897
 1156TIP3    H1 3474   4.425   2.298   1.642 -0.6281  0.2575 -0.2707
 1156TIP3    H2 3475   4.381   2.442   1.630  1.5670  1.0276  0.3679
 1157TIP3   OH2 3476   5.846   5.523   4.762 -0.3242  0.4143  0.1242
 1157TIP3    H1 3477   5.918   5.519   4.699 -0.1790 -2.2823  0.3346
 1157TIP3    H2 3478   5.787   5.590   4.727  0.2752 -0.2084 -2.2978
 1158TIP3   OH2 3479   3.231   3.802   4.393  0.2254  0.0268  0.0477
 1158TIP3    H1 3480   3.200   3.711   4.398  0.8919 -0.2379 -0.5470
 1158TIP3    H2 3481   3.210   3.838   4.479 -1.6505 -0.1564 -0.2796
 1159TIP3   OH2 3482   1.423   0.601   1.880 -0.0929 -0.0739  0.5536
 1159TIP3    H1 3483   1.393   0.563   1.963 -0.1702  0.4359  0.7656
 1159TIP3    H2 3484   1.346   0.647   1.846 -0.0254 -0.1781  0.2602
 1160TIP3   OH2 3485   2.132   5.794   2.066  0.7880  0.1747  0.0253
 1160TIP3    H1 3486   2.051   5.779   2.016  0.6861  0.7196  0.0210
 1160TIP3    H2 3487   2.113   5.872   2.119  1.3365  0.3439 -0.0233
 1161TIP3   OH2 3488   1.594   0.387   0.581  0.2748 -0.7315  0.2272
 1161TIP3    H1 3489   1.613   0.459   0.522  0.3177 -2.0508 -1.4332
 1161TIP3    H2 3490   1.570   0.430   0.664  0.3178  1.1584 -0.6824
 1162TIP3   OH2 3491   4.670   3.322   5.114  0.2323  0.2017  0.2501
 1162TIP3    H1 3492   4.610   3.262   5.070  1.3748 -0.1389 -0.8958
 1162TIP3    H2 3493   4.750   3.318   5.062  1.6833 -0.2525  2.3809
 1163TIP3   OH2 3494   5.998   4.734   0.458  0.2553 -0.8597 -0.3908
 1163TIP3    H1 3495   5.944   4.693   0.390 -0.6185  1.1393 -0.9879
 1163TIP3    H2 3496   5.937   4.752   0.529  0.3324  0.4184 -0.6208
 1164TIP3   OH2 3497   2.433   1.582   0.360  0.3415  0.3505  0.1386
 1164TIP3    H1 3498   2.469   1.661   0.319  0.2590 -0.1835 -1.0020
 1164TIP3    H2 3499   2.510   1.538   0.398  0.5880  0.3054 -0.4030
 1165TIP3   OH2 3500   3.764   0.646   1.450 -0.6420  0.2278  0.2382
 1165TIP3    H1 3501   3.672   0.630   1.469 -0.2934 -1.3145  0.8082
 1165TIP3    H2 3502   3.790   0.571   1.395  0.9180 -0.9194  2.3807
 1166TIP3   OH2 3503   0.013   2.093   0.248 -0.1718 -0.6181  0.2500
 1166TIP3    H1 3504   0.075   2.030   0.283  0.8480 -0.5465 -1.3070
 1166TIP3    H2 3505  -0.002   2.065   0.157 -1.0620  0.3614  0.0654
 1167TIP3   OH2 3506   5.628   0.417   5.084  0.5542  0.5366 -0.0431
 1167TIP3    H1 3507   5.656   0.403   4.994  1.9449  1.3338  0.2383
 1167TIP3    H2 3508   5.565   0.488   5.079  0.3514  0.3337 -0.4215
 1168TIP3   OH2 3509   0.181   3.197   3.065 -0.3957  0.0384 -0.3505
 1168TIP3    H1 3510   0.121   3.148   3.009  0.1073  0.4817 -1.2925
 1168TIP3    H2 3511   0.161   3.289   3.047 -0.9746  0.2169  1.0206
 1169TIP3   OH2 3512   0.586   2.963   1.819 -0.2566  0.2222  0.1650
 1169TIP3    H1 3513   0.546   3.006   1.895 -0.2065 -1.3464  1.1168
 1169TIP3    H2 3514   0.556   2.873   1.824  1.3380 -0.3899 -0.5521
 1170TIP3   OH2 3515   3.198   5.042   0.067 -0.6156 -0.3808 -0.3377
 1170TIP3    H1 3516   3.137   5.091   0.122 -1.1017 -1.4823  0.1285
 1170TIP3    H2 3517   3.222   5.103  -0.003  0.0125  1.0524  1.0558
 1171TIP3   OH2 3518   3.109   3.996   2.385  0.1898 -0.1386 -0.3897
 1171TIP3    H1 3519   3.074   3.933   2.323 -0.1273 -0.0636 -0.2890
 1171TIP3    H2 3520   3.099   3.955   2.470  1.1084 -0.4629 -0.4246
 1172TIP3   OH2 3521   6.024   4.771   2.299 -0.5869 -0.1044  0.2457
 1172TIP3    H1 3522   5.976   4.808   2.374 -1.8849 -1.6447  0.2304
 1172TIP3    H2 3523   5.958   4.767   2.229  0.7780  1.9773 -1.2804
 1173TIP3   OH2 3524   0.417   3.789   0.293 -0.4213 -0.0945  0.2236
 1173TIP3    H1 3525   0.469   3.857   0.250 -0.6490 -0.2460 -0.2972
 1173TIP3    H2 3526   0.481   3.723   0.320 -0.4155 -0.6865 -1.1681
 1174TIP3   OH2 3527   2.301   2.981   2.781  0.0131  0.7718 -0.6888
 1174TIP3    H1 3528   2.318   2.985   2.875 -0.0845  1.7969 -0.7107
 1174TIP3    H2 3529   2.248   2.902   2.770 -0.4880  0.9700  0.1972
 1175TIP3   OH2 3530   1.162   2.798   1.747  0.6868  0.4563 -0.4129
 1175TIP3    H1 3531   1.225   2.858   1.787  0.2086  1.9511 -1.7752
 1175TIP3    H2 3532   1.151   2.831   1.657  1.0911 -2.2483 -1.5520
 1176TIP3   OH2 3533   3.123   1.141   2.798  0.1498  0.9650  0.6122
 1176TIP3    H1 3534   3.151   1.197   2.725  0.2520  2.2170  1.5935
 1176TIP3    H2 3535   3.028   1.134   2.788  0.4261 -1.4076 -1.3859
 1177TIP3   OH2 3536   4.381   4.000   4.527  0.3134  0.6886  0.5398
 1177TIP3    H1 3537   4.444   4.067   4.552  2.1081 -0.5225 -0.4572
 1177TIP3    H2 3538   4.360   4.019   4.435 -0.1552  0.6038  0.6239
 1178TIP3   OH2 3539   0.396   2.901   3.046  0.1192 -0.0791 -0.2336
 1178TIP3    H1 3540   0.383   2.976   2.988 -2.1406  0.9166  1.3929
 1178TIP3    H2 3541   0.369   2.826   2.995 -3.2995  0.9355 -0.1589
 1179TIP3   OH2 3542   4.330   3.694   1.257 -0.3427 -0.4948  0.5218
 1179TIP3    H1 3543   4.348   3.759   1.188 -0.7223 -0.6535  0.2650
 1179TIP3    H2 3544   4.293   3.619   1.209 -0.1304 -0.8051  0.8442
 1180TIP3   OH2 3545   0.404   0.517   3.188  0.1862  0.3600 -0.5097
 1180TIP3    H1 3546   0.439   0.489   3.272 -0.6236 -0.5464 -0.4638
 1180TIP3    H2 3547   0.408   0.439   3.133 -0.0440  0.7365 -1.0708
 1181TIP3   OH2 3548   5.489   1.550   3.060  0.0993 -0.0551  0.1220
 1181TIP3    H1 3549   5.421   1.483   3.048  0.8954 -1.0971  1.2257
 1181TIP3    H2 3550   5.508   1.580   2.971 -0.6512 -0.9232 -0.3548
 1182TIP3   OH2 3551   2.823   2.996   2.326  0.1032  0.2874 -0.6107
 1182TIP3    H1 3552   2.820   3.060   2.396  1.1646  0.0372 -0.3201
 1182TIP3    H2 3553   2.883   3.033   2.261  0.3204 -0.1698 -0.6789
 1183TIP3   OH2 3554   2.802   3.811   4.869  0.2934 -0.4092  0.1710
 1183TIP3    H1 3555   2.768   3.750   4.804  1.0870 -1.5144  0.7805
 1183TIP3    H2 3556   2.726   3.834   4.922 -0.3949  0.5963 -1.1605
 1184TIP3   OH2 3557   4.378   2.820   4.202  0.0375 -0.4683 -0.2134
 1184TIP3    H1 3558   4.358   2.731   4.232  1.1581 -1.1961 -1.5063
 1184TIP3    H2 3559   4.469   2.816   4.174  0.1929  1.1797 -0.0507
 1185TIP3   OH2 3560   0.372   4.070   0.240 -0.4231  0.3215 -0.2048
 1185TIP3    H1 3561   0.306   4.104   0.300  0.0548  2.5250 -0.8179
 1185TIP3    H2 3562   0.331   4.076   0.154  0.6665  2.2046 -0.6550
 1186TIP3   OH2 3563   0.188   2.363   1.327 -0.5183 -0.1603 -0.0893
 1186TIP3    H1 3564   0.247   2.288   1.329 -0.0876  0.1794  0.3574
 1186TIP3    H2 3565   0.101   2.325   1.320 -0.2540 -0.6725 -0.6662
 1187TIP3   OH2 3566   4.322   2.656   3.681  0.2498 -0.1236  0.2564
 1187TIP3    H1 3567   4.385   2.590   3.652  0.7186 -0.5907  2.1781
 1187TIP3    H2 3568   4.236   2.618   3.661  0.4563 -2.0703  2.6688
 1188TIP3   OH2 3569   3.336   0.293   0.495 -0.1593 -0.1589  0.6719
 1188TIP3    H1 3570   3.289   0.376   0.504 -1.6394 -1.2135  4.5112
 1188TIP3    H2 3571   3.366   0.272   0.583  1.5406 -2.9846 -0.4253
 1189TIP3   OH2 3572   0.716   3.648   2.359  0.4936  0.4125  0.3229
 1189TIP3    H1 3573   0.702   3.576   2.420 -0.3922  0.6928  0.4677
 1189TIP3    H2 3574   0.803   3.633   2.323  0.0566 -1.1129 -0.1511
 1190TIP3   OH2 3575   0.977   4.806   0.326 -0.3313  0.1600 -0.5384
 1190TIP3    H1 3576   0.955   4.833   0.237 -0.7118 -0.5769 -0.6762
 1190TIP3    H2 3577   1.042   4.737   0.315  1.9532  2.1329 -0.1403
 1191TIP3   OH2 3578   5.140   5.200   0.843 -0.0433 -0.1601  0.0489
 1191TIP3    H1 3579   5.087   5.251   0.904 -0.4874  0.7641 -1.0660
 1191TIP3    H2 3580   5.075   5.155   0.789  0.3202 -0.0354 -0.4963
 1192TIP3   OH2 3581   1.231   3.678   4.988  0.3934  0.5811 -0.2479
 1192TIP3    H1 3582   1.283   3.705   5.063  1.7424 -1.1923 -0.4639
 1192TIP3    H2 3583   1.236   3.582   4.989 -3.0910  0.2762 -0.1870
 1193TIP3   OH2 3584   1.100   3.738   2.880  0.4217  0.0498 -0.2327
 1193TIP3    H1 3585   1.145   3.816   2.909  0.3972 -0.7960  2.3232
 1193TIP3    H2 3586   1.010   3.749   2.911  0.4026 -0.9367  0.1005
 1194TIP3   OH2 3587   4.844   4.363   1.827 -0.7059  0.3200 -0.2443
 1194TIP3    H1 3588   4.867   4.284   1.877 -0.3600  0.1403 -0.6810
 1194TIP3    H2 3589   4.926   4.389   1.786 -1.0499  0.2970 -0.9564
 1195TIP3   OH2 3590   1.050   1.411   1.484  0.0900 -0.4409 -0.4912
 1195TIP3    H1 3591   0.981   1.450   1.537  0.5308 -1.8910  1.2491
 1195TIP3    H2 3592   1.131   1.448   1.519  0.3957 -1.5393  0.0123
 1196TIP3   OH2 3593   5.452   2.295   1.353 -0.1015  0.1705  0.2557
 1196TIP3    H1 3594   5.443   2.202   1.333 -0.7032  0.4171 -0.6725
 1196TIP3    H2 3595   5.547   2.310   1.352  0.0152 -0.4771  0.6817
 1197TIP3   OH2 3596   1.443   4.467   3.491  0.5564  0.1432 -0.4328
 1197TIP3    H1 3597   1.499   4.400   3.530  0.4217 -1.2593 -2.4559
 1197TIP3    H2 3598   1.366   4.419   3.462  0.5915  1.0861 -2.2256
 1198TIP3   OH2 3599   1.379   3.203   0.660  0.1715  0.2267  0.0166
 1198TIP3    H1 3600   1.366   3.116   0.697  2.5295 -0.0207  0.4372
 1198TIP3    H2 3601   1.387   3.189   0.566  0.7989 -0.0719  0.1073
 1199TIP3   OH2 3602   0.109   0.584   1.753 -0.2549  0.7549 -0.1531
 1199TIP3    H1 3603   0.198   0.591   1.789 -0.9105 -0.8014  1.9782
 1199TIP3    H2 3604   0.121   0.582   1.658  2.3848 -3.1677  0.0565
 1200TIP3   OH2 3605   0.380   5.376   4.091  0.1894  0.0147  0.5606
 1200TIP3    H1 3606   0.421   5.422   4.164 -1.2883  0.1641  1.3296
 1200TIP3    H2 3607   0.321   5.312   4.132 -0.4015 -0.1411 -0.4866
 1201TIP3   OH2 3608   3.990   4.252   0.061 -0.2412 -0.0443  0.0456
 1201TIP3    H1 3609   3.971   4.326   0.120 -1.4226 -0.8431  0.6962
 1201TIP3    H2 3610   3.923   4.258  -0.006  0.9884  0.7477 -1.1628
 1202TIP3   OH2 3611   4.971   0.543   1.802  1.1248 -0.4921 -1.0920
 1202TIP3    H1 3612   4.905   0.610   1.789 -0.1118 -1.7304 -1.4180
 1202TIP3    H2 3613   4.993   0.513   1.714  3.7066  1.2996 -1.1783
 1203TIP3   OH2 3614   3.070   0.854   1.153 -0.4044 -0.2374  0.0099
 1203TIP3    H1 3615   3.066   0.891   1.241 -1.3298  0.6481 -0.3775
 1203TIP3    H2 3616   3.153   0.885   1.117 -0.3056 -0.0954  0.3584
 1204TIP3   OH2 3617   5.367   3.344   0.067 -0.1014 -0.7045 -0.7832
 1204TIP3    H1 3618   5.427   3.393   0.011 -1.2279  1.5841 -0.1320
 1204TIP3    H2 3619   5.401   3.255   0.067  1.8759 -0.0266 -2.3397
 1205TIP3   OH2 3620   2.966   4.848   3.794 -0.2174  0.2610 -0.0870
 1205TIP3    H1 3621   2.936   4.774   3.742  0.4113 -0.1312  0.1124
 1205TIP3    H2 3622   3.061   4.844   3.791 -0.1752  0.6207  0.5454
 1206TIP3   OH2 3623   1.834   1.441   0.385  0.0110 -0.3651  0.2733
 1206TIP3    H1 3624   1.754   1.389   0.385  0.5428 -1.1971  0.6068
 1206TIP3    H2 3625   1.866   1.436   0.295 -0.3904  0.0999  0.1018
 1207TIP3   OH2 3626   0.718   5.529   1.219  0.0107 -0.3557 -0.0688
 1207TIP3    H1 3627   0.781   5.457   1.221  0.4723  0.0152 -0.9099
 1207TIP3    H2 3628   0.676   5.522   1.133 -1.8011 -1.1838  0.8293
 1208TIP3   OH2 3629   5.135   4.318   3.277  0.2132  0.7145 -0.1493
 1208TIP3    H1 3630   5.050   4.356   3.298  0.7025  2.0860 -0.5389
 1208TIP3    H2 3631   5.197   4.368   3.330  0.9395  0.8520 -1.0929
 1209TIP3   OH2 3632   2.055   1.060   2.924  0.3963 -0.3090 -0.1852
 1209TIP3    H1 3633   2.022   1.067   2.835 -1.0539 -0.0795  0.3270
 1209TIP3    H2 3634   1.983   1.018   2.972 -0.6426  3.2382  1.7235
 1210TIP3   OH2 3635   1.760   1.345   4.952 -0.1766 -0.1401 -0.1414
 1210TIP3    H1 3636   1.675   1.340   4.996 -0.5525 -1.3400 -0.9610
 1210TIP3    H2 3637   1.751   1.420   4.892 -0.3019  0.3505  0.4817
 1211TIP3   OH2 3638   2.907   0.959   0.258 -0.1926 -0.0591  0.0050
 1211TIP3    H1 3639   2.924   1.038   0.206 -2.0702 -1.2865 -2.6983
 1211TIP3    H2 3640   2.957   0.890   0.215 -1.8643 -1.1452 -0.2737
 1212TIP3   OH2 3641   5.805   1.951   1.365 -0.3561  0.0427 -0.1882
 1212TIP3    H1 3642   5.778   1.860   1.380  2.4296 -1.1084 -1.5009
 1212TIP3    H2 3643   5.743   2.003   1.416 -3.5172 -2.4008 -1.2307
 1213TIP3   OH2 3644   0.406   5.666   1.161 -0.7431  0.0115 -0.2393
 1213TIP3    H1 3645   0.474   5.625   1.108  0.5014  0.0740  1.2454
 1213TIP3    H2 3646   0.325   5.646   1.114  0.1639 -1.0398 -1.4563
 1214TIP3   OH2 3647   6.233   4.462   1.117 -0.0201  0.1130 -0.0535
 1214TIP3    H1 3648   6.281   4.434   1.039 -0.1532  1.0665 -0.4879
 1214TIP3    H2 3649   6.276   4.543   1.144  0.0192 -0.2018  0.8757
 1215TIP3   OH2 3650   1.781   0.345   4.297  0.4385  0.1395 -0.6861
 1215TIP3    H1 3651   1.753   0.280   4.361  1.7146  0.3846  0.1664
 1215TIP3    H2 3652   1.842   0.402   4.345  0.4952  1.0706 -1.7977
 1216TIP3   OH2 3653   3.056   3.961   3.065 -0.1834  0.3525 -0.0026
 1216TIP3    H1 3654   2.997   3.962   3.141  0.2014  1.2352  0.2877
 1216TIP3    H2 3655   3.141   3.988   3.100  0.0830  0.4110 -0.6848
 1217TIP3   OH2 3656   0.743   5.898   2.734 -0.1987 -0.2096  0.2740
 1217TIP3    H1 3657   0.705   5.847   2.662  0.0233 -0.9588  0.6710
 1217TIP3    H2 3658   0.837   5.891   2.721 -0.1558 -0.4283  0.6842
 1218TIP3   OH2 3659   4.880   5.547   3.329 -0.6243 -0.3043  0.1089
 1218TIP3    H1 3660   4.850   5.630   3.366  0.5342  1.1941 -2.1193
 1218TIP3    H2 3661   4.942   5.513   3.394  1.1325  2.0912 -0.2057
 1219TIP3   OH2 3662   4.773   2.818   4.765  0.1996 -0.3910  0.0336
 1219TIP3    H1 3663   4.701   2.783   4.713 -0.3800  0.2313  0.4048
 1219TIP3    H2 3664   4.836   2.746   4.770  0.2609 -0.4782 -1.4961
 1220TIP3   OH2 3665   5.083   1.785   3.960  0.2405 -0.1323  0.4198
 1220TIP3    H1 3666   5.031   1.806   3.882 -1.1401  0.7047  1.5135
 1220TIP3    H2 3667   5.112   1.870   3.993  0.9090 -0.4876  0.7548
 1221TIP3   OH2 3668   4.151   1.159   3.165 -0.1400  0.0235  0.1746
 1221TIP3    H1 3669   4.243   1.167   3.192  0.2424 -1.4992 -0.5329
 1221TIP3    H2 3670   4.133   1.065   3.171 -1.6361  0.2904  0.2105
 1222TIP3   OH2 3671   5.947   2.498   0.977  0.1348  0.0508  0.2992
 1222TIP3    H1 3672   5.911   2.568   1.032  2.4322  1.6876 -0.1218
 1222TIP3    H2 3673   5.878   2.481   0.913 -0.0534  2.9836 -0.4551
 1223TIP3   OH2 3674   2.068   2.045   1.141 -0.5505  0.2372  0.3740
 1223TIP3    H1 3675   2.073   2.090   1.225 -0.3570 -0.2209  0.6165
 1223TIP3    H2 3676   2.160   2.032   1.116 -0.6058  0.1869  0.1948
 1224TIP3   OH2 3677   2.543   4.719   1.322 -0.4688  0.4689 -0.0511
 1224TIP3    H1 3678   2.631   4.749   1.342 -0.4984  0.7369 -0.3097
 1224TIP3    H2 3679   2.526   4.649   1.385 -0.4278  1.0537  0.6228
 1225TIP3   OH2 3680   6.093   4.946   0.315 -0.2213  0.3422 -0.0967
 1225TIP3    H1 3681   6.018   5.005   0.314 -0.2442  0.3112 -0.4522
 1225TIP3    H2 3682   6.061   4.866   0.357 -0.0520  0.7528  0.8390
 1226TIP3   OH2 3683   0.695   1.543   0.521  0.6580 -0.5566 -0.4635
 1226TIP3    H1 3684   0.673   1.617   0.578 -1.0392 -2.0660  0.9531
 1226TIP3    H2 3685   0.758   1.580   0.458 -0.3150  2.1391 -0.0066
 1227TIP3   OH2 3686   0.593   1.971   3.321  0.1882 -0.1338  0.2852
 1227TIP3    H1 3687   0.543   2.052   3.306  0.4789  0.0217  0.1550
 1227TIP3    H2 3688   0.660   1.971   3.252  0.6475 -0.1239  0.7281
 1228TIP3   OH2 3689   1.960   4.702   3.780 -0.6117  0.5048  0.4337
 1228TIP3    H1 3690   2.036   4.738   3.825 -0.3212 -1.0285  1.2465
 1228TIP3    H2 3691   1.893   4.771   3.787  0.5760  1.7621 -0.0661
 1229TIP3   OH2 3692   1.488   5.354   1.347  0.1430 -0.0899 -0.2166
 1229TIP3    H1 3693   1.498   5.383   1.257  1.8387 -1.8369 -0.6580
 1229TIP3    H2 3694   1.554   5.286   1.358 -1.6672 -1.6889  1.5900
 1230TIP3   OH2 3695   4.698   2.377   2.527 -0.3065 -0.0135 -0.1829
 1230TIP3    H1 3696   4.690   2.470   2.506  0.0737  0.1827  0.4774
 1230TIP3    H2 3697   4.645   2.366   2.606  0.3620 -0.1492  0.2632
 1231TIP3   OH2 3698   4.919   5.915   3.257  0.5089  0.2078  0.1661
 1231TIP3    H1 3699   4.853   5.865   3.305  2.6497 -1.7365  1.2708
 1231TIP3    H2 3700   4.942   5.987   3.316 -1.4310  1.6827 -0.7616
 1232TIP3   OH2 3701   3.206   2.490   3.801 -0.5454  0.1132 -0.3645
 1232TIP3    H1 3702   3.149   2.465   3.728 -1.1091  0.6788 -0.1229
 1232TIP3    H2 3703   3.209   2.412   3.857 -0.3699 -0.2132 -0.8197
 1233TIP3   OH2 3704   4.402   2.356   2.055  0.0186  0.1674  0.6581
 1233TIP3    H1 3705   4.460   2.426   2.086  0.9970 -0.8266  1.1483
 1233TIP3    H2 3706   4.339   2.344   2.126 -0.0977  0.4905  0.6106
 1234TIP3   OH2 3707   2.427   4.938   2.951 -0.2270  0.0074  0.0003
 1234TIP3    H1 3708   2.468   5.000   2.891 -1.8290  1.3826  0.2501
 1234TIP3    H2 3709   2.363   4.892   2.898 -0.2084 -0.2547  0.2028
 1235TIP3   OH2 3710   0.986   1.457   3.954  0.1522  0.2053  0.5286
 1235TIP3    H1 3711   1.055   1.457   4.021 -0.4398 -1.0234  1.1766
 1235TIP3    H2 3712   0.999   1.374   3.907 -0.0587  0.5969 -0.2345
 1236TIP3   OH2 3713   0.823   4.946   0.509  0.1800  0.1083 -0.7080
 1236TIP3    H1 3714   0.748   4.887   0.513 -0.4991  1.0059  1.3937
 1236TIP3    H2 3715   0.890   4.898   0.460 -0.9547 -1.6457 -0.6118
 1237TIP3   OH2 3716   5.432   4.961   3.403  0.3952 -0.0615 -0.0598
 1237TIP3    H1 3717   5.454   4.933   3.314  0.8897 -1.6066  0.5298
 1237TIP3    H2 3718   5.515   4.991   3.440  0.0538  1.3172 -0.3432
 1238TIP3   OH2 3719   3.439   2.068   4.088 -0.3506 -0.5029  0.1194
 1238TIP3    H1 3720   3.477   2.047   4.174 -2.3984 -1.0914  0.9223
 1238TIP3    H2 3721   3.402   1.986   4.057  2.0955 -0.8481 -2.3719
 1239TIP3   OH2 3722   0.767   1.567   5.109 -0.1154 -0.6331 -0.1963
 1239TIP3    H1 3723   0.690   1.527   5.149  0.5309 -1.1192  0.5821
 1239TIP3    H2 3724   0.782   1.518   5.029 -0.6673 -0.4751 -0.3985
 1240TIP3   OH2 3725   3.294   5.431   3.800  0.0240  0.0149 -0.3366
 1240TIP3    H1 3726   3.217   5.485   3.779 -0.8387 -1.1837 -0.3502
 1240TIP3    H2 3727   3.341   5.423   3.717  1.1027  2.1191  0.0022
 1241TIP3   OH2 3728   1.059   5.134   1.133 -0.3422 -0.2861  0.2622
 1241TIP3    H1 3729   1.077   5.174   1.218  1.0097 -2.6807  1.1986
 1241TIP3    H2 3730   1.020   5.049   1.154 -0.2883 -0.8001 -1.5115
 1242TIP3   OH2 3731   4.154   2.484   1.903  0.3822  0.1738 -0.2008
 1242TIP3    H1 3732   4.083   2.442   1.951  1.3444  0.0166  1.1382
 1242TIP3    H2 3733   4.218   2.414   1.889  0.6793  0.5174 -0.5967
 1243TIP3   OH2 3734   2.044   4.165   1.889  0.4203  0.3807 -0.7104
 1243TIP3    H1 3735   2.097   4.200   1.960 -0.1191 -0.0496 -0.0891
 1243TIP3    H2 3736   2.106   4.154   1.816  1.4359 -1.1330  0.3194
 1244TIP3   OH2 3737   5.239   1.127   1.617 -0.1194  0.0082  0.3510
 1244TIP3    H1 3738   5.329   1.098   1.632 -0.0630 -0.7003 -1.1400
 1244TIP3    H2 3739   5.189   1.089   1.689  0.6870  0.0124  0.9298
 1245TIP3   OH2 3740   2.321   4.946   4.197 -0.1141  0.3278  0.8411
 1245TIP3    H1 3741   2.233   4.910   4.189 -0.1683  0.4216  1.0000
 1245TIP3    H2 3742   2.379   4.874   4.171 -0.2115  0.0477  1.3641
 1246TIP3   OH2 3743   3.463   1.750   3.406 -0.3547 -0.1220 -0.9419
 1246TIP3    H1 3744   3.457   1.669   3.456 -0.0668  0.9810  0.9595
 1246TIP3    H2 3745   3.380   1.795   3.424 -0.5462  0.0042 -2.0427
 1247TIP3   OH2 3746   6.135   4.270   4.875 -0.6249 -0.5588  0.1334
 1247TIP3    H1 3747   6.074   4.230   4.812 -0.7703  1.3443 -1.0122
 1247TIP3    H2 3748   6.081   4.334   4.922 -0.4919 -1.9021  2.1832
 1248TIP3   OH2 3749   4.845   4.172   4.322 -0.0591  0.0064 -0.6241
 1248TIP3    H1 3750   4.888   4.146   4.241  2.3546 -0.0848  0.5793
 1248TIP3    H2 3751   4.756   4.193   4.297  0.0232 -1.9934 -2.9439
 1249TIP3   OH2 3752   2.625   1.931   1.823  0.2208  0.7261 -0.0653
 1249TIP3    H1 3753   2.579   1.923   1.740 -1.7486  0.9067  0.9323
 1249TIP3    H2 3754   2.557   1.959   1.885  1.4841  0.0044  1.7288
 1250TIP3   OH2 3755   4.802   3.144   4.425  0.3675 -0.0102  0.0296
 1250TIP3    H1 3756   4.805   3.182   4.337 -0.9159 -0.0650 -0.0650
 1250TIP3    H2 3757   4.748   3.065   4.414  2.2008 -1.3713  0.4053
 1251TIP3   OH2 3758   1.247   1.211   0.155  0.4882  0.2723 -0.3416
 1251TIP3    H1 3759   1.245   1.219   0.251  1.8148  1.1210 -0.3551
 1251TIP3    H2 3760   1.162   1.174   0.133  0.5723 -1.0020  1.2606
 1252TIP3   OH2 3761   5.115   2.089   4.312 -0.0825  0.6872  0.0465
 1252TIP3    H1 3762   5.028   2.122   4.288  0.4724  1.7696 -0.5358
 1252TIP3    H2 3763   5.155   2.063   4.229  0.0935  0.0268  0.3305
 1253TIP3   OH2 3764   4.058   2.754   2.739  0.1871 -0.5053 -0.2704
 1253TIP3    H1 3765   4.108   2.684   2.782 -0.6091 -1.2194 -0.4808
 1253TIP3    H2 3766   4.072   2.831   2.793  0.2611 -1.0747  0.5313
 1254TIP3   OH2 3767   3.474   4.511   2.571 -0.7985 -0.0672  0.8297
 1254TIP3    H1 3768   3.513   4.470   2.648  1.2394  1.3311  0.6278
 1254TIP3    H2 3769   3.453   4.600   2.599  1.4587  1.0031 -0.5237
 1255TIP3   OH2 3770   2.308   1.547   1.518 -0.2199  0.1185  0.0622
 1255TIP3    H1 3771   2.273   1.570   1.605 -0.5890  0.5719 -0.2030
 1255TIP3    H2 3772   2.232   1.544   1.461 -0.0192 -0.5191 -0.1852
 1256TIP3   OH2 3773   5.664   3.884   3.428 -0.3470  0.4908 -0.6759
 1256TIP3    H1 3774   5.585   3.928   3.460 -1.0478 -2.9311  3.1726
 1256TIP3    H2 3775   5.631   3.806   3.383  0.8157 -0.2825 -0.2176
 1257TIP3   OH2 3776   5.791   1.164   3.251  0.4677  0.5042  0.3212
 1257TIP3    H1 3777   5.794   1.241   3.195 -0.8144 -0.5330 -1.2486
 1257TIP3    H2 3778   5.811   1.091   3.193 -0.1487 -0.5399  1.3750
 1258TIP3   OH2 3779   1.403   0.840   3.571  0.1995 -0.4864  0.3158
 1258TIP3    H1 3780   1.392   0.907   3.639 -2.0772 -0.1128 -0.3417
 1258TIP3    H2 3781   1.373   0.883   3.491  0.8456 -1.5936 -0.5365
 1259TIP3   OH2 3782   1.891   5.833   2.471  0.8267 -0.7268 -0.3138
 1259TIP3    H1 3783   1.850   5.806   2.553 -0.2518  1.0996 -0.1975
 1259TIP3    H2 3784   1.964   5.889   2.497  0.5304 -0.2039 -0.5963
 1260TIP3   OH2 3785   2.359   1.607   3.256 -0.5617  0.0782 -0.0521
 1260TIP3    H1 3786   2.306   1.653   3.321  0.1711  0.7696  0.0637
 1260TIP3    H2 3787   2.312   1.620   3.174 -1.6694 -1.0741  0.3508
 1261TIP3   OH2 3788   6.192   1.970   2.567 -0.0439 -0.0041 -0.1654
 1261TIP3    H1 3789   6.200   1.947   2.660 -0.3552  1.6047  0.2911
 1261TIP3    H2 3790   6.108   1.934   2.541  0.6249 -1.6221 -0.2101
 1262TIP3   OH2 3791   5.634   2.505   4.848 -0.1688 -0.6892  0.7428
 1262TIP3    H1 3792   5.630   2.590   4.892 -0.0162  0.3461 -1.1177
 1262TIP3    H2 3793   5.727   2.480   4.852  0.2010  0.3213 -0.5321
 1263TIP3   OH2 3794   2.766   1.464   4.885  0.0634 -0.2203 -0.7634
 1263TIP3    H1 3795   2.723   1.516   4.817 -0.3337  1.1192  0.4624
 1263TIP3    H2 3796   2.705   1.392   4.902 -0.5770  0.3029 -0.7689
 1264TIP3   OH2 3797   4.867   4.271   0.866  0.1291  0.8806 -0.3491
 1264TIP3    H1 3798   4.959   4.254   0.889 -0.1731 -1.5141 -0.7358
 1264TIP3    H2 3799   4.836   4.190   0.826 -2.6056  1.0758  1.1233
 1265TIP3   OH2 3800   2.289   1.121   3.705 -0.3678  0.0811  0.1622
 1265TIP3    H1 3801   2.331   1.053   3.757  1.4130  0.2918 -0.8931
 1265TIP3    H2 3802   2.267   1.078   3.622  0.9002  0.7592 -0.5683
 1266TIP3   OH2 3803   4.448   1.683   1.972  0.0360 -0.0207 -0.6573
 1266TIP3    H1 3804   4.461   1.757   1.912  1.7521  1.2284  1.1105
 1266TIP3    H2 3805   4.363   1.647   1.948 -0.8721  2.5426 -1.6284
 1267TIP3   OH2 3806   2.261   0.338   5.072  0.2098  0.2111 -0.1462
 1267TIP3    H1 3807   2.280   0.326   4.979 -1.3522 -1.3482 -0.3275
 1267TIP3    H2 3808   2.344   0.363   5.111  1.2334 -0.5607 -1.7421
 1268TIP3   OH2 3809   0.751   4.723   4.262 -0.0933  0.1193 -0.0634
 1268TIP3    H1 3810   0.805   4.743   4.185 -0.3196  0.9814 -0.0019
 1268TIP3    H2 3811   0.734   4.629   4.255  0.2196  0.1144 -0.8541
 1269TIP3   OH2 3812   2.287   4.674   5.051  0.5651 -0.0615  0.6507
 1269TIP3    H1 3813   2.262   4.661   5.142 -0.4252  0.0221  0.4072
 1269TIP3    H2 3814   2.382   4.676   5.052  0.5661 -0.0593  1.6802
 1270TIP3   OH2 3815   3.410   0.898   2.348 -0.2192  0.5389  0.2561
 1270TIP3    H1 3816   3.317   0.919   2.360 -0.1713  0.2536  1.1606
 1270TIP3    H2 3817   3.440   0.872   2.435  0.8598  1.2139  0.1015
 1271TIP3   OH2 3818   3.586   0.535   3.887  0.0351  0.0281 -0.8900
 1271TIP3    H1 3819   3.617   0.539   3.797  1.1194  0.4797 -0.5085
 1271TIP3    H2 3820   3.640   0.467   3.928  0.4614  0.7376 -0.2503
 1272TIP3   OH2 3821   1.353   2.195   2.025 -0.3179  0.2012  0.4905
 1272TIP3    H1 3822   1.369   2.101   2.039  0.5813 -0.1054 -2.0439
 1272TIP3    H2 3823   1.439   2.229   1.999 -0.6208  1.7758  1.4580
 1273TIP3   OH2 3824   5.581   0.644   2.200 -0.3766  0.1551 -0.0667
 1273TIP3    H1 3825   5.539   0.569   2.243 -0.3867  0.0245 -0.3072
 1273TIP3    H2 3826   5.527   0.662   2.124 -0.8249  0.9117  0.4196
 1274TIP3   OH2 3827   4.353   0.380   1.008 -0.3497 -0.4390 -0.5463
 1274TIP3    H1 3828   4.370   0.341   1.094  1.4769 -1.0139 -1.1362
 1274TIP3    H2 3829   4.400   0.464   1.009  0.6554 -0.9714 -1.3702
 1275TIP3   OH2 3830   4.506   0.652   2.500  0.1958  0.2415 -0.2067
 1275TIP3    H1 3831   4.420   0.691   2.518 -0.2536  0.5607 -2.6318
 1275TIP3    H2 3832   4.517   0.586   2.568 -2.1536 -0.0367 -0.0066
 1276TIP3   OH2 3833   3.658   2.027   4.720  0.4411 -0.1463  0.1937
 1276TIP3    H1 3834   3.573   2.003   4.756 -0.1233  1.7457  0.2698
 1276TIP3    H2 3835   3.696   2.085   4.787 -1.2827  4.7574 -2.5196
 1277TIP3   OH2 3836   5.852   2.039   0.292 -0.0462 -0.2437  0.1768
 1277TIP3    H1 3837   5.917   1.976   0.260  1.1817  0.6340  0.8681
 1277TIP3    H2 3838   5.779   2.031   0.230  1.4577  0.0538 -1.7360
 1278TIP3   OH2 3839   6.100   2.199   2.297 -0.2390  0.4733  0.8870
 1278TIP3    H1 3840   6.101   2.211   2.392 -2.6666 -1.1027  1.1880
 1278TIP3    H2 3841   6.016   2.157   2.279 -0.0081  1.0763 -2.0235
 1279TIP3   OH2 3842   0.433   5.427   2.140  0.4600 -0.6801 -0.1798
 1279TIP3    H1 3843   0.397   5.347   2.102  1.2988 -1.0732 -0.1698
 1279TIP3    H2 3844   0.495   5.459   2.074  0.5920 -0.3798  0.0841
 1280TIP3   OH2 3845   5.760   0.295   2.423 -0.1712  0.4988  0.0341
 1280TIP3    H1 3846   5.804   0.333   2.347 -0.8443  2.3473  0.5346
 1280TIP3    H2 3847   5.722   0.369   2.469 -0.0376 -0.6008  2.0439
 1281TIP3   OH2 3848   6.118   5.367   0.856  0.2630 -0.1179 -0.2523
 1281TIP3    H1 3849   6.101   5.397   0.945  0.3700 -2.2651  0.5473
 1281TIP3    H2 3850   6.212   5.351   0.853  0.6202  1.8357 -1.4286
 1282TIP3   OH2 3851   5.082   0.142   1.015 -0.3054 -0.6883 -0.0694
 1282TIP3    H1 3852   5.070   0.129   1.109  0.7580 -0.9768  0.0336
 1282TIP3    H2 3853   5.012   0.090   0.975  0.6903 -2.5828  0.5088
 1283TIP3   OH2 3854   0.659   2.068   4.197  0.5261 -0.5606  0.6412
 1283TIP3    H1 3855   0.729   2.122   4.162 -0.2765 -0.3951 -0.8135
 1283TIP3    H2 3856   0.702   1.985   4.219  1.4976  0.1542  1.5605
 1284TIP3   OH2 3857   3.192   3.762   2.894 -0.1014  0.1800 -0.3962
 1284TIP3    H1 3858   3.191   3.678   2.940  1.2785  0.8243  0.8993
 1284TIP3    H2 3859   3.112   3.806   2.923 -0.4613 -0.3937 -0.5153
 1285TIP3   OH2 3860   6.106   0.905   2.511 -0.5588  0.1922 -0.3567
 1285TIP3    H1 3861   6.110   0.894   2.606  0.5572 -0.1344 -0.4273
 1285TIP3    H2 3862   6.197   0.915   2.484 -0.9629  1.9854 -1.2076
 1286TIP3   OH2 3863   2.168   4.111   0.384  0.9653  0.1559 -0.4806
 1286TIP3    H1 3864   2.133   4.044   0.326  1.5358  0.3757 -1.0860
 1286TIP3    H2 3865   2.200   4.063   0.460 -0.3561 -0.0759 -0.0442
 1287TIP3   OH2 3866   6.236   0.888   1.492 -0.2383 -0.1499 -0.3669
 1287TIP3    H1 3867   6.238   0.968   1.439 -1.0238 -0.3099 -0.6536
 1287TIP3    H2 3868   6.256   0.818   1.430  1.6815 -0.0820  0.1212
 1288TIP3   OH2 3869   0.496   4.287   5.168 -0.2499  0.2638  0.5720
 1288TIP3    H1 3870   0.410   4.283   5.126  0.3927 -1.6233 -0.6795
 1288TIP3    H2 3871   0.483   4.345   5.243 -2.8177 -0.6283  0.9233
 1289TIP3   OH2 3872   0.722   5.884   2.321  0.0405  0.3207 -0.1437
 1289TIP3    H1 3873   0.788   5.912   2.384  1.3763 -2.2042 -0.2738
 1289TIP3    H2 3874   0.650   5.849   2.374  0.3019 -0.0161 -0.0108
 1290TIP3   OH2 3875   1.735   2.736   0.086  0.1080  0.2804 -0.0068
 1290TIP3    H1 3876   1.752   2.801   0.155  2.7645 -0.2667 -0.0302
 1290TIP3    H2 3877   1.737   2.652   0.131 -0.8141  0.0539 -0.3700
 1291TIP3   OH2 3878   6.236   5.848   4.050  0.0478 -0.3826  0.0992
 1291TIP3    H1 3879   6.298   5.804   4.109 -1.3215 -2.0696  0.3868
 1291TIP3    H2 3880   6.242   5.799   3.968 -0.0700  0.1810 -0.2503
 1292TIP3   OH2 3881   5.441   1.440   4.526 -0.4361 -0.5828 -0.5407
 1292TIP3    H1 3882   5.512   1.376   4.527  0.7181  0.6205  1.1984
 1292TIP3    H2 3883   5.423   1.458   4.619 -2.6968 -0.4618 -0.9296
 1293TIP3   OH2 3884   0.481   1.314   2.037 -0.7073  0.3698 -0.0165
 1293TIP3    H1 3885   0.562   1.323   1.986 -0.7040 -0.9031 -0.2814
 1293TIP3    H2 3886   0.485   1.224   2.071 -1.5596  0.6200  0.7582
 1294TIP3   OH2 3887   5.868   2.175   4.379 -0.1614 -0.1457  0.6195
 1294TIP3    H1 3888   5.928   2.124   4.324 -0.7528  0.2461 -0.4143
 1294TIP3    H2 3889   5.807   2.110   4.415 -1.8168 -0.0775 -1.8457
 1295TIP3   OH2 3890   3.466   2.833   0.628  0.2011 -0.6343  0.1524
 1295TIP3    H1 3891   3.527   2.902   0.602  0.5132 -1.2049 -0.6816
 1295TIP3    H2 3892   3.467   2.834   0.723  0.1751  0.5284  0.1452
 1296TIP3   OH2 3893   3.180   2.308   0.772  0.7070  0.0981 -0.0630
 1296TIP3    H1 3894   3.126   2.342   0.700  1.2162 -0.8489 -0.9310
 1296TIP3    H2 3895   3.250   2.373   0.782  1.2547 -0.2911 -1.1959
 1297TIP3   OH2 3896   1.232   2.241   4.971 -0.2220 -0.6069  0.2207
 1297TIP3    H1 3897   1.325   2.260   4.980  0.1477 -2.5420  1.1238
 1297TIP3    H2 3898   1.188   2.323   4.994  1.2303  0.7838 -1.6831
 1298TIP3   OH2 3899   2.790   1.114   4.042 -0.2632 -0.0623  0.1285
 1298TIP3    H1 3900   2.845   1.073   4.108 -0.2070  0.1983  0.2433
 1298TIP3    H2 3901   2.844   1.184   4.005 -0.7360  0.6152  0.6918
 1299TIP3   OH2 3902   0.378   2.297   3.708 -0.1073  0.3816  1.1520
 1299TIP3    H1 3903   0.356   2.335   3.793  0.3204  1.2939  0.8695
 1299TIP3    H2 3904   0.377   2.371   3.647 -0.6701 -0.3004  0.3005
 1300TIP3   OH2 3905   3.828   5.746   1.756  0.8623  0.1898  0.2721
 1300TIP3    H1 3906   3.917   5.724   1.730 -0.3183 -3.1812 -1.5095
 1300TIP3    H2 3907   3.784   5.769   1.674 -0.3476  0.0421  0.8517
 1301TIP3   OH2 3908   3.811   3.685   0.132 -0.6117  0.4992 -0.6353
 1301TIP3    H1 3909   3.847   3.641   0.055  2.5365 -0.9529  1.4650
 1301TIP3    H2 3910   3.886   3.695   0.191 -3.0839  0.3179  2.8055
 1302TIP3   OH2 3911   3.021   3.292   0.836 -0.4466 -0.0663  0.5821
 1302TIP3    H1 3912   3.026   3.375   0.789 -0.1414 -0.2238  0.3434
 1302TIP3    H2 3913   3.111   3.263   0.844 -0.2434  0.9129  2.9633
 1303TIP3   OH2 3914   3.405   2.038   4.565  0.2141 -0.4574  0.1834
 1303TIP3    H1 3915   3.415   1.953   4.609 -0.6482 -1.4078 -1.3537
 1303TIP3    H2 3916   3.432   2.102   4.631  1.5236 -1.9421  1.1873
 1304TIP3   OH2 3917   0.460   3.381   1.955  0.0627 -0.5866 -0.7895
 1304TIP3    H1 3918   0.419   3.297   1.973 -2.2836  0.2928 -1.5629
 1304TIP3    H2 3919   0.489   3.412   2.040  1.5013 -2.3726 -0.5677
 1305TIP3   OH2 3920   4.692   0.061   3.993  0.4851 -0.1413 -0.0746
 1305TIP3    H1 3921   4.691   0.016   4.077 -2.0028  0.2151  0.1704
 1305TIP3    H2 3922   4.693   0.154   4.017 -0.1752 -0.0410 -0.4048
 1306TIP3   OH2 3923   2.509   0.921   1.374 -0.4890  0.0343 -0.4050
 1306TIP3    H1 3924   2.491   0.905   1.282  0.0217  0.1766 -0.5301
 1306TIP3    H2 3925   2.529   1.015   1.378 -0.0489 -0.0649 -0.2268
 1307TIP3   OH2 3926   0.254   3.223   0.500 -0.5733 -0.8773 -0.1105
 1307TIP3    H1 3927   0.196   3.299   0.514 -0.9425 -0.5652 -2.7406
 1307TIP3    H2 3928   0.340   3.254   0.527 -0.9114  0.0954 -0.0794
 1308TIP3   OH2 3929   3.424   4.078   0.312 -0.3027 -0.6531  0.0807
 1308TIP3    H1 3930   3.365   4.106   0.242  0.8810 -0.7410 -0.9917
 1308TIP3    H2 3931   3.505   4.125   0.296 -0.2402 -0.0786  1.8890
 1309TIP3   OH2 3932   0.112   0.230   1.800  0.0975 -0.1124 -0.1837
 1309TIP3    H1 3933   0.164   0.222   1.720  0.0782  0.5159 -0.2611
 1309TIP3    H2 3934   0.136   0.315   1.837 -0.0428 -0.3110  0.3737
 1310TIP3   OH2 3935   2.203   5.729   2.385  0.0353 -0.4003  0.1486
 1310TIP3    H1 3936   2.171   5.781   2.459  1.5863  0.9670 -0.0789
 1310TIP3    H2 3937   2.167   5.774   2.308  0.2784 -0.4600 -0.0004
 1311TIP3   OH2 3938   5.629   4.098   3.889 -0.3456  0.2945  0.0789
 1311TIP3    H1 3939   5.542   4.113   3.851 -0.1191  1.2538 -0.0935
 1311TIP3    H2 3940   5.619   4.120   3.981 -0.5270 -0.5911  0.2800
 1312TIP3   OH2 3941   3.270   3.647   0.655 -0.4624 -0.2061 -0.0349
 1312TIP3    H1 3942   3.301   3.717   0.599 -1.4036 -0.1212 -0.4761
 1312TIP3    H2 3943   3.349   3.600   0.682 -0.0075 -0.3005 -1.4908
 1313TIP3   OH2 3944   3.730   1.698   0.097 -0.2626  0.2108 -0.0834
 1313TIP3    H1 3945   3.756   1.743   0.017 -0.6557  0.6121  0.0156
 1313TIP3    H2 3946   3.691   1.616   0.066  0.3474 -0.0174 -0.2655
 1314TIP3   OH2 3947   4.559   1.677   1.494 -0.2702  0.5333 -0.3037
 1314TIP3    H1 3948   4.636   1.731   1.513 -0.2233  1.1964 -2.1179
 1314TIP3    H2 3949   4.495   1.702   1.561  1.3409 -0.7222  1.8229
 1315TIP3   OH2 3950   3.463   0.208   3.930 -0.2734 -0.0118 -0.2430
 1315TIP3    H1 3951   3.480   0.124   3.887 -0.9867 -0.3572  0.1401
 1315TIP3    H2 3952   3.550   0.248   3.938  0.3006 -1.4229  1.0376
 1316TIP3   OH2 3953   2.586   3.110   0.550 -0.5676  0.4639  0.1825
 1316TIP3    H1 3954   2.632   3.161   0.616 -0.6961 -1.5870  1.9682
 1316TIP3    H2 3955   2.650   3.046   0.520 -1.2004 -0.1053  0.0182
 1317TIP3   OH2 3956   4.290   0.071   5.065  0.0007 -0.2961 -0.0075
 1317TIP3    H1 3957   4.384   0.055   5.056  0.5380  2.5757 -0.4665
 1317TIP3    H2 3958   4.250   0.017   4.997  1.3102 -1.3562  0.0122
 1318TIP3   OH2 3959   5.838   2.336   2.735 -0.4748  0.1265 -0.5042
 1318TIP3    H1 3960   5.920   2.360   2.777 -1.7196  2.1566  0.9957
 1318TIP3    H2 3961   5.829   2.396   2.662 -1.5489  1.3913  0.6106
 1319TIP3   OH2 3962   0.727   2.365   1.108 -0.3330 -0.0920 -0.1229
 1319TIP3    H1 3963   0.791   2.365   1.178  0.4753 -2.2517 -0.7829
 1319TIP3    H2 3964   0.768   2.316   1.037 -1.6918  0.7582 -1.5773
 1320TIP3   OH2 3965   5.478   0.213   0.419 -0.0504 -0.1693 -0.2491
 1320TIP3    H1 3966   5.525   0.146   0.468  1.0111  2.1479  2.1514
 1320TIP3    H2 3967   5.415   0.250   0.482  0.0697  1.6998 -1.1427
 1321TIP3   OH2 3968   1.779   0.908   4.846  0.0423  0.0703 -0.1300
 1321TIP3    H1 3969   1.724   0.906   4.767  0.5231 -0.2397 -0.4604
 1321TIP3    H2 3970   1.853   0.964   4.823  0.3354 -0.2601 -0.0004
 1322TIP3   OH2 3971   0.230   1.692   2.317  0.1914  0.6138 -0.1902
 1322TIP3    H1 3972   0.317   1.700   2.277  0.7579 -0.8704  0.6953
 1322TIP3    H2 3973   0.170   1.691   2.242  1.2095 -1.9176 -1.0894
 1323TIP3   OH2 3974   5.885   2.221   3.909 -0.0860 -0.0478 -0.1740
 1323TIP3    H1 3975   5.889   2.157   3.980  0.7895 -2.2226 -2.0380
 1323TIP3    H2 3976   5.942   2.292   3.937 -0.3245 -0.5046  1.5860
 1324TIP3   OH2 3977   3.943   5.225   4.382 -0.0607 -0.3999  0.2281
 1324TIP3    H1 3978   3.963   5.131   4.380  1.1963 -0.1522 -1.5199
 1324TIP3    H2 3979   4.021   5.265   4.421 -1.3290 -0.1705  2.7294
 1325TIP3   OH2 3980   5.471   1.927   1.664 -0.6358 -0.7061 -0.4635
 1325TIP3    H1 3981   5.557   1.966   1.677  0.1502 -2.1945 -0.9769
 1325TIP3    H2 3982   5.414   1.976   1.723  1.0321 -1.2592  1.7596
 1326TIP3   OH2 3983   3.515   4.716   0.256  0.1608  0.0116 -0.3354
 1326TIP3    H1 3984   3.455   4.777   0.215 -0.7631  0.2116  1.2530
 1326TIP3    H2 3985   3.475   4.630   0.243 -0.0896  0.0660  0.0778
 1327TIP3   OH2 3986   0.670   1.106   4.389  0.1042 -0.2153 -0.1265
 1327TIP3    H1 3987   0.595   1.103   4.330  0.2570  0.5172 -0.3681
 1327TIP3    H2 3988   0.738   1.152   4.339  0.5605 -0.4629  0.2576
 1328TIP3   OH2 3989   4.807   5.048   0.059 -0.2113  0.0744  0.4649
 1328TIP3    H1 3990   4.875   5.082   0.002  0.3212 -1.9003 -0.1425
 1328TIP3    H2 3991   4.829   5.082   0.146  1.9646 -1.0310  0.4085
 1329TIP3   OH2 3992   3.603   2.762   3.171 -0.1949 -0.2143  0.0343
 1329TIP3    H1 3993   3.637   2.779   3.083 -1.2517  1.2438 -0.1193
 1329TIP3    H2 3994   3.647   2.826   3.227 -1.0048  0.2001  0.2087
 1330TIP3   OH2 3995   5.743   5.155   2.331 -0.7743  0.0577 -0.3064
 1330TIP3    H1 3996   5.755   5.162   2.236  1.1024  2.2218  0.0055
 1330TIP3    H2 3997   5.652   5.181   2.346 -1.0137 -0.0337 -1.4684
 1331TIP3   OH2 3998   2.126   0.320   2.877 -0.4968  0.1805  0.1413
 1331TIP3    H1 3999   2.198   0.263   2.850  0.7643  1.4021  0.7510
 1331TIP3    H2 4000   2.144   0.403   2.831  0.0392  1.3607  2.3499
 1332TIP3   OH2 4001   3.017   2.870   3.675  0.2632 -0.1475  0.1033
 1332TIP3    H1 4002   3.093   2.821   3.706 -0.5137 -2.4819 -1.4204
 1332TIP3    H2 4003   3.047   2.961   3.670  3.8312 -1.2595 -2.8572
 1333TIP3   OH2 4004   4.805   3.344   1.307  0.5117  0.2918  0.0008
 1333TIP3    H1 4005   4.808   3.349   1.403  1.0758  1.1716 -0.0541
 1333TIP3    H2 4006   4.751   3.418   1.281 -0.6836 -0.6591 -0.3211
 1334TIP3   OH2 4007   0.531   3.394   0.921  0.2902  0.3677  0.7669
 1334TIP3    H1 4008   0.501   3.457   0.856  0.4810  1.5614  1.7969
 1334TIP3    H2 4009   0.624   3.413   0.933  1.1340 -2.0992 -1.0585
 1335TIP3   OH2 4010   4.524   5.576   4.921 -0.1770 -0.1215 -0.3795
 1335TIP3    H1 4011   4.562   5.549   5.004 -1.1938 -0.6047 -0.0448
 1335TIP3    H2 4012   4.589   5.634   4.882  1.0998 -1.3056 -0.0844
 1336TIP3   OH2 4013   3.901   5.760   4.595  0.2775  0.0560 -0.7742
 1336TIP3    H1 4014   3.891   5.793   4.505 -0.6003  0.4202 -0.5550
 1336TIP3    H2 4015   3.896   5.665   4.586 -2.0028  0.1322 -0.8978
 1337TIP3   OH2 4016   2.092   3.049   2.032  0.3047 -0.2308  0.5309
 1337TIP3    H1 4017   2.132   2.970   1.996  2.9125  0.1199  2.4402
 1337TIP3    H2 4018   2.060   3.023   2.119 -0.8580  0.3144  0.2949
 1338TIP3   OH2 4019   3.969   4.827   0.722  0.0796  0.2350 -0.1828
 1338TIP3    H1 4020   4.026   4.888   0.769  0.8241  0.0543 -0.8306
 1338TIP3    H2 4021   4.000   4.831   0.631  1.8291 -2.9150  0.1377
 1339TIP3   OH2 4022   5.662   0.746   3.175  0.1296 -0.1441 -0.3121
 1339TIP3    H1 4023   5.592   0.810   3.190  1.0961  0.7587  0.5181
 1339TIP3    H2 4024   5.628   0.690   3.105 -0.7580  1.2932 -1.1014
 1340TIP3   OH2 4025   0.556   2.719   4.659 -0.5247  0.0567 -0.3618
 1340TIP3    H1 4026   0.476   2.683   4.620 -1.6085  1.2356  0.6795
 1340TIP3    H2 4027   0.585   2.787   4.597 -0.7686  0.1537 -0.3700
 1341TIP3   OH2 4028   0.748   3.505   2.781  0.4884  0.1403  0.1638
 1341TIP3    H1 4029   0.673   3.502   2.840  0.3688 -2.5687 -0.0214
 1341TIP3    H2 4030   0.805   3.573   2.818 -0.0193 -0.7986  2.8690
 1342TIP3   OH2 4031   4.793   3.013   1.861 -0.4516  0.2475 -0.5823
 1342TIP3    H1 4032   4.711   2.969   1.835 -1.6084  1.0709  1.4236
 1342TIP3    H2 4033   4.827   3.050   1.780 -2.6870  0.8241 -1.3432
 1343TIP3   OH2 4034   3.588   1.470   1.169 -0.2041 -0.0504  0.1884
 1343TIP3    H1 4035   3.513   1.431   1.124 -1.1544  0.7624  1.0286
 1343TIP3    H2 4036   3.625   1.398   1.220 -0.9719 -0.2536  0.4746
 1344TIP3   OH2 4037   0.804   0.859   3.157  0.1014 -0.3404 -0.0929
 1344TIP3    H1 4038   0.736   0.864   3.225  1.3070 -1.6752  1.2890
 1344TIP3    H2 4039   0.809   0.766   3.134  1.5112 -0.2889 -0.0830
 1345TIP3   OH2 4040   2.938   2.316   2.053 -1.0230  0.1322 -0.2125
 1345TIP3    H1 4041   2.992   2.384   2.013 -0.1046  0.7142  1.8980
 1345TIP3    H2 4042   2.869   2.301   1.989 -0.6619  2.2860 -1.2225
 1346TIP3   OH2 4043   0.189   4.405   3.383  0.1668  0.2688 -0.5848
 1346TIP3    H1 4044   0.097   4.395   3.359  0.2399  0.6456 -1.0358
 1346TIP3    H2 4045   0.189   4.406   3.479 -0.3241  0.5091 -0.5865
 1347TIP3   OH2 4046   3.478   3.907   4.968 -0.2049  0.0337  0.3672
 1347TIP3    H1 4047   3.386   3.933   4.981 -0.4566 -0.3801 -0.5015
 1347TIP3    H2 4048   3.524   3.942   5.044 -1.3687 -1.1339  1.6693
 1348TIP3   OH2 4049   5.466   1.524   2.387  0.1978 -0.6620 -0.1785
 1348TIP3    H1 4050   5.408   1.456   2.422  0.8409 -0.8847  0.4957
 1348TIP3    H2 4051   5.509   1.482   2.312  1.0883 -1.2582  0.6349
 1349TIP3   OH2 4052   5.333   2.156   3.834  0.2596 -0.1812 -0.0370
 1349TIP3    H1 4053   5.423   2.126   3.846  0.4189  0.7723  1.3142
 1349TIP3    H2 4054   5.330   2.242   3.875 -1.0558  0.1875 -0.8364
 1350TIP3   OH2 4055   3.826   0.741   1.080 -0.2594  0.2449  0.0095
 1350TIP3    H1 4056   3.902   0.728   1.024 -1.2412  0.7469 -1.4836
 1350TIP3    H2 4057   3.859   0.726   1.169  0.8490 -2.8113 -0.8002
 1351TIP3   OH2 4058   0.296   5.193   2.052 -0.1376 -0.2756 -0.4767
 1351TIP3    H1 4059   0.333   5.171   1.966  0.6141 -0.2131 -0.1778
 1351TIP3    H2 4060   0.344   5.137   2.113  1.7979  2.1279  0.3149
 1352TIP3   OH2 4061   6.226   2.883   4.820 -0.6789  0.2834  0.5156
 1352TIP3    H1 4062   6.171   2.806   4.829 -2.1987  1.0247 -1.5840
 1352TIP3    H2 4063   6.233   2.897   4.725 -0.6152  2.7821  0.8170
 1353TIP3   OH2 4064   3.787   4.850   3.087  0.4878 -0.3012 -0.0043
 1353TIP3    H1 4065   3.879   4.834   3.108  0.3903  0.2863  0.9271
 1353TIP3    H2 4066   3.774   4.807   3.003  1.2158 -1.7083  0.5804
 1354TIP3   OH2 4067   4.409   4.502   0.386 -0.1565 -0.0187  0.1786
 1354TIP3    H1 4068   4.441   4.489   0.297 -0.0348  2.0258 -0.1357
 1354TIP3    H2 4069   4.317   4.528   0.375 -0.5551 -1.1171  0.7620
 1355TIP3   OH2 4070   4.446   0.935   1.197  0.3126 -0.3348  0.0229
 1355TIP3    H1 4071   4.384   1.008   1.199 -0.6900 -1.1355 -0.4557
 1355TIP3    H2 4072   4.487   0.940   1.111 -0.3508 -0.7985 -0.3269
 1356TIP3   OH2 4073   5.882   4.771   2.073  0.0570  0.3971 -0.4083
 1356TIP3    H1 4074   5.915   4.787   1.985  1.7389  0.6151  0.2379
 1356TIP3    H2 4075   5.807   4.830   2.081  1.5062  2.3901 -0.7668
 1357TIP3   OH2 4076   5.365   5.408   0.802  0.3091 -0.3947 -0.0256
 1357TIP3    H1 4077   5.432   5.394   0.869  0.1124 -1.4631 -0.0438
 1357TIP3    H2 4078   5.308   5.332   0.808 -1.3375  0.8208  0.4624
 1358TIP3   OH2 4079   5.395   4.526   2.698  0.4328 -0.4924  0.0647
 1358TIP3    H1 4080   5.367   4.501   2.610  0.6663 -1.3992  0.2285
 1358TIP3    H2 4081   5.333   4.483   2.756  0.5045 -0.2123  0.3531
 1359TIP3   OH2 4082   1.167   3.912   1.729  0.5848 -0.4375 -0.2382
 1359TIP3    H1 4083   1.081   3.949   1.749  1.9323  1.6660  2.3775
 1359TIP3    H2 4084   1.159   3.819   1.750 -1.7655 -0.9842 -2.9569
 1360TIP3   OH2 4085   4.844   4.449   0.058 -0.0993 -0.0423  0.3898
 1360TIP3    H1 4086   4.779   4.467  -0.010  0.2683 -0.5790 -0.1137
 1360TIP3    H2 4087   4.896   4.377   0.023  1.1114  0.7318  0.5509
 1361TIP3   OH2 4088   2.411   4.157   1.972  0.1690 -0.2731  0.6614
 1361TIP3    H1 4089   2.380   4.190   2.056  0.5456  1.5818  0.1377
 1361TIP3    H2 4090   2.356   4.081   1.953 -1.5022  0.6780  1.5041
 1362TIP3   OH2 4091   0.111   2.701   3.035 -0.3367  0.1388 -0.4265
 1362TIP3    H1 4092   0.135   2.724   3.125  1.0308 -1.6594 -0.2886
 1362TIP3    H2 4093   0.194   2.702   2.987 -0.9497  0.3507 -1.5075
 1363TIP3   OH2 4094   0.342   2.183   1.894  0.1761 -0.3858  0.5612
 1363TIP3    H1 4095   0.256   2.143   1.884  0.2328 -0.3268 -0.1959
 1363TIP3    H2 4096   0.375   2.148   1.977  0.1488 -1.7657  0.0119
 1364TIP3   OH2 4097   0.279   3.344   0.014  0.2560  0.5672 -0.2847
 1364TIP3    H1 4098   0.211   3.400   0.051 -1.7466 -1.1558 -1.1244
 1364TIP3    H2 4099   0.233   3.288  -0.049  2.2446 -1.5110 -0.0577
 1365TIP3   OH2 4100   4.936   4.477   3.363 -0.4380 -0.3498  0.8662
 1365TIP3    H1 4101   4.845   4.473   3.391 -0.5262  3.0089  1.4010
 1365TIP3    H2 4102   4.968   4.560   3.396  2.1494 -0.3281 -1.3381
 1366TIP3   OH2 4103   5.202   1.083   4.720 -0.2622  0.7074 -0.1124
 1366TIP3    H1 4104   5.243   1.034   4.792  1.8137 -0.0727 -1.7293
 1366TIP3    H2 4105   5.198   1.173   4.752  2.2694  0.7158  0.3768
 1367TIP3   OH2 4106   1.817   5.117   2.684  0.2062 -0.2652  0.2805
 1367TIP3    H1 4107   1.790   5.144   2.596  2.4142 -1.8722 -0.9888
 1367TIP3    H2 4108   1.735   5.096   2.729 -0.9310 -0.3377 -1.7228
 1368TIP3   OH2 4109   4.618   0.518   1.140 -0.4402 -0.0390 -0.6140
 1368TIP3    H1 4110   4.670   0.576   1.085  0.0082 -1.3975 -1.6989
 1368TIP3    H2 4111   4.610   0.564   1.223  0.4718  1.2522 -1.2100
 1369TIP3   OH2 4112   4.074   1.276   0.686  0.3392 -0.2359  0.3221
 1369TIP3    H1 4113   3.986   1.268   0.650  0.9713 -0.8903 -1.1667
 1369TIP3    H2 4114   4.094   1.370   0.680  0.8396 -0.4274 -2.2043
 1370TIP3   OH2 4115   5.039   0.115   1.291  0.5451 -0.0645  0.4631
 1370TIP3    H1 4116   5.071   0.204   1.298  0.5661 -0.1074  0.9489
 1370TIP3    H2 4117   5.049   0.078   1.379 -1.7424  0.2353  0.9251
 1371TIP3   OH2 4118   0.233   1.199   3.820 -0.0363  0.1910  0.1236
 1371TIP3    H1 4119   0.177   1.123   3.838  2.2145 -1.8097 -0.7862
 1371TIP3    H2 4120   0.297   1.199   3.891  0.9988  0.1959 -0.7839
 1372TIP3   OH2 4121   2.301   2.728   4.220 -0.2238 -0.0887  0.3312
 1372TIP3    H1 4122   2.307   2.823   4.210 -2.9582  0.2922  1.6462
 1372TIP3    H2 4123   2.376   2.705   4.275  1.1686  1.0726 -0.9875
 1373TIP3   OH2 4124   2.342   1.194   1.850  0.1595  0.0966  0.4008
 1373TIP3    H1 4125   2.404   1.253   1.807  1.6552  0.7548  3.2559
 1373TIP3    H2 4126   2.395   1.121   1.880 -1.0049 -0.7832  0.3716
 1374TIP3   OH2 4127   4.702   2.914   3.680  0.6806  0.1019  0.6302
 1374TIP3    H1 4128   4.725   2.911   3.773  0.2973 -0.5162  0.7126
 1374TIP3    H2 4129   4.701   3.008   3.659  2.0067  0.1931  0.9208
 1375TIP3   OH2 4130   2.670   4.757   2.955 -0.3000  0.1076  0.7234
 1375TIP3    H1 4131   2.597   4.819   2.959  0.9150  1.5693  1.0795
 1375TIP3    H2 4132   2.644   4.694   2.889 -2.2135  0.1535  1.3821
 1376TIP3   OH2 4133   6.298   4.978   1.306  0.0504  0.9236 -0.0986
 1376TIP3    H1 4134   6.326   5.068   1.324  0.4962  1.0415 -1.2887
 1376TIP3    H2 4135   6.310   4.968   1.211 -1.0117 -0.0456 -0.1417
 1377TIP3   OH2 4136   2.922   2.365   0.068  0.4061 -0.4696  0.0018
 1377TIP3    H1 4137   2.848   2.307   0.048 -0.4207  1.0014 -1.5100
 1377TIP3    H2 4138   2.904   2.444   0.017  2.3123  0.4916  0.7338
 1378TIP3   OH2 4139   5.498   2.876   1.562  0.0085 -0.1729  0.1413
 1378TIP3    H1 4140   5.532   2.964   1.575 -1.2601  0.4644 -0.6958
 1378TIP3    H2 4141   5.472   2.847   1.649  0.1453  0.4010  0.3754
 1379TIP3   OH2 4142   1.445   1.487   0.250 -0.8513 -0.0181  0.5759
 1379TIP3    H1 4143   1.349   1.490   0.250 -0.8821  1.5401 -1.7892
 1379TIP3    H2 4144   1.472   1.575   0.276  0.0004 -0.5913  1.7505
 1380TIP3   OH2 4145   2.956   4.545   2.830 -0.0491 -0.0188 -0.2133
 1380TIP3    H1 4146   2.874   4.594   2.830 -0.7824 -1.1431 -1.7235
 1380TIP3    H2 4147   2.985   4.547   2.739  0.6296 -1.1619 -0.0446
 1381TIP3   OH2 4148   3.988   4.155   3.915 -0.2417 -0.4705  0.1929
 1381TIP3    H1 4149   3.974   4.061   3.909  1.8048 -0.7630 -0.5794
 1381TIP3    H2 4150   3.968   4.176   4.007  2.6431 -2.3114  1.3920
 1382TIP3   OH2 4151   3.674   3.450   4.051  0.1370  0.4416  0.1981
 1382TIP3    H1 4152   3.644   3.441   4.141  0.5521 -0.3926  0.2641
 1382TIP3    H2 4153   3.620   3.389   4.001  2.1206 -1.6433  0.4391
 1383TIP3   OH2 4154   6.246   0.695   3.655 -0.2854 -0.2302 -0.4680
 1383TIP3    H1 4155   6.286   0.777   3.685  0.7262 -1.2529  1.1136
 1383TIP3    H2 4156   6.180   0.675   3.722  0.9192 -1.7523  0.3137
 1384TIP3   OH2 4157   1.781   1.747   5.011 -0.4943  0.4164 -0.2083
 1384TIP3    H1 4158   1.849   1.797   5.056 -0.1408 -1.4636  1.4800
 1384TIP3    H2 4159   1.701   1.798   5.023  0.2629  1.7800 -0.7131
 1385TIP3   OH2 4160   3.713   4.669   3.577  0.1559 -0.3073  0.2293
 1385TIP3    H1 4161   3.632   4.714   3.552 -1.4467 -3.5381 -0.9571
 1385TIP3    H2 4162   3.777   4.699   3.512 -0.5473  0.9412  0.0728
 1386TIP3   OH2 4163   3.953   0.609   3.638  0.4927 -0.3061 -0.4759
 1386TIP3    H1 4164   3.968   0.692   3.683  0.4768 -0.8747  0.6047
 1386TIP3    H2 4165   4.009   0.614   3.561 -0.3887  1.1923 -1.0693
 1387TIP3   OH2 4166   1.783   3.677   1.336  0.2627  1.0054  0.1177
 1387TIP3    H1 4167   1.744   3.756   1.373  0.3373  0.9412  0.3342
 1387TIP3    H2 4168   1.775   3.612   1.406 -0.3045  0.6675 -0.2586
 1388TIP3   OH2 4169   4.798   0.008   0.196 -0.1906  0.1854 -0.1821
 1388TIP3    H1 4170   4.744   0.063   0.252 -0.2873 -1.1868  1.1447
 1388TIP3    H2 4171   4.779   0.038   0.107 -0.9309  1.6309  0.4348
 1389TIP3   OH2 4172   1.773   4.229   1.927  0.4680  0.2068 -0.0164
 1389TIP3    H1 4173   1.857   4.229   1.881  0.5701  0.8871  0.1656
 1389TIP3    H2 4174   1.764   4.318   1.961 -0.7847  0.4204 -0.8607
 1390TIP3   OH2 4175   4.391   3.484   4.538  0.2381 -0.2086  0.4210
 1390TIP3    H1 4176   4.384   3.407   4.481 -0.3134  0.1358  0.0152
 1390TIP3    H2 4177   4.315   3.537   4.516  0.6919  0.5256  0.5908
 1391TIP3   OH2 4178   3.126   2.556   2.656  0.4706 -0.2804 -0.1066
 1391TIP3    H1 4179   3.167   2.569   2.571 -1.5549  0.1225 -1.0855
 1391TIP3    H2 4180   3.167   2.621   2.713  1.8281 -0.5315 -0.7538
 1392TIP3   OH2 4181   3.322   3.665   3.868 -1.1289  0.2773 -0.0717
 1392TIP3    H1 4182   3.327   3.571   3.857 -0.8283  0.0474  1.7817
 1392TIP3    H2 4183   3.249   3.679   3.929 -1.2811  1.2589 -0.4466
 1393TIP3   OH2 4184   4.666   1.910   0.270  0.1786  0.4886  0.2734
 1393TIP3    H1 4185   4.747   1.924   0.320  0.2668 -1.9907  0.9530
 1393TIP3    H2 4186   4.606   1.870   0.332 -0.7279  0.0312 -0.8682
 1394TIP3   OH2 4187   0.870   4.627   1.050  0.0052  0.1215 -0.7154
 1394TIP3    H1 4188   0.828   4.646   0.966 -0.6601 -0.0460 -0.4273
 1394TIP3    H2 4189   0.806   4.572   1.097  0.7120 -0.4734 -0.4265
 1395TIP3   OH2 4190   6.252   4.766   5.113  0.1270  0.1031  0.1425
 1395TIP3    H1 4191   6.162   4.733   5.124 -0.2768  0.7730 -0.9691
 1395TIP3    H2 4192   6.252   4.852   5.154  0.0643  0.3984 -0.4737
 1396TIP3   OH2 4193   2.496   4.928   2.192  0.5165 -0.0538  0.3199
 1396TIP3    H1 4194   2.586   4.946   2.165  0.1582 -1.2817 -1.9739
 1396TIP3    H2 4195   2.503   4.855   2.254  1.2000  1.0712  1.5904
 1397TIP3   OH2 4196   4.182   3.815   0.035 -0.5446 -0.5089 -0.0703
 1397TIP3    H1 4197   4.208   3.859  -0.046 -2.2362 -0.7759 -0.8095
 1397TIP3    H2 4198   4.113   3.871   0.072 -0.7128 -1.0720  0.4870
 1398TIP3   OH2 4199   1.395   0.165   3.952 -0.0114 -0.2066 -0.1524
 1398TIP3    H1 4200   1.397   0.250   3.997  1.3438 -0.6188  0.6094
 1398TIP3    H2 4201   1.485   0.132   3.959 -0.7912 -2.2938  0.7083
 1399TIP3   OH2 4202   5.045   0.489   3.975  0.3178  0.2804 -0.3075
 1399TIP3    H1 4203   5.051   0.529   4.061  3.8543 -0.7631  0.0982
 1399TIP3    H2 4204   4.951   0.474   3.962 -0.3548  0.0318  3.5716
 1400TIP3   OH2 4205   4.359   0.682   2.826 -0.1978  0.3641  0.0333
 1400TIP3    H1 4206   4.428   0.620   2.802  0.3399  1.0072 -0.1368
 1400TIP3    H2 4207   4.375   0.757   2.769 -0.8145  0.6714  0.2614
 1401TIP3   OH2 4208   3.909   3.415   2.980 -0.5089 -0.4972  0.2466
 1401TIP3    H1 4209   3.822   3.455   2.977  0.5591  1.9941  0.3404
 1401TIP3    H2 4210   3.948   3.449   3.060  1.5118  0.6259 -1.1376
 1402TIP3   OH2 4211   5.803   2.672   2.373  0.2547  0.1315  0.2308
 1402TIP3    H1 4212   5.808   2.697   2.281  2.6948  1.8388  0.7287
 1402TIP3    H2 4213   5.777   2.752   2.418 -1.7397 -0.8939  1.0145
 1403TIP3   OH2 4214   0.021   2.434   4.914  0.4090  0.0574 -0.3878
 1403TIP3    H1 4215   0.071   2.499   4.963 -2.4961  1.3996  1.0382
 1403TIP3    H2 4216   0.065   2.351   4.934 -0.6212  0.4321  4.8666
 1404TIP3   OH2 4217   1.717   3.208   4.166  0.2909  0.4827 -0.1829
 1404TIP3    H1 4218   1.759   3.293   4.159 -0.8432  1.0483 -0.2441
 1404TIP3    H2 4219   1.790   3.146   4.178  1.0410  1.5972  1.2498
 1405TIP3   OH2 4220   1.118   4.431   0.977 -0.3355 -0.2301  0.9051
 1405TIP3    H1 4221   1.066   4.479   1.042  0.2658  0.6952  0.7225
 1405TIP3    H2 4222   1.103   4.479   0.895  0.2912 -0.3378  0.7230
 1406TIP3   OH2 4223   3.405   3.004   2.413  0.8568 -0.0455 -0.3693
 1406TIP3    H1 4224   3.402   2.939   2.343  2.2274  1.1148 -1.5581
 1406TIP3    H2 4225   3.320   2.996   2.457  0.2140 -1.2374 -1.7627
 1407TIP3   OH2 4226   5.816   3.931   3.732 -0.1383 -0.1118 -0.4244
 1407TIP3    H1 4227   5.780   3.842   3.726  0.5855 -0.4845  0.6339
 1407TIP3    H2 4228   5.754   3.978   3.787  0.3177 -0.4113  0.3564
 1408TIP3   OH2 4229   1.620   3.573   0.949  0.5088  0.8627 -0.2321
 1408TIP3    H1 4230   1.589   3.483   0.952  0.8204  0.7179 -1.1108
 1408TIP3    H2 4231   1.582   3.609   0.869  3.1894  0.4336 -1.8129
 1409TIP3   OH2 4232   0.511   2.766   0.622 -0.0647 -0.1131  0.4404
 1409TIP3    H1 4233   0.578   2.826   0.653  0.8745 -0.7336 -0.3367
 1409TIP3    H2 4234   0.443   2.822   0.584  0.7983  0.4662 -0.2746
 1410TIP3   OH2 4235   1.651   2.053   4.200  0.7494 -0.5127 -0.4963
 1410TIP3    H1 4236   1.648   1.962   4.170 -0.2960 -0.5455 -0.3234
 1410TIP3    H2 4237   1.641   2.047   4.295  1.9336 -0.2774 -0.3379
 1411TIP3   OH2 4238   5.471   5.837   3.465  0.4996  0.3469  0.4195
 1411TIP3    H1 4239   5.510   5.925   3.459  0.0662  0.4986 -0.2837
 1411TIP3    H2 4240   5.546   5.778   3.475  0.9072  0.6533 -0.6950
 1412TIP3   OH2 4241   4.537   3.241   2.026  0.0919 -0.4861  0.7114
 1412TIP3    H1 4242   4.611   3.255   1.967 -0.0404 -2.9771 -0.1359
 1412TIP3    H2 4243   4.490   3.167   1.988 -0.7403 -1.3277  3.2310
 1413TIP3   OH2 4244   1.478   4.131   3.111  0.1620  0.4950 -0.3566
 1413TIP3    H1 4245   1.567   4.142   3.144 -0.3832  1.2960  0.9349
 1413TIP3    H2 4246   1.463   4.036   3.114  0.5458  0.4502  0.6151
 1414TIP3   OH2 4247   0.894   5.577   3.027 -0.2327 -0.2105  0.0981
 1414TIP3    H1 4248   0.929   5.640   2.964 -0.3118 -1.0308 -0.7875
 1414TIP3    H2 4249   0.929   5.606   3.111 -3.6878  3.6853  0.5634
 1415TIP3   OH2 4250   5.810   0.929   3.572 -0.5123  0.1609 -0.4473
 1415TIP3    H1 4251   5.777   1.019   3.574 -0.9855  0.0869 -2.3257
 1415TIP3    H2 4252   5.901   0.937   3.543  0.5393  0.2062  2.5648
 1416TIP3   OH2 4253   2.684   1.663   4.677  0.0735  0.1272 -0.0628
 1416TIP3    H1 4254   2.659   1.733   4.737 -0.2405  0.2780 -0.3633
 1416TIP3    H2 4255   2.612   1.659   4.613 -0.2253 -0.8878  0.3105
 1417TIP3   OH2 4256   3.550   5.601   1.933  0.0250 -0.3493 -0.0437
 1417TIP3    H1 4257   3.588   5.561   1.855 -0.9013  0.4198 -0.9196
 1417TIP3    H2 4258   3.488   5.535   1.965  0.7290 -0.8463  0.3107
 1418TIP3   OH2 4259   3.354   3.152   1.716 -0.4757  0.2623 -0.4664
 1418TIP3    H1 4260   3.386   3.064   1.737  0.0325  0.6790  0.5873
 1418TIP3    H2 4261   3.260   3.141   1.704 -0.3919 -0.4501 -0.5310
 1419TIP3   OH2 4262   2.039   4.735   0.422  1.1736 -0.0623 -0.2500
 1419TIP3    H1 4263   2.130   4.706   0.411  1.7613  0.9227  1.5530
 1419TIP3    H2 4264   2.036   4.821   0.379  0.1822 -1.3870 -3.0934
 1420TIP3   OH2 4265   1.439   4.582   0.632 -0.0402 -0.4638  0.6571
 1420TIP3    H1 4266   1.500   4.599   0.703 -1.3314  0.1852  1.6533
 1420TIP3    H2 4267   1.382   4.659   0.631  0.0120 -0.4018 -1.1682
 1421TIP3   OH2 4268   2.657   2.517   0.225  0.5198 -0.6813 -0.0154
 1421TIP3    H1 4269   2.573   2.537   0.266  1.1004 -0.7177  1.2084
 1421TIP3    H2 4270   2.694   2.447   0.278  2.6705  1.3482  1.3450
 1422TIP3   OH2 4271   1.764   2.110   0.813  0.0654 -0.1821 -0.0383
 1422TIP3    H1 4272   1.691   2.057   0.781  0.5462  0.0331 -1.5751
 1422TIP3    H2 4273   1.736   2.141   0.899 -1.8563  0.2828 -0.7907
 1423TIP3   OH2 4274   5.778   5.209   2.075  0.3208 -0.2855 -0.0311
 1423TIP3    H1 4275   5.850   5.219   2.013  0.6531  0.8967  0.5227
 1423TIP3    H2 4276   5.723   5.287   2.061  0.4492  0.0418  1.1997
 1424TIP3   OH2 4277   0.756   2.276   0.139  0.3325 -0.0247  0.0636
 1424TIP3    H1 4278   0.811   2.223   0.081 -1.5441 -1.0831 -0.8295
 1424TIP3    H2 4279   0.711   2.211   0.194 -1.5974  0.6291 -0.6727
 1425TIP3   OH2 4280   6.318   3.169   1.302 -1.1086 -0.0276  0.0755
 1425TIP3    H1 4281   6.381   3.097   1.298 -0.5857  0.4608 -0.7032
 1425TIP3    H2 4282   6.274   3.157   1.387  0.0673 -0.3427  0.6681
 1426TIP3   OH2 4283   5.842   1.101   1.126  0.0390 -0.4828  0.4879
 1426TIP3    H1 4284   5.823   1.173   1.066  1.3868 -1.3212 -1.0086
 1426TIP3    H2 4285   5.771   1.105   1.191 -0.7546  1.2342 -0.4135
 1427TIP3   OH2 4286   2.521   3.233   4.805 -0.6414  0.0015 -0.1399
 1427TIP3    H1 4287   2.616   3.245   4.801 -0.6400 -0.1664 -0.6569
 1427TIP3    H2 4288   2.485   3.321   4.794 -0.5078  0.6710  3.5513
 1428TIP3   OH2 4289   3.952   2.798   2.209 -0.4297 -0.2221  0.5469
 1428TIP3    H1 4290   3.907   2.716   2.231 -1.3300  0.6532  2.1482
 1428TIP3    H2 4291   4.000   2.821   2.288  1.6443 -0.2990 -0.6159
 1429TIP3   OH2 4292   1.478   3.124   1.150 -0.0949  0.4802 -0.0789
 1429TIP3    H1 4293   1.499   3.044   1.198  1.5828  2.1207  2.1839
 1429TIP3    H2 4294   1.544   3.187   1.180 -1.5811  2.8227 -1.4347
 1430TIP3   OH2 4295   2.471   5.775   3.356  0.5728  0.2888  0.5064
 1430TIP3    H1 4296   2.482   5.868   3.339 -1.0296  0.3241 -0.5513
 1430TIP3    H2 4297   2.547   5.751   3.408  0.7445  2.2948  1.2644
 1431TIP3   OH2 4298   0.132   3.128   4.300 -0.2093  0.0919 -1.2088
 1431TIP3    H1 4299   0.222   3.150   4.328 -0.5616 -0.0916  0.1592
 1431TIP3    H2 4300   0.142   3.046   4.252  0.5589  0.9495 -2.5865
 1432TIP3   OH2 4301   2.059   5.119   2.330  0.3273  0.1132 -0.5023
 1432TIP3    H1 4302   2.154   5.108   2.326  0.4611 -0.9830  2.7001
 1432TIP3    H2 4303   2.045   5.177   2.405 -1.5690 -1.6208  0.5837
 1433TIP3   OH2 4304   2.085   3.932   1.629 -0.6000 -0.3444  0.2102
 1433TIP3    H1 4305   2.039   3.868   1.684 -1.3093 -0.8487 -0.9359
 1433TIP3    H2 4306   2.064   3.906   1.539 -1.2997  1.7674 -0.2959
 1434TIP3   OH2 4307   2.696   4.217   2.763  0.0318  0.2432 -0.1673
 1434TIP3    H1 4308   2.764   4.160   2.799  0.4461  0.4686 -0.5865
 1434TIP3    H2 4309   2.632   4.224   2.834 -0.1883 -0.9907 -0.2215
 1435TIP3   OH2 4310   6.369   1.388   0.576  0.3846 -0.5359 -0.6838
 1435TIP3    H1 4311   6.298   1.351   0.629  0.5359  0.1481  0.0302
 1435TIP3    H2 4312   6.362   1.483   0.591  2.3803 -0.5388  0.6418
 1436TIP3   OH2 4313   3.230   2.610   2.401 -0.0482  0.1631 -0.0811
 1436TIP3    H1 4314   3.193   2.681   2.349 -1.1191 -0.5231 -0.2773
 1436TIP3    H2 4315   3.200   2.530   2.357  0.2781 -0.4141  0.7319
 1437TIP3   OH2 4316   0.552   3.847   2.465  0.9965  0.4409  0.4721
 1437TIP3    H1 4317   0.603   3.777   2.422 -0.2376 -0.2164  0.0349
 1437TIP3    H2 4318   0.462   3.831   2.437  0.5868  1.7643  0.9975
 1438TIP3   OH2 4319   4.930   4.954   4.432  0.2241 -1.2531 -0.0468
 1438TIP3    H1 4320   4.879   4.985   4.506  0.6335  1.0267 -0.6271
 1438TIP3    H2 4321   5.013   4.925   4.470  0.2087 -0.6602  0.4563
 1439TIP3   OH2 4322   1.521   1.025   0.360  0.2143 -0.1910  0.0476
 1439TIP3    H1 4323   1.490   0.944   0.321  0.9219 -0.8137  0.7543
 1439TIP3    H2 4324   1.473   1.032   0.443 -0.5127  0.5917 -0.4176
 1440TIP3   OH2 4325   0.714   0.627   4.201 -0.4195 -0.0865  0.3273
 1440TIP3    H1 4326   0.701   0.682   4.279 -0.2428 -0.4121  0.5895
 1440TIP3    H2 4327   0.807   0.634   4.182 -0.5489  0.3876 -0.1561
 1441TIP3   OH2 4328   4.709   5.896   0.347 -0.0858 -0.7532 -0.1872
 1441TIP3    H1 4329   4.761   5.977   0.341 -0.2537 -0.4560  1.5771
 1441TIP3    H2 4330   4.758   5.832   0.296  0.3245  0.3327 -1.2004
 1442TIP3   OH2 4331   4.520   2.465   1.297 -0.0367  0.3382  0.0787
 1442TIP3    H1 4332   4.525   2.390   1.357  0.1107 -2.4743 -3.1098
 1442TIP3    H2 4333   4.426   2.480   1.287 -0.0918  0.1157  0.2406
 1443TIP3   OH2 4334   4.477   0.747   1.982 -0.5498  0.0272 -0.0953
 1443TIP3    H1 4335   4.413   0.754   1.911  0.7721 -1.3558 -1.4863
 1443TIP3    H2 4336   4.556   0.787   1.948  0.2004 -0.9261  0.4683
 1444TIP3   OH2 4337   1.029   1.655   1.819 -0.3685 -0.8319 -0.3170
 1444TIP3    H1 4338   0.989   1.616   1.741 -1.3734 -0.7091  0.1157
 1444TIP3    H2 4339   1.080   1.584   1.858 -1.4571 -1.4712 -0.0270
 1445TIP3   OH2 4340   4.987   1.549   4.404 -0.4434 -0.5045  0.2411
 1445TIP3    H1 4341   5.016   1.631   4.363  0.0372 -1.5027 -1.4840
 1445TIP3    H2 4342   4.982   1.570   4.497 -0.8413  1.6340 -0.2160
 1446TIP3   OH2 4343   3.453   0.523   5.130 -0.4781  0.4559  0.3221
 1446TIP3    H1 4344   3.544   0.551   5.141 -0.6442  0.8269  0.7743
 1446TIP3    H2 4345   3.402   0.603   5.140 -0.8148  0.3622 -0.6106
 1447TIP3   OH2 4346   5.558   3.836   1.698  0.3054  0.3693 -0.0531
 1447TIP3    H1 4347   5.586   3.825   1.607  0.6983  3.4266 -0.4082
 1447TIP3    H2 4348   5.602   3.916   1.727 -1.6944  0.7987  2.0500
 1448TIP3   OH2 4349   4.968   0.805   4.562 -0.1529 -0.0510 -0.5989
 1448TIP3    H1 4350   4.945   0.718   4.596  1.7146 -0.0452  0.8213
 1448TIP3    H2 4351   5.061   0.799   4.543 -0.1762  1.4162 -1.3082
 1449TIP3   OH2 4352   3.968   4.107   4.448 -0.3672  0.0440  0.2443
 1449TIP3    H1 4353   3.975   4.062   4.532  2.3564  1.4928  0.8883
 1449TIP3    H2 4354   3.898   4.172   4.461 -0.9837 -0.7282  0.8640
 1450TIP3   OH2 4355   0.903   2.217   3.602 -0.5763 -0.0104 -0.6442
 1450TIP3    H1 4356   0.816   2.235   3.638 -0.1811 -0.9092  0.8441
 1450TIP3    H2 4357   0.919   2.125   3.621  0.0796 -0.2880 -2.3221
 1451TIP3   OH2 4358   3.973   0.418   0.894  0.6957 -0.1538 -0.0086
 1451TIP3    H1 4359   3.884   0.454   0.898  0.3885 -0.8937 -0.0384
 1451TIP3    H2 4360   4.010   0.437   0.980  0.2414 -0.5081  0.2728
 1452TIP3   OH2 4361   2.304   0.564   1.928 -0.8527  0.2840  0.1616
 1452TIP3    H1 4362   2.233   0.628   1.934 -1.2413 -0.2658  1.7900
 1452TIP3    H2 4363   2.274   0.489   1.979  0.9398  0.0871  1.0022
 1453TIP3   OH2 4364   4.388   4.851   0.952  0.4006 -0.1915 -0.1757
 1453TIP3    H1 4365   4.385   4.769   1.001  2.9932 -0.3598 -0.1555
 1453TIP3    H2 4366   4.392   4.919   1.020  2.8565 -0.3622 -0.0809
 1454TIP3   OH2 4367   5.896   3.594   0.914 -0.1225 -0.2637  0.8003
 1454TIP3    H1 4368   5.927   3.633   0.832  2.8728 -1.7505  1.0833
 1454TIP3    H2 4369   5.824   3.537   0.888  1.0700 -1.0734 -0.9282
 1455TIP3   OH2 4370   5.798   2.989   2.436  0.8050 -0.1095 -0.2457
 1455TIP3    H1 4371   5.705   2.986   2.455  0.4581  1.5831 -1.4918
 1455TIP3    H2 4372   5.834   3.052   2.499  0.5494  1.4840 -1.6115
 1456TIP3   OH2 4373   5.097   3.093   4.423 -0.3039  0.2614 -0.7219
 1456TIP3    H1 4374   5.088   3.166   4.361 -2.0765 -0.4974 -1.4080
 1456TIP3    H2 4375   5.007   3.069   4.446  0.1926 -2.2117 -1.1008
 1457TIP3   OH2 4376   5.138   5.144   3.938  0.1664  0.6005  0.0467
 1457TIP3    H1 4377   5.055   5.118   3.897  0.1208  0.9618 -0.0941
 1457TIP3    H2 4378   5.120   5.143   4.032  0.5619 -1.2592  0.1403
 1458TIP3   OH2 4379   6.082   3.539   3.460  0.5026 -0.0212 -0.1714
 1458TIP3    H1 4380   6.119   3.560   3.374 -1.0289  0.1795 -0.7994
 1458TIP3    H2 4381   6.122   3.603   3.519 -1.0789  2.1720 -1.3573
 1459TIP3   OH2 4382   2.412   1.571   4.842 -0.6508 -0.3253 -0.0019
 1459TIP3    H1 4383   2.395   1.478   4.830  0.2655 -1.1436  3.6133
 1459TIP3    H2 4384   2.363   1.614   4.772 -1.6285 -3.4488 -1.4271
 1460TIP3   OH2 4385   1.140   4.090   4.229 -0.2698  0.0358  0.3063
 1460TIP3    H1 4386   1.214   4.147   4.250  0.5675  0.2943 -2.8509
 1460TIP3    H2 4387   1.078   4.147   4.183 -0.2894 -1.1366 -1.1916
 1461TIP3   OH2 4388   4.803   5.417   4.928  0.4283  0.1911  0.1773
 1461TIP3    H1 4389   4.749   5.485   4.967 -0.4126  0.5683 -1.5375
 1461TIP3    H2 4390   4.788   5.340   4.983  0.6307  1.0989  1.5669
 1462TIP3   OH2 4391   3.137   4.298   2.642  0.7354  0.3344 -0.4911
 1462TIP3    H1 4392   3.069   4.355   2.678  2.1534  0.2826  2.6151
 1462TIP3    H2 4393   3.095   4.255   2.568 -2.2493  1.1671  0.5534
 1463TIP3   OH2 4394   1.890   2.672   4.086 -0.5074 -0.1053 -0.1667
 1463TIP3    H1 4395   1.941   2.594   4.111 -0.6658 -0.3669 -0.6501
 1463TIP3    H2 4396   1.847   2.647   4.005  0.8784  1.1256 -1.3212
 1464TIP3   OH2 4397   3.889   3.838   4.994  0.6934  0.0814 -0.2300
 1464TIP3    H1 4398   3.831   3.821   4.920  0.2830 -1.2913  0.3739
 1464TIP3    H2 4399   3.954   3.899   4.960 -0.6304  1.0497 -1.1500
 1465TIP3   OH2 4400   3.021   5.483   0.014 -0.2757  0.0881 -0.1032
 1465TIP3    H1 4401   3.069   5.506  -0.066  0.8124 -0.3560  0.3899
 1465TIP3    H2 4402   3.002   5.567   0.056 -1.7209  0.3888 -1.2838
 1466TIP3   OH2 4403   2.278   4.634   3.832 -0.0390 -0.3400  0.0304
 1466TIP3    H1 4404   2.276   4.555   3.777 -2.3158  0.8187 -1.7521
 1466TIP3    H2 4405   2.322   4.606   3.913  2.5277 -2.4155 -1.9058
 1467TIP3   OH2 4406   2.833   1.205   5.154 -0.4723  0.2422 -0.9527
 1467TIP3    H1 4407   2.821   1.117   5.117 -1.0158 -0.5086  0.8717
 1467TIP3    H2 4408   2.913   1.197   5.207 -1.8244  0.0805  1.1896
 1468TIP3   OH2 4409   4.281   5.634   4.771 -0.2778  0.1496  0.4248
 1468TIP3    H1 4410   4.301   5.714   4.721  0.0789  0.0228  0.3645
 1468TIP3    H2 4411   4.346   5.633   4.841 -1.5614  1.0205  1.6966
 1469TIP3   OH2 4412   2.797   5.211   3.463  0.2758 -0.0405  0.0805
 1469TIP3    H1 4413   2.814   5.202   3.369 -0.0434  0.5411 -0.0375
 1469TIP3    H2 4414   2.811   5.123   3.498  1.4374 -0.0392 -0.3350
 1470TIP3   OH2 4415   3.670   5.790   1.514  0.2218 -0.4502 -0.3519
 1470TIP3    H1 4416   3.621   5.767   1.436 -1.9767  0.7619  0.5915
 1470TIP3    H2 4417   3.685   5.884   1.507  3.1976 -0.8439 -0.9514
 1471TIP3   OH2 4418   5.592   3.677   1.097  0.4131 -0.0805  0.3217
 1471TIP3    H1 4419   5.614   3.738   1.167  0.0798 -0.6487  0.9415
 1471TIP3    H2 4420   5.559   3.732   1.026  3.4159  0.7885 -0.5566
 1472TIP3   OH2 4421   3.622   1.967   4.292 -0.3816  0.1615 -0.1132
 1472TIP3    H1 4422   3.682   1.984   4.365  0.5792  2.4387 -1.3010
 1472TIP3    H2 4423   3.674   1.986   4.214 -0.8364 -3.8010 -1.6094
 1473TIP3   OH2 4424   4.664   4.370   4.970  0.2359 -0.5632 -0.4819
 1473TIP3    H1 4425   4.689   4.412   4.887  1.6025 -1.3856 -0.5221
 1473TIP3    H2 4426   4.599   4.305   4.945  0.8500 -1.0060 -0.9768
 1474TIP3   OH2 4427   2.190   1.763   3.425  0.1883 -0.2579  0.0106
 1474TIP3    H1 4428   2.195   1.848   3.469 -0.5460 -0.0881 -0.2261
 1474TIP3    H2 4429   2.132   1.711   3.480  2.4084 -1.4008  1.4220
 1475TIP3   OH2 4430   0.150   1.197   3.396 -0.3970  0.1098  0.0313
 1475TIP3    H1 4431   0.243   1.184   3.374 -0.5875  0.9928 -1.4249
 1475TIP3    H2 4432   0.103   1.164   3.320 -1.2350  0.7800  0.2491
 1476TIP3   OH2 4433   4.156   4.966   0.858  0.4860  0.2861 -0.0494
 1476TIP3    H1 4434   4.219   4.896   0.876 -1.4382 -1.1036  1.7936
 1476TIP3    H2 4435   4.210   5.045   0.849  2.5161 -0.8727  1.1228
 1477TIP3   OH2 4436   1.144   2.645   3.048 -0.0946  0.0868  0.1379
 1477TIP3    H1 4437   1.097   2.722   3.080  0.3108 -0.0803  1.1680
 1477TIP3    H2 4438   1.116   2.636   2.957  0.5567  2.0014 -0.3064
 1478TIP3   OH2 4439   0.361   2.176   5.109  0.6820  0.0106  0.0392
 1478TIP3    H1 4440   0.362   2.225   5.191  0.2935 -0.8891  0.5952
 1478TIP3    H2 4441   0.438   2.120   5.113  0.1086 -0.7901  0.2800
 1479TIP3   OH2 4442   2.513   5.325   2.405 -0.1642  0.2949 -0.7757
 1479TIP3    H1 4443   2.466   5.343   2.324  0.9709  2.0596 -1.1002
 1479TIP3    H2 4444   2.500   5.403   2.458  3.5876  1.6059 -1.5141
 1480TIP3   OH2 4445   5.133   3.385   3.693 -0.2320  0.0031 -0.6659
 1480TIP3    H1 4446   5.090   3.313   3.739  2.3460 -1.6415 -0.6585
 1480TIP3    H2 4447   5.084   3.393   3.611 -0.2933 -2.1676 -0.9074
 1481TIP3   OH2 4448   0.181   5.981   3.342  0.0203  0.2835  0.3578
 1481TIP3    H1 4449   0.155   5.898   3.303  2.3218 -0.0426 -0.6526
 1481TIP3    H2 4450   0.126   5.989   3.420 -1.3133 -1.4182 -0.3411
 1482TIP3   OH2 4451   2.498   4.199   1.562  0.4610 -0.2270  1.1666
 1482TIP3    H1 4452   2.442   4.264   1.603  0.3062  1.3190 -1.2603
 1482TIP3    H2 4453   2.583   4.209   1.605  0.2511  1.1135  1.3089
 1483TIP3   OH2 4454   3.410   0.241   0.143  0.4035  0.1480  0.3718
 1483TIP3    H1 4455   3.465   0.174   0.182 -1.1574 -1.8865 -0.7270
 1483TIP3    H2 4456   3.470   0.294   0.090  2.0153  1.0382  2.9088
 1484TIP3   OH2 4457   4.887   5.673   0.348 -0.0697  0.1235  0.1808
 1484TIP3    H1 4458   4.960   5.611   0.354 -0.0152  0.2512  0.9502
 1484TIP3    H2 4459   4.836   5.658   0.428 -0.6198  0.3691 -0.1188
 1485TIP3   OH2 4460   4.380   5.081   4.423 -0.6512 -0.1808  0.2975
 1485TIP3    H1 4461   4.405   5.062   4.333 -0.5391 -1.1864  0.5225
 1485TIP3    H2 4462   4.358   5.174   4.423  0.9133  0.2287 -0.4038
 1486TIP3   OH2 4463   3.827   2.069   1.382 -0.2518  0.3095  0.2757
 1486TIP3    H1 4464   3.749   2.017   1.363  1.2768 -1.8440 -0.4962
 1486TIP3    H2 4465   3.838   2.125   1.305 -0.7828  0.2855  0.1817
 1487TIP3   OH2 4466   2.099   1.089   0.398  0.2434 -0.1858  0.3754
 1487TIP3    H1 4467   2.093   0.995   0.414  0.6654 -0.2000  0.4568
 1487TIP3    H2 4468   2.193   1.106   0.388  0.2554  0.3767  1.3114
 1488TIP3   OH2 4469   1.000   0.951   4.340  0.0937 -0.0212  1.0251
 1488TIP3    H1 4470   0.968   0.957   4.430  1.3674  3.5129  1.4111
 1488TIP3    H2 4471   1.089   0.917   4.348  0.3379  0.6384  1.1683
 1489TIP3   OH2 4472   2.439   0.377   0.396 -0.4120 -0.3975  0.1425
 1489TIP3    H1 4473   2.461   0.323   0.320 -0.1943  0.3620 -0.3510
 1489TIP3    H2 4474   2.460   0.322   0.472  0.0576 -0.9038 -0.3401
 1490TIP3   OH2 4475   0.282   2.534   2.687  0.0273  0.0017 -0.6729
 1490TIP3    H1 4476   0.296   2.442   2.709 -0.8381  0.2815  1.2206
 1490TIP3    H2 4477   0.229   2.531   2.607  0.3173 -1.1362 -0.8451
 1491TIP3   OH2 4478   6.086   0.561   0.549 -0.0977  0.4512  0.5707
 1491TIP3    H1 4479   6.152   0.492   0.549 -0.4433  0.1082  1.3848
 1491TIP3    H2 4480   6.023   0.533   0.483 -0.2085  0.0069  0.8585
 1492TIP3   OH2 4481   3.618   3.423   1.366  0.2919 -0.5250 -0.5108
 1492TIP3    H1 4482   3.627   3.396   1.457  0.7386 -0.3551 -0.5021
 1492TIP3    H2 4483   3.644   3.347   1.315  3.5963  0.4470 -0.4961
 1493TIP3   OH2 4484   2.427   0.195   1.650  0.6350 -0.2352 -0.1190
 1493TIP3    H1 4485   2.432   0.106   1.684  0.3963 -0.8399 -1.5733
 1493TIP3    H2 4486   2.333   0.210   1.637  0.6395  0.4111  0.5526
 1494TIP3   OH2 4487   6.094   2.582   1.586  0.1260 -0.1044 -0.1175
 1494TIP3    H1 4488   6.042   2.564   1.664  0.0602 -2.4927 -0.6447
 1494TIP3    H2 4489   6.128   2.670   1.600 -4.2138  1.8191  0.1860
 1495TIP3   OH2 4490   0.384   5.501   2.588  0.2263  0.1796 -0.0692
 1495TIP3    H1 4491   0.422   5.457   2.511  0.3696 -0.4253  0.3348
 1495TIP3    H2 4492   0.395   5.437   2.659 -0.5162  0.4590  0.3047
 1496TIP3   OH2 4493   0.666   0.103   1.040  0.2208 -0.2275  0.1909
 1496TIP3    H1 4494   0.616   0.115   0.959  0.8217 -0.5477 -0.2389
 1496TIP3    H2 4495   0.742   0.159   1.030 -0.8230  1.5509  1.5618
 1497TIP3   OH2 4496   4.741   0.794   0.374 -0.1905 -0.4756  0.6031
 1497TIP3    H1 4497   4.666   0.777   0.432 -1.9559  1.5411 -0.9223
 1497TIP3    H2 4498   4.706   0.786   0.286  0.9656  1.9793 -0.1723
 1498TIP3   OH2 4499   5.570   3.642   3.247 -0.1423 -0.2486  0.3965
 1498TIP3    H1 4500   5.557   3.583   3.172  0.0320  0.2870 -0.0657
 1498TIP3    H2 4501   5.653   3.615   3.286  0.1125 -0.0895 -0.0271
 1499TIP3   OH2 4502   4.895   1.054   1.927  0.1006  0.0240  0.1032
 1499TIP3    H1 4503   4.918   1.014   2.011  0.5221 -1.0286 -0.4979
 1499TIP3    H2 4504   4.916   1.147   1.938  1.6045 -0.3597  0.6420
 1500TIP3   OH2 4505   4.375   3.509   3.861  0.7327  0.0955 -0.4570
 1500TIP3    H1 4506   4.408   3.428   3.898 -0.1149  0.2869  0.7938
 1500TIP3    H2 4507   4.353   3.487   3.770 -1.0018 -1.5478  0.2973
 1501TIP3   OH2 4508   0.583   3.572   1.350 -0.6969 -0.1734 -0.1000
 1501TIP3    H1 4509   0.523   3.517   1.299 -1.2782 -0.1831  0.5653
 1501TIP3    H2 4510   0.612   3.515   1.422  0.6082 -0.3641 -0.7488
 1502TIP3   OH2 4511   4.961   3.478   2.458  0.0708 -0.5040 -0.4143
 1502TIP3    H1 4512   4.909   3.558   2.456  1.2691  0.3915  1.6115
 1502TIP3    H2 4513   5.004   3.479   2.544  0.7230 -2.9386 -0.6460
 1503TIP3   OH2 4514   3.573   0.187   3.520  0.1212 -0.4253 -0.0883
 1503TIP3    H1 4515   3.602   0.150   3.436 -0.0470 -2.1172  0.5595
 1503TIP3    H2 4516   3.636   0.153   3.583 -0.4866 -0.1888  0.6484
 1504TIP3   OH2 4517   0.648   2.111   0.336  0.5147  0.4060 -0.3390
 1504TIP3    H1 4518   0.568   2.125   0.285  0.6031 -1.9989 -1.2611
 1504TIP3    H2 4519   0.631   2.154   0.420 -2.2637 -1.0304 -0.0531
 1505TIP3   OH2 4520   4.121   5.670   5.167 -0.0993 -0.8022 -0.2910
 1505TIP3    H1 4521   4.130   5.580   5.136 -0.8474 -0.6484 -0.9948
 1505TIP3    H2 4522   4.028   5.680   5.187  0.1383 -0.4652  0.6893
 1506TIP3   OH2 4523   4.741   0.375   4.999  0.0154 -0.1177 -0.0841
 1506TIP3    H1 4524   4.741   0.455   4.946 -0.3978 -0.5417 -0.7276
 1506TIP3    H2 4525   4.656   0.375   5.043  0.4277  0.3273  0.7445
 1507TIP3   OH2 4526   3.590   4.652   4.494 -0.0102 -0.4750  0.2998
 1507TIP3    H1 4527   3.504   4.640   4.453  0.4329  1.2191 -1.2609
 1507TIP3    H2 4528   3.575   4.714   4.565  0.0268  0.5184 -0.5322
 1508TIP3   OH2 4529   4.410   4.133   1.165 -0.1068  0.1464 -0.1173
 1508TIP3    H1 4530   4.496   4.172   1.154  0.2085 -0.1927  1.0343
 1508TIP3    H2 4531   4.385   4.154   1.255 -0.1750 -1.7836  0.3596
 1509TIP3   OH2 4532   0.990   3.846   4.337 -0.0045  0.3259  0.4117
 1509TIP3    H1 4533   0.989   3.828   4.243 -2.3458 -3.4638  0.9450
 1509TIP3    H2 4534   1.074   3.810   4.367 -0.2530 -0.6228  0.0205
 1510TIP3   OH2 4535   4.688   4.310   2.362  0.2446 -0.1850  0.3459
 1510TIP3    H1 4536   4.615   4.336   2.418  0.6490 -0.6658  1.1130
 1510TIP3    H2 4537   4.713   4.223   2.394  2.0580  0.5481  1.0619
 1511TIP3   OH2 4538   1.923   5.810   3.128  0.0640  0.2773 -0.5706
 1511TIP3    H1 4539   1.954   5.849   3.046 -1.2448  2.2340 -0.1981
 1511TIP3    H2 4540   2.002   5.777   3.170  0.6670 -2.0016 -3.1419
 1512TIP3   OH2 4541   5.756   3.025   4.085 -0.6036 -0.1517  0.4208
 1512TIP3    H1 4542   5.740   3.084   4.011 -1.5431  0.8381  1.3765
 1512TIP3    H2 4543   5.777   2.941   4.044  0.8464  0.8268 -0.9863
 1513TIP3   OH2 4544   2.014   4.288   0.150 -0.4306 -0.1617  0.2192
 1513TIP3    H1 4545   1.982   4.290   0.241 -0.9063 -0.0091  0.0498
 1513TIP3    H2 4546   1.980   4.206   0.115  0.6937 -0.7852  0.5069
 1514TIP3   OH2 4547   0.132   0.356   3.793  0.6166  0.3308  0.0022
 1514TIP3    H1 4548   0.215   0.310   3.784  0.9805  1.0484 -0.4498
 1514TIP3    H2 4549   0.091   0.349   3.707  0.7660  1.0025 -0.1310
 1515TIP3   OH2 4550   1.784   4.154   3.519 -0.0168 -0.6213  0.7522
 1515TIP3    H1 4551   1.698   4.177   3.553 -0.6685 -1.2346 -0.4269
 1515TIP3    H2 4552   1.808   4.228   3.463  0.5162 -0.1692  1.5539
 1516TIP3   OH2 4553   4.242   0.366   2.394  0.5499 -0.2785 -0.0828
 1516TIP3    H1 4554   4.293   0.322   2.462  0.6091  1.5388  1.1397
 1516TIP3    H2 4555   4.168   0.307   2.378 -0.6188  0.0816  3.1209
 1517TIP3   OH2 4556   1.836   0.471   3.616 -0.1557  0.2104  0.4314
 1517TIP3    H1 4557   1.745   0.489   3.639  0.4796  1.3981  2.2822
 1517TIP3    H2 4558   1.875   0.558   3.604  1.1223 -0.1937  1.4000
 1518TIP3   OH2 4559   2.802   2.465   1.734 -0.4541  0.2167  0.2836
 1518TIP3    H1 4560   2.827   2.478   1.643  1.7672 -3.1479  0.2601
 1518TIP3    H2 4561   2.740   2.392   1.732  1.8273 -1.8734  1.5827
 1519TIP3   OH2 4562   0.719   3.914   2.079  0.3247 -0.1276  0.0346
 1519TIP3    H1 4563   0.812   3.921   2.102 -0.0913  0.9406  1.5594
 1519TIP3    H2 4564   0.714   3.838   2.021  2.2300  0.1456 -0.5478
 1520TIP3   OH2 4565   0.479   3.691   3.841  0.0589  0.0594  0.1075
 1520TIP3    H1 4566   0.384   3.689   3.848 -0.0839  0.8142 -1.3499
 1520TIP3    H2 4567   0.503   3.602   3.814 -0.5273  0.5731 -2.3219
 1521TIP3   OH2 4568   3.007   1.957   1.493 -0.7439 -0.4267  0.4562
 1521TIP3    H1 4569   3.036   1.866   1.490 -1.0947 -0.5317 -1.8518
 1521TIP3    H2 4570   2.911   1.952   1.487 -0.8358  0.0876  1.3236
 1522TIP3   OH2 4571   0.050   3.607   4.448 -0.0239  0.2954 -0.1509
 1522TIP3    H1 4572   0.052   3.635   4.540 -0.5389 -0.1596  0.0062
 1522TIP3    H2 4573   0.013   3.519   4.451 -0.1065  0.3043 -0.8074
 1523TIP3   OH2 4574   0.998   2.261   1.087 -0.3830 -0.1418  0.5782
 1523TIP3    H1 4575   1.018   2.187   1.030 -2.2858  0.9645 -1.6865
 1523TIP3    H2 4576   1.077   2.315   1.086  0.5543 -1.4425  1.2260
 1524TIP3   OH2 4577   2.934   4.649   3.611 -0.1731  0.4831 -0.9253
 1524TIP3    H1 4578   2.996   4.694   3.553 -0.3863  0.6520 -1.0226
 1524TIP3    H2 4579   2.942   4.557   3.588  0.8449  0.3715 -0.1830
 1525TIP3   OH2 4580   3.498   2.746   3.996 -0.3246  0.7017  0.0885
 1525TIP3    H1 4581   3.454   2.752   4.081  1.4638  0.3151  1.1000
 1525TIP3    H2 4582   3.567   2.812   4.000 -1.2633  1.8691 -1.7733
 1526TIP3   OH2 4583   5.165   4.753   5.125 -0.0695 -0.0995 -0.2620
 1526TIP3    H1 4584   5.204   4.676   5.166 -1.2260 -0.3361  0.4169
 1526TIP3    H2 4585   5.097   4.781   5.185  1.9071  2.9791  0.7444
 1527TIP3   OH2 4586   2.181   0.468   0.229 -0.6037 -0.2943  0.2226
 1527TIP3    H1 4587   2.263   0.466   0.279 -0.2033 -1.7087 -0.4368
 1527TIP3    H2 4588   2.115   0.492   0.294  0.0853 -0.8164  1.1530
 1528TIP3   OH2 4589   4.628   1.226   4.943  0.6131  0.4438  0.0141
 1528TIP3    H1 4590   4.575   1.147   4.931  0.2363  0.7955 -0.6946
 1528TIP3    H2 4591   4.650   1.254   4.855  0.3620  1.3883  0.2431
 1529TIP3   OH2 4592   3.771   1.771   1.570 -0.2743 -0.4392  0.0190
 1529TIP3    H1 4593   3.846   1.827   1.593  0.7321 -1.0664 -1.5176
 1529TIP3    H2 4594   3.786   1.690   1.618  0.0811 -0.5788 -0.3161
 1530TIP3   OH2 4595   0.790   1.304   4.268 -0.1681 -0.2713 -0.2562
 1530TIP3    H1 4596   0.831   1.291   4.183  3.3885  0.6927  1.1292
 1530TIP3    H2 4597   0.777   1.399   4.274  1.1769 -0.1196  0.8297
 1531TIP3   OH2 4598   0.202   2.998   1.302  0.6465  0.2012 -0.0034
 1531TIP3    H1 4599   0.253   2.996   1.221  1.4684  1.4892  0.4422
 1531TIP3    H2 4600   0.231   2.921   1.351 -0.6638 -1.2164 -1.3661
 1532TIP3   OH2 4601   4.568   3.930   0.781 -0.1799  0.3070 -0.1255
 1532TIP3    H1 4602   4.513   3.959   0.708 -0.0808 -0.4106 -0.4969
 1532TIP3    H2 4603   4.512   3.873   0.833  0.2216 -0.4884 -0.5480
 1533TIP3   OH2 4604   4.738   2.399   4.752  0.5392  0.4638 -0.8419
 1533TIP3    H1 4605   4.747   2.472   4.812  2.0239 -0.3930  0.0363
 1533TIP3    H2 4606   4.821   2.352   4.758 -1.2316 -2.8265  0.6484
 1534TIP3   OH2 4607   2.523   1.525   2.310 -0.1618  0.3077 -0.6266
 1534TIP3    H1 4608   2.586   1.547   2.241  0.7058  0.4761  0.1902
 1534TIP3    H2 4609   2.517   1.605   2.363 -1.1760  0.3336 -0.7658
 1535TIP3   OH2 4610   2.994   3.419   1.496  0.0431  0.4873  0.1000
 1535TIP3    H1 4611   2.909   3.432   1.454 -0.1122  1.6418  0.7311
 1535TIP3    H2 4612   2.984   3.457   1.583  1.2436  0.7838  0.1315
 1536TIP3   OH2 4613   0.892   0.901   5.040 -0.1087 -0.2923  0.3572
 1536TIP3    H1 4614   0.946   0.976   5.015  0.1807 -0.5222  0.2908
 1536TIP3    H2 4615   0.856   0.926   5.126  1.2659 -0.7349  1.0862
 1537TIP3   OH2 4616   0.792   4.028   4.294  0.6879 -0.1649  0.1248
 1537TIP3    H1 4617   0.868   3.971   4.299 -0.9797 -2.3996  1.5484
 1537TIP3    H2 4618   0.717   3.971   4.311 -1.0774  2.4687  2.1392
 1538TIP3   OH2 4619   2.894   4.493   1.932  0.1260 -0.1898  0.8661
 1538TIP3    H1 4620   2.832   4.566   1.933  1.5320  1.0354  0.8953
 1538TIP3    H2 4621   2.920   4.485   1.840 -1.3401 -1.8758  0.5201
 1539TIP3   OH2 4622   1.243   5.407   3.296  0.3081  0.1837  0.5106
 1539TIP3    H1 4623   1.303   5.347   3.341  1.2977  1.0704  0.4124
 1539TIP3    H2 4624   1.240   5.375   3.206  0.0448 -0.2939  0.6832
 1540TIP3   OH2 4625   5.511   0.391   1.033 -0.3082  0.5692 -0.7441
 1540TIP3    H1 4626   5.555   0.463   0.987  1.1324 -1.1309 -2.1611
 1540TIP3    H2 4627   5.542   0.312   0.989 -1.1267 -1.0019  1.3360
 1541TIP3   OH2 4628   5.351   3.004   4.457  0.5236  0.3204 -0.2517
 1541TIP3    H1 4629   5.267   3.048   4.445  0.0450 -0.8075 -1.1851
 1541TIP3    H2 4630   5.384   3.038   4.540 -1.2049  0.1958  0.5280
 1542TIP3   OH2 4631   4.876   3.776   3.861  0.3597  0.2361  0.1353
 1542TIP3    H1 4632   4.811   3.712   3.890  0.1480  0.6353  0.5523
 1542TIP3    H2 4633   4.825   3.844   3.818  0.7712 -1.0905 -2.6670
 1543TIP3   OH2 4634   3.983   4.628   0.074 -0.2934 -0.4656  0.1446
 1543TIP3    H1 4635   3.949   4.630  -0.016  0.2140 -2.6202 -0.1522
 1543TIP3    H2 4636   3.946   4.706   0.115  0.6603  1.4370 -2.3360
 1544TIP3   OH2 4637   3.091   1.148   3.250  0.4374  0.2607 -0.7788
 1544TIP3    H1 4638   3.003   1.162   3.285  0.5804 -0.5552 -0.0586
 1544TIP3    H2 4639   3.104   1.220   3.189  0.7077  2.6464  1.8648
 1545TIP3   OH2 4640   5.853   0.422   3.974  0.3550  0.1885  0.3619
 1545TIP3    H1 4641   5.920   0.376   3.924  0.0384  0.3374 -0.2155
 1545TIP3    H2 4642   5.845   0.372   4.055  0.1683 -0.6567 -0.1615
 1546TIP3   OH2 4643   0.174   3.242   5.028 -0.0108  0.1377  0.2017
 1546TIP3    H1 4644   0.221   3.301   5.087  2.4844 -2.8273  1.5125
 1546TIP3    H2 4645   0.235   3.228   4.955 -1.0517  0.1055 -0.6737
 1547TIP3   OH2 4646   1.308   0.347   4.711  0.1950  0.5233  0.2579
 1547TIP3    H1 4647   1.301   0.439   4.733  0.4170  0.6075 -0.0234
 1547TIP3    H2 4648   1.382   0.315   4.763  1.0244  0.8309 -0.7027
 1548TIP3   OH2 4649   2.436   5.259   0.209 -0.0270 -0.3016 -0.0402
 1548TIP3    H1 4650   2.480   5.313   0.274  0.6006 -2.6062  1.5858
 1548TIP3    H2 4651   2.343   5.281   0.219  0.3476  1.8720 -0.8642
 1549TIP3   OH2 4652   1.566   1.683   1.961 -0.3474  0.1827  0.4550
 1549TIP3    H1 4653   1.484   1.638   1.942 -0.1470  0.2528 -0.6801
 1549TIP3    H2 4654   1.547   1.775   1.949  0.2267  0.1140 -1.2890
 1550TIP3   OH2 4655   1.349   0.004   4.892 -0.0260 -0.2062  1.0137
 1550TIP3    H1 4656   1.274  -0.055   4.881 -0.0077  0.0259 -0.5637
 1550TIP3    H2 4657   1.323   0.063   4.962 -0.8447 -0.8448  1.2688
 1551TIP3   OH2 4658   5.833   5.199   4.216 -0.3346 -0.1843 -0.6076
 1551TIP3    H1 4659   5.837   5.114   4.260  2.1030 -0.4191 -1.1153
 1551TIP3    H2 4660   5.811   5.261   4.285  2.0420 -0.7173  0.7408
 1552TIP3   OH2 4661   3.503   5.536   0.954  0.6339 -0.8418 -0.2087
 1552TIP3    H1 4662   3.525   5.454   0.996 -0.0575 -1.0154 -0.1751
 1552TIP3    H2 4663   3.470   5.511   0.868  1.4967 -0.5237 -0.6489
 1553TIP3   OH2 4664   3.286   3.284   4.574  0.2925 -0.1300  1.0565
 1553TIP3    H1 4665   3.310   3.217   4.638  0.3075 -0.2333  0.9427
 1553TIP3    H2 4666   3.369   3.313   4.536  0.2271 -0.5935  0.5572
 1554TIP3   OH2 4667   6.060   1.712   0.853 -0.3909  0.1061 -0.2128
 1554TIP3    H1 4668   6.027   1.798   0.881 -0.6964 -0.3064  0.6990
 1554TIP3    H2 4669   6.050   1.714   0.757  2.3758  2.2358 -0.5985
 1555TIP3   OH2 4670   5.568   4.934   3.140  0.4252  0.1554  0.2509
 1555TIP3    H1 4671   5.508   4.935   3.066  0.3683  0.6799  0.3006
 1555TIP3    H2 4672   5.594   4.842   3.149  1.1337  0.2155 -0.9847
 1556TIP3   OH2 4673   4.095   1.893   2.160  0.3053  0.2869 -0.0242
 1556TIP3    H1 4674   4.002   1.898   2.181  0.3390 -2.1892  1.0495
 1556TIP3    H2 4675   4.136   1.957   2.217 -0.5397 -0.1404  1.0962
 1557TIP3   OH2 4676   5.391   0.897   4.224  0.0708  0.1655 -0.1677
 1557TIP3    H1 4677   5.457   0.864   4.284 -0.5920 -1.0078 -0.0689
 1557TIP3    H2 4678   5.312   0.907   4.277  0.5696  3.4059  0.1988
 1558TIP3   OH2 4679   3.210   3.396   3.687  0.9231 -0.1940 -0.2641
 1558TIP3    H1 4680   3.204   3.458   3.614 -1.2183  0.0020 -0.0068
 1558TIP3    H2 4681   3.154   3.435   3.755  1.6774 -1.1123  0.9127
 1559TIP3   OH2 4682   4.571   1.407   1.572 -0.4022 -0.1384 -0.0308
 1559TIP3    H1 4683   4.604   1.433   1.658 -2.1459 -0.5964  0.8294
 1559TIP3    H2 4684   4.565   1.489   1.523  1.7383 -0.0115 -0.1890
 1560TIP3   OH2 4685   1.004   2.170   4.622  0.0410 -0.5539  0.6132
 1560TIP3    H1 4686   0.967   2.215   4.547  0.3586  0.8639  1.2880
 1560TIP3    H2 4687   0.928   2.134   4.669 -0.2312 -0.4633  0.2424
 1561TIP3   OH2 4688   1.292   2.728   4.579 -0.0660 -0.6642 -0.1271
 1561TIP3    H1 4689   1.355   2.770   4.638 -1.2516 -1.0414  1.4544
 1561TIP3    H2 4690   1.212   2.778   4.589 -1.1797 -2.5429  0.9376
 1562TIP3   OH2 4691   2.123   0.523   3.503 -0.4718  0.5303 -0.3020
 1562TIP3    H1 4692   2.096   0.520   3.411  1.3929  0.8657 -0.8943
 1562TIP3    H2 4693   2.189   0.454   3.512  1.0031  1.9395  0.1914
 1563TIP3   OH2 4694   1.118   3.218   5.090  0.1412  0.1194 -0.0657
 1563TIP3    H1 4695   1.081   3.302   5.116  1.0285  0.7085 -0.6255
 1563TIP3    H2 4696   1.132   3.171   5.172 -0.3394  0.5275  0.2527
 1564TIP3   OH2 4697   3.778   4.720   2.833  0.4248  0.0130  0.4120
 1564TIP3    H1 4698   3.866   4.742   2.803 -0.1093  0.0049 -1.2524
 1564TIP3    H2 4699   3.775   4.624   2.828  0.2921  0.0181  0.4033
 1565TIP3   OH2 4700   4.328   4.221   1.410  0.1421 -0.1206  0.3577
 1565TIP3    H1 4701   4.277   4.147   1.443  0.3059 -1.0703 -1.4138
 1565TIP3    H2 4702   4.381   4.248   1.485 -1.5699 -0.3068  1.6993
 1566TIP3   OH2 4703   5.225   3.609   1.719 -0.1375 -0.1615 -0.0430
 1566TIP3    H1 4704   5.246   3.698   1.690  2.3569 -1.0236 -1.1950
 1566TIP3    H2 4705   5.155   3.581   1.661  0.9016  0.1558 -1.5217
 1567TIP3   OH2 4706   4.968   4.144   2.274  0.2294  0.0649  0.2059
 1567TIP3    H1 4707   4.873   4.150   2.261  0.3694  2.1262 -0.2365
 1567TIP3    H2 4708   4.978   4.103   2.360 -1.0070 -1.7224 -0.4645
 1568TIP3   OH2 4709   0.037   4.662   1.869  0.4013  0.1530 -0.0128
 1568TIP3    H1 4710   0.126   4.686   1.844  0.2529 -0.0633 -0.7692
 1568TIP3    H2 4711   0.046   4.578   1.914  0.7500  0.8725  1.3279
 1569TIP3   OH2 4712   1.275   5.662   2.658  0.2875  0.5038  0.0493
 1569TIP3    H1 4713   1.263   5.693   2.568  2.7292 -2.2621 -1.4339
 1569TIP3    H2 4714   1.232   5.577   2.660 -1.6178  1.4142  2.2880
 1570TIP3   OH2 4715   4.246   0.452   4.407  0.1345 -0.0970 -0.7071
 1570TIP3    H1 4716   4.172   0.501   4.445  1.0805  0.1548  0.9229
 1570TIP3    H2 4717   4.249   0.371   4.458  1.8536  0.5405  0.2901
 1571TIP3   OH2 4718   2.435   4.215   0.660  0.0355  0.1415  0.0685
 1571TIP3    H1 4719   2.481   4.202   0.743 -1.0838  1.5657  0.9713
 1571TIP3    H2 4720   2.355   4.165   0.668 -0.3472  0.7443  0.1003
 1572TIP3   OH2 4721   6.347   1.679   3.637 -0.2721  0.9765 -0.2345
 1572TIP3    H1 4722   6.352   1.772   3.663 -1.0958  0.9099  0.1905
 1572TIP3    H2 4723   6.261   1.669   3.598 -0.7860  0.0813  1.0366
 1573TIP3   OH2 4724   5.928   2.798   0.486  0.1302 -0.3121 -0.1710
 1573TIP3    H1 4725   6.016   2.778   0.520 -0.1386 -1.5497 -0.1501
 1573TIP3    H2 4726   5.900   2.874   0.536  0.3630 -1.1728  1.3438
 1574TIP3   OH2 4727   1.781   2.570   3.878 -0.5071 -0.1436 -0.6414
 1574TIP3    H1 4728   1.752   2.607   3.795 -1.3610  1.2165  0.2270
 1574TIP3    H2 4729   1.769   2.476   3.868 -0.7475  0.0115 -1.9909
 1575TIP3   OH2 4730   2.933   0.733   2.062 -0.3940 -0.3302 -0.1013
 1575TIP3    H1 4731   2.994   0.726   2.136  0.5628 -0.6669 -0.8946
 1575TIP3    H2 4732   2.951   0.654   2.010 -0.3951  0.3621 -1.1641
 1576TIP3   OH2 4733   3.404   4.527   2.995  0.4148 -0.0379 -0.4516
 1576TIP3    H1 4734   3.362   4.574   2.923  1.3002 -0.0769 -1.0144
 1576TIP3    H2 4735   3.377   4.436   2.984 -0.2976  0.1231 -0.0982
 1577TIP3   OH2 4736   0.132   5.532   0.113 -0.0173 -0.0564 -0.1299
 1577TIP3    H1 4737   0.133   5.495   0.201 -0.5630 -0.9678 -0.4971
 1577TIP3    H2 4738   0.104   5.460   0.056 -1.2226  0.9355 -0.8560
 1578TIP3   OH2 4739   5.926   3.034   1.283  0.4248  0.0518  0.1637
 1578TIP3    H1 4740   5.928   2.943   1.313 -0.6276 -1.1215 -2.8582
 1578TIP3    H2 4741   6.017   3.058   1.272  0.7179 -1.1486 -0.2217
 1579TIP3   OH2 4742   5.253   2.114   0.701 -0.4484  0.0558 -0.0207
 1579TIP3    H1 4743   5.277   2.081   0.614  1.6651  0.9170  0.1713
 1579TIP3    H2 4744   5.293   2.051   0.762 -0.7469  0.2045  0.3299
 1580TIP3   OH2 4745   1.597   1.011   3.779  0.2753  0.6166  0.0428
 1580TIP3    H1 4746   1.516   1.052   3.748 -0.7448 -1.6668 -0.5136
 1580TIP3    H2 4747   1.587   1.007   3.874 -0.7664 -0.5355 -0.0896
 1581TIP3   OH2 4748   4.873   0.333   0.937  0.2674 -0.4604  0.3242
 1581TIP3    H1 4749   4.937   0.278   0.981 -0.5180 -2.2583 -0.6940
 1581TIP3    H2 4750   4.788   0.299   0.967 -0.2957 -1.5939 -2.2812
 1582TIP3   OH2 4751   3.015   3.830   3.913  0.6360 -0.0604 -0.2943
 1582TIP3    H1 4752   3.054   3.905   3.869  1.4378 -0.2945 -0.0023
 1582TIP3    H2 4753   2.923   3.854   3.926  0.8727  0.8317 -0.2621
 1583TIP3   OH2 4754   4.129   2.721   0.722 -0.2257  0.2077  0.5606
 1583TIP3    H1 4755   4.167   2.640   0.687  0.7696  0.1248  1.7976
 1583TIP3    H2 4756   4.204   2.772   0.752 -0.8198  1.7178 -0.4173
 1584TIP3   OH2 4757   2.855   1.889   0.069 -0.1908  0.4746  0.0364
 1584TIP3    H1 4758   2.854   1.914   0.162  2.6540  1.6298 -0.1337
 1584TIP3    H2 4759   2.815   1.964   0.024 -1.5831 -0.0907  0.2817
 1585TIP3   OH2 4760   0.598   0.513   0.865  0.3355 -0.1049 -0.4774
 1585TIP3    H1 4761   0.626   0.479   0.780  0.3700  0.3970 -0.6757
 1585TIP3    H2 4762   0.555   0.440   0.908  0.6407 -0.4674 -0.7802
 1586TIP3   OH2 4763   3.962   0.865   4.667  0.1715  0.2174 -0.4003
 1586TIP3    H1 4764   3.987   0.915   4.589  0.2436 -2.7420 -2.4413
 1586TIP3    H2 4765   3.867   0.874   4.672  0.1606  0.3777 -0.8451
 1587TIP3   OH2 4766   3.042   5.485   2.817  0.4005  0.9181  0.0693
 1587TIP3    H1 4767   3.042   5.569   2.863  2.8830  0.9164  0.2195
 1587TIP3    H2 4768   3.125   5.444   2.842  1.8116  0.7561 -4.1037
 1588TIP3   OH2 4769   0.835   0.166   2.016  0.1507  0.5212  0.3331
 1588TIP3    H1 4770   0.829   0.233   2.084  0.6188  1.3232 -0.4074
 1588TIP3    H2 4771   0.900   0.104   2.049 -0.0570  0.5831  0.8763
 1589TIP3   OH2 4772   3.116   4.797   3.448  0.1789 -0.6558  0.5134
 1589TIP3    H1 4773   3.147   4.853   3.519 -1.2021  0.4007  0.3282
 1589TIP3    H2 4774   3.195   4.773   3.400  0.7770  2.9094 -0.6691
 1590TIP3   OH2 4775   1.616   0.813   4.297  0.4431  0.1967  0.5642
 1590TIP3    H1 4776   1.542   0.868   4.325  0.6644  1.1330 -0.5894
 1590TIP3    H2 4777   1.597   0.727   4.333 -1.3982  0.3237  0.0160
 1591TIP3   OH2 4778   0.339   3.847   4.102 -0.1332  0.0155  0.2786
 1591TIP3    H1 4779   0.270   3.783   4.123  0.7324 -0.5294  1.5900
 1591TIP3    H2 4780   0.345   3.901   4.181  0.2863  0.6634 -0.1939
 1592TIP3   OH2 4781   2.756   2.754   4.960  0.3041  0.3568 -0.4202
 1592TIP3    H1 4782   2.736   2.829   4.906 -0.9516 -0.1940 -0.7470
 1592TIP3    H2 4783   2.722   2.776   5.047 -1.8599 -0.5745 -0.9727
 1593TIP3   OH2 4784   0.193   5.616   4.826  0.0191 -0.0730  0.8398
 1593TIP3    H1 4785   0.203   5.691   4.885  0.5755  0.9078 -0.4378
 1593TIP3    H2 4786   0.276   5.613   4.778 -0.5610 -0.5931 -0.1492
 1594TIP3   OH2 4787   3.858   1.137   1.002 -0.3677 -0.1455  0.2986
 1594TIP3    H1 4788   3.825   1.224   0.983 -0.1074 -0.2430 -0.6563
 1594TIP3    H2 4789   3.802   1.078   0.952  1.1695 -0.3176 -1.2948
 1595TIP3   OH2 4790   4.631   0.840   4.129  0.1587  0.1530  0.3994
 1595TIP3    H1 4791   4.691   0.864   4.199  1.1103  2.1833 -0.9866
 1595TIP3    H2 4792   4.688   0.826   4.053 -1.0257  2.4766 -1.0400
 1596TIP3   OH2 4793   4.289   3.199   3.335 -0.5079 -0.1067  0.3994
 1596TIP3    H1 4794   4.291   3.133   3.265  0.7159 -0.3089  0.5914
 1596TIP3    H2 4795   4.340   3.272   3.301 -0.8762  0.2633  0.6373
 1597TIP3   OH2 4796   6.106   0.463   3.021 -0.5007 -0.6468  0.6710
 1597TIP3    H1 4797   6.178   0.510   3.064  0.7059 -1.0047 -0.8625
 1597TIP3    H2 4798   6.027   0.509   3.048  0.3019 -0.1890  2.3426
 1598TIP3   OH2 4799   4.653   4.967   0.388  0.1537  0.4361  0.2652
 1598TIP3    H1 4800   4.696   4.903   0.445  2.0599  1.5857  0.2062
 1598TIP3    H2 4801   4.590   4.915   0.338  1.4275 -1.3559  0.4006
 1599TIP3   OH2 4802   0.651   3.740   3.403  0.4794  0.5467  0.2732
 1599TIP3    H1 4803   0.566   3.770   3.372 -0.0131 -1.4547 -0.4988
 1599TIP3    H2 4804   0.656   3.769   3.494 -1.0130  0.7079  0.3166
 1600TIP3   OH2 4805   4.484   3.575   0.682 -0.0305  0.0942 -0.2849
 1600TIP3    H1 4806   4.511   3.485   0.701  1.3682  0.2443 -1.3390
 1600TIP3    H2 4807   4.497   3.622   0.764 -0.4664 -0.5997  0.1850
 1601TIP3   OH2 4808   0.910   1.894   4.940  0.1099  0.3733 -0.1872
 1601TIP3    H1 4809   0.893   1.806   4.905 -0.3269  0.1483  0.5524
 1601TIP3    H2 4810   0.997   1.917   4.907  0.4957 -0.5937  0.1115
 1602TIP3   OH2 4811   1.967   1.532   3.266  0.0650 -0.6637  0.3891
 1602TIP3    H1 4812   1.951   1.571   3.352  2.1165  2.2709 -0.4272
 1602TIP3    H2 4813   2.050   1.486   3.275  1.0166  0.8273 -0.2655
 1603TIP3   OH2 4814   2.761   0.357   0.475  0.1264 -0.1016  0.1603
 1603TIP3    H1 4815   2.751   0.305   0.396 -0.6171  1.4158 -0.7865
 1603TIP3    H2 4816   2.850   0.337   0.506  1.4951  1.2531 -2.5484
 1604TIP3   OH2 4817   0.284   5.334   0.808 -0.2402  0.4444 -0.0951
 1604TIP3    H1 4818   0.342   5.295   0.873 -2.8001 -2.6266  0.6070
 1604TIP3    H2 4819   0.322   5.308   0.723  0.8236  0.8359  0.2421
 1605TIP3   OH2 4820   2.738   5.789   1.639  0.4011 -0.0258  0.3647
 1605TIP3    H1 4821   2.724   5.883   1.650  0.4267  0.0744 -0.3917
 1605TIP3    H2 4822   2.689   5.767   1.560  1.2287 -0.4463 -0.0416
 1606TIP3   OH2 4823   4.339   0.908   4.367 -0.3722  0.7783 -0.6285
 1606TIP3    H1 4824   4.250   0.934   4.391 -0.6309 -0.8436  0.3233
 1606TIP3    H2 4825   4.337   0.900   4.272 -1.2556  0.7415 -0.6156
 1607TIP3   OH2 4826   0.928   1.786   2.021 -0.3753 -0.0938 -0.4657
 1607TIP3    H1 4827   0.960   1.752   1.938 -0.1170  1.0465 -0.8522
 1607TIP3    H2 4828   0.954   1.878   2.021 -0.6936  0.0154  0.7180
 1608TIP3   OH2 4829   5.379   0.926   1.167  0.2158 -0.2147  0.7902
 1608TIP3    H1 4830   5.321   0.971   1.228 -0.9184 -0.4634 -0.0704
 1608TIP3    H2 4831   5.450   0.988   1.151 -1.4418  1.4543 -0.5714
 1609TIP3   OH2 4832   2.293   2.013   4.605  0.1054  0.2257  0.3448
 1609TIP3    H1 4833   2.290   2.019   4.701  2.6909  0.5358  0.4715
 1609TIP3    H2 4834   2.312   2.103   4.577  0.6695 -0.1086 -0.3547
 1610TIP3   OH2 4835   3.370   4.185   1.342 -0.3824 -0.5648  0.2294
 1610TIP3    H1 4836   3.430   4.138   1.284  0.0590 -0.3683  0.5219
 1610TIP3    H2 4837   3.293   4.203   1.287  0.5275  0.7052 -0.6784
 1611TIP3   OH2 4838   1.317   0.998   4.105  0.0317  0.1260  0.2464
 1611TIP3    H1 4839   1.319   0.955   4.190 -0.7249  1.0926  0.7865
 1611TIP3    H2 4840   1.371   1.077   4.117 -1.7132  1.3566  0.5153
 1612TIP3   OH2 4841   1.083   4.456   1.856  0.2410 -0.2939  0.0567
 1612TIP3    H1 4842   1.092   4.415   1.770  1.3393 -0.3435  0.1828
 1612TIP3    H2 4843   1.171   4.453   1.893 -0.0414  0.5372  0.8207
 1613TIP3   OH2 4844   4.878   3.826   1.652 -0.6118  0.0955 -0.1426
 1613TIP3    H1 4845   4.952   3.794   1.600  0.0801  1.4266 -0.0153
 1613TIP3    H2 4846   4.914   3.837   1.740 -1.6967 -1.8539  0.6209
 1614TIP3   OH2 4847   1.406   5.535   4.122 -0.1243  0.3267  0.6654
 1614TIP3    H1 4848   1.419   5.629   4.109 -0.4637  0.3055  0.1179
 1614TIP3    H2 4849   1.399   5.524   4.217 -1.0299  0.9911  0.6950
 1615TIP3   OH2 4850   1.107   5.259   2.157  0.3998 -0.0852 -0.3299
 1615TIP3    H1 4851   1.180   5.313   2.186  0.0661  0.6058 -0.7484
 1615TIP3    H2 4852   1.148   5.185   2.113  0.8900 -0.6927  1.0696
 1616TIP3   OH2 4853   2.010   2.661   1.769 -0.8984  0.7533 -0.5513
 1616TIP3    H1 4854   1.927   2.662   1.721 -0.3660  1.3807 -1.5099
 1616TIP3    H2 4855   2.071   2.618   1.709 -0.6675 -0.2803  0.4060
 1617TIP3   OH2 4856   6.302   4.225   1.245  0.0794 -0.3147  0.0447
 1617TIP3    H1 4857   6.262   4.312   1.238 -0.7121 -0.7848 -1.9495
 1617TIP3    H2 4858   6.247   4.179   1.309 -0.9108 -0.0574 -0.5974
 1618TIP3   OH2 4859   0.342   1.495   1.318  0.2932 -0.5379 -0.2673
 1618TIP3    H1 4860   0.375   1.537   1.238  1.5715  0.4583  0.7515
 1618TIP3    H2 4861   0.322   1.405   1.290 -0.2812  0.0556 -1.9376
 1619TIP3   OH2 4862   4.546   5.737   2.331 -0.2710  0.4377 -0.2837
 1619TIP3    H1 4863   4.549   5.718   2.237 -1.6835  1.8119 -0.6594
 1619TIP3    H2 4864   4.480   5.677   2.366 -0.0127  0.1777 -0.2448
 1620TIP3   OH2 4865   4.005   3.715   2.148 -1.0514  0.0693  0.0481
 1620TIP3    H1 4866   3.999   3.808   2.127 -0.9474  0.2942  0.9854
 1620TIP3    H2 4867   3.978   3.709   2.240  1.2100 -0.5062  0.7419
 1621TIP3   OH2 4868   4.447   0.633   4.373 -0.3179  0.5988  0.0059
 1621TIP3    H1 4869   4.358   0.598   4.376 -0.7318  1.6235  0.0472
 1621TIP3    H2 4870   4.436   0.727   4.389  0.5612  1.0841 -1.9035
 1622TIP3   OH2 4871   3.520   5.704   4.814  0.7214 -0.3705  0.8200
 1622TIP3    H1 4872   3.585   5.634   4.818  3.4377  1.6583 -2.4214
 1622TIP3    H2 4873   3.548   5.767   4.881  0.2940 -0.8265  1.4343
 1623TIP3   OH2 4874   1.240   4.426   1.598  0.6262 -0.3728  0.2581
 1623TIP3    H1 4875   1.311   4.452   1.540  2.4734 -1.2387  1.9908
 1623TIP3    H2 4876   1.238   4.330   1.591  1.5800 -0.5917  2.2837
 1624TIP3   OH2 4877   2.255   0.375   4.456  0.0717  0.1911 -0.0913
 1624TIP3    H1 4878   2.224   0.350   4.543  0.3135  1.3874  0.3639
 1624TIP3    H2 4879   2.343   0.340   4.450 -0.6427 -1.6081 -0.6548
 1625TIP3   OH2 4880   0.601   0.996   1.113  0.2503 -0.1409 -0.2093
 1625TIP3    H1 4881   0.531   0.931   1.102  1.2216 -1.1484 -0.7564
 1625TIP3    H2 4882   0.613   1.004   1.207  0.7446 -1.5062 -0.1309
 1626TIP3   OH2 4883   1.051   0.512   3.871  0.5600 -0.4536 -0.3393
 1626TIP3    H1 4884   1.011   0.543   3.952  1.7256 -0.9579  0.4705
 1626TIP3    H2 4885   0.978   0.476   3.821 -0.0044 -1.5832  1.1859
 1627TIP3   OH2 4886   1.323   0.360   2.328 -0.7927  0.4589  0.1603
 1627TIP3    H1 4887   1.367   0.390   2.408  0.1846  2.1399 -0.9572
 1627TIP3    H2 4888   1.387   0.303   2.285 -0.9284  0.3674  0.0789
 1628TIP3   OH2 4889   2.024   4.681   2.308  0.3617 -0.3543  0.7769
 1628TIP3    H1 4890   1.933   4.711   2.308  0.7166  0.9901 -1.4464
 1628TIP3    H2 4891   2.070   4.743   2.363  0.5672  1.5594 -1.4067
 1629TIP3   OH2 4892   3.130   2.020   4.902  0.1147 -0.3489  0.3024
 1629TIP3    H1 4893   3.095   2.019   4.813  2.4602  1.0779 -0.7296
 1629TIP3    H2 4894   3.100   2.103   4.939 -2.8304 -1.9314  1.8260
 1630TIP3   OH2 4895   5.807   1.336   3.696 -0.4375 -0.0272 -0.2501
 1630TIP3    H1 4896   5.765   1.281   3.631 -0.7162  0.1071 -0.1878
 1630TIP3    H2 4897   5.736   1.363   3.755  0.1059 -1.6867  1.2414
 1631TIP3   OH2 4898   1.185   5.142   4.933 -0.0192  0.0272 -0.1035
 1631TIP3    H1 4899   1.188   5.200   4.857  0.2680  0.5576  0.3139
 1631TIP3    H2 4900   1.203   5.055   4.896 -0.5414  0.1781 -0.7411
 1632TIP3   OH2 4901   4.774   3.748   0.588  0.3757 -0.6208 -0.5506
 1632TIP3    H1 4902   4.687   3.763   0.624  0.0952  0.4903 -1.6529
 1632TIP3    H2 4903   4.800   3.662   0.623 -0.4695 -0.2512  1.0977
 1633TIP3   OH2 4904   0.911   4.306   3.856  0.0228  0.1406  0.1722
 1633TIP3    H1 4905   0.827   4.294   3.813  0.1200  0.7705 -0.1970
 1633TIP3    H2 4906   0.891   4.303   3.950 -0.2971 -0.4580  0.0868
 1634TIP3   OH2 4907   6.057   0.892   0.832 -0.6734  0.2332  0.4558
 1634TIP3    H1 4908   6.060   0.927   0.921  0.1501  1.7286 -0.1224
 1634TIP3    H2 4909   6.142   0.915   0.795 -0.9518 -0.5099 -0.6655
 1635TIP3   OH2 4910   4.886   5.753   4.925 -0.2121  0.7360 -0.3654
 1635TIP3    H1 4911   4.922   5.838   4.901 -0.4247  0.5763 -1.3097
 1635TIP3    H2 4912   4.814   5.739   4.863  0.1068 -0.3264 -0.5225
 1636TIP3   OH2 4913   2.186   2.312   2.607 -0.2115  0.0056  0.0259
 1636TIP3    H1 4914   2.162   2.262   2.685 -0.1285 -0.5561 -0.3036
 1636TIP3    H2 4915   2.281   2.314   2.608 -0.2037 -0.1718 -0.1595
 1637TIP3   OH2 4916   4.157   4.309   3.007 -0.6867  0.8448  0.1746
 1637TIP3    H1 4917   4.186   4.241   3.068  0.7635 -0.1157 -1.4870
 1637TIP3    H2 4918   4.238   4.350   2.977 -1.3278  1.1496 -1.2333
 1638TIP3   OH2 4919   1.589   1.660   0.649  0.4162 -0.6343  0.5817
 1638TIP3    H1 4920   1.574   1.566   0.655 -0.7098 -0.6718 -1.8326
 1638TIP3    H2 4921   1.675   1.668   0.609  0.1875 -0.6416  0.0916
 1639TIP3   OH2 4922   2.622   1.951   3.863  0.2242 -0.2909 -0.1065
 1639TIP3    H1 4923   2.603   1.950   3.769 -0.3722  0.8065 -0.0216
 1639TIP3    H2 4924   2.630   1.859   3.887 -2.3588 -0.7584 -0.7099
 1640TIP3   OH2 4925   3.329   2.136   1.635  0.5142 -0.2661  0.4252
 1640TIP3    H1 4926   3.418   2.136   1.601  0.8436 -0.1323  1.2548
 1640TIP3    H2 4927   3.309   2.043   1.648 -0.2984 -0.4629 -1.7913
 1641TIP3   OH2 4928   3.681   2.968   4.026  0.1284 -0.5140 -0.0049
 1641TIP3    H1 4929   3.772   2.996   4.018  0.0589 -0.8309 -2.6874
 1641TIP3    H2 4930   3.675   2.934   4.116  2.8386 -1.1376  0.0427
 1642TIP3   OH2 4931   3.503   3.645   4.842 -0.0159  0.4665  0.5088
 1642TIP3    H1 4932   3.479   3.719   4.897  0.0696  1.0904 -0.2665
 1642TIP3    H2 4933   3.484   3.568   4.895 -2.9535  0.9145  0.3101
 1643TIP3   OH2 4934   1.424   0.084   2.905 -0.1008  0.0369 -0.2331
 1643TIP3    H1 4935   1.396   0.175   2.910  1.6336  0.5618  0.8420
 1643TIP3    H2 4936   1.412   0.050   2.994 -1.0966 -0.9264 -0.7074
 1644TIP3   OH2 4937   3.779   5.539   3.038  0.0274 -0.0976 -0.4075
 1644TIP3    H1 4938   3.748   5.590   2.963  0.4835  0.5084 -0.1942
 1644TIP3    H2 4939   3.864   5.505   3.010  0.4228  0.5322  0.0014
 1645TIP3   OH2 4940   4.010   2.758   1.376  0.1875 -0.2127 -0.8488
 1645TIP3    H1 4941   3.935   2.759   1.435  0.2584 -1.1334 -0.7291
 1645TIP3    H2 4942   4.083   2.792   1.428 -0.4687  2.3293 -1.4660
 1646TIP3   OH2 4943   6.116   3.782   1.784 -0.1382  0.4174 -0.0978
 1646TIP3    H1 4944   6.128   3.873   1.812  1.7806  0.2280 -0.1835
 1646TIP3    H2 4945   6.030   3.758   1.818  0.0884  1.7076  1.5230
 1647TIP3   OH2 4946   4.986   5.624   5.164  0.5488 -0.0670  0.0757
 1647TIP3    H1 4947   4.916   5.638   5.100  0.3626 -0.4146  0.1975
 1647TIP3    H2 4948   4.999   5.709   5.205 -0.9165 -0.3148  1.1846
 1648TIP3   OH2 4949   0.687   0.643   1.901  0.0227  0.0105  0.3290
 1648TIP3    H1 4950   0.752   0.712   1.889  0.9753 -0.8787  0.1780
 1648TIP3    H2 4951   0.631   0.674   1.972 -0.7062  1.7412 -0.9194
 1649TIP3   OH2 4952   0.610   4.138   1.943 -0.9546 -0.2798  1.0555
 1649TIP3    H1 4953   0.655   4.079   2.004  1.0457 -1.4895 -1.3756
 1649TIP3    H2 4954   0.545   4.082   1.900  0.1060 -0.4936 -0.3769
 1650TIP3   OH2 4955   3.710   4.054   1.794  0.3038 -0.7664  0.0938
 1650TIP3    H1 4956   3.631   4.107   1.808  1.6405  0.6492  3.2038
 1650TIP3    H2 4957   3.727   4.061   1.700 -2.7818 -0.5027 -0.5633
 1651TIP3   OH2 4958   1.330   1.288   3.973 -0.3811 -0.1515 -0.5682
 1651TIP3    H1 4959   1.282   1.336   4.041  0.0260  1.8879 -1.6217
 1651TIP3    H2 4960   1.416   1.272   4.011 -0.1266  1.0581 -0.6035
 1652TIP3   OH2 4961   5.172   0.681   3.792  0.2521 -0.2202  0.1212
 1652TIP3    H1 4962   5.138   0.597   3.822  0.8631 -0.4347  0.2243
 1652TIP3    H2 4963   5.265   0.679   3.815  0.6105 -0.1446 -1.2171
 1653TIP3   OH2 4964   1.598   3.818   0.173  0.1491  0.5022 -0.6332
 1653TIP3    H1 4965   1.585   3.726   0.150 -1.6464  0.0422  1.7683
 1653TIP3    H2 4966   1.691   3.824   0.194  0.1448 -1.0090 -0.0010
 1654TIP3   OH2 4967   2.078   1.200   3.837  0.1392  0.6354 -0.4916
 1654TIP3    H1 4968   2.147   1.173   3.777  0.8456 -3.3489  1.7504
 1654TIP3    H2 4969   1.998   1.195   3.786  0.9765  0.1441 -1.7996
 1655TIP3   OH2 4970   6.030   5.487   0.623  0.4534  1.1297  0.5564
 1655TIP3    H1 4971   6.103   5.488   0.560  0.5908 -0.4357  0.6452
 1655TIP3    H2 4972   6.069   5.455   0.704  0.4111  3.6827  1.6926
 1656TIP3   OH2 4973   0.569   1.013   4.632  0.2589  0.5213  0.0870
 1656TIP3    H1 4974   0.587   1.102   4.663 -2.1705  1.6046 -1.3571
 1656TIP3    H2 4975   0.595   1.014   4.540  1.5500 -0.7503  0.4040
 1657TIP3   OH2 4976   2.311   5.760   3.718 -0.0541  0.1368  0.0660
 1657TIP3    H1 4977   2.217   5.754   3.731 -0.1973  1.5667 -0.1208
 1657TIP3    H2 4978   2.345   5.674   3.744 -1.5101 -0.7668 -0.9180
 1658TIP3   OH2 4979   3.243   5.923   3.156  0.4789  0.1383  0.3192
 1658TIP3    H1 4980   3.331   5.896   3.132  0.3650  0.7280 -0.8580
 1658TIP3    H2 4981   3.198   5.842   3.180  0.9282 -0.3649 -0.4936
 1659TIP3   OH2 4982   2.202   2.039   3.089  0.8041  0.1692 -0.0675
 1659TIP3    H1 4983   2.143   1.968   3.115  0.6504  0.2104 -0.3006
 1659TIP3    H2 4984   2.156   2.119   3.114 -0.0834  0.2866 -1.8836
 1660TIP3   OH2 4985   4.406   4.599   2.918  0.0608  0.0042 -0.1411
 1660TIP3    H1 4986   4.437   4.510   2.938  0.1837  0.5900  2.6797
 1660TIP3    H2 4987   4.330   4.586   2.861  0.4006 -1.8528 -0.2377
 1661TIP3   OH2 4988   3.955   2.962   0.252  0.1524  0.0551  0.0797
 1661TIP3    H1 4989   3.933   2.911   0.330  0.3292  0.3776  0.3422
 1661TIP3    H2 4990   3.932   2.905   0.179  1.8081 -1.0629  0.3625
 1662TIP3   OH2 4991   2.207   0.623   0.742 -0.0914 -0.1470 -0.0001
 1662TIP3    H1 4992   2.117   0.650   0.759  0.1653  0.7798 -0.0608
 1662TIP3    H2 4993   2.230   0.667   0.660  0.8334  0.6976  0.6771
 1663TIP3   OH2 4994   5.376   1.481   4.251  0.5360 -0.0323  0.5361
 1663TIP3    H1 4995   5.348   1.526   4.171  1.2123 -0.0434  0.2879
 1663TIP3    H2 4996   5.369   1.388   4.229 -0.8721 -0.0710  1.0529
 1664TIP3   OH2 4997   3.675   5.255   3.818  0.3983 -0.3741  0.2488
 1664TIP3    H1 4998   3.662   5.179   3.761  0.5186  0.0474 -0.3490
 1664TIP3    H2 4999   3.659   5.222   3.906  1.2808 -1.2961  0.0758
 1665TIP3   OH2 5000   1.064   1.622   0.403  0.3207 -0.5995  0.2009
 1665TIP3    H1 5001   0.974   1.637   0.376 -0.9580 -0.7722  3.8489
 1665TIP3    H2 5002   1.101   1.709   0.415  0.2479 -0.5314 -0.0554
 1666TIP3   OH2 5003   0.431   3.862   3.242 -0.2381  0.0551  0.1151
 1666TIP3    H1 5004   0.350   3.901   3.209 -0.0997 -0.4807 -0.8944
 1666TIP3    H2 5005   0.478   3.835   3.163  0.4970 -0.4954  0.7320
 1667TIP3   OH2 5006   2.951   4.356   3.600 -0.6137 -0.0957  0.5573
 1667TIP3    H1 5007   3.004   4.362   3.521  0.2339  0.3495  1.1491
 1667TIP3    H2 5008   2.894   4.280   3.585 -3.2022  2.1504 -2.1112
 1668TIP3   OH2 5009   5.009   5.738   4.554  0.1396 -0.0318  0.6922
 1668TIP3    H1 5010   4.998   5.813   4.612 -0.1619 -0.0303  0.6341
 1668TIP3    H2 5011   5.104   5.728   4.546  0.1981 -0.3983  1.6551
 1669TIP3   OH2 5012   1.300   2.932   2.701  0.3204  0.0486 -0.5773
 1669TIP3    H1 5013   1.211   2.968   2.693 -0.2925 -0.9847  1.0607
 1669TIP3    H2 5014   1.291   2.840   2.674  0.7834 -0.1928  0.0721
 1670TIP3   OH2 5015   2.700   2.960   1.278  0.7759  0.1192  0.6036
 1670TIP3    H1 5016   2.610   2.968   1.311  0.7064  2.7710  0.0511
 1670TIP3    H2 5017   2.694   2.896   1.207 -1.2585  1.8911 -0.9742
 1671TIP3   OH2 5018   0.872   4.604   0.542 -0.2954 -0.2702  0.2552
 1671TIP3    H1 5019   0.908   4.515   0.549 -2.8230 -1.2843  1.7666
 1671TIP3    H2 5020   0.870   4.622   0.448 -1.6271 -2.7043 -0.2701
 1672TIP3   OH2 5021   2.556   0.621   2.515 -0.4559 -0.6378 -0.1755
 1672TIP3    H1 5022   2.645   0.604   2.484 -0.4028 -0.6026 -0.0426
 1672TIP3    H2 5023   2.537   0.548   2.575 -0.6135 -0.7863 -0.4034
 1673TIP3   OH2 5024   2.049   3.710   4.871  0.6959  0.0917  0.3093
 1673TIP3    H1 5025   2.101   3.755   4.937  1.5278 -0.2808 -0.0723
 1673TIP3    H2 5026   2.092   3.625   4.860 -0.2073 -0.3742  0.2417
 1674TIP3   OH2 5027   5.610   3.771   5.040 -0.2074  0.2722 -0.1369
 1674TIP3    H1 5028   5.697   3.799   5.011 -1.5291  3.7682 -1.2460
 1674TIP3    H2 5029   5.623   3.744   5.131  1.9260  1.5517  0.0186
 1675TIP3   OH2 5030   5.675   2.519   4.017 -0.0767 -0.1031  0.5885
 1675TIP3    H1 5031   5.724   2.464   4.078 -1.0312 -1.9987 -0.2920
 1675TIP3    H2 5032   5.608   2.561   4.071 -0.6192 -1.3987  0.9629
 1676TIP3   OH2 5033   0.758   0.689   0.366  0.0224 -0.1271 -0.0484
 1676TIP3    H1 5034   0.674   0.702   0.410 -0.4936  2.9349 -1.6503
 1676TIP3    H2 5035   0.763   0.595   0.351 -1.9345 -0.6902  2.2549
 1677TIP3   OH2 5036   3.550   5.553   3.285 -0.0983 -0.0396 -0.1384
 1677TIP3    H1 5037   3.624   5.500   3.258  0.7557  0.5195  1.0299
 1677TIP3    H2 5038   3.473   5.503   3.257  0.6599 -1.9681  1.0555
 1678TIP3   OH2 5039   6.327   3.723   3.506  0.4039 -0.2913 -0.4665
 1678TIP3    H1 5040   6.406   3.777   3.506 -0.3380  1.1621  3.6889
 1678TIP3    H2 5041   6.258   3.782   3.476  0.0022  0.5098  1.7977
 1679TIP3   OH2 5042   0.156   0.242   3.137 -0.9246  0.5011  0.2968
 1679TIP3    H1 5043   0.184   0.185   3.209  0.9666 -1.1838 -1.6627
 1679TIP3    H2 5044   0.060   0.238   3.140 -0.8550 -1.6483  1.1252
 1680TIP3   OH2 5045   1.813   3.973   0.375 -0.1900 -0.0807 -0.1357
 1680TIP3    H1 5046   1.867   3.906   0.334  0.3227 -1.6411  2.8071
 1680TIP3    H2 5047   1.874   4.027   0.425 -0.9836  0.1486  0.6197
 1681TIP3   OH2 5048   2.923   2.504   4.597  0.4428  0.8687 -0.2822
 1681TIP3    H1 5049   2.861   2.573   4.575 -0.4972  0.5101  1.1375
 1681TIP3    H2 5050   2.973   2.490   4.516 -0.7356  1.7595 -1.1945
 1682TIP3   OH2 5051   4.897   3.582   1.983  0.0557 -0.3596  0.2520
 1682TIP3    H1 5052   4.973   3.566   1.928 -0.0241 -0.6252  0.2191
 1682TIP3    H2 5053   4.921   3.546   2.068 -0.6050 -1.8128 -0.1540
 1683TIP3   OH2 5054   0.295   4.476   0.115 -0.3537 -0.7484  0.1132
 1683TIP3    H1 5055   0.213   4.512   0.080  0.1718 -0.7307 -1.1575
 1683TIP3    H2 5056   0.338   4.552   0.155 -0.5240 -0.5486 -0.0746
 1684TIP3   OH2 5057   4.115   1.545   0.718  0.0952 -0.5425  0.4003
 1684TIP3    H1 5058   4.027   1.554   0.755  0.4662  0.3125  1.1297
 1684TIP3    H2 5059   4.120   1.615   0.653  0.4611 -0.1547  0.8400
 1685TIP3   OH2 5060   2.538   5.540   5.133 -0.2742  0.1114  0.0739
 1685TIP3    H1 5061   2.602   5.525   5.203  0.4484  0.4520 -0.4964
 1685TIP3    H2 5062   2.462   5.487   5.157  0.1574 -0.1567  0.8596
 1686TIP3   OH2 5063   3.005   5.059   3.291 -0.3458 -0.0560  0.0894
 1686TIP3    H1 5064   3.046   5.105   3.218 -1.5976  0.3142 -0.3994
 1686TIP3    H2 5065   3.070   4.994   3.318  0.7869  0.8833 -0.2843
 1687TIP3   OH2 5066   3.777   0.120   1.357 -0.4973 -0.2996 -0.1696
 1687TIP3    H1 5067   3.873   0.124   1.357 -0.4377 -1.1920  1.0607
 1687TIP3    H2 5068   3.755   0.049   1.297 -0.3240 -0.9600  0.5391
 1688TIP3   OH2 5069   5.956   3.027   2.221  0.3451 -0.1765 -0.4114
 1688TIP3    H1 5070   5.915   3.038   2.136  0.9582  0.2459 -0.6530
 1688TIP3    H2 5071   5.885   2.997   2.278  0.1872 -1.7429 -1.3522
 1689TIP3   OH2 5072   5.335   5.860   0.791 -0.1202  0.1277 -0.0872
 1689TIP3    H1 5073   5.381   5.944   0.782 -1.7653  1.0416 -0.3544
 1689TIP3    H2 5074   5.255   5.882   0.839 -1.4838 -0.9437 -1.7740
 1690TIP3   OH2 5075   0.285   4.948   0.742  0.6699  0.0667  0.3760
 1690TIP3    H1 5076   0.234   4.945   0.662  1.7835 -0.7191 -0.3415
 1690TIP3    H2 5077   0.227   4.989   0.807 -0.1189  1.0353 -0.9053
 1691TIP3   OH2 5078   1.516   0.070   3.267 -0.3701 -0.9091 -0.1333
 1691TIP3    H1 5079   1.499   0.081   3.361  1.5692 -1.5429  0.3320
 1691TIP3    H2 5080   1.429   0.062   3.228 -1.3804  2.0708  1.2048
 1692TIP3   OH2 5081   2.268   2.975   3.054  0.2673  0.0856  0.5908
 1692TIP3    H1 5082   2.327   2.902   3.071  1.9368  1.6801  2.0324
 1692TIP3    H2 5083   2.206   2.973   3.126  1.0424  0.7525  1.2960
 1693TIP3   OH2 5084   3.575   0.147   2.888 -0.0110  0.4921 -0.3029
 1693TIP3    H1 5085   3.545   0.067   2.845  0.9360 -0.1286  0.1490
 1693TIP3    H2 5086   3.658   0.122   2.928  0.5932  1.8627 -0.6550
 1694TIP3   OH2 5087   1.257   5.693   5.079  0.5564 -0.1258  0.1741
 1694TIP3    H1 5088   1.266   5.727   4.990  1.2410  0.6269  0.5149
 1694TIP3    H2 5089   1.172   5.726   5.109 -0.3395 -1.5584 -0.6754
 1695TIP3   OH2 5090   3.502   2.920   0.976  0.3850  0.1901 -0.1554
 1695TIP3    H1 5091   3.538   2.957   1.057  3.2310 -0.7940 -0.8348
 1695TIP3    H2 5092   3.457   2.841   1.003  1.7892 -0.4312  0.4737
 1696TIP3   OH2 5093   2.048   5.069   3.192  0.0170 -0.5308 -0.3506
 1696TIP3    H1 5094   2.008   5.090   3.108 -0.4619 -1.8164 -0.4646
 1696TIP3    H2 5095   2.125   5.127   3.197 -0.1984 -0.1248 -1.4557
 1697TIP3   OH2 5096   4.472   1.810   3.112 -0.3173  0.2846 -0.0555
 1697TIP3    H1 5097   4.558   1.784   3.144 -0.9569 -0.5270  1.0397
 1697TIP3    H2 5098   4.456   1.895   3.152  0.4351  0.9889 -1.1718
 1698TIP3   OH2 5099   3.462   5.783   0.667 -0.6666 -0.0889  0.2967
 1698TIP3    H1 5100   3.532   5.799   0.731  0.3466  0.1819 -0.8366
 1698TIP3    H2 5101   3.443   5.870   0.631 -0.3330 -0.3993 -0.6537
 1699TIP3   OH2 5102   5.602   1.472   4.979 -0.0819 -0.4976 -0.3086
 1699TIP3    H1 5103   5.646   1.444   5.060  0.2780 -0.3624 -0.4544
 1699TIP3    H2 5104   5.662   1.445   4.910 -0.7722 -1.3548 -0.5834
 1700TIP3   OH2 5105   3.052   3.844   0.463 -0.3430 -0.6794  0.0161
 1700TIP3    H1 5106   3.022   3.892   0.541  1.9314 -1.1540  1.2816
 1700TIP3    H2 5107   2.997   3.765   0.461  0.1002 -1.0811  1.6791
 1701TIP3   OH2 5108   2.469   2.648   3.315 -0.2636 -0.0634 -0.2480
 1701TIP3    H1 5109   2.479   2.715   3.383 -0.8797  0.3318 -0.5393
 1701TIP3    H2 5110   2.523   2.575   3.345  0.9129  0.7890 -0.2163
 1702TIP3   OH2 5111  -0.012   0.926   3.763 -0.1901  0.0831  0.0760
 1702TIP3    H1 5112   0.010   0.945   3.854 -0.5852  1.1025 -0.0371
 1702TIP3    H2 5113   0.004   1.008   3.716 -1.7401  0.1080 -0.4487
 1703TIP3   OH2 5114   0.021   5.347   0.950 -0.3490 -0.4783 -0.1332
 1703TIP3    H1 5115   0.109   5.310   0.946 -0.8104 -1.5426 -0.8672
 1703TIP3    H2 5116   0.019   5.396   1.032  0.5169 -1.5462  0.5475
 1704TIP3   OH2 5117   1.459   3.599   0.665 -0.3767 -0.2993 -0.2280
 1704TIP3    H1 5118   1.505   3.515   0.663  0.2594  0.0086  0.7013
 1704TIP3    H2 5119   1.512   3.658   0.611  0.1292 -0.0513  0.5187
 1705TIP3   OH2 5120   0.879   5.440   2.799 -0.4273  0.0089 -0.1895
 1705TIP3    H1 5121   0.873   5.488   2.882  0.1499  1.1225 -0.7760
 1705TIP3    H2 5122   0.808   5.376   2.804  0.0988 -0.4984  1.5080
 1706TIP3   OH2 5123   5.508   1.925   2.912 -0.2484 -0.1910 -0.7346
 1706TIP3    H1 5124   5.548   2.006   2.942 -0.1429 -0.4158 -0.2707
 1706TIP3    H2 5125   5.436   1.909   2.973  1.0091 -1.5473  0.4602
 1707TIP3   OH2 5126   0.742   4.691   4.775  0.2884 -0.0271  0.4621
 1707TIP3    H1 5127   0.800   4.767   4.773  0.0276  0.2469  1.8890
 1707TIP3    H2 5128   0.663   4.724   4.819  0.0830 -1.0612  0.8861
 1708TIP3   OH2 5129   4.366   4.354   0.842  0.0492  0.9541 -0.3171
 1708TIP3    H1 5130   4.345   4.262   0.854 -0.4444  1.0434 -0.4793
 1708TIP3    H2 5131   4.440   4.354   0.782 -0.1421  0.6735 -0.5573
 1709TIP3   OH2 5132   2.982   0.356   4.670  0.1433  0.1420  0.3461
 1709TIP3    H1 5133   3.055   0.344   4.610 -0.0553 -0.5067  0.2355
 1709TIP3    H2 5134   3.015   0.417   4.736  0.1995  1.2644 -0.6883
 1710TIP3   OH2 5135   5.580   1.261   3.858 -0.2908 -0.0191 -0.0730
 1710TIP3    H1 5136   5.514   1.229   3.797  1.9608 -0.2244 -2.5835
 1710TIP3    H2 5137   5.539   1.335   3.902 -2.0077  0.1439 -1.8551
 1711TIP3   OH2 5138   1.839   2.649   5.025 -0.0417  0.6263  0.4312
 1711TIP3    H1 5139   1.775   2.603   4.971  0.3311 -1.6859  1.8491
 1711TIP3    H2 5140   1.788   2.718   5.069 -0.8023  1.0486 -1.0474
 1712TIP3   OH2 5141   1.145   0.289   1.014  1.0492  0.3865 -0.2466
 1712TIP3    H1 5142   1.173   0.362   1.070  0.6152  0.5580 -0.2528
 1712TIP3    H2 5143   1.214   0.283   0.948  1.3476  0.4611  0.0534
 1713TIP3   OH2 5144   6.039   4.427   3.650  0.3467  0.0092  0.4566
 1713TIP3    H1 5145   6.051   4.428   3.555 -0.7893  1.0329  0.3085
 1713TIP3    H2 5146   6.007   4.339   3.669 -0.5015  0.1421 -0.2706
 1714TIP3   OH2 5147   4.608   4.451   4.401  0.2288  0.0955 -0.3958
 1714TIP3    H1 5148   4.536   4.496   4.446 -1.2419 -0.8286 -1.7112
 1714TIP3    H2 5149   4.672   4.520   4.383 -0.8009  1.1551 -0.1186
 1715TIP3   OH2 5150   0.930   3.321   2.239  0.1503  0.6487  0.1449
 1715TIP3    H1 5151   0.892   3.395   2.192 -0.1973 -0.1435 -0.8758
 1715TIP3    H2 5152   0.865   3.251   2.229  2.4943 -1.3469 -3.2597
 1716TIP3   OH2 5153   1.178   1.719   2.097  0.0764 -0.0361  0.4990
 1716TIP3    H1 5154   1.087   1.747   2.092 -0.1247 -0.7131  0.1090
 1716TIP3    H2 5155   1.184   1.673   2.180  0.9071  2.7598  2.1105
 1717TIP3   OH2 5156   5.011   4.145   3.108 -0.1149  0.4730  0.6167
 1717TIP3    H1 5157   5.007   4.185   3.021 -0.1827  1.1812  0.9321
 1717TIP3    H2 5158   5.075   4.198   3.156 -0.0008  0.0258  0.9669
 1718TIP3   OH2 5159   2.843   4.384   0.919  0.3710  0.5102 -0.1104
 1718TIP3    H1 5160   2.770   4.323   0.910  1.5053 -1.8350  3.8892
 1718TIP3    H2 5161   2.921   4.332   0.898  1.2101  1.3736  0.7262
 1719TIP3   OH2 5162   4.910   1.899   4.666  0.5746  0.5466 -0.1546
 1719TIP3    H1 5163   4.840   1.964   4.668 -0.5275 -0.6060  0.2416
 1719TIP3    H2 5164   4.949   1.902   4.753 -1.7727 -1.6590  1.1034
 1720TIP3   OH2 5165   2.315   3.766   4.042 -1.0233 -0.6118  0.4793
 1720TIP3    H1 5166   2.236   3.749   4.093 -1.4273 -1.2687 -0.3415
 1720TIP3    H2 5167   2.379   3.703   4.075 -0.9518 -0.3325  0.8841
 1721TIP3   OH2 5168   0.515   4.572   4.152 -0.2529  0.3458 -0.1583
 1721TIP3    H1 5169   0.543   4.480   4.157 -3.0603 -0.7032 -1.5921
 1721TIP3    H2 5170   0.500   4.597   4.243  0.9820 -0.4459  0.2889
 1722TIP3   OH2 5171   4.531   5.319   3.486  0.2651  0.0766  0.2645
 1722TIP3    H1 5172   4.611   5.308   3.536  1.2199  1.1065 -0.9503
 1722TIP3    H2 5173   4.557   5.373   3.411 -1.0149 -1.6199 -1.5131
 1723TIP3   OH2 5174   5.782   2.732   1.080  0.5339 -0.4563 -0.0539
 1723TIP3    H1 5175   5.739   2.746   0.996 -2.8019 -1.7379  1.2383
 1723TIP3    H2 5176   5.816   2.818   1.104  0.9215  0.0937 -2.3358
 1724TIP3   OH2 5177   3.743   5.420   4.490  0.5626  0.4856 -0.7899
 1724TIP3    H1 5178   3.791   5.366   4.427  1.4510  0.5965 -0.2297
 1724TIP3    H2 5179   3.690   5.478   4.436 -0.1444 -0.6856 -1.4098
 1725TIP3   OH2 5180   1.840   4.368   2.677 -0.1576 -0.8285  0.4387
 1725TIP3    H1 5181   1.753   4.382   2.715 -0.0173 -0.0027  0.4785
 1725TIP3    H2 5182   1.855   4.274   2.685  0.1363 -0.6206  3.0520
 1726TIP3   OH2 5183   1.543   5.337   4.019  0.2585  0.1070 -0.3896
 1726TIP3    H1 5184   1.537   5.340   3.924 -0.3085  2.4871 -0.3444
 1726TIP3    H2 5185   1.491   5.412   4.049  1.9526  0.5550  1.6892
 1727TIP3   OH2 5186   3.765   5.133   4.589  0.6336  0.1954  0.4839
 1727TIP3    H1 5187   3.692   5.117   4.530 -1.4122  0.6427  2.7425
 1727TIP3    H2 5188   3.827   5.185   4.537 -1.4128  1.2578 -1.0261
 1728TIP3   OH2 5189   1.625   4.936   2.795 -0.2717  0.5805  0.1992
 1728TIP3    H1 5190   1.682   4.859   2.797  0.4317  1.0978  1.4622
 1728TIP3    H2 5191   1.551   4.909   2.742  0.9996 -0.2122 -1.2756
 1729TIP3   OH2 5192   4.122   2.317   4.692  0.4463  0.0371  0.2702
 1729TIP3    H1 5193   4.142   2.397   4.741 -1.7444 -0.3227  1.8884
 1729TIP3    H2 5194   4.168   2.247   4.739  1.1104  0.1200 -0.2394
 1730TIP3   OH2 5195   3.886   0.751   2.086 -0.3969  0.3477  0.4178
 1730TIP3    H1 5196   3.833   0.701   2.148  0.4908 -0.0548  0.8725
 1730TIP3    H2 5197   3.884   0.840   2.119  1.0927 -0.0721  1.7949
 1731TIP3   OH2 5198   4.960   1.968   2.411 -0.4176  0.3937 -0.4184
 1731TIP3    H1 5199   4.867   1.950   2.421 -0.0354 -0.6544  1.7707
 1731TIP3    H2 5200   5.003   1.914   2.478  1.5564  2.7745  0.3753
 1732TIP3   OH2 5201   0.183   4.814   1.620 -0.3805  0.2659  0.5957
 1732TIP3    H1 5202   0.224   4.729   1.603  0.7926  1.0074 -0.4134
 1732TIP3    H2 5203   0.237   4.854   1.687  0.1880  0.9653 -0.2566
 1733TIP3   OH2 5204   2.595   5.080   0.987 -0.0470 -0.0321  0.4416
 1733TIP3    H1 5205   2.574   5.099   1.078 -0.0123 -1.7536  0.8350
 1733TIP3    H2 5206   2.517   5.108   0.938 -0.3090  0.3385  1.0664
 1734TIP3   OH2 5207   2.775   2.488   3.426 -0.1945  0.4432  0.4016
 1734TIP3    H1 5208   2.790   2.580   3.447  0.0252  0.7110 -0.8257
 1734TIP3    H2 5209   2.736   2.451   3.505 -1.1957  1.8152  0.5755
 1735TIP3   OH2 5210   3.265   4.585   0.509  0.0026 -0.7843  0.2202
 1735TIP3    H1 5211   3.208   4.588   0.433  2.1106  0.3056 -1.4485
 1735TIP3    H2 5212   3.254   4.497   0.545  0.2295 -1.9750 -2.4340
 1736TIP3   OH2 5213   1.425   5.844   2.006 -0.1495 -0.3206  0.0036
 1736TIP3    H1 5214   1.423   5.819   2.098 -1.1897  1.2441  0.4502
 1736TIP3    H2 5215   1.399   5.937   2.005  1.7725  0.2761 -1.6810
 1737TIP3   OH2 5216   5.421   2.137   0.025  0.2781 -0.4188  0.0735
 1737TIP3    H1 5217   5.375   2.209   0.068  0.3741 -0.2421 -0.1117
 1737TIP3    H2 5218   5.433   2.168  -0.065 -1.7561 -1.6157 -0.6754
 1738TIP3   OH2 5219   0.133   1.120   4.210  0.3627  0.0377  0.6448
 1738TIP3    H1 5220   0.195   1.182   4.247  1.2321  0.6229 -1.5923
 1738TIP3    H2 5221   0.047   1.151   4.239  0.9450  0.8447  1.5422
 1739TIP3   OH2 5222   1.377   3.555   1.357  0.0270 -0.2522  0.4021
 1739TIP3    H1 5223   1.380   3.505   1.439 -2.3174  0.7828  1.1770
 1739TIP3    H2 5224   1.344   3.492   1.292 -1.2484 -0.2180  0.9923
 1740TIP3   OH2 5225   1.406   0.454   3.962 -0.0543  0.8648  0.0377
 1740TIP3    H1 5226   1.426   0.546   3.946  3.7127  0.4403  1.4057
 1740TIP3    H2 5227   1.388   0.449   4.056  0.7286  0.1084  0.1668
 1741TIP3   OH2 5228   4.900   5.456   0.093  0.9083 -0.9282  0.1728
 1741TIP3    H1 5229   4.810   5.440   0.119  0.1859 -0.0401 -1.6038
 1741TIP3    H2 5230   4.951   5.443   0.173 -0.7549 -1.6567  1.1595
 1742TIP3   OH2 5231   3.772   2.705   0.276 -0.4198 -0.0997  0.1155
 1742TIP3    H1 5232   3.727   2.784   0.245  1.7576  1.3117  0.3603
 1742TIP3    H2 5233   3.760   2.641   0.205  0.2834  1.4560 -1.4736
 1743TIP3   OH2 5234   5.885   4.468   2.306  0.3139  0.8451 -0.7544
 1743TIP3    H1 5235   5.810   4.526   2.321 -0.0429  0.3836 -0.7195
 1743TIP3    H2 5236   5.873   4.397   2.368  2.2517  2.1018  1.1755
 1744TIP3   OH2 5237   2.311   0.642   0.482  0.2703  0.2918  0.1564
 1744TIP3    H1 5238   2.345   0.658   0.394  0.5762  0.2342  0.2636
 1744TIP3    H2 5239   2.347   0.556   0.507  0.8273  0.6594  0.6483
 1745TIP3   OH2 5240   1.722   5.622   3.718 -0.3438 -0.3238 -0.0834
 1745TIP3    H1 5241   1.781   5.600   3.646  1.2785 -0.1743  1.1351
 1745TIP3    H2 5242   1.733   5.551   3.780 -0.1385  0.5489  0.9095
 1746TIP3   OH2 5243   0.600   4.880   1.671 -0.2870 -0.4295 -0.1998
 1746TIP3    H1 5244   0.673   4.819   1.685 -0.4304 -0.9656 -1.6518
 1746TIP3    H2 5245   0.588   4.882   1.576 -1.7202  0.1892 -0.0245
 1747TIP3   OH2 5246   5.907   4.901   3.513 -0.1737  0.1875  0.4624
 1747TIP3    H1 5247   5.980   4.892   3.574 -1.0212  0.9147  1.6036
 1747TIP3    H2 5248   5.906   4.818   3.465  0.9052 -0.1334  0.9601
 1748TIP3   OH2 5249   5.249   5.408   2.010 -0.3364  0.8340  0.0595
 1748TIP3    H1 5250   5.228   5.451   2.093 -0.2648  0.2494  0.3880
 1748TIP3    H2 5251   5.259   5.480   1.947  0.3472  1.3355  0.7176
 1749TIP3   OH2 5252   2.046   1.007   0.013  0.4657 -0.0868  0.2979
 1749TIP3    H1 5253   2.028   1.095   0.044  1.2466 -0.0357  0.6469
 1749TIP3    H2 5254   2.077   0.960   0.091  0.3260 -0.5874  0.0582
 1750TIP3   OH2 5255   0.515   1.481   0.816  0.0440  0.5174 -0.0007
 1750TIP3    H1 5256   0.583   1.538   0.851  0.4659  0.2908 -0.4347
 1750TIP3    H2 5257   0.474   1.531   0.746 -0.0911  0.5703  0.1151
 1751TIP3   OH2 5258   4.894   4.156   4.027  0.1360 -0.4261 -0.2989
 1751TIP3    H1 5259   4.853   4.178   3.943 -0.1922 -0.6489 -0.1977
 1751TIP3    H2 5260   4.970   4.213   4.032 -2.1460  2.7481  1.2242
 1752TIP3   OH2 5261   4.195   0.666   0.355  0.1173  0.5142  0.6579
 1752TIP3    H1 5262   4.216   0.590   0.301 -0.1052 -0.0371  1.3328
 1752TIP3    H2 5263   4.136   0.632   0.423 -2.1220  1.7914 -0.5486
 1753TIP3   OH2 5264   0.186   0.223   1.290 -0.0126 -0.2772  0.8670
 1753TIP3    H1 5265   0.109   0.195   1.338 -2.3364  0.8939 -1.9191
 1753TIP3    H2 5266   0.154   0.246   1.203  3.3801  0.9394 -0.2418
 1754TIP3   OH2 5267   3.991   3.850   1.864 -0.3079  0.0678  0.2042
 1754TIP3    H1 5268   3.937   3.771   1.855  2.3628 -1.9477  0.4938
 1754TIP3    H2 5269   4.070   3.830   1.812 -0.3614  3.4567 -1.4492
 1755TIP3   OH2 5270   0.642   3.853   4.506 -0.1106 -0.4461  0.0657
 1755TIP3    H1 5271   0.653   3.946   4.527  0.0661  0.1513 -2.3992
 1755TIP3    H2 5272   0.712   3.809   4.553 -0.5429  0.5471  1.7418
 1756TIP3   OH2 5273   2.689   0.581   4.073 -0.3906  0.1339 -0.2546
 1756TIP3    H1 5274   2.699   0.499   4.122  2.5651  0.7275  0.3119
 1756TIP3    H2 5275   2.713   0.558   3.983 -0.4591  0.2161 -0.2944
 1757TIP3   OH2 5276   5.356   0.390   1.950 -0.0035  0.1993  0.1874
 1757TIP3    H1 5277   5.290   0.330   1.914  0.6439 -0.2588 -0.2494
 1757TIP3    H2 5278   5.432   0.379   1.894  0.4999  0.6203  0.7730
 1758TIP3   OH2 5279   3.710   1.180   1.768 -0.3022 -0.1636 -0.4824
 1758TIP3    H1 5280   3.796   1.182   1.811 -0.7685  1.5251  0.4733
 1758TIP3    H2 5281   3.684   1.088   1.771  0.5839 -0.3996  1.0670
 1759TIP3   OH2 5282   0.847   3.816   0.705 -0.1351 -0.1855  0.5694
 1759TIP3    H1 5283   0.914   3.760   0.746 -0.3542 -1.0214 -0.1769
 1759TIP3    H2 5284   0.854   3.797   0.612 -1.7754 -0.6966  0.5199
 1760TIP3   OH2 5285   6.225   2.856   1.570 -0.4278  0.0835  0.3188
 1760TIP3    H1 5286   6.254   2.947   1.563 -1.4883  0.4601  0.6135
 1760TIP3    H2 5287   6.305   2.804   1.561  0.5007  1.1090  2.2240
 1761TIP3   OH2 5288   1.917   2.019   0.195 -0.5277 -0.0204 -0.3314
 1761TIP3    H1 5289   1.928   2.040   0.102 -0.5378 -2.5743 -1.0044
 1761TIP3    H2 5290   1.866   1.938   0.195 -1.8402  0.7082  1.9964
 1762TIP3   OH2 5291   2.298   4.036   1.312 -0.3596 -0.0725  0.1925
 1762TIP3    H1 5292   2.335   4.006   1.229 -0.4061 -1.6180  0.6992
 1762TIP3    H2 5293   2.213   4.073   1.288  0.8956  2.3669 -0.8127
 1763TIP3   OH2 5294   3.474   4.593   1.629 -1.0954 -0.3930 -0.3485
 1763TIP3    H1 5295   3.384   4.591   1.595 -1.0422 -1.0357 -0.4673
 1763TIP3    H2 5296   3.517   4.519   1.586  0.2258  1.4040 -2.2860
 1764TIP3   OH2 5297   4.438   4.573   1.409  0.1777  0.4624 -0.2199
 1764TIP3    H1 5298   4.515   4.604   1.457 -0.6694  2.9057 -0.3249
 1764TIP3    H2 5299   4.423   4.485   1.444  0.4491  1.5682  3.0309
 1765TIP3   OH2 5300   1.494   1.061   0.011 -0.4978 -0.0219 -0.4518
 1765TIP3    H1 5301   1.529   0.973   0.026  0.3200  0.2285 -0.8454
 1765TIP3    H2 5302   1.435   1.076   0.084 -0.7536 -0.9570 -0.4542
 1766TIP3   OH2 5303   2.182   4.917   3.484 -0.1736 -0.4655  0.3696
 1766TIP3    H1 5304   2.212   4.926   3.394  0.2662  0.0844  0.5655
 1766TIP3    H2 5305   2.262   4.909   3.536 -0.3055  1.3222  0.9288
 1767TIP3   OH2 5306   3.834   5.318   4.797 -0.3299 -0.8160 -1.2181
 1767TIP3    H1 5307   3.833   5.307   4.892  1.8376 -1.6795 -1.2333
 1767TIP3    H2 5308   3.798   5.236   4.763 -0.8300 -0.6259 -1.1509
 1768TIP3   OH2 5309   1.511   5.030   4.648  0.1257 -0.1032  0.0184
 1768TIP3    H1 5310   1.562   5.047   4.569 -0.9366 -0.5023 -0.7560
 1768TIP3    H2 5311   1.446   5.100   4.650 -0.2935 -0.4956  0.1672
 1769TIP3   OH2 5312   2.159   4.362   3.040 -0.2952  0.4776 -0.3043
 1769TIP3    H1 5313   2.071   4.328   3.056 -0.8615  2.0955  0.2096
 1769TIP3    H2 5314   2.173   4.427   3.108  1.9680 -0.8350  0.6097
 1770TIP3   OH2 5315   0.641   1.769   4.201 -0.3696  0.4314  0.4781
 1770TIP3    H1 5316   0.550   1.792   4.221 -0.7521  1.1702 -1.7956
 1770TIP3    H2 5317   0.636   1.725   4.116  1.5307  1.8500 -0.4325
 1771TIP3   OH2 5318   0.885   2.242   4.370 -0.2286  0.2511  0.1303
 1771TIP3    H1 5319   0.904   2.179   4.301 -2.7674 -0.2497 -0.2135
 1771TIP3    H2 5320   0.916   2.326   4.335  1.2102 -0.4314 -0.3108
 1772TIP3   OH2 5321   3.815   2.054   3.731  0.4480 -0.2018  0.5153
 1772TIP3    H1 5322   3.867   2.125   3.767 -0.0633 -0.0992  1.0657
 1772TIP3    H2 5323   3.877   2.000   3.682  0.9361  0.3074  0.5770
 1773TIP3   OH2 5324   2.894   2.518   2.896 -0.0483  0.1368  0.3720
 1773TIP3    H1 5325   2.928   2.456   2.832 -0.6951 -0.6866  0.8138
 1773TIP3    H2 5326   2.970   2.544   2.947  0.4464  0.6749 -0.5970
 1774TIP3   OH2 5327   0.117   5.392   2.708  0.0553  0.0219 -0.0495
 1774TIP3    H1 5328   0.094   5.393   2.615 -1.7527  0.6465  0.3506
 1774TIP3    H2 5329   0.055   5.453   2.748  1.2569  0.2981  1.4795
 1775TIP3   OH2 5330   3.624   1.797   4.987  0.1033 -0.3549 -0.4494
 1775TIP3    H1 5331   3.560   1.792   4.915 -0.3758 -0.2730 -0.0321
 1775TIP3    H2 5332   3.680   1.871   4.963 -0.9400  0.6064 -0.0441
 1776TIP3   OH2 5333   4.543   3.006   3.989 -0.3212  0.2168  0.2854
 1776TIP3    H1 5334   4.631   2.974   3.968 -0.9853 -1.5514 -0.0299
 1776TIP3    H2 5335   4.484   2.942   3.949 -1.7706  1.5352  0.2135
 1777TIP3   OH2 5336   5.859   4.391   4.014  0.1249 -0.5122  0.1886
 1777TIP3    H1 5337   5.852   4.302   3.981  0.3980 -0.9393  1.2253
 1777TIP3    H2 5338   5.940   4.392   4.065  0.6518  0.6149 -0.6321
 1778TIP3   OH2 5339   2.494   1.434   1.307 -0.1558  0.3336  0.3328
 1778TIP3    H1 5340   2.415   1.457   1.356 -0.9408 -0.6046 -0.4571
 1778TIP3    H2 5341   2.484   1.478   1.223 -0.7299 -1.2353 -0.4506
 1779TIP3   OH2 5342   0.400   5.232   0.573 -0.4836  0.0696 -0.5097
 1779TIP3    H1 5343   0.486   5.241   0.532 -0.3076 -0.9945 -0.4133
 1779TIP3    H2 5344   0.364   5.152   0.535  0.2681 -1.7746  2.3393
 1780TIP3   OH2 5345   2.931   2.120   2.685  0.0333 -0.3307  0.4735
 1780TIP3    H1 5346   2.883   2.038   2.675  0.6339 -1.1543  3.5140
 1780TIP3    H2 5347   2.890   2.163   2.760  2.1023  0.3479  1.2737
 1781TIP3   OH2 5348   1.149   5.158   2.860 -0.0674 -0.1421  0.1465
 1781TIP3    H1 5349   1.237   5.126   2.880  0.0341  1.2998  2.2697
 1781TIP3    H2 5350   1.097   5.079   2.844  1.2611 -1.0715  0.3414
 1782TIP3   OH2 5351   3.705   3.186   1.225 -0.3255  0.6924 -0.1144
 1782TIP3    H1 5352   3.760   3.183   1.147  0.2160  3.2090  0.0754
 1782TIP3    H2 5353   3.742   3.119   1.283 -0.1569 -0.5552 -1.5982
 1783TIP3   OH2 5354   2.563   2.288   3.025  0.0606  0.5632  0.0039
 1783TIP3    H1 5355   2.490   2.340   2.991  0.2558  0.3510 -0.7633
 1783TIP3    H2 5356   2.523   2.207   3.056 -0.2568  1.1796  1.2718
 1784TIP3   OH2 5357   4.085   4.965   4.407  0.0444 -0.2770 -0.0460
 1784TIP3    H1 5358   4.158   4.914   4.372  0.5617 -0.9354  1.8373
 1784TIP3    H2 5359   4.015   4.900   4.420 -0.5878  0.1892 -1.0129
 1785TIP3   OH2 5360   0.945   5.464   1.531  0.4278 -0.4273 -0.2031
 1785TIP3    H1 5361   0.858   5.494   1.559  0.2004 -1.1362 -0.1241
 1785TIP3    H2 5362   1.005   5.530   1.566 -0.2163  1.2171 -2.0192
 1786TIP3   OH2 5363   2.330   3.795   2.369  0.2869  0.1771  0.0554
 1786TIP3    H1 5364   2.257   3.760   2.318 -0.6109 -1.3955  2.2598
 1786TIP3    H2 5365   2.407   3.747   2.339 -0.1860 -0.5693  0.0293
 1787TIP3   OH2 5366   4.449   1.079   0.244 -0.4158  0.0365  0.2706
 1787TIP3    H1 5367   4.381   1.048   0.304 -0.2685  0.5417  0.7126
 1787TIP3    H2 5368   4.431   1.173   0.235  0.4831  0.2598  0.7468
 1788TIP3   OH2 5369   2.007   1.047   4.742 -0.1701 -0.2942 -0.2896
 1788TIP3    H1 5370   2.011   1.135   4.779  1.4483 -1.0290  1.4329
 1788TIP3    H2 5371   2.069   1.049   4.669  0.5798 -0.2282  0.3331
 1789TIP3   OH2 5372   0.895   3.859   0.219  0.0431  0.1775 -0.6384
 1789TIP3    H1 5373   0.919   3.935   0.272 -0.1631  0.0634 -0.3775
 1789TIP3    H2 5374   0.799   3.856   0.225  0.1615 -1.5222  1.3610
 1790TIP3   OH2 5375   3.131   0.679   4.298  0.1252  0.3967  0.0407
 1790TIP3    H1 5376   3.048   0.632   4.312  0.6385 -0.0686  1.8193
 1790TIP3    H2 5377   3.122   0.760   4.348  1.2176 -0.2725  1.3785
 1791TIP3   OH2 5378   4.130   4.246   2.099 -0.0516  0.0158  0.0716
 1791TIP3    H1 5379   4.087   4.237   2.014  0.2593 -2.4922  0.1159
 1791TIP3    H2 5380   4.063   4.222   2.163  0.6560 -1.5521  0.2779
 1792TIP3   OH2 5381   3.264   0.483   3.189  0.6586 -0.1934  1.2089
 1792TIP3    H1 5382   3.174   0.507   3.213  0.7090  0.4505  0.7656
 1792TIP3    H2 5383   3.293   0.426   3.260 -0.2392 -0.7261  1.1585
 1793TIP3   OH2 5384   2.208   0.346   4.771  0.2355  0.3082 -0.2614
 1793TIP3    H1 5385   2.276   0.413   4.772  0.2692  0.2715  0.0557
 1793TIP3    H2 5386   2.130   0.391   4.738  0.0755  0.6856  0.6257
 1794TIP3   OH2 5387   5.039   1.802   0.485  0.3924  0.4521 -0.1913
 1794TIP3    H1 5388   5.013   1.750   0.408  0.6815  2.5651 -1.7954
 1794TIP3    H2 5389   5.131   1.779   0.499  0.2029 -0.3167 -0.1436
 1795TIP3   OH2 5390   2.725   4.844   0.893  0.2237  0.3095  0.1547
 1795TIP3    H1 5391   2.779   4.787   0.948 -1.3771 -0.9856  0.4924
 1795TIP3    H2 5392   2.688   4.909   0.953  1.0620  0.9429 -0.0043
 1796TIP3   OH2 5393   0.967   0.241   3.310  0.0676  0.3173 -0.0866
 1796TIP3    H1 5394   0.971   0.200   3.223 -1.7893 -0.5228  0.1531
 1796TIP3    H2 5395   0.986   0.333   3.294 -0.8211  0.2977 -1.5019
 1797TIP3   OH2 5396   3.820   3.891   2.300 -0.2753  0.5651  0.2009
 1797TIP3    H1 5397   3.795   3.950   2.371 -0.0845 -0.5360  1.2049
 1797TIP3    H2 5398   3.781   3.930   2.221 -1.3073  1.2906  1.0475
 1798TIP3   OH2 5399   1.387   0.150   0.552  0.4585 -0.3630 -0.2225
 1798TIP3    H1 5400   1.471   0.155   0.599  0.0914 -0.3160  0.4365
 1798TIP3    H2 5401   1.364   0.241   0.535 -0.7537 -0.1890  1.9617
 1799TIP3   OH2 5402   4.285   1.660   1.026  0.3224  0.0307 -0.1563
 1799TIP3    H1 5403   4.206   1.615   0.997  0.0946  1.3410 -1.6332
 1799TIP3    H2 5404   4.264   1.753   1.020  1.6734  0.3882  0.3006
 1800TIP3   OH2 5405   4.743   3.235   0.410 -0.3541 -0.8039  0.4133
 1800TIP3    H1 5406   4.741   3.188   0.493  0.6412 -1.4616  0.0870
 1800TIP3    H2 5407   4.698   3.317   0.427 -0.5296 -1.1141  1.4846
 1801TIP3   OH2 5408   2.502   0.370   4.756 -0.1552 -0.6294 -0.2927
 1801TIP3    H1 5409   2.553   0.386   4.677  2.2242 -0.4217  1.1920
 1801TIP3    H2 5410   2.470   0.457   4.782  0.4837 -0.4390 -0.1271
 1802TIP3   OH2 5411   2.789   5.454   1.479 -0.0404 -0.0382  0.3572
 1802TIP3    H1 5412   2.767   5.375   1.528  0.6955 -0.2036  0.4257
 1802TIP3    H2 5413   2.706   5.481   1.439  0.0435 -1.9286 -1.2691
 1803TIP3   OH2 5414   0.460   5.557   4.305 -0.5074  0.3994  0.1470
 1803TIP3    H1 5415   0.448   5.632   4.246  0.5165 -0.4905 -1.2534
 1803TIP3    H2 5416   0.537   5.581   4.358 -0.4208  0.5053 -0.0249
 1804TIP3   OH2 5417   1.584   1.843   3.727  0.5359  0.4855  0.4769
 1804TIP3    H1 5418   1.572   1.782   3.800  0.5260 -0.3308 -0.1900
 1804TIP3    H2 5419   1.674   1.828   3.698  0.6063  0.9582  0.4458
 1805TIP3   OH2 5420   2.841   2.746   3.479 -0.1451 -0.8858  0.5061
 1805TIP3    H1 5421   2.904   2.736   3.407 -0.2618  1.1259  0.0640
 1805TIP3    H2 5422   2.896   2.762   3.556 -0.0723 -1.0783  0.4957
 1806TIP3   OH2 5423   0.354   4.145   2.219  0.5829  0.1783 -0.2112
 1806TIP3    H1 5424   0.356   4.220   2.278  1.1060 -1.2981  1.7880
 1806TIP3    H2 5425   0.441   4.105   2.227  0.0807 -1.0621 -0.5944
 1807TIP3   OH2 5426   0.684   4.679   3.850  0.3680  0.2864 -0.1593
 1807TIP3    H1 5427   0.730   4.687   3.934 -2.6319  1.0687  1.5441
 1807TIP3    H2 5428   0.690   4.767   3.812 -3.3375  1.8311  2.2594
 1808TIP3   OH2 5429   2.138   1.939   4.390 -0.0123  0.5627 -0.3718
 1808TIP3    H1 5430   2.210   1.953   4.451 -0.4375 -0.6739  0.4488
 1808TIP3    H2 5431   2.139   2.017   4.334  1.4683  0.9266  0.1007
 1809TIP3   OH2 5432   3.478   1.497   3.523  0.7136  0.5146 -0.3425
 1809TIP3    H1 5433   3.460   1.406   3.499 -1.0617  0.2997  1.4764
 1809TIP3    H2 5434   3.562   1.493   3.569  1.2521  0.0208 -1.3378
 1810TIP3   OH2 5435   1.968   2.964   4.173  0.8603 -0.0216 -0.1328
 1810TIP3    H1 5436   1.969   2.870   4.157  0.2544  0.0533 -0.6593
 1810TIP3    H2 5437   1.999   2.973   4.263  0.5859 -0.7477  0.0426
 1811TIP3   OH2 5438   1.966   1.931   2.534  0.0365 -0.3027  0.0675
 1811TIP3    H1 5439   1.910   1.863   2.495  1.0870 -1.3773  0.3739
 1811TIP3    H2 5440   1.920   1.956   2.614  0.0277 -1.2367  0.3669
 1812TIP3   OH2 5441   2.105   2.690   2.337  0.0903 -0.7291  0.1752
 1812TIP3    H1 5442   2.142   2.677   2.424  1.2714  0.4525 -0.1284
 1812TIP3    H2 5443   2.174   2.732   2.287 -1.7689  2.0089 -0.2912
 1813TIP3   OH2 5444   5.526   1.372   1.367  0.3850 -0.4553  0.0202
 1813TIP3    H1 5445   5.456   1.371   1.432 -0.1972 -3.8428 -0.4642
 1813TIP3    H2 5446   5.490   1.423   1.294 -0.3736  0.2972  0.8873
 1814TIP3   OH2 5447   2.715   4.077   3.501 -0.3216 -0.2098  0.1355
 1814TIP3    H1 5448   2.629   4.047   3.470 -1.5732  1.6913  1.5255
 1814TIP3    H2 5449   2.730   4.158   3.453  1.0542 -0.8694 -0.5876
 1815TIP3   OH2 5450   5.679   4.150   4.816  0.2524  0.0596 -0.1217
 1815TIP3    H1 5451   5.767   4.116   4.833 -0.4477 -1.0702  1.4888
 1815TIP3    H2 5452   5.647   4.178   4.902 -0.6896  1.1837 -0.8087
 1816TIP3   OH2 5453   4.330   5.605   2.935 -0.3351  0.4780  0.0794
 1816TIP3    H1 5454   4.375   5.689   2.943 -0.5233  0.6132 -0.2658
 1816TIP3    H2 5455   4.263   5.607   3.003  1.3630 -0.5041  1.9225
 1817TIP3   OH2 5456   3.794   3.845   3.672  0.0097  0.4508  0.8078
 1817TIP3    H1 5457   3.744   3.849   3.591 -0.9035  1.1731  1.3747
 1817TIP3    H2 5458   3.743   3.788   3.729  0.3176  0.4410  1.0762
 1818TIP3   OH2 5459   3.418   0.311   1.660  0.6413  0.5000 -0.0388
 1818TIP3    H1 5460   3.489   0.248   1.649  0.6123  0.2931  0.9185
 1818TIP3    H2 5461   3.343   0.271   1.614  0.7775  0.1037  0.0850
 1819TIP3   OH2 5462   6.257   2.337   3.819  0.0265 -0.4435  0.1344
 1819TIP3    H1 5463   6.270   2.287   3.900 -1.4035  0.2503  0.8211
 1819TIP3    H2 5464   6.253   2.270   3.751 -0.7038 -1.2044  0.8892
 1820TIP3   OH2 5465   2.329   5.491   2.569 -0.7229  0.1156 -0.3226
 1820TIP3    H1 5466   2.409   5.544   2.566  0.7354 -1.9317  0.6318
 1820TIP3    H2 5467   2.258   5.556   2.567  0.8524  1.9509 -2.6979
 1821TIP3   OH2 5468   4.406   5.314   4.958  0.2289  0.4246  0.2607
 1821TIP3    H1 5469   4.474   5.375   4.932  2.1659 -1.3193  0.9014
 1821TIP3    H2 5470   4.338   5.324   4.892  2.1859  0.5296 -1.8753
 1822TIP3   OH2 5471   4.380   5.064   1.138 -0.3093  0.0322  0.1712
 1822TIP3    H1 5472   4.396   5.149   1.097  2.1862 -0.0299  0.8372
 1822TIP3    H2 5473   4.322   5.084   1.212 -0.3732  1.0305 -0.1357
 1823TIP3   OH2 5474   1.288   1.123   1.629 -0.0530 -0.4529  0.2352
 1823TIP3    H1 5475   1.351   1.195   1.625 -0.3253 -0.1212  1.4535
 1823TIP3    H2 5476   1.245   1.124   1.544  0.3167  0.4909  0.0428
 1824TIP3   OH2 5477   3.364   3.909   1.928 -0.3419  0.1241 -0.2044
 1824TIP3    H1 5478   3.411   3.944   1.852 -1.2083  0.0568 -0.7875
 1824TIP3    H2 5479   3.328   3.826   1.897  0.6168 -0.6821  0.7742
 1825TIP3   OH2 5480   3.333   1.254   0.988 -0.0123 -0.0986 -0.1139
 1825TIP3    H1 5481   3.362   1.284   0.902  0.3809 -2.6925 -0.9753
 1825TIP3    H2 5482   3.242   1.284   0.994  0.0921  0.5146 -1.2153
 1826TIP3   OH2 5483   2.798   0.620   2.395  0.0537 -0.2391 -0.2651
 1826TIP3    H1 5484   2.768   0.687   2.334  1.6083  1.6596  0.9376
 1826TIP3    H2 5485   2.889   0.643   2.414  0.3206 -2.1047  1.0071
 1827TIP3   OH2 5486   6.115   0.818   0.420  0.0875  0.3266 -0.3173
 1827TIP3    H1 5487   6.115   0.772   0.504 -0.9916 -0.7686 -0.8888
 1827TIP3    H2 5488   6.166   0.761   0.362 -1.7538 -0.5386 -1.1858
 1828TIP3   OH2 5489   4.523   4.872   3.331  0.0544 -0.3322  0.4217
 1828TIP3    H1 5490   4.444   4.917   3.362  0.0689 -1.2875  1.9161
 1828TIP3    H2 5491   4.491   4.809   3.267 -0.5047 -1.1407  1.4645
 1829TIP3   OH2 5492   4.837   2.052   3.732  0.2611 -0.0952  0.3099
 1829TIP3    H1 5493   4.863   1.974   3.683 -1.7665 -0.2611 -0.6273
 1829TIP3    H2 5494   4.773   2.095   3.676  0.2396  1.4679  1.4603
 1830TIP3   OH2 5495   0.012   3.452   0.399  0.2727  0.0948  0.0816
 1830TIP3    H1 5496  -0.061   3.410   0.353  0.4095  0.2439 -0.2738
 1830TIP3    H2 5497   0.065   3.490   0.330  1.8523 -1.8247  0.1591
 1831TIP3   OH2 5498   4.190   3.854   4.983 -0.1104 -0.0711  0.1923
 1831TIP3    H1 5499   4.251   3.909   4.933 -0.2356  0.6781  0.8446
 1831TIP3    H2 5500   4.160   3.910   5.054 -0.8734 -0.7298  0.4039
 1832TIP3   OH2 5501   6.277   0.380   4.810 -0.4446  0.0683  0.4090
 1832TIP3    H1 5502   6.316   0.450   4.757 -0.9751 -1.2166 -1.8120
 1832TIP3    H2 5503   6.188   0.372   4.777 -0.7121 -1.0008  1.3251
 1833TIP3   OH2 5504   0.977   2.444   0.215  0.2485 -0.0599  0.1316
 1833TIP3    H1 5505   0.918   2.387   0.165  2.2828 -2.1431 -0.1018
 1833TIP3    H2 5506   0.964   2.418   0.306  0.6170 -0.3949  0.0958
 1834TIP3   OH2 5507   4.688   4.537   3.414  0.3417  0.0027 -0.1057
 1834TIP3    H1 5508   4.654   4.522   3.325  1.5660 -0.5033 -0.5083
 1834TIP3    H2 5509   4.667   4.456   3.461  2.1281 -0.8934 -0.7464
 1835TIP3   OH2 5510   1.649   1.157   3.454 -0.1190  0.1838 -0.1370
 1835TIP3    H1 5511   1.556   1.136   3.459  0.3471 -1.8637  0.7535
 1835TIP3    H2 5512   1.660   1.233   3.512 -1.0828 -0.1164  0.4470
 1836TIP3   OH2 5513   0.994   4.432   2.340 -0.1770  0.5470  0.0654
 1836TIP3    H1 5514   1.047   4.406   2.264 -1.3670  2.2846 -1.4399
 1836TIP3    H2 5515   0.956   4.350   2.372  2.3100 -0.5529  0.3773
 1837TIP3   OH2 5516   6.083   0.987   1.072 -0.4388 -0.1602 -0.4275
 1837TIP3    H1 5517   6.142   0.992   1.147 -1.0444  0.0851  0.0422
 1837TIP3    H2 5518   5.997   1.005   1.108 -0.8153 -0.5804 -1.0934
 1838TIP3   OH2 5519   3.732   4.509   2.134 -0.0567 -0.1971  0.4727
 1838TIP3    H1 5520   3.638   4.508   2.154 -0.5305 -1.1325 -1.5360
 1838TIP3    H2 5521   3.743   4.440   2.068  2.1213 -0.3366  0.9135
 1839TIP3   OH2 5522   5.699   1.001   0.418  0.0223  0.1717 -0.2473
 1839TIP3    H1 5523   5.715   0.908   0.405 -0.4446  0.0837 -0.2166
 1839TIP3    H2 5524   5.606   1.013   0.394 -0.6174  0.1910  2.0283
 1840TIP3   OH2 5525   0.336   1.809   2.968  0.3387 -0.2115  0.6081
 1840TIP3    H1 5526   0.386   1.739   2.927 -1.1739 -0.2676 -1.3044
 1840TIP3    H2 5527   0.340   1.790   3.062  1.1775 -2.0197  0.2479
 1841TIP3   OH2 5528   4.937   4.568   1.599 -0.3044  0.7583  0.1114
 1841TIP3    H1 5529   4.869   4.602   1.656 -0.4779  1.0041 -0.2367
 1841TIP3    H2 5530   5.019   4.582   1.648 -0.5565 -0.1227  0.8007
 1842TIP3   OH2 5531   1.798   0.186   2.163  0.1835 -0.1707 -0.8208
 1842TIP3    H1 5532   1.824   0.272   2.195  1.5436 -0.2799 -1.5627
 1842TIP3    H2 5533   1.812   0.190   2.069 -0.2330 -1.0500 -0.9327
 1843TIP3   OH2 5534   2.091   4.482   1.718  0.3158  0.2415  0.3248
 1843TIP3    H1 5535   2.108   4.444   1.804 -2.2684 -0.9072  0.4100
 1843TIP3    H2 5536   2.060   4.408   1.665  0.0887  1.2792 -1.0431
 1844TIP3   OH2 5537   1.013   0.108   5.067  0.3538 -0.4721 -0.2142
 1844TIP3    H1 5538   1.054   0.026   5.038  1.2443  0.8927 -3.2583
 1844TIP3    H2 5539   0.965   0.139   4.990 -2.0597  0.6738  1.6369
 1845TIP3   OH2 5540   0.973   0.485   0.679  0.3111  0.4843 -0.2027
 1845TIP3    H1 5541   0.888   0.480   0.636 -0.7315 -0.0865  1.7838
 1845TIP3    H2 5542   0.955   0.530   0.762  2.0775  0.9270 -0.0219
 1846TIP3   OH2 5543   3.723   4.696   4.102 -0.2339 -0.0875  0.2167
 1846TIP3    H1 5544   3.725   4.642   4.023  0.4203  1.4284 -0.8633
 1846TIP3    H2 5545   3.760   4.640   4.170  1.6775 -0.6171 -1.1522
 1847TIP3   OH2 5546   1.604   0.636   3.700  0.8484  0.1643 -0.4239
 1847TIP3    H1 5547   1.672   0.669   3.758  1.5245 -1.8014 -0.0294
 1847TIP3    H2 5548   1.549   0.713   3.682  1.5973  1.2154  1.4216
 1848TIP3   OH2 5549   5.873   0.139   3.601 -0.2174 -0.1814  0.2110
 1848TIP3    H1 5550   5.907   0.050   3.609 -0.5474 -0.5650 -2.0892
 1848TIP3    H2 5551   5.945   0.195   3.628  0.1861 -1.1132  1.1418
 1849TIP3   OH2 5552   1.261   1.550   1.548 -0.3944 -0.0931 -0.2966
 1849TIP3    H1 5553   1.285   1.641   1.568  2.5794 -1.0697  1.1759
 1849TIP3    H2 5554   1.322   1.525   1.479 -1.3595 -0.9508 -0.8669
 1850TIP3   OH2 5555   0.737   3.993   3.314  0.2973 -0.0466 -0.1180
 1850TIP3    H1 5556   0.683   4.060   3.272  0.3171  0.4025  0.5622
 1850TIP3    H2 5557   0.681   3.916   3.320 -0.4404  0.5665  1.0348
 1851TIP3   OH2 5558   2.267   3.926   3.263 -0.3752 -0.2995  0.2974
 1851TIP3    H1 5559   2.266   3.914   3.168  0.5428  0.4248  0.1766
 1851TIP3    H2 5560   2.236   3.843   3.298 -1.1551 -0.4257 -0.6442
 1852TIP3   OH2 5561   1.705   3.006   2.724  0.1685 -0.2254  0.1023
 1852TIP3    H1 5562   1.748   3.027   2.642 -1.4956  0.5836 -0.6007
 1852TIP3    H2 5563   1.776   3.005   2.789  1.3084  0.4662 -1.0889
 1853TIP3   OH2 5564   0.835   5.004   3.288 -0.3174  0.9880  0.5123
 1853TIP3    H1 5565   0.777   5.050   3.227  0.2527  1.8156  0.5737
 1853TIP3    H2 5566   0.910   5.063   3.298  0.3360  0.1299  0.7618
 1854TIP3   OH2 5567   1.855   1.626   0.945  0.5081  0.1391  0.0678
 1854TIP3    H1 5568   1.879   1.718   0.939  0.1753  0.2727  0.7022
 1854TIP3    H2 5569   1.922   1.587   1.001  1.1087 -0.1842 -0.8456
 1855TIP3   OH2 5570   5.445   1.636   3.309  0.0167  0.1144 -0.6162
 1855TIP3    H1 5571   5.438   1.595   3.224 -1.3306 -0.3682 -0.2903
 1855TIP3    H2 5572   5.376   1.596   3.362  0.4356  0.8285  0.5261
 1856TIP3   OH2 5573   0.527   3.537   2.925  0.0506  0.0010 -0.2052
 1856TIP3    H1 5574   0.448   3.590   2.927 -0.8514 -1.2910 -0.2503
 1856TIP3    H2 5575   0.554   3.531   3.017 -0.1858  0.0381 -0.1323
 1857TIP3   OH2 5576   5.676   1.008   4.697 -0.1902  0.0545  0.5018
 1857TIP3    H1 5577   5.694   0.916   4.680 -0.7715 -0.0888  0.6267
 1857TIP3    H2 5578   5.615   1.007   4.771 -0.5773  0.5146  0.1939
 1858TIP3   OH2 5579   2.270   0.864   4.037 -0.0731  0.0798 -0.1410
 1858TIP3    H1 5580   2.221   0.796   4.083 -1.3015  0.6839 -0.5261
 1858TIP3    H2 5581   2.245   0.854   3.945  0.7137  0.2569 -0.3818
 1859TIP3   OH2 5582   0.774   0.942   2.880  0.6186  0.2058 -0.1620
 1859TIP3    H1 5583   0.779   0.943   2.976 -0.4299  0.6545 -0.0974
 1859TIP3    H2 5584   0.681   0.926   2.861  0.5910  1.3111 -1.0921
 1860TIP3   OH2 5585   4.138   1.491   0.220 -0.4153 -0.3837 -0.3518
 1860TIP3    H1 5586   4.209   1.539   0.262 -0.6400 -1.6259  1.5763
 1860TIP3    H2 5587   4.064   1.501   0.280 -0.6989 -2.3966 -0.2849
 1861TIP3   OH2 5588   3.384   4.112   2.419 -0.1329 -0.0021 -0.3330
 1861TIP3    H1 5589   3.390   4.198   2.378 -0.9074  0.0616 -0.3315
 1861TIP3    H2 5590   3.290   4.090   2.415 -0.1698 -0.1682  1.0419
 1862TIP3   OH2 5591   5.106   1.912   1.936 -0.2852 -0.1113 -0.6545
 1862TIP3    H1 5592   5.039   1.973   1.964 -1.0592 -1.2300 -0.0025
 1862TIP3    H2 5593   5.145   1.953   1.858 -1.5404  0.6749 -0.8919
 1863TIP3   OH2 5594   0.944   3.915   1.015  0.6004 -0.3097  0.5336
 1863TIP3    H1 5595   0.879   3.896   1.082 -0.7811  1.7288 -0.1494
 1863TIP3    H2 5596   0.899   3.902   0.932  1.1994  0.6005  0.0376
 1864TIP3   OH2 5597   2.660   1.333   0.039 -0.0636 -0.7296 -0.3674
 1864TIP3    H1 5598   2.573   1.316   0.077 -0.5930 -0.7761 -1.5606
 1864TIP3    H2 5599   2.642   1.363  -0.050  1.1631 -0.9561 -0.7110
 1865TIP3   OH2 5600   2.747   0.241   0.235 -0.4304  0.3168  0.6008
 1865TIP3    H1 5601   2.654   0.226   0.218 -0.2848 -0.0137  0.0643
 1865TIP3    H2 5602   2.790   0.224   0.151  0.1394  0.2327  0.9019
 1866TIP3   OH2 5603   2.066   3.359   5.088 -0.7296 -0.1390 -0.0922
 1866TIP3    H1 5604   2.144   3.406   5.057 -1.5334  0.3542 -1.4534
 1866TIP3    H2 5605   2.088   3.267   5.078  0.3121 -0.0725  1.2065
 1867TIP3   OH2 5606   3.193   5.899   0.552 -0.2336 -0.6355  0.1747
 1867TIP3    H1 5607   3.252   5.826   0.531  0.6328 -0.3774  1.5751
 1867TIP3    H2 5608   3.130   5.900   0.480  0.6128 -1.8350 -0.6290
 1868TIP3   OH2 5609   5.033   1.232   0.908  0.0761 -0.4745 -0.1939
 1868TIP3    H1 5610   5.127   1.215   0.904  0.2759  0.7211 -0.9910
 1868TIP3    H2 5611   5.026   1.324   0.932 -0.9384 -0.9827  1.7152
 1869TIP3   OH2 5612   3.854   0.940   2.283  0.0917  0.3015 -0.0764
 1869TIP3    H1 5613   3.938   0.986   2.279  0.6359 -0.6821 -0.6348
 1869TIP3    H2 5614   3.795   0.992   2.229  0.4049  0.9036  0.1579
 1870TIP3   OH2 5615   0.049   4.379   3.879 -0.1834 -0.8502  0.2878
 1870TIP3    H1 5616   0.112   4.373   3.951 -0.8672  0.3416  1.0085
 1870TIP3    H2 5617  -0.004   4.299   3.887  0.0794 -0.9821  0.7803
 1871TIP3   OH2 5618   0.286   3.934   3.846  0.2157  0.3788  0.3085
 1871TIP3    H1 5619   0.225   3.865   3.819 -1.2643  1.9244 -0.4544
 1871TIP3    H2 5620   0.283   3.931   3.942 -0.2948 -0.2094  0.2828
 1872TIP3   OH2 5621   4.352   0.106   1.604 -0.4773  0.0210  0.4378
 1872TIP3    H1 5622   4.325   0.091   1.514 -2.1959 -0.1903  0.9621
 1872TIP3    H2 5623   4.417   0.037   1.621  2.7575  2.2216 -1.7265
 1873TIP3   OH2 5624   6.074   2.343   0.763  0.5047 -0.2065 -0.1015
 1873TIP3    H1 5625   6.099   2.392   0.684  0.2314 -0.2320 -0.2062
 1873TIP3    H2 5626   6.046   2.411   0.825 -2.0425 -0.3147 -1.0146
 1874TIP3   OH2 5627   5.912   0.886   4.995  0.0364 -0.4439 -0.0284
 1874TIP3    H1 5628   5.980   0.827   5.028 -0.1998 -0.7221 -0.0371
 1874TIP3    H2 5629   5.915   0.876   4.900 -0.1668 -0.6209 -0.0155
 1875TIP3   OH2 5630   5.441   2.632   3.078  0.4918 -1.2221 -0.3703
 1875TIP3    H1 5631   5.436   2.608   3.171  1.6516 -1.0342 -0.2340
 1875TIP3    H2 5632   5.532   2.613   3.054  0.2101 -1.2387 -1.4676
 1876TIP3   OH2 5633   5.706   0.112   4.974  0.0764 -0.3130 -0.2747
 1876TIP3    H1 5634   5.794   0.143   4.997  0.0467 -1.5641  1.7344
 1876TIP3    H2 5635   5.699   0.026   5.016 -1.3426 -1.2138 -2.2060
 1877TIP3   OH2 5636   0.997   1.004   2.128 -0.2193  0.5079 -0.4237
 1877TIP3    H1 5637   0.968   0.932   2.184 -2.1905  1.3246 -0.2991
 1877TIP3    H2 5638   1.085   0.978   2.099 -0.2168 -1.1651  0.8972
 1878TIP3   OH2 5639   3.332   4.897   2.294 -0.2975 -0.4001 -0.6250
 1878TIP3    H1 5640   3.382   4.883   2.213 -0.6410 -4.1195 -0.3412
 1878TIP3    H2 5641   3.258   4.836   2.287 -1.8799  1.1664  1.3360
 1879TIP3   OH2 5642   1.565   4.625   0.855  0.7139  0.3351 -0.3901
 1879TIP3    H1 5643   1.497   4.569   0.893 -0.2392  1.1987 -0.7646
 1879TIP3    H2 5644   1.642   4.569   0.851 -0.2286 -1.0023 -0.8659
 1880TIP3   OH2 5645   2.620   2.670   1.830  0.4028 -0.2171  0.6980
 1880TIP3    H1 5646   2.684   2.604   1.804  0.5262  0.6018 -1.2594
 1880TIP3    H2 5647   2.536   2.624   1.828  0.5935 -0.5499  0.2631
 1881TIP3   OH2 5648   2.724   5.229   1.615  0.1447 -0.2098 -0.0560
 1881TIP3    H1 5649   2.683   5.178   1.545  0.1836 -0.4773  0.1107
 1881TIP3    H2 5650   2.654   5.245   1.678  0.3148 -0.7647  0.2832
 1882TIP3   OH2 5651   3.147   2.955   2.478  0.0535 -0.2804  0.0316
 1882TIP3    H1 5652   3.082   2.947   2.548  0.6379 -0.5095  0.5589
 1882TIP3    H2 5653   3.113   3.025   2.422 -0.9699 -0.8419 -0.0673
 1883TIP3   OH2 5654   1.130   5.414   2.657 -0.7169 -0.1683 -0.7529
 1883TIP3    H1 5655   1.046   5.387   2.694 -0.4354 -1.1427 -0.8076
 1883TIP3    H2 5656   1.195   5.382   2.719 -0.4088  1.5144 -0.1559
 1884TIP3   OH2 5657   4.803   3.263   4.142 -0.0680 -0.1173  0.6580
 1884TIP3    H1 5658   4.780   3.356   4.151 -1.4395 -0.5325  1.8686
 1884TIP3    H2 5659   4.792   3.245   4.049  1.2910  1.1752  0.2007
 1885TIP3   OH2 5660   3.316   1.589   4.120  0.0440 -0.1710  0.2056
 1885TIP3    H1 5661   3.392   1.582   4.179 -0.1672 -0.8590  0.4035
 1885TIP3    H2 5662   3.241   1.565   4.174 -0.5132  1.7075  0.3589
 1886TIP3   OH2 5663   1.113   2.065   2.943 -0.2588  0.0651 -0.6835
 1886TIP3    H1 5664   1.088   2.055   3.035 -2.0000 -0.4091 -1.1683
 1886TIP3    H2 5665   1.041   2.114   2.904  0.3023 -0.0266 -1.8682
 1887TIP3   OH2 5666   1.509   5.290   0.607 -0.2464  0.5335  0.4029
 1887TIP3    H1 5667   1.525   5.243   0.525 -0.1196 -0.2686  0.8760
 1887TIP3    H2 5668   1.563   5.244   0.671 -0.8248  0.7616  1.0632
 1888TIP3   OH2 5669   1.094   3.784   4.794  0.3555  0.6433 -0.2631
 1888TIP3    H1 5670   1.147   3.771   4.873 -1.7247  2.4547  1.5831
 1888TIP3    H2 5671   1.079   3.696   4.760 -0.3890 -0.4515  2.6139
 1889TIP3   OH2 5672   3.655   2.692   2.422 -0.2779  0.7975 -0.2965
 1889TIP3    H1 5673   3.592   2.731   2.360  0.7594  2.1916 -0.5256
 1889TIP3    H2 5674   3.712   2.639   2.367  0.1950  1.4518 -0.4520
 1890TIP3   OH2 5675   1.794   4.819   4.393 -0.1176  0.2073 -0.0635
 1890TIP3    H1 5676   1.800   4.808   4.298 -0.1374  0.6342 -0.1167
 1890TIP3    H2 5677   1.760   4.908   4.405  0.3938  0.3565  0.3458
 1891TIP3   OH2 5678   2.752   5.733   4.476  0.1805  0.0325 -0.0619
 1891TIP3    H1 5679   2.761   5.647   4.518  4.2320  0.5006  0.4433
 1891TIP3    H2 5680   2.724   5.791   4.547  1.4231 -0.2089  0.6565
 1892TIP3   OH2 5681   4.987   3.111   3.701  0.0542 -0.2260 -0.0162
 1892TIP3    H1 5682   4.951   3.130   3.615 -2.1983 -0.7306  0.7201
 1892TIP3    H2 5683   5.081   3.104   3.688 -0.0162  1.6420 -2.0479
 1893TIP3   OH2 5684   3.436   4.809   4.152 -0.4109  0.1139  0.3547
 1893TIP3    H1 5685   3.527   4.805   4.182 -0.6686  1.0468  1.2970
 1893TIP3    H2 5686   3.394   4.871   4.211 -0.7642  2.6999 -2.3961
 1894TIP3   OH2 5687   1.716   5.926   4.348 -0.2562 -0.3995 -0.1493
 1894TIP3    H1 5688   1.732   5.924   4.442  1.2923  0.9970 -0.3368
 1894TIP3    H2 5689   1.732   5.836   4.319  3.6972 -0.0722  0.3584
 1895TIP3   OH2 5690   1.404   4.979   2.244  0.3560 -0.0804 -0.0452
 1895TIP3    H1 5691   1.493   4.951   2.222  0.6593  1.0358 -0.2920
 1895TIP3    H2 5692   1.351   4.900   2.233  1.1781 -0.5627 -0.6866
 1896TIP3   OH2 5693   4.367   1.988   3.280  0.6709  0.7232 -0.1150
 1896TIP3    H1 5694   4.305   2.060   3.295  1.1683  1.0559  0.4077
 1896TIP3    H2 5695   4.351   1.928   3.353 -1.1041 -0.7051 -1.5969
 1897TIP3   OH2 5696   1.781   2.881   1.664 -0.1414  0.0720 -0.1004
 1897TIP3    H1 5697   1.857   2.933   1.687  0.1119 -0.6843  0.8534
 1897TIP3    H2 5698   1.742   2.857   1.749 -1.1527  0.0391 -0.5602
 1898TIP3   OH2 5699   0.501   5.547   3.902 -0.3105 -0.1457 -0.2093
 1898TIP3    H1 5700   0.513   5.590   3.987 -1.0080 -0.1417 -0.1093
 1898TIP3    H2 5701   0.464   5.461   3.923 -2.0126  0.4517 -0.5667
 1899TIP3   OH2 5702   1.577   2.120   1.369  0.7012 -0.3347 -0.6403
 1899TIP3    H1 5703   1.631   2.103   1.447  0.3230  0.4914 -0.1836
 1899TIP3    H2 5704   1.506   2.056   1.375 -0.9258  1.4874  1.2716
 1900TIP3   OH2 5705   3.451   2.285   2.252 -0.2938  0.4855 -0.1848
 1900TIP3    H1 5706   3.380   2.338   2.214  0.9995  2.4963  0.0496
 1900TIP3    H2 5707   3.530   2.316   2.207  0.5386 -1.2721 -0.0039
 1901TIP3   OH2 5708   3.570   0.971   1.962  0.7099 -0.0067  0.2569
 1901TIP3    H1 5709   3.574   0.948   1.869 -0.1767  0.2705  0.1332
 1901TIP3    H2 5710   3.540   0.891   2.005  0.8813 -0.0633  0.2706
 1902TIP3   OH2 5711   5.739   5.909   2.359 -0.5219 -0.1441 -0.5057
 1902TIP3    H1 5712   5.766   5.866   2.278  0.9948 -0.1931  0.0030
 1902TIP3    H2 5713   5.817   5.908   2.415 -1.1252  1.1356  0.4274
 1903TIP3   OH2 5714   1.682   1.567   2.594  0.4909 -0.0253  0.5105
 1903TIP3    H1 5715   1.680   1.493   2.534  0.6306  0.0108  0.4608
 1903TIP3    H2 5716   1.606   1.554   2.651  2.7154 -2.4993  3.2565
 1904TIP3   OH2 5717   5.242   0.285   0.507  0.2050  0.5239 -0.4238
 1904TIP3    H1 5718   5.228   0.241   0.590  2.7291  1.4280  0.5667
 1904TIP3    H2 5719   5.209   0.374   0.521  1.0187  0.8037 -0.2009
 1905TIP3   OH2 5720   2.862   3.700   5.137 -0.0283  0.0210 -0.0246
 1905TIP3    H1 5721   2.842   3.764   5.068 -0.2660 -0.1499 -0.1170
 1905TIP3    H2 5722   2.778   3.684   5.180  0.3419  1.0606  1.1222
 1906TIP3   OH2 5723   5.649   5.250   0.165  0.4299  0.2494 -0.0248
 1906TIP3    H1 5724   5.576   5.282   0.111 -0.2520  0.0573  0.7670
 1906TIP3    H2 5725   5.700   5.329   0.185 -0.3150  0.5995  0.5380
 1907TIP3   OH2 5726   1.198   4.764   3.343 -0.1327 -0.8742 -0.1443
 1907TIP3    H1 5727   1.257   4.808   3.404 -0.8089  1.2603 -0.9647
 1907TIP3    H2 5728   1.118   4.749   3.394 -0.3835  0.1073 -0.2316
 1908TIP3   OH2 5729   5.716   0.032   4.007 -0.1921  0.0386 -0.3107
 1908TIP3    H1 5730   5.738   0.114   4.051 -0.4711 -1.3661  2.6833
 1908TIP3    H2 5731   5.792  -0.024   4.022 -1.6835 -1.6171  1.5037
 1909TIP3   OH2 5732   3.902   3.515   0.706 -0.2453 -0.1564  0.0537
 1909TIP3    H1 5733   3.871   3.485   0.792 -0.3995 -1.0032 -0.2819
 1909TIP3    H2 5734   3.844   3.471   0.644 -0.4915  0.8807 -0.4753
 1910TIP3   OH2 5735   5.805   4.599   1.741  0.0604 -0.4928  0.4984
 1910TIP3    H1 5736   5.846   4.611   1.826  0.1255  1.2849  0.2588
 1910TIP3    H2 5737   5.871   4.630   1.678 -0.6510 -0.1014 -0.0713
 1911TIP3   OH2 5738   4.085   1.008   0.717 -0.5659  0.8429 -0.4623
 1911TIP3    H1 5739   4.066   1.100   0.701 -1.0117  0.5975 -1.4954
 1911TIP3    H2 5740   4.010   0.962   0.679 -0.3214  0.0555 -0.0099
 1912TIP3   OH2 5741   5.667   1.151   4.288  0.2898  0.1208  0.0358
 1912TIP3    H1 5742   5.709   1.089   4.229  2.0787  2.9956 -1.9388
 1912TIP3    H2 5743   5.591   1.183   4.240 -0.2043  0.0224  0.7282
 1913TIP3   OH2 5744   1.960   5.235   0.669  0.3040 -0.7942 -0.0656
 1913TIP3    H1 5745   1.864   5.227   0.668  0.1601  0.6445 -0.9612
 1913TIP3    H2 5746   1.990   5.166   0.610 -0.2820 -0.4182 -0.8186
 1914TIP3   OH2 5747   1.663   5.273   4.254  0.1433 -0.2070 -0.1654
 1914TIP3    H1 5748   1.754   5.291   4.229 -0.1637  1.9536  0.0597
 1914TIP3    H2 5749   1.613   5.291   4.175 -0.3666  2.0120  0.5775
 1915TIP3   OH2 5750   5.576   4.616   0.813  0.5802 -0.4609  0.2719
 1915TIP3    H1 5751   5.485   4.641   0.831  0.6409  1.1818 -1.3552
 1915TIP3    H2 5752   5.625   4.653   0.886  0.2650  1.4443 -0.4302
 1916TIP3   OH2 5753   3.131   4.543   0.820 -0.0163  0.2263  0.2726
 1916TIP3    H1 5754   3.158   4.465   0.870 -1.6386  0.1625  1.1000
 1916TIP3    H2 5755   3.042   4.523   0.791 -0.4096  1.7216  0.3770
 1917TIP3   OH2 5756   1.276   4.818   1.054 -0.1886 -0.6927 -0.4266
 1917TIP3    H1 5757   1.357   4.867   1.042  0.2303 -1.7647 -2.2065
 1917TIP3    H2 5758   1.274   4.799   1.148 -0.7105  3.1902  0.5412
 1918TIP3   OH2 5759   0.680   2.765   3.006 -0.6276 -0.1079  0.1479
 1918TIP3    H1 5760   0.617   2.836   3.008 -0.7948 -0.2599  0.3752
 1918TIP3    H2 5761   0.764   2.807   2.990 -1.1036 -0.1278 -2.9512
 1919TIP3   OH2 5762   4.866   5.817   1.078  0.2113 -0.6413 -0.0323
 1919TIP3    H1 5763   4.860   5.911   1.062 -0.1174 -0.2057  2.2968
 1919TIP3    H2 5764   4.784   5.795   1.123 -0.1106 -2.2385 -1.3265
 1920TIP3   OH2 5765   5.721   2.765   5.020  0.0741 -0.0505 -0.4566
 1920TIP3    H1 5766   5.645   2.788   4.965  0.0989 -1.2504 -1.0424
 1920TIP3    H2 5767   5.732   2.839   5.078 -0.4385  0.9431 -1.5780
 1921TIP3   OH2 5768   5.633   1.453   2.708 -0.4577  0.0021  0.2116
 1921TIP3    H1 5769   5.666   1.435   2.620  1.1748  0.5831  0.6814
 1921TIP3    H2 5770   5.604   1.368   2.740 -1.2829 -0.1810 -0.9533
 1922TIP3   OH2 5771   2.524   0.032   4.173  0.2001 -0.1663 -0.2618
 1922TIP3    H1 5772   2.450   0.031   4.234  0.3389 -1.2993 -0.0738
 1922TIP3    H2 5773   2.602   0.033   4.228  0.3274  0.0989 -0.4429
 1923TIP3   OH2 5774   1.736   4.408   0.826  0.0995  0.0472 -0.6253
 1923TIP3    H1 5775   1.670   4.365   0.771  0.6377 -3.0196  0.8926
 1923TIP3    H2 5776   1.803   4.438   0.764 -0.6751 -0.6953 -1.8604
 1924TIP3   OH2 5777   0.556   5.976   0.685 -0.5565  0.8092 -0.0631
 1924TIP3    H1 5778   0.630   5.998   0.742  0.2389 -1.3812 -0.1300
 1924TIP3    H2 5779   0.509   5.907   0.732 -1.0382  0.3478 -1.1754
 1925TIP3   OH2 5780   1.193   2.886   0.601 -0.1229 -0.5537  0.6162
 1925TIP3    H1 5781   1.282   2.880   0.636 -0.6484 -0.9530  1.9560
 1925TIP3    H2 5782   1.137   2.872   0.677 -1.3312 -0.9486 -0.3226
 1926TIP3   OH2 5783   4.458   0.120   2.380 -0.0113 -0.2863 -0.2878
 1926TIP3    H1 5784   4.369   0.090   2.366 -0.2067  0.6182 -1.1103
 1926TIP3    H2 5785   4.469   0.193   2.318  1.5997 -0.9872 -0.8783
 1927TIP3   OH2 5786   5.141   1.667   3.063 -0.1359 -0.4119  0.2494
 1927TIP3    H1 5787   5.184   1.600   3.115  1.5344 -0.4567 -1.1029
 1927TIP3    H2 5788   5.200   1.742   3.068  0.1061 -0.4420 -1.5920
 1928TIP3   OH2 5789   1.814   2.493   0.187 -0.1191 -0.0342 -0.5702
 1928TIP3    H1 5790   1.908   2.477   0.195 -0.0379  0.5985 -0.2141
 1928TIP3    H2 5791   1.777   2.406   0.168  0.2341 -0.8050  1.9085
 1929TIP3   OH2 5792   3.695   1.453   3.683 -1.0010 -0.1693 -0.3813
 1929TIP3    H1 5793   3.705   1.361   3.708  0.8231  0.0338 -0.2244
 1929TIP3    H2 5794   3.722   1.502   3.761  0.3781  0.4767 -1.2336
 1930TIP3   OH2 5795   1.769   3.468   2.789 -0.1268  0.6265 -0.1044
 1930TIP3    H1 5796   1.826   3.545   2.790  2.7806 -1.3424 -0.0250
 1930TIP3    H2 5797   1.812   3.408   2.728 -0.4531 -2.1503  2.1863
 1931TIP3   OH2 5798   0.685   1.659   2.031  0.1116  0.0297  0.7697
 1931TIP3    H1 5799   0.646   1.731   1.981 -0.0975 -0.4090  0.2982
 1931TIP3    H2 5800   0.779   1.676   2.028  0.0255  0.6002  1.1531
 1932TIP3   OH2 5801   5.868   2.780   4.268  0.0427  0.0892  0.3730
 1932TIP3    H1 5802   5.858   2.697   4.315 -0.4602  0.6104  1.2106
 1932TIP3    H2 5803   5.785   2.826   4.283 -0.8946 -0.4366 -2.5056
 1933TIP3   OH2 5804   0.504   5.320   1.643 -0.1723 -0.2447 -0.4632
 1933TIP3    H1 5805   0.574   5.379   1.671 -0.2354 -0.9721  1.2939
 1933TIP3    H2 5806   0.535   5.285   1.559  2.6620 -2.1900  1.2030
 1934TIP3   OH2 5807   0.832   1.893   3.173 -0.1274  0.4132 -0.0980
 1934TIP3    H1 5808   0.805   1.896   3.081 -1.6326  2.9101  0.3442
 1934TIP3    H2 5809   0.923   1.923   3.172  0.4734 -1.2458 -0.8675
 1935TIP3   OH2 5810   1.460   1.283   2.416 -0.1274 -0.8049 -0.5803
 1935TIP3    H1 5811   1.371   1.247   2.419 -0.5087  0.1482  0.2377
 1935TIP3    H2 5812   1.462   1.348   2.487  1.3485 -1.0801 -0.3373
 1936TIP3   OH2 5813   5.174   2.748   4.740  0.8146  0.2533  0.0160
 1936TIP3    H1 5814   5.256   2.745   4.690  0.0412  0.1529 -1.3064
 1936TIP3    H2 5815   5.182   2.677   4.804  1.2136 -0.6488 -0.9987
 1937TIP3   OH2 5816   2.070   3.475   3.208  0.1694  0.2802 -0.5415
 1937TIP3    H1 5817   2.058   3.390   3.167  0.7820  0.2940 -0.7471
 1937TIP3    H2 5818   2.128   3.458   3.282  0.6968  0.6017 -0.8767
 1938TIP3   OH2 5819   2.633   2.649   2.612  1.1370 -0.0717 -0.3972
 1938TIP3    H1 5820   2.673   2.697   2.685  0.8071  0.9830 -0.9019
 1938TIP3    H2 5821   2.679   2.680   2.534  0.1255  0.3151 -0.8564
 1939TIP3   OH2 5822   5.691   1.787   3.285 -0.2153  0.1064 -0.6646
 1939TIP3    H1 5823   5.702   1.786   3.190  0.2990  3.1107 -0.7508
 1939TIP3    H2 5824   5.597   1.773   3.298 -0.5739  1.2485 -1.7638
 1940TIP3   OH2 5825   3.323   2.890   1.289 -0.7311  0.3432 -0.3236
 1940TIP3    H1 5826   3.351   2.977   1.318  0.8522  0.3357 -1.6792
 1940TIP3    H2 5827   3.253   2.906   1.226  0.9175  0.7961 -2.1050
 1941TIP3   OH2 5828   4.340   4.543   4.449  0.6935  0.0565 -0.1844
 1941TIP3    H1 5829   4.279   4.469   4.457  0.4667 -0.3789 -3.9988
 1941TIP3    H2 5830   4.287   4.613   4.410  1.7096  1.1050  0.2827
 1942TIP3   OH2 5831   2.904   1.064   4.586 -0.1787 -0.2827  0.2728
 1942TIP3    H1 5832   2.985   1.052   4.538 -0.9288  0.3452 -1.2000
 1942TIP3    H2 5833   2.851   1.121   4.531 -2.5411 -2.4802  0.0576
 1943TIP3   OH2 5834   0.434   3.173   0.190 -0.3311  0.3538 -0.6325
 1943TIP3    H1 5835   0.408   3.256   0.150 -1.0603  0.1022 -0.6850
 1943TIP3    H2 5836   0.511   3.146   0.140  0.3041  1.3075 -0.2070
 1944TIP3   OH2 5837   3.376   5.975   4.190  0.6360  0.2613 -0.0339
 1944TIP3    H1 5838   3.414   5.894   4.155  1.6874  0.0042  1.5835
 1944TIP3    H2 5839   3.357   5.954   4.281  0.1188  1.5899  0.1736
 1945TIP3   OH2 5840   1.781   5.527   0.273  0.1298  0.2732 -0.3792
 1945TIP3    H1 5841   1.810   5.523   0.181 -1.4923  2.2444 -1.0553
 1945TIP3    H2 5842   1.696   5.483   0.273 -0.7261  1.8272 -0.2801
 1946TIP3   OH2 5843   4.219   3.835   0.744  0.2884 -0.7477  0.1344
 1946TIP3    H1 5844   4.239   3.843   0.651 -2.7664 -0.3368 -0.5993
 1946TIP3    H2 5845   4.197   3.743   0.756 -0.8442 -0.4974  0.0651
 1947TIP3   OH2 5846   3.437   4.442   2.287 -0.3268 -0.3163 -0.0223
 1947TIP3    H1 5847   3.475   4.462   2.373  2.1689  1.6686 -1.4392
 1947TIP3    H2 5848   3.368   4.507   2.275 -0.0413  0.0210  0.1332
 1948TIP3   OH2 5849   0.750   5.230   4.977  0.2885  0.4045 -0.5834
 1948TIP3    H1 5850   0.819   5.164   4.988 -0.1563  0.0533  0.1387
 1948TIP3    H2 5851   0.707   5.205   4.895  1.2274  0.8325 -1.2300
 1949TIP3   OH2 5852   1.200   4.387   3.032 -0.3953  0.3554 -0.0625
 1949TIP3    H1 5853   1.128   4.412   3.089  0.5341 -1.4295  2.0852
 1949TIP3    H2 5854   1.258   4.463   3.032 -0.5081  0.4655  1.2747
 1950TIP3   OH2 5855   1.150   5.542   0.291  0.0355  0.1799 -0.2242
 1950TIP3    H1 5856   1.170   5.459   0.335 -2.6174 -0.0441  0.7273
 1950TIP3    H2 5857   1.223   5.600   0.316  1.3972 -1.5265 -0.0549
 1951TIP3   OH2 5858   2.765   1.666   1.263 -0.2898 -0.8759 -0.2789
 1951TIP3    H1 5859   2.799   1.646   1.176 -1.5946  0.0928 -1.0527
 1951TIP3    H2 5860   2.760   1.581   1.307 -1.9080 -1.7494 -2.0167
 1952TIP3   OH2 5861   5.504   4.812   4.151 -0.3058  0.4722 -0.3806
 1952TIP3    H1 5862   5.466   4.768   4.075 -0.8942  2.3747 -1.2581
 1952TIP3    H2 5863   5.486   4.753   4.224 -1.0736 -0.7142 -1.4802
 1953TIP3   OH2 5864   0.522   4.048   2.693  0.2432 -0.3293  0.5081
 1953TIP3    H1 5865   0.514   3.978   2.629 -1.2661  0.6373 -0.4375
 1953TIP3    H2 5866   0.599   4.097   2.666  1.2627 -1.5343  1.1306
 1954TIP3   OH2 5867   0.564   4.012   4.064 -0.4031  0.1713  0.0517
 1954TIP3    H1 5868   0.505   3.936   4.058  0.5318 -0.5794  0.1312
 1954TIP3    H2 5869   0.542   4.053   4.147  1.0198 -1.7109  1.4500
 1955TIP3   OH2 5870   6.187   4.140   0.904 -0.2701  0.2004 -0.1635
 1955TIP3    H1 5871   6.206   4.209   0.841 -0.3496 -1.2859 -1.9161
 1955TIP3    H2 5872   6.233   4.063   0.870  0.9617 -0.3446  2.4412
 1956TIP3   OH2 5873   0.068   0.545   3.497 -0.6701  0.2086 -0.3594
 1956TIP3    H1 5874   0.051   0.451   3.500 -1.0012  0.1635 -2.2131
 1956TIP3    H2 5875   0.008   0.583   3.560 -0.8355 -0.7838  0.0985
 1957TIP3   OH2 5876   5.188   4.876   1.132  0.3430  0.4377 -0.9464
 1957TIP3    H1 5877   5.094   4.892   1.138  0.6323  1.8846  0.8189
 1957TIP3    H2 5878   5.228   4.955   1.168  2.2440 -0.2107 -1.5099
 1958TIP3   OH2 5879   6.120   4.147   4.405 -0.2871  0.2412 -0.3302
 1958TIP3    H1 5880   6.094   4.229   4.448  1.3772  0.0667  1.1236
 1958TIP3    H2 5881   6.131   4.085   4.478 -0.7000 -1.0420 -1.3357
 1959TIP3   OH2 5882   5.587   5.900   3.783  0.2524  0.2825  0.6945
 1959TIP3    H1 5883   5.560   5.895   3.691 -3.1023  0.9407  1.5360
 1959TIP3    H2 5884   5.605   5.993   3.798 -1.0374  0.4661  1.1481
 1960TIP3   OH2 5885   6.095   2.278   3.366 -0.0061 -0.1628 -0.1510
 1960TIP3    H1 5886   6.023   2.340   3.368  0.0121 -0.1580  0.2538
 1960TIP3    H2 5887   6.112   2.264   3.272 -0.7775 -0.4504 -0.2547
 1961TIP3   OH2 5888   4.682   1.617   2.783  0.2602 -0.2143  0.0654
 1961TIP3    H1 5889   4.745   1.594   2.715  0.3229 -0.2318  0.1307
 1961TIP3    H2 5890   4.735   1.648   2.856  0.3074 -2.1342  0.8885
 1962TIP3   OH2 5891   0.007   0.290   5.050 -0.5874  0.3939  0.6896
 1962TIP3    H1 5892  -0.025   0.314   4.963  0.2416  1.3094  0.6231
 1962TIP3    H2 5893   0.076   0.226   5.033 -0.4870  0.5053  0.6755
 1963TIP3   OH2 5894   0.942   5.053   5.076 -0.2105 -0.5798  0.3813
 1963TIP3    H1 5895   1.035   5.075   5.082 -0.1179 -0.9261  0.2236
 1963TIP3    H2 5896   0.930   4.984   5.142  0.1329 -2.1542 -1.1190
 1964TIP3   OH2 5897   5.342   4.308   5.065  0.2203 -0.1541 -0.1873
 1964TIP3    H1 5898   5.384   4.336   4.984 -0.0022 -0.0792 -0.2760
 1964TIP3    H2 5899   5.250   4.295   5.042  0.6565 -2.9945 -0.6614
 1965TIP3   OH2 5900   4.996   1.131   4.507  0.5748 -0.1261  0.2470
 1965TIP3    H1 5901   4.917   1.145   4.559  0.3015 -0.8999  0.0477
 1965TIP3    H2 5902   5.058   1.092   4.569  0.7014  0.1908  0.3232
 1966TIP3   OH2 5903   2.610   4.205   3.754 -0.5559 -0.0164 -0.6199
 1966TIP3    H1 5904   2.649   4.246   3.831  1.8288 -0.6263 -1.4312
 1966TIP3    H2 5905   2.659   4.124   3.742 -1.1824 -0.1791 -2.4955
 1967TIP3   OH2 5906   2.594   1.033   2.512 -0.3409  0.0826  0.2304
 1967TIP3    H1 5907   2.566   1.124   2.504  0.4960  0.2257 -1.4568
 1967TIP3    H2 5908   2.527   0.983   2.466 -0.5461 -0.1086  0.7347
 1968TIP3   OH2 5909   5.019   0.901   1.538  0.3232 -0.4046 -0.2475
 1968TIP3    H1 5910   4.987   0.991   1.549  0.1886 -0.5949  0.9432
 1968TIP3    H2 5911   4.958   0.862   1.475  0.9797  0.6178 -1.5964
 1969TIP3   OH2 5912   1.027   5.745   2.868  0.3847  0.7198  0.0697
 1969TIP3    H1 5913   1.103   5.691   2.888  0.4212  0.7391 -0.0170
 1969TIP3    H2 5914   1.050   5.790   2.787  0.6146  1.3525  0.4786
 1970TIP3   OH2 5915   0.223   3.825   1.174  0.4978 -0.0769  0.3919
 1970TIP3    H1 5916   0.129   3.839   1.166  0.8815  1.7304 -2.1550
 1970TIP3    H2 5917   0.233   3.778   1.257 -2.6506 -0.7296  0.5383
 1971TIP3   OH2 5918   4.678   4.996   3.713 -0.1285  0.0075  0.1309
 1971TIP3    H1 5919   4.667   4.955   3.628 -0.5799 -1.0018  0.6629
 1971TIP3    H2 5920   4.734   5.072   3.696  1.5299 -1.3506 -0.7251
 1972TIP3   OH2 5921   2.611   5.286   1.854  0.2997  0.0282  0.3915
 1972TIP3    H1 5922   2.657   5.335   1.922  1.9059 -0.1743 -0.5261
 1972TIP3    H2 5923   2.569   5.214   1.902 -1.5610  1.8425  1.6582
 1973TIP3   OH2 5924   4.694   5.102   0.807 -0.3524 -0.0882  0.6704
 1973TIP3    H1 5925   4.700   5.129   0.715  2.2078 -1.6471  0.2768
 1973TIP3    H2 5926   4.657   5.014   0.804 -0.3896 -0.0895  1.1558
 1974TIP3   OH2 5927   3.699   2.565   0.565 -0.3136 -0.6764  0.0621
 1974TIP3    H1 5928   3.668   2.631   0.627 -0.8839 -0.1631 -0.7607
 1974TIP3    H2 5929   3.619   2.526   0.530 -0.0383  0.0540 -1.4452
 1975TIP3   OH2 5930   0.260   4.805   2.733  0.0239  0.3036 -0.3054
 1975TIP3    H1 5931   0.345   4.761   2.739  0.0351  0.4788  1.1039
 1975TIP3    H2 5932   0.281   4.896   2.713  0.1700  0.3524  0.0674
 1976TIP3   OH2 5933   5.040   3.647   1.236 -0.1371  0.5474 -0.2395
 1976TIP3    H1 5934   5.100   3.572   1.233  1.0533  1.4517  0.1053
 1976TIP3    H2 5935   4.971   3.624   1.174  0.0796 -0.9185  0.0115
 1977TIP3   OH2 5936   5.796   1.444   3.403  0.1476 -0.6333  0.5166
 1977TIP3    H1 5937   5.884   1.410   3.421  0.9840  1.0447 -0.1498
 1977TIP3    H2 5938   5.802   1.477   3.313 -1.0844 -0.2370  0.5732
 1978TIP3   OH2 5939   4.921   3.909   0.421  0.5510  0.4791  0.1264
 1978TIP3    H1 5940   4.864   3.942   0.351  0.9487  0.1513 -0.3556
 1978TIP3    H2 5941   4.863   3.857   0.476  0.2071  0.8434  0.1176
 1979TIP3   OH2 5942   1.912   0.461   0.029  0.0889 -0.3082  0.1390
 1979TIP3    H1 5943   1.908   0.553   0.056 -0.4933 -0.6560  1.3247
 1979TIP3    H2 5944   2.001   0.433   0.049  0.2456 -0.0267 -0.1570
 1980TIP3   OH2 5945   5.150   1.353   1.274 -0.2411 -0.3581  0.7435
 1980TIP3    H1 5946   5.059   1.382   1.278  0.4216  1.8846  1.0760
 1980TIP3    H2 5947   5.179   1.351   1.365 -0.2690 -2.3509  0.7591
 1981TIP3   OH2 5948   6.090   3.304   4.904  0.1127 -0.3442  0.0385
 1981TIP3    H1 5949   6.049   3.222   4.931  1.2616 -0.3680  1.8581
 1981TIP3    H2 5950   6.029   3.372   4.933  0.4491 -0.4594  1.0548
 1982TIP3   OH2 5951   2.017   3.302   4.280 -0.5022 -0.3041 -0.0003
 1982TIP3    H1 5952   2.056   3.222   4.315 -0.9494 -0.1803  0.8052
 1982TIP3    H2 5953   2.005   3.358   4.357 -1.0760  0.1577 -0.4225
 1983TIP3   OH2 5954   2.118   1.242   2.550  0.5252  0.2058  0.3967
 1983TIP3    H1 5955   2.182   1.184   2.591 -0.3805 -0.9470  0.2286
 1983TIP3    H2 5956   2.102   1.204   2.464  0.3469  1.0522  0.0422
 1984TIP3   OH2 5957   3.238   3.601   1.199  0.0398  0.3376  0.1123
 1984TIP3    H1 5958   3.296   3.533   1.164 -0.1927  0.4717 -0.5489
 1984TIP3    H2 5959   3.191   3.635   1.123  0.0312  1.1315  0.4574
 1985TIP3   OH2 5960   4.719   5.834   2.511 -0.1427  0.6266 -0.3530
 1985TIP3    H1 5961   4.676   5.792   2.437 -0.7149  0.0379  0.2983
 1985TIP3    H2 5962   4.657   5.902   2.538 -0.4190  0.1544  0.2260
 1986TIP3   OH2 5963   0.023   3.205   2.106  0.3128  0.2185  0.2967
 1986TIP3    H1 5964   0.002   3.132   2.164 -0.1455 -0.2734 -0.4613
 1986TIP3    H2 5965  -0.024   3.279   2.143  0.8843  0.1683  1.1456
 1987TIP3   OH2 5966   2.298   1.505   0.867  0.2382  0.2003 -0.1290
 1987TIP3    H1 5967   2.216   1.499   0.818  0.6477 -0.8386 -0.7098
 1987TIP3    H2 5968   2.331   1.415   0.871  0.3605  0.2961  1.8366
 1988TIP3   OH2 5969   2.616   5.347   2.725  0.0218 -0.5647 -0.5758
 1988TIP3    H1 5970   2.639   5.387   2.641  0.2379  0.7873  0.0942
 1988TIP3    H2 5971   2.579   5.419   2.776  0.9467 -1.0867  0.8920
 1989TIP3   OH2 5972   0.778   0.644   3.889  0.2455 -0.8521  0.0160
 1989TIP3    H1 5973   0.798   0.733   3.862  4.1535 -1.1043  1.4606
 1989TIP3    H2 5974   0.736   0.653   3.974  2.4653 -0.3069  1.1253
 1990TIP3   OH2 5975   0.926   2.338   1.358  0.0381 -0.8398  0.5895
 1990TIP3    H1 5976   0.975   2.308   1.281 -0.5174 -0.8619  0.2422
 1990TIP3    H2 5977   0.992   2.382   1.413  0.2236  0.2221 -0.4482
 1991TIP3   OH2 5978   4.102   3.483   1.326  0.4468  0.0638  0.2340
 1991TIP3    H1 5979   4.069   3.522   1.245 -1.0102 -0.9636  0.2988
 1991TIP3    H2 5980   4.081   3.547   1.394  0.0700  0.1508  0.0392
 1992TIP3   OH2 5981   2.489   0.892   1.105  0.0598 -0.4056  0.1089
 1992TIP3    H1 5982   2.406   0.888   1.058  0.3953 -0.4473 -0.4881
 1992TIP3    H2 5983   2.555   0.901   1.036  0.5143  0.0890  0.6021
 1993TIP3   OH2 5984   2.043   4.081   2.367  0.3012 -0.1838 -0.8519
 1993TIP3    H1 5985   1.950   4.061   2.356  0.0965 -0.1779  0.7066
 1993TIP3    H2 5986   2.086   3.996   2.361  0.0767 -0.3295 -0.4036
 1994TIP3   OH2 5987   2.584   1.884   3.583 -0.0165  0.3564 -0.3850
 1994TIP3    H1 5988   2.606   1.804   3.534 -0.4683 -0.1729  0.2549
 1994TIP3    H2 5989   2.650   1.948   3.556  0.8936 -0.5005 -0.2375
 1995TIP3   OH2 5990   5.644   1.234   4.567 -0.1976 -0.0059  0.4539
 1995TIP3    H1 5991   5.635   1.159   4.626 -1.6784  0.4189  0.8018
 1995TIP3    H2 5992   5.661   1.195   4.481 -0.0426 -0.6990  0.7914
 1996TIP3   OH2 5993   3.202   5.176   0.978 -0.5690  0.2475 -0.7238
 1996TIP3    H1 5994   3.165   5.260   1.004 -2.0673 -0.8802  1.0334
 1996TIP3    H2 5995   3.165   5.113   1.040  3.9842 -1.1011  1.0136
 1997TIP3   OH2 5996   2.704   0.880   0.436  0.1260 -0.1428  0.1278
 1997TIP3    H1 5997   2.764   0.811   0.463 -0.1054 -0.6146 -0.5391
 1997TIP3    H2 5998   2.758   0.942   0.387  0.7424  1.1939  2.3432
 1998TIP3   OH2 5999   5.980   4.394   4.516  0.3297 -0.1740  0.2025
 1998TIP3    H1 6000   5.902   4.392   4.460 -0.1523  1.2485  0.7617
 1998TIP3    H2 6001   5.947   4.409   4.604  1.2221  0.4235  0.4594
 1999TIP3   OH2 6002   2.724   2.134   4.845  0.3615 -0.3435 -0.3429
 1999TIP3    H1 6003   2.772   2.172   4.920 -0.9429  0.1606  0.2599
 1999TIP3    H2 6004   2.710   2.208   4.786 -3.7658  0.7080  1.6453
 2000TIP3   OH2 6005   2.732   0.678   3.293  0.8646 -0.1117  0.7986
 2000TIP3    H1 6006   2.665   0.735   3.329  2.1645  2.0376 -0.0075
 2000TIP3    H2 6007   2.684   0.616   3.238 -0.4645  1.3628  0.2446
 2001TIP3   OH2 6008   3.030   0.339   2.165  0.2487  1.0740 -0.5743
 2001TIP3    H1 6009   2.951   0.347   2.219  0.9118  0.7839  0.4865
 2001TIP3    H2 6010   3.096   0.391   2.212  0.4306  2.2195 -2.0152
 2002TIP3   OH2 6011   0.275   2.674   2.280  0.4018 -0.4765  0.0145
 2002TIP3    H1 6012   0.329   2.752   2.279  0.4130 -0.4890 -0.5214
 2002TIP3    H2 6013   0.292   2.631   2.196 -2.1532  0.6939 -1.2210
 2003TIP3   OH2 6014   2.820   3.017   4.850  1.1129 -0.3008  0.0565
 2003TIP3    H1 6015   2.837   3.020   4.944 -0.8159  0.7685  0.4368
 2003TIP3    H2 6016   2.807   3.109   4.825  2.5930 -0.4484 -1.5090
 2004TIP3   OH2 6017   0.908   3.653   0.043  0.1278  0.5452  0.4085
 2004TIP3    H1 6018   0.832   3.598   0.062  0.8818 -0.5659  0.3173
 2004TIP3    H2 6019   0.897   3.729   0.101 -1.0161  0.3899  0.4261
 2005TIP3   OH2 6020   6.017   1.225   4.821 -0.2046 -0.1302  0.1604
 2005TIP3    H1 6021   5.984   1.213   4.910 -0.9752  0.2987 -0.0616
 2005TIP3    H2 6022   6.040   1.136   4.793 -2.2742 -0.6576 -0.0835
 2006TIP3   OH2 6023   3.807   1.644   0.353 -0.7454  0.1287 -0.4438
 2006TIP3    H1 6024   3.870   1.573   0.342  0.2978  1.1314 -1.2440
 2006TIP3    H2 6025   3.765   1.652   0.267 -1.2566  0.1199 -0.1965
 2007TIP3   OH2 6026   2.690   3.727   2.566 -0.7236 -0.0194 -0.3755
 2007TIP3    H1 6027   2.650   3.748   2.482 -0.5963 -1.6400 -0.8768
 2007TIP3    H2 6028   2.754   3.797   2.581 -0.7830  0.3156 -1.5994
 2008TIP3   OH2 6029   3.917   0.348   4.338 -0.3214 -0.0149 -0.2425
 2008TIP3    H1 6030   3.852   0.347   4.267  1.6476  1.7477 -2.2173
 2008TIP3    H2 6031   4.000   0.332   4.294  1.1848  2.7241  1.3748
 2009TIP3   OH2 6032   2.670   2.981   3.209 -0.2247  0.5936 -0.3036
 2009TIP3    H1 6033   2.728   2.981   3.285 -1.0355 -0.7351  0.3465
 2009TIP3    H2 6034   2.611   3.055   3.223  0.4415  1.1308 -0.3005
 2010TIP3   OH2 6035   2.478   3.108   2.262  0.4329  0.2657 -0.1686
 2010TIP3    H1 6036   2.541   3.174   2.234  0.9257  0.2719  0.9260
 2010TIP3    H2 6037   2.397   3.131   2.216  0.9601  0.8298 -0.8304
 2011TIP3   OH2 6038   3.825   4.233   0.430  0.0643 -0.6100 -0.5657
 2011TIP3    H1 6039   3.885   4.276   0.492 -0.1128 -1.2268  0.0461
 2011TIP3    H2 6040   3.818   4.295   0.358 -0.8616  0.8152  0.6732
 2012TIP3   OH2 6041   0.315   2.028   4.497  0.4731 -0.3964 -0.3259
 2012TIP3    H1 6042   0.349   2.102   4.446 -0.6438  2.0547  2.1983
 2012TIP3    H2 6043   0.361   1.952   4.463  1.8052  1.4536 -3.0090
 2013TIP3   OH2 6044   3.580   3.177   2.041 -0.1032 -0.4777 -0.2772
 2013TIP3    H1 6045   3.563   3.173   2.135  0.4314 -0.3252 -0.1734
 2013TIP3    H2 6046   3.656   3.120   2.028 -1.2718 -1.9915 -0.8870
 2014TIP3   OH2 6047   2.329   0.925   0.736 -0.8340  0.0504 -0.3077
 2014TIP3    H1 6048   2.341   0.956   0.646  0.5994  1.4101  0.3150
 2014TIP3    H2 6049   2.240   0.951   0.759 -1.7650 -1.5930 -1.7731
 2015TIP3   OH2 6050   1.035   1.701   1.300 -0.3302 -1.0410  0.0460
 2015TIP3    H1 6051   1.105   1.670   1.243 -1.1245 -2.3368 -0.2643
 2015TIP3    H2 6052   1.013   1.625   1.354  0.2965  0.1038  2.0040
 2016TIP3   OH2 6053   2.730   0.450   4.565 -0.2395  0.1863  1.1473
 2016TIP3    H1 6054   2.807   0.411   4.606 -0.2908  0.4214  1.4772
 2016TIP3    H2 6055   2.753   0.459   4.473  0.1067  0.2004  1.2346
 2017TIP3   OH2 6056   1.919   1.335   4.067 -0.1814 -0.4052  0.1953
 2017TIP3    H1 6057   1.942   1.267   4.005  1.3781 -0.6085  0.9610
 2017TIP3    H2 6058   1.997   1.347   4.121  0.0159  2.7196 -0.5551
 2018TIP3   OH2 6059   3.312   4.609   3.380 -0.3446  0.5212 -0.3639
 2018TIP3    H1 6060   3.318   4.522   3.340 -0.5357  0.6508 -0.6862
 2018TIP3    H2 6061   3.301   4.592   3.473  2.5039  0.2368  0.0055
 2019TIP3   OH2 6062   1.951   4.803   1.356 -0.1885 -0.2861  0.4168
 2019TIP3    H1 6063   2.010   4.733   1.329 -0.7529 -0.9598  0.8988
 2019TIP3    H2 6064   2.001   4.883   1.343  0.3744 -0.7539 -0.3893
 2020TIP3   OH2 6065   0.260   1.579   3.690 -0.5911 -0.6132  0.3597
 2020TIP3    H1 6066   0.306   1.604   3.770 -0.6629 -1.0418  0.5340
 2020TIP3    H2 6067   0.178   1.629   3.692  0.6859  1.7041 -0.9166
 2021TIP3   OH2 6068   5.145   0.996   1.834  0.2830 -0.6294 -0.7806
 2021TIP3    H1 6069   5.118   1.031   1.919  1.7204 -0.2753 -0.4523
 2021TIP3    H2 6070   5.062   0.978   1.789 -0.5144  0.7747  0.0275
 2022TIP3   OH2 6071   0.593   2.781   4.271 -0.0629  0.0779  0.2229
 2022TIP3    H1 6072   0.505   2.758   4.242  0.2114  0.3503 -0.8799
 2022TIP3    H2 6073   0.595   2.877   4.270  0.0783  0.0839  0.7852
 2023TIP3   OH2 6074   0.213   2.077   1.351 -0.0655 -0.0754  0.0782
 2023TIP3    H1 6075   0.152   2.020   1.304 -2.4340 -0.0218  2.8221
 2023TIP3    H2 6076   0.292   2.025   1.362 -0.3173 -0.9300 -1.7510
 2024TIP3   OH2 6077   4.140   3.071   0.869 -0.0136  0.7380  0.2991
 2024TIP3    H1 6078   4.178   3.012   0.934 -0.6224  1.4410  1.3149
 2024TIP3    H2 6079   4.112   3.013   0.798  0.3772 -0.0758  0.7905
 2025TIP3   OH2 6080   2.189   2.290   1.850 -0.5352 -0.0147 -0.9254
 2025TIP3    H1 6081   2.181   2.243   1.934  0.0935 -0.6359 -1.2075
 2025TIP3    H2 6082   2.208   2.380   1.875 -0.5176 -0.1602 -0.3981
 2026TIP3   OH2 6083   2.579   4.361   4.473 -0.1400  0.2369  0.0011
 2026TIP3    H1 6084   2.498   4.310   4.466  0.8358 -1.4331  0.2816
 2026TIP3    H2 6085   2.579   4.392   4.564  0.6223 -1.7854  0.7608
 2027TIP3   OH2 6086   5.546   2.494   2.160  0.0149  0.1443  0.5908
 2027TIP3    H1 6087   5.476   2.540   2.206 -0.1113  0.5727 -0.0097
 2027TIP3    H2 6088   5.549   2.408   2.201 -1.9299 -0.4570 -0.3676
 2028TIP3   OH2 6089   5.121   2.750   0.498 -0.3308 -0.1219  0.1995
 2028TIP3    H1 6090   5.093   2.817   0.437  0.6285 -0.5451 -0.7232
 2028TIP3    H2 6091   5.207   2.778   0.528  1.1880 -2.0544 -2.0239
 2029TIP3   OH2 6092   5.762   2.173   2.469 -0.0143  0.0362 -0.4942
 2029TIP3    H1 6093   5.835   2.128   2.512  0.0339  1.9345  1.5600
 2029TIP3    H2 6094   5.708   2.206   2.540 -0.5987  2.3003 -1.8886
 2030TIP3   OH2 6095   0.191   3.138   1.052 -0.0962  0.5202  0.2846
 2030TIP3    H1 6096   0.109   3.096   1.075  0.1423  0.2683  0.6768
 2030TIP3    H2 6097   0.216   3.098   0.969  1.2706 -1.8078  1.7089
 2031TIP3   OH2 6098   1.636   0.934   3.203 -0.1416 -0.1509  0.5994
 2031TIP3    H1 6099   1.616   1.013   3.253 -0.9453  0.2625 -0.3364
 2031TIP3    H2 6100   1.574   0.936   3.130  1.7819 -0.0716 -1.1167
 2032TIP3   OH2 6101   3.532   3.726   1.711 -1.0721  0.3464  0.5811
 2032TIP3    H1 6102   3.604   3.724   1.648 -0.1018 -0.5777  1.6868
 2032TIP3    H2 6103   3.472   3.658   1.680 -0.4272 -0.3520  0.8217
 2033TIP3   OH2 6104   5.691   2.984   1.841  0.1337  0.5467 -0.1955
 2033TIP3    H1 6105   5.704   2.903   1.792 -0.7817 -1.3160  2.4263
 2033TIP3    H2 6106   5.779   3.013   1.864  0.4385 -0.3321 -0.2117
 2034TIP3   OH2 6107   3.543   2.566   5.061  0.1574  0.0174  0.1077
 2034TIP3    H1 6108   3.550   2.613   5.144  1.8769 -2.2260  1.3484
 2034TIP3    H2 6109   3.492   2.488   5.082  0.4945 -0.5191 -0.9697
 2035TIP3   OH2 6110   1.930   1.006   2.340 -0.1492 -0.3325 -0.0014
 2035TIP3    H1 6111   1.889   0.954   2.271  2.0354 -1.3883 -0.5972
 2035TIP3    H2 6112   1.914   1.097   2.315  0.2141 -0.7042 -1.6973
 2036TIP3   OH2 6113   2.226   1.399   2.881 -0.5497  0.1937  0.4368
 2036TIP3    H1 6114   2.290   1.370   2.817 -0.8976 -1.5597  0.8395
 2036TIP3    H2 6115   2.273   1.463   2.935  0.0897  0.7964 -0.7787
 2037TIP3   OH2 6116   1.704   3.061   4.819  0.1657 -0.3333  0.3819
 2037TIP3    H1 6117   1.619   3.044   4.860  0.1063  0.0868  0.4388
 2037TIP3    H2 6118   1.768   3.033   4.885  0.0753 -1.2257  0.0948
 2038TIP3   OH2 6119   0.574   1.594   3.375  0.7704  0.5200 -0.1315
 2038TIP3    H1 6120   0.483   1.618   3.386  0.7249  0.3402 -0.1138
 2038TIP3    H2 6121   0.611   1.594   3.463 -0.0964 -2.9577  0.3856
 2039TIP3   OH2 6122   5.500   5.168   0.904 -0.4714 -0.3411  0.0000
 2039TIP3    H1 6123   5.431   5.165   0.970 -2.0881 -2.5069 -1.6568
 2039TIP3    H2 6124   5.476   5.101   0.840  2.7969 -0.6960 -1.0706
 2040TIP3   OH2 6125   0.180   4.225   1.052 -0.0363 -0.9984  0.2634
 2040TIP3    H1 6126   0.117   4.280   1.098 -0.0062  0.7180 -1.6112
 2040TIP3    H2 6127   0.159   4.236   0.960  0.8637 -3.1181 -0.2536
 2041TIP3   OH2 6128   2.484   4.018   0.252 -0.4417 -0.1649 -0.2650
 2041TIP3    H1 6129   2.540   3.946   0.223 -0.9453 -0.9576  0.6704
 2041TIP3    H2 6130   2.397   3.995   0.219 -0.5245  0.2186 -0.3105
 2042TIP3   OH2 6131   5.029   2.997   4.858  0.1672  0.5180  0.1897
 2042TIP3    H1 6132   5.078   2.939   4.799 -2.0188 -0.1219 -1.0823
 2042TIP3    H2 6133   5.031   3.082   4.815  3.4511  1.6297  2.0988
 2043TIP3   OH2 6134   0.850   4.791   2.229 -0.4405 -0.2701  0.0321
 2043TIP3    H1 6135   0.832   4.876   2.190  1.2295  0.3204  0.4820
 2043TIP3    H2 6136   0.864   4.733   2.154  1.6824  0.6154 -0.3224
 2044TIP3   OH2 6137   1.938   0.518   0.716 -0.0056 -0.3771 -0.2236
 2044TIP3    H1 6138   1.970   0.486   0.801 -0.0205  0.7079  0.2113
 2044TIP3    H2 6139   1.930   0.613   0.728 -0.8028 -0.3069 -1.1804
 2045TIP3   OH2 6140   4.089   4.390   1.396 -0.4148  0.8264  0.7221
 2045TIP3    H1 6141   4.158   4.324   1.395 -0.3652  0.8771  0.7962
 2045TIP3    H2 6142   4.116   4.452   1.464  1.2539  2.7478 -1.5038
 2046TIP3   OH2 6143   1.815   4.156   0.646  0.1544  0.8759  0.3639
 2046TIP3    H1 6144   1.732   4.199   0.666  0.5328  1.7814  0.0803
 2046TIP3    H2 6145   1.819   4.080   0.704 -0.1088  1.7690  1.5824
 2047TIP3   OH2 6146   1.685   2.909   3.577  0.0799  0.1120 -0.1332
 2047TIP3    H1 6147   1.706   2.994   3.538 -0.6774  0.7387  0.7704
 2047TIP3    H2 6148   1.610   2.927   3.635  0.1179 -1.1060  0.3279
 2048TIP3   OH2 6149   5.612   5.372   2.897  0.2414 -0.1555  0.4026
 2048TIP3    H1 6150   5.686   5.351   2.954  0.5353  0.0224  0.0969
 2048TIP3    H2 6151   5.640   5.451   2.850 -0.8267  0.9272  1.5156
 2049TIP3   OH2 6152   4.760   4.603   0.249 -0.4743  0.6148 -1.0592
 2049TIP3    H1 6153   4.666   4.588   0.248 -0.3419 -0.2929 -0.9895
 2049TIP3    H2 6154   4.793   4.551   0.175  0.0628  0.2455 -0.5673
 2050TIP3   OH2 6155   1.373   4.625   2.838 -0.6439 -0.2311  0.2403
 2050TIP3    H1 6156   1.393   4.643   2.930 -0.5360 -1.1390  0.4021
 2050TIP3    H2 6157   1.450   4.579   2.805 -0.0820  1.2984 -0.7067
 2051TIP3   OH2 6158   2.071   2.251   2.873 -0.0946 -0.1182 -0.2091
 2051TIP3    H1 6159   2.017   2.319   2.834  0.2260  0.1894 -0.1237
 2051TIP3    H2 6160   2.014   2.174   2.878 -0.2170 -0.0834 -1.0251
 2052TIP3   OH2 6161   0.365   2.058   2.163  0.3200  0.6140 -0.1037
 2052TIP3    H1 6162   0.372   1.983   2.223 -0.6342 -0.0558 -0.8025
 2052TIP3    H2 6163   0.308   2.120   2.208  1.4171  1.1311  0.6486
 2053TIP3   OH2 6164   4.723   0.736   3.094  0.5557  0.0988 -0.0521
 2053TIP3    H1 6165   4.629   0.725   3.081  0.6184  1.2484 -1.8324
 2053TIP3    H2 6166   4.763   0.679   3.029  1.0433  0.7888 -0.3734
 2054TIP3   OH2 6167   5.060   1.781   4.250  0.2474 -0.3880 -0.2844
 2054TIP3    H1 6168   5.044   1.866   4.292 -0.5845 -0.6610 -0.0215
 2054TIP3    H2 6169   5.054   1.799   4.156  0.8410 -0.0127 -0.2516
 2055TIP3   OH2 6170   5.568   1.163   2.358 -1.0989 -0.1467  0.4823
 2055TIP3    H1 6171   5.502   1.223   2.392 -1.3649 -0.4407  0.4861
 2055TIP3    H2 6172   5.522   1.110   2.293 -1.3377 -1.5507  1.7219
 2056TIP3   OH2 6173   6.063   1.260   0.237 -0.0484  0.3549  0.5409
 2056TIP3    H1 6174   5.975   1.298   0.245 -0.8651 -1.4502  0.4636
 2056TIP3    H2 6175   6.061   1.183   0.293  1.1051 -0.3936 -0.4040
 2057TIP3   OH2 6176   4.982   5.147   3.231  0.2098 -0.1448 -0.2980
 2057TIP3    H1 6177   4.928   5.068   3.241 -1.3455  0.9432  0.4022
 2057TIP3    H2 6178   5.060   5.130   3.284 -0.7107 -0.7087  0.9300
 2058TIP3   OH2 6179   4.706   4.045   3.350 -0.4350  0.3344 -0.5751
 2058TIP3    H1 6180   4.656   3.993   3.414  0.6934 -0.3850 -0.2569
 2058TIP3    H2 6181   4.757   3.981   3.301  1.1649  1.1316 -0.0249
 2059TIP3   OH2 6182   4.532   0.733   3.673  0.6534  0.3333 -0.2474
 2059TIP3    H1 6183   4.457   0.788   3.698  0.6349  0.6984 -1.0962
 2059TIP3    H2 6184   4.533   0.664   3.740 -0.6379  0.1393 -0.3910
 2060TIP3   OH2 6185   0.864   4.778   1.470 -0.3503  0.0104  0.2318
 2060TIP3    H1 6186   0.887   4.691   1.501  0.2598  0.2945  0.6015
 2060TIP3    H2 6187   0.786   4.765   1.416  0.9724 -1.0633 -1.5096
 2061TIP3   OH2 6188   1.076   2.617   2.764 -0.6216 -0.3542  0.3350
 2061TIP3    H1 6189   1.147   2.641   2.705 -1.4157 -2.0430 -1.4377
 2061TIP3    H2 6190   1.012   2.688   2.754 -1.2865 -1.1518 -1.9125
 2062TIP3   OH2 6191   3.211   3.237   3.006  0.1164  0.3583 -0.0879
 2062TIP3    H1 6192   3.159   3.201   2.934 -1.4307 -0.2834  1.2653
 2062TIP3    H2 6193   3.299   3.203   2.993 -0.5955 -1.3871 -0.5793
 2063TIP3   OH2 6194   4.934   4.422   2.145 -0.2404 -0.0470 -0.6097
 2063TIP3    H1 6195   4.963   4.334   2.122  0.3026  0.1655 -0.7450
 2063TIP3    H2 6196   5.014   4.474   2.147 -0.4718  0.2925  0.1567
 2064TIP3   OH2 6197   4.380   5.778   3.426  0.0828  0.1613  0.1933
 2064TIP3    H1 6198   4.344   5.704   3.475 -2.0685  1.5742  0.9055
 2064TIP3    H2 6199   4.464   5.796   3.468  1.6832 -3.0445 -1.2901
 2065TIP3   OH2 6200   3.088   5.929   4.692 -0.0590  0.4334 -0.5841
 2065TIP3    H1 6201   3.001   5.965   4.672 -0.5121 -1.1295 -1.5779
 2065TIP3    H2 6202   3.070   5.843   4.729  1.0994 -0.5064 -2.1320
 2066TIP3   OH2 6203   1.866   4.885   4.958  0.5088 -0.0083 -0.1901
 2066TIP3    H1 6204   1.953   4.863   4.926  0.3701 -2.4164  0.8873
 2066TIP3    H2 6205   1.881   4.918   5.046  0.4040  0.6568 -0.4180
 2067TIP3   OH2 6206   3.245   4.297   3.122  0.0442 -0.3251  0.2880
 2067TIP3    H1 6207   3.327   4.264   3.160  0.2070 -0.6542 -0.3230
 2067TIP3    H2 6208   3.262   4.298   3.028 -0.5223 -0.0160  0.1871
 2068TIP3   OH2 6209   1.260   0.308   0.358 -0.2456 -0.0225  0.7793
 2068TIP3    H1 6210   1.199   0.379   0.336 -0.7204 -1.4472 -3.4916
 2068TIP3    H2 6211   1.205   0.231   0.370  0.4731 -0.4002  1.7989
 2069TIP3   OH2 6212   4.284   1.305   4.348 -0.3996 -0.6480  0.0626
 2069TIP3    H1 6213   4.348   1.245   4.387 -0.0105  0.3279  0.9734
 2069TIP3    H2 6214   4.307   1.391   4.383 -0.6294  0.1382 -1.5865
 2070TIP3   OH2 6215   6.284   3.152   1.581 -0.0212 -0.5259 -0.4247
 2070TIP3    H1 6216   6.198   3.195   1.588  0.0033 -0.7460  1.6325
 2070TIP3    H2 6217   6.347   3.221   1.603  0.2834 -0.6113 -1.0099
 2071TIP3   OH2 6218   5.587   5.100   3.731  0.0096  0.0678  0.8389
 2071TIP3    H1 6219   5.667   5.108   3.782 -0.0963 -0.4247  1.0852
 2071TIP3    H2 6220   5.529   5.168   3.765  0.9514  1.6549 -0.5458
 2072TIP3   OH2 6221   5.548   1.976   4.505 -0.5885  0.2030 -0.4099
 2072TIP3    H1 6222   5.584   2.016   4.585  0.2376  0.9769 -1.1451
 2072TIP3    H2 6223   5.489   2.043   4.470 -0.4048  0.1542 -0.8172
 2073TIP3   OH2 6224   3.858   0.685   2.425  0.0425  0.0192 -0.0882
 2073TIP3    H1 6225   3.950   0.677   2.396 -0.0536 -0.2685 -0.3174
 2073TIP3    H2 6226   3.830   0.770   2.390  0.2864  0.2060  0.1659
 2074TIP3   OH2 6227   1.422   0.632   1.572  0.2536  0.3355  0.2579
 2074TIP3    H1 6228   1.454   0.667   1.655 -0.0107  0.8923  0.1295
 2074TIP3    H2 6229   1.327   0.642   1.576  0.3539  2.5820 -1.0511
 2075TIP3   OH2 6230   3.894   2.599   0.791  0.7489  0.1780 -0.0982
 2075TIP3    H1 6231   3.951   2.674   0.775 -0.7557  1.7500  1.4464
 2075TIP3    H2 6232   3.849   2.585   0.708  0.3047  1.7104 -0.1586
 2076TIP3   OH2 6233   1.876   2.734   2.028  0.3332 -0.1298  0.3432
 2076TIP3    H1 6234   1.922   2.690   2.099 -2.7381 -2.2794  1.1749
 2076TIP3    H2 6235   1.892   2.679   1.951  1.4956  0.7714 -0.1003
 2077TIP3   OH2 6236   1.879   5.386   3.810  0.2022 -0.2785 -0.3716
 2077TIP3    H1 6237   1.854   5.344   3.728 -0.0344  0.1514 -0.5220
 2077TIP3    H2 6238   1.930   5.320   3.857 -0.2744 -0.7796 -0.5518
 2078TIP3   OH2 6239   2.067   2.293   3.212  0.1671 -0.2292 -0.9210
 2078TIP3    H1 6240   2.075   2.276   3.306  0.0794 -0.3631 -0.9364
 2078TIP3    H2 6241   2.015   2.219   3.179  1.8276 -1.2488 -1.4105
 2079TIP3   OH2 6242   5.246   3.526   2.396  0.0412  0.0766 -0.0167
 2079TIP3    H1 6243   5.296   3.491   2.322  1.8661  2.3228  0.0667
 2079TIP3    H2 6244   5.156   3.533   2.362  0.8214  1.0316 -2.0686
 2080TIP3   OH2 6245   2.664   2.303   1.158 -0.2174 -0.5462  0.2615
 2080TIP3    H1 6246   2.658   2.216   1.197 -0.6371 -0.2306  0.9310
 2080TIP3    H2 6247   2.676   2.287   1.064 -2.4268 -1.3346  0.0588
 2081TIP3   OH2 6248   3.145   4.022   3.771 -0.0818 -0.4407  0.2065
 2081TIP3    H1 6249   3.238   4.001   3.762 -0.4595 -1.8655 -0.6861
 2081TIP3    H2 6250   3.114   4.031   3.681 -1.3372 -2.6712  0.3415
 2082TIP3   OH2 6251   2.463   5.705   2.434  0.0471 -0.2753  0.2410
 2082TIP3    H1 6252   2.477   5.785   2.483  1.7446  0.6564 -1.6338
 2082TIP3    H2 6253   2.369   5.707   2.412 -0.2044  0.5120  1.2943
 2083TIP3   OH2 6254   4.455   0.340   2.231  0.2187  0.5083  0.0505
 2083TIP3    H1 6255   4.453   0.352   2.136 -1.8776 -0.7519 -0.1234
 2083TIP3    H2 6256   4.373   0.378   2.262 -0.6434 -1.8479  0.9075
 2084TIP3   OH2 6257   2.395   4.183   3.184  0.0045 -0.0371  0.4290
 2084TIP3    H1 6258   2.388   4.222   3.097  1.5066 -0.2542  0.1881
 2084TIP3    H2 6259   2.435   4.097   3.169 -1.5610 -0.9299  1.1442
 2085TIP3   OH2 6260   0.075   4.869   3.840  0.3096  0.0215  0.1183
 2085TIP3    H1 6261   0.061   4.789   3.789 -0.4338  0.4698 -0.3871
 2085TIP3    H2 6262  -0.011   4.908   3.847  1.0185  2.2184 -2.0406
 2086TIP3   OH2 6263   4.203   3.740   1.739 -0.4105 -0.5187 -0.0503
 2086TIP3    H1 6264   4.264   3.811   1.722  0.7303 -1.6096 -0.6416
 2086TIP3    H2 6265   4.246   3.685   1.803 -1.2351 -0.7525  0.3201
 2087TIP3   OH2 6266   0.962   2.591   3.892  0.5414 -0.1727  0.0785
 2087TIP3    H1 6267   1.005   2.649   3.954 -0.9525  2.5121 -1.2206
 2087TIP3    H2 6268   1.015   2.596   3.813  1.0948 -1.6594  0.3176
 2088TIP3   OH2 6269   5.564   4.926   1.088  0.6900 -0.0816 -0.5682
 2088TIP3    H1 6270   5.517   4.867   1.028 -0.6131  0.2740  0.0607
 2088TIP3    H2 6271   5.497   4.955   1.150  1.3269  2.0198 -0.8173
 2089TIP3   OH2 6272   6.233   0.646   2.353 -0.3152 -0.2460  0.4533
 2089TIP3    H1 6273   6.270   0.724   2.312 -0.8943  0.1194  0.6105
 2089TIP3    H2 6274   6.295   0.576   2.332  1.2859  0.6202  1.9988
 2090TIP3   OH2 6275   1.478   3.543   4.102  0.2012 -0.1209 -0.1182
 2090TIP3    H1 6276   1.456   3.633   4.075  0.3915  0.0573  0.3177
 2090TIP3    H2 6277   1.524   3.553   4.185  3.7695 -0.2869 -1.8585
 2091TIP3   OH2 6278   5.354   0.178   3.300 -0.4508  0.7851 -0.4905
 2091TIP3    H1 6279   5.369   0.150   3.391 -0.6622  1.8884 -0.0991
 2091TIP3    H2 6280   5.346   0.096   3.251 -1.2553  0.1494  0.6424
 2092TIP3   OH2 6281   4.705   2.324   2.192 -0.2236 -0.0907 -0.3881
 2092TIP3    H1 6282   4.663   2.406   2.166 -1.3347 -1.3244 -2.7669
 2092TIP3    H2 6283   4.723   2.335   2.286 -0.6212  2.7047 -0.5568
 2093TIP3   OH2 6284   5.076   2.442   3.996  0.4977  0.4069 -0.3369
 2093TIP3    H1 6285   5.072   2.372   3.931  2.0169  0.2995 -0.3433
 2093TIP3    H2 6286   4.999   2.496   3.977  1.4605  1.0008 -2.9850
 2094TIP3   OH2 6287   3.119   1.486   4.896 -0.0087  0.1384  0.1606
 2094TIP3    H1 6288   3.126   1.579   4.874  0.7351  0.0473  0.0052
 2094TIP3    H2 6289   3.040   1.457   4.849 -0.4967  0.7853  0.5670
 2095TIP3   OH2 6290   2.695   4.438   2.599 -0.0771  0.1144  0.0263
 2095TIP3    H1 6291   2.671   4.376   2.668 -1.1753  1.5979  1.0492
 2095TIP3    H2 6292   2.684   4.388   2.518  2.2919 -2.0032  0.8757
 2096TIP3   OH2 6293   0.172   5.508   2.307  0.3706 -0.2814  0.0029
 2096TIP3    H1 6294   0.239   5.480   2.245  0.8357  0.0248  0.3596
 2096TIP3    H2 6295   0.221   5.529   2.386 -0.2911 -1.4868  0.7688
 2097TIP3   OH2 6296   2.926   3.053   3.063  0.5667 -0.3527 -0.2421
 2097TIP3    H1 6297   2.892   3.115   2.999  0.8612  0.3341  0.2641
 2097TIP3    H2 6298   2.848   3.008   3.095  0.1640  0.8685  0.5513
 2098TIP3   OH2 6299   2.698   1.523   3.095  0.6184 -0.2153  0.4263
 2098TIP3    H1 6300   2.654   1.552   3.175 -0.2229 -0.3422  0.0116
 2098TIP3    H2 6301   2.741   1.441   3.120 -0.3079 -0.6782  0.5531
 2099TIP3   OH2 6302   5.213   4.870   3.963 -0.1691 -0.1691 -0.2124
 2099TIP3    H1 6303   5.224   4.965   3.974 -0.7444 -0.0587 -0.5421
 2099TIP3    H2 6304   5.172   4.841   4.044 -2.1498  0.2505 -1.0074
 2100TIP3   OH2 6305   0.353   2.852   2.655  0.7380 -0.1957 -0.1878
 2100TIP3    H1 6306   0.312   2.929   2.695  0.2358  0.9204 -2.6615
 2100TIP3    H2 6307   0.280   2.793   2.637  0.5594  0.4904 -1.8560
 2101TIP3   OH2 6308   2.868   3.607   0.507 -0.0493  0.2438  0.2176
 2101TIP3    H1 6309   2.775   3.592   0.526  0.2743 -2.4277  0.0592
 2101TIP3    H2 6310   2.872   3.613   0.411 -0.0404  0.2083  0.2157
 2102TIP3   OH2 6311   4.871   4.169   0.251  0.2603  0.1550 -0.2361
 2102TIP3    H1 6312   4.871   4.218   0.169  0.7702 -0.0089 -0.3402
 2102TIP3    H2 6313   4.798   4.108   0.243  0.1344  0.3348 -0.4538
 2103TIP3   OH2 6314   0.259   3.639   1.767 -0.1854 -0.1599  0.0628
 2103TIP3    H1 6315   0.179   3.587   1.767 -0.7998  0.7055 -1.5542
 2103TIP3    H2 6316   0.258   3.684   1.852 -0.8190 -1.0269  0.5300
 2104TIP3   OH2 6317   3.419   1.944   2.847  0.1820  0.4433 -0.2492
 2104TIP3    H1 6318   3.334   1.963   2.807 -0.9007 -2.5986  0.2990
 2104TIP3    H2 6319   3.459   1.879   2.789 -0.3345 -2.1841  2.1006
 2105TIP3   OH2 6320   5.785   4.038   0.518  0.3605  0.2891 -0.2161
 2105TIP3    H1 6321   5.717   4.106   0.519  1.0866  1.0817  2.7226
 2105TIP3    H2 6322   5.854   4.071   0.575  3.0000 -0.8189 -2.5091
 2106TIP3   OH2 6323   3.004   1.600   3.062 -0.0434 -0.1282 -0.3525
 2106TIP3    H1 6324   3.063   1.570   3.130  1.0986  0.4116 -1.0783
 2106TIP3    H2 6325   3.056   1.662   3.010 -0.9901 -0.2389 -1.4788
 2107TIP3   OH2 6326   1.313   3.366   2.867 -0.2342 -0.0031 -0.3438
 2107TIP3    H1 6327   1.368   3.373   2.945 -0.7713 -2.1299  0.2672
 2107TIP3    H2 6328   1.350   3.293   2.817 -2.0183 -0.9918 -0.2879
 2108TIP3   OH2 6329   6.249   4.241   1.991 -0.3435  0.0554 -0.2830
 2108TIP3    H1 6330   6.198   4.272   2.066  0.2379  0.6802 -0.1409
 2108TIP3    H2 6331   6.208   4.283   1.916 -0.5204 -0.0650 -0.2577
 2109TIP3   OH2 6332   1.877   1.592   1.817  0.2055  0.3610 -0.4130
 2109TIP3    H1 6333   1.830   1.676   1.823 -2.6393 -1.1470  0.1757
 2109TIP3    H2 6334   1.894   1.567   1.908  3.0432  1.2300 -0.6136
 2110TIP3   OH2 6335   4.740   0.242   4.519 -0.0199  0.3847 -0.8667
 2110TIP3    H1 6336   4.826   0.210   4.493 -0.6068 -1.2724 -0.9061
 2110TIP3    H2 6337   4.686   0.163   4.523 -0.9905  1.0998  1.3385
 2111TIP3   OH2 6338   3.634   2.252   1.227  0.0438  0.4696 -0.9421
 2111TIP3    H1 6339   3.633   2.160   1.203  0.1580 -0.0850  1.0183
 2111TIP3    H2 6340   3.726   2.277   1.224  0.1541  0.1640 -0.2819
 2112TIP3   OH2 6341   2.641   2.571   0.913  0.1378 -0.0041 -0.3301
 2112TIP3    H1 6342   2.612   2.618   0.990  1.0607  0.2269 -0.1087
 2112TIP3    H2 6343   2.672   2.639   0.853 -0.1419 -0.2131 -0.7260
 2113TIP3   OH2 6344   4.606   4.799   2.422  0.2462 -0.2263 -0.1019
 2113TIP3    H1 6345   4.519   4.767   2.398 -0.6492  0.6159  1.8580
 2113TIP3    H2 6346   4.654   4.721   2.448  0.2754 -0.7582 -1.6232
 2114TIP3   OH2 6347   5.928   0.670   0.807  0.1910 -0.1091  0.1469
 2114TIP3    H1 6348   5.978   0.751   0.803 -0.4879  0.3581  0.8592
 2114TIP3    H2 6349   5.938   0.631   0.720  2.5641 -0.5173  0.5408
 2115TIP3   OH2 6350   0.365   0.161   1.943 -0.2091  0.0136  0.8167
 2115TIP3    H1 6351   0.431   0.164   1.874 -0.0280  0.2643  0.9967
 2115TIP3    H2 6352   0.305   0.092   1.916  1.5798 -2.1407  1.9492
 2116TIP3   OH2 6353   4.427   4.097   0.622  0.0843 -0.0282 -0.7997
 2116TIP3    H1 6354   4.478   4.171   0.588 -0.0597  0.6773  0.4815
 2116TIP3    H2 6355   4.337   4.116   0.597 -0.1643  0.9813  0.7358
 2117TIP3   OH2 6356   1.459   0.002   4.312  0.2639  0.1925  0.1043
 2117TIP3    H1 6357   1.495   0.077   4.265  1.0555  0.2122  0.7259
 2117TIP3    H2 6358   1.415  -0.049   4.245  2.6368 -0.5772 -0.9834
 2118TIP3   OH2 6359   2.612   3.924   5.045  0.0195 -0.3300 -0.6862
 2118TIP3    H1 6360   2.535   3.974   5.017  1.1627  0.4363 -2.6488
 2118TIP3    H2 6361   2.588   3.889   5.131 -1.8359  1.3644 -0.4479
 2119TIP3   OH2 6362   2.603   4.556   0.648  0.5367 -0.0896  0.7874
 2119TIP3    H1 6363   2.599   4.529   0.739  1.8819 -1.6645  0.4304
 2119TIP3    H2 6364   2.650   4.485   0.604 -2.6070 -0.8462 -1.7114
 2120TIP3   OH2 6365   2.236   1.423   1.985  0.1961  0.3963  0.7073
 2120TIP3    H1 6366   2.257   1.333   1.962  0.9777  0.7319  0.0353
 2120TIP3    H2 6367   2.266   1.433   2.076 -0.5229 -0.2003  1.0207
 2121TIP3   OH2 6368   0.337   2.650   4.515 -0.4589 -0.4254  0.6654
 2121TIP3    H1 6369   0.278   2.679   4.445 -0.1449 -1.0449  0.1356
 2121TIP3    H2 6370   0.284   2.590   4.568 -0.7238  0.1123  1.0250
 2122TIP3   OH2 6371   6.103   3.241   1.903 -0.1305 -0.3022  0.2472
 2122TIP3    H1 6372   6.084   3.320   1.853 -0.9524 -0.4037  0.3874
 2122TIP3    H2 6373   6.193   3.254   1.934 -0.8349  1.3998  1.7552
 2123TIP3   OH2 6374   5.307   1.109   0.869  0.3210 -0.0524  0.0377
 2123TIP3    H1 6375   5.290   1.046   0.939  0.6540  2.2291  2.3505
 2123TIP3    H2 6376   5.401   1.101   0.852  0.7405  0.9464  1.6203
 2124TIP3   OH2 6377   3.367   3.163   0.939  0.4763  0.5210  0.0416
 2124TIP3    H1 6378   3.392   3.215   0.863  2.7515 -2.3974 -1.4337
 2124TIP3    H2 6379   3.425   3.086   0.936 -1.0172 -0.9583  3.3508
 2125TIP3   OH2 6380   0.228   2.126   4.127  0.1551  1.0363  0.5995
 2125TIP3    H1 6381   0.320   2.119   4.154  0.2523  0.2389  0.0971
 2125TIP3    H2 6382   0.225   2.207   4.076  0.3409  1.6259  1.5017
 2126TIP3   OH2 6383   5.082   2.671   3.457 -0.4784 -0.4598  0.5750
 2126TIP3    H1 6384   4.994   2.703   3.473 -0.7528 -1.5161  1.3082
 2126TIP3    H2 6385   5.071   2.599   3.395 -0.2527 -1.2047  1.3802
 2127TIP3   OH2 6386   2.276   2.991   4.144 -0.1214  0.4553 -0.3762
 2127TIP3    H1 6387   2.188   3.023   4.127  0.4609  1.4584 -1.6662
 2127TIP3    H2 6388   2.331   3.069   4.140  0.7020  0.0355  1.6008
 2128TIP3   OH2 6389   0.516   5.377   3.180  0.1895  0.1773 -0.2277
 2128TIP3    H1 6390   0.609   5.398   3.193 -0.1481  1.2549  0.5813
 2128TIP3    H2 6391   0.472   5.462   3.178 -0.7026 -0.2826 -1.3863
 2129TIP3   OH2 6392   2.784   3.218   0.695 -0.1169 -0.2818 -0.3599
 2129TIP3    H1 6393   2.849   3.208   0.626  0.2082 -0.2230 -0.0625
 2129TIP3    H2 6394   2.835   3.231   0.775 -0.4502  2.2496 -0.4671
 2130TIP3   OH2 6395   4.639   5.342   1.777  0.4363 -0.4157 -0.2533
 2130TIP3    H1 6396   4.707   5.403   1.746  0.9704 -0.7679  0.2053
 2130TIP3    H2 6397   4.643   5.349   1.872 -2.0207  1.5794 -0.1960
 2131TIP3   OH2 6398   6.132   5.908   2.160  0.4161  0.2462 -0.6892
 2131TIP3    H1 6399   6.096   5.887   2.074  0.0321 -0.4637 -0.3664
 2131TIP3    H2 6400   6.084   5.986   2.188  1.0342  0.8996 -1.4091
 2132TIP3   OH2 6401   4.364   5.111   3.456  0.0843  0.1636 -0.0236
 2132TIP3    H1 6402   4.294   5.144   3.512 -0.2952 -0.4224 -0.1417
 2132TIP3    H2 6403   4.435   5.174   3.467 -0.0143  0.1134  1.0411
 2133TIP3   OH2 6404   3.222   0.747   0.433  0.5689  0.2988 -0.5232
 2133TIP3    H1 6405   3.158   0.679   0.449  2.8746 -1.6598  1.0677
 2133TIP3    H2 6406   3.282   0.709   0.368  0.3664  1.9412 -1.7431
 2134TIP3   OH2 6407   5.433   2.594   1.064 -0.2866  0.3293  0.2732
 2134TIP3    H1 6408   5.457   2.616   1.155 -3.1367 -0.3762  1.2960
 2134TIP3    H2 6409   5.400   2.676   1.028  1.0001  0.6489 -0.2135
 2135TIP3   OH2 6410   2.651   1.447   3.959  0.6931  0.1939  0.5408
 2135TIP3    H1 6411   2.583   1.381   3.948 -0.8577  1.7319  0.4012
 2135TIP3    H2 6412   2.704   1.440   3.879  0.2794 -0.5603  0.3183
 2136TIP3   OH2 6413   1.830   1.677   0.544  0.3594 -0.4890 -0.3843
 2136TIP3    H1 6414   1.843   1.616   0.471 -1.0413  0.3315 -1.3800
 2136TIP3    H2 6415   1.889   1.750   0.525  1.6106 -1.2342  0.5025
 2137TIP3   OH2 6416   3.471   5.856   3.045  0.5302 -0.2097 -0.5301
 2137TIP3    H1 6417   3.509   5.805   3.117 -0.0041 -0.4527 -0.4208
 2137TIP3    H2 6418   3.530   5.931   3.036  0.5331 -0.1173  0.2342
 2138TIP3   OH2 6419   2.836   0.559   1.403 -0.0905  0.3491 -0.3593
 2138TIP3    H1 6420   2.842   0.463   1.404  2.7674  0.3214 -3.1783
 2138TIP3    H2 6421   2.893   0.587   1.474 -1.5991  0.0178  1.0276
 2139TIP3   OH2 6422   4.343   5.460   2.480  0.6613  0.1894  0.0346
 2139TIP3    H1 6423   4.289   5.508   2.542 -1.6599 -1.0955 -0.8424
 2139TIP3    H2 6424   4.393   5.398   2.534 -0.2480  0.0501  0.7338
 2140TIP3   OH2 6425   3.485   1.526   4.720  0.0424 -0.1005 -0.2025
 2140TIP3    H1 6426   3.568   1.505   4.763  1.9345 -0.5904 -3.7259
 2140TIP3    H2 6427   3.426   1.454   4.746  0.4063  0.5228  2.7601
 2141TIP3   OH2 6428   5.081   0.453   0.204 -0.2622 -0.3170  0.0981
 2141TIP3    H1 6429   5.062   0.534   0.252 -0.8263 -0.8603  0.8024
 2141TIP3    H2 6430   5.136   0.482   0.131 -2.7177  1.1369 -1.3308
 2142TIP3   OH2 6431   1.589   5.958   0.388 -0.1908 -0.3128 -0.2064
 2142TIP3    H1 6432   1.521   5.920   0.333 -1.1592 -0.2610  0.9079
 2142TIP3    H2 6433   1.573   6.053   0.385  0.4607 -0.2099 -0.7246
 2143TIP3   OH2 6434   6.073   0.535   2.076 -0.5641 -0.1914  0.0287
 2143TIP3    H1 6435   6.122   0.503   2.000 -0.0251 -0.5886  0.5266
 2143TIP3    H2 6436   6.085   0.630   2.074  0.0447 -0.2649  0.0107
 2144TIP3   OH2 6437   2.717   5.817   2.013  0.0892  0.6317 -0.4389
 2144TIP3    H1 6438   2.805   5.789   2.039  0.4131  2.0719  0.0963
 2144TIP3    H2 6439   2.732   5.898   1.963 -0.9898  1.5083  0.6003
 2145TIP3   OH2 6440   1.706   2.923   1.941 -0.0418  0.6317 -0.0938
 2145TIP3    H1 6441   1.777   2.864   1.964 -0.7228  0.1843  0.9419
 2145TIP3    H2 6442   1.707   2.990   2.009 -1.2348  0.0540  0.5191
 2146TIP3   OH2 6443   4.556   3.307   0.711  0.1246 -0.0323 -0.0075
 2146TIP3    H1 6444   4.585   3.295   0.801 -1.9172 -1.1808  0.5643
 2146TIP3    H2 6445   4.484   3.245   0.700 -0.1231  0.5413 -2.2314
 2147TIP3   OH2 6446   1.191   1.816   4.132  0.3781 -0.3768  0.2762
 2147TIP3    H1 6447   1.211   1.907   4.153  1.7745 -0.5300 -0.2713
 2147TIP3    H2 6448   1.125   1.790   4.196  1.8304  0.2576  2.1207
 2148TIP3   OH2 6449   4.016   4.232   3.367 -0.3107 -0.9049 -0.6071
 2148TIP3    H1 6450   4.060   4.184   3.297  0.9555 -0.5596 -0.0974
 2148TIP3    H2 6451   3.997   4.166   3.433 -0.8792 -1.1157 -0.9773
 2149TIP3   OH2 6452   5.982   4.667   4.918 -0.5451 -0.0384 -0.0947
 2149TIP3    H1 6453   6.013   4.689   4.830  1.7726 -3.4207 -0.2993
 2149TIP3    H2 6454   5.981   4.751   4.965  3.5314  1.2154 -1.8064
 2150TIP3   OH2 6455   5.970   5.713   1.185 -0.1606  0.4719  0.3063
 2150TIP3    H1 6456   5.983   5.619   1.195  1.3537  0.7307  1.1484
 2150TIP3    H2 6457   6.052   5.752   1.216 -0.3991  2.0340 -0.8993
 2151TIP3   OH2 6458   0.989   4.677   3.502 -0.0290 -0.6360 -0.3970
 2151TIP3    H1 6459   0.973   4.605   3.562  1.8500 -0.0407  0.9043
 2151TIP3    H2 6460   0.925   4.744   3.528 -0.8153 -1.2551 -0.6751
 2152TIP3   OH2 6461   5.077   5.737   1.811 -0.2960 -0.0322 -0.6152
 2152TIP3    H1 6462   5.076   5.748   1.906  0.0885 -3.7479 -0.0252
 2152TIP3    H2 6463   4.993   5.695   1.791  0.3647 -0.9385 -1.6070
 2153TIP3   OH2 6464   0.297   5.219   3.838  0.2079  0.2283 -0.5619
 2153TIP3    H1 6465   0.282   5.154   3.907  1.4686 -2.5140 -2.6398
 2153TIP3    H2 6466   0.382   5.194   3.801  0.6081  2.9520 -1.6874
 2154TIP3   OH2 6467   5.115   4.912   3.709  0.1658 -0.1235 -0.0381
 2154TIP3    H1 6468   5.024   4.939   3.721 -0.0326 -1.1525  0.9871
 2154TIP3    H2 6469   5.146   4.893   3.798  0.5599 -2.2633 -0.5719
 2155TIP3   OH2 6470   0.973   4.953   3.685 -0.2644 -0.4350 -0.1665
 2155TIP3    H1 6471   0.883   4.921   3.689 -0.7303  0.7541 -0.7917
 2155TIP3    H2 6472   0.994   4.979   3.774 -1.4578  1.6797 -0.4538
 2156TIP3   OH2 6473   0.780   5.377   3.192 -0.4432 -0.2496 -0.4082
 2156TIP3    H1 6474   0.860   5.343   3.233 -0.5029 -0.5729 -0.5528
 2156TIP3    H2 6475   0.805   5.394   3.101 -0.7805 -1.2533 -0.7034
 2157TIP3   OH2 6476   3.844   2.031   1.944 -0.2104  0.0707  0.2473
 2157TIP3    H1 6477   3.894   2.100   1.989 -0.6826 -0.2562  1.2933
 2157TIP3    H2 6478   3.841   1.959   2.007  2.8977 -2.1901 -1.8547
 2158TIP3   OH2 6479   4.544   4.892   4.527 -0.4611  0.6762 -0.5740
 2158TIP3    H1 6480   4.530   4.981   4.495 -1.9093 -0.0701 -2.1595
 2158TIP3    H2 6481   4.472   4.841   4.489  0.0813 -1.0966  0.6439
 2159TIP3   OH2 6482   5.912   5.373   3.854 -0.0070  0.3315  0.0700
 2159TIP3    H1 6483   5.879   5.283   3.862  1.6493 -0.2120  1.2695
 2159TIP3    H2 6484   5.932   5.383   3.761 -1.7004  0.0575 -0.3756
 2160TIP3   OH2 6485   4.217   0.461   2.904  0.0501 -0.7677 -0.2248
 2160TIP3    H1 6486   4.145   0.488   2.960  1.1425 -0.5064  1.1030
 2160TIP3    H2 6487   4.261   0.543   2.880 -1.0912 -0.7452 -2.5107
 2161TIP3   OH2 6488   0.010   2.758   3.312 -0.3819 -0.1148 -0.1525
 2161TIP3    H1 6489  -0.071   2.789   3.353  0.1181  0.4158  0.4491
 2161TIP3    H2 6490   0.067   2.834   3.310 -0.0058 -0.4029 -0.8806
 2162TIP3   OH2 6491   1.080   2.545   4.988  0.6017  0.2396  0.0108
 2162TIP3    H1 6492   1.065   2.638   4.968 -0.3208 -0.0500 -0.7182
 2162TIP3    H2 6493   1.084   2.503   4.902  1.3264 -0.3534  0.3276
 2163TIP3   OH2 6494   4.054   5.159   5.122  0.1816  0.6258 -0.5683
 2163TIP3    H1 6495   4.068   5.091   5.057  2.0690  0.4651 -0.0276
 2163TIP3    H2 6496   4.049   5.240   5.072  2.3685  0.5938 -0.9050
 2164TIP3   OH2 6497   2.549   4.748   2.404  0.1571  0.3087 -0.1813
 2164TIP3    H1 6498   2.633   4.710   2.378 -0.2179  0.0610 -1.0591
 2164TIP3    H2 6499   2.571   4.809   2.475  0.9556 -0.4376  0.2291
 2165TIP3   OH2 6500   5.579   3.451   3.058  0.1048  0.0286  0.5928
 2165TIP3    H1 6501   5.616   3.369   3.025  0.0171  1.1192 -2.5659
 2165TIP3    H2 6502   5.485   3.435   3.063  0.0824 -0.0540 -0.0516
 2166TIP3   OH2 6503   3.268   0.737   3.362 -0.2678 -0.5431  0.1798
 2166TIP3    H1 6504   3.215   0.668   3.402 -3.6181  0.0612 -2.7158
 2166TIP3    H2 6505   3.290   0.703   3.275 -0.9124  1.4506 -0.8217
 2167TIP3   OH2 6506   0.393   0.272   3.656 -0.0036  0.2774  0.1737
 2167TIP3    H1 6507   0.454   0.342   3.678 -0.5338  0.7966  0.0428
 2167TIP3    H2 6508   0.429   0.194   3.698 -0.1499  0.9136  1.5539
 2168TIP3   OH2 6509   6.116   5.320   4.046 -0.1982 -0.6823 -0.0256
 2168TIP3    H1 6510   6.114   5.233   4.006 -0.8152 -1.0837  0.8465
 2168TIP3    H2 6511   6.054   5.371   3.993  0.3288 -0.6953 -0.6747
 2169TIP3   OH2 6512   2.925   0.569   3.567 -1.0069  0.3047  0.1244
 2169TIP3    H1 6513   2.839   0.569   3.608 -0.9990 -1.2920  0.2409
 2169TIP3    H2 6514   2.970   0.494   3.608 -0.8052 -1.0369 -2.3417
 2170TIP3   OH2 6515   3.883   3.641   2.392 -0.6791  0.2103 -0.5223
 2170TIP3    H1 6516   3.930   3.618   2.472  0.2114 -2.7940 -1.7780
 2170TIP3    H2 6517   3.890   3.737   2.387  1.3286  0.2843  1.7212
 2171TIP3   OH2 6518   2.287   3.615   0.370  0.2501 -0.4123  0.5068
 2171TIP3    H1 6519   2.281   3.544   0.305 -0.2948 -0.0341  0.1325
 2171TIP3    H2 6520   2.226   3.589   0.439 -0.7655  0.1927 -0.1353
 2172TIP3   OH2 6521   5.510   3.269   0.480  0.6233  0.2101 -0.1746
 2172TIP3    H1 6522   5.443   3.322   0.437  2.0855  1.2379 -1.3282
 2172TIP3    H2 6523   5.556   3.226   0.407  1.3329 -0.3097  0.5682
 2173TIP3   OH2 6524   2.970   4.369   0.238  0.3228 -0.5981  0.6104
 2173TIP3    H1 6525   3.047   4.362   0.183  0.4579  1.2935  0.4849
 2173TIP3    H2 6526   2.901   4.324   0.189  0.1236  2.0692 -1.8124
 2174TIP3   OH2 6527   1.323   2.956   4.061  0.4495 -0.2517 -0.1878
 2174TIP3    H1 6528   1.329   2.932   4.154 -0.7978 -0.6703 -0.1970
 2174TIP3    H2 6529   1.414   2.956   4.030  0.9641  0.7112  1.2243
 2175TIP3   OH2 6530   5.556   4.532   2.136 -0.7444  0.1223  0.9725
 2175TIP3    H1 6531   5.498   4.569   2.069 -1.4639 -0.1255  1.4486
 2175TIP3    H2 6532   5.554   4.596   2.207 -0.3664  0.1510  0.9572
 2176TIP3   OH2 6533   3.925   4.202   2.263 -0.3818 -0.3638  0.1619
 2176TIP3    H1 6534   3.890   4.207   2.353 -0.3783 -0.5499  0.1740
 2176TIP3    H2 6535   3.847   4.192   2.208 -0.3546 -0.6980  0.1821
 2177TIP3   OH2 6536   4.070   1.098   2.626 -0.1203 -0.1490 -0.4752
 2177TIP3    H1 6537   4.087   1.030   2.560  1.5931 -2.4559  2.1078
 2177TIP3    H2 6538   4.034   1.050   2.701 -1.7272  2.3112  0.4446
 2178TIP3   OH2 6539   0.335   5.860   2.898 -0.9276 -0.1302  0.6937
 2178TIP3    H1 6540   0.303   5.816   2.819 -1.6115  0.5940  0.5427
 2178TIP3    H2 6541   0.310   5.952   2.885  0.4162  0.2997  1.0170
 2179TIP3   OH2 6542   2.918   0.973   4.217  0.4378  0.0371 -0.2529
 2179TIP3    H1 6543   2.997   0.950   4.267  0.4604 -0.3546 -0.4598
 2179TIP3    H2 6544   2.902   0.896   4.163  1.0545  0.8800 -1.6847
 2180TIP3   OH2 6545   4.815   2.791   2.243 -0.1698  0.0582  0.0336
 2180TIP3    H1 6546   4.809   2.725   2.174 -1.7041  0.4325 -0.2449
 2180TIP3    H2 6547   4.824   2.741   2.324  1.7133 -0.3884 -0.3928
 2181TIP3   OH2 6548   1.597   4.450   2.844  0.3683 -0.0722  0.1108
 2181TIP3    H1 6549   1.637   4.464   2.930 -0.1879 -0.6611  0.4788
 2181TIP3    H2 6550   1.535   4.378   2.858 -0.9824  0.9623 -0.3757
 2182TIP3   OH2 6551   6.319   2.696   2.822 -0.5077 -0.1058  0.1054
 2182TIP3    H1 6552   6.331   2.785   2.791  1.7003 -0.0411  0.9754
 2182TIP3    H2 6553   6.362   2.694   2.907  1.2006 -2.4408 -0.7028
 2183TIP3   OH2 6554   2.482   5.928   2.569  0.0024  0.1145  0.4480
 2183TIP3    H1 6555   2.447   5.976   2.644 -0.9468 -1.2821  0.9521
 2183TIP3    H2 6556   2.485   5.992   2.498  2.1015  1.8293  1.9287
 2184TIP3   OH2 6557   5.419   2.492   3.305 -0.4788  0.1068 -0.1505
 2184TIP3    H1 6558   5.410   2.545   3.384  0.8716 -0.3456  0.3458
 2184TIP3    H2 6559   5.346   2.431   3.308 -1.0157  0.7555  0.2126
 2185TIP3   OH2 6560   1.815   4.633   3.324  0.7805 -0.4297  0.1156
 2185TIP3    H1 6561   1.881   4.699   3.343  1.2468 -1.2202  1.3715
 2185TIP3    H2 6562   1.741   4.655   3.380  0.3546 -0.1382 -0.5439
 2186TIP3   OH2 6563   4.564   1.309   4.187  0.5620 -0.9699  0.3293
 2186TIP3    H1 6564   4.565   1.285   4.279  0.5312 -0.0435  0.5814
 2186TIP3    H2 6565   4.559   1.404   4.187  0.2420 -0.9742 -0.6330
 2187TIP3   OH2 6566   5.604   5.029   1.945  0.8659 -0.0808  0.2916
 2187TIP3    H1 6567   5.536   5.091   1.920  0.7498 -1.2994 -2.8983
 2187TIP3    H2 6568   5.671   5.082   1.987 -0.3147  1.7847 -0.0690
 2188TIP3   OH2 6569   0.797   5.620   3.828  0.5696 -0.2755  0.2616
 2188TIP3    H1 6570   0.702   5.619   3.841  0.7643  0.5598  2.0311
 2188TIP3    H2 6571   0.817   5.712   3.808  1.0786 -0.3149  0.5686
 2189TIP3   OH2 6572   1.086   4.526   3.863  0.4243 -0.7003  0.2971
 2189TIP3    H1 6573   1.038   4.446   3.884 -0.7388  0.0740  0.6660
 2189TIP3    H2 6574   1.141   4.502   3.788 -0.5110 -1.6240 -0.1109
 2190TIP3   OH2 6575   4.753   3.030   1.162 -0.1603 -0.6309  0.7268
 2190TIP3    H1 6576   4.686   3.077   1.112  0.3300  0.0622  0.7109
 2190TIP3    H2 6577   4.802   3.099   1.208  1.9396 -0.8913 -0.9492
 2191TIP3   OH2 6578   6.258   1.372   1.891  0.2601 -0.6059  0.0150
 2191TIP3    H1 6579   6.245   1.354   1.984  0.4972 -2.2426 -0.2227
 2191TIP3    H2 6580   6.173   1.403   1.860  0.6076  1.5659  1.0759
 2192TIP3   OH2 6581   0.057   4.714   3.622 -0.5290  0.4261 -0.0672
 2192TIP3    H1 6582   0.102   4.633   3.649 -0.5616  1.3899  3.2729
 2192TIP3    H2 6583   0.090   4.731   3.533  0.6157 -2.4165 -0.2966
 2193TIP3   OH2 6584   4.899   1.494   3.503  0.3349  0.3518 -0.2074
 2193TIP3    H1 6585   4.933   1.542   3.579 -0.5538  1.5288 -0.5094
 2193TIP3    H2 6586   4.816   1.538   3.483  0.7537  0.3599 -2.1164
 2194TIP3   OH2 6587   3.184   0.189   0.013 -0.4210 -0.0092 -0.0071
 2194TIP3    H1 6588   3.218   0.160  -0.072  0.9758 -0.6545  0.7467
 2194TIP3    H2 6589   3.260   0.188   0.071 -1.2673  0.8404  1.1647
 2195TIP3   OH2 6590   4.530   0.112   1.895 -0.1055 -0.4061 -0.1495
 2195TIP3    H1 6591   4.515   0.058   1.972 -1.5785  0.1356 -0.0287
 2195TIP3    H2 6592   4.496   0.060   1.822 -1.2413  0.2143 -0.0729
 2196TIP3   OH2 6593   1.020   3.228   3.741  0.6491  0.1318  0.6035
 2196TIP3    H1 6594   1.085   3.245   3.672  0.3303 -2.1275 -0.3368
 2196TIP3    H2 6595   1.073   3.213   3.820  1.3616 -1.9024 -0.1953
 2197TIP3   OH2 6596   3.089   2.911   0.388 -0.0868 -0.0705  0.6921
 2197TIP3    H1 6597   3.101   2.918   0.482 -1.4236 -0.6845  0.9214
 2197TIP3    H2 6598   3.035   2.986   0.365 -0.8122 -0.6136  0.6142
 2198TIP3   OH2 6599   5.064   5.480   3.513  0.4544 -0.7113 -0.0760
 2198TIP3    H1 6600   5.088   5.388   3.527  1.0096 -0.7817 -1.3358
 2198TIP3    H2 6601   5.147   5.524   3.493  0.0241 -0.2048 -0.7964
 2199TIP3   OH2 6602   4.849   5.195   4.592 -0.0422 -0.3453 -0.5834
 2199TIP3    H1 6603   4.843   5.189   4.496 -1.0696  1.3455 -0.6568
 2199TIP3    H2 6604   4.763   5.226   4.620 -0.0672 -1.7295  1.0042
 2200TIP3   OH2 6605   5.016   5.765   3.605 -0.2784  0.3348 -0.3770
 2200TIP3    H1 6606   5.005   5.669   3.606 -1.4139  0.3414  3.4799
 2200TIP3    H2 6607   4.948   5.796   3.545 -1.3419 -1.2077 -0.0322
 2201TIP3   OH2 6608   3.598   4.389   3.474  0.1101 -0.5026 -0.2645
 2201TIP3    H1 6609   3.592   4.448   3.399 -0.1131  0.2398  0.3250
 2201TIP3    H2 6610   3.689   4.395   3.502  0.0614 -0.3516 -0.1375
 2202TIP3   OH2 6611   4.208   4.313   0.323 -0.0523  0.0690  0.0314
 2202TIP3    H1 6612   4.218   4.350   0.236 -0.4517 -0.2814 -0.1676
 2202TIP3    H2 6613   4.216   4.387   0.383  0.4794  0.2711 -0.2859
 2203TIP3   OH2 6614   2.231   5.755   2.819  0.1768  0.6281 -0.0071
 2203TIP3    H1 6615   2.221   5.837   2.868 -1.5494  0.2681  0.3246
 2203TIP3    H2 6616   2.302   5.709   2.863  0.5089  1.5262  0.4131
 2204TIP3   OH2 6617   2.485   1.264   2.424  0.2028 -0.8100  0.2030
 2204TIP3    H1 6618   2.510   1.351   2.394  0.3964 -0.8164  0.3392
 2204TIP3    H2 6619   2.461   1.217   2.345 -2.8323  0.2666  0.3559
 2205TIP3   OH2 6620   1.554   5.760   0.205 -0.1693  0.2066  0.6224
 2205TIP3    H1 6621   1.539   5.678   0.158  0.3221 -0.7943  2.1154
 2205TIP3    H2 6622   1.472   5.809   0.195 -1.2656 -1.3780  1.4217
 2206TIP3   OH2 6623   5.700   0.768   2.421 -0.0660  0.1877 -0.7379
 2206TIP3    H1 6624   5.677   0.715   2.346  1.6816 -0.4721 -0.8661
 2206TIP3    H2 6625   5.785   0.734   2.449  0.4207  1.9518  0.0860
 2207TIP3   OH2 6626   0.359   0.559   4.250 -0.5023 -1.0874  0.3239
 2207TIP3    H1 6627   0.417   0.489   4.279 -1.3834 -1.8769  0.2094
 2207TIP3    H2 6628   0.309   0.522   4.178 -0.1310  0.0580 -0.5512
 2208TIP3   OH2 6629   1.282   5.589   0.958  0.5428  0.1104 -0.7703
 2208TIP3    H1 6630   1.220   5.563   0.890  1.3339  2.3765 -2.4532
 2208TIP3    H2 6631   1.227   5.621   1.030 -0.2723 -1.1063 -0.8193
 2209TIP3   OH2 6632   5.238   3.184   1.406 -0.3755 -0.8408  0.3641
 2209TIP3    H1 6633   5.310   3.146   1.356 -0.5164  0.4286 -0.8885
 2209TIP3    H2 6634   5.163   3.128   1.387 -0.5216 -0.1687 -1.2417
 2210TIP3   OH2 6635   4.713   5.681   4.734  0.0754 -0.5941 -0.4158
 2210TIP3    H1 6636   4.688   5.756   4.679 -1.2320 -1.0808 -0.5171
 2210TIP3    H2 6637   4.764   5.625   4.676  1.9609  0.6792 -0.0589
 2211TIP3   OH2 6638   4.347   1.006   0.560  0.4563  0.3038 -0.3306
 2211TIP3    H1 6639   4.276   0.987   0.620  0.0190  1.3259 -0.5079
 2211TIP3    H2 6640   4.308   0.999   0.473  0.3747  1.5881 -0.4090
 2212TIP3   OH2 6641   3.876   2.549   2.263 -0.1453  0.0435 -0.2160
 2212TIP3    H1 6642   3.848   2.482   2.326 -1.5086  0.1233 -0.6945
 2212TIP3    H2 6643   3.900   2.500   2.185  0.6000  0.0076  0.0306
 2213TIP3   OH2 6644   6.275   3.779   0.343  0.1146 -0.2758  0.5906
 2213TIP3    H1 6645   6.245   3.868   0.325  1.1427 -0.0061  0.0751
 2213TIP3    H2 6646   6.354   3.791   0.396 -0.4264 -0.9323  1.5644
 2214TIP3   OH2 6647   2.986   0.939   1.889 -0.1889 -0.2954  0.2087
 2214TIP3    H1 6648   2.958   0.863   1.939  0.5650 -0.2619  0.6924
 2214TIP3    H2 6649   3.022   0.999   1.955  1.3945 -0.5077 -0.4317
 2215TIP3   OH2 6650   2.891   3.889   3.638 -0.0254  0.4322  0.0970
 2215TIP3    H1 6651   2.855   3.964   3.591  1.5924  0.5177 -1.0736
 2215TIP3    H2 6652   2.977   3.918   3.669  0.9224 -1.0846 -0.9252
 2216TIP3   OH2 6653   1.373   4.152   3.812  0.1444 -0.2389  0.2533
 2216TIP3    H1 6654   1.401   4.172   3.901 -0.5212  1.8040  0.0649
 2216TIP3    H2 6655   1.287   4.111   3.823 -0.9274  1.9138  0.5653
 2217TIP3   OH2 6656   3.096   2.781   4.518 -0.3437 -0.3094  0.7874
 2217TIP3    H1 6657   3.113   2.690   4.495 -0.1122 -0.3221  1.0051
 2217TIP3    H2 6658   3.096   2.827   4.434 -1.0507 -0.5972  0.6140
 2218TIP3   OH2 6659   1.186   2.489   4.443  0.5347 -0.2203 -0.0193
 2218TIP3    H1 6660   1.223   2.574   4.467  0.0231 -0.3275  1.2635
 2218TIP3    H2 6661   1.102   2.511   4.403  0.2611 -0.1177  0.5943
 2219TIP3   OH2 6662   4.435   1.509   4.483 -0.0338  0.8199  0.5005
 2219TIP3    H1 6663   4.513   1.453   4.485  0.3890  1.4095  0.7169
 2219TIP3    H2 6664   4.460   1.584   4.430  0.0315  1.7028  1.7486
 2220TIP3   OH2 6665   1.568   0.675   4.967  0.0652  0.4589 -0.2868
 2220TIP3    H1 6666   1.571   0.769   4.950  0.8901  0.5894  0.4912
 2220TIP3    H2 6667   1.656   0.653   4.998 -0.1678 -0.5387 -0.2831
 2221TIP3   OH2 6668   2.255   3.909   4.360 -0.1985 -0.0560 -0.2659
 2221TIP3    H1 6669   2.190   3.852   4.320  1.1732 -1.0267 -1.2370
 2221TIP3    H2 6670   2.279   3.864   4.441 -1.0402  0.5300  0.3167
 2222TIP3   OH2 6671   2.979   2.038   4.679 -0.1542 -0.1479  0.4808
 2222TIP3    H1 6672   2.892   2.026   4.716 -0.6563  3.1539  0.6979
 2222TIP3    H2 6673   2.963   2.065   4.588  0.5262  1.4560  0.8026
 2223TIP3   OH2 6674   0.693   4.926   3.711  0.2712  0.3765  0.4520
 2223TIP3    H1 6675   0.606   4.928   3.672 -0.6840 -0.6007  2.3554
 2223TIP3    H2 6676   0.701   5.009   3.757  1.2664  1.3913 -1.4597
 2224TIP3   OH2 6677   3.678   3.471   0.527 -0.6375 -0.1536 -0.2748
 2224TIP3    H1 6678   3.735   3.400   0.500 -1.7205 -1.6920  1.2876
 2224TIP3    H2 6679   3.618   3.484   0.453  0.1111 -0.2473 -0.9073
 2225TIP3   OH2 6680   3.521   3.421   0.301  0.3070  0.0565 -0.1841
 2225TIP3    H1 6681   3.581   3.398   0.230  0.4635  0.5289 -0.2074
 2225TIP3    H2 6682   3.482   3.504   0.274 -1.7412 -1.0852 -1.0430
 2226TIP3   OH2 6683   2.870   0.291   1.411  0.1074  0.0947 -0.2482
 2226TIP3    H1 6684   2.774   0.284   1.418  0.2847 -1.6432  1.0760
 2226TIP3    H2 6685   2.902   0.257   1.494  1.8831  1.6915 -0.2221
 2227TIP3   OH2 6686   3.545   1.568   0.814  0.0453  0.2133 -0.4361
 2227TIP3    H1 6687   3.576   1.569   0.723 -0.7849  0.2848 -0.7275
 2227TIP3    H2 6688   3.516   1.477   0.828  0.9453 -0.0075  0.0317
 2228TIP3   OH2 6689   6.264   1.853   3.282  0.1108  0.3522 -0.2648
 2228TIP3    H1 6690   6.202   1.822   3.348 -0.3151 -0.0063 -0.8309
 2228TIP3    H2 6691   6.269   1.782   3.218 -0.1917  1.0749 -1.1121
 2229TIP3   OH2 6692   4.229   2.551   2.830  0.5145 -0.2464 -0.2551
 2229TIP3    H1 6693   4.202   2.460   2.837 -1.6947  0.3960  0.2539
 2229TIP3    H2 6694   4.294   2.552   2.759 -1.7832 -1.7294 -2.5226
 2230TIP3   OH2 6695   1.788   3.309   1.751  0.2100 -0.0607 -0.2690
 2230TIP3    H1 6696   1.778   3.235   1.690  0.5166  1.2654 -2.0290
 2230TIP3    H2 6697   1.708   3.307   1.804  0.1558 -1.5598 -0.3696
 2231TIP3   OH2 6698   0.038   5.337   2.050 -0.4382 -0.0474 -0.1981
 2231TIP3    H1 6699   0.021   5.370   1.961  0.2065 -0.2817 -0.4112
 2231TIP3    H2 6700   0.130   5.313   2.049 -0.6302 -0.8080  0.3006
 2232TIP3   OH2 6701   5.805   1.201   2.233  0.8281 -0.5871 -0.6279
 2232TIP3    H1 6702   5.859   1.239   2.302 -0.0733  2.8114 -1.5813
 2232TIP3    H2 6703   5.718   1.191   2.274  0.5442  0.4835 -0.9282
 2233TIP3   OH2 6704   6.003   1.264   2.449  0.2534  0.7046 -0.1274
 2233TIP3    H1 6705   6.003   1.197   2.517  0.4260  1.7184  0.8800
 2233TIP3    H2 6706   6.095   1.272   2.423  0.2366  0.5792 -0.2262
 2234TIP3   OH2 6707   5.109   0.837   0.353  0.2730 -0.7813 -0.3128
 2234TIP3    H1 6708   5.058   0.895   0.409  0.6396 -0.4628 -0.3072
 2234TIP3    H2 6709   5.116   0.755   0.402  0.7611 -0.4420  0.1944
 2235TIP3   OH2 6710   3.314   0.716   1.466  0.0899  0.2327 -0.5806
 2235TIP3    H1 6711   3.347   0.717   1.556 -0.1376 -0.5351 -0.4809
 2235TIP3    H2 6712   3.348   0.797   1.427 -0.3022  0.8637  0.3648
 2236TIP3   OH2 6713   5.649   0.967   2.047 -0.3385  0.1643  0.4547
 2236TIP3    H1 6714   5.584   1.030   2.078 -0.9864  0.8043 -1.9911
 2236TIP3    H2 6715   5.597   0.891   2.019  0.1586 -0.2036  0.5081
 2237TIP3   OH2 6716   1.516   2.338   0.703  0.2006  0.2584  0.1936
 2237TIP3    H1 6717   1.431   2.380   0.690 -0.1040 -0.6534 -0.8797
 2237TIP3    H2 6718   1.531   2.344   0.798 -0.6042  1.2613  0.2810
 2238TIP3   OH2 6719   5.770   3.863   0.286  0.7690 -0.1871 -0.3543
 2238TIP3    H1 6720   5.830   3.793   0.311  0.2592 -0.7296 -0.6081
 2238TIP3    H2 6721   5.762   3.917   0.364  1.2844 -0.3274 -0.2007
 2239TIP3   OH2 6722   2.772   4.139   4.895  0.2778  0.8079 -0.5501
 2239TIP3    H1 6723   2.752   4.182   4.978 -0.7190  1.1160 -0.9329
 2239TIP3    H2 6724   2.781   4.046   4.917 -4.5451  0.0566 -0.6556
 2240TIP3   OH2 6725   3.696   1.145   2.170  0.1728  0.3845  0.4024
 2240TIP3    H1 6726   3.655   1.110   2.091  0.4121 -1.2096  0.9331
 2240TIP3    H2 6727   3.625   1.188   2.218 -0.6184 -1.1358  0.6572
 2241TIP3   OH2 6728   0.085   5.445   3.553 -0.2627  0.2137  0.2529
 2241TIP3    H1 6729   0.106   5.354   3.534  0.2366  0.7499 -2.0445
 2241TIP3    H2 6730   0.129   5.463   3.636  2.9344 -0.5753 -1.1393
 2242TIP3   OH2 6731   2.848   5.121   0.896  0.6476 -0.5543  0.4390
 2242TIP3    H1 6732   2.886   5.045   0.853  0.3654 -0.8515  0.7099
 2242TIP3    H2 6733   2.767   5.089   0.936  0.8106 -0.2445  1.0344
 2243TIP3   OH2 6734   1.728   1.414   3.274 -0.2831 -0.2375  0.6802
 2243TIP3    H1 6735   1.807   1.467   3.265 -0.6398  0.2791  0.5415
 2243TIP3    H2 6736   1.742   1.364   3.354 -0.6687  1.3501  1.7756
 2244TIP3   OH2 6737   4.151   4.754   1.112  0.2595 -0.4373  0.5103
 2244TIP3    H1 6738   4.090   4.691   1.151 -0.2985 -0.3979 -0.2616
 2244TIP3    H2 6739   4.135   4.746   1.018 -0.4468  1.4690  0.4327
 2245TIP3   OH2 6740   3.599   0.322   4.286  0.1932 -0.2546  0.0253
 2245TIP3    H1 6741   3.547   0.261   4.232  1.1020 -0.5173 -0.5877
 2245TIP3    H2 6742   3.601   0.403   4.235  0.2139 -0.1876  0.1341
 2246TIP3   OH2 6743   2.713   5.422   4.093 -0.5997  0.5059  0.3008
 2246TIP3    H1 6744   2.677   5.497   4.044 -0.0919  1.4953  1.3967
 2246TIP3    H2 6745   2.807   5.438   4.095 -0.4594 -0.3132  0.3151
 2247TIP3   OH2 6746   5.799   2.746   2.126 -0.0778  0.0427  0.2145
 2247TIP3    H1 6747   5.752   2.699   2.058  0.7899 -0.5186 -0.0131
 2247TIP3    H2 6748   5.865   2.797   2.079  0.0783  0.1903  0.5857
 2248TIP3   OH2 6749   4.876   3.839   3.517 -0.5674 -0.3710 -0.0515
 2248TIP3    H1 6750   4.911   3.916   3.563  0.4176 -1.1247  0.4873
 2248TIP3    H2 6751   4.906   3.851   3.426 -1.3883  0.4432 -0.2344
 2249TIP3   OH2 6752   4.121   5.505   1.847 -0.0070 -0.1447  0.0982
 2249TIP3    H1 6753   4.043   5.449   1.847  0.0832 -0.2790 -0.3256
 2249TIP3    H2 6754   4.161   5.489   1.932 -0.0638 -0.6200  0.0426
 2250TIP3   OH2 6755   5.463   2.342   4.389 -0.0608 -0.1884 -0.2843
 2250TIP3    H1 6756   5.537   2.375   4.438 -0.7572 -0.0577  0.7021
 2250TIP3    H2 6757   5.425   2.419   4.347  1.0068 -0.4008 -1.7514
 2251TIP3   OH2 6758   5.377   1.004   4.935  0.1043 -0.1013 -0.2700
 2251TIP3    H1 6759   5.329   1.024   5.015  1.5943 -1.2931  0.9855
 2251TIP3    H2 6760   5.452   0.951   4.964  0.2335 -1.3040 -2.5412
 2252TIP3   OH2 6761   5.288   3.394   0.322 -0.9472  0.2947  0.3214
 2252TIP3    H1 6762   5.193   3.405   0.325 -1.1059 -0.1126 -1.9123
 2252TIP3    H2 6763   5.314   3.431   0.237  0.9998  1.0456  1.1841
 2253TIP3   OH2 6764   4.263   4.779   0.532 -0.2521 -0.0242  0.0514
 2253TIP3    H1 6765   4.274   4.873   0.546 -1.8612  0.5666 -2.1736
 2253TIP3    H2 6766   4.301   4.739   0.610  0.7575  2.4400  0.9251
 2254TIP3   OH2 6767   2.382   5.764   1.936 -0.1046 -0.0276 -0.1472
 2254TIP3    H1 6768   2.309   5.747   1.996  0.1882  1.0306  0.5338
 2254TIP3    H2 6769   2.455   5.715   1.973  0.2116  1.0366  0.6750
 2255TIP3   OH2 6770   6.211   4.901   1.042  0.4364  0.0894  0.0989
 2255TIP3    H1 6771   6.153   4.860   0.978 -0.0295 -2.2720  1.9050
 2255TIP3    H2 6772   6.166   4.982   1.067  0.9228  1.4534 -2.8634
 2256TIP3   OH2 6773   2.371   3.389   1.026  0.0128 -0.3998 -0.3447
 2256TIP3    H1 6774   2.347   3.411   1.116 -1.6404 -1.1262 -0.5694
 2256TIP3    H2 6775   2.454   3.341   1.035 -1.3532 -2.6658  1.0910
 2257TIP3   OH2 6776   1.316   4.393   2.635  0.0622  0.1679  0.0565
 2257TIP3    H1 6777   1.332   4.352   2.720 -1.1838 -0.2589  0.1070
 2257TIP3    H2 6778   1.328   4.487   2.652 -1.4568  0.2224  1.0519
 2258TIP3   OH2 6779   5.608   1.404   1.880  0.6927  0.1835  0.0978
 2258TIP3    H1 6780   5.639   1.413   1.790  0.1325  0.9748 -0.0345
 2258TIP3    H2 6781   5.672   1.347   1.922  1.4085  0.4587 -0.5854
 2259TIP3   OH2 6782   2.414   2.676   2.812 -0.2065  0.2354  0.1026
 2259TIP3    H1 6783   2.435   2.726   2.891  0.0429 -1.2976  1.0740
 2259TIP3    H2 6784   2.499   2.660   2.770 -0.4491  2.0515 -1.1615
 2260TIP3   OH2 6785   0.784   3.824   1.694 -0.1186  0.2598  0.2057
 2260TIP3    H1 6786   0.690   3.843   1.693 -0.2247  0.0073  1.8376
 2260TIP3    H2 6787   0.824   3.906   1.724  0.0611  0.0042  0.6694
 2261TIP3   OH2 6788   2.884   1.656   5.042  0.4541  0.1321 -0.0364
 2261TIP3    H1 6789   2.794   1.673   5.071  1.2148  0.4565  2.3624
 2261TIP3    H2 6790   2.876   1.586   4.977 -1.4894 -0.1314  0.4395
 2262TIP3   OH2 6791   2.484   0.047   4.589 -0.0322  0.2605  0.2451
 2262TIP3    H1 6792   2.560   0.026   4.644  1.0732  0.4872 -1.1342
 2262TIP3    H2 6793   2.417   0.075   4.651  1.1028  0.3345  1.4904
 2263TIP3   OH2 6794   4.760   0.749   1.694 -0.3218  0.5837  0.0323
 2263TIP3    H1 6795   4.702   0.777   1.624 -0.5457  0.7313  0.2752
 2263TIP3    H2 6796   4.726   0.792   1.773  0.2481  0.8488  0.1381
 2264TIP3   OH2 6797   5.461   5.404   0.017  0.0490 -0.2037 -0.8430
 2264TIP3    H1 6798   5.392   5.432  -0.044  1.3236  1.6881 -1.4914
 2264TIP3    H2 6799   5.423   5.420   0.103 -1.0832 -1.1621 -1.1319
 2265TIP3   OH2 6800   5.259   2.721   1.697  0.4278 -0.0377 -0.1467
 2265TIP3    H1 6801   5.192   2.749   1.760  1.0087 -0.7952  0.8471
 2265TIP3    H2 6802   5.341   2.756   1.733  0.4406  2.3773 -2.2485
 2266TIP3   OH2 6803   2.240   5.932   3.509 -0.2835  0.5060  0.1243
 2266TIP3    H1 6804   2.161   5.901   3.552 -1.6652 -1.2713 -3.3430
 2266TIP3    H2 6805   2.312   5.893   3.560 -1.6599  0.3535  2.0494
 2267TIP3   OH2 6806   0.358   2.963   0.486 -0.4028 -0.3101  0.2341
 2267TIP3    H1 6807   0.289   2.900   0.507 -0.3236 -0.3046  0.5105
 2267TIP3    H2 6808   0.321   3.048   0.510  0.1835 -0.4215  1.6441
 2268TIP3   OH2 6809   5.408   0.583   3.868  0.4293  0.0076  0.6136
 2268TIP3    H1 6810   5.397   0.552   3.958  1.7491  1.4553  1.3289
 2268TIP3    H2 6811   5.488   0.540   3.838 -0.0438 -0.5205  0.1044
 2269TIP3   OH2 6812   5.956   0.225   0.095 -0.2383 -0.4285 -0.2414
 2269TIP3    H1 6813   5.899   0.148   0.084 -0.1386 -0.5117 -0.1810
 2269TIP3    H2 6814   5.916   0.274   0.167  0.2581 -0.9431  0.3953
 2270TIP3   OH2 6815   1.811   5.906   3.853  0.1886  0.0658  0.5811
 2270TIP3    H1 6816   1.777   5.825   3.891 -1.0657 -0.4550 -1.4716
 2270TIP3    H2 6817   1.812   5.968   3.926  0.8864 -1.6712  2.1352
 2271TIP3   OH2 6818   2.681   2.449   3.676  0.2224 -0.3108 -0.0516
 2271TIP3    H1 6819   2.607   2.408   3.631  0.3277  1.0785 -1.5749
 2271TIP3    H2 6820   2.650   2.460   3.766 -0.9469 -0.9235 -0.3483
 2272TIP3   OH2 6821   2.350   3.434   1.321  0.2826 -0.2990  0.1551
 2272TIP3    H1 6822   2.424   3.378   1.341  1.2930  0.1056 -2.1416
 2272TIP3    H2 6823   2.275   3.391   1.362  1.4980 -1.6422  1.0519
 2273TIP3   OH2 6824   5.389   5.212   1.899  0.2711  0.3506 -0.2987
 2273TIP3    H1 6825   5.341   5.195   1.818  1.0648 -1.7854 -0.3931
 2273TIP3    H2 6826   5.330   5.267   1.950 -1.6272 -0.8618 -1.0375
 2274TIP3   OH2 6827   2.725   5.090   5.134  0.0962  0.4240  0.3357
 2274TIP3    H1 6828   2.717   5.057   5.045  1.1045  1.9003 -0.3440
 2274TIP3    H2 6829   2.759   5.179   5.124 -1.4742  1.2871  2.1245
 2275TIP3   OH2 6830   1.969   1.884   0.460  0.1297  0.0306 -0.2444
 2275TIP3    H1 6831   1.971   1.938   0.539  1.0142 -0.3859  0.0303
 2275TIP3    H2 6832   1.960   1.947   0.388 -0.0182  0.4598  0.1431
 2276TIP3   OH2 6833   1.718   6.003   2.348  0.1489  0.1677  0.3441
 2276TIP3    H1 6834   1.769   5.929   2.383  0.6427  0.6179  0.5952
 2276TIP3    H2 6835   1.633   5.996   2.392 -0.7466 -1.7140 -1.4846
 2277TIP3   OH2 6836   4.278   3.322   1.567 -0.5169 -0.2976 -0.3321
 2277TIP3    H1 6837   4.229   3.356   1.491 -0.9888 -2.9787 -1.3341
 2277TIP3    H2 6838   4.210   3.286   1.624 -0.0141  0.0717  0.5106
 2278TIP3   OH2 6839   2.644   4.940   2.574  0.4850 -0.6862 -0.4209
 2278TIP3    H1 6840   2.727   4.942   2.528  0.8142  1.9644  0.1201
 2278TIP3    H2 6841   2.665   4.966   2.664 -0.9151  0.3007 -0.3325
 2279TIP3   OH2 6842   1.802   5.005   1.115 -0.7162  0.2557 -0.1819
 2279TIP3    H1 6843   1.856   4.954   1.053 -2.0640 -0.6667 -0.6420
 2279TIP3    H2 6844   1.864   5.033   1.182  0.3403 -0.8464 -0.6444
 2280TIP3   OH2 6845   5.454   3.149   3.979 -0.0004 -0.0783 -0.1394
 2280TIP3    H1 6846   5.387   3.096   3.936  0.0248 -1.1323  1.0610
 2280TIP3    H2 6847   5.531   3.142   3.923 -0.5981  0.3673 -1.0399
 2281TIP3   OH2 6848   6.126   3.324   4.609 -0.4139  0.3923  0.2342
 2281TIP3    H1 6849   6.084   3.275   4.679 -1.2417 -0.4411 -0.8234
 2281TIP3    H2 6850   6.065   3.320   4.536 -0.3498  2.6958 -0.0260
 2282TIP3   OH2 6851   4.335   4.779   1.841  0.4723  0.1761 -0.0512
 2282TIP3    H1 6852   4.418   4.793   1.794  1.2081  0.2627  1.2145
 2282TIP3    H2 6853   4.362   4.748   1.928 -0.7318  2.0010  1.0410
 2283TIP3   OH2 6854   3.219   5.985   1.565 -0.6634 -0.5157  0.0945
 2283TIP3    H1 6855   3.239   5.924   1.635 -1.1594 -1.1504 -0.3122
 2283TIP3    H2 6856   3.283   5.965   1.496 -1.6885 -1.5400 -0.6015
 2284TIP3   OH2 6857   2.962   3.448   1.964  0.3960 -0.9276 -0.5075
 2284TIP3    H1 6858   3.035   3.500   1.997  0.2513 -0.3319 -1.0978
 2284TIP3    H2 6859   2.984   3.358   1.987  0.7586 -0.6305  0.3312
 2285TIP3   OH2 6860   2.409   3.110   4.364  0.1758 -0.3711 -0.3564
 2285TIP3    H1 6861   2.391   3.197   4.329  0.5212 -0.1155  0.0855
 2285TIP3    H2 6862   2.360   3.050   4.308  0.1792  0.0841 -0.8489
 2286TIP3   OH2 6863   3.747   2.455   1.830  0.2441  0.1568  0.3906
 2286TIP3    H1 6864   3.827   2.498   1.801 -0.4052  2.9972  2.4090
 2286TIP3    H2 6865   3.777   2.387   1.891  1.1576  1.6484  1.6700
 2287TIP3   OH2 6866   1.274   0.199   5.056 -0.5382 -0.1959 -0.2934
 2287TIP3    H1 6867   1.346   0.262   5.058  0.5236 -1.3837  0.9223
 2287TIP3    H2 6868   1.195   0.252   5.071  0.0469  1.1212 -1.6384
 2288TIP3   OH2 6869   6.147   0.454   1.349  0.1038 -0.4031  0.5677
 2288TIP3    H1 6870   6.188   0.411   1.274  0.4441  0.3545  0.3029
 2288TIP3    H2 6871   6.098   0.385   1.393 -1.9521 -0.4388 -1.5916
 2289TIP3   OH2 6872   5.847   3.873   2.925  0.0381 -0.0726  0.3084
 2289TIP3    H1 6873   5.836   3.946   2.864  0.7971  0.8252  1.2176
 2289TIP3    H2 6874   5.780   3.888   2.992  1.0684  0.5854  1.2291
 2290TIP3   OH2 6875   4.367   1.643   2.480  0.0485  0.2330  0.7386
 2290TIP3    H1 6876   4.428   1.569   2.476  0.5321  0.5475  1.8292
 2290TIP3    H2 6877   4.332   1.650   2.391  2.2453  0.5719 -0.1579
 2291TIP3   OH2 6878   1.247   0.063   2.063  0.1883  0.0080  0.2086
 2291TIP3    H1 6879   1.335   0.099   2.073  0.2587 -0.3812  1.0177
 2291TIP3    H2 6880   1.212   0.108   1.985  0.7905  0.7725  0.3619
 2292TIP3   OH2 6881   4.315   0.500   4.759  0.3409 -0.2745  0.2232
 2292TIP3    H1 6882   4.257   0.572   4.735 -0.1779 -0.2915  1.3640
 2292TIP3    H2 6883   4.257   0.425   4.771  1.0494 -1.4202 -2.7419
 2293TIP3   OH2 6884   2.848   3.128   2.557 -0.3773 -0.1865 -0.0552
 2293TIP3    H1 6885   2.855   3.049   2.611 -0.1943 -1.0418 -1.2949
 2293TIP3    H2 6886   2.927   3.178   2.577 -1.1961  0.4337  1.8452
 2294TIP3   OH2 6887   4.859   1.502   1.738  0.2269  0.3293 -0.3196
 2294TIP3    H1 6888   4.820   1.584   1.769 -0.8915  0.3564 -1.6983
 2294TIP3    H2 6889   4.806   1.434   1.779 -0.1119  0.3417 -0.7250
 2295TIP3   OH2 6890   0.459   2.473   0.636 -0.1598  0.4151 -0.3255
 2295TIP3    H1 6891   0.477   2.567   0.640 -1.9838  0.8247 -1.1788
 2295TIP3    H2 6892   0.417   2.453   0.720 -1.9339  0.8856 -1.0559
 2296TIP3   OH2 6893   1.454   3.154   2.731  0.2285 -0.4318  0.0408
 2296TIP3    H1 6894   1.399   3.078   2.747  0.1129 -0.5463 -0.8188
 2296TIP3    H2 6895   1.543   3.122   2.737  0.1779 -0.8093 -1.0371
 2297TIP3   OH2 6896   0.112   2.191   1.602  0.2150 -0.4050 -0.3798
 2297TIP3    H1 6897   0.112   2.182   1.507 -1.9591  0.7248 -0.5568
 2297TIP3    H2 6898   0.132   2.103   1.635 -0.4923 -1.1718 -1.8887
 2298TIP3   OH2 6899   2.268   5.886   4.657 -0.2576  0.3133  0.0513
 2298TIP3    H1 6900   2.339   5.827   4.683  0.3794  1.0483  0.0010
 2298TIP3    H2 6901   2.198   5.827   4.628  1.0159 -0.3987 -1.7175
 2299TIP3   OH2 6902   3.302   1.947   0.330  0.0197 -0.4201 -0.1336
 2299TIP3    H1 6903   3.277   2.010   0.262 -0.5761 -0.2534  0.2319
 2299TIP3    H2 6904   3.375   1.989   0.375 -1.8131  1.1068  1.6050
 2300TIP3   OH2 6905   5.295   1.479   0.169  0.5490 -0.0404 -0.5236
 2300TIP3    H1 6906   5.376   1.433   0.195  0.1049 -0.1540  0.7593
 2300TIP3    H2 6907   5.255   1.504   0.252 -0.7927 -0.0703 -1.1373
 2301TIP3   OH2 6908   0.616   5.387   1.923 -0.0543  0.1455  0.1896
 2301TIP3    H1 6909   0.597   5.429   1.840 -1.1002  1.8065  1.2100
 2301TIP3    H2 6910   0.614   5.293   1.904 -0.6584  0.4841 -1.5670
 2302TIP3   OH2 6911   3.040   2.294   2.419  0.1016  0.2156  0.0679
 2302TIP3    H1 6912   3.062   2.223   2.480  1.1312  1.0825  0.7388
 2302TIP3    H2 6913   2.988   2.355   2.472  0.0441  0.4305 -0.2367
 2303TIP3   OH2 6914   5.509   5.864   4.488  0.2048 -0.3251 -0.1610
 2303TIP3    H1 6915   5.484   5.951   4.519  0.1326 -1.0361  1.9884
 2303TIP3    H2 6916   5.589   5.878   4.437  0.0415  1.0245 -0.0824
 2304TIP3   OH2 6917   3.122   1.897   0.544  0.3592 -0.4394 -0.4573
 2304TIP3    H1 6918   3.180   1.956   0.591  2.6288 -1.4846 -1.7748
 2304TIP3    H2 6919   3.163   1.887   0.457 -1.9375 -1.0548 -1.5499
 2305TIP3   OH2 6920   3.611   0.309   4.550 -0.0178 -0.1412 -0.0686
 2305TIP3    H1 6921   3.614   0.330   4.457 -2.7704  1.5836  0.1130
 2305TIP3    H2 6922   3.524   0.271   4.563 -0.4378  1.4006  2.0770
 2306TIP3   OH2 6923   4.618   2.477   1.908 -0.4616  0.2954 -0.4532
 2306TIP3    H1 6924   4.538   2.437   1.875 -0.0228 -1.1433  0.1494
 2306TIP3    H2 6925   4.591   2.523   1.988 -0.3055 -2.4000  1.2644
 2307TIP3   OH2 6926   4.226   5.516   1.282  0.2426  0.4361  0.0881
 2307TIP3    H1 6927   4.309   5.481   1.250  0.4590  0.8207  0.2212
 2307TIP3    H2 6928   4.211   5.469   1.365 -0.6212 -1.0012 -0.8361
 2308TIP3   OH2 6929   1.758   0.860   1.446  0.7402  0.2773 -0.8815
 2308TIP3    H1 6930   1.728   0.781   1.402  0.8159  0.5452 -1.4218
 2308TIP3    H2 6931   1.849   0.869   1.420  1.0938 -0.1233  0.1636
 2309TIP3   OH2 6932   3.091   4.403   3.357 -0.2991  0.0312  0.0265
 2309TIP3    H1 6933   3.099   4.495   3.334 -1.0535  0.1740  0.3173
 2309TIP3    H2 6934   3.137   4.357   3.287  1.5713  0.6984  0.7614
 2310TIP3   OH2 6935   5.401   1.711   1.288 -0.0653  0.0081 -0.0299
 2310TIP3    H1 6936   5.409   1.806   1.291 -1.5044  0.1776  3.4532
 2310TIP3    H2 6937   5.443   1.681   1.369 -1.2743 -2.1584 -0.1305
 2311TIP3   OH2 6938   1.356   4.990   3.167  0.0364  0.6962  0.7256
 2311TIP3    H1 6939   1.290   4.934   3.128  2.2780 -1.7640  0.1682
 2311TIP3    H2 6940   1.398   5.035   3.093  1.9228 -1.2597  0.5117
 2312TIP3   OH2 6941   4.901   1.594   4.652 -0.2029 -0.5782  0.2938
 2312TIP3    H1 6942   4.843   1.670   4.639  2.7211  1.6881 -0.7261
 2312TIP3    H2 6943   4.931   1.603   4.742  0.6584 -0.0687 -0.0301
 2313TIP3   OH2 6944   0.705   4.028   0.817 -0.3640 -0.0117 -0.4274
 2313TIP3    H1 6945   0.724   3.937   0.794 -0.1980  0.0209 -0.4225
 2313TIP3    H2 6946   0.687   4.024   0.911  1.8423  0.2757  0.0696
 2314TIP3   OH2 6947   4.125   1.352   2.282 -0.6040 -0.5716  0.1966
 2314TIP3    H1 6948   4.071   1.410   2.335  2.6996  1.9673  1.1611
 2314TIP3    H2 6949   4.185   1.311   2.344  1.4703  0.2244 -1.1363
 2315TIP3   OH2 6950   1.933   5.314   4.230 -0.0845  0.0888 -0.2269
 2315TIP3    H1 6951   1.973   5.395   4.261 -0.1832  0.2695 -0.5608
 2315TIP3    H2 6952   1.985   5.244   4.270 -1.0534  0.2832  1.4726
 2316TIP3   OH2 6953   0.459   3.974   0.521 -0.6397  0.9688  0.4087
 2316TIP3    H1 6954   0.453   3.971   0.426  0.0841  2.0018  0.3125
 2316TIP3    H2 6955   0.479   4.065   0.541 -0.3856  0.6857  1.5250
 2317TIP3   OH2 6956   1.887   2.211   2.280 -0.7887 -0.7524 -0.2207
 2317TIP3    H1 6957   1.947   2.140   2.301  0.5250  0.5937  0.8172
 2317TIP3    H2 6958   1.802   2.169   2.271  0.1877 -2.6506 -1.2265
 2318TIP3   OH2 6959   5.147   1.864   0.098  0.2462 -0.1329 -0.3245
 2318TIP3    H1 6960   5.200   1.788   0.123 -0.2049 -0.9950 -1.8471
 2318TIP3    H2 6961   5.069   1.826   0.056  0.3906  1.1731 -1.8473
 2319TIP3   OH2 6962   0.549   3.165   1.092 -0.5471  0.1711  0.1548
 2319TIP3    H1 6963   0.540   3.234   1.026  2.7084 -0.3577 -0.9929
 2319TIP3    H2 6964   0.484   3.099   1.066 -2.1997  1.7728  0.0128
 2320TIP3   OH2 6965   3.992   3.464   0.160 -0.4958 -0.7168 -0.0202
 2320TIP3    H1 6966   4.068   3.426   0.115 -0.1759 -0.2771  0.1444
 2320TIP3    H2 6967   4.027   3.539   0.207 -1.4303  0.9032 -1.7960
 2321TIP3   OH2 6968   4.788   4.502   3.083  0.1337 -0.0061  0.0579
 2321TIP3    H1 6969   4.859   4.550   3.125  1.4382 -1.0999 -0.8134
 2321TIP3    H2 6970   4.783   4.419   3.132 -0.0029 -0.2645 -0.3865
 2322TIP3   OH2 6971   5.966   2.827   0.062  0.0595 -0.0471  0.5761
 2322TIP3    H1 6972   6.020   2.747   0.066 -0.5042 -0.5865 -1.4690
 2322TIP3    H2 6973   5.876   2.795   0.057 -0.3960  0.8197  2.3342
 2323TIP3   OH2 6974   3.599   0.317   0.776 -0.3060 -0.2005 -0.7698
 2323TIP3    H1 6975   3.510   0.288   0.797 -0.3720  1.0702  1.0641
 2323TIP3    H2 6976   3.587   0.406   0.741  0.2237  0.0638 -0.3076
 2324TIP3   OH2 6977   4.413   5.093   4.152 -0.8314  0.2224  0.1236
 2324TIP3    H1 6978   4.445   5.042   4.078 -1.4314 -0.9482  0.6515
 2324TIP3    H2 6979   4.464   5.174   4.149  0.5349 -0.6328 -0.4096
 2325TIP3   OH2 6980   1.992   1.526   1.457 -0.2136  0.2960 -0.6202
 2325TIP3    H1 6981   1.943   1.445   1.443  1.2525 -0.8151  0.3821
 2325TIP3    H2 6982   1.928   1.587   1.493 -0.8394 -1.1858  0.9047
 2326TIP3   OH2 6983   6.352   2.592   3.777  0.5467 -0.3994  0.7985
 2326TIP3    H1 6984   6.344   2.572   3.683 -0.2857  0.8196  0.5816
 2326TIP3    H2 6985   6.328   2.511   3.821 -0.5288 -0.5503 -0.0366
 2327TIP3   OH2 6986   2.119   4.024   2.646 -0.0740  0.4298 -0.0430
 2327TIP3    H1 6987   2.134   4.070   2.564  1.5586  0.1502  0.0795
 2327TIP3    H2 6988   2.192   4.050   2.702 -0.9033  0.2460  1.1792
 2328TIP3   OH2 6989   3.028   0.291   0.522  0.0921 -0.1472  0.2794
 2328TIP3    H1 6990   3.108   0.343   0.530  1.1901 -1.1831 -2.6167
 2328TIP3    H2 6991   3.029   0.234   0.599  0.7248  1.6200  1.6483
 2329TIP3   OH2 6992   4.623   3.520   3.032 -0.5074 -0.3985 -0.0342
 2329TIP3    H1 6993   4.716   3.540   3.038 -0.0073 -1.9664 -1.6445
 2329TIP3    H2 6994   4.613   3.440   3.083 -0.8798 -0.4795 -0.2327
 2330TIP3   OH2 6995   5.856   3.736   1.658 -0.3623 -0.1247  0.1405
 2330TIP3    H1 6996   5.783   3.747   1.596 -0.6304  0.9488  0.6248
 2330TIP3    H2 6997   5.924   3.794   1.625  0.4808 -1.4679 -0.5690
 2331TIP3   OH2 6998   5.066   0.915   3.746 -0.2786 -0.3460  0.3556
 2331TIP3    H1 6999   5.040   0.930   3.837  0.9736 -1.8029  1.0002
 2331TIP3    H2 7000   5.126   0.841   3.750  2.4000  1.5323 -1.2361
 2332TIP3   OH2 7001   4.955   1.619   0.736  0.3289  0.3231 -0.2978
 2332TIP3    H1 7002   4.981   1.711   0.740  1.7265  0.0489 -2.0317
 2332TIP3    H2 7003   4.914   1.610   0.650  0.7583 -0.8100 -0.3866
 2333TIP3   OH2 7004   2.164   1.686   2.196 -0.0498  0.0556  0.4383
 2333TIP3    H1 7005   2.210   1.617   2.147  1.0355  1.1772 -0.1908
 2333TIP3    H2 7006   2.189   1.672   2.287  0.6698 -0.0133  0.2355
 2334TIP3   OH2 7007   5.410   2.248   4.144  0.0453  0.4181  0.3848
 2334TIP3    H1 7008   5.424   2.263   4.237 -1.4018  0.6820  0.5861
 2334TIP3    H2 7009   5.491   2.206   4.114  0.9276  1.2053  1.5405
 2335TIP3   OH2 7010   4.366   1.243   3.992 -0.2894 -0.0373  0.3817
 2335TIP3    H1 7011   4.428   1.206   3.929 -1.3595 -1.1542 -0.0474
 2335TIP3    H2 7012   4.420   1.264   4.068  0.5700 -1.3579  0.1708
 2336TIP3   OH2 7013   3.845   2.668   4.285 -0.0072 -0.1323 -0.8869
 2336TIP3    H1 7014   3.793   2.632   4.214 -0.3895  0.0161 -0.6828
 2336TIP3    H2 7015   3.816   2.759   4.293  0.7016  0.1300 -1.1660
 2337TIP3   OH2 7016   4.991   5.020   4.869  0.8228  0.1118  0.4422
 2337TIP3    H1 7017   5.037   5.044   4.950 -1.7819  0.6111  1.8691
 2337TIP3    H2 7018   4.940   4.943   4.892 -0.2138  0.4467 -0.6312
 2338TIP3   OH2 7019   2.154   4.869   1.588  0.3509 -0.3133  0.0621
 2338TIP3    H1 7020   2.173   4.869   1.682  1.1331  0.6827 -0.0758
 2338TIP3    H2 7021   2.069   4.912   1.581  0.5892  0.1973  0.2669
 2339TIP3   OH2 7022   3.001   1.095   3.537  0.3658 -0.3267 -0.3242
 2339TIP3    H1 7023   3.041   1.008   3.545  0.4018 -0.2557  0.3477
 2339TIP3    H2 7024   3.073   1.152   3.508  0.9713 -0.0726  1.4925
 2340TIP3   OH2 7025   5.908   4.605   2.731  0.0951  0.1521 -0.3113
 2340TIP3    H1 7026   5.826   4.557   2.740 -0.0656  0.2079 -1.3530
 2340TIP3    H2 7027   5.969   4.561   2.791 -0.2179 -0.9780 -0.8042
 2341TIP3   OH2 7028   4.497   0.164   4.265 -0.3437  0.0761 -1.0347
 2341TIP3    H1 7029   4.447   0.197   4.191 -0.2328  2.4548 -0.1300
 2341TIP3    H2 7030   4.434   0.116   4.317 -0.9040  0.1938 -1.5879
 2342TIP3   OH2 7031   5.671   5.849   0.429 -0.3701  0.1564 -0.3226
 2342TIP3    H1 7032   5.581   5.825   0.450 -0.5623 -0.1034 -1.3565
 2342TIP3    H2 7033   5.667   5.942   0.405 -0.3710  0.1400 -0.3872
 2343TIP3   OH2 7034   4.255   1.507   4.023 -0.4396 -0.0734  0.1037
 2343TIP3    H1 7035   4.330   1.451   4.003 -0.2295  0.6690 -1.3142
 2343TIP3    H2 7036   4.269   1.534   4.114  1.9079  1.3422 -0.5942
 2344TIP3   OH2 7037   4.198   5.956   3.145 -0.3945 -0.1743  0.6998
 2344TIP3    H1 7038   4.123   5.896   3.147 -1.2108  0.7194 -0.7676
 2344TIP3    H2 7039   4.158   6.043   3.132  0.8554  0.4140  0.6636
 2345TIP3   OH2 7040   5.933   2.234   4.678 -0.0042  0.6628 -0.3427
 2345TIP3    H1 7041   6.023   2.242   4.709  0.1670  1.5035 -1.0190
 2345TIP3    H2 7042   5.941   2.226   4.583 -0.6165 -0.0152 -0.3503
 2346TIP3   OH2 7043   4.718   3.098   4.726  0.3216 -0.0990 -0.1217
 2346TIP3    H1 7044   4.651   3.084   4.793 -0.3493 -0.8690 -0.9157
 2346TIP3    H2 7045   4.779   3.025   4.737  0.4031 -0.0308 -0.1205
 2347TIP3   OH2 7046   5.920   0.233   4.600 -0.3273  0.5732 -0.4611
 2347TIP3    H1 7047   5.910   0.145   4.638  2.3333  0.6158  0.5635
 2347TIP3    H2 7048   5.918   0.292   4.675 -1.7552  1.4105 -1.1119
 2348TIP3   OH2 7049   2.542   4.522   0.910 -0.3033  0.3527 -0.3456
 2348TIP3    H1 7050   2.530   4.610   0.947 -0.1181 -0.0247  0.6499
 2348TIP3    H2 7051   2.568   4.469   0.985  0.6700 -0.3252 -1.1530
 2349TIP3   OH2 7052   5.416   3.562   0.849 -0.2286  0.3098  0.2035
 2349TIP3    H1 7053   5.478   3.634   0.837 -1.4164  1.5325  1.1116
 2349TIP3    H2 7054   5.457   3.507   0.917  0.0780  0.8580  0.4755
 2350TIP3   OH2 7055   0.897   5.360   0.683 -0.4377 -0.1902  0.1025
 2350TIP3    H1 7056   0.976   5.323   0.723  1.3562 -0.0705 -2.9970
 2350TIP3    H2 7057   0.925   5.444   0.648 -1.2738 -1.0531 -2.9155
 2351TIP3   OH2 7058   5.770   2.962   0.806  0.3442  0.6193 -0.4409
 2351TIP3    H1 7059   5.731   2.975   0.892  1.0269  1.5038 -0.2506
 2351TIP3    H2 7060   5.863   2.945   0.824  0.0105 -2.1334 -0.8335
 2352TIP3   OH2 7061   3.940   5.248   3.696  0.1478 -0.1259 -0.0864
 2352TIP3    H1 7062   3.863   5.242   3.752  0.0182 -0.0897 -0.2590
 2352TIP3    H2 7063   3.946   5.162   3.654  0.1499 -0.1013 -0.1375
 2353TIP3   OH2 7064   1.116   0.444   3.424  0.1650 -0.0478 -0.0661
 2353TIP3    H1 7065   1.052   0.515   3.416 -1.6804 -1.6671 -0.5046
 2353TIP3    H2 7066   1.194   0.485   3.461 -1.6169  1.7601  1.9436
 2354TIP3   OH2 7067   2.210   5.102   0.451 -0.2156 -0.6880  0.1107
 2354TIP3    H1 7068   2.206   5.048   0.530  0.4441 -0.1855  0.5061
 2354TIP3    H2 7069   2.278   5.167   0.471 -1.1708  0.4540 -0.2404
 2355TIP3   OH2 7070   3.323   4.931   3.585  0.2312 -0.3865 -0.0792
 2355TIP3    H1 7071   3.380   4.955   3.658 -1.1087 -0.4166  1.0227
 2355TIP3    H2 7072   3.379   4.879   3.527  1.0709 -1.3092  1.4782
 2356TIP3   OH2 7073   3.744   0.152   1.881 -0.0445  0.2188 -0.1766
 2356TIP3    H1 7074   3.777   0.062   1.890 -1.2943 -0.1672  0.7715
 2356TIP3    H2 7075   3.725   0.160   1.788  0.5747 -0.3064 -0.3652
 2357TIP3   OH2 7076   3.291   2.683   3.231  0.0717  0.0054  0.1429
 2357TIP3    H1 7077   3.249   2.766   3.252 -1.9850 -1.2617  1.4362
 2357TIP3    H2 7078   3.329   2.696   3.144 -3.7134  1.0907 -1.5284
 2358TIP3   OH2 7079   3.726   4.785   0.839  0.5246 -0.7086  0.1717
 2358TIP3    H1 7080   3.725   4.690   0.829 -0.1693 -0.5642 -1.4708
 2358TIP3    H2 7081   3.805   4.814   0.793 -0.2629 -0.3724 -1.0253
 2359TIP3   OH2 7082   2.948   2.339   3.693 -0.2316  0.5956 -0.1013
 2359TIP3    H1 7083   2.914   2.274   3.755 -3.0150  1.2170 -0.8305
 2359TIP3    H2 7084   2.872   2.392   3.670  1.0472  1.4298 -2.8061
 2360TIP3   OH2 7085   6.207   1.870   0.036  0.2090  0.3828 -0.0890
 2360TIP3    H1 7086   6.289   1.873  -0.014  0.1206 -1.8449 -0.4718
 2360TIP3    H2 7087   6.235   1.850   0.126  0.1274 -5.6619 -0.9922
 2361TIP3   OH2 7088   2.046   5.016   4.421 -0.1338 -0.0047  0.0795
 2361TIP3    H1 7089   2.057   4.997   4.514  1.5501  1.5964  0.2736
 2361TIP3    H2 7090   2.039   4.930   4.379 -2.5907 -0.7385  1.7949
 2362TIP3   OH2 7091   2.765   5.891   3.084 -0.6380 -0.1794  0.1375
 2362TIP3    H1 7092   2.820   5.943   3.143  1.5646 -1.0273 -1.0417
 2362TIP3    H2 7093   2.736   5.954   3.018 -2.1054  0.5158  1.3887
 2363TIP3   OH2 7094   5.252   2.175   0.401  0.4934 -0.2920  0.2156
 2363TIP3    H1 7095   5.322   2.239   0.408 -0.1160  0.7951 -2.3091
 2363TIP3    H2 7096   5.293   2.098   0.363  0.8912 -0.7785  1.6133
 2364TIP3   OH2 7097   3.712   2.935   0.498  0.9595 -0.1388 -0.2842
 2364TIP3    H1 7098   3.779   2.867   0.493  0.9394 -0.2505  0.8449
 2364TIP3    H2 7099   3.705   2.967   0.408  1.7051 -0.9117 -0.6372
 2365TIP3   OH2 7100   0.917   3.254   2.835  0.1977  0.0019  0.3235
 2365TIP3    H1 7101   0.962   3.335   2.858  0.5371 -0.8140  2.7529
 2365TIP3    H2 7102   0.839   3.253   2.890 -0.7208 -0.5501 -0.9303
 2366TIP3   OH2 7103   1.326   1.928   1.328 -0.1072  0.5991  0.4264
 2366TIP3    H1 7104   1.272   1.996   1.367 -3.0381 -0.0557 -2.0716
 2366TIP3    H2 7105   1.327   1.857   1.392 -2.9452  0.3585  0.2969
 2367TIP3   OH2 7106   1.255   2.628   1.353  0.1575  0.0154  0.4209
 2367TIP3    H1 7107   1.211   2.558   1.402 -0.4590  0.6202  0.7444
 2367TIP3    H2 7108   1.334   2.646   1.404 -0.1660  0.2103  0.8632
 2368TIP3   OH2 7109   3.128   4.071   4.508 -0.5505 -0.4124  0.4770
 2368TIP3    H1 7110   3.134   4.026   4.591 -1.1831 -0.8334  0.2969
 2368TIP3    H2 7111   3.217   4.104   4.492  0.1149 -2.2411  0.2386
 2369TIP3   OH2 7112   1.318   3.896   0.549  0.3636 -0.2171  0.0441
 2369TIP3    H1 7113   1.259   3.896   0.474  1.5136 -0.7442 -0.8952
 2369TIP3    H2 7114   1.403   3.924   0.513  1.6787 -3.2892  0.4896
 2370TIP3   OH2 7115   2.245   5.004   5.130 -0.2421  0.0678  0.1422
 2370TIP3    H1 7116   2.300   4.966   5.062 -2.7753 -1.1310 -1.3584
 2370TIP3    H2 7117   2.228   5.094   5.101  0.9063  0.4593  0.6404
 2371TIP3   OH2 7118   6.011   3.726   2.721 -0.9042  0.0511  0.0302
 2371TIP3    H1 7119   5.931   3.712   2.771  0.8722  0.6941  3.3460
 2371TIP3    H2 7120   6.078   3.675   2.767  1.1585  1.7448 -0.8944
 2372TIP3   OH2 7121   3.427   1.321   0.735  0.0403 -0.3462 -0.3291
 2372TIP3    H1 7122   3.466   1.279   0.658  1.1025  1.5555 -0.8931
 2372TIP3    H2 7123   3.371   1.389   0.700 -0.1946 -0.0606  0.5767
 2373TIP3   OH2 7124   4.678   4.531   2.158  0.0799  0.4490 -0.2535
 2373TIP3    H1 7125   4.759   4.500   2.116  0.4936 -1.6265  1.8768
 2373TIP3    H2 7126   4.665   4.472   2.232 -2.3665  1.9399  0.6274
 2374TIP3   OH2 7127   1.902   5.925   2.837  0.4695  0.0874 -0.3460
 2374TIP3    H1 7128   1.877   5.985   2.767 -0.4393 -0.2385 -0.3042
 2374TIP3    H2 7129   1.879   5.838   2.803  0.7139 -0.1374  0.0599
 2375TIP3   OH2 7130   5.633   1.466   2.186 -0.8023 -0.4533  0.2095
 2375TIP3    H1 7131   5.707   1.523   2.166  0.5847 -1.0970  2.9053
 2375TIP3    H2 7132   5.603   1.433   2.102 -1.7202  4.1156 -1.5695
 2376TIP3   OH2 7133   3.966   1.484   2.530 -0.4011  0.2769 -0.2798
 2376TIP3    H1 7134   4.007   1.544   2.592  1.4114 -0.1272 -1.0124
 2376TIP3    H2 7135   3.928   1.415   2.585 -1.7798  1.6079  0.5158
 2377TIP3   OH2 7136   5.423   4.086   2.949  0.2034  0.1874  0.0968
 2377TIP3    H1 7137   5.463   4.029   2.883 -1.4690 -0.2942 -0.5822
 2377TIP3    H2 7138   5.445   4.045   3.033  0.2574 -0.6541 -0.3120
 2378TIP3   OH2 7139   3.516   0.428   2.869 -0.4442  0.2597  0.8119
 2378TIP3    H1 7140   3.529   0.333   2.872 -0.6397  0.2532  1.7934
 2378TIP3    H2 7141   3.421   0.439   2.878 -0.4826  0.5322  0.1258
 2379TIP3   OH2 7142   6.228   5.426   3.746  0.1622 -0.1625  0.0833
 2379TIP3    H1 7143   6.170   5.366   3.792  1.1272 -0.6798  0.6673
 2379TIP3    H2 7144   6.301   5.371   3.717 -0.5949  0.0442 -2.4720
 2380TIP3   OH2 7145   5.629   2.532   0.870  0.0296  0.3825 -0.1849
 2380TIP3    H1 7146   5.559   2.564   0.926 -0.6123 -1.6484  0.2814
 2380TIP3    H2 7147   5.619   2.580   0.788 -1.4422  0.6685  0.1320
 2381TIP3   OH2 7148   1.884   0.847   2.542  0.1148  0.2825  0.6437
 2381TIP3    H1 7149   1.900   0.907   2.469  2.2190 -1.4399 -0.4143
 2381TIP3    H2 7150   1.840   0.772   2.502  0.1071 -0.1165  1.3885
 2382TIP3   OH2 7151   2.533   5.537   2.954  0.1314  0.2992 -0.2022
 2382TIP3    H1 7152   2.524   5.604   2.886 -0.8755 -0.3512 -0.7360
 2382TIP3    H2 7153   2.599   5.572   3.014  0.1657  1.4236 -0.8709
 2383TIP3   OH2 7154   3.590   4.450   3.207  0.2003 -0.1201 -0.1118
 2383TIP3    H1 7155   3.538   4.476   3.131 -0.8150 -0.7487  0.3496
 2383TIP3    H2 7156   3.665   4.403   3.170  1.2961  2.1121 -0.8748
 2384TIP3   OH2 7157   0.262   3.103   2.748 -0.3646  0.2607 -0.0931
 2384TIP3    H1 7158   0.350   3.071   2.766 -0.7049 -1.7253 -1.6320
 2384TIP3    H2 7159   0.255   3.184   2.799  2.4112  0.6032 -0.1044
 2385TIP3   OH2 7160   2.303   1.319   4.796  0.1007 -0.2508  0.8241
 2385TIP3    H1 7161   2.330   1.228   4.799  0.1326 -0.4105 -2.0253
 2385TIP3    H2 7162   2.210   1.318   4.817  0.4559 -0.6638  2.5570
 2386TIP3   OH2 7163   4.090   2.074   2.561  0.1893  0.0145 -0.7292
 2386TIP3    H1 7164   4.032   2.090   2.487  1.0527 -0.8922 -1.6331
 2386TIP3    H2 7165   4.100   1.979   2.564  0.8181  0.0890  0.0496
 2387TIP3   OH2 7166   1.899   0.228   2.742 -0.5075  0.1064  0.0718
 2387TIP3    H1 7167   1.968   0.244   2.806 -0.1570 -1.7829  0.2112
 2387TIP3    H2 7168   1.843   0.306   2.747  0.0244  0.4062  1.9902
 2388TIP3   OH2 7169   1.270   4.955   0.170  0.1146  0.0393  0.2037
 2388TIP3    H1 7170   1.175   4.965   0.181  0.1793  0.6853  0.2148
 2388TIP3    H2 7171   1.291   5.011   0.095  0.6196  0.6323  0.7773
 2389TIP3   OH2 7172   1.905   0.364   4.940 -0.3004  0.0953 -0.2502
 2389TIP3    H1 7173   1.976   0.426   4.957 -0.9658  1.2850 -1.5330
 2389TIP3    H2 7174   1.938   0.280   4.970  0.3567  1.1635  2.2731
 2390TIP3   OH2 7175   2.402   4.909   4.891 -0.2730  0.3966 -0.0807
 2390TIP3    H1 7176   2.451   4.989   4.871  0.6128 -0.2324 -0.4721
 2390TIP3    H2 7177   2.469   4.846   4.919 -0.9637 -0.2102  0.2277
 2391TIP3   OH2 7178   5.752   1.678   1.403 -0.0499 -0.9246  0.3631
 2391TIP3    H1 7179   5.665   1.681   1.443 -0.3548 -0.3950 -0.3203
 2391TIP3    H2 7180   5.813   1.679   1.478 -0.6211 -1.8192  0.8621
 2392TIP3   OH2 7181   5.043   5.326   1.702  0.4292 -0.6974  0.0857
 2392TIP3    H1 7182   5.116   5.283   1.656  0.3675  0.7044 -1.4296
 2392TIP3    H2 7183   5.071   5.417   1.711 -1.0430 -0.1605 -0.4077
 2393TIP3   OH2 7184   4.293   4.953   2.254 -0.4855  0.0986 -0.3292
 2393TIP3    H1 7185   4.341   4.935   2.174 -2.2706  1.4756 -1.7866
 2393TIP3    H2 7186   4.232   4.879   2.262  0.9319 -1.0200  0.8662
 2394TIP3   OH2 7187   4.110   2.133   4.131 -0.0125  0.0726 -0.3040
 2394TIP3    H1 7188   4.052   2.208   4.146  0.5267  0.0442  2.4117
 2394TIP3    H2 7189   4.139   2.107   4.219  0.7620 -2.5885 -1.2603
 2395TIP3   OH2 7190   2.016   0.496   4.663  0.6680 -0.2463  0.1904
 2395TIP3    H1 7191   1.989   0.581   4.698 -1.7676 -1.1371  0.6737
 2395TIP3    H2 7192   1.961   0.484   4.586 -0.3706 -2.1611  1.1761
 2396TIP3   OH2 7193   4.724   5.781   0.835 -0.2121  0.1420 -0.1794
 2396TIP3    H1 7194   4.716   5.801   0.928 -2.2216 -2.0520  0.2439
 2396TIP3    H2 7195   4.791   5.712   0.831 -1.7646 -1.4674  0.0522
 2397TIP3   OH2 7196   3.068   0.424   4.962 -0.2540 -0.2797  0.0656
 2397TIP3    H1 7197   3.063   0.415   5.057 -0.3599 -0.8127  0.0098
 2397TIP3    H2 7198   3.145   0.373   4.937  0.0207  0.2062 -0.0920
 2398TIP3   OH2 7199   4.372   2.098   1.177  0.3367  0.0657  0.5068
 2398TIP3    H1 7200   4.302   2.158   1.202  0.6230 -0.0381  1.6111
 2398TIP3    H2 7201   4.418   2.143   1.105  0.0813  0.8256  0.8109
 2399TIP3   OH2 7202   3.143   1.358   3.465  0.5977 -0.0255 -0.2847
 2399TIP3    H1 7203   3.074   1.400   3.413 -0.7412  1.4000  2.4092
 2399TIP3    H2 7204   3.220   1.412   3.452 -0.0095  0.9332 -0.0125
 2400TIP3   OH2 7205   2.243   1.649   2.459 -0.1064  0.1895  0.4233
 2400TIP3    H1 7206   2.211   1.579   2.517 -0.1882 -0.6056 -0.5397
 2400TIP3    H2 7207   2.223   1.730   2.505 -0.3881 -0.4131  1.3905
 2401TIP3   OH2 7208   1.765   0.119   4.744 -0.4136 -0.7558 -0.6794
 2401TIP3    H1 7209   1.725   0.205   4.730 -0.7496 -1.0780 -1.8063
 2401TIP3    H2 7210   1.840   0.137   4.801 -1.8364 -0.0675  1.0872
 2402TIP3   OH2 7211   0.826   1.115   3.632 -0.1402 -0.1125  0.0284
 2402TIP3    H1 7212   0.900   1.104   3.572 -1.3897 -1.1944 -1.3942
 2402TIP3    H2 7213   0.801   1.207   3.621  0.1916 -0.0708 -0.4273
 2403TIP3   OH2 7214   4.572   0.549   3.383  0.1231  0.3639  0.4871
 2403TIP3    H1 7215   4.612   0.581   3.463 -2.0420  3.3054  0.5803
 2403TIP3    H2 7216   4.523   0.625   3.349 -1.2265 -1.5318 -2.1679
 2404TIP3   OH2 7217   2.010   1.136   1.219 -0.3440 -0.1991  0.3929
 2404TIP3    H1 7218   2.092   1.146   1.269 -0.1507 -2.1805  0.5762
 2404TIP3    H2 7219   2.037   1.143   1.128 -0.0710 -0.2023  0.4704
 2405TIP3   OH2 7220   2.429   4.006   1.061 -0.3308  0.2305 -0.4292
 2405TIP3    H1 7221   2.495   4.065   1.026 -0.9515  0.0937 -1.9134
 2405TIP3    H2 7222   2.428   3.932   1.000 -0.4148 -0.7443  0.7188
 2406TIP3   OH2 7223   0.192   5.463   3.795 -0.0612 -0.0917  0.0268
 2406TIP3    H1 7224   0.148   5.484   3.877 -1.2471 -2.0845 -0.0311
 2406TIP3    H2 7225   0.236   5.380   3.812 -0.1631 -0.4345 -1.2811
 2407TIP3   OH2 7226   5.759   3.338   2.313 -0.0489  0.2055 -0.3452
 2407TIP3    H1 7227   5.850   3.310   2.319  0.1142  0.8608  0.4790
 2407TIP3    H2 7228   5.762   3.424   2.271 -0.2498  0.3757 -0.0184
 2408TIP3   OH2 7229   2.193   3.756   2.617 -0.5317  0.0061  0.4802
 2408TIP3    H1 7230   2.259   3.758   2.549  0.3685 -0.8336  1.3038
 2408TIP3    H2 7231   2.150   3.842   2.612  0.9702  0.7653  0.2687
 2409TIP3   OH2 7232   3.383   3.685   0.272  0.5407  0.3515  0.1963
 2409TIP3    H1 7233   3.338   3.730   0.343 -1.4017  0.3703 -0.9796
 2409TIP3    H2 7234   3.445   3.750   0.239  0.2602  0.9333  0.7797
 2410TIP3   OH2 7235   4.501   5.176   1.566  0.0167 -0.1460  0.3354
 2410TIP3    H1 7236   4.556   5.248   1.597 -2.5409  2.4099 -0.6438
 2410TIP3    H2 7237   4.447   5.152   1.642  0.5557 -0.7586  0.5344
 2411TIP3   OH2 7238   3.397   2.451   0.714 -0.8220 -0.3095 -0.0902
 2411TIP3    H1 7239   3.482   2.407   0.710 -0.0916  0.9158  0.8314
 2411TIP3    H2 7240   3.375   2.469   0.623  0.8456  1.0017 -0.2929
 2412TIP3   OH2 7241   2.816   3.758   4.169  0.3051  0.3277  0.1521
 2412TIP3    H1 7242   2.753   3.754   4.241  1.4590 -1.1339  1.1229
 2412TIP3    H2 7243   2.872   3.833   4.191 -0.1251  0.6804  0.0772
 2413TIP3   OH2 7244   5.244   4.656   1.570  0.0163  0.4024  0.3938
 2413TIP3    H1 7245   5.267   4.572   1.611 -1.3798 -0.3477 -0.2976
 2413TIP3    H2 7246   5.263   4.721   1.638  1.5876 -0.4027  0.7797
 2414TIP3   OH2 7247   2.645   2.758   0.713 -0.2181  0.6198  0.5473
 2414TIP3    H1 7248   2.555   2.731   0.695  0.3182 -0.0779 -1.4381
 2414TIP3    H2 7249   2.699   2.687   0.675  1.1693  1.6923  0.4263
 2415TIP3   OH2 7250   5.026   2.829   1.864  0.5354 -0.0198  0.0689
 2415TIP3    H1 7251   4.945   2.856   1.906  0.7830  0.3853  0.2858
 2415TIP3    H2 7252   5.092   2.890   1.897  1.0249 -0.6550  0.2792
 2416TIP3   OH2 7253   1.700   3.466   3.731  0.2163 -0.0505  0.8527
 2416TIP3    H1 7254   1.757   3.396   3.762 -0.0320 -0.7639 -0.2294
 2416TIP3    H2 7255   1.709   3.464   3.636  1.0499  2.1296  0.8129
 2417TIP3   OH2 7256   1.673   3.592   5.095  0.1840  0.5117  0.3303
 2417TIP3    H1 7257   1.660   3.507   5.053  1.7899  0.0222  0.7527
 2417TIP3    H2 7258   1.755   3.625   5.057  0.4734  1.0780  1.4154
 2418TIP3   OH2 7259   1.074   3.571   2.095  0.1663  0.2922  0.1632
 2418TIP3    H1 7260   1.166   3.599   2.090 -0.1072  1.0121 -2.9725
 2418TIP3    H2 7261   1.079   3.475   2.104  1.3504  0.0521 -2.1141
 2419TIP3   OH2 7262   0.538   4.757   3.183  0.2703  0.0362  0.2007
 2419TIP3    H1 7263   0.551   4.684   3.122  0.7517  0.6291 -0.4414
 2419TIP3    H2 7264   0.459   4.735   3.231 -0.0212 -0.5498 -0.5168
 2420TIP3   OH2 7265   4.148   5.348   0.450  0.5030 -0.3452  0.2200
 2420TIP3    H1 7266   4.092   5.273   0.468  1.0902 -0.7969  0.1846
 2420TIP3    H2 7267   4.169   5.384   0.536 -0.0849  0.0135  0.2204
 2421TIP3   OH2 7268   1.239   0.947   1.994 -0.0637 -0.7228  0.2555
 2421TIP3    H1 7269   1.302   0.928   2.064  1.7797 -0.3844 -1.2479
 2421TIP3    H2 7270   1.276   0.907   1.916 -0.6264  1.2980 -1.1294
 2422TIP3   OH2 7271   2.066   5.653   3.835 -0.3170  0.0921 -0.2163
 2422TIP3    H1 7272   2.072   5.578   3.893  0.5476 -1.1044 -1.7862
 2422TIP3    H2 7273   1.979   5.646   3.796 -0.4620  0.2550  0.0718
 2423TIP3   OH2 7274   5.427   1.748   4.440 -0.2618 -0.0819 -0.5332
 2423TIP3    H1 7275   5.341   1.767   4.479  0.3447 -1.6566  1.7403
 2423TIP3    H2 7276   5.484   1.817   4.473  0.1142 -1.0632  0.9087
 2424TIP3   OH2 7277   6.232   0.941   1.765 -0.2164 -0.6868  0.3847
 2424TIP3    H1 7278   6.226   0.935   1.670 -2.2446  0.1259  0.4128
 2424TIP3    H2 7279   6.233   0.850   1.795  0.4712 -0.9478 -0.4002
 2425TIP3   OH2 7280   2.969   3.620   0.257 -0.0780 -0.3428  0.0458
 2425TIP3    H1 7281   2.902   3.662   0.203  0.4749  1.0063  0.3746
 2425TIP3    H2 7282   2.981   3.534   0.217 -1.0643 -0.1179 -0.7984
 2426TIP3   OH2 7283   3.626   0.115   3.266 -0.0062 -0.2361  0.6176
 2426TIP3    H1 7284   3.673   0.174   3.208 -0.0928 -1.2631 -0.5334
 2426TIP3    H2 7285   3.685   0.041   3.279 -1.3916 -1.7535 -1.2131
 2427TIP3   OH2 7286   6.029   2.490   2.213 -0.1108  0.5036  0.7624
 2427TIP3    H1 7287   6.049   2.581   2.192 -1.1121  0.5382 -0.1497
 2427TIP3    H2 7288   6.026   2.487   2.308 -2.7813  2.0996  0.8448
 2428TIP3   OH2 7289   5.025   2.897   4.197 -0.3263  0.4761 -0.5045
 2428TIP3    H1 7290   5.120   2.895   4.212 -0.2018  3.0874 -0.4688
 2428TIP3    H2 7291   4.987   2.865   4.279  0.4865 -1.8689 -0.9865
 2429TIP3   OH2 7292   2.173   2.783   1.251 -0.4389  0.2820  0.0027
 2429TIP3    H1 7293   2.197   2.705   1.200  0.2023  0.9107 -0.6845
 2429TIP3    H2 7294   2.223   2.774   1.332 -0.5788 -0.1563  0.0441
 2430TIP3   OH2 7295   0.579   5.572   4.620  0.3312  0.1808  0.0475
 2430TIP3    H1 7296   0.624   5.488   4.623 -3.2195 -2.1463 -2.7821
 2430TIP3    H2 7297   0.611   5.614   4.540 -2.4127 -1.7213 -2.2741
 2431TIP3   OH2 7298   3.427   2.915   0.092 -0.1079  0.4873 -0.0409
 2431TIP3    H1 7299   3.459   2.874   0.173 -0.2879 -1.1238 -0.7484
 2431TIP3    H2 7300   3.484   2.880   0.024  0.5916  2.4912 -0.5502
 2432TIP3   OH2 7301   1.839   2.295   3.812  0.4994  1.2471 -0.0879
 2432TIP3    H1 7302   1.864   2.269   3.724  1.3262  0.5557  0.3327
 2432TIP3    H2 7303   1.749   2.262   3.822  0.4806  1.1394 -0.5947
 2433TIP3   OH2 7304   5.336   2.000   3.622 -0.0669  0.4800 -0.0899
 2433TIP3    H1 7305   5.273   1.929   3.636  0.0550  0.0478 -1.5355
 2433TIP3    H2 7306   5.328   2.055   3.700  1.2282 -2.1322  2.0542
 2434TIP3   OH2 7307   1.455   3.959   4.470 -1.0837  0.0520 -0.7080
 2434TIP3    H1 7308   1.532   3.976   4.415 -0.9257  0.2919 -0.4126
 2434TIP3    H2 7309   1.458   4.027   4.537 -1.5890  0.0974 -0.7318
 2435TIP3   OH2 7310   2.522   0.468   2.776  0.2229  0.1312 -0.3321
 2435TIP3    H1 7311   2.447   0.481   2.833  0.6274 -1.2163  0.5474
 2435TIP3    H2 7312   2.536   0.373   2.775  0.0230  0.0399 -2.9671
 2436TIP3   OH2 7313   5.261   1.726   3.572 -0.1403  0.2485 -0.2960
 2436TIP3    H1 7314   5.322   1.732   3.645 -0.6783  1.0844  0.0979
 2436TIP3    H2 7315   5.249   1.632   3.557 -0.6964  0.0549  1.2458
 2437TIP3   OH2 7316   4.092   0.961   4.440  0.0934  0.1673  1.0975
 2437TIP3    H1 7317   4.023   0.932   4.380  0.0053  0.5216  1.0248
 2437TIP3    H2 7318   4.074   1.054   4.454  2.6758  1.2933 -1.8406
 2438TIP3   OH2 7319   5.110   5.959   2.862 -0.1942 -0.2540 -0.2401
 2438TIP3    H1 7320   5.023   5.929   2.889  0.3598 -0.1914  1.7368
 2438TIP3    H2 7321   5.143   5.890   2.805 -1.2829 -0.5600 -0.5218
 2439TIP3   OH2 7322   0.815   0.522   4.564  0.3508 -0.7648  0.2334
 2439TIP3    H1 7323   0.905   0.535   4.533 -0.0313 -2.4565 -1.7859
 2439TIP3    H2 7324   0.825   0.484   4.652  1.5281  0.7446  0.8074
 2440TIP3   OH2 7325   3.108   4.172   4.082  0.4422  0.1163  0.5121
 2440TIP3    H1 7326   3.196   4.181   4.045 -0.2054  3.3037 -0.6604
 2440TIP3    H2 7327   3.050   4.183   4.007 -0.9362  0.8208  1.6416
 2441TIP3   OH2 7328   3.583   0.804   4.294 -0.0841  0.1064  0.1229
 2441TIP3    H1 7329   3.512   0.838   4.239  0.4524  0.3554 -0.4303
 2441TIP3    H2 7330   3.608   0.722   4.253  0.4742  0.4056 -0.1481
 2442TIP3   OH2 7331   2.364   5.019   2.684  0.2867 -0.6250  0.1624
 2442TIP3    H1 7332   2.313   4.939   2.699  2.9870 -2.2429  1.4837
 2442TIP3    H2 7333   2.435   4.993   2.625  1.4008  0.7106  0.8365
 2443TIP3   OH2 7334   0.744   0.041   4.898 -0.2066 -0.7272 -0.2079
 2443TIP3    H1 7335   0.804   0.102   4.854 -1.1306  0.1190 -0.3449
 2443TIP3    H2 7336   0.657   0.070   4.870 -0.8552 -0.0518  2.2934
 2444TIP3   OH2 7337   3.469   4.292   4.230 -0.3442 -0.2714  0.1712
 2444TIP3    H1 7338   3.429   4.264   4.148  0.0112  0.9805 -0.4644
 2444TIP3    H2 7339   3.553   4.331   4.203  1.0696 -2.2868  1.3929
 2445TIP3   OH2 7340   3.485   4.843   1.001 -0.0875  0.3803 -0.1457
 2445TIP3    H1 7341   3.543   4.834   0.926  2.2846  4.6848  0.8451
 2445TIP3    H2 7342   3.515   4.777   1.064  1.7528  0.5179 -0.8320
 2446TIP3   OH2 7343   0.600   3.000   0.754  0.0162  0.0900 -0.4183
 2446TIP3    H1 7344   0.634   3.088   0.743 -1.3639  0.7679  0.3773
 2446TIP3    H2 7345   0.645   2.966   0.832 -1.5849  1.2848  1.1280
 2447TIP3   OH2 7346   3.431   1.204   3.556 -0.6635 -0.1148  0.2159
 2447TIP3    H1 7347   3.386   1.137   3.505 -2.1919  0.5768  0.5891
 2447TIP3    H2 7348   3.517   1.213   3.515 -0.4352 -2.2676  0.1493
 2448TIP3   OH2 7349   0.359   5.735   4.572 -0.1048 -0.6222  0.3744
 2448TIP3    H1 7350   0.428   5.671   4.587  1.3372  1.1396  1.7910
 2448TIP3    H2 7351   0.402   5.820   4.582 -1.8543  0.6403 -1.6833
 2449TIP3   OH2 7352   6.259   0.333   2.817  0.0574 -0.0938 -0.2443
 2449TIP3    H1 7353   6.248   0.241   2.841  1.7526  0.3833  2.8603
 2449TIP3    H2 7354   6.200   0.380   2.876  1.8105  0.9638  0.7401
 2450TIP3   OH2 7355   3.252   1.576   3.243  1.0095  0.4581  0.5476
 2450TIP3    H1 7356   3.290   1.638   3.180 -0.2197 -0.2100 -0.9131
 2450TIP3    H2 7357   3.318   1.507   3.252  0.3486 -0.5520 -1.7380
 2451TIP3   OH2 7358   4.267   0.807   3.684 -0.1627  0.1591  0.1538
 2451TIP3    H1 7359   4.194   0.765   3.638 -0.0921  0.7699 -0.5344
 2451TIP3    H2 7360   4.242   0.900   3.689  0.8253  0.4748 -0.6057
 2452TIP3   OH2 7361   5.232   1.303   2.073 -0.0251 -0.1317  0.2334
 2452TIP3    H1 7362   5.265   1.391   2.092 -0.1394 -0.3067  1.3394
 2452TIP3    H2 7363   5.184   1.312   1.991 -0.2333  0.8896  0.4544
 2453TIP3   OH2 7364   0.525   2.874   0.211  0.4495 -0.3338  0.0019
 2453TIP3    H1 7365   0.612   2.845   0.240  0.5200 -1.6188 -1.3669
 2453TIP3    H2 7366   0.481   2.902   0.291  1.6152 -1.0504  0.9284
 2454TIP3   OH2 7367   0.344   2.759   1.369  0.2846  0.2061  0.9581
 2454TIP3    H1 7368   0.330   2.687   1.308  0.6661  0.1591  0.9225
 2454TIP3    H2 7369   0.431   2.743   1.407  0.1037  0.2973  1.4262
 2455TIP3   OH2 7370   2.957   1.108   0.567  0.0875  0.0247 -0.2184
 2455TIP3    H1 7371   3.025   1.082   0.628  0.2404 -0.5786 -0.6363
 2455TIP3    H2 7372   2.965   1.047   0.494 -0.8175  0.0257 -0.3340
 2456TIP3   OH2 7373   0.618   0.503   2.861 -0.7860  0.6415  0.9286
 2456TIP3    H1 7374   0.560   0.429   2.877 -1.2939  0.3464 -1.8253
 2456TIP3    H2 7375   0.559   0.575   2.840 -0.2016  0.8466 -0.0380
 2457TIP3   OH2 7376   2.480   2.118   1.503  0.1053  0.2098  0.1105
 2457TIP3    H1 7377   2.402   2.173   1.510 -0.0996 -0.1927  1.1900
 2457TIP3    H2 7378   2.449   2.030   1.524  0.7302 -0.0567 -0.0603
 2458TIP3   OH2 7379   3.441   5.399   3.548  0.1160  0.1069 -0.0627
 2458TIP3    H1 7380   3.528   5.423   3.579  0.5963 -0.3659 -1.0202
 2458TIP3    H2 7381   3.405   5.481   3.513 -0.0548  0.4264  0.8273
 2459TIP3   OH2 7382   4.391   2.008   2.569 -0.4585 -0.4292  0.3812
 2459TIP3    H1 7383   4.345   2.025   2.487 -0.7105  0.3097  0.6650
 2459TIP3    H2 7384   4.323   2.011   2.636 -0.0761  0.2541  0.7531
 2460TIP3   OH2 7385   4.638   2.947   2.696  0.4862  0.3562 -0.5942
 2460TIP3    H1 7386   4.732   2.928   2.700  0.3012 -1.2495 -2.4171
 2460TIP3    H2 7387   4.617   2.942   2.602 -1.7644 -1.1927 -0.0708
 2461TIP3   OH2 7388   0.038   0.942   2.452 -0.0346 -0.1750 -0.1062
 2461TIP3    H1 7389   0.094   0.915   2.379 -0.8626 -0.8835 -0.5049
 2461TIP3    H2 7390   0.079   1.021   2.486  2.3559 -1.7399  0.9037
 2462TIP3   OH2 7391   2.629   0.344   1.501  0.0457  0.0483  0.3229
 2462TIP3    H1 7392   2.576   0.423   1.488  0.2454 -0.0593 -1.4898
 2462TIP3    H2 7393   2.572   0.285   1.550 -0.5959  0.8348  0.5473
 2463TIP3   OH2 7394   4.788   5.041   1.513  0.0661 -0.4383 -0.6108
 2463TIP3    H1 7395   4.711   4.998   1.476 -0.4497 -0.0765  0.0215
 2463TIP3    H2 7396   4.778   5.032   1.608 -0.2603  1.3574 -0.4210
 2464TIP3   OH2 7397   4.931   3.927   3.240  0.0643 -0.1928  0.2495
 2464TIP3    H1 7398   4.936   3.842   3.195  0.5576 -0.1758  0.2666
 2464TIP3    H2 7399   4.964   3.990   3.176  0.4647 -0.1245  0.5231
 2465TIP3   OH2 7400   3.313   4.490   1.436  0.6552 -0.2484 -0.0431
 2465TIP3    H1 7401   3.231   4.497   1.386  0.7251 -2.0557 -0.4586
 2465TIP3    H2 7402   3.341   4.400   1.424  2.9101  0.4148 -0.1825
 2466TIP3   OH2 7403   0.299   4.151   3.342 -0.5226 -0.4024  0.1727
 2466TIP3    H1 7404   0.245   4.105   3.278  0.7219 -1.1233 -0.3896
 2466TIP3    H2 7405   0.247   4.228   3.366 -1.3672 -0.5559 -1.0716
 2467TIP3   OH2 7406   3.575   5.515   0.219  0.1635 -0.4197  0.4495
 2467TIP3    H1 7407   3.492   5.532   0.174 -0.7170 -1.0697  1.7405
 2467TIP3    H2 7408   3.638   5.498   0.149 -0.5162  1.1782 -0.5963
 2468TIP3   OH2 7409   5.582   4.078   4.161  0.4714  0.2994 -0.4717
 2468TIP3    H1 7410   5.507   4.018   4.166 -1.8433  3.0248  0.1468
 2468TIP3    H2 7411   5.583   4.123   4.246  2.7017  0.5573 -0.5614
 2469TIP3   OH2 7412   0.900   4.461   4.934 -0.7353 -0.1361 -0.3982
 2469TIP3    H1 7413   0.943   4.385   4.895 -0.9480 -0.6091  0.2727
 2469TIP3    H2 7414   0.852   4.501   4.862 -1.1911 -1.0425 -0.6096
 2470TIP3   OH2 7415   0.743   1.229   2.289 -0.3354  0.1195  0.2007
 2470TIP3    H1 7416   0.663   1.178   2.275 -0.3852  0.3983 -0.5812
 2470TIP3    H2 7417   0.712   1.316   2.312 -0.2570  0.0894  0.4162
 2471TIP3   OH2 7418   5.998   2.068   1.706 -0.5019 -0.0723  0.2572
 2471TIP3    H1 7419   6.049   2.028   1.777  1.0528  0.1776 -0.6753
 2471TIP3    H2 7420   6.062   2.117   1.654 -1.8941  1.2755 -0.2871
 2472TIP3   OH2 7421   0.641   0.659   1.279 -0.1160 -0.1684  0.0146
 2472TIP3    H1 7422   0.635   0.703   1.194 -0.1200 -1.6017 -0.7619
 2472TIP3    H2 7423   0.645   0.566   1.258  0.0360 -0.5564  1.5910
 2473TIP3   OH2 7424   2.749   3.218   2.885  0.8027  0.4647 -0.2251
 2473TIP3    H1 7425   2.815   3.246   2.822  1.3616 -0.8979 -0.2730
 2473TIP3    H2 7426   2.689   3.162   2.836  1.6568 -1.2125  0.5458
 2474TIP3   OH2 7427   0.991   5.842   1.849  0.0084  0.1833  0.1092
 2474TIP3    H1 7428   1.008   5.874   1.760  0.6160  0.6697  0.3940
 2474TIP3    H2 7429   0.955   5.754   1.836 -0.4183  0.4551 -0.6370
 2475TIP3   OH2 7430   4.107   4.851   3.096  0.3563 -0.0006  0.7784
 2475TIP3    H1 7431   4.107   4.876   3.004 -0.5849  0.2082  0.8236
 2475TIP3    H2 7432   4.178   4.902   3.135 -0.0349  0.8570  0.4017
 2476TIP3   OH2 7433   2.401   2.647   0.320 -0.0067 -0.1409 -0.1278
 2476TIP3    H1 7434   2.400   2.736   0.357 -2.3606  0.1915 -0.8318
 2476TIP3    H2 7435   2.394   2.589   0.396  1.8651  0.2199  0.3612
 2477TIP3   OH2 7436   5.615   0.481   4.110 -0.0881  0.3258  0.3078
 2477TIP3    H1 7437   5.548   0.414   4.097 -0.5377  0.2712  2.4840
 2477TIP3    H2 7438   5.692   0.433   4.138  0.0463  0.6014  0.4172
 2478TIP3   OH2 7439   3.947   4.117   2.755  0.0454 -0.1895  0.4385
 2478TIP3    H1 7440   4.019   4.158   2.803 -0.9657  0.9042  1.0866
 2478TIP3    H2 7441   3.883   4.094   2.823 -0.7700  0.0236 -0.2429
 2479TIP3   OH2 7442   3.912   2.026   0.302 -0.2816  0.6736  0.2468
 2479TIP3    H1 7443   3.837   1.981   0.264  0.0043  0.6154 -0.2664
 2479TIP3    H2 7444   3.950   2.076   0.230  2.3014 -2.1008 -0.5490
 2480TIP3   OH2 7445   6.339   0.282   3.534  0.5665 -0.1552  0.0285
 2480TIP3    H1 7446   6.309   0.227   3.606 -0.7355  0.3358 -0.1019
 2480TIP3    H2 7447   6.374   0.221   3.469  0.9824 -0.6660  0.7282
 2481TIP3   OH2 7448   6.185   1.819   4.776 -0.1972  0.0565  0.5125
 2481TIP3    H1 7449   6.198   1.740   4.829  0.0584  0.7923  1.5982
 2481TIP3    H2 7450   6.195   1.891   4.839  1.5162  1.0337 -0.8171
 2482TIP3   OH2 7451   4.606   3.189   3.668  0.5073 -0.1132  0.1382
 2482TIP3    H1 7452   4.511   3.206   3.669  0.3811 -0.8157  0.9506
 2482TIP3    H2 7453   4.637   3.234   3.589 -0.5409 -0.0985 -0.2879
 2483TIP3   OH2 7454   3.196   5.671   3.216 -0.4559  0.2285 -0.9485
 2483TIP3    H1 7455   3.127   5.609   3.239 -0.1985  0.3080  0.0963
 2483TIP3    H2 7456   3.219   5.650   3.125 -0.2948 -1.2605 -0.5820
 2484TIP3   OH2 7457   5.434   2.204   2.623 -0.2399  0.7234 -0.6918
 2484TIP3    H1 7458   5.436   2.267   2.696 -1.1870 -1.0835  0.9841
 2484TIP3    H2 7459   5.344   2.206   2.593 -0.2611  0.2168 -0.6624
 2485TIP3   OH2 7460   1.013   1.076   0.040  0.4487  0.6768  0.2847
 2485TIP3    H1 7461   0.981   0.996   0.081 -1.1887  1.7281  1.2022
 2485TIP3    H2 7462   1.039   1.050  -0.049 -0.3650 -0.7953  0.4563
 2486TIP3   OH2 7463   0.718   4.259   1.083 -0.2395  0.4264 -0.3164
 2486TIP3    H1 7464   0.807   4.237   1.108 -0.2124 -0.0570 -0.8288
 2486TIP3    H2 7465   0.678   4.176   1.059 -1.2433  0.4297  1.1689
 2487TIP3   OH2 7466   0.226   5.922   2.268  0.2730 -0.2561 -0.1084
 2487TIP3    H1 7467   0.310   5.881   2.250  0.8376  0.7585  0.1689
 2487TIP3    H2 7468   0.214   5.912   2.363  0.4641  0.2908 -0.0215
 2488TIP3   OH2 7469   0.686   5.126   0.036 -0.5395  0.0706  0.1046
 2488TIP3    H1 7470   0.699   5.218   0.056  0.3882 -0.0098 -0.0616
 2488TIP3    H2 7471   0.718   5.080   0.114 -0.3925 -0.1252 -0.0674
 2489TIP3   OH2 7472   0.759   3.435   3.548 -0.3367  0.5081  0.1996
 2489TIP3    H1 7473   0.775   3.424   3.642 -1.4247 -3.3036  0.0809
 2489TIP3    H2 7474   0.846   3.432   3.509 -0.0033 -0.1206  0.9536
 2490TIP3   OH2 7475   3.212   4.587   2.224 -0.3491 -0.2911 -0.0946
 2490TIP3    H1 7476   3.214   4.583   2.129 -0.3752  0.7689 -0.1439
 2490TIP3    H2 7477   3.128   4.546   2.247 -0.4058 -0.4294 -0.5320
 2491TIP3   OH2 7478   2.824   3.258   4.427  0.0039  0.0607  0.0221
 2491TIP3    H1 7479   2.906   3.209   4.419 -1.1366 -1.8582 -0.6534
 2491TIP3    H2 7480   2.826   3.319   4.353  0.9420  0.2598  0.1977
 2492TIP3   OH2 7481   2.016   2.217   0.399 -0.1460  0.4230 -0.0892
 2492TIP3    H1 7482   2.006   2.202   0.305 -0.7234 -0.5068  0.1044
 2492TIP3    H2 7483   1.930   2.246   0.428 -0.4030 -0.7520  0.3910
 2493TIP3   OH2 7484   5.493   5.943   2.451 -1.0962  0.3817 -0.2005
 2493TIP3    H1 7485   5.494   5.879   2.521 -0.5472  1.9987  1.3485
 2493TIP3    H2 7486   5.580   5.938   2.411 -0.8314  0.5767  0.3400
 2494TIP3   OH2 7487   1.449   0.911   2.974  0.1025 -0.2237 -0.3359
 2494TIP3    H1 7488   1.369   0.963   2.964  0.0502 -0.3890 -0.8170
 2494TIP3    H2 7489   1.500   0.931   2.896  0.6899  0.1494  0.1411
 2495TIP3   OH2 7490   1.573   4.291   0.652  0.2680  0.3414  0.5141
 2495TIP3    H1 7491   1.547   4.378   0.622  2.9812  1.2242  0.4333
 2495TIP3    H2 7492   1.492   4.251   0.684 -1.4373  2.0700 -1.3526
 2496TIP3   OH2 7493   4.402   3.292   4.337  0.2198 -0.0841  0.1401
 2496TIP3    H1 7494   4.352   3.276   4.257  0.5954 -0.8066  0.0434
 2496TIP3    H2 7495   4.415   3.206   4.375  1.0102  0.1425  0.3947
 2497TIP3   OH2 7496   5.112   0.225   4.090  0.4109  0.3221 -0.2606
 2497TIP3    H1 7497   5.135   0.279   4.015 -0.9666 -0.2782 -1.1561
 2497TIP3    H2 7498   5.016   0.229   4.094  0.4684  1.1289  2.0699
 2498TIP3   OH2 7499   2.999   5.313   3.714 -0.1829 -0.3968  0.1380
 2498TIP3    H1 7500   3.089   5.304   3.683 -0.0868  2.4590 -0.6573
 2498TIP3    H2 7501   2.973   5.224   3.738  2.2461 -1.5683 -1.2264
 2499TIP3   OH2 7502   3.917   0.845   0.500 -0.7230  0.2085  0.3776
 2499TIP3    H1 7503   3.919   0.765   0.553  2.5660 -0.4698 -0.6113
 2499TIP3    H2 7504   3.860   0.823   0.426  1.5445 -2.0109 -0.8706
 2500TIP3   OH2 7505   0.610   3.997   1.070 -0.1534 -0.4238  0.1467
 2500TIP3    H1 7506   0.642   3.917   1.113  0.7915  1.2398  2.8366
 2500TIP3    H2 7507   0.516   3.997   1.086 -0.0553 -0.6746  0.7574
 2501TIP3   OH2 7508   3.318   4.288   2.845 -0.0348  0.1930 -0.0797
 2501TIP3    H1 7509   3.352   4.201   2.823  0.2481  0.1874  0.3476
 2501TIP3    H2 7510   3.259   4.310   2.774 -1.4928 -1.1082  0.6732
 2502TIP3   OH2 7511   1.790   3.504   4.785 -0.6186  0.2560  0.0233
 2502TIP3    H1 7512   1.742   3.587   4.793  0.9961  1.1536  1.1353
 2502TIP3    H2 7513   1.783   3.465   4.872 -0.7944 -0.4492 -0.3069
 2503TIP3   OH2 7514   5.830   0.384   1.184  0.5027 -0.4724 -0.2667
 2503TIP3    H1 7515   5.751   0.383   1.130  0.9785 -2.6588 -1.0528
 2503TIP3    H2 7516   5.898   0.348   1.128  1.4850 -0.9266  1.1525
 2504TIP3   OH2 7517   3.174   3.532   4.389 -0.4819  0.3775  0.2683
 2504TIP3    H1 7518   3.138   3.484   4.314 -1.9740 -1.4050  2.0175
 2504TIP3    H2 7519   3.264   3.500   4.397 -0.1647  0.8790 -0.9276
 2505TIP3   OH2 7520   2.389   2.700   0.622  0.2196 -0.2278 -0.1325
 2505TIP3    H1 7521   2.339   2.663   0.695 -0.7053  0.9157 -0.1432
 2505TIP3    H2 7522   2.325   2.754   0.575  1.3056  0.6981 -0.5874
 2506TIP3   OH2 7523   3.289   1.085   3.949 -0.5601  0.6939 -0.1568
 2506TIP3    H1 7524   3.346   1.054   4.020  0.3770  2.6763  0.0262
 2506TIP3    H2 7525   3.326   1.170   3.924 -0.5983 -0.1090 -3.3395
 2507TIP3   OH2 7526   6.091   1.319   0.541  0.8007 -0.9574 -0.5159
 2507TIP3    H1 7527   6.014   1.374   0.531  1.2997 -0.1974 -0.3058
 2507TIP3    H2 7528   6.073   1.265   0.618  1.1468  0.3836  0.5349
 2508TIP3   OH2 7529   2.581   0.129   4.899 -0.2782 -0.0236 -0.3134
 2508TIP3    H1 7530   2.674   0.151   4.907 -0.2802  0.1724 -0.7910
 2508TIP3    H2 7531   2.538   0.212   4.876 -0.7818  0.1968  1.3123
 2509TIP3   OH2 7532   1.402   0.753   3.926 -0.2301 -0.2588 -0.1246
 2509TIP3    H1 7533   1.325   0.770   3.872 -0.2807 -1.3472 -0.4134
 2509TIP3    H2 7534   1.426   0.839   3.960 -1.2395  0.1791 -0.4702
 2510TIP3   OH2 7535   2.530   0.829   3.403 -0.1499  0.3466 -0.2961
 2510TIP3    H1 7536   2.450   0.802   3.449 -0.2768  0.1910 -0.6035
 2510TIP3    H2 7537   2.544   0.920   3.430 -0.4179  0.3668 -0.2226
 2511TIP3   OH2 7538   1.515   0.940   2.140 -0.8094 -0.3817  0.2665
 2511TIP3    H1 7539   1.546   1.031   2.139 -0.5589 -0.4401  1.4477
 2511TIP3    H2 7540   1.561   0.899   2.067  0.4062  0.0329  0.7590
 2512TIP3   OH2 7541   0.908   1.948   3.622  0.1194 -0.3836 -0.7242
 2512TIP3    H1 7542   0.814   1.959   3.639  0.2392 -0.7439  0.2170
 2512TIP3    H2 7543   0.911   1.879   3.556 -0.2421 -1.2756  0.1651
 2513TIP3   OH2 7544   1.979   0.104   5.009 -0.0101 -0.0534  0.2541
 2513TIP3    H1 7545   2.066   0.072   5.031  0.0304 -0.0542  0.0978
 2513TIP3    H2 7546   1.920   0.034   5.037 -0.0545  0.3861  1.3153
 2514TIP3   OH2 7547   1.604   4.773   0.327  0.2007  0.7883  0.6315
 2514TIP3    H1 7548   1.642   4.852   0.366  1.7177 -0.0011  0.8387
 2514TIP3    H2 7549   1.602   4.791   0.233  0.6853  1.0215  0.6623
 2515TIP3   OH2 7550   5.401   3.913   2.122  0.2540  0.1299 -0.5088
 2515TIP3    H1 7551   5.480   3.964   2.139 -0.4468  0.4346  2.3145
 2515TIP3    H2 7552   5.372   3.884   2.208 -1.0777 -2.5421 -1.7278
 2516TIP3   OH2 7553   5.192   1.448   3.469  0.0386  0.6757  0.7787
 2516TIP3    H1 7554   5.098   1.461   3.455  0.0209 -0.3628 -0.2239
 2516TIP3    H2 7555   5.197   1.386   3.542 -0.0809  0.2248  0.4087
 2517TIP3   OH2 7556   4.444   4.672   2.057  0.3002 -0.7681 -0.0665
 2517TIP3    H1 7557   4.531   4.633   2.060  0.3046 -0.7429  3.4001
 2517TIP3    H2 7558   4.389   4.612   2.108 -1.1185  0.5621  0.0415
 2518TIP3   OH2 7559   0.201   4.475   3.652  0.1771 -0.2142  0.1116
 2518TIP3    H1 7560   0.183   4.391   3.694  0.5542 -0.0254  0.6574
 2518TIP3    H2 7561   0.264   4.518   3.709 -0.4144  0.6763  0.1172
 2519TIP3   OH2 7562   2.407   5.128   0.774  0.2096  0.0298 -0.2857
 2519TIP3    H1 7563   2.392   5.199   0.711  0.7641  0.6057  0.2262
 2519TIP3    H2 7564   2.483   5.082   0.739  0.0075 -0.1701 -0.4754
 2520TIP3   OH2 7565   1.982   2.417   0.776  0.0548  0.5197 -0.4004
 2520TIP3    H1 7566   2.068   2.458   0.782  0.5095 -0.2942 -1.2672
 2520TIP3    H2 7567   1.970   2.372   0.860  0.2179  1.1040 -0.0591
 2521TIP3   OH2 7568   6.302   5.945   4.664  0.0384  0.2766  0.2574
 2521TIP3    H1 7569   6.234   5.899   4.713 -0.0835 -0.9657 -1.0152
 2521TIP3    H2 7570   6.302   5.904   4.578  1.6841  0.9655 -0.1218
 2522TIP3   OH2 7571   4.559   1.331   2.770  0.3529 -0.6032  0.0599
 2522TIP3    H1 7572   4.487   1.322   2.832  0.8625  0.3839  0.8196
 2522TIP3    H2 7573   4.563   1.425   2.751  0.5937 -0.8142 -1.0191
 2523TIP3   OH2 7574   3.500   0.891   4.863 -0.0898  0.1920  0.0874
 2523TIP3    H1 7575   3.566   0.874   4.930  1.2745  0.7313 -1.0787
 2523TIP3    H2 7576   3.474   0.982   4.878 -0.3582  0.0716  0.3610
 2524TIP3   OH2 7577   0.813   4.651   2.796 -0.2466 -0.0741  0.2283
 2524TIP3    H1 7578   0.903   4.671   2.768 -1.2013  1.0083 -2.3877
 2524TIP3    H2 7579   0.824   4.606   2.880  2.7141  0.2392  0.1341
 2525TIP3   OH2 7580   4.558   3.480   4.172 -0.1694  0.1695 -0.8853
 2525TIP3    H1 7581   4.519   3.412   4.227 -0.9889  0.9267 -0.5033
 2525TIP3    H2 7582   4.529   3.458   4.084 -0.0953 -0.2037 -0.8191
 2526TIP3   OH2 7583   5.114  -0.016   2.771  0.3325 -0.3643 -0.5487
 2526TIP3    H1 7584   5.181  -0.005   2.704  0.6687  0.1018 -0.1456
 2526TIP3    H2 7585   5.126   0.060   2.829 -2.4516  1.4500 -2.1217
 2527TIP3   OH2 7586   5.854   4.500   0.717  0.0966  0.3083 -0.1709
 2527TIP3    H1 7587   5.816   4.436   0.778 -0.9225  0.5291 -0.5588
 2527TIP3    H2 7588   5.808   4.581   0.736  0.8430  0.7485 -0.2163
 2528TIP3   OH2 7589   4.839   1.048   5.100 -0.0439 -0.3446  0.0590
 2528TIP3    H1 7590   4.780   1.115   5.067  1.6408  1.2898  0.1621
 2528TIP3    H2 7591   4.862   0.996   5.022 -2.1791 -1.5642  0.1621
 2529TIP3   OH2 7592   5.999   4.035   1.818  0.5751  0.3097 -0.3285
 2529TIP3    H1 7593   6.043   4.120   1.824 -1.2320  1.2276  0.6478
 2529TIP3    H2 7594   5.977   4.026   1.725 -0.7903  1.7752 -0.1824
 2530TIP3   OH2 7595   5.978   1.865   1.139  0.0043  0.8476 -0.2555
 2530TIP3    H1 7596   5.928   1.895   1.214  0.5134  0.4736  0.2392
 2530TIP3    H2 7597   5.943   1.915   1.065 -3.1782 -1.4323 -0.5047
 2531TIP3   OH2 7598   4.129   0.223   2.094  0.5501  0.0033 -0.2945
 2531TIP3    H1 7599   4.037   0.204   2.111  0.4370 -0.7028 -1.5659
 2531TIP3    H2 7600   4.127   0.302   2.040  0.5110 -1.4553 -2.5154
 2532TIP3   OH2 7601   1.415   2.652   3.094 -0.3011 -0.3297  0.0363
 2532TIP3    H1 7602   1.320   2.659   3.089 -0.3541 -1.0641 -0.1333
 2532TIP3    H2 7603   1.434   2.562   3.066  0.4999  0.0799 -0.8099
 2533TIP3   OH2 7604   6.085   3.336   1.217 -0.2471  0.0684  0.0589
 2533TIP3    H1 7605   6.165   3.297   1.253  1.5072  0.3549 -3.1091
 2533TIP3    H2 7606   6.114   3.418   1.177 -2.4626  0.9603  0.1374
 2534TIP3   OH2 7607   0.691   0.183   4.059 -0.2398 -0.1937 -0.5031
 2534TIP3    H1 7608   0.782   0.185   4.030  0.2132 -0.3045  0.8409
 2534TIP3    H2 7609   0.667   0.090   4.054  0.6191 -0.5915  1.6857
 2535TIP3   OH2 7610   0.109   3.290   3.859 -0.2423 -0.1733 -0.3245
 2535TIP3    H1 7611   0.126   3.385   3.857 -1.1070  0.0300  0.8181
 2535TIP3    H2 7612   0.067   3.271   3.775 -1.7111  0.8088  0.1567
 2536TIP3   OH2 7613   1.920   2.466   1.242 -0.3340 -0.5077 -0.5079
 2536TIP3    H1 7614   1.944   2.415   1.165  1.3952 -0.2379 -0.1786
 2536TIP3    H2 7615   1.931   2.557   1.214 -3.3620 -0.2003 -1.0827
 2537TIP3   OH2 7616   2.735   1.347   1.611 -0.8539 -0.2660  0.4840
 2537TIP3    H1 7617   2.652   1.345   1.658 -0.6942  0.7120  0.8243
 2537TIP3    H2 7618   2.761   1.439   1.612 -0.3491 -0.3849 -0.6458
 2538TIP3   OH2 7619   5.247   2.344   2.206 -0.3751 -0.0189 -0.3198
 2538TIP3    H1 7620   5.209   2.271   2.255 -1.8730  2.0046  1.7894
 2538TIP3    H2 7621   5.294   2.395   2.273  1.8181  0.2754 -1.9700
 2539TIP3   OH2 7622   5.555   3.768   0.760  0.3170  0.3004  0.2943
 2539TIP3    H1 7623   5.644   3.793   0.733  0.2890  0.8062  0.6566
 2539TIP3    H2 7624   5.511   3.746   0.679  0.2621  1.7176 -0.0990
 2540TIP3   OH2 7625   2.967   0.779   4.009 -0.0114 -0.5130 -0.1072
 2540TIP3    H1 7626   3.010   0.824   3.936 -1.5601 -2.5429 -2.4157
 2540TIP3    H2 7627   2.983   0.686   3.993 -1.9099 -1.1098  1.1339
 2541TIP3   OH2 7628   0.742   5.661   0.199 -0.8408 -0.3124 -0.5168
 2541TIP3    H1 7629   0.808   5.646   0.131 -1.3927  0.0756 -1.1488
 2541TIP3    H2 7630   0.727   5.755   0.197  0.5387  0.0083  1.4757
 2542TIP3   OH2 7631   0.131   5.129   4.514  0.0631  0.2646  0.6205
 2542TIP3    H1 7632   0.222   5.155   4.500  0.4261 -0.8324  0.8640
 2542TIP3    H2 7633   0.101   5.185   4.586  0.3474  1.0597  0.1261
 2543TIP3   OH2 7634   0.790   4.455   4.201 -0.3796 -0.1379 -0.6316
 2543TIP3    H1 7635   0.828   4.395   4.265 -1.7570 -0.8593 -0.4627
 2543TIP3    H2 7636   0.758   4.399   4.131 -1.4161  0.4138 -0.6150
 2544TIP3   OH2 7637   4.362   0.310   4.074 -0.2438  0.1459  0.4295
 2544TIP3    H1 7638   4.369   0.398   4.110 -0.5786  0.3057  0.1141
 2544TIP3    H2 7639   4.408   0.314   3.990  0.8551 -0.3196  0.9952
 2545TIP3   OH2 7640   1.180   3.601  -0.018  0.6241 -0.4163  0.6517
 2545TIP3    H1 7641   1.225   3.583   0.065 -0.2679  0.5424  1.3720
 2545TIP3    H2 7642   1.087   3.596   0.003  0.3711 -1.0566 -0.5166
 2546TIP3   OH2 7643   1.120   5.880   3.600 -0.6465 -0.1920 -0.0207
 2546TIP3    H1 7644   1.122   5.794   3.559  1.0786 -0.1719 -0.0642
 2546TIP3    H2 7645   1.037   5.883   3.647 -1.2019 -1.4584 -0.8699
 2547TIP3   OH2 7646   4.063   3.958   0.457  0.2402  0.5205 -0.1296
 2547TIP3    H1 7647   4.015   3.887   0.499 -0.8418  0.0863 -1.9630
 2547TIP3    H2 7648   4.035   3.954   0.365  0.9639  2.6425 -0.4954
 2548TIP3   OH2 7649   4.109   3.339   2.819  0.2842  0.8037  1.0503
 2548TIP3    H1 7650   4.051   3.359   2.893 -0.0316  0.4119  0.9146
 2548TIP3    H2 7651   4.099   3.414   2.760  1.4425  1.6805  1.9399
 2549TIP3   OH2 7652   5.704   1.701   2.453 -0.1020 -0.8829  0.0104
 2549TIP3    H1 7653   5.622   1.741   2.426  0.8309 -0.2301 -2.1165
 2549TIP3    H2 7654   5.680   1.615   2.487 -1.7325 -0.2761  0.4509
 2550TIP3   OH2 7655   3.935   3.704   4.075 -1.0131 -0.3862  0.5036
 2550TIP3    H1 7656   3.944   3.641   4.147  0.3694  0.5761  1.2156
 2550TIP3    H2 7657   3.976   3.660   4.000  1.4072  0.2143  1.3842
 2551TIP3   OH2 7658   2.321   0.967   1.594 -0.0178  0.5557  0.2727
 2551TIP3    H1 7659   2.375   0.960   1.672  0.1931  2.1505  0.2937
 2551TIP3    H2 7660   2.380   0.948   1.521  0.6362  2.3411  0.2891
 2552TIP3   OH2 7661   5.482   5.199   2.705  0.2367 -0.0515  0.0133
 2552TIP3    H1 7662   5.510   5.250   2.781 -1.0317  0.6681  0.0411
 2552TIP3    H2 7663   5.400   5.158   2.732  0.1397 -0.3670 -0.7265
 2553TIP3   OH2 7664   1.873   0.001   4.284 -0.1074  0.0810  0.3453
 2553TIP3    H1 7665   1.814   0.058   4.334 -0.8122 -1.2552  1.0706
 2553TIP3    H2 7666   1.816  -0.053   4.230  0.6210  1.2186 -1.7147
 2554TIP3   OH2 7667   4.474   4.805   0.257 -0.7811 -0.6048  0.0677
 2554TIP3    H1 7668   4.454   4.838   0.170  0.5569  0.7288  0.2245
 2554TIP3    H2 7669   4.395   4.824   0.309 -0.8567  0.3484 -0.3857
 2555TIP3   OH2 7670   4.741   0.416   0.309 -0.3197  0.4240  0.2135
 2555TIP3    H1 7671   4.813   0.413   0.246 -0.4946  1.4421 -0.0530
 2555TIP3    H2 7672   4.782   0.446   0.391 -0.0995 -0.8613  0.6104
 2556TIP3   OH2 7673   0.065   5.879   3.592 -0.2676  0.1540  0.5028
 2556TIP3    H1 7674   0.036   5.796   3.555 -1.5313 -0.2105  2.2094
 2556TIP3    H2 7675  -0.005   5.941   3.569  0.5653  0.7363 -0.5762
 2557TIP3   OH2 7676   4.918   0.650   3.273  0.0628  0.0031  0.4182
 2557TIP3    H1 7677   4.853   0.678   3.209  0.0746 -1.3998 -0.2438
 2557TIP3    H2 7678   4.869   0.640   3.354 -0.1432  0.8888  0.4078
 2558TIP3   OH2 7679   0.659   2.340   3.094  0.0293 -0.1382  0.1251
 2558TIP3    H1 7680   0.588   2.342   3.030  0.5049 -0.8693 -0.4427
 2558TIP3    H2 7681   0.616   2.319   3.177 -0.5043  0.0989 -0.0860
 2559TIP3   OH2 7682   3.676   1.190   3.440  0.4692 -0.2332  0.3757
 2559TIP3    H1 7683   3.740   1.237   3.386 -0.7292 -1.1112 -1.9221
 2559TIP3    H2 7684   3.708   1.100   3.442 -0.5366 -0.6288 -0.5915
 2560TIP3   OH2 7685   3.820   5.327   5.087 -0.1593 -0.3803 -0.0418
 2560TIP3    H1 7686   3.856   5.268   5.153 -0.5372  0.6203  1.0866
 2560TIP3    H2 7687   3.749   5.373   5.131 -0.8264 -0.1176 -1.3308
 2561TIP3   OH2 7688   5.383   0.028   0.807  0.3125 -0.2766  0.1843
 2561TIP3    H1 7689   5.384  -0.005   0.718  1.2292  1.6911 -0.6009
 2561TIP3    H2 7690   5.294   0.010   0.838 -0.5453  0.3935 -1.7075
 2562TIP3   OH2 7691   5.252   0.447   4.982  0.2561  0.4104 -0.1480
 2562TIP3    H1 7692   5.173   0.429   5.033  0.1472 -0.4750 -0.6094
 2562TIP3    H2 7693   5.245   0.540   4.959 -0.9973  0.1922 -0.7447
 2563TIP3   OH2 7694   3.837   4.572   1.488 -0.2156  0.3843  0.2508
 2563TIP3    H1 7695   3.749   4.541   1.465  0.3752  0.0213 -1.6547
 2563TIP3    H2 7696   3.878   4.592   1.404  0.8407  2.5026  1.2156
 2564TIP3   OH2 7697   5.700   5.739   0.110 -0.0032  0.0034 -0.1193
 2564TIP3    H1 7698   5.668   5.813   0.162 -0.8019 -0.2242 -0.2714
 2564TIP3    H2 7699   5.770   5.776   0.057  0.0354  0.5075  0.2698
 2565TIP3   OH2 7700   5.099   3.394   3.036  0.8915 -1.2289  0.6973
 2565TIP3    H1 7701   5.134   3.305   3.039  0.2962 -1.6242 -1.8231
 2565TIP3    H2 7702   5.172   3.447   3.001  0.0647 -1.4922 -1.5657
 2566TIP3   OH2 7703   5.128   2.432   4.971  0.1050 -0.1310 -0.0378
 2566TIP3    H1 7704   5.195   2.462   4.909 -1.0636 -0.8512 -1.7434
 2566TIP3    H2 7705   5.174   2.424   5.054  1.8411  0.5525 -0.8760
 2567TIP3   OH2 7706   1.177   0.085   4.655  0.1152 -0.7891 -0.1202
 2567TIP3    H1 7707   1.241   0.156   4.661 -0.3654 -0.2811 -0.8398
 2567TIP3    H2 7708   1.153   0.065   4.745 -1.4195  1.4873  0.0330
 2568TIP3   OH2 7709   0.351   3.827   1.572  0.0834 -0.4201  0.4306
 2568TIP3    H1 7710   0.272   3.819   1.517 -0.0842  0.8277  0.4557
 2568TIP3    H2 7711   0.364   3.739   1.607 -0.3178 -1.0488 -0.9067
 2569TIP3   OH2 7712   5.981   3.228   1.490 -0.1236 -0.4863  0.1926
 2569TIP3    H1 7713   5.972   3.225   1.395  0.4919 -1.8437  0.1595
 2569TIP3    H2 7714   5.917   3.293   1.519  1.6112  2.1200 -1.3895
 2570TIP3   OH2 7715   3.873   0.717   2.970 -0.0652  0.5738 -0.6358
 2570TIP3    H1 7716   3.933   0.652   3.005 -1.6385 -1.5340 -1.6072
 2570TIP3    H2 7717   3.787   0.692   3.005 -0.8098  1.8175 -1.4728
 2571TIP3   OH2 7718   4.997   4.495   0.417 -0.0988 -0.0095 -0.1961
 2571TIP3    H1 7719   4.945   4.547   0.355 -0.2518  1.4196  1.0543
 2571TIP3    H2 7720   4.933   4.437   0.459 -0.5174  0.9324  0.5157
 2572TIP3   OH2 7721   3.961   1.782   1.346 -0.2023  0.9249 -0.2507
 2572TIP3    H1 7722   3.882   1.805   1.395  0.3025 -0.0365  1.0674
 2572TIP3    H2 7723   4.033   1.819   1.397  0.3445 -0.1969 -0.1697
 2573TIP3   OH2 7724   2.058   3.742   4.162  0.0681 -0.5169 -0.2082
 2573TIP3    H1 7725   2.024   3.738   4.072  2.1330  1.4340 -1.1529
 2573TIP3    H2 7726   1.984   3.775   4.214 -0.9073 -0.8946 -1.3133
 2574TIP3   OH2 7727   2.742   1.652   0.383  0.0649  0.3577  0.2754
 2574TIP3    H1 7728   2.771   1.565   0.358 -0.1781  0.5022 -0.5390
 2574TIP3    H2 7729   2.693   1.684   0.307 -0.1928  1.0440  0.7161
 2575TIP3   OH2 7730   1.871   1.073   4.393 -0.2764  0.3349 -0.5080
 2575TIP3    H1 7731   1.947   1.123   4.362  0.4408 -1.7544 -2.3908
 2575TIP3    H2 7732   1.796   1.128   4.371  0.5920  1.7833  0.0054
 2576TIP3   OH2 7733   4.290   1.479   3.188  0.1780 -0.3885  0.2885
 2576TIP3    H1 7734   4.239   1.545   3.140 -0.2073 -0.3721  0.7157
 2576TIP3    H2 7735   4.378   1.516   3.192 -0.1091  0.2669  0.8154
 2577TIP3   OH2 7736   1.860   5.665   1.988  0.2113 -0.0720 -0.3553
 2577TIP3    H1 7737   1.792   5.731   1.970  1.4278  1.5918  0.8281
 2577TIP3    H2 7738   1.829   5.619   2.066 -0.2898 -0.4070 -0.7468
 2578TIP3   OH2 7739   0.654   2.803   3.877  0.0030  0.4964 -0.2529
 2578TIP3    H1 7740   0.733   2.768   3.918 -0.7635 -0.3984  0.5174
 2578TIP3    H2 7741   0.621   2.730   3.824 -1.7603 -0.1238  1.5742
 2579TIP3   OH2 7742   4.332   2.035   1.731  0.1327  0.1343 -0.5179
 2579TIP3    H1 7743   4.367   2.070   1.650 -0.1961  0.0013 -0.7181
 2579TIP3    H2 7744   4.267   2.099   1.759  0.4155  0.2989 -0.2344
 2580TIP3   OH2 7745   6.288   5.617   2.633  0.3359 -0.2157 -0.1202
 2580TIP3    H1 7746   6.301   5.582   2.545  0.4651  0.9662 -0.5980
 2580TIP3    H2 7747   6.233   5.694   2.620 -1.6090 -1.3191  1.1192
 2581TIP3   OH2 7748   0.602   2.225   0.612  0.2546  0.3780  0.6138
 2581TIP3    H1 7749   0.548   2.304   0.602 -0.8967 -0.5694 -1.5431
 2581TIP3    H2 7750   0.683   2.256   0.652 -1.4922  2.0254  3.1990
 2582TIP3   OH2 7751   4.563   2.382   2.770 -0.0782 -0.1494 -0.6109
 2582TIP3    H1 7752   4.512   2.327   2.829  1.4430 -3.3178 -2.0394
 2582TIP3    H2 7753   4.499   2.441   2.731 -1.4202  0.8886  2.7183
 2583TIP3   OH2 7754   1.988   4.569   1.099  0.1551 -0.0378 -0.0031
 2583TIP3    H1 7755   2.064   4.619   1.130 -0.3136  0.1434  0.8842
 2583TIP3    H2 7756   1.974   4.502   1.166  0.7524 -1.3722 -1.1533
 2584TIP3   OH2 7757   1.231   3.092   0.993  0.2564 -0.5186  0.2807
 2584TIP3    H1 7758   1.172   3.025   1.025 -0.5652 -0.0914 -0.3044
 2584TIP3    H2 7759   1.316   3.071   1.032 -0.3492 -0.9566  1.3810
 2585TIP3   OH2 7760   5.800   3.898   2.588  0.1882 -0.1044 -0.0222
 2585TIP3    H1 7761   5.830   3.950   2.513 -1.0161 -0.2196 -0.6154
 2585TIP3    H2 7762   5.880   3.857   2.622  0.7904  0.1018 -1.1281
 2586TIP3   OH2 7763   4.291   2.471   0.664 -0.2815 -0.0958  0.2013
 2586TIP3    H1 7764   4.239   2.408   0.613  0.2737  1.0568 -1.8897
 2586TIP3    H2 7765   4.363   2.495   0.606 -0.2231  2.1025  1.1179
 2587TIP3   OH2 7766   1.562   0.520   4.434 -0.3762  0.0942  0.0620
 2587TIP3    H1 7767   1.494   0.546   4.496  1.2044 -1.4416  2.5982
 2587TIP3    H2 7768   1.641   0.510   4.487  0.4935 -3.9551 -1.6180
 2588TIP3   OH2 7769   3.428   4.297   3.732 -0.9565  0.4283 -0.0206
 2588TIP3    H1 7770   3.504   4.344   3.700 -0.3971 -0.0574  0.5681
 2588TIP3    H2 7771   3.421   4.221   3.675 -2.8743  2.0206 -2.0765
 2589TIP3   OH2 7772   5.647   0.002   1.786 -0.2076  0.2557 -0.2038
 2589TIP3    H1 7773   5.669  -0.054   1.711  1.5514  0.0120  0.4340
 2589TIP3    H2 7774   5.621   0.085   1.747 -1.5708 -0.5541 -1.1261
 2590TIP3   OH2 7775   5.694   5.061   1.314  0.0044 -0.3616  0.0702
 2590TIP3    H1 7776   5.713   5.090   1.403 -1.9098 -0.4197  0.5606
 2590TIP3    H2 7777   5.612   5.011   1.323 -0.1453 -0.4898 -1.6940
 2591TIP3   OH2 7778   3.013   5.666   4.739  0.1651 -0.1057  0.0447
 2591TIP3    H1 7779   2.988   5.588   4.690  1.3617 -0.4669 -0.0320
 2591TIP3    H2 7780   2.935   5.691   4.787 -1.1465  0.4074 -2.2171
 2592TIP3   OH2 7781   2.353   5.096   2.395  0.0061  0.0402 -0.1763
 2592TIP3    H1 7782   2.387   5.163   2.454  0.4517 -2.4783  2.7329
 2592TIP3    H2 7783   2.426   5.074   2.337  0.7136  0.2965  0.6004
 2593TIP3   OH2 7784   5.710   1.772   1.869  0.1079  0.1413  0.4331
 2593TIP3    H1 7785   5.625   1.742   1.839 -0.9358  1.0849  2.2613
 2593TIP3    H2 7786   5.754   1.805   1.791 -1.0639 -0.6381 -0.5852
 2594TIP3   OH2 7787   2.113   3.854   0.276  0.4832 -0.6856 -0.5652
 2594TIP3    H1 7788   2.172   3.849   0.201  1.9567  0.2227  0.4736
 2594TIP3    H2 7789   2.133   3.777   0.328  2.3799  0.6574  0.8549
 2595TIP3   OH2 7790   5.674   0.341   4.820 -0.6835  0.2398 -0.3051
 2595TIP3    H1 7791   5.673   0.248   4.843  1.7778 -0.0316 -1.1026
 2595TIP3    H2 7792   5.591   0.355   4.775 -1.4224 -1.3810  0.4672
 2596TIP3   OH2 7793   0.180   3.328   1.640 -0.1395  0.1118 -0.1858
 2596TIP3    H1 7794   0.217   3.245   1.612 -0.7301 -0.2439  0.0805
 2596TIP3    H2 7795   0.207   3.391   1.572  0.7535 -0.1829 -0.1101
 2597TIP3   OH2 7796   0.820   5.442   5.148  0.5609 -0.0104 -0.1828
 2597TIP3    H1 7797   0.751   5.507   5.136  0.9631  0.3213 -0.6970
 2597TIP3    H2 7798   0.822   5.394   5.065  0.3553 -0.5980  0.1437
 2598TIP3   OH2 7799   2.852   3.141   1.132 -0.6739  0.0626 -0.0195
 2598TIP3    H1 7800   2.803   3.084   1.191  0.5496 -0.4568  0.5309
 2598TIP3    H2 7801   2.941   3.139   1.166  0.1368 -0.4943 -2.0504
 2599TIP3   OH2 7802   4.771   2.027   3.999 -0.0499 -0.3244  0.3171
 2599TIP3    H1 7803   4.798   2.104   4.049 -1.2636  0.0847  0.3733
 2599TIP3    H2 7804   4.809   2.040   3.912 -0.0218  0.2138  0.4060
 2600TIP3   OH2 7805   1.437   2.658   4.322 -0.9642 -0.0490 -0.6678
 2600TIP3    H1 7806   1.531   2.642   4.310 -1.1165 -1.1612 -0.4793
 2600TIP3    H2 7807   1.417   2.618   4.407 -1.8829 -1.0710 -1.3407
 2601TIP3   OH2 7808   0.706   4.819   3.435  0.3540 -0.7312 -0.1983
 2601TIP3    H1 7809   0.762   4.892   3.410 -0.3217 -0.0624  0.2137
 2601TIP3    H2 7810   0.650   4.804   3.358 -0.8253  0.4662  0.3921
 2602TIP3   OH2 7811   0.871   0.423   2.111 -0.4346 -0.0339 -0.6542
 2602TIP3    H1 7812   0.795   0.482   2.110  0.1544  0.7575 -0.0427
 2602TIP3    H2 7813   0.917   0.445   2.192 -0.0024 -1.0868 -0.6055
 2603TIP3   OH2 7814   5.018   4.061   1.731  0.1088  0.6253  0.3505
 2603TIP3    H1 7815   5.090   4.003   1.757  0.8375  0.8742 -1.0020
 2603TIP3    H2 7816   5.043   4.092   1.644 -1.4879  0.9867 -0.0050
 2604TIP3   OH2 7817   4.102   4.835   1.975  0.2310  0.2322 -0.1328
 2604TIP3    H1 7818   4.185   4.829   1.928  1.2984  1.6122  1.4310
 2604TIP3    H2 7819   4.035   4.823   1.908  1.6854 -0.7731 -1.4666
 2605TIP3   OH2 7820   2.657   4.498   3.358 -0.2165  0.3034 -0.3316
 2605TIP3    H1 7821   2.600   4.462   3.427 -0.3866  0.7088 -0.2590
 2605TIP3    H2 7822   2.676   4.423   3.302 -2.0966  0.4652 -1.2596
 2606TIP3   OH2 7823   5.937   4.960   4.572 -0.2627  0.7964 -0.0887
 2606TIP3    H1 7824   5.855   4.999   4.602 -0.0815  0.5224  0.7911
 2606TIP3    H2 7825   5.917   4.926   4.485 -0.9743  1.0695 -0.0419
 2607TIP3   OH2 7826   2.645   2.985   4.429  0.0279 -0.3235  1.0097
 2607TIP3    H1 7827   2.720   3.044   4.432  0.3138 -0.7059  3.3156
 2607TIP3    H2 7828   2.572   3.040   4.403  0.3977  0.9558  2.5717
 2608TIP3   OH2 7829   5.415   3.269   3.291 -0.1319  0.4294 -0.3104
 2608TIP3    H1 7830   5.464   3.228   3.219  0.8657  0.6674  0.2063
 2608TIP3    H2 7831   5.475   3.335   3.325 -1.4744  1.9001 -0.7229
 2609TIP3   OH2 7832   2.187   3.223   3.286  0.1224 -0.2475 -0.4414
 2609TIP3    H1 7833   2.166   3.174   3.206 -0.8901 -0.1783 -0.2277
 2609TIP3    H2 7834   2.206   3.155   3.351 -1.1571 -0.3774 -0.1800
 2610TIP3   OH2 7835   1.593   5.023   1.899  0.1703 -0.5385 -0.1516
 2610TIP3    H1 7836   1.594   5.011   1.804  1.3953 -2.7420  0.0671
 2610TIP3    H2 7837   1.656   5.094   1.915  0.5912 -0.7294 -0.9189
 2611TIP3   OH2 7838   2.773   3.616   3.011  0.1834  0.2296 -0.4118
 2611TIP3    H1 7839   2.863   3.614   3.045  1.2131 -1.8989 -2.8463
 2611TIP3    H2 7840   2.782   3.589   2.919 -2.9997 -0.5990 -0.6043
 2612TIP3   OH2 7841   3.507   5.578   2.340  0.4261 -0.8193 -0.0764
 2612TIP3    H1 7842   3.592   5.534   2.341  0.6309 -0.4278  0.1181
 2612TIP3    H2 7843   3.524   5.663   2.380  0.4910  0.2650 -2.2756
 2613TIP3   OH2 7844   3.089   5.874   1.279  0.2578 -0.0414  0.4496
 2613TIP3    H1 7845   3.055   5.798   1.326  0.6979  0.6412  1.9185
 2613TIP3    H2 7846   3.014   5.933   1.269  0.2713  0.0211  0.7235
 2614TIP3   OH2 7847   5.091   3.377   1.259  0.0478 -0.2735 -0.3994
 2614TIP3    H1 7848   5.006   3.333   1.257 -0.4377  0.5631  0.6692
 2614TIP3    H2 7849   5.141   3.331   1.327  0.2030 -0.3391 -0.5568
 2615TIP3   OH2 7850   5.956   4.890   3.924 -0.2810  0.3096 -0.2202
 2615TIP3    H1 7851   5.976   4.824   3.990 -1.6899  0.4886  0.4169
 2615TIP3    H2 7852   5.951   4.841   3.842 -0.3070 -0.2167  0.0906
 2616TIP3   OH2 7853   0.561   4.820   0.512  0.2675 -0.3116  0.5615
 2616TIP3    H1 7854   0.500   4.890   0.488 -0.0787 -0.4789  0.9521
 2616TIP3    H2 7855   0.582   4.777   0.429  1.8667  1.3429  0.0325
 2617TIP3   OH2 7856   1.817   5.626   3.287  0.7355 -0.6086  0.0109
 2617TIP3    H1 7857   1.828   5.702   3.230 -0.7809 -0.1572  0.2674
 2617TIP3    H2 7858   1.873   5.559   3.249 -1.1928 -0.7724 -2.8839
 2618TIP3   OH2 7859   4.216   5.930   0.124  0.5088  0.0404 -0.6092
 2618TIP3    H1 7860   4.280   5.866   0.157 -0.8319 -0.3668  1.4340
 2618TIP3    H2 7861   4.261   5.974   0.052  2.5568 -1.1847 -0.1769
 2619TIP3   OH2 7862   1.012   1.249   4.446  0.3232  0.2978 -0.1621
 2619TIP3    H1 7863   1.029   1.162   4.409  0.2345 -0.4195  1.4051
 2619TIP3    H2 7864   0.935   1.281   4.399  0.0877 -0.6673 -0.4435
 2620TIP3   OH2 7865   5.324   3.513   2.903 -0.3392 -0.5754 -0.0572
 2620TIP3    H1 7866   5.311   3.477   2.815 -1.2718  0.6693 -0.4699
 2620TIP3    H2 7867   5.321   3.608   2.890  1.7077 -0.3081  1.0258
 2621TIP3   OH2 7868   0.927   0.648   3.361  0.5461  0.1991  0.2503
 2621TIP3    H1 7869   0.917   0.665   3.267 -1.5781  2.3041  0.7669
 2621TIP3    H2 7870   0.855   0.589   3.383  0.4863  0.4282  0.6925
 2622TIP3   OH2 7871   2.959   1.916   5.116  0.3496 -0.1291 -0.4719
 2622TIP3    H1 7872   2.936   1.847   5.054 -1.1229  0.1752 -0.2904
 2622TIP3    H2 7873   3.019   1.972   5.067  0.1828 -0.5782 -1.2074
 2623TIP3   OH2 7874   3.760   2.566   4.718  0.0077  0.0054  0.4405
 2623TIP3    H1 7875   3.806   2.649   4.713  0.2813 -0.1187  0.7893
 2623TIP3    H2 7876   3.801   2.511   4.650 -1.2931  0.6739 -0.9290
 2624TIP3   OH2 7877   4.388   3.823   2.234 -0.5946 -0.0741 -0.0670
 2624TIP3    H1 7878   4.419   3.907   2.267  0.3418 -0.2862 -0.3894
 2624TIP3    H2 7879   4.360   3.841   2.144  0.6606 -0.3245 -0.5232
 2625TIP3   OH2 7880   2.003   5.438   0.406 -0.6546  0.3831  0.3234
 2625TIP3    H1 7881   1.923   5.466   0.361 -0.4751  0.7581  0.2328
 2625TIP3    H2 7882   1.985   5.348   0.432 -0.6089 -0.0017 -0.8798
 2626TIP3   OH2 7883   2.585   3.924   1.375  0.2533 -0.2664  0.3023
 2626TIP3    H1 7884   2.617   3.846   1.419 -0.5953  0.1261  1.6631
 2626TIP3    H2 7885   2.617   3.915   1.285 -2.3345 -3.7230 -0.4825
 2627TIP3   OH2 7886   1.127   0.732   4.704 -0.0531 -0.1255  0.0040
 2627TIP3    H1 7887   1.215   0.707   4.734 -0.3286 -1.3960 -0.1799
 2627TIP3    H2 7888   1.142   0.767   4.616  0.4272  1.0437  0.5277
 2628TIP3   OH2 7889   5.652   4.574   3.907 -0.1159 -0.7746  0.2043
 2628TIP3    H1 7890   5.739   4.545   3.935  0.4603 -0.0149 -0.7321
 2628TIP3    H2 7891   5.662   4.668   3.891 -0.3681 -1.1220 -2.4669
 2629TIP3   OH2 7892   2.302   3.189   0.557  0.4421  0.1176 -0.5518
 2629TIP3    H1 7893   2.291   3.225   0.645 -1.2117  1.8615 -1.4123
 2629TIP3    H2 7894   2.397   3.179   0.547  0.6616 -0.2414  1.4308
 2630TIP3   OH2 7895   3.588   5.096   5.117 -0.0503  0.8053  0.2459
 2630TIP3    H1 7896   3.637   5.013   5.122 -0.5122  0.5858  1.7800
 2630TIP3    H2 7897   3.608   5.131   5.030  1.8273  0.1040  0.3511
 2631TIP3   OH2 7898   0.647   0.726   1.009 -0.0838  0.3730  0.1843
 2631TIP3    H1 7899   0.639   0.647   0.954  0.2570  0.0397  0.6083
 2631TIP3    H2 7900   0.558   0.763   1.009 -0.8560 -1.3041  1.8722
 2632TIP3   OH2 7901   4.550   2.740   3.519  0.0740 -0.1693  0.0269
 2632TIP3    H1 7902   4.603   2.787   3.584  1.3925 -1.1193 -0.3194
 2632TIP3    H2 7903   4.517   2.664   3.565 -1.8893  0.9113  0.5255
 2633TIP3   OH2 7904   6.036   2.155   1.383 -0.0464 -0.3181 -0.4187
 2633TIP3    H1 7905   6.045   2.226   1.447 -0.1799 -0.6409 -0.0460
 2633TIP3    H2 7906   5.942   2.146   1.370 -0.0684 -1.1042  0.2807
 2634TIP3   OH2 7907   0.685   2.396   1.784  0.0491  0.4266  0.2302
 2634TIP3    H1 7908   0.590   2.401   1.777 -0.1294  0.5350  2.2269
 2634TIP3    H2 7909   0.716   2.480   1.751 -0.3847 -0.3044 -2.2011
 2635TIP3   OH2 7910   6.276   0.994   4.548  0.8774  0.2895 -0.2914
 2635TIP3    H1 7911   6.372   0.991   4.545  0.8519 -0.5801 -3.1786
 2635TIP3    H2 7912   6.252   1.058   4.481 -0.5643 -0.1330 -0.2160
 2636TIP3   OH2 7913   5.341   3.512   5.113 -0.3451 -0.0554  0.0341
 2636TIP3    H1 7914   5.318   3.421   5.133 -0.3806 -0.0585 -0.0189
 2636TIP3    H2 7915   5.393   3.506   5.033  0.4789 -0.1155  0.5615
 2637TIP3   OH2 7916   0.180   2.862   4.787 -0.3064  0.4682  0.1413
 2637TIP3    H1 7917   0.097   2.871   4.834 -0.2836 -3.5805  1.3616
 2637TIP3    H2 7918   0.171   2.780   4.738  1.6053  1.9306 -2.9870
 2638TIP3   OH2 7919   4.101   2.780   4.981  0.5194 -0.0173  0.5394
 2638TIP3    H1 7920   4.195   2.793   4.981  0.5045  0.1283 -0.1966
 2638TIP3    H2 7921   4.068   2.841   5.047  0.8665  0.5049  0.2374
 2639TIP3   OH2 7922   3.556   6.001   0.505  0.6474  0.3075 -0.0163
 2639TIP3    H1 7923   3.640   5.988   0.549  0.7164 -0.3173 -0.3267
 2639TIP3    H2 7924   3.557   5.939   0.432  0.5946  1.4382 -0.9984
 2640TIP3   OH2 7925   2.621   3.681   1.480  1.0541  0.2650  0.8092
 2640TIP3    H1 7926   2.712   3.662   1.504  0.8914  0.2251  1.4030
 2640TIP3    H2 7927   2.571   3.607   1.514  0.7212  0.5836  1.0241
 2641TIP3   OH2 7928   1.022   2.351   0.494 -0.0931 -0.6028 -0.1419
 2641TIP3    H1 7929   1.051   2.400   0.571 -0.3318 -0.2689 -0.2662
 2641TIP3    H2 7930   0.983   2.271   0.530 -1.2783  0.0950  0.1403
 2642TIP3   OH2 7931   6.206   4.531   4.387  0.1208  0.5026 -0.0573
 2642TIP3    H1 7932   6.181   4.481   4.465  2.1300 -1.4047 -0.5463
 2642TIP3    H2 7933   6.196   4.623   4.413  0.4675 -0.0850  2.3624
 2643TIP3   OH2 7934   2.494   1.614   4.474 -0.6306 -0.3411  0.4535
 2643TIP3    H1 7935   2.487   1.523   4.502 -0.3825  0.2753  2.7125
 2643TIP3    H2 7936   2.540   1.610   4.391  0.1712 -2.2258  0.9366
 2644TIP3   OH2 7937   4.555   1.869   4.617 -0.1074 -0.6898 -0.4574
 2644TIP3    H1 7938   4.471   1.901   4.584  0.3749  0.0425 -1.0137
 2644TIP3    H2 7939   4.590   1.816   4.546  0.9761  0.9637 -1.2240
 2645TIP3   OH2 7940   2.362   1.764   4.644  0.3729 -0.4565  0.3540
 2645TIP3    H1 7941   2.401   1.722   4.567 -0.4214  0.9758 -0.8681
 2645TIP3    H2 7942   2.331   1.849   4.612 -1.6281 -0.5732  1.8176
 2646TIP3   OH2 7943   2.102   5.661   4.574  0.5769  0.5009 -0.0462
 2646TIP3    H1 7944   2.129   5.584   4.623 -0.8125  0.2358  0.3557
 2646TIP3    H2 7945   2.079   5.628   4.487  1.6706  0.7473 -0.4357
 2647TIP3   OH2 7946   3.745   4.593   3.852  0.3925  0.5501  0.1277
 2647TIP3    H1 7947   3.756   4.509   3.808 -1.7449  0.2862 -0.0094
 2647TIP3    H2 7948   3.692   4.645   3.792  0.1682  1.3438  0.9915
 2648TIP3   OH2 7949   2.932   5.968   1.533 -0.0691  0.2814  0.2129
 2648TIP3    H1 7950   2.876   5.900   1.570 -2.0741  2.2135  0.9707
 2648TIP3    H2 7951   3.021   5.932   1.539 -0.8925 -1.6745  1.8733
 2649TIP3   OH2 7952   5.952   5.119   0.725  0.1529  0.2406 -0.0864
 2649TIP3    H1 7953   5.999   5.191   0.766  0.2537 -0.7666  1.6407
 2649TIP3    H2 7954   5.871   5.110   0.775 -1.0831  0.7653 -1.8867
 2650TIP3   OH2 7955   2.815   2.445   1.453  0.7950  0.4693  0.8313
 2650TIP3    H1 7956   2.865   2.523   1.428  2.5764 -0.5835  0.9590
 2650TIP3    H2 7957   2.863   2.372   1.414  0.4171 -0.7471  2.5314
 2651TIP3   OH2 7958   6.205   4.749   3.010  0.6103 -0.3338 -0.4046
 2651TIP3    H1 7959   6.233   4.726   2.921  0.5875  1.0932 -0.8127
 2651TIP3    H2 7960   6.258   4.694   3.067  1.8957 -0.0253 -1.2556
 2652TIP3   OH2 7961   0.434   3.463   4.165 -0.0109 -0.2756  0.3054
 2652TIP3    H1 7962   0.389   3.396   4.113 -1.6284  1.2116 -0.3223
 2652TIP3    H2 7963   0.505   3.493   4.109  0.4490 -1.1523  0.4118
 2653TIP3   OH2 7964   1.169   1.048   1.204  0.0778  0.3026  0.2428
 2653TIP3    H1 7965   1.143   1.052   1.296  0.5512  0.9050  0.3574
 2653TIP3    H2 7966   1.222   0.968   1.197 -1.1021 -0.4931  0.1826
 2654TIP3   OH2 7967   2.678   3.609   4.640 -0.3068  0.3312 -0.0641
 2654TIP3    H1 7968   2.768   3.592   4.609 -0.1530  0.4572  0.3112
 2654TIP3    H2 7969   2.631   3.528   4.623  0.1875 -0.1652  0.8594
 2655TIP3   OH2 7970   5.653   1.457   1.601  0.1531 -0.0369  0.3110
 2655TIP3    H1 7971   5.748   1.455   1.598  0.1610  0.0552  0.4824
 2655TIP3    H2 7972   5.625   1.424   1.516  0.3644  2.1068 -0.6488
 2656TIP3   OH2 7973   3.635   4.330   2.713 -0.3214  0.4194  0.5969
 2656TIP3    H1 7974   3.656   4.338   2.806 -1.5138  0.9444  0.8439
 2656TIP3    H2 7975   3.603   4.241   2.703  1.9809 -0.4236  0.1961
 2657TIP3   OH2 7976   1.505   5.828   1.279 -0.1424  0.2383 -0.3354
 2657TIP3    H1 7977   1.549   5.747   1.304  0.9082  0.6132 -0.9298
 2657TIP3    H2 7978   1.524   5.838   1.186 -2.1077  0.0381 -0.8073
 2658TIP3   OH2 7979   6.239   3.908   4.533  0.1879 -0.3280 -0.3440
 2658TIP3    H1 7980   6.184   3.892   4.609  0.3996 -0.3851 -0.2031
 2658TIP3    H2 7981   6.329   3.896   4.564  0.3544  0.8954 -0.2750
 2659TIP3   OH2 7982   1.328   5.942   2.737  0.0744  0.0438 -0.7163
 2659TIP3    H1 7983   1.327   5.847   2.748 -1.0446 -0.7361 -5.4021
 2659TIP3    H2 7984   1.237   5.965   2.717  0.1213  2.3598  1.2887
 2660TIP3   OH2 7985   3.771   5.783   4.072  0.0289  0.0254  0.0134
 2660TIP3    H1 7986   3.801   5.722   4.005  1.5054  0.6999  0.0326
 2660TIP3    H2 7987   3.714   5.730   4.128  0.8576 -1.2121 -0.2641
 2661TIP3   OH2 7988   1.451   5.699   3.749  0.3481 -0.0290 -0.4921
 2661TIP3    H1 7989   1.456   5.650   3.667 -0.3966  2.2244 -1.9830
 2661TIP3    H2 7990   1.542   5.716   3.772  0.5657 -0.7075 -0.8264
 2662TIP3   OH2 7991   3.477   2.940   2.695  0.1719 -0.0855 -0.1368
 2662TIP3    H1 7992   3.502   2.908   2.608 -1.1527 -0.2320 -0.4835
 2662TIP3    H2 7993   3.481   3.035   2.687 -1.0460 -0.0659 -0.7232
 2663TIP3   OH2 7994   5.831   1.873   4.477  0.1195  0.5308 -0.3870
 2663TIP3    H1 7995   5.735   1.870   4.482  0.0749  2.5140  2.3659
 2663TIP3    H2 7996   5.860   1.831   4.557  1.6227 -0.3218 -1.3417
 2664TIP3   OH2 7997   5.638   4.372   1.726  0.0076  0.2832  0.1020
 2664TIP3    H1 7998   5.585   4.404   1.654  1.2919  0.5008 -0.7756
 2664TIP3    H2 7999   5.711   4.434   1.733  0.2432 -0.0835  1.1669
 2665TIP3   OH2 8000   1.037   5.503   1.062  0.1473 -0.1348 -0.3617
 2665TIP3    H1 8001   1.046   5.413   1.031 -0.5571 -0.6542  0.8503
 2665TIP3    H2 8002   1.053   5.497   1.156  0.4247  1.0738 -0.3168
 2666TIP3   OH2 8003   2.291   4.581   0.349 -0.3971 -0.1571 -0.0065
 2666TIP3    H1 8004   2.266   4.512   0.410 -2.3618 -0.0117 -0.5728
 2666TIP3    H2 8005   2.272   4.545   0.262  2.1477 -0.2836 -0.5963
 2667TIP3   OH2 8006   6.280   0.662   3.160  0.2025 -0.1707 -0.4930
 2667TIP3    H1 8007   6.220   0.704   3.222 -2.0481  0.0574 -2.6517
 2667TIP3    H2 8008   6.361   0.650   3.209 -1.0389  1.1113  2.0704
 2668TIP3   OH2 8009   0.041   0.397   4.331 -0.9598 -0.2334  0.2525
 2668TIP3    H1 8010   0.014   0.309   4.359  1.1467 -1.0132  0.0376
 2668TIP3    H2 8011   0.075   0.384   4.243 -0.8570  0.8586  0.1293
 2669TIP3   OH2 8012   2.959   5.714   2.051  0.3606  0.2988  0.0503
 2669TIP3    H1 8013   3.019   5.763   2.107  0.4394  0.6377 -0.3219
 2669TIP3    H2 8014   3.011   5.693   1.973  0.1428  0.1654 -0.0602
 2670TIP3   OH2 8015   0.717   1.984   1.202  0.6137 -0.4034 -1.0603
 2670TIP3    H1 8016   0.731   2.019   1.290  1.6638 -1.7248 -0.6646
 2670TIP3    H2 8017   0.643   1.923   1.212 -0.9765  1.3278 -1.6727
 2671TIP3   OH2 8018   1.678   0.163   4.470  0.1132  0.1051  0.0582
 2671TIP3    H1 8019   1.713   0.133   4.553  0.0762  2.2334  0.9212
 2671TIP3    H2 8020   1.601   0.109   4.454  1.1082 -1.4926  0.4871
 2672TIP3   OH2 8021   1.769   5.949   0.692  0.3916  0.2097 -0.4769
 2672TIP3    H1 8022   1.741   6.025   0.640  0.2021  0.7518  0.3886
 2672TIP3    H2 8023   1.826   5.900   0.634 -2.8814 -1.3835 -2.6399
 2673TIP3   OH2 8024   0.388   0.649   1.791  0.2113 -0.1609 -0.2702
 2673TIP3    H1 8025   0.449   0.649   1.865  0.9381 -0.8430 -0.8510
 2673TIP3    H2 8026   0.433   0.599   1.723 -0.5810  0.1892 -1.0680
 2674TIP3   OH2 8027   1.562   5.363   2.908  0.2389 -0.2429  0.4985
 2674TIP3    H1 8028   1.653   5.383   2.887  0.0986 -0.8716 -0.7605
 2674TIP3    H2 8029   1.555   5.381   3.002  1.6319 -0.0915  0.5922
 2675TIP3   OH2 8030   2.268   1.803   1.883 -0.2676 -0.1286 -0.8312
 2675TIP3    H1 8031   2.302   1.764   1.963  0.5069 -0.7908 -1.4710
 2675TIP3    H2 8032   2.220   1.732   1.840 -0.0454  0.0109 -1.3166
 2676TIP3   OH2 8033   3.941   1.411   0.389  0.1944  0.2906 -0.1862
 2676TIP3    H1 8034   3.981   1.328   0.364  0.2267  0.5949 -1.1695
 2676TIP3    H2 8035   3.905   1.395   0.476  3.2396  0.2577  1.1963
 2677TIP3   OH2 8036   3.565   3.717   2.802  0.3232 -0.5542 -0.2453
 2677TIP3    H1 8037   3.523   3.700   2.886  2.4536 -1.7548  0.6675
 2677TIP3    H2 8038   3.654   3.684   2.813  1.6386  2.0581 -1.9373
 2678TIP3   OH2 8039   2.788   5.208   4.599 -0.0212  0.2425 -0.3611
 2678TIP3    H1 8040   2.865   5.175   4.551  0.7868  1.3390  0.1392
 2678TIP3    H2 8041   2.723   5.226   4.532  0.8474  1.1027 -0.9870
 2679TIP3   OH2 8042   2.603   3.266   2.517 -0.7983  0.4655 -0.4619
 2679TIP3    H1 8043   2.660   3.312   2.455 -0.8618  1.0442 -0.1014
 2679TIP3    H2 8044   2.651   3.186   2.539 -0.6590  0.3850 -1.0516
 2680TIP3   OH2 8045   3.661   0.103   4.751 -0.3065  0.1075  0.2909
 2680TIP3    H1 8046   3.604   0.093   4.827 -0.3176  1.1121  0.4247
 2680TIP3    H2 8047   3.632   0.184   4.709 -0.2766 -0.4068 -0.7713
 2681TIP3   OH2 8048   2.375   5.843   3.045 -0.1855  0.2183 -0.3040
 2681TIP3    H1 8049   2.371   5.939   3.042  0.6084  0.2463 -1.2237
 2681TIP3    H2 8050   2.461   5.824   3.081 -0.3950 -0.1494 -0.0002
 2682TIP3   OH2 8051   6.256   5.074   4.362  0.1148 -0.0588 -0.5332
 2682TIP3    H1 8052   6.322   5.094   4.428 -1.1258  1.3797  0.3423
 2682TIP3    H2 8053   6.188   5.026   4.409 -2.0219  3.1704  0.0105
 2683TIP3   OH2 8054   6.307   5.229   4.805  0.3438 -0.6586  0.4413
 2683TIP3    H1 8055   6.310   5.148   4.856 -1.2824 -0.4648  0.9076
 2683TIP3    H2 8056   6.231   5.218   4.748  1.3472 -0.3113 -1.0205
 2684TIP3   OH2 8057   0.322   1.518   4.466  0.7977 -0.6002 -0.0432
 2684TIP3    H1 8058   0.261   1.566   4.522  0.2905 -0.5373 -0.6353
 2684TIP3    H2 8059   0.405   1.520   4.513  0.3004 -0.8584  0.8696
 2685TIP3   OH2 8060   0.840   1.984   0.068  0.3006  0.7153 -0.4678
 2685TIP3    H1 8061   0.900   1.986  -0.006 -0.8890  0.1818 -1.4881
 2685TIP3    H2 8062   0.761   2.030   0.037  0.6701  2.7341  1.3340
 2686TIP3   OH2 8063   4.656   5.421   3.881  0.4688 -0.1479 -0.2096
 2686TIP3    H1 8064   4.682   5.390   3.794  0.5409 -4.7750  1.1934
 2686TIP3    H2 8065   4.737   5.417   3.932 -0.0107  0.3317  0.6036
 2687TIP3   OH2 8066   3.339   0.800   4.152  0.2156 -0.5578 -0.1775
 2687TIP3    H1 8067   3.276   0.741   4.111 -1.0402  1.3393 -1.1374
 2687TIP3    H2 8068   3.289   0.843   4.222  0.6372  0.4256 -0.4662
 2688TIP3   OH2 8069   5.104   4.037   0.166  0.4426  0.7178  0.1459
 2688TIP3    H1 8070   5.161   4.110   0.143  0.7276  0.4348 -0.0418
 2688TIP3    H2 8071   5.031   4.078   0.214 -0.7358  1.4677 -2.1537
 2689TIP3   OH2 8072   4.388   4.122   0.230  0.0207 -0.2490  0.1942
 2689TIP3    H1 8073   4.417   4.054   0.290  0.3567  0.9608  1.4484
 2689TIP3    H2 8074   4.304   4.151   0.264  0.9030  1.4882  1.0214
 2690TIP3   OH2 8075   4.281   2.936   2.244 -0.1123  0.4961 -0.7421
 2690TIP3    H1 8076   4.294   2.868   2.310 -1.9686 -0.5072 -1.3304
 2690TIP3    H2 8077   4.256   3.014   2.294  0.4283  0.3041 -0.1582
 2691TIP3   OH2 8078   4.999   2.028   3.190 -0.6227 -0.1450 -0.6178
 2691TIP3    H1 8079   4.938   2.014   3.118 -0.2264  0.2708 -1.0411
 2691TIP3    H2 8080   4.982   1.955   3.251  0.1114 -1.4135 -1.8686
 2692TIP3   OH2 8081   6.347   1.117   3.191 -0.1723 -0.4426  0.3284
 2692TIP3    H1 8082   6.347   1.202   3.148 -0.0674 -0.3423  0.5304
 2692TIP3    H2 8083   6.265   1.076   3.162  0.5859 -0.9752 -1.1490
 2693TIP3   OH2 8084   5.438   2.323   5.008 -0.5010  0.1705  0.0512
 2693TIP3    H1 8085   5.523   2.292   5.039  0.0132  1.7820  0.3658
 2693TIP3    H2 8086   5.423   2.273   4.928 -0.0893 -1.3721  0.8865
 2694TIP3   OH2 8087   1.689   2.588   0.742  0.0716  0.7838 -0.0785
 2694TIP3    H1 8088   1.678   2.517   0.679  0.8785  1.0901 -0.5765
 2694TIP3    H2 8089   1.763   2.639   0.708  1.1327  0.4387  1.5867
 2695TIP3   OH2 8090   3.725   4.575   4.956 -0.1241 -0.1431 -0.3576
 2695TIP3    H1 8091   3.631   4.553   4.953 -0.1349 -0.0178 -1.1190
 2695TIP3    H2 8092   3.767   4.502   4.911  0.0111  0.4778 -1.2633
 2696TIP3   OH2 8093   1.259   4.227   1.898 -0.3267 -0.0469  0.1345
 2696TIP3    H1 8094   1.302   4.164   1.840 -2.6418 -0.9649 -0.7014
 2696TIP3    H2 8095   1.223   4.173   1.969 -3.1331  0.0863 -1.0674
 2697TIP3   OH2 8096   4.499   4.363   1.576  0.7339 -0.1394  0.0147
 2697TIP3    H1 8097   4.587   4.333   1.552  0.5107 -1.1570  0.4225
 2697TIP3    H2 8098   4.508   4.392   1.667  1.0258  1.4166 -0.4784
 2698TIP3   OH2 8099   1.545   1.356   5.152 -0.1627 -0.0166 -0.3296
 2698TIP3    H1 8100   1.464   1.406   5.167 -0.1157 -0.1376  0.3293
 2698TIP3    H2 8101   1.536   1.278   5.206  0.3873 -0.0380 -0.2623
 2699TIP3   OH2 8102   2.251   2.445   0.802 -0.2734  0.3524 -0.1372
 2699TIP3    H1 8103   2.290   2.370   0.847  0.0600  0.3872 -0.3700
 2699TIP3    H2 8104   2.257   2.516   0.866 -0.3650  0.2446 -0.0078
 2700TIP3   OH2 8105   6.015   5.824   1.554 -0.0163  0.6123  0.5226
 2700TIP3    H1 8106   6.089   5.872   1.516 -0.3500 -0.5321 -1.7644
 2700TIP3    H2 8107   5.939   5.878   1.535 -0.1288  0.2443 -0.1298
 2701TIP3   OH2 8108   2.212   1.641   3.797 -0.5146 -0.2838  0.1045
 2701TIP3    H1 8109   2.274   1.572   3.820 -0.1389 -0.2250 -0.7204
 2701TIP3    H2 8110   2.247   1.720   3.838 -1.0117 -0.5880  1.1603
 2702TIP3   OH2 8111   2.203   0.583   1.224  0.1776 -0.0605  0.3074
 2702TIP3    H1 8112   2.239   0.573   1.136  0.9335  0.7020  0.5084
 2702TIP3    H2 8113   2.213   0.497   1.264  1.5266  0.0395  0.2455
 2703TIP3   OH2 8114   2.279   4.442   1.024 -0.4126  0.0183  0.2261
 2703TIP3    H1 8115   2.197   4.476   0.988  0.3077  1.0638 -0.4626
 2703TIP3    H2 8116   2.346   4.468   0.961  0.6446  0.3459  1.4462
 2704TIP3   OH2 8117   1.747   0.088   2.439 -0.3266  0.3014 -0.1947
 2704TIP3    H1 8118   1.837   0.092   2.409  0.5088 -1.4198  1.8816
 2704TIP3    H2 8119   1.752   0.050   2.527 -2.8561  2.3627  0.9865
 2705TIP3   OH2 8120   3.792   3.172   3.094 -0.3589 -0.2162  0.1810
 2705TIP3    H1 8121   3.837   3.255   3.077 -1.9911  0.5119 -0.8179
 2705TIP3    H2 8122   3.816   3.116   3.021  0.6785 -0.6354  0.8138
 2706TIP3   OH2 8123   0.863   3.028   0.134  0.5786  0.2058  0.4570
 2706TIP3    H1 8124   0.947   3.040   0.179  1.1045 -1.1410 -0.0979
 2706TIP3    H2 8125   0.804   2.995   0.202  0.3523  1.6079  0.9574
 2707TIP3   OH2 8126   3.260   3.306   1.356  0.2312 -0.5805 -0.3633
 2707TIP3    H1 8127   3.283   3.311   1.264 -0.2026 -0.3867 -0.4683
 2707TIP3    H2 8128   3.220   3.391   1.375  1.7871  0.0168  0.4232
 2708TIP3   OH2 8129   2.173   0.950   3.488 -0.2957  0.6262 -0.0974
 2708TIP3    H1 8130   2.178   0.861   3.522 -0.3458  1.2119  1.5350
 2708TIP3    H2 8131   2.090   0.953   3.439 -1.8237  0.5328  2.3027
 2709TIP3   OH2 8132   4.957   0.697   0.579  0.4147 -0.3699  0.1395
 2709TIP3    H1 8133   4.863   0.714   0.568  0.5784  0.7801  0.4023
 2709TIP3    H2 8134   4.964   0.660   0.667  0.3295  0.7448  0.6372
 2710TIP3   OH2 8135   5.474   1.233   3.003 -0.5823  0.3200  0.4791
 2710TIP3    H1 8136   5.439   1.253   3.090 -0.0405 -0.6412  0.9289
 2710TIP3    H2 8137   5.568   1.251   3.010 -0.2186 -1.5040  0.6593
 2711TIP3   OH2 8138   4.484   0.525   3.833  0.4078 -0.8884  0.4693
 2711TIP3    H1 8139   4.506   0.545   3.924 -0.0294 -1.2786  0.6631
 2711TIP3    H2 8140   4.392   0.551   3.824  0.9258  0.7803 -0.3493
 2712TIP3   OH2 8141   2.356   4.660   4.392  0.7551  0.3128  0.1037
 2712TIP3    H1 8142   2.331   4.578   4.349 -0.6257  0.8258 -0.1026
 2712TIP3    H2 8143   2.426   4.695   4.338 -0.5073  0.6208 -1.3894
 2713TIP3   OH2 8144   1.137   0.077   0.342  0.6342  0.5757 -0.5007
 2713TIP3    H1 8145   1.092   0.107   0.421 -0.2938  0.7126 -1.0704
 2713TIP3    H2 8146   1.076   0.096   0.271  1.5018  0.5595 -1.2701
 2714TIP3   OH2 8147   0.616   0.123   0.265 -0.2551  0.4125  0.5799
 2714TIP3    H1 8148   0.602   0.113   0.171 -0.9164  0.4764  0.6657
 2714TIP3    H2 8149   0.670   0.201   0.274  0.2967  0.0771  0.2213
 2715TIP3   OH2 8150   0.826   0.160   2.686 -0.3375 -0.1676 -0.8061
 2715TIP3    H1 8151   0.902   0.147   2.629 -0.1982 -1.6418 -0.3139
 2715TIP3    H2 8152   0.847   0.112   2.766  0.7992  4.2059  1.8459
 2716TIP3   OH2 8153   4.936   3.490   0.577  0.3007  0.7440 -0.2531
 2716TIP3    H1 8154   4.985   3.418   0.616 -0.8277  0.2822  0.3409
 2716TIP3    H2 8155   4.934   3.469   0.483 -0.6888 -0.4249  0.0061
 2717TIP3   OH2 8156   5.700   1.190   0.080 -0.1491 -0.5952  0.4098
 2717TIP3    H1 8157   5.605   1.176   0.080 -0.1295 -0.7292  1.0077
 2717TIP3    H2 8158   5.715   1.252   0.152  0.1380 -0.0033 -0.1456
 2718TIP3   OH2 8159   5.067   0.507   1.191  0.1169 -0.5427 -0.3661
 2718TIP3    H1 8160   4.992   0.456   1.222 -0.5325  0.4169 -0.3260
 2718TIP3    H2 8161   5.040   0.598   1.201  1.0549 -0.1888 -0.9333
 2719TIP3   OH2 8162   4.762   1.868   0.688  0.6798  0.1143 -0.2541
 2719TIP3    H1 8163   4.747   1.940   0.627  2.8402  0.2719 -0.6710
 2719TIP3    H2 8164   4.748   1.789   0.636 -3.2238  0.0518  0.5693
 2720TIP3   OH2 8165   5.278   5.163   1.659  0.3297 -0.1594  0.0270
 2720TIP3    H1 8166   5.284   5.191   1.568 -0.0779  1.0617  0.3695
 2720TIP3    H2 8167   5.258   5.069   1.653  0.9416 -0.2399 -1.1270
 2721TIP3   OH2 8168   6.245   1.951   2.856  0.2240  0.6896 -0.0008
 2721TIP3    H1 8169   6.165   1.925   2.901  0.4461  2.1599  1.3187
 2721TIP3    H2 8170   6.306   1.878   2.872 -0.4961  0.0481 -0.1154
 2722TIP3   OH2 8171   2.648   2.064   2.318  0.0325  0.0393 -0.7573
 2722TIP3    H1 8172   2.743   2.055   2.314  0.3080 -1.5518  3.9016
 2722TIP3    H2 8173   2.632   2.134   2.380 -1.9077  0.4059 -1.5850
 2723TIP3   OH2 8174   2.695   2.286   0.430 -0.0351 -0.0787  0.1635
 2723TIP3    H1 8175   2.687   2.215   0.494  1.3915 -0.4889 -0.0764
 2723TIP3    H2 8176   2.661   2.249   0.349  0.0321 -0.2503  0.2122
 2724TIP3   OH2 8177   4.162   4.422   2.401 -0.5848  0.0469  0.5180
 2724TIP3    H1 8178   4.069   4.402   2.388 -0.6389  1.1806 -1.1892
 2724TIP3    H2 8179   4.163   4.499   2.457 -0.7394  0.6785 -0.3306
 2725TIP3   OH2 8180   4.997   0.095   4.464  0.1156  0.2710 -0.6913
 2725TIP3    H1 8181   5.028   0.019   4.414  0.6278  0.2208 -0.3047
 2725TIP3    H2 8182   5.057   0.165   4.438  0.5154  0.1932  0.0057
 2726TIP3   OH2 8183   6.144   2.285   1.063  0.7664  0.8737  0.0246
 2726TIP3    H1 8184   6.099   2.211   1.022  1.2174  0.3126  0.5249
 2726TIP3    H2 8185   6.076   2.351   1.076  0.3462  0.5204 -0.3559
 2727TIP3   OH2 8186   2.836   5.619   0.249 -0.5813 -0.8700 -0.2133
 2727TIP3    H1 8187   2.750   5.648   0.278  0.0575  1.0875 -0.1700
 2727TIP3    H2 8188   2.850   5.664   0.165  1.9970  2.1678  1.6208
 2728TIP3   OH2 8189   1.343   2.683   0.152  0.2106  0.6467 -0.1777
 2728TIP3    H1 8190   1.341   2.641   0.238 -0.0391 -2.0995 -1.4087
 2728TIP3    H2 8191   1.253   2.678   0.121  0.3706  1.2767 -0.7530
 2729TIP3   OH2 8192   0.272   5.359   1.219  0.0789  0.3222  0.5391
 2729TIP3    H1 8193   0.298   5.374   1.128 -1.0297 -0.2916  0.1098
 2729TIP3    H2 8194   0.355   5.346   1.266  0.6845  1.1035 -0.2867
 2730TIP3   OH2 8195   2.466   5.238   5.038  0.1140  0.1741 -0.0853
 2730TIP3    H1 8196   2.389   5.281   5.074 -0.3476 -1.5589  1.1500
 2730TIP3    H2 8197   2.510   5.200   5.114  1.9370  0.6990 -0.8292
 2731TIP3   OH2 8198   2.551   5.693   1.124  0.3825  0.4922 -0.0113
 2731TIP3    H1 8199   2.492   5.769   1.116  1.3075  1.3393  0.9552
 2731TIP3    H2 8200   2.629   5.720   1.076  1.2748  0.7515  1.5373
 2732TIP3   OH2 8201   6.258   0.320   1.579  0.6503  0.4878  0.2930
 2732TIP3    H1 8202   6.289   0.403   1.543 -2.0190  2.6094  2.4195
 2732TIP3    H2 8203   6.273   0.328   1.673  0.4135 -1.4841  0.5322
 2733TIP3   OH2 8204   4.899   0.590   2.910  0.3284 -0.4454 -0.1537
 2733TIP3    H1 8205   4.990   0.616   2.899  0.0864  0.2728 -0.4993
 2733TIP3    H2 8206   4.892   0.507   2.862  0.2771  0.6006 -2.0461
 2734TIP3   OH2 8207   0.309   5.105   0.178  0.6964 -0.1350 -0.0138
 2734TIP3    H1 8208   0.239   5.124   0.116 -0.3022 -1.3957  0.6822
 2734TIP3    H2 8209   0.345   5.191   0.200 -0.1713  0.4836 -0.9021
 2735TIP3   OH2 8210   1.417   5.089   2.904 -0.2822  0.1278  0.0269
 2735TIP3    H1 8211   1.431   5.184   2.909 -0.5118  0.1001  2.7704
 2735TIP3    H2 8212   1.501   5.054   2.875  0.8684  1.0084  2.0767
 2736TIP3   OH2 8213   1.832   5.865   0.209 -0.1642  0.3247  0.2244
 2736TIP3    H1 8214   1.801   5.954   0.224 -1.5849  0.1453 -1.2810
 2736TIP3    H2 8215   1.755   5.810   0.225  0.8441 -0.7260  1.7513
 2737TIP3   OH2 8216   5.677   2.049   0.667 -0.1761 -0.2945  0.0262
 2737TIP3    H1 8217   5.670   2.021   0.575 -1.2840  0.7918 -0.2487
 2737TIP3    H2 8218   5.666   2.144   0.663 -0.6519 -0.2863  1.3322
 2738TIP3   OH2 8219   3.096   5.148   2.266  0.4212  0.1201 -0.4762
 2738TIP3    H1 8220   3.095   5.159   2.361  1.3832  0.2487 -0.4722
 2738TIP3    H2 8221   3.056   5.228   2.232 -2.9432 -1.2467 -0.1244
 2739TIP3   OH2 8222   2.610   1.234   4.937  0.0101  0.4261 -0.6459
 2739TIP3    H1 8223   2.700   1.202   4.930 -0.2491 -1.0329  1.6169
 2739TIP3    H2 8224   2.556   1.158   4.913 -0.6032  0.4459  0.6236
 2740TIP3   OH2 8225   5.933   0.709   2.778  0.1046  0.0944 -0.2289
 2740TIP3    H1 8226   6.009   0.687   2.725  0.4391 -0.0701  0.3153
 2740TIP3    H2 8227   5.909   0.627   2.822 -0.9791 -0.1023 -1.1202
 2741TIP3   OH2 8228   5.090   3.910   4.736 -0.6461 -0.5882  0.4490
 2741TIP3    H1 8229   5.130   3.996   4.719 -1.5156 -0.4338 -0.9641
 2741TIP3    H2 8230   5.010   3.930   4.784 -2.7676 -0.1684 -2.9084
 2742TIP3   OH2 8231   0.648   3.476   5.164  0.3096  0.2080 -0.4429
 2742TIP3    H1 8232   0.624   3.540   5.097  0.1509  0.7308  0.1040
 2742TIP3    H2 8233   0.715   3.521   5.217  1.2905 -0.6196 -0.9455
 2743TIP3   OH2 8234   1.364   5.260   1.937 -0.1333  0.3231 -0.2080
 2743TIP3    H1 8235   1.345   5.345   1.976  1.0991  0.7004 -0.3696
 2743TIP3    H2 8236   1.452   5.270   1.900  0.6488 -1.4383  1.0409
 2744TIP3   OH2 8237   6.132   0.909   2.829 -0.2224 -0.1459  0.6591
 2744TIP3    H1 8238   6.173   0.885   2.913 -2.5123 -0.8466  1.6628
 2744TIP3    H2 8239   6.074   0.836   2.810 -0.6476  0.5794 -0.9490
 2745TIP3   OH2 8240   5.477   4.445   1.517  0.5512  0.2422  0.2928
 2745TIP3    H1 8241   5.487   4.522   1.460 -1.9261  2.1225  2.1640
 2745TIP3    H2 8242   5.425   4.383   1.464 -0.6897  1.4646  0.0111
 2746TIP3   OH2 8243   0.102   3.523   2.779  0.5625  0.2854  0.3432
 2746TIP3    H1 8244   0.114   3.609   2.739 -0.9489 -0.1113 -1.1083
 2746TIP3    H2 8245   0.007   3.515   2.789  0.6411 -1.3816  0.0416
 2747TIP3   OH2 8246   0.627   1.028   0.630  0.5510 -1.1503  0.6727
 2747TIP3    H1 8247   0.649   0.996   0.718  0.2897 -2.9140  0.1234
 2747TIP3    H2 8248   0.692   1.097   0.614 -0.1849  0.1408  2.7255
 2748TIP3   OH2 8249   0.005   4.689   2.780  0.4492 -0.0717  0.4361
 2748TIP3    H1 8250  -0.008   4.748   2.706  1.1001 -2.2681 -1.5640
 2748TIP3    H2 8251   0.100   4.692   2.796  0.6329 -1.2523 -0.3336
 2749TIP3   OH2 8252   3.010   5.628   0.510 -0.4918  0.2002  0.4027
 2749TIP3    H1 8253   2.934   5.617   0.453  1.0057  0.3155 -1.7458
 2749TIP3    H2 8254   2.995   5.711   0.555 -0.7225  1.2702 -1.5522
 2750TIP3   OH2 8255   1.773   4.082   2.407  0.0883  0.0831 -0.3056
 2750TIP3    H1 8256   1.797   4.106   2.496  0.0238 -0.5108 -0.1231
 2750TIP3    H2 8257   1.677   4.081   2.408  0.0681  0.8764 -0.6051
 2751TIP3   OH2 8258   0.404   0.273   2.337 -0.4184 -0.0036 -0.0943
 2751TIP3    H1 8259   0.462   0.215   2.286 -1.3018 -1.7591  0.7942
 2751TIP3    H2 8260   0.439   0.268   2.426 -1.0378  0.1242  0.1564
 2752TIP3   OH2 8261   2.407   5.202   3.320 -0.9088 -0.7106 -0.3687
 2752TIP3    H1 8262   2.366   5.284   3.293 -2.3873 -1.6414 -1.0916
 2752TIP3    H2 8263   2.394   5.199   3.415  0.4756  0.5536 -0.1077
 2753TIP3   OH2 8264   5.474   1.736   0.107 -0.0685 -0.4925 -0.1524
 2753TIP3    H1 8265   5.519   1.774   0.032 -0.7260 -0.3177 -0.4649
 2753TIP3    H2 8266   5.389   1.708   0.073  0.3616 -2.2192  0.0630
 2754TIP3   OH2 8267   4.554   3.452   0.419 -0.0653  0.4952 -0.1740
 2754TIP3    H1 8268   4.520   3.363   0.414  0.0480  0.4247  0.3135
 2754TIP3    H2 8269   4.550   3.475   0.512 -1.0315  1.3727 -0.4105
 2755TIP3   OH2 8270   4.573   1.296   3.259 -0.1307 -0.3610  0.5299
 2755TIP3    H1 8271   4.653   1.245   3.261  0.3267  0.3481  1.0265
 2755TIP3    H2 8272   4.598   1.378   3.216 -0.5379 -0.0628  0.8513
 2756TIP3   OH2 8273   2.833   3.943   1.011 -0.0533 -0.1962 -0.0983
 2756TIP3    H1 8274   2.791   3.918   0.928 -1.0056 -0.8887  0.5772
 2756TIP3    H2 8275   2.800   3.880   1.075 -0.9006  1.5328  1.2332
 2757TIP3   OH2 8276   6.161   3.086   3.227 -1.1046 -0.1646 -0.2813
 2757TIP3    H1 8277   6.113   3.118   3.150 -0.5323 -0.7585 -0.8915
 2757TIP3    H2 8278   6.200   3.003   3.199 -0.4576 -0.1310  0.4835
 2758TIP3   OH2 8279   0.576   5.541   0.976  0.4937 -0.0995  0.3132
 2758TIP3    H1 8280   0.548   5.453   0.950  2.5013 -0.3699 -1.1919
 2758TIP3    H2 8281   0.579   5.591   0.894 -1.6793  1.7707  1.2639
 2759TIP3   OH2 8282   3.448   1.690   1.414 -0.0060 -0.0111  0.2495
 2759TIP3    H1 8283   3.366   1.644   1.428  0.2902 -0.3942  0.7813
 2759TIP3    H2 8284   3.496   1.678   1.496 -0.5178  2.4900  0.9889
 2760TIP3   OH2 8285   5.253   0.466   0.983 -0.0213 -0.1113 -0.5250
 2760TIP3    H1 8286   5.334   0.427   1.016 -0.7125 -1.3885 -0.2990
 2760TIP3    H2 8287   5.205   0.492   1.062  0.7170  1.9041 -0.6657
 2761TIP3   OH2 8288   5.866   2.324   1.642  0.0957 -0.2968  0.9949
 2761TIP3    H1 8289   5.832   2.316   1.731 -0.2749 -0.0565  0.8795
 2761TIP3    H2 8290   5.960   2.307   1.650  0.3937  1.4106  1.7168
 2762TIP3   OH2 8291   4.872   5.315   1.481  0.1611 -0.5886  0.0848
 2762TIP3    H1 8292   4.930   5.340   1.553  1.3852  0.8856 -1.3497
 2762TIP3    H2 8293   4.869   5.220   1.486  2.2036 -0.6840  0.6266
 2763TIP3   OH2 8294   5.310   2.721   5.078 -0.6331  0.1836 -0.1682
 2763TIP3    H1 8295   5.314   2.646   5.137 -0.7027 -0.5930 -1.1224
 2763TIP3    H2 8296   5.222   2.757   5.090 -0.0273  1.1865  1.5509
 2764TIP3   OH2 8297   0.655   4.896   1.066  0.3343  0.3385 -0.1401
 2764TIP3    H1 8298   0.645   4.953   0.990 -1.5827  2.1293  1.3350
 2764TIP3    H2 8299   0.632   4.809   1.034  0.0307  0.9597 -1.7208
 2765TIP3   OH2 8300   0.552   1.775   1.155 -0.2920 -0.0865  0.5180
 2765TIP3    H1 8301   0.632   1.723   1.166 -0.4569 -0.4912 -0.1405
 2765TIP3    H2 8302   0.497   1.722   1.097 -0.5895  0.6898  0.0846
 2766TIP3   OH2 8303   4.458   3.141   0.212  0.0588  0.3335  0.1569
 2766TIP3    H1 8304   4.543   3.097   0.215 -0.5223 -0.8364  0.4562
 2766TIP3    H2 8305   4.425   3.133   0.302 -0.4175  0.6543  0.0115
 2767TIP3   OH2 8306   0.088   1.990   2.494  0.2121  0.9886 -0.0438
 2767TIP3    H1 8307   0.126   1.918   2.544 -0.5638 -0.2632 -1.1646
 2767TIP3    H2 8308  -0.004   1.992   2.522  0.3707  1.9902  0.4446
 2768TIP3   OH2 8309   3.809   0.403   1.648  0.4633 -0.0865 -0.9038
 2768TIP3    H1 8310   3.744   0.474   1.643  0.0430 -0.5172 -1.6817
 2768TIP3    H2 8311   3.867   0.429   1.720  0.3337  1.0598 -1.1955
 2769TIP3   OH2 8312   1.013   3.416   3.450  0.3342  0.5123 -0.1481
 2769TIP3    H1 8313   1.084   3.480   3.441 -0.2073  0.9884 -1.1735
 2769TIP3    H2 8314   0.996   3.386   3.361  0.1610 -0.6141  0.2468
 2770TIP3   OH2 8315   2.733   5.855   1.298  0.4786 -0.0923  0.7422
 2770TIP3    H1 8316   2.768   5.943   1.307  0.4160 -0.0629  0.7058
 2770TIP3    H2 8317   2.750   5.831   1.207 -2.3646  1.1512 -0.2306
 2771TIP3   OH2 8318   1.411   3.510   2.374  0.5830  0.2367 -0.5674
 2771TIP3    H1 8319   1.384   3.602   2.372  0.8863  0.4113  1.3343
 2771TIP3    H2 8320   1.416   3.488   2.467  0.1853 -1.8261 -0.9714
 2772TIP3   OH2 8321   0.583   0.396   4.242 -0.7139 -0.3992 -0.5895
 2772TIP3    H1 8322   0.627   0.480   4.231 -1.6608  0.4511  1.5912
 2772TIP3    H2 8323   0.608   0.346   4.165 -0.2610  1.9284 -2.0596
 2773TIP3   OH2 8324   3.087   1.481   2.088 -0.4512  0.5123 -0.1869
 2773TIP3    H1 8325   3.046   1.459   2.005  1.3134 -1.7556 -0.5795
 2773TIP3    H2 8326   3.041   1.428   2.153 -0.3824  0.5803 -0.0811
 2774TIP3   OH2 8327   5.402   5.632   2.958  0.5290 -0.2074  0.3089
 2774TIP3    H1 8328   5.387   5.715   2.913 -2.6277 -0.6641  0.3325
 2774TIP3    H2 8329   5.420   5.657   3.049 -1.3872  0.4925  0.5466
 2775TIP3   OH2 8330   4.256   1.085   3.700  0.7281 -0.3569 -0.4590
 2775TIP3    H1 8331   4.268   1.147   3.628 -0.8253 -1.4259 -1.7061
 2775TIP3    H2 8332   4.161   1.084   3.715  0.7686 -2.0620 -0.1347
 2776TIP3   OH2 8333   1.203   1.766   3.541  0.4488 -0.1118  0.6165
 2776TIP3    H1 8334   1.183   1.810   3.624 -0.4050 -1.4945  1.1734
 2776TIP3    H2 8335   1.122   1.771   3.491  0.1337 -1.5592  0.9400
 2777TIP3   OH2 8336   3.197   3.347   4.899  0.0731 -0.1426  0.1495
 2777TIP3    H1 8337   3.116   3.336   4.850 -0.2445  0.3365  0.5542
 2777TIP3    H2 8338   3.259   3.287   4.857 -0.1290  0.4073 -0.9529
 2778TIP3   OH2 8339   0.096   0.962   0.123  0.1840  0.2679 -0.0596
 2778TIP3    H1 8340   0.026   0.901   0.099  1.2003 -0.5811 -0.9622
 2778TIP3    H2 8341   0.129   0.928   0.206  1.0208 -0.7015 -0.7584
 2779TIP3   OH2 8342   4.111   3.700   0.259 -0.0467 -0.4098 -0.0272
 2779TIP3    H1 8343   4.194   3.665   0.292  0.7222  2.9096  1.9950
 2779TIP3    H2 8344   4.136   3.764   0.193 -1.2591 -1.5459 -1.6801
 2780TIP3   OH2 8345   4.419   5.913   2.947  0.3674 -0.3859 -0.0489
 2780TIP3    H1 8346   4.353   5.981   2.958  0.4102 -0.2707 -0.5092
 2780TIP3    H2 8347   4.462   5.908   3.033 -0.0921 -0.3108  0.1856
 2781TIP3   OH2 8348   0.231   4.321   4.384  0.3893 -0.1411  0.4432
 2781TIP3    H1 8349   0.189   4.395   4.340  0.5078  0.7651  1.7953
 2781TIP3    H2 8350   0.165   4.253   4.385 -0.6928  0.8738  1.5161
 2782TIP3   OH2 8351   2.289   5.712   1.280 -0.1200  0.1760  0.3139
 2782TIP3    H1 8352   2.199   5.733   1.302 -0.4359 -0.8613  0.0788
 2782TIP3    H2 8353   2.294   5.720   1.185  0.0033  0.1250  0.3154
 2783TIP3   OH2 8354   0.531   2.129   1.012 -0.2543 -0.5441  0.0583
 2783TIP3    H1 8355   0.504   2.164   1.097 -0.0753 -0.5162  0.1054
 2783TIP3    H2 8356   0.616   2.089   1.029  0.9918  1.6334 -0.5980
 2784TIP3   OH2 8357   5.933   4.485   2.008 -0.4041  0.4966  0.2565
 2784TIP3    H1 8358   5.890   4.411   2.051  1.8125 -1.5452 -0.7788
 2784TIP3    H2 8359   5.916   4.560   2.064 -4.4247 -0.3029  0.3734
 2785TIP3   OH2 8360   4.981   3.835   1.907  0.4002 -0.1306  0.3706
 2785TIP3    H1 8361   5.068   3.806   1.937  0.8535 -0.7518 -1.3996
 2785TIP3    H2 8362   4.921   3.767   1.938  0.1860  1.1533  3.1215
 2786TIP3   OH2 8363   4.165   1.475   5.025  0.0337 -0.3746 -0.3641
 2786TIP3    H1 8364   4.168   1.497   5.118 -1.4057 -1.8386  0.0753
 2786TIP3    H2 8365   4.244   1.423   5.010  0.0838 -0.4398  0.1120
 2787TIP3   OH2 8366   2.683   1.097   0.613 -0.0902 -1.1786  0.5449
 2787TIP3    H1 8367   2.692   1.007   0.580 -0.7983 -0.4893 -1.6872
 2787TIP3    H2 8368   2.773   1.126   0.629  0.1539 -2.2047  1.1056
 2788TIP3   OH2 8369   3.398   2.073   4.937  0.6775 -0.0345  0.1749
 2788TIP3    H1 8370   3.401   2.168   4.931 -1.1358  0.0996  0.8572
 2788TIP3    H2 8371   3.306   2.050   4.923  0.5432 -1.4474  2.7196
 2789TIP3   OH2 8372   1.408   1.510   1.339 -0.2727 -0.4622 -0.3026
 2789TIP3    H1 8373   1.487   1.545   1.297 -0.4150  2.4002  1.5010
 2789TIP3    H2 8374   1.336   1.544   1.286 -0.3617  0.8148  0.5824
 2790TIP3   OH2 8375   2.636   3.107   4.048 -0.4682 -0.6963 -0.0092
 2790TIP3    H1 8376   2.595   3.063   3.974  0.3798  0.7174 -1.3750
 2790TIP3    H2 8377   2.631   3.200   4.027  0.4202 -0.2970  1.3841
 2791TIP3   OH2 8378   5.775   3.465   0.513  0.4821 -0.3500 -0.0831
 2791TIP3    H1 8379   5.830   3.466   0.435  1.8973 -2.1804  0.8164
 2791TIP3    H2 8380   5.707   3.400   0.493 -1.0390  1.4216 -0.9322
 2792TIP3   OH2 8381   3.445   3.430   4.988  0.2196 -0.0958 -0.1100
 2792TIP3    H1 8382   3.355   3.396   4.980 -0.7200  1.6862  1.9174
 2792TIP3    H2 8383   3.489   3.367   5.045 -0.9005  0.8600  1.9189
 2793TIP3   OH2 8384   1.844   4.101   2.673  0.1763  0.0546  0.0148
 2793TIP3    H1 8385   1.932   4.066   2.678  0.8392  1.7489  3.4874
 2793TIP3    H2 8386   1.794   4.052   2.738 -0.4713  1.3758  0.5621
 2794TIP3   OH2 8387   6.077   5.085   3.119 -0.0330  0.2471 -0.5968
 2794TIP3    H1 8388   6.117   5.064   3.035 -1.3384 -1.0099 -0.9485
 2794TIP3    H2 8389   5.983   5.076   3.104 -0.3162  0.4529  0.8814
 2795TIP3   OH2 8390   3.806   4.134   1.072 -0.7543 -0.4178 -0.8624
 2795TIP3    H1 8391   3.766   4.192   1.007  0.9907  1.3051 -0.4945
 2795TIP3    H2 8392   3.831   4.192   1.144  0.8811 -1.6387 -0.3761
 2796TIP3   OH2 8393   6.247   3.200   2.941 -0.4826 -0.1767 -0.6035
 2796TIP3    H1 8394   6.268   3.199   2.848 -0.8302  0.0978 -0.6866
 2796TIP3    H2 8395   6.227   3.109   2.962  2.4111 -0.8265 -0.1286
 2797TIP3   OH2 8396   1.829   4.796   4.119  0.8933 -0.1813  0.0230
 2797TIP3    H1 8397   1.749   4.744   4.111 -0.5105  1.7622  0.6408
 2797TIP3    H2 8398   1.828   4.853   4.042  0.7899  0.9767  0.8547
 2798TIP3   OH2 8399   2.833   0.327   2.347  0.2236  0.1859  0.7245
 2798TIP3    H1 8400   2.762   0.272   2.380  0.7799  1.3045  4.1876
 2798TIP3    H2 8401   2.813   0.414   2.380  0.5467  1.7290 -2.7185
 2799TIP3   OH2 8402   1.152   4.112   2.693 -0.8319 -0.3957 -0.1070
 2799TIP3    H1 8403   1.189   4.200   2.701  2.0380 -1.4176 -0.7465
 2799TIP3    H2 8404   1.156   4.076   2.781 -2.1836  0.1507  0.1902
 2800TIP3   OH2 8405   5.723   1.091   1.471  0.0178 -0.4858 -0.1758
 2800TIP3    H1 8406   5.654   1.102   1.537 -0.3815 -0.4777 -0.5902
 2800TIP3    H2 8407   5.801   1.130   1.511 -0.1444 -0.7503  0.4129
 2801TIP3   OH2 8408   6.094   1.581   2.104  0.4192  0.1630 -0.4384
 2801TIP3    H1 8409   6.040   1.654   2.133  0.1415 -0.5069  0.7949
 2801TIP3    H2 8410   6.031   1.516   2.071  0.5210 -0.3022  0.2747
 2802TIP3   OH2 8411   0.483   1.310   3.352  0.4568 -1.1465  0.4063
 2802TIP3    H1 8412   0.512   1.400   3.339 -0.1083 -0.8603  1.0664
 2802TIP3    H2 8413   0.446   1.308   3.440 -1.7145 -1.4165 -0.4359
 2803TIP3   OH2 8414   1.201   4.648   1.352 -0.0103  0.8456  0.2139
 2803TIP3    H1 8415   1.126   4.696   1.319 -1.3798 -0.6216  1.0512
 2803TIP3    H2 8416   1.187   4.558   1.323 -0.5631 -0.2444  3.4426
 2804TIP3   OH2 8417   3.297   5.646   2.957 -0.4068 -0.5669  0.3982
 2804TIP3    H1 8418   3.343   5.730   2.956 -0.7244 -0.3849  0.9551
 2804TIP3    H2 8419   3.350   5.589   2.902 -0.6432  0.2394 -0.6946
 2805TIP3   OH2 8420   2.765   2.178   3.913 -0.2168 -0.1758 -0.4546
 2805TIP3    H1 8421   2.696   2.114   3.897 -0.3402 -0.4432  1.0165
 2805TIP3    H2 8422   2.728   2.237   3.979 -0.0955  1.4119 -1.7426
 2806TIP3   OH2 8423   3.122   2.889   4.264  0.0569 -0.1910 -0.5621
 2806TIP3    H1 8424   3.186   2.822   4.240  2.2117  2.0756 -1.7110
 2806TIP3    H2 8425   3.069   2.901   4.185 -1.0363 -1.2107 -0.0117
 2807TIP3   OH2 8426   1.102   4.798   4.262 -0.9030 -0.3327  0.2410
 2807TIP3    H1 8427   1.184   4.814   4.308 -1.3154  0.8842  0.5801
 2807TIP3    H2 8428   1.036   4.846   4.312 -1.2294  1.8212 -2.0250
 2808TIP3   OH2 8429   5.077   1.374   2.358  0.0934  0.2755 -0.6592
 2808TIP3    H1 8430   5.041   1.287   2.375 -3.0125  1.5383  0.0351
 2808TIP3    H2 8431   5.171   1.364   2.370 -0.4031 -2.2599  2.8947
 2809TIP3   OH2 8432   1.142   1.807   0.626  0.3838  0.0006  0.3653
 2809TIP3    H1 8433   1.199   1.736   0.596  1.4663  0.8423  0.3889
 2809TIP3    H2 8434   1.193   1.852   0.694 -0.7182  0.1511  1.1178
 2810TIP3   OH2 8435   1.325   1.049   4.681 -0.3573  0.2244  0.4152
 2810TIP3    H1 8436   1.309   1.018   4.592 -2.1569 -0.0015  0.7756
 2810TIP3    H2 8437   1.412   1.089   4.677  1.1083 -2.7513 -0.6269
 2811TIP3   OH2 8438   2.273   4.505   3.375  0.3249 -0.7200 -0.3509
 2811TIP3    H1 8439   2.331   4.437   3.409  0.3301 -0.9640 -0.8471
 2811TIP3    H2 8440   2.323   4.546   3.304  0.0247 -0.6998 -0.5494
 2812TIP3   OH2 8441   2.975   2.792   0.688 -0.0287  0.0449 -0.7079
 2812TIP3    H1 8442   3.058   2.756   0.655  1.1538  1.1364  0.8866
 2812TIP3    H2 8443   2.940   2.723   0.744  0.7842  0.2649  0.0976
 2813TIP3   OH2 8444   4.548   4.231   4.586  0.1288  0.6165 -0.0572
 2813TIP3    H1 8445   4.610   4.158   4.582 -1.2005 -0.5349 -0.8158
 2813TIP3    H2 8446   4.576   4.291   4.517  0.4499  0.1434 -0.3414
 2814TIP3   OH2 8447   0.774   0.119   3.439  0.4429  0.0818 -0.4728
 2814TIP3    H1 8448   0.786   0.141   3.532 -0.5485 -1.3757  0.0258
 2814TIP3    H2 8449   0.846   0.165   3.395  1.4949  0.0559  1.1183
 2815TIP3   OH2 8450   1.656   2.359   3.125 -0.4359 -0.0110  0.1906
 2815TIP3    H1 8451   1.574   2.349   3.077  0.1647  0.7033 -1.0634
 2815TIP3    H2 8452   1.636   2.419   3.196 -1.2097 -0.5911  0.4665
 2816TIP3   OH2 8453   2.297   2.320   1.579  0.3368 -0.4023  0.6061
 2816TIP3    H1 8454   2.244   2.293   1.654  1.3108 -0.1643  1.4028
 2816TIP3    H2 8455   2.301   2.416   1.586  0.9858 -0.4300  0.6460
 2817TIP3   OH2 8456   5.041   2.431   1.007  0.3055  0.1172 -0.1598
 2817TIP3    H1 8457   5.002   2.379   0.937 -0.6326  0.0105  0.4109
 2817TIP3    H2 8458   5.127   2.394   1.021  0.3617 -0.0862 -1.0112
 2818TIP3   OH2 8459   3.515   0.548   0.604 -0.6795 -0.5067 -0.3909
 2818TIP3    H1 8460   3.522   0.622   0.665  0.6236 -0.8511 -0.0898
 2818TIP3    H2 8461   3.422   0.529   0.601 -0.8825  0.1800  0.7168
 2819TIP3   OH2 8462   2.158   1.584   1.756 -0.4906  0.1129  0.1319
 2819TIP3    H1 8463   2.186   1.546   1.839 -1.1909  0.6204  0.6085
 2819TIP3    H2 8464   2.063   1.596   1.766 -0.8675 -1.2658 -1.3072
 2820TIP3   OH2 8465   4.488   2.309   4.349  0.1445 -0.4234  0.2329
 2820TIP3    H1 8466   4.568   2.277   4.390  1.5404  2.0865 -0.3350
 2820TIP3    H2 8467   4.433   2.338   4.423  0.3982 -0.7418  0.5479
 2821TIP3   OH2 8468   0.010   3.600   2.387  0.1555 -0.5115  0.2438
 2821TIP3    H1 8469  -0.026   3.532   2.444  0.5771 -1.8579 -1.0459
 2821TIP3    H2 8470   0.095   3.621   2.426  0.3236 -1.2155  0.2633
 2822TIP3   OH2 8471   2.632   4.708   0.388  0.0776 -0.2057  0.1460
 2822TIP3    H1 8472   2.559   4.767   0.370 -0.0960 -0.1687  0.9575
 2822TIP3    H2 8473   2.593   4.634   0.433  0.6082  0.0498  1.0481
 2823TIP3   OH2 8474   4.103   0.924   4.048 -0.0132 -0.0746  0.4336
 2823TIP3    H1 8475   4.177   0.873   4.081  0.1050 -0.5551 -0.5382
 2823TIP3    H2 8476   4.110   1.008   4.094  0.8459 -0.2843  0.7132
 2824TIP3   OH2 8477   1.700   1.040   2.889  0.0507  0.0190  0.0508
 2824TIP3    H1 8478   1.781   1.084   2.863  0.8049 -0.9247  0.7436
 2824TIP3    H2 8479   1.675   1.081   2.972  1.3538 -1.5229  1.2721
 2825TIP3   OH2 8480   2.230   3.415   2.270 -0.5383 -0.2217  0.2495
 2825TIP3    H1 8481   2.247   3.347   2.205 -0.6175  0.1196 -0.1257
 2825TIP3    H2 8482   2.250   3.497   2.226  1.2478 -0.0661  1.2147
 2826TIP3   OH2 8483   3.668   2.132   5.043  0.5399  0.5080 -0.0470
 2826TIP3    H1 8484   3.676   2.199   4.974 -0.0170 -1.0607 -1.7026
 2826TIP3    H2 8485   3.574   2.115   5.048  0.6240  0.2841  0.8212
 2827TIP3   OH2 8486   0.394   3.705   4.626 -0.2212  0.3846 -0.1083
 2827TIP3    H1 8487   0.329   3.772   4.604 -0.7525 -0.1034 -0.0419
 2827TIP3    H2 8488   0.394   3.646   4.550 -0.7289 -0.2799  0.3969
 2828TIP3   OH2 8489   2.521   2.430   1.484  0.5519  0.2106  0.5447
 2828TIP3    H1 8490   2.462   2.361   1.516  0.5515 -0.1120 -0.1393
 2828TIP3    H2 8491   2.607   2.389   1.482  0.5995  0.3157  0.4097
 2829TIP3   OH2 8492   5.844   3.725   0.653 -0.2736 -0.8327  0.1283
 2829TIP3    H1 8493   5.888   3.768   0.580  0.6817 -1.5537  0.2536
 2829TIP3    H2 8494   5.828   3.636   0.622 -0.2600 -1.0168  0.6415
 2830TIP3   OH2 8495   4.157   1.871   1.884 -0.2464 -0.8711  0.7219
 2830TIP3    H1 8496   4.198   1.949   1.847 -1.7006 -0.3600  0.1060
 2830TIP3    H2 8497   4.133   1.897   1.973 -1.8062 -0.1641  0.1334
 2831TIP3   OH2 8498   5.840   3.938   2.067 -0.7116  0.2355  0.3314
 2831TIP3    H1 8499   5.904   3.972   2.005 -0.2875 -0.4684  0.3694
 2831TIP3    H2 8500   5.814   3.853   2.032 -0.6262 -0.0749  0.9949
 2832TIP3   OH2 8501   3.685   0.928   5.046  0.0809 -1.0107 -0.2635
 2832TIP3    H1 8502   3.741   0.974   4.983  0.3582 -1.8441 -0.6483
 2832TIP3    H2 8503   3.657   0.995   5.107  0.0307 -0.2230 -1.1234
 2833TIP3   OH2 8504   2.179   5.401   0.170 -0.0344  0.3796  0.3650
 2833TIP3    H1 8505   2.136   5.342   0.108  1.6167 -0.9162  0.3772
 2833TIP3    H2 8506   2.115   5.414   0.239 -0.9887 -0.1781 -0.3847
 2834TIP3   OH2 8507   2.391   5.529   1.574  0.1098  0.2758 -0.1316
 2834TIP3    H1 8508   2.445   5.601   1.543 -1.7616  1.8844  0.1439
 2834TIP3    H2 8509   2.336   5.505   1.499  1.4312 -1.6729 -0.5658
 2835TIP3   OH2 8510   0.370   4.392   3.915  0.1055 -0.1094 -0.2062
 2835TIP3    H1 8511   0.397   4.481   3.937  1.3014 -0.5005 -0.0025
 2835TIP3    H2 8512   0.340   4.355   3.998 -0.1439  0.0102 -0.2406
 2836TIP3   OH2 8513   0.746   1.414   1.913  0.2633  0.1362 -0.2884
 2836TIP3    H1 8514   0.729   1.481   1.978 -0.3069 -0.6549  0.4010
 2836TIP3    H2 8515   0.805   1.352   1.956  0.2327 -0.1643 -0.6666
 2837TIP3   OH2 8516   5.898   5.586   2.015  0.2694  0.5660 -0.1853
 2837TIP3    H1 8517   5.945   5.504   2.028 -1.0380 -0.2432 -0.3760
 2837TIP3    H2 8518   5.871   5.584   1.923 -0.1411  1.0186 -0.0788
 2838TIP3   OH2 8519   0.281   2.431   2.097  0.1582  0.5741 -0.2388
 2838TIP3    H1 8520   0.316   2.355   2.051  3.1658  1.6227  0.0679
 2838TIP3    H2 8521   0.328   2.433   2.180  1.1482  3.3769 -0.7300
 2839TIP3   OH2 8522   1.634   4.005   0.805  0.1117 -0.0863  0.0391
 2839TIP3    H1 8523   1.645   3.956   0.887 -1.0319 -0.2646  0.0956
 2839TIP3    H2 8524   1.550   4.049   0.814  1.1323  1.9916  0.0242
 2840TIP3   OH2 8525   0.832   3.078   3.210 -0.6700 -0.7956  0.3460
 2840TIP3    H1 8526   0.858   3.100   3.300 -1.4013  0.5770  0.2503
 2840TIP3    H2 8527   0.885   3.001   3.188  3.0018  1.4759  0.3192
 2841TIP3   OH2 8528   1.401   0.339   1.230  0.4579  0.0160  0.2411
 2841TIP3    H1 8529   1.490   0.313   1.208  0.4999  0.1422  0.2551
 2841TIP3    H2 8530   1.399   0.433   1.212  1.2032  0.6467  2.9266
 2842TIP3   OH2 8531   2.237   5.798   4.303 -0.3256  0.6203 -0.4839
 2842TIP3    H1 8532   2.296   5.723   4.297  0.7474  1.4774 -1.1094
 2842TIP3    H2 8533   2.207   5.811   4.213 -0.8862  0.6534 -0.2933
 2843TIP3   OH2 8534   1.498   3.259   3.735  0.1679 -0.0773 -0.0190
 2843TIP3    H1 8535   1.484   3.237   3.827 -0.1799  2.1917  0.5426
 2843TIP3    H2 8536   1.570   3.322   3.736 -0.0957  0.2761 -1.2586
 2844TIP3   OH2 8537   2.750   1.380   0.322  0.3030 -0.1258  0.2237
 2844TIP3    H1 8538   2.724   1.384   0.230  1.1748 -1.3915 -0.1161
 2844TIP3    H2 8539   2.674   1.342   0.366  0.0507  0.0565 -0.0461
 2845TIP3   OH2 8540   1.644   4.023   1.816  0.0594 -0.0133  0.6902
 2845TIP3    H1 8541   1.687   4.103   1.847  0.8445  0.5191 -1.5901
 2845TIP3    H2 8542   1.566   4.054   1.770  1.4527 -0.2670 -2.0612
 2846TIP3   OH2 8543  -0.036   4.699   1.248 -0.1161 -0.1140 -0.3149
 2846TIP3    H1 8544  -0.003   4.785   1.276  0.8545 -0.1330 -1.3320
 2846TIP3    H2 8545   0.039   4.657   1.207 -0.6528 -1.3670 -0.0416
 2847TIP3   OH2 8546   1.917   2.724   3.470  0.3802  0.5119  0.1950
 2847TIP3    H1 8547   1.859   2.698   3.541  0.4432  0.3905  0.2026
 2847TIP3    H2 8548   1.947   2.812   3.494  1.2639  0.0361  0.8639
 2848TIP3   OH2 8549   5.307   4.289   2.808  0.1271 -0.0693 -0.3374
 2848TIP3    H1 8550   5.340   4.240   2.883  3.3471  1.8265 -0.3190
 2848TIP3    H2 8551   5.342   4.244   2.732  0.0559  0.1424 -0.4968
 2849TIP3   OH2 8552   5.131   2.446   1.924  0.4704  0.2073  0.0865
 2849TIP3    H1 8553   5.050   2.496   1.932  0.5556  0.7845 -2.0492
 2849TIP3    H2 8554   5.200   2.510   1.941  0.5088 -0.0648  0.9784
 2850TIP3   OH2 8555   3.205   4.501   5.019  0.4568 -0.2665 -0.7634
 2850TIP3    H1 8556   3.225   4.539   5.104  2.5564 -1.1093 -0.8259
 2850TIP3    H2 8557   3.185   4.410   5.037 -1.6359  0.1153 -0.9359
 2851TIP3   OH2 8558   2.377   0.585   2.293  0.0858  0.2338  0.2835
 2851TIP3    H1 8559   2.340   0.667   2.260  1.0063  0.1066 -1.1888
 2851TIP3    H2 8560   2.392   0.600   2.386 -0.2198  1.5569  0.1342
 2852TIP3   OH2 8561   0.256   4.588   2.999 -0.1290  0.3242 -0.3365
 2852TIP3    H1 8562   0.346   4.612   2.980 -0.3291  0.7568 -0.7663
 2852TIP3    H2 8563   0.261   4.499   3.034  0.4209  0.1887 -0.7548
 2853TIP3   OH2 8564   1.717   2.224   0.526  0.1065 -0.1818  0.2582
 2853TIP3    H1 8565   1.749   2.310   0.500 -0.8872 -0.3913 -1.8604
 2853TIP3    H2 8566   1.646   2.242   0.588 -0.4590  0.5610 -0.5868
 2854TIP3   OH2 8567   2.965   3.376   2.676 -0.0785 -0.1221  0.3050
 2854TIP3    H1 8568   3.054   3.398   2.704  0.4352 -1.1162 -0.4627
 2854TIP3    H2 8569   2.912   3.451   2.703  1.0270  0.5926  0.5683
 2855TIP3   OH2 8570   5.540   0.657   4.906  0.1711  0.5122 -0.4510
 2855TIP3    H1 8571   5.465   0.640   4.849 -1.7201 -1.3442  2.3816
 2855TIP3    H2 8572   5.502   0.696   4.985  2.3156  0.2801  0.7560
 2856TIP3   OH2 8573   5.358   5.782   1.367  0.3790 -0.3033  0.5876
 2856TIP3    H1 8574   5.343   5.875   1.383 -1.2572 -0.5477  0.6690
 2856TIP3    H2 8575   5.443   5.778   1.324 -0.4271  1.4211 -1.3219
 2857TIP3   OH2 8576   2.254   4.463   4.746  0.0295 -0.5946  0.4407
 2857TIP3    H1 8577   2.199   4.502   4.814  1.4355  0.0811  1.2283
 2857TIP3    H2 8578   2.192   4.437   4.677 -1.1146  1.5260  0.5952
 2858TIP3   OH2 8579   3.139   3.599   5.086 -0.1925  0.3428 -0.6913
 2858TIP3    H1 8580   3.052   3.635   5.105 -0.4379 -1.0262  1.1281
 2858TIP3    H2 8581   3.123   3.508   5.063  0.7193  0.2123 -0.8451
 2859TIP3   OH2 8582   0.736   1.876   2.916 -0.1937 -0.1330 -0.3070
 2859TIP3    H1 8583   0.647   1.893   2.888  0.4320  0.7448 -1.8699
 2859TIP3    H2 8584   0.770   1.814   2.851 -0.3154 -2.2303  1.5150
 2860TIP3   OH2 8585   1.022   0.745   0.500 -0.3835  0.3240 -0.6550
 2860TIP3    H1 8586   1.017   0.655   0.532  0.2061  0.4464 -0.1967
 2860TIP3    H2 8587   0.936   0.762   0.461 -1.6990  0.6330  2.1482
 2861TIP3   OH2 8588   2.126   3.959   3.545  0.1823  0.4193  1.0070
 2861TIP3    H1 8589   2.218   3.941   3.563  0.3461  0.5448  0.3344
 2861TIP3    H2 8590   2.122   4.054   3.533 -0.3593  0.6396  2.7877
 2862TIP3   OH2 8591   5.215   1.077   1.325 -1.1564  0.2102  0.8455
 2862TIP3    H1 8592   5.253   1.091   1.411 -1.7699  0.4030  1.0886
 2862TIP3    H2 8593   5.190   1.165   1.296 -0.8691  0.1594  0.4264
 2863TIP3   OH2 8594   1.926   3.566   2.115  0.2970 -0.1151 -0.2336
 2863TIP3    H1 8595   1.949   3.523   2.032  0.2772 -2.5712  0.9664
 2863TIP3    H2 8596   1.833   3.549   2.127  0.0787  1.0457 -0.1157
 2864TIP3   OH2 8597   1.631   5.529   0.682  0.1848 -0.3490  0.0387
 2864TIP3    H1 8598   1.671   5.590   0.620  0.1123 -1.5156 -1.1842
 2864TIP3    H2 8599   1.582   5.468   0.628 -2.1710  0.2110  1.4087
 2865TIP3   OH2 8600   6.184   2.191   2.020  0.0888 -0.0570  0.0253
 2865TIP3    H1 8601   6.124   2.121   1.997  0.0654  0.0913 -0.3847
 2865TIP3    H2 8602   6.167   2.210   2.112  0.8681 -1.3406  0.4572
 2866TIP3   OH2 8603   6.079   1.032   3.127  1.1851 -0.4992 -0.7107
 2866TIP3    H1 8604   5.992   0.993   3.126  0.4585  1.0242  0.4515
 2866TIP3    H2 8605   6.068   1.117   3.085  2.1683 -0.3719 -0.7306
 2867TIP3   OH2 8606   4.311   3.306   3.057 -0.1400  0.1863 -0.5392
 2867TIP3    H1 8607   4.255   3.297   2.979  1.3493  1.0332 -1.7783
 2867TIP3    H2 8608   4.364   3.226   3.057  0.7990  0.7875 -1.2183
 2868TIP3   OH2 8609   2.999   4.909   0.780  0.0847  0.0731 -0.3449
 2868TIP3    H1 8610   3.058   4.908   0.704  0.4320 -1.6689 -0.1175
 2868TIP3    H2 8611   2.946   4.830   0.769  1.0062 -0.9402  1.8256
 2869TIP3   OH2 8612   0.411   0.250   3.978  0.7537 -0.2571 -0.3628
 2869TIP3    H1 8613   0.429   0.171   4.030 -0.6298 -0.2011  0.2460
 2869TIP3    H2 8614   0.360   0.305   4.037 -2.1449 -0.7850 -2.2240
 2870TIP3   OH2 8615   1.239   2.289   1.265  0.1342 -0.4477  0.1840
 2870TIP3    H1 8616   1.241   2.219   1.331  1.2566  1.0716  1.8351
 2870TIP3    H2 8617   1.300   2.355   1.298 -2.0477  2.0710 -0.4843
 2871TIP3   OH2 8618   2.562   0.884   4.087 -0.1851  0.0048  0.0922
 2871TIP3    H1 8619   2.609   0.811   4.047 -1.2376 -0.6636  0.0377
 2871TIP3    H2 8620   2.484   0.894   4.034 -0.4707  0.6168  0.6199
 2872TIP3   OH2 8621   1.133   1.136   0.424 -0.0468 -0.3906  0.5171
 2872TIP3    H1 8622   1.081   1.198   0.373 -1.3554  0.2925  2.5639
 2872TIP3    H2 8623   1.127   1.054   0.376 -2.2216 -0.0741  0.1779
 2873TIP3   OH2 8624   6.111   1.825   3.588 -0.7484 -0.4631  0.6509
 2873TIP3    H1 8625   6.170   1.885   3.634 -1.1124  1.3584 -1.1178
 2873TIP3    H2 8626   6.038   1.880   3.560  0.2734 -0.9108 -3.6101
 2874TIP3   OH2 8627   5.574   0.780   1.641 -0.6137 -0.0523  0.0849
 2874TIP3    H1 8628   5.497   0.826   1.608 -0.5206 -0.4355 -0.6859
 2874TIP3    H2 8629   5.627   0.849   1.681 -1.1714  0.2746  0.2651
 2875TIP3   OH2 8630   1.612   5.464   1.802 -0.6228 -0.5279  0.3900
 2875TIP3    H1 8631   1.643   5.380   1.768 -0.1400 -0.4535  0.6261
 2875TIP3    H2 8632   1.665   5.478   1.881  0.3134  0.6763 -0.4164
 2876TIP3   OH2 8633   5.264   0.311   2.889 -0.1392  0.0683  0.0696
 2876TIP3    H1 8634   5.213   0.373   2.941  0.0889 -0.7764  1.3817
 2876TIP3    H2 8635   5.247   0.226   2.931  1.6381 -0.3590 -0.0012
 2877TIP3   OH2 8636   4.908   1.127   1.240 -0.4596 -0.8337  0.2968
 2877TIP3    H1 8637   4.918   1.136   1.334 -0.2209  0.0195  0.1950
 2877TIP3    H2 8638   4.901   1.217   1.207 -2.5251 -1.1344 -0.2881
 2878TIP3   OH2 8639   3.626   4.875   1.649  0.0797 -0.1086 -0.0696
 2878TIP3    H1 8640   3.591   4.787   1.664  1.7715 -0.7151  0.5842
 2878TIP3    H2 8641   3.582   4.905   1.570 -1.9168 -0.7648  0.7418
 2879TIP3   OH2 8642   3.049   5.376   3.428 -0.2733  0.4422  0.6035
 2879TIP3    H1 8643   3.121   5.322   3.459  0.3779  0.5127 -0.7111
 2879TIP3    H2 8644   2.972   5.340   3.471  0.4619  0.0285  1.6212
 2880TIP3   OH2 8645   5.650   2.588   1.933  0.7824  0.1431  0.1815
 2880TIP3    H1 8646   5.605   2.551   2.009 -1.0998 -1.1215 -1.4515
 2880TIP3    H2 8647   5.693   2.514   1.892 -2.0111 -0.2126 -2.4526
 2881TIP3   OH2 8648   2.788   3.272   4.777 -0.3158 -0.0116  0.0646
 2881TIP3    H1 8649   2.838   3.338   4.825  0.8984 -0.8104 -0.0546
 2881TIP3    H2 8650   2.817   3.282   4.686 -0.6026 -0.2703 -0.0567
 2882TIP3   OH2 8651   2.670   3.853   0.108 -0.2606 -0.3169 -0.2188
 2882TIP3    H1 8652   2.622   3.776   0.077 -0.2833 -0.4917  0.2409
 2882TIP3    H2 8653   2.684   3.906   0.029 -2.6997  0.5602 -0.1453
 2883TIP3   OH2 8654   4.509   2.109   2.106 -0.3757  0.0180  0.0962
 2883TIP3    H1 8655   4.577   2.143   2.164 -1.9363  0.7657  1.5720
 2883TIP3    H2 8656   4.477   2.187   2.059 -0.0104 -0.3832 -0.8475
 2884TIP3   OH2 8657   5.648   3.349   3.409  0.4874 -0.3708  0.4473
 2884TIP3    H1 8658   5.732   3.307   3.393  0.8094  0.5701 -0.4494
 2884TIP3    H2 8659   5.669   3.441   3.422 -0.4878  0.1318 -1.1612
 2885TIP3   OH2 8660   3.871   5.498   1.150  0.3336 -0.2656 -0.2430
 2885TIP3    H1 8661   3.904   5.423   1.200  1.8415  2.0961  2.6535
 2885TIP3    H2 8662   3.787   5.518   1.191  0.8011  0.6994  0.2717
 2886TIP3   OH2 8663   5.425   4.644   4.582  0.8178 -0.4997 -0.2161
 2886TIP3    H1 8664   5.352   4.637   4.643  0.4794  0.0665 -0.5416
 2886TIP3    H2 8665   5.389   4.620   4.497  0.3173  2.1569 -0.8506
 2887TIP3   OH2 8666   4.674   0.232   1.092  0.1153  0.1422  0.2836
 2887TIP3    H1 8667   4.640   0.212   1.179  0.4110  0.6778  0.5267
 2887TIP3    H2 8668   4.620   0.305   1.061 -1.5711 -1.5353 -0.9801
 2888TIP3   OH2 8669   3.110   5.360   4.543  0.2331  0.0498 -0.1336
 2888TIP3    H1 8670   3.150   5.409   4.471  1.1458 -1.3617 -0.6323
 2888TIP3    H2 8671   3.016   5.370   4.530  0.3572  2.4194  0.3399
 2889TIP3   OH2 8672   3.950   5.961   1.881  0.1218 -0.4760  0.2820
 2889TIP3    H1 8673   3.889   5.892   1.857  0.1429  0.0515 -1.4398
 2889TIP3    H2 8674   3.900   6.042   1.870  0.7822 -0.0976 -0.0215
 2890TIP3   OH2 8675   3.240   0.735   1.902  1.0155  0.1096  0.6524
 2890TIP3    H1 8676   3.195   0.651   1.912  1.4047 -0.1801  0.0418
 2890TIP3    H2 8677   3.319   0.727   1.956 -0.3200  1.1439  2.8823
 2891TIP3   OH2 8678   0.864   1.703   2.695 -0.4987  0.5164 -0.2093
 2891TIP3    H1 8679   0.876   1.623   2.746 -1.3311  0.9839  0.7611
 2891TIP3    H2 8680   0.851   1.672   2.605  1.5718 -0.2888 -0.2775
 2892TIP3   OH2 8681   0.866   3.163   3.478 -0.0650  0.7081 -0.2262
 2892TIP3    H1 8682   0.790   3.130   3.526 -0.5409  0.4907 -1.1007
 2892TIP3    H2 8683   0.889   3.245   3.521 -0.5669  0.5821  0.2804
 2893TIP3   OH2 8684   1.698   3.739   1.852 -0.1465  0.1608  1.1223
 2893TIP3    H1 8685   1.648   3.821   1.847 -1.7756 -0.8469  0.3720
 2893TIP3    H2 8686   1.659   3.691   1.924  1.8910  0.6735  2.6713
 2894TIP3   OH2 8687   3.143   3.746   1.459 -0.6583 -0.5002 -0.1884
 2894TIP3    H1 8688   3.212   3.679   1.463 -0.5065 -0.4142 -1.0756
 2894TIP3    H2 8689   3.126   3.756   1.365 -0.8413  0.5338 -0.0519
 2895TIP3   OH2 8690   5.879   3.128   1.969 -0.3592  0.6891 -0.2969
 2895TIP3    H1 8691   5.818   3.181   1.918 -0.9248 -0.0135 -0.3613
 2895TIP3    H2 8692   5.964   3.171   1.956 -0.4738  0.5042 -1.8584
 2896TIP3   OH2 8693   4.248   2.536   1.486 -1.0671 -0.1927 -0.6655
 2896TIP3    H1 8694   4.206   2.603   1.540 -1.2191  0.9320 -2.1238
 2896TIP3    H2 8695   4.179   2.474   1.467 -0.3821 -2.2807  2.7916
 2897TIP3   OH2 8696   5.938   4.723   3.099  0.0598  0.0167  0.1738
 2897TIP3    H1 8697   6.024   4.752   3.068 -0.1875  0.6902  0.1053
 2897TIP3    H2 8698   5.953   4.697   3.190  0.5137 -0.7028 -0.0968
 2898TIP3   OH2 8699   4.368   5.871   4.677 -0.1566  0.0710 -0.4524
 2898TIP3    H1 8700   4.397   5.925   4.751  1.8298 -0.1897 -0.9779
 2898TIP3    H2 8701   4.276   5.894   4.665 -0.3056  0.7022  1.5823
 2899TIP3   OH2 8702   1.817   5.774   4.828  0.3158 -0.8414 -0.2721
 2899TIP3    H1 8703   1.835   5.711   4.898  0.5005  0.4652  0.8784
 2899TIP3    H2 8704   1.899   5.781   4.780  0.2669 -1.5289 -0.4757
 2900TIP3   OH2 8705   1.581   1.652   2.868 -0.4510 -0.2493  0.4538
 2900TIP3    H1 8706   1.645   1.668   2.798 -1.5315  0.2430 -0.4522
 2900TIP3    H2 8707   1.632   1.614   2.939  1.4148  2.6460  0.8474
 2901TIP3   OH2 8708   5.805   1.374   0.288  0.0340  0.3998  0.0654
 2901TIP3    H1 8709   5.780   1.351   0.377 -2.1757 -0.7696 -0.7940
 2901TIP3    H2 8710   5.755   1.452   0.268 -1.1249 -0.5366 -0.8260
 2902TIP3   OH2 8711   0.164   1.999   3.155 -0.1319 -0.0746  0.0640
 2902TIP3    H1 8712   0.235   1.936   3.170  0.0871  0.0033 -0.5830
 2902TIP3    H2 8713   0.096   1.974   3.217 -0.2404 -1.2728 -0.5020
 2903TIP3   OH2 8714   0.829   2.554   0.578  0.1057 -0.5326 -0.0854
 2903TIP3    H1 8715   0.747   2.507   0.563  0.1940 -0.9583  0.7058
 2903TIP3    H2 8716   0.897   2.494   0.545  0.2257 -1.0231  1.0171
 2904TIP3   OH2 8717   4.218   2.232   3.871  0.6504  0.2123 -0.2071
 2904TIP3    H1 8718   4.201   2.171   3.943  1.1183 -0.3120 -0.5290
 2904TIP3    H2 8719   4.146   2.295   3.876  0.1614 -0.3533  0.1524
 2905TIP3   OH2 8720   6.108   5.138   1.673 -0.0645  0.3509 -0.0346
 2905TIP3    H1 8721   6.089   5.099   1.588  2.1773  0.4131 -0.6178
 2905TIP3    H2 8722   6.152   5.068   1.722  0.5121  0.9435  0.3108
 2906TIP3   OH2 8723   3.557   0.763   3.370  0.2259  0.0110  0.1139
 2906TIP3    H1 8724   3.463   0.771   3.385  0.2575  2.2279 -0.3939
 2906TIP3    H2 8725   3.565   0.706   3.294 -0.5648 -1.6456  1.2158
 2907TIP3   OH2 8726   3.271   0.966   1.013 -0.0074  0.5396 -0.5712
 2907TIP3    H1 8727   3.337   1.028   1.045 -1.4042  1.5911  0.3653
 2907TIP3    H2 8728   3.224   1.015   0.945 -4.1170  2.4587  3.1349
 2908TIP3   OH2 8729   1.498   3.781   2.613 -0.3382 -0.2319 -0.1360
 2908TIP3    H1 8730   1.405   3.795   2.631 -0.0803  1.4726  0.0228
 2908TIP3    H2 8731   1.537   3.766   2.699 -0.5480 -1.6621 -0.2667
 2909TIP3   OH2 8732   4.671   1.818   1.240  0.4736  0.6192 -0.1095
 2909TIP3    H1 8733   4.668   1.869   1.159 -1.1792 -2.0958 -1.9476
 2909TIP3    H2 8734   4.582   1.823   1.275  0.1442 -1.1886 -0.5634
 2910TIP3   OH2 8735   1.678   0.212   1.258 -0.2753 -0.6574  0.5114
 2910TIP3    H1 8736   1.618   0.147   1.220 -2.1584  1.2612 -0.0422
 2910TIP3    H2 8737   1.687   0.185   1.350 -3.4574 -0.1376  1.0965
 2911TIP3   OH2 8738   0.558   4.619   1.227 -0.1421 -0.6920 -0.0094
 2911TIP3    H1 8739   0.522   4.531   1.212  2.4020 -1.5316 -1.7948
 2911TIP3    H2 8740   0.575   4.653   1.140 -0.8943  1.5580  0.6659
 2912TIP3   OH2 8741   0.786   0.562   3.107  0.0837 -0.3693  0.3304
 2912TIP3    H1 8742   0.755   0.489   3.161 -2.9040  1.3146  1.1476
 2912TIP3    H2 8743   0.728   0.562   3.031  1.3148  0.0050 -0.6371
 2913TIP3   OH2 8744   5.060   5.448   0.346 -0.4410  0.1554 -0.2960
 2913TIP3    H1 8745   5.049   5.386   0.417  0.7419  1.2618  0.9025
 2913TIP3    H2 8746   5.140   5.420   0.301  0.0971  0.7672  0.2492
 2914TIP3   OH2 8747   0.419   0.080   2.870 -0.2201 -0.2696  0.0334
 2914TIP3    H1 8748   0.343   0.022   2.883 -2.0208  1.9104 -0.2352
 2914TIP3    H2 8749   0.431   0.083   2.775 -0.8631  0.6234 -0.0355
 2915TIP3   OH2 8750   3.851   3.759   0.580 -0.1534 -0.1967 -0.1591
 2915TIP3    H1 8751   3.800   3.706   0.519 -0.4342 -0.6762  0.4705
 2915TIP3    H2 8752   3.910   3.696   0.622 -0.2152  0.0561  0.3138
 2916TIP3   OH2 8753   3.549   3.642   3.324 -0.0230 -0.5297 -0.6447
 2916TIP3    H1 8754   3.603   3.581   3.374  0.8549 -0.2908 -1.2910
 2916TIP3    H2 8755   3.460   3.625   3.356  0.1734 -2.2006 -0.8603
 2917TIP3   OH2 8756   2.525   3.897   3.384 -0.5021 -0.2366  0.1835
 2917TIP3    H1 8757   2.444   3.912   3.334  0.0431 -0.7758 -0.8885
 2917TIP3    H2 8758   2.569   3.826   3.338 -0.3142 -1.2623  1.8764
 2918TIP3   OH2 8759   4.119   4.614   4.036  0.2904  0.4810  0.6009
 2918TIP3    H1 8760   4.185   4.568   3.985 -1.4728 -1.4062 -0.0809
 2918TIP3    H2 8761   4.095   4.689   3.982  0.1283 -0.1909 -0.2778
 2919TIP3   OH2 8762   4.189   5.299   4.785 -0.3307  0.3711  0.0998
 2919TIP3    H1 8763   4.187   5.205   4.768  1.3186  0.5376 -1.2316
 2919TIP3    H2 8764   4.229   5.337   4.707  0.7294  2.0027  1.3727
 2920TIP3   OH2 8765   3.715   0.564   0.914  0.0444  0.4061  0.2328
 2920TIP3    H1 8766   3.729   0.635   0.976 -1.3764 -0.4189  1.5627
 2920TIP3    H2 8767   3.668   0.497   0.964  0.7506 -1.2024 -1.1464
 2921TIP3   OH2 8768   4.135   4.104   2.400  0.5704 -0.2260 -0.6473
 2921TIP3    H1 8769   4.095   4.125   2.316  0.6461  0.7766 -0.4458
 2921TIP3    H2 8770   4.062   4.073   2.454  0.5899 -1.2751 -1.1904
 2922TIP3   OH2 8771   0.930   1.857   1.071  0.1859 -0.2944  0.2988
 2922TIP3    H1 8772   0.861   1.899   1.122  0.5398 -0.1281  0.6433
 2922TIP3    H2 8773   0.974   1.799   1.134 -0.4079 -1.3194 -0.2074
 2923TIP3   OH2 8774   2.643   5.783   0.424 -0.8064  0.0977 -0.2935
 2923TIP3    H1 8775   2.557   5.742   0.425 -1.1842  0.8752 -0.2007
 2923TIP3    H2 8776   2.630   5.864   0.374  0.7580 -1.6717 -3.9688
 2924TIP3   OH2 8777   0.706   4.250   0.663  0.3291 -0.1251  0.2547
 2924TIP3    H1 8778   0.711   4.164   0.704  0.2889  0.3401  1.2653
 2924TIP3    H2 8779   0.796   4.273   0.641  0.4894  0.1019  1.1229
 2925TIP3   OH2 8780   6.248   2.933   3.933 -0.5276  0.1204  0.3970
 2925TIP3    H1 8781   6.277   2.917   3.843  1.0433 -3.3195  1.3839
 2925TIP3    H2 8782   6.152   2.933   3.927 -0.6623  4.5752 -1.8139
 2926TIP3   OH2 8783   0.303   4.512   1.773 -0.3366  0.2381 -0.2958
 2926TIP3    H1 8784   0.396   4.533   1.766 -0.7107  1.6266 -1.5701
 2926TIP3    H2 8785   0.277   4.542   1.860  0.8157 -2.1038  0.9620
 2927TIP3   OH2 8786   3.096   1.097   2.076 -0.6079  0.3347  0.6626
 2927TIP3    H1 8787   3.117   1.026   2.137  1.5134 -0.2690 -0.6293
 2927TIP3    H2 8788   3.119   1.177   2.122  1.5545 -0.1463  0.5282
 2928TIP3   OH2 8789   3.267   0.034   0.343 -0.0685  0.0388 -0.6885
 2928TIP3    H1 8790   3.305   0.105   0.395  0.0478 -0.0260 -0.6849
 2928TIP3    H2 8791   3.173   0.052   0.343 -0.2446 -0.7554  0.7596
 2929TIP3   OH2 8792   1.140   5.443   5.063 -0.2277  0.2627  0.5228
 2929TIP3    H1 8793   1.181   5.521   5.101  0.0886  0.0987  0.5197
 2929TIP3    H2 8794   1.107   5.394   5.138  0.7018 -0.2324  0.6168
 2930TIP3   OH2 8795   2.693   3.759   1.751  0.2104 -0.3011 -0.5680
 2930TIP3    H1 8796   2.626   3.757   1.682  1.7899 -0.7393 -2.1688
 2930TIP3    H2 8797   2.755   3.826   1.721  1.1107 -0.7532  0.2466
 2931TIP3   OH2 8798   2.546   4.539   1.526  0.0260  0.3233  0.0798
 2931TIP3    H1 8799   2.587   4.467   1.574  0.6319 -0.3082 -1.3608
 2931TIP3    H2 8800   2.453   4.522   1.532  0.0481  0.5363  1.4434
 2932TIP3   OH2 8801  -0.031   4.438   2.949 -0.1808  0.3864 -0.5018
 2932TIP3    H1 8802   0.048   4.400   2.986 -0.2981 -0.6127 -1.2130
 2932TIP3    H2 8803  -0.003   4.521   2.910  0.1312  0.9542  0.8878
 2933TIP3   OH2 8804   3.298   3.008   2.005  0.2482  0.2860 -0.1215
 2933TIP3    H1 8805   3.226   2.996   1.943 -0.7828  0.2413  1.0303
 2933TIP3    H2 8806   3.284   3.096   2.041  2.6472  1.6263 -2.1458
 2934TIP3   OH2 8807   5.165   5.543   2.248 -0.4418  0.1918  0.1962
 2934TIP3    H1 8808   5.103   5.558   2.319 -1.3855 -1.3213 -0.2403
 2934TIP3    H2 8809   5.222   5.473   2.280 -0.9744 -0.6147 -0.5542
 2935TIP3   OH2 8810   1.289   5.920   1.429 -0.0943  0.1608 -0.1575
 2935TIP3    H1 8811   1.371   5.881   1.398 -1.7778 -1.8806 -2.3843
 2935TIP3    H2 8812   1.289   6.008   1.392  0.9653  0.0795 -0.3770
 2936TIP3   OH2 8813   1.878   1.007   3.421 -0.2151 -0.4150  0.0596
 2936TIP3    H1 8814   1.786   1.027   3.406 -0.3011 -1.5935 -1.1812
 2936TIP3    H2 8815   1.893   1.031   3.513 -1.3843  1.0506 -0.1007
 2937TIP3   OH2 8816   0.751   4.568   2.365  0.1201 -0.5469  0.2376
 2937TIP3    H1 8817   0.824   4.508   2.379  0.4305 -1.0903 -3.0559
 2937TIP3    H2 8818   0.792   4.651   2.343 -0.3345  0.2630  2.1907
 2938TIP3   OH2 8819   4.790   1.903   4.408  0.1045 -0.2737  0.5969
 2938TIP3    H1 8820   4.757   1.990   4.384 -0.3527  0.0331  2.2190
 2938TIP3    H2 8821   4.857   1.920   4.474  0.7732 -1.1194  0.1594
 2939TIP3   OH2 8822   1.551   2.523   2.699 -0.3497 -0.7193  0.3623
 2939TIP3    H1 8823   1.479   2.567   2.743  0.3772 -0.5403  1.4282
 2939TIP3    H2 8824   1.587   2.464   2.766  0.1988 -1.1496 -0.2923
 2940TIP3   OH2 8825   6.236   4.882   2.156 -0.2779 -0.1544  0.3512
 2940TIP3    H1 8826   6.163   4.851   2.209  0.8542 -0.8622  1.5356
 2940TIP3    H2 8827   6.314   4.852   2.202  0.7897  1.1805 -0.5203
 2941TIP3   OH2 8828   2.753   4.295   1.636 -0.4702 -0.4910 -0.1399
 2941TIP3    H1 8829   2.805   4.374   1.655 -0.7080 -0.1169 -1.0024
 2941TIP3    H2 8830   2.774   4.273   1.545 -1.3472 -0.6919 -0.3059
 2942TIP3   OH2 8831   3.390   0.476   4.860  0.2710 -0.1000 -0.5168
 2942TIP3    H1 8832   3.403   0.551   4.803  0.2422 -0.4101 -0.9359
 2942TIP3    H2 8833   3.399   0.511   4.948 -2.6869  1.0193 -0.5354
 2943TIP3   OH2 8834   2.129   1.812   0.012 -0.0699 -0.1604  0.1146
 2943TIP3    H1 8835   2.148   1.775   0.098 -0.6099 -1.1666 -0.1839
 2943TIP3    H2 8836   2.039   1.845   0.019  0.0249  0.1096  0.0576
 2944TIP3   OH2 8837   4.265   5.331   0.210  0.5081  0.0508  0.4176
 2944TIP3    H1 8838   4.208   5.360   0.139  0.8167 -0.4277 -0.0244
 2944TIP3    H2 8839   4.215   5.351   0.289  0.7799  1.9968  0.1543
 2945TIP3   OH2 8840   3.313   3.993   3.185  0.3917  0.0242 -0.8152
 2945TIP3    H1 8841   3.286   3.945   3.263  1.7106 -1.3521 -1.1614
 2945TIP3    H2 8842   3.321   4.083   3.214 -1.0192 -0.1152  0.1426
 2946TIP3   OH2 8843   3.733   0.484   2.146  1.3146  0.3402  0.5150
 2946TIP3    H1 8844   3.722   0.482   2.051 -1.5232 -0.4643  0.7640
 2946TIP3    H2 8845   3.796   0.415   2.165  2.1393  0.7015 -0.7669
 2947TIP3   OH2 8846   2.088   4.517   0.011 -0.2290 -0.2928  0.2157
 2947TIP3    H1 8847   2.065   4.445   0.070  1.2124  1.5335  3.2711
 2947TIP3    H2 8848   2.184   4.519   0.012 -0.1712  0.0847 -1.9223
 2948TIP3   OH2 8849   4.307   5.662   4.364  0.2435  0.0462 -0.4039
 2948TIP3    H1 8850   4.341   5.641   4.277  0.1045 -2.4016  0.0591
 2948TIP3    H2 8851   4.372   5.722   4.401  0.3964  0.9805 -2.1081
 2949TIP3   OH2 8852  -0.006   1.882   4.042  1.2816 -0.0673  0.1711
 2949TIP3    H1 8853   0.055   1.808   4.040  1.8970  0.4369 -0.1130
 2949TIP3    H2 8854   0.002   1.916   4.132 -1.3347 -2.2148  1.3680
 2950TIP3   OH2 8855   1.920   1.101   2.711  0.3444 -0.4692 -0.3101
 2950TIP3    H1 8856   1.891   1.066   2.627  1.0643 -0.8422 -0.4140
 2950TIP3    H2 8857   1.967   1.181   2.688  0.4959 -0.5431 -0.2556
 2951TIP3   OH2 8858   2.850   3.485   4.262  0.0536 -0.1662  0.0142
 2951TIP3    H1 8859   2.927   3.443   4.225  0.2264 -1.3153  1.5867
 2951TIP3    H2 8860   2.836   3.562   4.207  2.1115 -0.1175 -0.5239
 2952TIP3   OH2 8861   6.009   1.100   4.148 -0.4714  0.2164 -0.0729
 2952TIP3    H1 8862   5.990   1.159   4.076 -0.0082  0.8172  0.2823
 2952TIP3    H2 8863   5.980   1.148   4.226 -0.3680 -0.1498  0.1932
 2953TIP3   OH2 8864   3.335   1.056   3.028 -0.1767 -0.3391 -0.4409
 2953TIP3    H1 8865   3.254   1.107   3.021  0.2211  0.4475  0.4528
 2953TIP3    H2 8866   3.377   1.089   3.107  1.1667 -0.5336 -1.0459
 2954TIP3   OH2 8867   5.197   5.730   2.750  0.4607  0.1447  0.4171
 2954TIP3    H1 8868   5.196   5.645   2.795  0.1815  0.6010  1.2828
 2954TIP3    H2 8869   5.248   5.713   2.671  0.3653 -0.8488  0.5456
 2955TIP3   OH2 8870   3.164   5.658   5.026  0.2130  0.4770 -0.1207
 2955TIP3    H1 8871   3.102   5.672   5.097 -2.5953  0.1321 -2.3113
 2955TIP3    H2 8872   3.182   5.745   4.992 -1.0404  0.4411 -0.9538
 2956TIP3   OH2 8873   2.499   2.201   0.233 -0.0263  0.1944  0.2438
 2956TIP3    H1 8874   2.451   2.130   0.277  2.0021 -0.1251  2.1580
 2956TIP3    H2 8875   2.435   2.242   0.176 -1.9653 -1.5291  1.0561
 2957TIP3   OH2 8876   4.739   5.476   4.226  0.3515 -0.1239  0.0743
 2957TIP3    H1 8877   4.821   5.467   4.176 -0.2884 -0.4829 -0.9494
 2957TIP3    H2 8878   4.753   5.551   4.282  1.8679 -0.9484  0.8697
 2958TIP3   OH2 8879   5.770   2.214   1.194  0.1661  0.2828 -0.3297
 2958TIP3    H1 8880   5.675   2.224   1.187 -0.1798 -1.6441  0.7167
 2958TIP3    H2 8881   5.799   2.293   1.240 -0.9018  0.9842 -0.8299
 2959TIP3   OH2 8882   1.366   0.775   1.330  0.1628 -0.1568  0.7176
 2959TIP3    H1 8883   1.419   0.714   1.380 -0.8938 -0.6983  1.1938
 2959TIP3    H2 8884   1.429   0.841   1.299  1.3405 -1.4932  0.1243
 2960TIP3   OH2 8885   5.705   4.435   4.261 -0.0052 -0.0130  0.0805
 2960TIP3    H1 8886   5.665   4.354   4.294 -0.8717 -1.0142 -3.0605
 2960TIP3    H2 8887   5.711   4.421   4.166  2.5421  2.4657 -0.2502
 2961TIP3   OH2 8888   3.458   4.571   4.921 -0.3123  0.2313  0.6170
 2961TIP3    H1 8889   3.385   4.534   4.871 -0.0368 -1.0227  1.1097
 2961TIP3    H2 8890   3.447   4.536   5.010  2.7786 -2.9076 -0.0292
 2962TIP3   OH2 8891   1.310   5.019   1.591  0.1721  0.1399  0.3653
 2962TIP3    H1 8892   1.216   5.007   1.607  0.4177 -0.8676  1.1782
 2962TIP3    H2 8893   1.318   5.109   1.560 -0.9503  0.5861  1.3095
 2963TIP3   OH2 8894   5.855   4.091   3.458 -0.1291 -0.8539  0.5321
 2963TIP3    H1 8895   5.944   4.056   3.461 -0.1307 -0.8927  0.0783
 2963TIP3    H2 8896   5.799   4.015   3.470 -0.1183 -0.9274  0.1193
 2964TIP3   OH2 8897   3.037   0.221   3.529  0.1293 -0.1571 -0.3588
 2964TIP3    H1 8898   3.020   0.177   3.446  1.8064 -2.2461  0.3338
 2964TIP3    H2 8899   3.131   0.211   3.544  0.0803  1.2222  1.2363
 2965TIP3   OH2 8900   0.789   4.954   2.903 -0.0030  0.2168 -0.1510
 2965TIP3    H1 8901   0.715   4.970   2.961  0.3481 -1.2515  0.7430
 2965TIP3    H2 8902   0.752   4.964   2.815 -0.5430  2.4556  0.2504
 2966TIP3   OH2 8903   4.054   5.427   0.024  0.6375  0.3174  0.6259
 2966TIP3    H1 8904   4.048   5.507  -0.028  0.3242  0.5023  0.9507
 2966TIP3    H2 8905   3.964   5.398   0.035  0.5759  1.0464  2.2825
 2967TIP3   OH2 8906   0.900   5.632   0.859  0.0263  0.1973  0.5749
 2967TIP3    H1 8907   0.938   5.588   0.935  0.2829 -0.2594  0.1920
 2967TIP3    H2 8908   0.808   5.605   0.859 -0.2685  1.1483  1.3908
 2968TIP3   OH2 8909   5.398   2.424   3.898 -0.2001  0.4923  0.3256
 2968TIP3    H1 8910   5.355   2.510   3.903 -2.6640 -0.5223 -1.4155
 2968TIP3    H2 8911   5.488   2.441   3.926 -0.2174  3.8957 -1.1604
 2969TIP3   OH2 8912   5.119   4.477   1.845 -0.8153  0.0909  0.3410
 2969TIP3    H1 8913   5.120   4.509   1.935 -1.9443 -0.7665  0.6803
 2969TIP3    H2 8914   5.179   4.402   1.845  1.4669  1.8026 -0.3463
 2970TIP3   OH2 8915   5.042   1.712   4.918  0.1632 -0.7254  0.4658
 2970TIP3    H1 8916   5.128   1.725   4.958  1.2931 -0.4250 -1.8860
 2970TIP3    H2 8917   4.999   1.646   4.973  1.4455 -0.1202  2.2916
 2971TIP3   OH2 8918   4.154   3.484   0.442 -0.0970  0.5138 -0.3863
 2971TIP3    H1 8919   4.226   3.512   0.386 -0.4713  2.0977 -0.1205
 2971TIP3    H2 8920   4.114   3.411   0.394  2.8282 -1.7879  0.3725
 2972TIP3   OH2 8921   5.048   3.007   1.412 -0.1822  0.1359  0.6614
 2972TIP3    H1 8922   4.985   2.965   1.472 -2.8698  0.4259 -1.7319
 2972TIP3    H2 8923   5.077   2.936   1.355  0.2234  0.3751  0.5675
 2973TIP3   OH2 8924   5.318   5.743   4.628  0.6962  0.0306 -0.2558
 2973TIP3    H1 8925   5.355   5.658   4.605  2.1233  0.6651 -0.3872
 2973TIP3    H2 8926   5.339   5.799   4.554 -1.5344  0.1771 -0.8633
 2974TIP3   OH2 8927   0.243   4.971   4.029  0.5436 -0.2291 -0.3647
 2974TIP3    H1 8928   0.193   4.936   3.956 -0.3079 -0.1720  0.1738
 2974TIP3    H2 8929   0.326   4.924   4.027  0.9722  0.5293 -1.9971
 2975TIP3   OH2 8930   5.531   4.818   0.464 -0.5692 -0.3248  0.1909
 2975TIP3    H1 8931   5.449   4.806   0.415 -1.1856  1.9615  0.5548
 2975TIP3    H2 8932   5.597   4.833   0.397 -0.8149 -0.2997 -0.0482
 2976TIP3   OH2 8933   5.644   5.696   1.523 -0.5634 -0.1236  0.1730
 2976TIP3    H1 8934   5.636   5.697   1.427  1.4307  1.8010 -0.0699
 2976TIP3    H2 8935   5.661   5.604   1.545 -0.5068 -0.5156 -1.3957
 2977TIP3   OH2 8936   4.177   2.768   1.951  0.4678 -0.0867  0.2791
 2977TIP3    H1 8937   4.142   2.679   1.944 -2.4372  1.0400 -2.0324
 2977TIP3    H2 8938   4.131   2.806   2.026  1.3498 -0.3600  0.9714
 2978TIP3   OH2 8939   0.488   4.930   0.152  0.3882 -0.0039 -0.3946
 2978TIP3    H1 8940   0.550   4.994   0.187  1.2969 -1.9146  1.7720
 2978TIP3    H2 8941   0.412   4.982   0.127  1.5954  2.0608 -0.0660
 2979TIP3   OH2 8942   6.108   3.257   3.462  0.2682  0.4569  0.4449
 2979TIP3    H1 8943   6.117   3.224   3.373 -1.8921 -0.4023  0.4882
 2979TIP3    H2 8944   6.115   3.352   3.453  0.0031  0.3854 -0.6558
 2980TIP3   OH2 8945   4.683   4.411   2.821  0.2119  0.3014  0.6225
 2980TIP3    H1 8946   4.698   4.489   2.767 -2.9891  0.8663  0.3884
 2980TIP3    H2 8947   4.686   4.444   2.911 -0.5628  0.6099  0.5430
 2981TIP3   OH2 8948   4.961   4.359   4.757 -0.0529 -0.7330  0.1611
 2981TIP3    H1 8949   4.960   4.455   4.760  0.3133 -0.7377  0.5035
 2981TIP3    H2 8950   5.004   4.338   4.674 -1.4940 -0.6071 -0.6501
 2982TIP3   OH2 8951   0.545   0.075   2.222  0.2731 -0.0108 -0.0718
 2982TIP3    H1 8952   0.540  -0.015   2.191 -1.0906  0.3781 -1.0321
 2982TIP3    H2 8953   0.558   0.127   2.143  0.8775  0.6678  0.4562
 2983TIP3   OH2 8954   3.229   4.288   4.335 -0.7846  0.4109 -0.2405
 2983TIP3    H1 8955   3.314   4.313   4.300 -0.8357  1.1502  0.1420
 2983TIP3    H2 8956   3.188   4.237   4.265  0.4256 -0.9614 -0.0018
 2984TIP3   OH2 8957   2.418   5.505   4.576  0.1024 -0.5110  0.2913
 2984TIP3    H1 8958   2.407   5.530   4.484  3.9609  1.6732  0.1912
 2984TIP3    H2 8959   2.434   5.588   4.621 -0.1606 -1.6712  2.6754
 2985TIP3   OH2 8960   2.641   1.008   4.309  0.1003 -0.0143  0.1215
 2985TIP3    H1 8961   2.729   1.038   4.286  0.9241 -0.8039  2.0206
 2985TIP3    H2 8962   2.606   0.970   4.228  0.7901  1.8589 -1.1224
 2986TIP3   OH2 8963   4.932   2.356   0.284  0.1719 -0.0212 -0.0387
 2986TIP3    H1 8964   4.955   2.309   0.204 -0.7483 -0.1172 -0.2606
 2986TIP3    H2 8965   5.014   2.395   0.313  0.9206 -1.5858  0.0423
 2987TIP3   OH2 8966   0.215   2.003   0.878 -0.0499  0.2693  0.8008
 2987TIP3    H1 8967   0.145   2.050   0.923 -0.7130  0.7522 -0.6774
 2987TIP3    H2 8968   0.295   2.034   0.919 -0.3608  3.5086 -0.7228
 2988TIP3   OH2 8969   5.040   1.134   2.888 -0.8227  0.1615  0.0720
 2988TIP3    H1 8970   5.132   1.147   2.866 -0.6493  3.6436  2.2194
 2988TIP3    H2 8971   5.041   1.092   2.974 -1.2884 -0.6055 -0.2836
 2989TIP3   OH2 8972   4.432   2.886   3.338 -0.6181 -0.4850  0.4910
 2989TIP3    H1 8973   4.361   2.841   3.293  0.8366 -2.1280 -0.2974
 2989TIP3    H2 8974   4.457   2.827   3.409 -1.7523  1.3017  2.4750
 2990TIP3   OH2 8975   1.070   0.165   3.566  0.0823 -0.2193  0.8405
 2990TIP3    H1 8976   1.161   0.185   3.589  0.3975  0.8327 -1.0798
 2990TIP3    H2 8977   1.059   0.202   3.478 -2.6217  0.9406  1.5609
 2991TIP3   OH2 8978   2.497   4.351   3.526  0.5812 -0.4254 -0.4747
 2991TIP3    H1 8979   2.509   4.332   3.619  1.6661 -1.2963 -0.7683
 2991TIP3    H2 8980   2.459   4.271   3.490 -0.9084  0.3174 -0.5885
 2992TIP3   OH2 8981   5.984   2.529   0.091  0.1641  0.4573  0.1424
 2992TIP3    H1 8982   5.926   2.573   0.154 -0.5907  0.6543 -0.6680
 2992TIP3    H2 8983   5.972   2.436   0.109  1.7256  0.5179  1.8289
 2993TIP3   OH2 8984   4.802   5.043   2.403  0.0375  0.3736 -0.0953
 2993TIP3    H1 8985   4.853   4.962   2.410  0.9045  0.7697 -1.4866
 2993TIP3    H2 8986   4.845   5.102   2.465  0.8592  0.4853 -0.7580
 2994TIP3   OH2 8987   5.442   1.929   4.024 -0.4682  0.2891 -0.3114
 2994TIP3    H1 8988   5.505   1.968   3.963 -0.0946  0.7053  0.3390
 2994TIP3    H2 8989   5.496   1.898   4.097 -0.9420  0.0034 -0.0803
 2995TIP3   OH2 8990   1.580   3.671   3.532  0.0020  0.0985  0.1622
 2995TIP3    H1 8991   1.631   3.741   3.491  1.0980 -0.0469  1.2147
 2995TIP3    H2 8992   1.590   3.685   3.626  1.7898 -2.4706  0.4679
 2996TIP3   OH2 8993   2.991   3.592   2.288  0.4630 -0.0629  0.1035
 2996TIP3    H1 8994   2.963   3.683   2.282 -1.2812 -0.6598 -4.0240
 2996TIP3    H2 8995   3.071   3.588   2.235 -0.6401 -1.2070 -1.5830
 2997TIP3   OH2 8996   5.767   5.187   0.910  0.2498  0.2215 -0.5736
 2997TIP3    H1 8997   5.673   5.169   0.915  0.3103  0.2921  1.3984
 2997TIP3    H2 8998   5.780   5.262   0.968  1.7455 -0.7530  0.3827
 2998TIP3   OH2 8999   0.513   5.369   1.349 -0.3675  0.3033 -0.1286
 2998TIP3    H1 9000   0.541   5.286   1.311  0.5224  0.9157 -0.8435
 2998TIP3    H2 9001   0.585   5.430   1.330 -1.9320  1.8025 -1.5695
 2999TIP3   OH2 9002   1.061   0.260   2.297  0.1337 -0.6253  0.2483
 2999TIP3    H1 9003   1.029   0.350   2.306 -0.6273 -0.8480 -0.1374
 2999TIP3    H2 9004   1.156   0.268   2.300  0.0743  0.2084  0.0874
 3000TIP3   OH2 9005   0.443   1.681   0.651 -0.0415 -0.2843 -0.7925
 3000TIP3    H1 9006   0.360   1.671   0.604  1.1469 -1.7031 -2.7837
 3000TIP3    H2 9007   0.444   1.772   0.680 -2.4027 -0.3252 -0.4342
 3001TIP3   OH2 9008   2.744   2.261   3.279  0.7330 -0.2659  0.0917
 3001TIP3    H1 9009   2.743   2.349   3.317 -2.5767 -0.4247  0.6276
 3001TIP3    H2 9010   2.710   2.272   3.191  2.1412 -0.8175 -0.5557
 3002TIP3   OH2 9011   0.999   3.061   4.132  0.0456 -0.3491  0.3916
 3002TIP3    H1 9012   0.934   3.131   4.132  0.5603  0.1330  0.2295
 3002TIP3    H2 9013   1.021   3.048   4.040 -0.8602 -1.5009  0.3136
 3003TIP3   OH2 9014   2.922   3.208   0.471 -0.0593 -0.1048  0.5255
 3003TIP3    H1 9015   2.985   3.279   0.473  0.6100 -0.6608 -0.2927
 3003TIP3    H2 9016   2.914   3.185   0.379 -0.1962 -1.1455  0.7823
 3004TIP3   OH2 9017   5.568   1.999   0.413  0.8154  0.1727  0.1173
 3004TIP3    H1 9018   5.489   1.980   0.363  0.6580 -0.7689  0.6955
 3004TIP3    H2 9019   5.620   2.056   0.356  0.1297  0.0653 -0.6273
 3005TIP3   OH2 9020   5.580   2.209   2.263  0.4106  0.2210  0.0292
 3005TIP3    H1 9021   5.636   2.194   2.340  2.6981  1.1878 -1.3527
 3005TIP3    H2 9022   5.629   2.172   2.190 -1.5006 -0.2548 -1.0801
 3006TIP3   OH2 9023   3.759   0.388   2.772  0.2172  0.1089  0.3760
 3006TIP3    H1 9024   3.668   0.401   2.799 -0.6951 -1.7476 -1.5809
 3006TIP3    H2 9025   3.786   0.474   2.739 -0.9714  0.5738  0.5532
 3007TIP3   OH2 9026   0.613   4.444   0.201 -0.5512 -0.0958 -0.1945
 3007TIP3    H1 9027   0.597   4.435   0.107  0.5453 -1.5923 -0.2726
 3007TIP3    H2 9028   0.687   4.387   0.218 -0.5947  0.3246  1.5578
 3008TIP3   OH2 9029   0.933   4.509   1.558  0.1631  0.4115  0.2229
 3008TIP3    H1 9030   1.024   4.478   1.551 -0.1685 -0.4860 -0.2945
 3008TIP3    H2 9031   0.884   4.450   1.500 -0.8140  0.6165  0.8360
 3009TIP3   OH2 9032   1.372   2.607   1.721 -0.0921  0.2934 -0.3146
 3009TIP3    H1 9033   1.379   2.601   1.816 -1.3357  1.9561 -0.0763
 3009TIP3    H2 9034   1.332   2.692   1.705  1.2185  0.5975 -2.4001
 3010TIP3   OH2 9035   5.957   2.083   3.654 -0.0940  0.8220 -0.2934
 3010TIP3    H1 9036   6.047   2.110   3.638  0.3732  0.2235  1.1448
 3010TIP3    H2 9037   5.932   2.130   3.734 -0.3865 -0.4423  0.3860
 3011TIP3   OH2 9038   4.096   2.876   3.819 -0.2833 -0.2525 -0.1986
 3011TIP3    H1 9039   4.029   2.813   3.793 -0.3114  0.1438 -1.1352
 3011TIP3    H2 9040   4.152   2.884   3.742 -0.0055  0.5113  0.0740
 3012TIP3   OH2 9041   5.314   1.765   0.481 -0.4563 -0.1055 -1.4128
 3012TIP3    H1 9042   5.398   1.742   0.519 -1.8192  0.8447  2.6209
 3012TIP3    H2 9043   5.329   1.849   0.438  0.5912  0.2324 -0.4260
 3013TIP3   OH2 9044   4.784   4.264   3.213 -0.2325 -0.2077 -0.1094
 3013TIP3    H1 9045   4.854   4.230   3.158 -1.0786  0.7065 -1.8420
 3013TIP3    H2 9046   4.771   4.197   3.280  2.9820  0.0890  0.9734
 3014TIP3   OH2 9047   5.267   3.847   3.660  0.2011 -0.1985  0.0994
 3014TIP3    H1 9048   5.313   3.835   3.578  0.3370  0.0768  0.1343
 3014TIP3    H2 9049   5.243   3.759   3.687 -1.4526 -0.1727 -1.1411
 3015TIP3   OH2 9050   0.358   3.526   3.210  0.1673  0.2461 -0.2339
 3015TIP3    H1 9051   0.409   3.486   3.280  1.0700  0.2954 -0.8468
 3015TIP3    H2 9052   0.342   3.616   3.240 -1.4137 -0.3550  0.9063
 3016TIP3   OH2 9053   2.540   2.890   3.844  0.0638  0.5654  0.2939
 3016TIP3    H1 9054   2.457   2.862   3.882  0.3453 -0.1848  0.3681
 3016TIP3    H2 9055   2.603   2.822   3.868  0.8384  1.3970  0.7172
 3017TIP3   OH2 9056   0.614   0.780   4.812 -0.0017 -0.3031  0.2405
 3017TIP3    H1 9057   0.710   0.776   4.804  0.0009 -0.3498  0.2984
 3017TIP3    H2 9058   0.587   0.835   4.738  0.1520  0.5935  0.8284
 3018TIP3   OH2 9059   4.622   2.588   3.270  0.1983  0.1111 -0.4592
 3018TIP3    H1 9060   4.637   2.501   3.307  3.2082  0.3605 -0.8425
 3018TIP3    H2 9061   4.671   2.647   3.327 -0.1548  1.3056 -1.3469
 3019TIP3   OH2 9062   0.406   0.873   3.947 -0.3752 -0.1316  0.2696
 3019TIP3    H1 9063   0.394   0.786   3.909  2.4778 -0.8061  0.6751
 3019TIP3    H2 9064   0.428   0.929   3.872 -2.3533  0.3364 -0.0116
 3020TIP3   OH2 9065   3.063   1.938   3.177 -0.0332  0.1570 -0.4313
 3020TIP3    H1 9066   3.082   2.005   3.243  0.7414  1.0909 -1.5590
 3020TIP3    H2 9067   3.149   1.901   3.156 -0.2089  0.2094 -1.2610
 3021TIP3   OH2 9068   0.345   5.166   3.136  0.1723 -0.2823 -0.4007
 3021TIP3    H1 9069   0.255   5.190   3.114 -0.3789 -0.2179  1.6640
 3021TIP3    H2 9070   0.387   5.250   3.157 -0.1359 -0.5127  1.3333
 3022TIP3   OH2 9071   2.216   0.116   0.746 -0.1043 -0.1836 -0.1730
 3022TIP3    H1 9072   2.254   0.203   0.755 -0.0800 -0.2391  0.2674
 3022TIP3    H2 9073   2.135   0.120   0.797  1.1476 -1.1856  1.9988
 3023TIP3   OH2 9074   4.311   4.468   1.841 -0.3238 -0.4444  0.2028
 3023TIP3    H1 9075   4.393   4.421   1.853  1.5521  1.9184 -1.9744
 3023TIP3    H2 9076   4.325   4.553   1.884 -1.4792  0.1390 -0.5006
 3024TIP3   OH2 9077   3.021   0.077   0.718 -0.1937 -0.2365 -0.3905
 3024TIP3    H1 9078   2.940   0.044   0.758  0.6725 -1.1653  0.6279
 3024TIP3    H2 9079   3.072  -0.002   0.700  0.8364  0.3959 -0.2791
 3025TIP3   OH2 9080   0.627   1.917   3.608  0.2673 -1.3381  0.1654
 3025TIP3    H1 9081   0.591   1.922   3.520  2.1809  0.4129 -0.5962
 3025TIP3    H2 9082   0.561   1.961   3.663 -0.1516 -0.9051 -0.6643
 3026TIP3   OH2 9083   1.402   0.271   1.907  0.3210  0.1290  0.3902
 3026TIP3    H1 9084   1.432   0.181   1.919 -1.1032 -0.2909  1.0565
 3026TIP3    H2 9085   1.389   0.279   1.812  1.5025  0.0073  0.2038
 3027TIP3   OH2 9086   5.032   4.032   3.622 -0.1754 -0.4100 -0.0240
 3027TIP3    H1 9087   5.079   3.952   3.647 -1.7888 -1.7632 -1.0380
 3027TIP3    H2 9088   5.084   4.070   3.552  1.4512  0.3622  1.5268
 3028TIP3   OH2 9089   0.818   1.151   2.692 -0.2118  0.3731  0.3157
 3028TIP3    H1 9090   0.723   1.163   2.686 -0.8072 -3.5215 -1.7868
 3028TIP3    H2 9091   0.829   1.081   2.756  0.7339 -1.9820 -2.2464
 3029TIP3   OH2 9092   4.538   4.969   2.618 -0.0711 -0.2852  1.0341
 3029TIP3    H1 9093   4.451   4.985   2.582  1.1233  0.3815 -1.8247
 3029TIP3    H2 9094   4.583   4.918   2.550  1.9626 -0.1279  2.1829
 3030TIP3   OH2 9095   2.739   1.868   1.443  0.4629  0.1052  0.1513
 3030TIP3    H1 9096   2.680   1.839   1.512  1.4678 -0.4055  0.8283
 3030TIP3    H2 9097   2.762   1.788   1.396  1.1003  0.1947  0.2954
 3031TIP3   OH2 9098   4.707   5.787   1.868  0.8748  0.0212 -0.0663
 3031TIP3    H1 9099   4.767   5.786   1.943  3.6312 -0.9423 -2.0829
 3031TIP3    H2 9100   4.689   5.880   1.853  2.0250  0.3646  0.5424
 3032TIP3   OH2 9101   6.130   5.407   3.122 -0.0447  0.0376 -0.3062
 3032TIP3    H1 9102   6.182   5.425   3.044  1.0967  0.2897  0.4861
 3032TIP3    H2 9103   6.043   5.385   3.088  0.6783 -0.8583 -1.6897
 3033TIP3   OH2 9104   3.304   1.331   4.802 -0.1348  0.6582 -0.6724
 3033TIP3    H1 9105   3.231   1.358   4.858 -1.3578 -1.6226 -1.0497
 3033TIP3    H2 9106   3.265   1.315   4.716  0.9959  0.3994 -1.1616
 3034TIP3   OH2 9107   1.624   5.891   1.041  0.3787 -0.1048  0.1358
 3034TIP3    H1 9108   1.588   5.821   0.986 -2.9037  0.7402  0.9768
 3034TIP3    H2 9109   1.649   5.960   0.980 -1.4092  0.0585 -0.4593
 3035TIP3   OH2 9110   1.383   5.330   0.069  0.1361  0.3020 -0.0006
 3035TIP3    H1 9111   1.419   5.417   0.048 -0.1782  0.3891 -0.1962
 3035TIP3    H2 9112   1.296   5.349   0.104 -0.0020  0.0590 -0.2079
 3036TIP3   OH2 9113   3.055   2.195   2.945 -0.3721 -0.9734  0.1198
 3036TIP3    H1 9114   3.085   2.198   2.854  0.2685 -3.3207  0.1767
 3036TIP3    H2 9115   3.113   2.133   2.988 -0.1677  0.6406  2.3810
 3037TIP3   OH2 9116   5.911   0.636   1.401  0.6192  0.0778 -0.1788
 3037TIP3    H1 9117   5.886   0.602   1.487 -2.1478 -0.5197 -1.0990
 3037TIP3    H2 9118   5.983   0.580   1.373  1.5894  0.2905  1.7009
 3038TIP3   OH2 9119   0.498   1.697   2.697  0.4528 -0.1092 -0.2929
 3038TIP3    H1 9120   0.525   1.783   2.727 -2.0090  0.5192  0.3120
 3038TIP3    H2 9121   0.505   1.641   2.774 -0.4215  0.1738  0.0000
 3039TIP3   OH2 9122   2.971   4.875   4.388  0.4650 -0.2354  0.5233
 3039TIP3    H1 9123   2.886   4.916   4.375  1.0170  0.2727 -2.1552
 3039TIP3    H2 9124   2.951   4.783   4.407 -0.6751 -0.0358  0.3646
 3040TIP3   OH2 9125   2.497   3.479   1.597  0.3909  0.2140  0.4357
 3040TIP3    H1 9126   2.521   3.431   1.676 -0.2086 -1.9338 -0.6167
 3040TIP3    H2 9127   2.406   3.506   1.612  0.2711 -0.2057  0.4771
 3041TIP3   OH2 9128   4.044   2.948   1.162  0.1296  0.1113 -0.4596
 3041TIP3    H1 9129   4.045   3.032   1.208  0.2364  0.4114 -0.9972
 3041TIP3    H2 9130   4.028   2.883   1.230  0.4724  0.5294  0.0238
 3042TIP3   OH2 9131   4.913   4.757   0.732 -0.4459 -0.0157 -0.0966
 3042TIP3    H1 9132   4.852   4.689   0.759 -1.4383  0.8802 -0.0012
 3042TIP3    H2 9133   4.896   4.768   0.638 -1.4388  1.1826  0.1950
 3043TIP3   OH2 9134   4.356   0.831   4.116 -0.2359 -0.1362  0.2797
 3043TIP3    H1 9135   4.346   0.737   4.105  0.3473 -0.2439  0.6829
 3043TIP3    H2 9136   4.450   0.846   4.118 -0.2420  0.8075 -2.7121
 3044TIP3   OH2 9137   1.130   0.179   1.835  0.9709  0.2858  0.1424
 3044TIP3    H1 9138   1.106   0.271   1.839  1.5153  0.5519 -1.6548
 3044TIP3    H2 9139   1.056   0.137   1.791  0.4711 -0.2598  1.4608
 3045TIP3   OH2 9140  -0.016   1.933   3.756  0.9155 -0.0494  0.1652
 3045TIP3    H1 9141   0.055   1.994   3.736 -1.4488  2.4109 -1.4044
 3045TIP3    H2 9142  -0.018   1.930   3.852  3.6140 -0.9437  0.2894
 3046TIP3   OH2 9143   5.876   0.857   2.157  0.1952 -0.3566  0.1170
 3046TIP3    H1 9144   5.807   0.924   2.160 -0.3494 -0.9458  1.0220
 3046TIP3    H2 9145   5.859   0.801   2.233  1.1556 -1.0267 -0.1449
 3047TIP3   OH2 9146   4.593   3.675   3.827 -0.4127  0.1735  0.8151
 3047TIP3    H1 9147   4.539   3.754   3.835 -2.8919 -1.4059  0.9649
 3047TIP3    H2 9148   4.541   3.607   3.871  0.9276 -1.8529 -0.5673
 3048TIP3   OH2 9149   5.321   1.289   2.430 -0.0845  0.5274  0.5341
 3048TIP3    H1 9150   5.301   1.196   2.443 -0.0334  0.5572  0.8243
 3048TIP3    H2 9151   5.297   1.331   2.512  0.3917  0.6868  0.5979
 3049TIP3   OH2 9152   4.912   1.798   2.078 -0.0748  0.9216  0.1782
 3049TIP3    H1 9153   4.938   1.732   2.141 -0.8781  1.1888  0.8117
 3049TIP3    H2 9154   4.990   1.853   2.067 -0.2116  1.5106  1.7749
 3050TIP3   OH2 9155   0.720   4.966   4.099  0.3402  0.4583  0.4309
 3050TIP3    H1 9156   0.728   4.999   4.188  0.0420 -1.8654  1.3845
 3050TIP3    H2 9157   0.810   4.946   4.072  0.3128 -0.1816  0.7863
 3051TIP3   OH2 9158   4.719   1.368   5.142 -0.1773 -0.1426  0.5795
 3051TIP3    H1 9159   4.654   1.379   5.211 -0.1559 -0.4290  0.6482
 3051TIP3    H2 9160   4.672   1.321   5.072  0.0201 -0.5787  0.7324
 3052TIP3   OH2 9161   3.337   1.882   4.325 -0.3528 -0.3568 -0.1959
 3052TIP3    H1 9162   3.365   1.946   4.391 -0.5389  1.1498 -1.5127
 3052TIP3    H2 9163   3.418   1.855   4.282 -0.4774  0.7103 -1.1234
 3053TIP3   OH2 9164   1.814   2.657   2.455  0.6292 -0.2302 -0.9596
 3053TIP3    H1 9165   1.866   2.677   2.534  0.1306  1.7156 -1.0618
 3053TIP3    H2 9166   1.879   2.649   2.386  0.8925  3.1413 -1.2763
 3054TIP3   OH2 9167   2.310   5.175   3.588 -0.0377  0.1584  0.6026
 3054TIP3    H1 9168   2.270   5.255   3.623 -0.8992  0.7124 -1.5202
 3054TIP3    H2 9169   2.238   5.113   3.580  0.2152 -0.0888  0.1923
 3055TIP3   OH2 9170   5.156   4.428   0.641  0.3345 -0.1600 -0.2385
 3055TIP3    H1 9171   5.145   4.336   0.663 -1.9443  0.8048  3.5225
 3055TIP3    H2 9172   5.092   4.444   0.572 -0.3695 -1.0790  0.1893
 3056TIP3   OH2 9173   0.326   2.989   0.833  0.0591  0.3905  0.6921
 3056TIP3    H1 9174   0.307   2.901   0.867 -0.9639  0.0518 -0.6816
 3056TIP3    H2 9175   0.413   2.980   0.794  0.6980  0.4585  2.0459
 3057TIP3   OH2 9176   2.109   0.076   3.860  0.1610  0.1990  0.0398
 3057TIP3    H1 9177   2.151   0.004   3.814 -0.0448 -0.0853  0.3000
 3057TIP3    H2 9178   2.086   0.138   3.791 -0.7326 -0.5187 -0.3226
 3058TIP3   OH2 9179   3.237   3.374   0.243 -0.0203  0.2828  0.8782
 3058TIP3    H1 9180   3.314   3.409   0.287  0.2802 -0.4909  0.9949
 3058TIP3    H2 9181   3.269   3.294   0.201 -0.9817 -0.5793  1.7439
 3059TIP3   OH2 9182   5.041   5.089   2.210  0.1275  0.0125 -0.4360
 3059TIP3    H1 9183   5.129   5.065   2.181  0.0679 -2.3917  1.0366
 3059TIP3    H2 9184   5.030   5.042   2.293 -1.9012  1.6670  0.3127
 3060TIP3   OH2 9185   1.870   3.922   3.701  0.2282 -0.1121  0.1600
 3060TIP3    H1 9186   1.826   3.982   3.641  0.8410 -0.7640 -0.9777
 3060TIP3    H2 9187   1.963   3.943   3.692  0.4589 -1.2652 -0.3109
 3061TIP3   OH2 9188   2.839   0.063   1.235 -0.2698  0.4366  0.1562
 3061TIP3    H1 9189   2.763   0.015   1.269 -0.2546  0.3214  0.0275
 3061TIP3    H2 9190   2.882   0.097   1.313  0.0589 -0.2661  0.2888
 3062TIP3   OH2 9191   5.208   3.040   1.946 -1.0067 -0.6116 -0.4636
 3062TIP3    H1 9192   5.302   3.058   1.953 -1.7368  3.3160  1.9545
 3062TIP3    H2 9193   5.185   3.067   1.857  0.0905 -1.5102 -1.0443
 3063TIP3   OH2 9194   3.419   0.179   2.570  0.2269  0.4273 -0.0203
 3063TIP3    H1 9195   3.343   0.218   2.614 -1.2423 -1.8328 -0.3913
 3063TIP3    H2 9196   3.453   0.115   2.633 -1.0228 -1.8163 -1.4815
 3064TIP3   OH2 9197   0.496   2.030   3.925  1.0523 -0.1578  0.2678
 3064TIP3    H1 9198   0.544   2.103   3.885  1.3642  0.7995  2.2509
 3064TIP3    H2 9199   0.562   1.986   3.980  0.4674 -0.9614  0.3423
 3065TIP3   OH2 9200   0.336  -0.026   1.320 -0.3701 -0.0222  0.7836
 3065TIP3    H1 9201   0.425   0.011   1.323 -0.4393  0.3486 -0.8681
 3065TIP3    H2 9202   0.280   0.049   1.301 -0.9766 -0.3544  1.2631
 3066TIP3   OH2 9203   5.439   3.031   1.332 -0.4712 -0.1876  0.1860
 3066TIP3    H1 9204   5.517   3.085   1.320 -0.0384 -0.5021  1.4182
 3066TIP3    H2 9205   5.467   2.961   1.391 -1.3230 -1.1114 -0.4563
 3067TIP3   OH2 9206   4.671   4.893   2.166 -0.0872  0.1059 -0.4342
 3067TIP3    H1 9207   4.632   4.805   2.163 -0.6037  0.3645 -1.3746
 3067TIP3    H2 9208   4.683   4.910   2.260  1.8196 -1.7432 -0.2618
 3068TIP3   OH2 9209   1.291   2.928   3.528  0.6430 -0.1734 -0.1375
 3068TIP3    H1 9210   1.206   2.921   3.571  0.3559  0.3401 -0.6174
 3068TIP3    H2 9211   1.352   2.948   3.599  0.6197 -1.9459  0.4408
 3069TIP3   OH2 9212   6.001   5.556   1.572 -0.0964  0.2757  0.0887
 3069TIP3    H1 9213   5.909   5.541   1.595 -0.0568  0.5065  0.3982
 3069TIP3    H2 9214   6.007   5.651   1.563  0.0388  0.2364 -0.2467
 3070TIP3   OH2 9215   4.684   1.020   3.174  0.7809 -0.4702 -0.4750
 3070TIP3    H1 9216   4.700   0.928   3.152 -1.8809 -1.0871 -0.2358
 3070TIP3    H2 9217   4.594   1.021   3.208  0.5104  2.3224 -1.0245
 3071TIP3   OH2 9218   3.110   2.821   2.223 -0.0285 -0.2001  0.1587
 3071TIP3    H1 9219   3.100   2.895   2.163  0.0501  0.6833  1.1957
 3071TIP3    H2 9220   3.126   2.862   2.308  0.7870 -1.4317  0.6161
 3072TIP3   OH2 9221   0.033   0.486   2.069 -0.0985 -0.7336  0.5515
 3072TIP3    H1 9222   0.098   0.468   2.002  0.6051  2.1872  0.2868
 3072TIP3    H2 9223  -0.042   0.432   2.045  0.7709 -1.1244 -1.5269
 3073TIP3   OH2 9224   1.815   1.364   2.429 -0.7611 -0.4934 -0.3360
 3073TIP3    H1 9225   1.781   1.275   2.426 -0.3074 -0.6864  0.0521
 3073TIP3    H2 9226   1.900   1.359   2.384 -1.2236 -0.0215 -1.2915
 3074TIP3   OH2 9227   4.370   2.539   2.599  0.4214 -0.9223  0.3097
 3074TIP3    H1 9228   4.322   2.581   2.527  0.2626 -0.3626  0.7337
 3074TIP3    H2 9229   4.462   2.561   2.581  0.4300 -1.1914  0.0160
 3075TIP3   OH2 9230   1.583   0.536   1.118 -0.1772 -0.6011 -0.8244
 3075TIP3    H1 9231   1.631   0.474   1.064  2.3537  1.3100 -0.9416
 3075TIP3    H2 9232   1.646   0.566   1.183 -1.5627  1.1464 -0.1884
 3076TIP3   OH2 9233   4.391   5.051   0.556 -0.6725 -0.5572  0.5126
 3076TIP3    H1 9234   4.462   5.017   0.610 -1.0707 -1.9662  0.2035
 3076TIP3    H2 9235   4.334   5.097   0.617 -0.2128 -0.6020  0.9884
 3077TIP3   OH2 9236   2.626   4.626   2.013 -0.5355 -0.3483 -0.0113
 3077TIP3    H1 9237   2.579   4.579   2.081 -0.9207  0.2104  0.1099
 3077TIP3    H2 9238   2.572   4.616   1.935  1.5325 -4.0210 -1.2635
 3078TIP3   OH2 9239   4.943   4.643   4.686 -0.4185  0.3368  0.3004
 3078TIP3    H1 9240   4.960   4.634   4.592  1.0240  2.6899  0.2479
 3078TIP3    H2 9241   4.902   4.729   4.694 -0.6494  0.1112  1.8243
 3079TIP3   OH2 9242   6.191   1.563   3.907 -0.0975 -0.3339 -0.2001
 3079TIP3    H1 9243   6.266   1.504   3.890 -0.6366 -1.1925  0.3079
 3079TIP3    H2 9244   6.139   1.558   3.827 -0.4384 -1.0259  0.0507
 3080TIP3   OH2 9245   4.679   1.328   0.504  0.1333  0.1274 -0.2273
 3080TIP3    H1 9246   4.600   1.319   0.558  0.4077  3.1812  0.8997
 3080TIP3    H2 9247   4.750   1.331   0.567  1.2471 -2.4000 -1.2245
 3081TIP3   OH2 9248   5.973   1.853   3.849  0.2752  0.3931 -0.8821
 3081TIP3    H1 9249   5.973   1.938   3.804 -0.4748 -0.6821 -3.0297
 3081TIP3    H2 9250   5.942   1.791   3.783 -0.8005 -1.3167  1.1378
 3082TIP3   OH2 9251   2.565   2.536   4.934 -0.9371 -0.1332  1.1164
 3082TIP3    H1 9252   2.639   2.596   4.925 -1.8004  1.2384  2.7858
 3082TIP3    H2 9253   2.587   2.481   5.009 -0.6854 -1.1588  0.3153
 3083TIP3   OH2 9254   3.535   5.824   2.466 -0.6663 -0.4585 -0.4969
 3083TIP3    H1 9255   3.556   5.889   2.398  0.4692 -1.2515 -0.9213
 3083TIP3    H2 9256   3.580   5.856   2.544 -1.5323  0.1660 -0.2328
 3084TIP3   OH2 9257   4.271   5.608   4.085 -0.3076  0.1018 -0.1952
 3084TIP3    H1 9258   4.260   5.540   4.018 -0.0111 -0.1788  0.0340
 3084TIP3    H2 9259   4.209   5.676   4.061  0.0200  0.1518 -0.9474
 3085TIP3   OH2 9260   0.490   0.451   0.274  0.3038  0.0034  0.7428
 3085TIP3    H1 9261   0.563   0.409   0.319  1.5943  1.4437  0.1027
 3085TIP3    H2 9262   0.426   0.381   0.261  2.1279 -1.6423  0.1403
 3086TIP3   OH2 9263   0.057   4.014   3.617  0.8692  0.0193 -0.5718
 3086TIP3    H1 9264   0.024   4.054   3.537  0.5664  1.2973  0.1527
 3086TIP3    H2 9265   0.109   4.084   3.658  1.8614 -0.9410 -0.1538
 3087TIP3   OH2 9266   3.109   3.151   4.374 -0.0952  0.0802 -0.2088
 3087TIP3    H1 9267   3.116   3.057   4.361  2.6490  0.1033  0.4040
 3087TIP3    H2 9268   3.170   3.170   4.445 -1.5108  2.1794  0.5387
 3088TIP3   OH2 9269   3.577   5.259   1.064 -0.8963  0.1914  0.1655
 3088TIP3    H1 9270   3.639   5.189   1.045 -0.2855  0.7118  0.2252
 3088TIP3    H2 9271   3.603   5.293   1.150 -0.8938  0.7985 -0.0661
 3089TIP3   OH2 9272   2.484   1.502   1.044  0.2082 -0.0686  0.1391
 3089TIP3    H1 9273   2.398   1.492   1.004  0.0060  1.2988  0.2005
 3089TIP3    H2 9274   2.533   1.425   1.014 -0.3949  0.1634 -1.5308
 3090TIP3   OH2 9275   1.967   3.063   1.788 -0.6524  0.4764  0.2735
 3090TIP3    H1 9276   1.983   3.035   1.878  1.5457 -0.1717 -0.2631
 3090TIP3    H2 9277   2.029   3.135   1.774 -1.9039  1.4723 -0.3387
 3091TIP3   OH2 9278   4.382   1.862   1.276  0.2861 -0.0026  0.2327
 3091TIP3    H1 9279   4.376   1.952   1.245  0.8062 -0.1407 -0.2900
 3091TIP3    H2 9280   4.345   1.810   1.206  0.2627 -0.2164  0.4037
 3092TIP3   OH2 9281   0.191   0.657   3.294  0.4832  0.6884  0.0950
 3092TIP3    H1 9282   0.140   0.608   3.359 -1.0447  1.4552 -0.4793
 3092TIP3    H2 9283   0.271   0.605   3.282 -0.8019 -1.3456 -0.0539
 3093TIP3   OH2 9284   1.514   2.410   2.181 -0.1882 -0.4686 -0.2706
 3093TIP3    H1 9285   1.571   2.458   2.241 -0.5997  0.2550 -0.4513
 3093TIP3    H2 9286   1.429   2.406   2.226 -0.8189  1.0348 -1.2271
 3094TIP3   OH2 9287   6.316   5.757   0.732  0.1423 -0.5657  0.3600
 3094TIP3    H1 9288   6.382   5.826   0.726 -1.0483  0.5530 -0.4705
 3094TIP3    H2 9289   6.246   5.796   0.784 -0.1400 -1.5169  0.7118
 3095TIP3   OH2 9290   4.020   4.623   0.897 -0.1101  0.1031 -0.1261
 3095TIP3    H1 9291   4.016   4.679   0.820  2.8182  0.8466  0.1508
 3095TIP3    H2 9292   3.929   4.600   0.915 -0.9379  0.2598 -3.4971
 3096TIP3   OH2 9293   5.952   2.783   1.437 -0.2025  0.3292  0.0575
 3096TIP3    H1 9294   5.998   2.699   1.443 -1.2432 -0.4143 -1.6772
 3096TIP3    H2 9295   5.861   2.761   1.455 -0.2203  1.4334  1.4180
 3097TIP3   OH2 9296   5.722   5.964   1.556  0.4098  0.3796 -0.3159
 3097TIP3    H1 9297   5.671   5.894   1.515  1.1016 -0.1661 -0.2506
 3097TIP3    H2 9298   5.656   6.024   1.592 -0.1922  0.1186 -0.9628
 3098TIP3   OH2 9299   0.204   2.626   5.007  0.7851 -0.2169 -0.2801
 3098TIP3    H1 9300   0.276   2.572   5.039 -0.8057 -0.7586  2.8843
 3098TIP3    H2 9301   0.215   2.710   5.053  0.2147  0.1902 -0.8795
 3099TIP3   OH2 9302   4.600   3.353   0.031 -0.2714  0.2605  0.9974
 3099TIP3    H1 9303   4.693   3.331   0.035  0.1797  1.9136  0.5634
 3099TIP3    H2 9304   4.556   3.285   0.083  1.0160 -1.2983  0.1254
 3100TIP3   OH2 9305   0.118   3.480   1.080  0.1677 -0.0262  0.7683
 3100TIP3    H1 9306   0.083   3.413   1.022  0.8607 -0.2102  0.5629
 3100TIP3    H2 9307   0.185   3.436   1.131 -1.5120 -0.3108  2.8993
 3101TIP3   OH2 9308   0.374   3.149   2.420 -0.0583  0.4758  0.4693
 3101TIP3    H1 9309   0.426   3.182   2.493  0.9836  2.1255 -0.9350
 3101TIP3    H2 9310   0.308   3.218   2.405 -0.7911 -0.2346  0.3666
 3102TIP3   OH2 9311   5.961   1.392   2.804  0.1134  0.4166  0.3657
 3102TIP3    H1 9312   5.919   1.470   2.769  0.5055 -0.1148 -1.4311
 3102TIP3    H2 9313   5.967   1.333   2.729 -0.3825 -1.4404  1.7083
 3103TIP3   OH2 9314   5.699   4.066   0.104 -0.5135  0.1853  0.4466
 3103TIP3    H1 9315   5.722   3.981   0.142 -0.8549 -0.8798 -1.5830
 3103TIP3    H2 9316   5.604   4.064   0.096 -0.4179  0.1178 -0.9348
 3104TIP3   OH2 9317   0.624   5.325   2.773 -0.6331  0.1670 -0.2820
 3104TIP3    H1 9318   0.628   5.235   2.806  1.0988  0.5290  0.6161
 3104TIP3    H2 9319   0.559   5.368   2.828  0.5626  0.1621  1.1988
 3105TIP3   OH2 9320   1.573   4.306   4.908 -0.7015  1.0347 -0.4233
 3105TIP3    H1 9321   1.668   4.306   4.919 -0.6294 -0.8291 -0.7446
 3105TIP3    H2 9322   1.550   4.399   4.901  1.0095  1.5541  0.2461
 3106TIP3   OH2 9323   2.683   5.772   3.597 -0.1471  0.3409  0.2301
 3106TIP3    H1 9324   2.656   5.826   3.671 -0.3944  1.0752 -0.3927
 3106TIP3    H2 9325   2.729   5.698   3.638  2.0315  2.0419  0.9944
 3107TIP3   OH2 9326   5.704   2.144   3.377  0.5765  0.3021  0.2081
 3107TIP3    H1 9327   5.652   2.088   3.319  1.4601 -0.1636 -0.1623
 3107TIP3    H2 9328   5.741   2.083   3.442  1.3515  0.4763 -0.0527
 3108TIP3   OH2 9329   6.082   5.454   1.138  0.3305  0.5620 -0.4000
 3108TIP3    H1 9330   6.163   5.506   1.137  1.4027 -1.0043 -2.2426
 3108TIP3    H2 9331   6.091   5.397   1.214  2.6697 -1.9517 -2.3641
 3109TIP3   OH2 9332   5.083   5.236   0.561  0.1308 -0.2704  0.7890
 3109TIP3    H1 9333   5.168   5.246   0.605 -0.4941  0.1587  1.9274
 3109TIP3    H2 9334   5.048   5.154   0.595  0.2065 -0.5877  0.1072
 3110TIP3   OH2 9335   0.253   1.792   1.936  0.4689 -0.0832 -0.1667
 3110TIP3    H1 9336   0.269   1.698   1.940  1.4281  0.0837  0.0580
 3110TIP3    H2 9337   0.178   1.806   1.994  0.7982 -0.6091  0.4034
 3111TIP3   OH2 9338   0.401   1.772   5.186  0.2674 -0.4785 -0.5180
 3111TIP3    H1 9339   0.353   1.850   5.215  2.1838  0.0898  1.3350
 3111TIP3    H2 9340   0.464   1.805   5.121  1.8773 -0.2068  1.1120
 3112TIP3   OH2 9341   3.865   5.240   0.713 -0.2131  0.0708 -0.2048
 3112TIP3    H1 9342   3.792   5.191   0.674 -0.8783  1.2796 -0.5327
 3112TIP3    H2 9343   3.856   5.225   0.807 -0.2744 -0.6044 -0.3108
 3113TIP3   OH2 9344   2.170   5.249   4.420  0.1162  0.1921  0.1494
 3113TIP3    H1 9345   2.243   5.248   4.482  1.5288  1.9825 -1.3613
 3113TIP3    H2 9346   2.142   5.158   4.414  1.9113 -0.4818  1.1361
 3114TIP3   OH2 9347   1.649   1.975   2.681 -0.1073 -0.2367 -0.2147
 3114TIP3    H1 9348   1.604   1.932   2.753 -0.1230 -0.8462 -0.5736
 3114TIP3    H2 9349   1.605   1.942   2.602 -0.9114  1.3763 -0.4632
 3115TIP3   OH2 9350   2.333   1.247   0.978  0.3806  0.3873 -0.2057
 3115TIP3    H1 9351   2.282   1.166   0.983  2.2661 -1.2559 -3.7397
 3115TIP3    H2 9352   2.415   1.225   1.023  0.9726  0.2072 -1.3408
 3116TIP3   OH2 9353   0.538   2.026   1.664  0.2406  0.0735  0.6257
 3116TIP3    H1 9354   0.492   2.107   1.684  1.4483  0.6467  1.1518
 3116TIP3    H2 9355   0.555   2.031   1.570  0.3352  0.4465  0.6601
 3117TIP3   OH2 9356   2.752   3.533   2.759 -0.1309  0.6001 -0.6811
 3117TIP3    H1 9357   2.690   3.468   2.792  0.3042  1.0905  1.2352
 3117TIP3    H2 9358   2.703   3.580   2.691 -0.6176 -1.3482 -1.7605
 3118TIP3   OH2 9359   5.192   2.284   1.422  0.0250  0.0330 -0.1571
 3118TIP3    H1 9360   5.287   2.280   1.411 -0.0143  0.2918 -0.6409
 3118TIP3    H2 9361   5.179   2.319   1.510  0.3767 -0.0511 -0.0709
 3119TIP3   OH2 9362   3.122   0.094   5.071  0.2383  0.1136 -0.5668
 3119TIP3    H1 9363   3.098   0.151   5.144  2.5934 -1.5192  1.6528
 3119TIP3    H2 9364   3.206   0.127   5.041  1.5733 -1.9562  0.6529
 3120TIP3   OH2 9365   4.558   0.956   4.854  0.0181 -0.1760 -0.0161
 3120TIP3    H1 9366   4.528   0.958   4.763  0.4637  0.6595 -0.1578
 3120TIP3    H2 9367   4.484   0.919   4.903 -0.4840  0.0064 -0.6270
 3121TIP3   OH2 9368   5.464   3.110   1.979 -0.1712 -0.2514  0.1212
 3121TIP3    H1 9369   5.475   3.191   2.029  0.3145 -1.7056  2.5312
 3121TIP3    H2 9370   5.542   3.104   1.925 -0.4188  1.0816 -0.4092
 3122TIP3   OH2 9371   4.104   4.769   4.760 -0.3498  0.4475 -0.1025
 3122TIP3    H1 9372   4.124   4.681   4.727 -1.2223  0.1260  0.1985
 3122TIP3    H2 9373   4.041   4.805   4.698 -0.1858  0.7637 -0.0870
 3123TIP3   OH2 9374   2.709   5.638   3.150  0.0285  0.0422  0.6295
 3123TIP3    H1 9375   2.791   5.607   3.190  1.1819  1.1209 -0.7956
 3123TIP3    H2 9376   2.729   5.726   3.118 -0.2520 -1.1784 -3.5615
 3124TIP3   OH2 9377   3.645   5.668   4.365  0.1619 -0.5267 -0.0963
 3124TIP3    H1 9378   3.562   5.645   4.407  0.4402 -0.2642  0.6101
 3124TIP3    H2 9379   3.657   5.761   4.385  0.6692 -0.5843 -0.1355
 3125TIP3   OH2 9380   3.549   5.193   3.391 -0.0774 -0.4787 -0.1731
 3125TIP3    H1 9381   3.497   5.268   3.420  0.2395  0.0933 -1.0437
 3125TIP3    H2 9382   3.499   5.154   3.320  0.1160 -0.6450 -0.2194
 3126TIP3   OH2 9383   2.466   1.300   3.215  0.1427 -0.6296  0.2182
 3126TIP3    H1 9384   2.425   1.343   3.139  0.1912 -1.3561 -0.2339
 3126TIP3    H2 9385   2.424   1.214   3.218 -2.3272  0.5066  3.0416
 3127TIP3   OH2 9386   5.628   4.685   3.437  0.0972  0.0087  0.6658
 3127TIP3    H1 9387   5.658   4.636   3.514  0.0027  1.4289  1.6351
 3127TIP3    H2 9388   5.547   4.727   3.465 -0.2112  0.1451 -0.3870
 3128TIP3   OH2 9389   2.411   3.059   4.645 -0.2942 -0.1814  0.2081
 3128TIP3    H1 9390   2.440   3.136   4.693  0.2176  0.2905 -0.8121
 3128TIP3    H2 9391   2.440   3.075   4.555  1.2525 -2.2922  0.2698
 3129TIP3   OH2 9392   1.801   4.586   5.087  0.8853  0.1561 -0.3350
 3129TIP3    H1 9393   1.822   4.499   5.053  0.1487 -0.3408  0.4746
 3129TIP3    H2 9394   1.865   4.643   5.044  2.1914 -0.9466  0.0479
 3130TIP3   OH2 9395   0.373   4.413   2.717 -0.4559 -0.2552 -0.4999
 3130TIP3    H1 9396   0.396   4.484   2.777 -1.6746  0.8694 -1.3060
 3130TIP3    H2 9397   0.445   4.410   2.654  0.0889 -0.4371  0.1133
 3131TIP3   OH2 9398   2.776   1.001   3.113  0.1023  0.5460  0.1111
 3131TIP3    H1 9399   2.787   1.096   3.111  0.0777  0.5483  0.0675
 3131TIP3    H2 9400   2.847   0.970   3.168  0.6996  0.5142 -0.6609
 3132TIP3   OH2 9401   0.197   1.207   0.461  0.5320 -0.0580 -0.7769
 3132TIP3    H1 9402   0.130   1.139   0.470  1.4600 -1.0235 -0.9689
 3132TIP3    H2 9403   0.152   1.289   0.484 -0.6738 -0.6963 -0.7958
 3133TIP3   OH2 9404   0.296   1.443   4.201 -0.5332 -0.3076  0.0918
 3133TIP3    H1 9405   0.308   1.488   4.285  0.8329  1.7307 -1.1238
 3133TIP3    H2 9406   0.219   1.484   4.163 -0.8812 -0.9145  0.1256
 3134TIP3   OH2 9407   0.178   2.326   0.402 -0.0955 -0.2283  0.1350
 3134TIP3    H1 9408   0.210   2.416   0.406 -0.5023 -0.1016  0.8294
 3134TIP3    H2 9409   0.123   2.323   0.324  0.9256 -0.2249 -0.5967
 3135TIP3   OH2 9410   3.128   2.098   1.011  0.1184 -0.4758  0.1028
 3135TIP3    H1 9411   3.109   2.058   0.926 -0.9853 -0.9197  0.5425
 3135TIP3    H2 9412   3.050   2.150   1.032  0.6773  0.2164  0.5118
 3136TIP3   OH2 9413   4.078   3.389   2.439 -0.3283  0.2880 -0.0628
 3136TIP3    H1 9414   4.161   3.434   2.426 -0.2239  0.5978  1.5322
 3136TIP3    H2 9415   4.030   3.404   2.357  0.6851  1.1669 -0.5204
 3137TIP3   OH2 9416   3.841   2.434   0.150 -0.0186  0.3131  0.3057
 3137TIP3    H1 9417   3.746   2.427   0.143 -0.1484  2.1532 -0.3131
 3137TIP3    H2 9418   3.858   2.439   0.244 -0.5632  0.3378  0.4068
 3138TIP3   OH2 9419   2.750   4.196   0.180  0.4237  0.1717 -0.5087
 3138TIP3    H1 9420   2.694   4.120   0.162 -1.7084  1.4404  0.3715
 3138TIP3    H2 9421   2.795   4.173   0.262 -1.5674  0.4727  0.7486
 3139TIP3   OH2 9422   5.856   2.074   2.970 -0.3836 -0.3896  0.1636
 3139TIP3    H1 9423   5.768   2.109   2.956  0.0846  0.3680 -1.0483
 3139TIP3    H2 9424   5.906   2.149   3.005 -0.1141 -0.7063  0.4705
 3140TIP3   OH2 9425   1.002   1.991   0.294 -0.6767 -0.3393 -0.4053
 3140TIP3    H1 9426   1.067   2.050   0.255 -0.4587 -0.7089 -0.6085
 3140TIP3    H2 9427   0.937   1.979   0.224 -1.6141  0.9835  0.1936
 3141TIP3   OH2 9428   0.993   3.591   2.404 -0.4236 -0.4423 -0.4904
 3141TIP3    H1 9429   0.995   3.544   2.487 -1.2750 -0.1560 -0.2935
 3141TIP3    H2 9430   1.025   3.528   2.339 -1.5221 -1.3028 -0.2338
 3142TIP3   OH2 9431   4.036   1.885   3.678  0.7478 -0.4604 -0.1150
 3142TIP3    H1 9432   4.129   1.890   3.656  0.2580  0.8603 -2.1993
 3142TIP3    H2 9433   3.997   1.833   3.608 -0.4390  1.3324 -0.8813
 3143TIP3   OH2 9434   4.028   0.742   1.265 -0.2694  0.2342  0.4400
 3143TIP3    H1 9435   4.116   0.709   1.245 -0.6625  0.7960 -2.6633
 3143TIP3    H2 9436   4.027   0.832   1.233 -2.3732 -0.2177 -0.9859
 3144TIP3   OH2 9437   3.721   6.010   0.960  0.0344 -0.8674 -0.0550
 3144TIP3    H1 9438   3.693   5.919   0.949  1.5041 -1.4843  0.9185
 3144TIP3    H2 9439   3.797   6.005   1.019 -1.2874  1.2184  2.0060
 3145TIP3   OH2 9440   5.688   4.660   2.409  0.5672 -0.1623 -0.0932
 3145TIP3    H1 9441   5.620   4.669   2.475 -0.7718 -0.4128 -1.3684
 3145TIP3    H2 9442   5.738   4.741   2.414  0.3296 -0.0736  1.0326
 3146TIP3   OH2 9443   1.140   5.352   3.048  0.0523 -0.6373 -0.0615
 3146TIP3    H1 9444   1.149   5.288   2.977  0.8355  0.9681 -1.4681
 3146TIP3    H2 9445   1.146   5.437   3.005 -2.2160  0.4617  1.5820
 3147TIP3   OH2 9446   6.074   1.145   1.853  0.1941 -0.7965 -0.2534
 3147TIP3    H1 9447   6.125   1.179   1.927  0.7973 -2.5206  0.1716
 3147TIP3    H2 9448   6.133   1.083   1.810 -0.0173  0.4460 -2.4490
 3148TIP3   OH2 9449   1.276   0.596   0.102 -0.1793  0.0938  0.1764
 3148TIP3    H1 9450   1.209   0.551   0.153 -0.1808  2.3279  2.3596
 3148TIP3    H2 9451   1.246   0.590   0.012 -2.1912 -0.7904  0.8511
 3149TIP3   OH2 9452   4.406   2.178   1.518 -0.4959  0.2302  0.0062
 3149TIP3    H1 9453   4.332   2.187   1.458 -0.8078 -2.3342 -0.0925
 3149TIP3    H2 9454   4.478   2.149   1.462  0.1756  1.1553  0.3638
 3150TIP3   OH2 9455   1.225   4.677   0.242 -0.3663  0.5836 -0.0769
 3150TIP3    H1 9456   1.265   4.758   0.212 -0.9144  0.5978 -0.7909
 3150TIP3    H2 9457   1.292   4.636   0.297  0.7892  0.4443 -1.5092
 3151TIP3   OH2 9458   2.001   2.716   3.762 -0.5244 -0.1760 -0.2802
 3151TIP3    H1 9459   1.977   2.807   3.783 -2.2756 -1.0303  1.9124
 3151TIP3    H2 9460   1.937   2.664   3.810  1.9496 -2.6351  0.5496
 3152TIP3   OH2 9461   4.577   3.422   3.474 -0.1692 -0.0155 -0.5710
 3152TIP3    H1 9462   4.612   3.411   3.386 -0.6445 -2.9784 -0.4824
 3152TIP3    H2 9463   4.632   3.490   3.514  1.8049 -0.5278 -2.2548
 3153TIP3   OH2 9464   2.357   5.244   1.669  0.3333  0.2066  0.2822
 3153TIP3    H1 9465   2.327   5.249   1.760 -0.1566  2.1130  0.0601
 3153TIP3    H2 9466   2.408   5.324   1.656 -0.0232  0.2167 -1.2592
 3154TIP3   OH2 9467   2.002   0.325   1.226  0.1180 -0.4333 -0.0761
 3154TIP3    H1 9468   1.981   0.235   1.201 -0.7437 -0.9515  2.2434
 3154TIP3    H2 9469   2.082   0.318   1.278  0.9002  0.3576 -1.1459
 3155TIP3   OH2 9470   5.889   0.193   2.851  0.4205 -0.0329  0.7152
 3155TIP3    H1 9471   5.959   0.134   2.879 -0.4273 -0.5278  1.9071
 3155TIP3    H2 9472   5.838   0.208   2.930 -0.4066  0.8883  0.0268
 3156TIP3   OH2 9473   1.138   5.040   3.464 -0.3707 -0.1452  0.0167
 3156TIP3    H1 9474   1.207   4.975   3.453  2.2185  2.1962  1.3641
 3156TIP3    H2 9475   1.086   5.007   3.537  2.1748  0.1493  2.1134
 3157TIP3   OH2 9476   2.187   4.165   3.367 -0.1569 -0.1403 -0.0769
 3157TIP3    H1 9477   2.175   4.071   3.360  1.5527 -0.4552  0.6687
 3157TIP3    H2 9478   2.240   4.189   3.291  0.4034  0.0129  0.3557
 3158TIP3   OH2 9479   6.111   2.335   5.012  0.5595 -0.7326  0.1961
 3158TIP3    H1 9480   6.120   2.288   5.095  1.0717 -0.1690  0.4710
 3158TIP3    H2 9481   6.201   2.357   4.988  0.2684  1.1952  0.7332
 3159TIP3   OH2 9482   1.476   5.310   2.328  0.2858  0.3557  0.1160
 3159TIP3    H1 9483   1.551   5.280   2.380 -0.1022  0.4088  0.7115
 3159TIP3    H2 9484   1.441   5.230   2.288  0.8439  0.3712 -0.4191
 3160TIP3   OH2 9485   1.408   0.305   0.936 -0.1248 -0.6396 -0.1378
 3160TIP3    H1 9486   1.403   0.298   1.031 -1.5941  0.4069 -0.0959
 3160TIP3    H2 9487   1.457   0.386   0.920  0.2109 -0.8691 -0.2685
 3161TIP3   OH2 9488   2.979   4.000   0.707 -0.3168 -0.5777  0.1866
 3161TIP3    H1 9489   3.027   4.003   0.789  1.6571 -1.9908 -0.8212
 3161TIP3    H2 9490   2.898   3.952   0.728  1.5853 -3.8620  0.7951
 3162TIP3   OH2 9491   6.203   0.326   0.150 -0.4143 -0.4613 -0.4957
 3162TIP3    H1 9492   6.114   0.305   0.124 -0.0950 -1.5115 -0.7572
 3162TIP3    H2 9493   6.245   0.359   0.071 -1.0049  1.5971 -0.0192
 3163TIP3   OH2 9494   3.391   0.950   1.336  0.4328  0.1522  0.6001
 3163TIP3    H1 9495   3.371   1.042   1.356 -1.9287  0.0938 -0.9952
 3163TIP3    H2 9496   3.447   0.955   1.258  1.2169  0.2319  1.1594
 3164TIP3   OH2 9497   1.926   1.201   0.193  0.4942 -0.3509 -0.0242
 3164TIP3    H1 9498   1.960   1.163   0.274  0.6282 -0.4521 -0.1267
 3164TIP3    H2 9499   1.969   1.286   0.186 -0.7055  0.3419  0.8192
 3165TIP3   OH2 9500   1.557   5.760   4.952  0.3603  0.1550  0.8065
 3165TIP3    H1 9501   1.531   5.668   4.945  1.8340 -0.1747 -1.0774
 3165TIP3    H2 9502   1.646   5.763   4.917 -0.4569  2.6703 -1.3844
 3166TIP3   OH2 9503   4.183   0.478   5.034 -0.1328  0.2429  0.0991
 3166TIP3    H1 9504   4.140   0.554   4.994 -0.3453 -0.0847 -0.3129
 3166TIP3    H2 9505   4.189   0.414   4.963  0.9179  0.2286  0.1881
 3167TIP3   OH2 9506   4.634   0.161   0.381  0.0770  0.1423 -0.3311
 3167TIP3    H1 9507   4.541   0.160   0.357  0.1857  1.2247 -0.8975
 3167TIP3    H2 9508   4.658   0.254   0.379  1.3878 -0.1859 -1.0720
 3168TIP3   OH2 9509   2.768   1.723   2.902  0.2224  0.5614 -0.3267
 3168TIP3    H1 9510   2.769   1.662   2.976 -2.0455  0.5074 -0.2525
 3168TIP3    H2 9511   2.791   1.807   2.940  0.4484  0.2824  0.1647
 3169TIP3   OH2 9512   3.403   0.067   3.098 -0.7745 -0.0381 -0.2118
 3169TIP3    H1 9513   3.475   0.087   3.159 -0.2789 -1.9059 -0.1055
 3169TIP3    H2 9514   3.447   0.050   3.015 -0.9116 -2.3566  0.1314
 3170TIP3   OH2 9515   1.031   0.108   2.530 -0.0085 -0.4124 -0.0776
 3170TIP3    H1 9516   1.043   0.149   2.444 -0.5478 -0.7724 -0.3310
 3170TIP3    H2 9517   1.097   0.039   2.533 -0.3766 -0.7911 -0.4567
 3171TIP3   OH2 9518   4.885   2.616   2.471 -0.6906  0.0090  0.1767
 3171TIP3    H1 9519   4.945   2.567   2.415 -0.1281  0.6247  0.2238
 3171TIP3    H2 9520   4.907   2.588   2.560 -0.7787 -0.1050  0.1612
 3172TIP3   OH2 9521   2.063   3.691   3.029  0.2644 -0.1259  0.0591
 3172TIP3    H1 9522   2.070   3.620   3.093  0.9488  1.0863  1.3875
 3172TIP3    H2 9523   1.981   3.736   3.053  0.1637 -0.0841 -0.3662
 3173TIP3   OH2 9524   5.056   3.294   4.253  0.0777  0.4215  0.3037
 3173TIP3    H1 9525   5.116   3.279   4.180  0.3683  0.5654  0.5087
 3173TIP3    H2 9526   4.970   3.269   4.219 -0.3371  3.3710 -1.1241
 3174TIP3   OH2 9527   5.685   5.337   3.539 -1.3217  0.8163 -0.6252
 3174TIP3    H1 9528   5.779   5.355   3.551 -1.5067  0.6702  1.2610
 3174TIP3    H2 9529   5.683   5.262   3.480 -0.0489 -1.3685  1.8802
 3175TIP3   OH2 9530   5.948   4.041   1.566  0.1763 -0.0230  0.3879
 3175TIP3    H1 9531   6.035   4.052   1.529  0.0481 -0.9757 -0.2172
 3175TIP3    H2 9532   5.890   4.038   1.490 -0.3141 -0.0585  0.7573
 3176TIP3   OH2 9533   1.642   1.615   1.185 -0.2892  0.3469  0.1566
 3176TIP3    H1 9534   1.669   1.611   1.277  0.3764  1.5298  0.0375
 3176TIP3    H2 9535   1.723   1.597   1.137 -0.9304 -1.7042 -0.2125
 3177TIP3   OH2 9536   4.211   5.946   1.774 -0.2627  0.3680  0.2055
 3177TIP3    H1 9537   4.245   6.035   1.769  1.1563 -0.0518  1.5503
 3177TIP3    H2 9538   4.130   5.954   1.825 -2.7384  1.4605 -3.4913
 3178TIP3   OH2 9539   1.125   1.923   3.798  0.1510 -0.1284  0.6803
 3178TIP3    H1 9540   1.150   1.993   3.857  0.4466 -0.3386  0.8055
 3178TIP3    H2 9541   1.041   1.951   3.761  0.8492  0.8710 -0.2054
 3179TIP3   OH2 9542   4.437   5.295   3.168 -0.1507  0.6457  0.0789
 3179TIP3    H1 9543   4.516   5.246   3.144  0.7411  0.6874  2.6035
 3179TIP3    H2 9544   4.470   5.372   3.214 -1.6481  1.3885 -0.0242
 3180TIP3   OH2 9545   6.328   0.362   0.591  0.0485  0.8746 -0.3559
 3180TIP3    H1 9546   6.270   0.294   0.626  1.9190  0.1106  1.4766
 3180TIP3    H2 9547   6.366   0.323   0.512  1.5329 -0.5160  0.9780
 3181TIP3   OH2 9548   4.333   0.834   4.983  0.0399  0.3489 -0.7676
 3181TIP3    H1 9549   4.333   0.817   5.077  1.4860 -1.8067 -1.0885
 3181TIP3    H2 9550   4.293   0.756   4.944 -0.7200  1.2899 -1.9714
 3182TIP3   OH2 9551   3.281   0.968   0.600  0.6882 -0.0804 -0.1320
 3182TIP3    H1 9552   3.209   0.985   0.661  1.0107  0.9668 -0.0219
 3182TIP3    H2 9553   3.263   0.881   0.565  0.0753 -0.3810  0.8742
 3183TIP3   OH2 9554   0.118   1.012   1.163  0.6490  0.0945 -0.1050
 3183TIP3    H1 9555   0.134   1.009   1.069 -0.1197 -0.5935 -0.2263
 3183TIP3    H2 9556   0.129   0.922   1.192  0.3670  0.2141  0.3779
 3184TIP3   OH2 9557   0.591   3.864   3.654  0.1658  0.0424 -0.3686
 3184TIP3    H1 9558   0.528   3.811   3.703  0.5662 -1.3687 -1.3278
 3184TIP3    H2 9559   0.650   3.898   3.722  0.3328 -1.3601  0.2359
 3185TIP3   OH2 9560   0.531   3.904   2.976 -0.7160 -0.1518 -0.3538
 3185TIP3    H1 9561   0.516   3.990   3.014 -0.5234  0.0029 -0.6219
 3185TIP3    H2 9562   0.589   3.920   2.902  1.7698 -0.8719  1.3269
 3186TIP3   OH2 9563   2.816   4.399   0.520  0.2383  0.5694  0.2874
 3186TIP3    H1 9564   2.805   4.415   0.426  2.1698  2.0062  0.2544
 3186TIP3    H2 9565   2.836   4.306   0.526  1.3026  0.6897 -0.8866
 3187TIP3   OH2 9566   4.857   3.599   5.025  0.4429  0.0893 -0.0854
 3187TIP3    H1 9567   4.849   3.505   5.008  1.4611 -0.0994  0.3650
 3187TIP3    H2 9568   4.818   3.641   4.949  1.0348 -0.7163 -0.8557
 3188TIP3   OH2 9569   5.880   4.062   2.331  0.3228  0.8925 -0.0258
 3188TIP3    H1 9570   5.907   3.988   2.277 -0.3827 -0.9380  1.9730
 3188TIP3    H2 9571   5.960   4.113   2.345  1.1888 -0.3811 -0.1727
 3189TIP3   OH2 9572   0.378   3.759   0.945 -0.3544 -0.2937 -0.4949
 3189TIP3    H1 9573   0.378   3.828   0.878 -3.1381 -0.8963 -1.2829
 3189TIP3    H2 9574   0.335   3.799   1.020  2.2072  0.1820  0.8086
 3190TIP3   OH2 9575   4.475   0.403   1.976 -0.7486 -0.3084  0.4588
 3190TIP3    H1 9576   4.436   0.457   1.907 -2.8469 -1.6409  0.5407
 3190TIP3    H2 9577   4.492   0.319   1.934 -0.1426 -0.5063  1.0733
 3191TIP3   OH2 9578   3.141   4.592   3.135 -0.1381  0.1075 -0.4056
 3191TIP3    H1 9579   3.153   4.552   3.049 -2.1205  0.6790 -0.9865
 3191TIP3    H2 9580   3.217   4.650   3.145  1.5105 -1.9067 -0.5740
 3192TIP3   OH2 9581   1.392   4.390   2.366  0.3825 -0.6159 -0.2464
 3192TIP3    H1 9582   1.366   4.380   2.458  2.7056 -2.0142  0.3223
 3192TIP3    H2 9583   1.414   4.483   2.358 -0.6983 -0.2865  0.3321
 3193TIP3   OH2 9584   0.215   4.255   4.093  0.2743 -0.3766 -0.0166
 3193TIP3    H1 9585   0.128   4.227   4.121  0.6726 -1.0511  0.5608
 3193TIP3    H2 9586   0.273   4.229   4.164  0.9928 -0.1866 -0.5207
 3194TIP3   OH2 9587   4.167   2.674   0.424  0.2124  0.0195 -0.1992
 3194TIP3    H1 9588   4.195   2.671   0.332 -0.0846  1.4528 -0.3608
 3194TIP3    H2 9589   4.244   2.708   0.470  0.6280 -1.4237  0.2275
 3195TIP3   OH2 9590   3.203   4.612   2.637  0.5729 -0.2376 -0.4192
 3195TIP3    H1 9591   3.273   4.553   2.607  0.9467  0.3564 -0.7181
 3195TIP3    H2 9592   3.122   4.571   2.603  0.5920 -1.7662  1.2372
 3196TIP3   OH2 9593   5.181   1.546   0.404 -0.1183 -0.5015 -0.6402
 3196TIP3    H1 9594   5.242   1.614   0.434  1.9438 -2.3935 -0.2743
 3196TIP3    H2 9595   5.165   1.491   0.480 -0.6648 -1.1957 -1.2338
 3197TIP3   OH2 9596   1.028   0.059   4.399 -0.2793 -0.5736 -0.8149
 3197TIP3    H1 9597   1.067   0.050   4.486 -0.1266 -0.7076 -0.8979
 3197TIP3    H2 9598   1.072   0.134   4.360  0.1323 -0.9247 -1.0353
 3198TIP3   OH2 9599   5.478   3.148   3.569 -0.1022  0.2473  0.0188
 3198TIP3    H1 9600   5.534   3.137   3.646  0.2209  2.7031  0.2100
 3198TIP3    H2 9601   5.525   3.210   3.514 -0.1989 -1.6295 -2.3637
 3199TIP3   OH2 9602   5.170   4.572   3.063  1.0548 -0.0471 -0.8749
 3199TIP3    H1 9603   5.121   4.490   3.073  0.5508  0.3225 -0.2787
 3199TIP3    H2 9604   5.261   4.548   3.080  0.9804 -0.5835 -1.2054
 3200TIP3   OH2 9605   6.166   4.161   3.908 -0.0015 -0.0360  0.5374
 3200TIP3    H1 9606   6.180   4.081   3.858 -0.7954 -0.2495  0.6512
 3200TIP3    H2 9607   6.078   4.153   3.943 -0.4317  1.2874 -0.1703
 3201TIP3   OH2 9608   0.041   2.372   4.465 -0.4988  0.0381 -1.0191
 3201TIP3    H1 9609   0.121   2.410   4.502 -0.5126  0.2455 -1.2045
 3201TIP3    H2 9610   0.061   2.357   4.373 -0.2034 -1.1900 -0.7728
 3202TIP3   OH2 9611   2.888   5.048   1.303  0.1281 -0.5149 -0.2658
 3202TIP3    H1 9612   2.913   5.133   1.266  1.3186 -0.9724 -0.5455
 3202TIP3    H2 9613   2.965   5.020   1.352 -0.5788 -1.0357  0.5649
 3203TIP3   OH2 9614   6.125   1.519   4.403 -0.3770 -0.2668 -0.2607
 3203TIP3    H1 9615   6.062   1.459   4.363  0.9921  0.1074 -3.2157
 3203TIP3    H2 9616   6.112   1.602   4.357  1.5368  0.1201 -0.1865
 3204TIP3   OH2 9617   1.027   1.879   1.618 -0.2816 -0.8256 -0.3137
 3204TIP3    H1 9618   1.056   1.849   1.532 -2.3228 -1.7758 -0.7371
 3204TIP3    H2 9619   0.938   1.844   1.627 -1.8056  2.8125  0.3835
 3205TIP3   OH2 9620   4.075   4.408   5.066  0.4041 -0.0237 -0.0397
 3205TIP3    H1 9621   4.077   4.407   4.971  0.2115  0.0919 -0.0448
 3205TIP3    H2 9622   3.996   4.360   5.089  0.9552 -0.8924  0.0828
 3206TIP3   OH2 9623   1.713   0.243   3.488 -0.6885  0.0601  0.1912
 3206TIP3    H1 9624   1.622   0.271   3.478 -0.9825 -0.4583  1.2569
 3206TIP3    H2 9625   1.758   0.321   3.520 -1.0395 -0.0256  0.9262
 3207TIP3   OH2 9626   5.635   3.931   4.488  0.0925  0.7445  0.8027
 3207TIP3    H1 9627   5.710   3.922   4.546  0.5870 -0.4395  0.0140
 3207TIP3    H2 9628   5.663   3.890   4.406 -0.7774  1.8945 -0.1043
 3208TIP3   OH2 9629   1.618   2.696   0.979 -0.1677  0.7540  0.8328
 3208TIP3    H1 9630   1.640   2.643   1.056  0.4965  1.7768  1.3816
 3208TIP3    H2 9631   1.637   2.640   0.904 -0.4237 -0.1175  1.4050
 3209TIP3   OH2 9632   2.854   0.665   0.562  0.1651  0.2716  0.5155
 3209TIP3    H1 9633   2.781   0.611   0.530  0.0369  1.2932 -1.0564
 3209TIP3    H2 9634   2.927   0.641   0.506  1.0188 -0.6266  1.9793
 3210TIP3   OH2 9635   6.203   3.134   0.400  0.0286  0.7488 -0.5544
 3210TIP3    H1 9636   6.261   3.133   0.324  1.2721  2.5412  0.2995
 3210TIP3    H2 9637   6.138   3.201   0.380 -0.7732 -0.0666 -0.7780
 3211TIP3   OH2 9638   5.121   1.243   3.223  0.5696 -0.4731  0.0248
 3211TIP3    H1 9639   5.137   1.156   3.184 -0.5371  0.2691 -2.2681
 3211TIP3    H2 9640   5.054   1.228   3.290 -0.7082 -1.2298 -1.3598
 3212TIP3   OH2 9641   0.207   3.230   3.336 -0.4498 -0.2165 -0.3594
 3212TIP3    H1 9642   0.204   3.213   3.242  0.7405  0.6049 -0.5688
 3212TIP3    H2 9643   0.198   3.325   3.344 -1.4638 -0.3556  0.4285
 3213TIP3   OH2 9644   4.200   4.236   1.744 -0.1303  0.0872 -0.3709
 3213TIP3    H1 9645   4.105   4.244   1.734 -0.4817  0.4688  2.4340
 3213TIP3    H2 9646   4.225   4.314   1.794  1.5641 -0.3163 -0.5334
 3214TIP3   OH2 9647   4.609   2.892   1.702 -0.6806 -0.3084  0.2994
 3214TIP3    H1 9648   4.552   2.880   1.625 -0.5450  0.2651  0.0985
 3214TIP3    H2 9649   4.657   2.810   1.710 -1.0751 -0.5638  0.0812
 3215TIP3   OH2 9650   4.796   0.883   1.278  0.4151  0.2527  0.6392
 3215TIP3    H1 9651   4.840   0.964   1.256  1.3477 -0.5672 -0.6777
 3215TIP3    H2 9652   4.703   0.901   1.261  0.7553  0.6582 -0.9117
 3216TIP3   OH2 9653   3.513   0.674   3.099  0.2149  0.1081  0.1887
 3216TIP3    H1 9654   3.527   0.580   3.104 -0.8810 -0.0411  0.9929
 3216TIP3    H2 9655   3.424   0.683   3.064  0.1721  0.8292  0.4655
 3217TIP3   OH2 9656   0.909   3.866   4.595  0.0242 -0.2948 -0.0958
 3217TIP3    H1 9657   0.980   3.867   4.659  0.2349  0.9210 -0.3286
 3217TIP3    H2 9658   0.949   3.895   4.514 -0.5337 -0.5331 -0.4632
 3218TIP3   OH2 9659   5.192   5.574   4.957 -0.2581 -0.6854 -0.4159
 3218TIP3    H1 9660   5.178   5.579   5.051 -0.2347 -1.3815 -0.3640
 3218TIP3    H2 9661   5.104   5.561   4.920 -0.3528  0.3392 -0.5561
 3219TIP3   OH2 9662   1.237   5.511   2.082 -0.1835 -0.0357  0.0757
 3219TIP3    H1 9663   1.248   5.542   2.173 -0.8947  0.8581 -0.1256
 3219TIP3    H2 9664   1.294   5.569   2.031  1.5621 -1.6195  0.0992
 3220TIP3   OH2 9665   5.804   5.374   1.107  0.0876  0.0063  0.1772
 3220TIP3    H1 9666   5.857   5.321   1.166  0.1481 -1.5537 -1.2198
 3220TIP3    H2 9667   5.724   5.392   1.156  1.2179  1.0971  1.7363
 3221TIP3   OH2 9668   2.256   2.672   2.583  0.0499 -0.2633 -0.9241
 3221TIP3    H1 9669   2.300   2.604   2.531  0.7195 -0.4662 -0.1260
 3221TIP3    H2 9670   2.326   2.707   2.639 -0.1919  1.3847 -1.6297
 3222TIP3   OH2 9671   2.683   2.362   4.695 -0.1475 -0.1570 -0.1540
 3222TIP3    H1 9672   2.703   2.415   4.772  1.0457  0.7126 -1.0290
 3222TIP3    H2 9673   2.708   2.417   4.620 -2.4753 -0.4596 -1.2452
 3223TIP3   OH2 9674   4.022   4.782   2.751  0.1415 -0.0451 -0.0339
 3223TIP3    H1 9675   4.083   4.714   2.724 -1.1060 -1.1537 -0.1461
 3223TIP3    H2 9676   4.078   4.856   2.776  1.4715 -0.4810 -1.5433
 3224TIP3   OH2 9677   5.479   4.667   1.352 -0.1894 -0.6334 -0.7081
 3224TIP3    H1 9678   5.384   4.679   1.357 -0.0720  1.0317 -1.7788
 3224TIP3    H2 9679   5.516   4.745   1.393  0.6891 -0.1005 -2.4205
 3225TIP3   OH2 9680   2.535   4.369   0.273  0.7820 -0.0578 -0.8951
 3225TIP3    H1 9681   2.447   4.388   0.306  1.0342 -1.1474  0.4911
 3225TIP3    H2 9682   2.550   4.277   0.295  2.0205 -0.0699 -1.6984
 3226TIP3   OH2 9683   4.570   0.738   5.139  0.1207 -0.2212 -0.5419
 3226TIP3    H1 9684   4.585   0.806   5.073 -0.9495  0.3408 -0.2403
 3226TIP3    H2 9685   4.657   0.714   5.169  0.5137  2.2557  0.5643
 3227TIP3   OH2 9686   4.686   2.219   4.540 -0.0788 -0.0491 -0.1022
 3227TIP3    H1 9687   4.689   2.297   4.596  0.9824  0.8329 -1.3367
 3227TIP3    H2 9688   4.677   2.146   4.602 -1.2211  1.0382  1.0728
 3228TIP3   OH2 9689   1.854   3.601   1.075  0.1189 -0.5658 -0.0439
 3228TIP3    H1 9690   1.770   3.592   1.031  0.7874  0.7406 -1.7307
 3228TIP3    H2 9691   1.833   3.611   1.167 -1.5978  0.0257 -0.4738
 3229TIP3   OH2 9692   2.302   3.647   3.214 -0.3333 -0.1511 -0.0541
 3229TIP3    H1 9693   2.344   3.650   3.128  0.0639  0.0445  0.1390
 3229TIP3    H2 9694   2.224   3.593   3.202 -0.8597  0.7662 -0.7793
 3230TIP3   OH2 9695   6.091   4.394   4.163  0.5448  0.0748  0.0967
 3230TIP3    H1 9696   6.098   4.431   4.251 -1.6147  0.7135  0.0683
 3230TIP3    H2 9697   6.177   4.408   4.124  1.1487  0.9771  1.6465
 3231TIP3   OH2 9698   0.527   1.056   2.255  0.1534  0.8166 -0.0316
 3231TIP3    H1 9699   0.506   1.020   2.169  0.1725  0.9108 -0.0746
 3231TIP3    H2 9700   0.473   1.004   2.315 -1.4671  2.1043 -0.2748
 3232TIP3   OH2 9701   3.753   2.726   1.505  0.1363 -0.3763 -0.4810
 3232TIP3    H1 9702   3.710   2.651   1.463 -1.2526 -1.0302  1.9128
 3232TIP3    H2 9703   3.685   2.794   1.508  0.9469  0.5093 -1.3374
 3233TIP3   OH2 9704   1.376   5.606   1.858 -0.2383  0.8412  0.9407
 3233TIP3    H1 9705   1.402   5.697   1.876 -1.0908  1.3250 -0.1493
 3233TIP3    H2 9706   1.445   5.573   1.800 -0.1150  0.9033  1.0501
 3234TIP3   OH2 9707   1.825   2.693   4.721 -0.7214  0.5813  0.0931
 3234TIP3    H1 9708   1.821   2.785   4.748 -1.0181  0.9692 -1.1965
 3234TIP3    H2 9709   1.879   2.693   4.642  2.2208 -0.8739  1.9590
 3235TIP3   OH2 9710   2.859   1.799   1.913  0.0193  0.0212  0.3654
 3235TIP3    H1 9711   2.781   1.852   1.895  0.1337 -0.4147 -1.5867
 3235TIP3    H2 9712   2.882   1.821   2.004 -0.6487  2.3729  0.0306
 3236TIP3   OH2 9713   6.179   2.117   0.709  0.2919 -0.0951 -0.0306
 3236TIP3    H1 9714   6.134   2.196   0.739 -0.1075 -0.1182 -0.5625
 3236TIP3    H2 9715   6.219   2.142   0.626 -2.4378 -1.2840 -1.8402
 3237TIP3   OH2 9716   3.151   1.903   2.408  0.0112 -0.0253  0.0405
 3237TIP3    H1 9717   3.186   1.930   2.324  0.3284  2.7082  0.9351
 3237TIP3    H2 9718   3.059   1.929   2.405  0.3147  1.2702  0.9257
 3238TIP3   OH2 9719   5.650   4.502   3.646 -0.0559  0.7163 -0.0204
 3238TIP3    H1 9720   5.688   4.415   3.649  3.6626  2.1748  0.5767
 3238TIP3    H2 9721   5.640   4.527   3.738 -0.1203  1.2712 -0.1738
 3239TIP3   OH2 9722   1.433   4.133   4.706  0.3635  0.0204 -0.9522
 3239TIP3    H1 9723   1.481   4.176   4.776 -0.5249 -1.6247  0.7670
 3239TIP3    H2 9724   1.370   4.198   4.676  0.4718  0.6196  0.0876
 3240TIP3   OH2 9725   5.491   5.162   2.425  0.0099 -0.1289  0.1418
 3240TIP3    H1 9726   5.414   5.105   2.426 -0.6104  0.6849  0.7901
 3240TIP3    H2 9727   5.506   5.183   2.517  0.1132  0.8830 -0.0915
 3241TIP3   OH2 9728   2.144   0.767   2.483  0.1635  0.5441 -0.3375
 3241TIP3    H1 9729   2.059   0.809   2.492 -0.6011 -0.8224 -0.8740
 3241TIP3    H2 9730   2.150   0.744   2.390  0.3997 -0.7828 -0.0165
 3242TIP3   OH2 9731   1.020   5.329   3.733 -0.4654  0.1369  0.1634
 3242TIP3    H1 9732   0.934   5.331   3.693 -0.3479  2.8882 -0.1118
 3242TIP3    H2 9733   1.014   5.389   3.807  1.7187  2.1435 -1.1428
 3243TIP3   OH2 9734   3.645   2.556   1.239 -0.0244  0.0730 -0.3757
 3243TIP3    H1 9735   3.637   2.464   1.265 -0.4083 -0.1159 -1.1615
 3243TIP3    H2 9736   3.637   2.555   1.144  0.8672  0.8210 -0.4690
 3244TIP3   OH2 9737   4.519   5.087   4.809 -0.1433  0.4916  0.3794
 3244TIP3    H1 9738   4.499   4.994   4.804 -1.3857  0.7614 -0.1272
 3244TIP3    H2 9739   4.436   5.128   4.835 -0.1451  1.6339 -1.2414
 3245TIP3   OH2 9740   6.031   3.882   3.519  0.4604  0.2265  0.5425
 3245TIP3    H1 9741   6.030   3.885   3.615 -0.0250  0.4320  0.5355
 3245TIP3    H2 9742   5.956   3.826   3.497  0.9832 -0.3937  0.2978
 3246TIP3   OH2 9743   0.834   2.445   2.671  0.0449 -0.0080 -0.4117
 3246TIP3    H1 9744   0.867   2.451   2.761 -0.9628 -0.9193  0.0456
 3246TIP3    H2 9745   0.739   2.440   2.681 -0.0207 -1.5178 -1.4174
 3247TIP3   OH2 9746   5.749   0.941   2.826 -0.4657  0.4157 -0.2238
 3247TIP3    H1 9747   5.812   0.873   2.802 -0.2372  0.1464  1.0382
 3247TIP3    H2 9748   5.694   0.953   2.748 -0.5649 -1.2745 -0.4390
 3248TIP3   OH2 9749   3.949   1.950   1.111  0.7287 -0.2390  0.0194
 3248TIP3    H1 9750   3.951   2.043   1.133 -1.7860  0.0203 -0.5567
 3248TIP3    H2 9751   3.967   1.906   1.194 -2.2607  0.7781  1.3589
 3249TIP3   OH2 9752   5.510   2.743   4.025  0.1253  0.0551 -0.6123
 3249TIP3    H1 9753   5.418   2.727   4.005  0.4232 -3.0240  0.0459
 3249TIP3    H2 9754   5.547   2.777   3.943 -1.2709 -0.1440 -1.3523
 3250TIP3   OH2 9755   2.059   0.244   1.992 -0.3773  0.5104 -0.0603
 3250TIP3    H1 9756   2.090   0.269   2.078  0.9726 -1.7008  0.1711
 3250TIP3    H2 9757   2.098   0.158   1.976 -1.0583  0.5917 -2.6363
 3251TIP3   OH2 9758   2.148   0.830   1.062 -0.2115 -0.5484  0.4452
 3251TIP3    H1 9759   2.171   0.787   0.980 -1.1078 -0.3953  0.1030
 3251TIP3    H2 9760   2.152   0.760   1.127 -0.5277 -0.9075  0.0880
 3252TIP3   OH2 9761   3.741   0.669   2.703 -0.2347  0.6469  0.2341
 3252TIP3    H1 9762   3.799   0.674   2.627 -2.9169  1.2305 -1.9182
 3252TIP3    H2 9763   3.787   0.719   2.771  2.4201 -0.1728 -0.7933
 3253TIP3   OH2 9764   2.354   0.597   4.814  0.3355 -0.1776 -0.0492
 3253TIP3    H1 9765   2.379   0.658   4.883 -0.9594 -1.0892  1.2994
 3253TIP3    H2 9766   2.321   0.652   4.743  1.6442  0.7770  0.0644
 3254TIP3   OH2 9767   1.965   0.505   4.103 -0.2907 -0.0225  0.1243
 3254TIP3    H1 9768   2.026   0.434   4.085  0.5965  0.2491  1.8327
 3254TIP3    H2 9769   1.899   0.467   4.160 -0.2981  0.3034  0.3390
 3255TIP3   OH2 9770   3.664   1.968   1.709  0.5525 -0.5010 -0.1294
 3255TIP3    H1 9771   3.748   1.984   1.753  1.1775  2.2365 -2.0759
 3255TIP3    H2 9772   3.687   1.913   1.634  0.9477  1.3723 -1.4508
 3256TIP3   OH2 9773   6.245   5.557   1.948  0.1673  0.3398  0.2577
 3256TIP3    H1 9774   6.254   5.510   1.866  2.0481  0.6686  0.2211
 3256TIP3    H2 9775   6.204   5.495   2.008  0.0399 -0.3665 -0.5522
 3257TIP3   OH2 9776   5.259   0.619   2.335  0.0252 -0.2085  0.2196
 3257TIP3    H1 9777   5.181   0.652   2.290  0.3422 -0.5164 -0.5818
 3257TIP3    H2 9778   5.247   0.524   2.335  0.1559 -0.2239  0.5513
 3258TIP3   OH2 9779   3.950   4.116   1.929  0.4033 -0.1715 -0.0899
 3258TIP3    H1 9780   3.981   4.032   1.897  0.4471 -0.1914  0.0061
 3258TIP3    H2 9781   3.862   4.125   1.891  1.0496  0.5231 -1.5169
 3259TIP3   OH2 9782   1.944   0.688   4.847 -0.3959  0.1920  0.9370
 3259TIP3    H1 9783   1.901   0.769   4.874  1.9656  1.0313  2.4859
 3259TIP3    H2 9784   1.964   0.642   4.929  0.6393 -0.6839  0.2331
 3260TIP3   OH2 9785   0.951   4.181   2.046  0.0746 -0.2687  0.4570
 3260TIP3    H1 9786   0.908   4.266   2.035 -0.3815 -0.4158  1.0674
 3260TIP3    H2 9787   0.985   4.183   2.135 -1.9624 -1.6026  1.3467
 3261TIP3   OH2 9788   0.818   2.131   4.820 -0.0937  0.4926  0.4196
 3261TIP3    H1 9789   0.725   2.128   4.800 -0.3366  1.0622  1.4094
 3261TIP3    H2 9790   0.835   2.050   4.868 -0.1243  0.4876  0.4222
 3262TIP3   OH2 9791   1.536   1.168   4.502 -0.2198  0.1854  0.4340
 3262TIP3    H1 9792   1.577   1.244   4.461  1.0204 -1.2272 -1.0493
 3262TIP3    H2 9793   1.496   1.120   4.430 -0.3457 -0.9605  1.2447
 3263TIP3   OH2 9794   5.693   1.013   2.570  0.0167 -0.7381 -0.2417
 3263TIP3    H1 9795   5.649   1.063   2.502 -0.0443  0.5177  0.6969
 3263TIP3    H2 9796   5.713   0.929   2.528 -3.1078 -1.3421 -0.7796
 3264TIP3   OH2 9797   5.722   1.438   4.749  0.0187  0.0729  0.1823
 3264TIP3    H1 9798   5.813   1.457   4.727 -0.3476 -0.6282 -2.2485
 3264TIP3    H2 9799   5.715   1.343   4.744 -0.9475  0.1521 -0.2714
 3265TIP3   OH2 9800   1.343   4.997   0.684  0.5012 -0.1202 -0.7657
 3265TIP3    H1 9801   1.421   4.979   0.735  0.9420 -1.1168 -1.7467
 3265TIP3    H2 9802   1.316   5.085   0.711  0.0527 -1.0055  1.9692
 3266TIP3   OH2 9803   6.257   1.374   2.167  0.4505 -0.1286 -0.4791
 3266TIP3    H1 9804   6.207   1.454   2.153 -2.0210 -1.6559 -0.8895
 3266TIP3    H2 9805   6.318   1.396   2.237 -0.4188  1.9859 -0.3157
 3267TIP3   OH2 9806   1.325   4.799   4.402 -0.1767  0.1608 -0.4167
 3267TIP3    H1 9807   1.389   4.793   4.473  0.0108  1.8296 -0.4062
 3267TIP3    H2 9808   1.377   4.816   4.324 -0.5892  2.3103 -0.2876
 3268TIP3   OH2 9809   6.279   5.836   4.417 -0.1055 -0.0649  0.1370
 3268TIP3    H1 9810   6.333   5.772   4.370 -0.8475 -1.1819  0.7487
 3268TIP3    H2 9811   6.238   5.888   4.347  0.0328 -0.6680 -0.4104
 3269TIP3   OH2 9812   4.083   3.625   2.739 -0.4909  0.2203  0.4836
 3269TIP3    H1 9813   4.009   3.670   2.698  0.0516 -0.6801 -1.6358
 3269TIP3    H2 9814   4.152   3.629   2.673  0.0234 -2.5111  0.7360
 3270TIP3   OH2 9815   3.207   0.314   2.657 -0.1325  0.0820 -0.2578
 3270TIP3    H1 9816   3.220   0.377   2.727 -0.3919 -0.0074 -0.1267
 3270TIP3    H2 9817   3.112   0.314   2.642 -0.1047 -0.0730 -0.4465
 3271TIP3   OH2 9818   0.592   4.079   5.024 -0.2651  0.8616  0.2876
 3271TIP3    H1 9819   0.565   4.139   5.093 -1.3858  3.8786 -2.5295
 3271TIP3    H2 9820   0.679   4.108   4.999 -0.5193  0.8557 -0.6268
 3272TIP3   OH2 9821   1.329   5.165   0.997  0.4651  0.4262 -0.0454
 3272TIP3    H1 9822   1.405   5.109   1.013 -0.1173 -0.2541  0.3560
 3272TIP3    H2 9823   1.254   5.113   1.025 -0.1423  1.1482 -0.3071
 3273TIP3   OH2 9824   1.573   4.658   1.212 -0.3370  0.1142 -0.1618
 3273TIP3    H1 9825   1.521   4.654   1.132 -0.1661 -0.1074 -0.2638
 3273TIP3    H2 9826   1.654   4.612   1.190  0.2455  1.1714 -0.2578
 3274TIP3   OH2 9827   1.210   1.663   0.892 -0.0402 -0.0252 -0.0625
 3274TIP3    H1 9828   1.241   1.601   0.826 -1.1679  0.5702 -1.1966
 3274TIP3    H2 9829   1.115   1.654   0.891 -0.0775 -0.0956  1.6043
 3275TIP3   OH2 9830   3.639   2.277   0.670  0.0090  0.6895 -0.3228
 3275TIP3    H1 9831   3.652   2.262   0.576 -3.7468 -0.5714 -0.7771
 3275TIP3    H2 9832   3.684   2.203   0.711  0.0795  0.1985 -1.2361
 3276TIP3   OH2 9833   2.820   3.033   3.453  0.2461 -0.0850  0.9370
 3276TIP3    H1 9834   2.855   2.946   3.473  0.2763 -0.1388  0.6580
 3276TIP3    H2 9835   2.804   3.073   3.538  0.6982 -0.1747  1.0673
 3277TIP3   OH2 9836   4.056   2.572   3.605  1.1319 -0.9312 -0.5505
 3277TIP3    H1 9837   4.102   2.571   3.521  0.6175  0.1193 -0.8583
 3277TIP3    H2 9838   3.965   2.556   3.584  0.6903  1.0912 -0.4398
 3278TIP3   OH2 9839   0.425   0.133   0.867  0.2413 -0.1906 -0.1413
 3278TIP3    H1 9840   0.480   0.129   0.789 -0.0287 -1.7718 -0.2748
 3278TIP3    H2 9841   0.365   0.059   0.859 -0.0854 -0.1335  1.3522
 3279TIP3   OH2 9842   3.546   3.867   2.124 -0.3095 -0.5246 -0.3859
 3279TIP3    H1 9843   3.460   3.855   2.082 -0.3699 -1.8816  0.0505
 3279TIP3    H2 9844   3.609   3.840   2.057 -0.2802 -0.4514 -0.3875
 3280TIP3   OH2 9845   6.255   1.806   0.344  0.8790  0.3307  0.7687
 3280TIP3    H1 9846   6.204   1.725   0.339  0.5052  0.6029 -0.0473
 3280TIP3    H2 9847   6.193   1.872   0.374  0.6268  0.7361 -0.5512
 3281TIP3   OH2 9848   0.426   5.742   1.542  0.0680 -0.2087  0.1854
 3281TIP3    H1 9849   0.372   5.757   1.619 -0.6910 -2.5806  0.2071
 3281TIP3    H2 9850   0.380   5.673   1.494  2.2416 -1.2076 -0.5991
 3282TIP3   OH2 9851   0.498   1.553   0.312  0.5436  0.5735  0.4282
 3282TIP3    H1 9852   0.470   1.642   0.332 -0.7154  0.5279 -0.8968
 3282TIP3    H2 9853   0.558   1.530   0.382 -1.0761  1.5358  2.2361
 3283TIP3   OH2 9854   0.798   0.175   1.531  0.1028  0.5096 -0.0686
 3283TIP3    H1 9855   0.873   0.122   1.503 -0.1090  0.1324  0.0820
 3283TIP3    H2 9856   0.786   0.153   1.623  0.9301  1.8993  0.4115
 3284TIP3   OH2 9857   0.105   5.742   4.195 -0.4143  0.3454  0.0264
 3284TIP3    H1 9858   0.156   5.742   4.114  0.9427  0.4654  0.8596
 3284TIP3    H2 9859   0.094   5.649   4.216 -1.6863  0.2726 -0.8217
 3285TIP3   OH2 9860   5.687   2.512   2.925 -0.6292 -0.4324 -0.2081
 3285TIP3    H1 9861   5.758   2.473   2.874  0.6960  2.2770 -0.6758
 3285TIP3    H2 9862   5.657   2.442   2.983  1.0543 -2.2569 -1.4090
 3286TIP3   OH2 9863   2.005   1.321   4.840  0.4005  0.1817  0.1954
 3286TIP3    H1 9864   1.930   1.339   4.898  0.3591  0.3248  0.0986
 3286TIP3    H2 9865   2.032   1.407   4.809  0.8101  0.1579  0.4824
 3287TIP3   OH2 9866   1.715   2.686   4.322 -0.3130 -0.3871 -0.1346
 3287TIP3    H1 9867   1.785   2.691   4.257  1.6317  0.8304  1.8913
 3287TIP3    H2 9868   1.753   2.634   4.393 -1.8599 -0.5197  0.6193
 3288TIP3   OH2 9869   0.882   0.820   1.802  0.4955  0.3385  0.5310
 3288TIP3    H1 9870   0.935   0.853   1.874  0.5977 -2.1850  1.7246
 3288TIP3    H2 9871   0.938   0.828   1.725  2.0350 -0.7548  1.4835
 3289TIP3   OH2 9872   1.185   2.979   4.780 -0.3192 -0.2899 -0.6183
 3289TIP3    H1 9873   1.142   2.927   4.848  0.8999 -1.0770 -0.4139
 3289TIP3    H2 9874   1.124   2.977   4.706 -0.8756 -0.9198 -0.1531
 3290TIP3   OH2 9875   2.717   5.050  -0.014  0.1698 -0.2987 -0.3407
 3290TIP3    H1 9876   2.727   4.979   0.049  1.0173 -0.1002 -0.2277
 3290TIP3    H2 9877   2.779   5.117   0.016  1.7283 -0.8019 -2.1753
 3291TIP3   OH2 9878   0.209   1.875   0.178 -0.1799 -0.2809 -0.1745
 3291TIP3    H1 9879   0.207   1.910   0.089 -3.2631  0.7478  0.1644
 3291TIP3    H2 9880   0.187   1.782   0.168  1.8361 -0.7449 -0.6105
 3292TIP3   OH2 9881   4.911   0.314   4.745  0.1580  0.1775  0.6656
 3292TIP3    H1 9882   4.850   0.322   4.671  1.3297  1.0146 -0.2715
 3292TIP3    H2 9883   4.856   0.311   4.822 -1.1689 -1.7056 -0.2783
 3293TIP3   OH2 9884   5.225   5.835   4.211  0.1190 -0.2118 -0.0390
 3293TIP3    H1 9885   5.241   5.894   4.285 -0.3961 -1.3562  1.0232
 3293TIP3    H2 9886   5.235   5.890   4.134  1.5319  0.8419  0.8351
 3294TIP3   OH2 9887   1.046   3.546   1.325 -0.0945 -0.0313 -0.5665
 3294TIP3    H1 9888   1.106   3.548   1.399 -0.6210 -1.6647 -0.0342
 3294TIP3    H2 9889   0.972   3.601   1.352 -1.2141 -2.1598  1.0613
 3295TIP3   OH2 9890   0.058   4.981   4.930  0.4189 -0.0816 -0.2385
 3295TIP3    H1 9891   0.019   4.961   5.015 -1.2724  0.4922 -0.8339
 3295TIP3    H2 9892   0.135   5.034   4.950 -0.0764  0.2143  0.9205
 3296TIP3   OH2 9893   5.628   5.635   3.901 -0.3458 -0.0747  0.0128
 3296TIP3    H1 9894   5.549   5.585   3.883  0.7327 -1.3234 -1.6501
 3296TIP3    H2 9895   5.610   5.722   3.866 -0.7335 -0.5782 -1.0937
 3297TIP3   OH2 9896   0.908   0.043   1.766 -0.1673  0.6680  1.0191
 3297TIP3    H1 9897   0.920  -0.052   1.770 -1.6692  0.4763  1.6836
 3297TIP3    H2 9898   0.866   0.065   1.849 -0.5901  1.7921  0.5247
 3298TIP3   OH2 9899   0.524   3.018   2.139 -0.5507 -0.4007 -0.2992
 3298TIP3    H1 9900   0.526   2.952   2.208  1.1639  0.1896  0.2668
 3298TIP3    H2 9901   0.437   3.058   2.147 -0.4405 -0.4383  1.4375
 3299TIP3   OH2 9902   0.692   5.140   1.816 -0.1962  0.4352 -0.1594
 3299TIP3    H1 9903   0.766   5.103   1.864 -0.8121 -0.1092  0.3942
 3299TIP3    H2 9904   0.669   5.072   1.752 -0.2387  0.5899 -0.3091
 3300TIP3   OH2 9905   2.045   5.316   2.525 -0.2397  0.0834  0.4034
 3300TIP3    H1 9906   2.106   5.317   2.598  0.1689  2.4744  0.0848
 3300TIP3    H2 9907   1.960   5.297   2.565  0.3443 -1.0691  1.1357
 3301TIP3   OH2 9908   3.688   3.793   1.915  0.3155 -0.6129 -0.1170
 3301TIP3    H1 9909   3.715   3.877   1.877  2.2955 -0.7273  0.9173
 3301TIP3    H2 9910   3.621   3.760   1.855  1.7860  0.2007 -2.3537
 3302TIP3   OH2 9911   6.093   2.896   4.300  0.3171 -0.4541  0.2362
 3302TIP3    H1 9912   6.066   2.962   4.235  0.3070 -0.0619  0.6350
 3302TIP3    H2 9913   6.025   2.829   4.295  0.0425 -0.1757  0.2054
 3303TIP3   OH2 9914   4.218   2.073   5.079 -0.0933  0.1341 -0.5273
 3303TIP3    H1 9915   4.192   1.989   5.118 -0.3545 -0.1054 -1.2147
 3303TIP3    H2 9916   4.136   2.111   5.046 -0.0200  0.7862  0.0081
 3304TIP3   OH2 9917   5.713   0.110   3.054 -0.3038 -0.2841 -0.4220
 3304TIP3    H1 9918   5.667   0.178   3.004 -0.3635 -1.5971 -2.2767
 3304TIP3    H2 9919   5.719   0.145   3.142 -1.6461  1.4848 -0.9658
 3305TIP3   OH2 9920   0.552   1.278   4.697  0.1827  0.0558  0.3638
 3305TIP3    H1 9921   0.460   1.293   4.718 -0.0358 -0.2071 -0.3832
 3305TIP3    H2 9922   0.579   1.358   4.651 -0.1808 -0.5853 -1.0201
 3306TIP3   OH2 9923   1.581   4.071   5.035 -0.0565  0.0016  0.1079
 3306TIP3    H1 9924   1.568   4.118   5.117 -0.0582 -1.2804  0.8777
 3306TIP3    H2 9925   1.553   4.132   4.967 -2.6220  0.1749  1.2047
 3307TIP3   OH2 9926   1.627   1.491   0.892 -0.0150  0.2625  0.6206
 3307TIP3    H1 9927   1.579   1.566   0.857  0.8669  1.3767  1.6744
 3307TIP3    H2 9928   1.717   1.523   0.901  0.3248 -0.8350  1.3553
 3308TIP3   OH2 9929   1.937   1.039   1.638 -0.1623  0.4734  0.5777
 3308TIP3    H1 9930   1.987   1.119   1.622 -0.5510  0.7815  0.8940
 3308TIP3    H2 9931   1.857   1.051   1.587  0.4154 -0.3691 -0.5826
 3309TIP3   OH2 9932   1.596   1.045   0.639  0.2590 -0.8207 -0.7772
 3309TIP3    H1 9933   1.667   1.028   0.577 -0.2076 -1.2252 -1.2097
 3309TIP3    H2 9934   1.620   1.128   0.681  0.0501  0.0475 -2.2828
 3310TIP3   OH2 9935   3.872   2.142   3.426 -0.2240 -0.0154  0.0023
 3310TIP3    H1 9936   3.798   2.087   3.452 -1.6582  1.6599 -0.2429
 3310TIP3    H2 9937   3.884   2.202   3.500 -0.3827  0.9274 -0.7122
 3311TIP3   OH2 9938   4.691   1.954   2.752 -0.2691 -0.8007  0.5444
 3311TIP3    H1 9939   4.600   1.941   2.779 -0.8945  0.7220 -0.6942
 3311TIP3    H2 9940   4.696   1.914   2.665  0.2914 -1.0037  0.6655
 3312TIP3   OH2 9941   3.082   0.783   0.112 -0.4055  0.5288 -0.0930
 3312TIP3    H1 9942   3.027   0.803   0.036 -1.0824 -0.4814  0.1146
 3312TIP3    H2 9943   3.128   0.703   0.089 -1.6872 -0.6075  1.0680
 3313TIP3   OH2 9944   5.836   0.071   1.470  0.3217  0.1516  0.3509
 3313TIP3    H1 9945   5.904   0.111   1.417  2.1107 -1.3851  1.3670
 3313TIP3    H2 9946   5.781   0.144   1.499  1.5557  1.4355 -0.4510
 3314TIP3   OH2 9947   6.264   0.751   4.339  0.2090 -0.0559 -0.1252
 3314TIP3    H1 9948   6.218   0.803   4.273  0.3558 -1.2495 -1.2254
 3314TIP3    H2 9949   6.354   0.783   4.336  0.2516 -0.2019 -0.6485
 3315TIP3   OH2 9950   6.150   0.598   2.654 -0.3108  0.5193  0.3500
 3315TIP3    H1 9951   6.137   0.605   2.559  2.8544  2.3662 -0.1115
 3315TIP3    H2 9952   6.126   0.508   2.675 -0.3209 -0.2067 -2.3704
 3316TIP3   OH2 9953   3.333   1.007   0.138  0.1491  0.1937 -0.4654
 3316TIP3    H1 9954   3.291   1.057   0.207  2.5096  1.7168  0.0051
 3316TIP3    H2 9955   3.263   0.955   0.099 -1.5504  0.4607  2.0183
 3317TIP3   OH2 9956   2.943   0.801   0.790  0.1551 -0.3993 -0.2011
 3317TIP3    H1 9957   2.913   0.746   0.718  0.4669 -2.2802  1.0318
 3317TIP3    H2 9958   2.886   0.777   0.864  0.5663  0.6563  0.4866
 3318TIP3   OH2 9959   0.894   4.159   4.938  0.2560 -0.0405  0.0805
 3318TIP3    H1 9960   0.985   4.164   4.969  0.5584 -0.7446 -0.6319
 3318TIP3    H2 9961   0.896   4.203   4.853 -0.0704 -0.0564  0.0662
 3319TIP3   OH2 9962   2.444   1.387   3.476 -0.4485 -0.5319 -0.5165
 3319TIP3    H1 9963   2.456   1.396   3.381  1.8881  0.6231 -0.1896
 3319TIP3    H2 9964   2.528   1.354   3.508 -0.3766  1.2456  1.3754
 3320TIP3   OH2 9965   2.531   1.621   1.839  0.7028 -0.4703  0.0993
 3320TIP3    H1 9966   2.537   1.713   1.866  0.5406 -0.8668  1.5930
 3320TIP3    H2 9967   2.586   1.574   1.902 -0.0743 -1.5147  0.0274
 3321TIP3   OH2 9968   0.638   1.064   3.330 -0.5411 -0.5633 -0.5043
 3321TIP3    H1 9969   0.564   1.006   3.312 -0.2156 -1.3625  0.6292
 3321TIP3    H2 9970   0.598   1.149   3.348 -1.1401 -0.8122 -0.6538
 3322TIP3   OH2 9971   6.306   1.663   3.083 -0.4172  0.1612 -0.2494
 3322TIP3    H1 9972   6.357   1.675   3.002  0.8428  0.1640  0.5197
 3322TIP3    H2 9973   6.338   1.581   3.120 -0.3905  0.5825  0.6734
 3323TIP3   OH2 9974   4.166   4.212   0.567 -0.2474 -0.1532 -0.8988
 3323TIP3    H1 9975   4.129   4.124   0.558  1.0157 -0.7304 -0.6226
 3323TIP3    H2 9976   4.201   4.233   0.481  0.6183 -0.4742 -0.6345
 3324TIP3   OH2 9977   5.021   0.047   3.280 -0.0353 -0.0822  0.3394
 3324TIP3    H1 9978   5.030  -0.037   3.326 -1.5771 -0.2275  0.4311
 3324TIP3    H2 9979   5.022   0.113   3.349 -2.9208 -0.3347  0.7604
 3325TIP3   OH2 9980   5.224   2.368   0.701  0.2748 -0.2058  0.2904
 3325TIP3    H1 9981   5.145   2.373   0.646  0.9665 -0.1917 -0.7426
 3325TIP3    H2 9982   5.241   2.275   0.710  0.9922 -0.2022 -0.7979
 3326TIP3   OH2 9983   2.839   3.194   1.662 -0.0152  0.1034 -0.1627
 3326TIP3    H1 9984   2.781   3.169   1.591 -0.0190  2.3572 -1.0314
 3326TIP3    H2 9985   2.832   3.290   1.667  1.1368  0.1505  1.8753
 3327TIP3   OH2 9986   2.872   5.236   0.084 -0.3425  0.2241 -0.1836
 3327TIP3    H1 9987   2.913   5.314   0.047  1.3955  0.2518  1.6447
 3327TIP3    H2 9988   2.835   5.266   0.167  0.7740 -0.9533  0.7814
 3328TIP3   OH2 9989   5.382   2.326   2.848  0.5786 -0.1663 -0.1301
 3328TIP3    H1 9990   5.300   2.306   2.893  2.1633 -0.7844  2.7479
 3328TIP3    H2 9991   5.370   2.414   2.813 -1.0027  0.1008  0.9820
 3329TIP3   OH2 9992   3.348   0.054   4.120 -0.5855  0.1427  0.6267
 3329TIP3    H1 9993   3.427   0.021   4.163 -0.8363 -2.5540 -0.7128
 3329TIP3    H2 9994   3.379   0.120   4.059  0.5576 -0.3719  0.6307
 3330TIP3   OH2 9995   4.941   5.728   0.052  0.0263  0.1552  0.1909
 3330TIP3    H1 9996   4.893   5.737   0.134 -0.2063  0.2865  0.0412
 3330TIP3    H2 9997   4.956   5.634   0.043 -2.7985 -0.2594 -1.2136
 3331TIP3   OH2 9998   4.072   3.224   1.706 -0.0174 -0.1703 -0.1705
 3331TIP3    H1 9999   4.029   3.166   1.768 -1.0506  0.6616 -0.0960
 3331TIP3    H210000   4.023   3.306   1.710  1.1592  0.5840 -0.5811
 3332TIP3   OH210001   1.200   1.269   4.830 -0.8016 -0.0489 -0.1622
 3332TIP3    H110002   1.220   1.288   4.739 -0.6555  1.0515  0.0766
 3332TIP3    H210003   1.278   1.296   4.878 -1.2615  0.3557  0.3786
 3333TIP3   OH210004   1.219   0.571   4.357 -0.0491 -0.2412 -0.4400
 3333TIP3    H110005   1.268   0.652   4.371  0.9925  0.0385 -4.5379
 3333TIP3    H210006   1.287   0.505   4.339 -1.0034 -1.1007 -0.9771
 3334TIP3   OH210007   4.185   5.443   1.590  0.6741  0.1174 -0.5630
 3334TIP3    H110008   4.150   5.482   1.671  0.3736  0.9591 -1.0811
 3334TIP3    H210009   4.276   5.422   1.610  0.3647 -0.4939  0.2631
 3335TIP3   OH210010   1.469   4.201   2.188  0.2909  0.0384  0.0158
 3335TIP3    H110011   1.433   4.242   2.267 -0.4735 -0.0490 -0.2721
 3335TIP3    H210012   1.534   4.263   2.155  0.6927  0.0252  0.7706
 3336TIP3   OH210013   5.877   0.064   0.684 -0.2540  0.1885  0.2678
 3336TIP3    H110014   5.961   0.022   0.667  0.3411  1.3247  0.3350
 3336TIP3    H210015   5.866   0.058   0.779 -0.4004 -0.2145  0.2299
 3337TIP3   OH210016   4.387   1.433   0.842  0.1479  0.3405  0.0174
 3337TIP3    H110017   4.298   1.464   0.825 -0.0173  0.8481  1.6847
 3337TIP3    H210018   4.414   1.480   0.921  2.1342  0.6549 -0.7898
 3338TIP3   OH210019   3.603   5.012   4.425 -0.3304 -0.0298  0.5387
 3338TIP3    H110020   3.636   5.006   4.335  1.7624  0.1779  1.2210
 3338TIP3    H210021   3.511   4.989   4.419  0.0433 -1.2479 -1.4891
 3339TIP3   OH210022   6.249   4.423   0.240 -0.5343  0.0557  0.2220
 3339TIP3    H110023   6.330   4.393   0.282 -0.9139 -0.9789  0.2372
 3339TIP3    H210024   6.194   4.345   0.237 -1.5578  0.7699  0.2737
 3340TIP3   OH210025   2.753   2.756   2.848  0.5389  0.0654 -0.1747
 3340TIP3    H110026   2.692   2.783   2.917 -1.2652 -1.1703 -1.2140
 3340TIP3    H210027   2.799   2.681   2.886  2.6874  1.9385  1.2098
 3341TIP3   OH210028   1.037   3.657   0.822 -0.8928 -0.2026 -0.8684
 3341TIP3    H110029   1.035   3.645   0.917 -0.5504  1.6960 -0.5778
 3341TIP3    H210030   1.126   3.688   0.805 -0.5614 -1.6829 -1.9936
 3342TIP3   OH210031   2.146   2.519   3.093  0.5146 -0.5931  0.2624
 3342TIP3    H110032   2.231   2.496   3.055 -0.0241 -1.9809 -0.1900
 3342TIP3    H210033   2.124   2.444   3.149 -1.0191 -0.9228 -0.7076
 3343TIP3   OH210034   4.122   5.149   2.348 -0.4754  0.5973  0.1206
 3343TIP3    H110035   4.153   5.229   2.306 -0.4485  1.0595  1.0039
 3343TIP3    H210036   4.190   5.084   2.328  0.6246  1.3512  1.2189
 3344TIP3   OH210037   2.661   2.411   2.257  0.7011 -0.3815  0.4458
 3344TIP3    H110038   2.690   2.369   2.338  1.6574  0.1914  0.4181
 3344TIP3    H210039   2.686   2.349   2.188 -1.8373 -1.7873  0.6545
 3345TIP3   OH210040   2.650   4.510   0.050  0.1259  0.2477  0.0835
 3345TIP3    H110041   2.621   4.597   0.076 -0.0171  0.0134  0.7354
 3345TIP3    H210042   2.612   4.451   0.116  0.0156 -0.3334 -0.4855
 3346TIP3   OH210043   2.052   2.337   0.135  0.0759 -0.2183  0.3044
 3346TIP3    H110044   1.978   2.306   0.082  1.3108 -0.5873 -1.2948
 3346TIP3    H210045   2.121   2.273   0.118  0.4642 -0.4830  2.6050
 3347TIP3   OH210046   1.209   2.358   2.197 -0.5657  0.1484 -0.5099
 3347TIP3    H110047   1.256   2.280   2.166 -0.7306 -0.0177 -0.3426
 3347TIP3    H210048   1.117   2.341   2.175 -0.7496 -0.1649  0.4483
 3348TIP3   OH210049   5.954   5.294   3.372 -0.0767  0.1480  0.0232
 3348TIP3    H110050   5.958   5.385   3.400 -1.6058  0.1395  0.3869
 3348TIP3    H210051   6.023   5.286   3.306  0.4854  1.3920  0.4310
 3349TIP3   OH210052   4.206   2.315   2.234  0.1212  0.3945 -0.2948
 3349TIP3    H110053   4.167   2.350   2.314 -0.2691  1.2469 -0.8359
 3349TIP3    H210054   4.137   2.323   2.169  0.6449  0.3147 -0.8677
 3350TIP3   OH210055   5.488   2.804   1.850  0.1433  0.5504  0.7591
 3350TIP3    H110056   5.545   2.871   1.888  1.1502 -0.1223  0.4714
 3350TIP3    H210057   5.533   2.722   1.868 -0.8402 -0.0133  0.6812
 3351TIP3   OH210058   6.040   5.454   4.569 -0.1978 -0.0345 -0.0526
 3351TIP3    H110059   6.082   5.435   4.485 -0.0588 -0.0508  0.0204
 3351TIP3    H210060   6.113   5.469   4.629 -0.1630 -2.7937  0.7411
 3352TIP3   OH210061  -0.014   4.796   4.167 -0.2166 -0.0808  0.2705
 3352TIP3    H110062   0.045   4.785   4.092 -0.9621  0.3954 -0.3951
 3352TIP3    H210063   0.032   4.859   4.224  0.1863 -0.1671  0.0490
 3353TIP3   OH210064   2.899   3.920   4.499 -0.3716 -0.3711  0.0532
 3353TIP3    H110065   2.815   3.967   4.494  1.1245  2.4007 -2.4246
 3353TIP3    H210066   2.963   3.988   4.520  1.4106 -2.2623  1.0875
 3354TIP3   OH210067   3.074   3.203   3.979  0.5517  0.2924  0.4234
 3354TIP3    H110068   3.027   3.122   4.002 -0.3118  0.8152  0.5257
 3354TIP3    H210069   3.065   3.210   3.884 -0.6141  0.9949  0.5585
 3355TIP3   OH210070   1.358   0.577   4.832 -0.1216 -0.3580 -0.3438
 3355TIP3    H110071   1.299   0.596   4.906  1.1568  0.4231  0.5341
 3355TIP3    H210072   1.444   0.604   4.864  1.3380 -4.3056 -0.3843
 3356TIP3   OH210073   0.541   3.440   3.782 -0.0368 -0.2083  0.1724
 3356TIP3    H110074   0.464   3.392   3.752  0.5068  0.4427 -2.4887
 3356TIP3    H210075   0.611   3.375   3.781 -0.0663 -0.2448  0.3384
 3357TIP3   OH210076   3.355   5.400   3.123 -0.3962 -0.2757  0.3163
 3357TIP3    H110077   3.330   5.413   3.032 -0.2932 -0.9430  0.1836
 3357TIP3    H210078   3.446   5.371   3.118 -0.1231  0.4964  0.6876
 3358TIP3   OH210079   0.517   5.939   3.376 -0.5363  0.2464 -0.3712
 3358TIP3    H110080   0.453   6.010   3.382  0.0654  0.7857 -0.2262
 3358TIP3    H210081   0.518   5.914   3.284 -2.1149 -0.8633 -0.1282
 3359TIP3   OH210082   0.628   3.119   0.029 -0.8992 -0.2279  0.1383
 3359TIP3    H110083   0.706   3.084   0.071 -1.8209 -0.6440  1.5970
 3359TIP3    H210084   0.609   3.057  -0.042  0.0086 -0.1827 -0.1509
 3360TIP3   OH210085   5.681   2.988   4.332  0.9514  0.6472  0.3645
 3360TIP3    H110086   5.677   3.080   4.358 -1.6507  0.9954 -0.9268
 3360TIP3    H210087   5.689   2.990   4.236  1.2182 -0.4911  0.3414
 3361TIP3   OH210088   2.147   3.081   5.056  0.0166 -0.2589 -0.6561
 3361TIP3    H110089   2.235   3.091   5.092  0.1209 -0.6782 -0.7860
 3361TIP3    H210090   2.161   3.045   4.968 -0.1951  1.4389 -1.4305
 3362TIP3   OH210091   2.625   5.072   2.831  0.5273 -0.1947 -0.7349
 3362TIP3    H110092   2.579   5.109   2.756 -0.0362 -2.4620 -1.5848
 3362TIP3    H210093   2.664   5.148   2.875 -2.4552  1.6751 -1.0085
 3363TIP3   OH210094   1.902   0.490   1.948  0.0765 -0.3927  0.5995
 3363TIP3    H110095   1.955   0.413   1.931  0.6022  0.2209 -0.7239
 3363TIP3    H210096   1.814   0.466   1.919 -0.4456 -1.4227  2.8294
 3364TIP3   OH210097   3.153   5.967   1.908 -0.3075  0.3331  0.1289
 3364TIP3    H110098   3.118   5.892   1.860  0.7368  1.2302 -2.2259
 3364TIP3    H210099   3.239   5.938   1.939 -0.5933  0.0497  0.6697
 3365TIP3   OH210100   2.552   4.165   4.716  0.0916  0.5602 -0.3941
 3365TIP3    H110101   2.497   4.219   4.773 -0.4192 -1.3718  1.0042
 3365TIP3    H210102   2.627   4.142   4.770 -1.4066 -3.0704  0.3866
 3366TIP3   OH210103   1.939   0.737   3.532 -0.3921 -0.2791 -0.5088
 3366TIP3    H110104   1.857   0.748   3.484  0.0792  2.0908 -0.8746
 3366TIP3    H210105   1.984   0.666   3.486  0.2867  2.2188 -4.1163
 3367TIP3   OH210106   1.826   4.603   0.328  0.1114  0.2426  0.5149
 3367TIP3    H110107   1.765   4.672   0.304  0.6658  0.5360 -0.0801
 3367TIP3    H210108   1.900   4.649   0.368  0.3692 -0.0172  0.3451
 3368TIP3   OH210109   4.770   5.033   4.192 -0.2670  0.5450 -0.2898
 3368TIP3    H110110   4.773   4.955   4.248  0.5127  1.2485  0.6797
 3368TIP3    H210111   4.731   5.101   4.247 -1.8261  0.6338 -1.4258
 3369TIP3   OH210112   1.440   0.950   2.414  0.1241  0.0032  0.4926
 3369TIP3    H110113   1.365   1.006   2.396  0.1597 -0.5866 -1.7842
 3369TIP3    H210114   1.473   0.925   2.328  1.8185 -1.2488  1.4367
 3370TIP3   OH210115   3.672   5.051   0.613 -0.2254 -0.5363 -0.4282
 3370TIP3    H110116   3.586   5.027   0.649 -0.3029  0.5822  0.1792
 3370TIP3    H210117   3.696   4.977   0.558 -1.1184 -1.3242  0.2050
 3371TIP3   OH210118   6.154   5.502   2.832  0.0130  0.4487  0.4575
 3371TIP3    H110119   6.099   5.432   2.798  0.7746  0.5238 -1.0420
 3371TIP3    H210120   6.189   5.546   2.754  1.8004  0.6987  1.3266
 3372TIP3   OH210121   6.032   1.857   2.192 -0.3669 -0.4075 -0.1250
 3372TIP3    H110122   6.106   1.845   2.252 -0.6321 -0.9012  0.1103
 3372TIP3    H210123   5.974   1.918   2.238 -0.2789 -0.3104 -0.1442
 3373TIP3   OH210124   3.274   5.228   3.984  0.0132 -0.2347 -0.2939
 3373TIP3    H110125   3.191   5.197   4.022 -0.1095  0.8114  0.3282
 3373TIP3    H210126   3.248   5.282   3.910 -0.0083  1.9610  1.2385
 3374TIP3   OH210127   3.104   1.462   4.329  0.3750  0.5026  0.3012
 3374TIP3    H110128   3.057   1.542   4.353  0.5728  0.1641  1.8815
 3374TIP3    H210129   3.052   1.425   4.257 -1.6315  0.3328  1.7454
 3375TIP3   OH210130   5.760   3.656   3.731 -0.0849  0.6038 -0.7470
 3375TIP3    H110131   5.812   3.576   3.722 -0.5567  0.1510  0.3211
 3375TIP3    H210132   5.673   3.631   3.698 -0.5162  0.3379  0.5049
 3376TIP3   OH210133   5.358   0.754   3.004 -0.0501 -0.2690  0.1135
 3376TIP3    H110134   5.407   0.672   3.000 -1.1802 -1.1264  2.1991
 3376TIP3    H210135   5.414   0.814   3.053 -1.0426 -1.3297  2.7345
 3377TIP3   OH210136   0.300   1.061   4.593 -0.6522 -0.0813  0.2260
 3377TIP3    H110137   0.393   1.064   4.571 -0.5489 -2.3725  0.1087
 3377TIP3    H210138   0.262   1.135   4.546  0.9937  0.5036 -0.2561
 3378TIP3   OH210139   0.214   3.869   2.412 -0.4364 -0.6994  0.1348
 3378TIP3    H110140   0.247   3.819   2.338  1.0581  0.2397  0.1341
 3378TIP3    H210141   0.182   3.951   2.374  0.8214  0.0094  0.5584
 3379TIP3   OH210142   2.285   1.414   2.250  0.5716 -0.2728 -0.1657
 3379TIP3    H110143   2.357   1.472   2.276 -0.5372  0.3990  1.5084
 3379TIP3    H210144   2.300   1.333   2.300  0.2481 -0.1894  0.0652
 3380TIP3   OH210145   1.832   2.106   2.830 -0.5603  0.2907  0.7850
 3380TIP3    H110146   1.827   2.149   2.745  1.4405 -1.1990 -0.1915
 3380TIP3    H210147   1.795   2.019   2.814  1.0828 -0.4886  1.0085
 3381TIP3   OH210148   0.364   2.724   4.146 -0.4942 -0.1234  0.2844
 3381TIP3    H110149   0.299   2.700   4.212 -1.5208  1.6343 -0.0468
 3381TIP3    H210150   0.340   2.672   4.069  0.0567 -1.3637  0.9137
 3382TIP3   OH210151   5.785   1.977   4.973 -0.1901  0.5583  0.1517
 3382TIP3    H110152   5.870   2.006   5.007 -0.8887  1.1071  1.5000
 3382TIP3    H210153   5.787   1.882   4.983  1.4935  0.1377 -2.8413
 3383TIP3   OH210154   2.640   5.829   5.121  0.0640 -1.1148 -0.6362
 3383TIP3    H110155   2.622   5.735   5.116 -0.6930 -0.9625 -0.9702
 3383TIP3    H210156   2.631   5.851   5.214  3.0975 -1.8860 -0.0722
 3384TIP3   OH210157   3.013   4.859   2.682  0.3435 -0.0740  0.1922
 3384TIP3    H110158   3.070   4.789   2.649 -0.7991 -2.2836  2.5616
 3384TIP3    H210159   2.969   4.893   2.604  0.2273 -2.6821 -0.9928
 3385TIP3   OH210160   0.477   1.240   0.913  0.0268  0.2045  0.4036
 3385TIP3    H110161   0.396   1.227   0.864 -0.6315  1.3780  1.1321
 3385TIP3    H210162   0.498   1.332   0.899  0.3561  0.3068  1.5358
 3386TIP3   OH210163   2.671   3.542   2.048 -0.3720  0.5031 -0.1676
 3386TIP3    H110164   2.678   3.594   2.128  0.2761  2.6239 -1.5142
 3386TIP3    H210165   2.762   3.534   2.018 -0.7792  1.4880 -1.7282
 3387TIP3   OH210166   1.200   4.731   2.243  0.3654 -0.2253 -0.1854
 3387TIP3    H110167   1.129   4.704   2.185  0.8651 -0.3731 -0.7337
 3387TIP3    H210168   1.164   4.720   2.331  0.0953 -1.4229 -0.4190
 3388TIP3   OH210169   3.675   5.750   0.858  0.3447 -0.7752  0.0866
 3388TIP3    H110170   3.733   5.709   0.795  0.3936 -0.6892  0.0748
 3388TIP3    H210171   3.654   5.681   0.920  0.4629 -0.8056  0.0934
 3389TIP3   OH210172   0.639   0.804   1.649 -0.2366 -0.6183 -0.3359
 3389TIP3    H110173   0.600   0.885   1.682 -1.0485  0.3905 -3.3562
 3389TIP3    H210174   0.717   0.791   1.701 -1.3219  0.8101  1.7841
 3390TIP3   OH210175   0.449   1.704   2.171  0.2164 -0.1860  0.1478
 3390TIP3    H110176   0.472   1.637   2.106 -0.4447 -2.0974  1.7590
 3390TIP3    H210177   0.534   1.736   2.204  0.5456  0.4281 -1.2445
 3391TIP3   OH210178   1.598   3.713   4.832 -0.2551 -0.2444  0.4161
 3391TIP3    H110179   1.557   3.765   4.901  0.2209  0.0522  0.4866
 3391TIP3    H210180   1.532   3.649   4.807 -1.0602  0.7537 -0.0565
 3392TIP3   OH210181   3.965   4.720   5.010  0.4114  0.2320  0.3010
 3392TIP3    H110182   3.888   4.675   4.974  0.8798 -1.6528  1.4907
 3392TIP3    H210183   4.009   4.757   4.934 -0.9692  0.2177 -0.5445
 3393TIP3   OH210184   0.529   5.268   5.142  0.1559  0.5601  0.3431
 3393TIP3    H110185   0.492   5.185   5.109  0.9063  0.0206  0.8206
 3393TIP3    H210186   0.613   5.276   5.097 -0.6444  1.9593 -0.9906
 3394TIP3   OH210187   2.783   5.357   0.310 -0.4483  0.7293 -0.8202
 3394TIP3    H110188   2.737   5.376   0.391 -0.0762  1.2437 -0.7239
 3394TIP3    H210189   2.825   5.440   0.286  1.1673  0.0698 -0.4235
 3395TIP3   OH210190   5.613   1.600   3.528 -0.4375 -0.4280  0.0092
 3395TIP3    H110191   5.572   1.614   3.443  1.5830  2.8123 -0.6296
 3395TIP3    H210192   5.682   1.536   3.512  0.9947  1.3352 -1.3072
 3396TIP3   OH210193   2.136   0.106   4.198  0.1298  0.2454 -0.0296
 3396TIP3    H110194   2.196   0.039   4.228 -2.3603 -1.2529  1.9565
 3396TIP3    H210195   2.138   0.173   4.267  0.4438  0.8238 -0.5882
 3397TIP3   OH210196   1.861   1.610   2.950 -0.4823  0.1622 -0.0598
 3397TIP3    H110197   1.927   1.594   3.017 -0.0592  0.1161 -0.4828
 3397TIP3    H210198   1.905   1.588   2.868 -0.8737  0.5877 -0.3864
 3398TIP3   OH210199   5.623   2.348   3.170  0.9170 -0.0577  0.0771
 3398TIP3    H110200   5.695   2.332   3.231  0.6936  0.6108  0.5332
 3398TIP3    H210201   5.552   2.382   3.225  0.6368  0.3549 -0.5250
 3399TIP3   OH210202   5.591   5.588   4.481 -0.1581  0.1738  0.4646
 3399TIP3    H110203   5.539   5.624   4.409 -0.1588 -0.6793  0.0337
 3399TIP3    H210204   5.527   5.546   4.538  0.0930 -1.2727 -0.2982
 3400TIP3   OH210205   1.423   0.790   2.636  0.2654 -0.5642  0.1711
 3400TIP3    H110206   1.461   0.823   2.555 -0.3104  0.1144  0.1672
 3400TIP3    H210207   1.487   0.727   2.669  1.5744  0.7952  0.3454
 3401TIP3   OH210208   2.545   0.371   2.255 -0.2355  0.9080  0.7391
 3401TIP3    H110209   2.536   0.465   2.267  0.8013  1.4009 -1.8236
 3401TIP3    H210210   2.521   0.334   2.340 -1.1546  3.4230  1.6636
 3402TIP3   OH210211   2.708   4.237   3.234 -0.2154  0.3823 -0.4228
 3402TIP3    H110212   2.778   4.230   3.169 -0.9241  0.7702 -1.2495
 3402TIP3    H210213   2.642   4.175   3.205 -0.1275 -0.1408  0.4749
 3403TIP3   OH210214   5.492   3.597   2.136  0.2513  0.3328 -0.5258
 3403TIP3    H110215   5.576   3.552   2.146 -0.1512 -0.0371  1.4593
 3403TIP3    H210216   5.505   3.683   2.176  0.2136  1.0329 -1.9289
 3404TIP3   OH210217   3.556   2.201   2.874  0.0220 -0.4018  0.2066
 3404TIP3    H110218   3.532   2.228   2.963 -0.7228 -0.9515  0.1924
 3404TIP3    H210219   3.510   2.117   2.862  0.5674 -0.6114 -0.4945
 3405TIP3   OH210220   4.515   5.562   0.913 -0.0690 -0.0659 -0.0087
 3405TIP3    H110221   4.469   5.559   0.829  0.0336 -0.8993 -0.0379
 3405TIP3    H210222   4.597   5.608   0.893 -0.5308  0.7312 -0.1172
 3406TIP3   OH210223   0.893   4.827   0.759 -0.0627  0.3905 -0.2155
 3406TIP3    H110224   0.920   4.735   0.758 -0.9680  0.0814  1.1849
 3406TIP3    H210225   0.886   4.851   0.667 -1.1678 -1.3546 -0.6217
 3407TIP3   OH210226   3.914   2.335   4.176  0.3660 -0.0280 -0.2044
 3407TIP3    H110227   3.894   2.426   4.155 -1.6531 -0.3296  0.2156
 3407TIP3    H210228   3.922   2.332   4.271 -0.4140 -0.4249 -0.1438
 3408TIP3   OH210229   5.098   1.136   5.125  0.4317 -0.5414 -0.3059
 3408TIP3    H110230   5.066   1.205   5.184  2.1915 -1.5161  1.9742
 3408TIP3    H210231   5.032   1.067   5.132  0.3225 -0.4082  0.0633
 3409TIP3   OH210232   5.118   1.695   1.364  0.0305 -0.6757 -0.5385
 3409TIP3    H110233   5.207   1.688   1.329  0.8424  1.8480  0.7732
 3409TIP3    H210234   5.090   1.604   1.376  2.3325 -1.5509 -1.1983
 3410TIP3   OH210235   3.947   1.154   1.404 -0.3466  0.5619 -0.0735
 3410TIP3    H110236   4.039   1.151   1.376 -0.5388  1.8810 -0.9532
 3410TIP3    H210237   3.949   1.199   1.488  0.0103 -1.4280  1.0373
 3411TIP3   OH210238   0.096   1.746   2.838 -0.0948 -0.7003 -0.1002
 3411TIP3    H110239   0.126   1.745   2.747 -0.5852 -0.6915 -0.2620
 3411TIP3    H210240   0.174   1.769   2.888  0.0031  0.0497 -0.5856
 3412TIP3   OH210241   2.605   1.218   1.079 -0.4324 -0.6245 -0.4479
 3412TIP3    H110242   2.610   1.197   1.172  0.5693 -1.3945 -0.6681
 3412TIP3    H210243   2.637   1.140   1.034 -0.9148 -0.2671 -1.4502
 3413TIP3   OH210244   0.146   1.419   1.077 -0.4876 -0.0413 -0.0956
 3413TIP3    H110245   0.171   1.364   1.152 -1.0723  1.2209  1.0588
 3413TIP3    H210246   0.229   1.439   1.034 -0.0752 -0.2930  0.5678
 3414TIP3   OH210247   5.788   4.705   1.129  0.2817  0.2103  0.4569
 3414TIP3    H110248   5.733   4.694   1.207  4.1941 -2.0379  3.3037
 3414TIP3    H210249   5.838   4.785   1.147  0.0992  0.5672 -0.5866
 3415TIP3   OH210250   1.270   0.232   3.731 -0.2096  0.0031  0.2474
 3415TIP3    H110251   1.336   0.220   3.799  0.8105 -0.7051 -0.8362
 3415TIP3    H210252   1.251   0.326   3.732 -0.9821 -0.1193  2.1758
 3416TIP3   OH210253   1.699   0.275   3.120  0.1094 -0.3237  0.1968
 3416TIP3    H110254   1.651   0.200   3.155 -0.8683 -1.1359 -2.6254
 3416TIP3    H210255   1.675   0.348   3.178 -1.0734 -1.6072  1.4131
 3417TIP3   OH210256   0.823   3.706   2.961 -0.3697  0.5368  0.2010
 3417TIP3    H110257   0.767   3.771   2.918 -2.3369  0.7293  2.8537
 3417TIP3    H210258   0.776   3.681   3.040  0.6829 -3.5647 -0.2313
 3418TIP3   OH210259   3.954   2.240   1.567 -0.4202  0.4839  0.0248
 3418TIP3    H110260   3.924   2.322   1.528 -0.8320 -0.0116 -0.7199
 3418TIP3    H210261   3.909   2.171   1.518  1.9210 -0.3126 -1.1921
 3419TIP3   OH210262   5.337   3.716   4.338 -0.4353  0.1036 -0.4769
 3419TIP3    H110263   5.280   3.782   4.377  0.7387  1.2686 -0.6846
 3419TIP3    H210264   5.317   3.718   4.245 -1.9151 -1.3769 -0.2380
 3420TIP3   OH210265   5.446   4.393   4.812  0.1661 -0.0196 -0.1055
 3420TIP3    H110266   5.508   4.465   4.823  2.5611 -1.8958 -0.5281
 3420TIP3    H210267   5.484   4.339   4.743 -2.0180 -1.2336 -0.4422
 3421TIP3   OH210268   2.912   2.581   0.880 -0.0775 -0.2200 -0.3120
 3421TIP3    H110269   2.823   2.551   0.901  0.2500  0.0583  1.6527
 3421TIP3    H210270   2.969   2.512   0.913  0.4672 -0.7668 -2.2577
 3422TIP3   OH210271   1.172   4.423   0.425 -0.8011 -0.8879  0.0237
 3422TIP3    H110272   1.132   4.395   0.343  1.3616 -1.2602 -0.9884
 3422TIP3    H210273   1.266   4.419   0.408 -0.3043  0.7788  1.9600
 3423TIP3   OH210274   1.597   1.879   1.074  0.0609  0.1094 -0.6133
 3423TIP3    H110275   1.645   1.877   0.992 -1.4142  0.7673 -1.5425
 3423TIP3    H210276   1.586   1.787   1.099 -2.2733 -0.3632 -2.9199
 3424TIP3   OH210277   3.936   1.720   0.948 -0.3330  0.1704 -0.0757
 3424TIP3    H110278   3.955   1.732   1.041  0.5349  0.9413 -0.3290
 3424TIP3    H210279   3.903   1.805   0.919 -0.4507 -0.0186 -0.5001
 3425TIP3   OH210280   0.943   2.461   3.472 -0.2308  0.5613 -0.1360
 3425TIP3    H110281   0.910   2.375   3.498  1.2229  0.0506  0.1278
 3425TIP3    H210282   0.916   2.470   3.381  1.0181 -0.9530 -0.7072
 3426TIP3   OH210283   5.626   1.853   4.211  0.2057  0.2459  0.0716
 3426TIP3    H110284   5.572   1.794   4.264  0.7652 -0.3718 -0.0518
 3426TIP3    H210285   5.706   1.805   4.193  0.5820  0.9581 -0.2160
 3427TIP3   OH210286   4.606   1.412   3.814 -0.1079  0.0860 -0.3811
 3427TIP3    H110287   4.657   1.365   3.880 -2.5909 -0.6310  1.1148
 3427TIP3    H210288   4.556   1.344   3.769  1.0014  0.6355 -2.6326
 3428TIP3   OH210289   3.421   3.555   4.594  0.5426 -0.4844 -0.3257
 3428TIP3    H110290   3.464   3.575   4.677  1.5516  2.0052 -1.3623
 3428TIP3    H210291   3.483   3.501   4.546  0.9359 -0.0222 -0.3418
 3429TIP3   OH210292   2.430   5.203   4.190  0.9034  0.1563 -0.0853
 3429TIP3    H110293   2.407   5.173   4.102  0.5928  0.3718 -0.0752
 3429TIP3    H210294   2.440   5.122   4.241 -0.1441  0.0618 -0.0071
 3430TIP3   OH210295   0.817   5.222   1.484 -0.4616  0.1298  0.8807
 3430TIP3    H110296   0.812   5.215   1.388 -0.8154  0.8173  0.8384
 3430TIP3    H210297   0.855   5.308   1.499 -0.3190 -0.0169  1.3618
 3431TIP3   OH210298   5.792   1.790   3.032 -0.2269  0.5897 -0.2202
 3431TIP3    H110299   5.808   1.884   3.024  0.7299  0.3487 -1.6475
 3431TIP3    H210300   5.736   1.769   2.958  1.8983 -0.3824 -1.6677
 3432TIP3   OH210301   0.113   5.326   3.094  0.5078 -0.3027 -0.1837
 3432TIP3    H110302   0.061   5.322   3.175  1.3625 -0.6773  0.3625
 3432TIP3    H210303   0.121   5.419   3.076 -2.6913 -0.2189 -1.8562
 3433TIP3   OH210304   3.555   4.076   2.632 -0.1542 -0.4940  0.1708
 3433TIP3    H110305   3.492   4.070   2.560 -0.3127 -2.1348  0.4127
 3433TIP3    H210306   3.520   4.018   2.699  0.5928  0.1336  1.1202
 3434TIP3   OH210307   5.324   4.314   1.272 -0.2081  0.2596 -0.3917
 3434TIP3    H110308   5.254   4.353   1.324 -1.9548 -2.3676 -0.5396
 3434TIP3    H210309   5.285   4.234   1.236  3.2352 -2.0993  0.5750
 3435TIP3   OH210310   5.113   5.757   2.079 -0.9337 -0.3226 -0.3049
 3435TIP3    H110311   5.140   5.686   2.137 -1.0884 -0.7826 -0.7840
 3435TIP3    H210312   5.144   5.836   2.122 -2.0549 -0.5480  1.0028
 3436TIP3   OH210313   1.677   5.878   3.253  0.3805 -0.3652 -0.3587
 3436TIP3    H110314   1.740   5.879   3.180 -0.8848 -1.1072 -1.5252
 3436TIP3    H210315   1.624   5.800   3.237 -2.5167  1.5403 -0.9496
 3437TIP3   OH210316   3.245   1.675   1.205 -0.0843 -0.0981 -0.1374
 3437TIP3    H110317   3.290   1.733   1.144  0.4757  0.1649  0.5192
 3437TIP3    H210318   3.305   1.665   1.278 -0.8888 -0.1293  0.5359
 3438TIP3   OH210319   3.741   0.737   4.005 -0.2807 -0.1329  0.6472
 3438TIP3    H110320   3.700   0.823   4.008 -0.1675 -0.0652  0.3540
 3438TIP3    H210321   3.670   0.676   3.987 -0.2610 -0.0225  0.1924
 3439TIP3   OH210322   0.853   5.448   2.186  0.1052 -0.3820 -0.1261
 3439TIP3    H110323   0.830   5.476   2.098  0.5499  1.5087  0.3083
 3439TIP3    H210324   0.921   5.382   2.174  1.3943  1.0647 -1.2145
 3440TIP3   OH210325   2.858   3.502   1.723 -0.2921 -0.2104  0.0194
 3440TIP3    H110326   2.910   3.507   1.803 -0.8475 -1.9272  0.5260
 3440TIP3    H210327   2.774   3.541   1.747 -0.6655 -1.2599  0.4851
 3441TIP3   OH210328   4.029   0.993   5.014 -0.3620  0.0089  0.5284
 3441TIP3    H110329   3.966   1.039   4.958 -0.7666 -0.5412  0.5271
 3441TIP3    H210330   3.986   0.987   5.099  0.1845  0.6918  0.8642
 3442TIP3   OH210331   5.916   1.751   4.703 -0.7558  0.1838  0.3285
 3442TIP3    H110332   6.011   1.748   4.688 -0.7584  1.4338 -0.0894
 3442TIP3    H210333   5.907   1.750   4.798 -0.3233  0.0301  0.3724
 3443TIP3   OH210334   4.051   1.273   0.045 -0.0098  0.0775 -0.1035
 3443TIP3    H110335   3.962   1.296   0.015  0.5802  0.2750 -1.8546
 3443TIP3    H210336   4.079   1.349   0.096 -0.7817  0.0904  0.3117
 3444TIP3   OH210337   2.996   0.333   3.160  0.3378  0.3858  0.0524
 3444TIP3    H110338   3.009   0.401   3.226  1.1557  2.3270 -1.9497
 3444TIP3    H210339   2.983   0.252   3.210 -1.1983  2.0492  2.5778
 3445TIP3   OH210340   1.878   0.216   4.029 -0.2440  0.0554 -0.2398
 3445TIP3    H110341   1.858   0.308   4.043 -1.6391 -0.4853  1.6471
 3445TIP3    H210342   1.826   0.192   3.952  0.4046  0.8807 -0.9643
 3446TIP3   OH210343   5.350   3.329   1.106  0.1061  0.0268  0.0015
 3446TIP3    H110344   5.435   3.320   1.149  0.0191 -1.9485 -0.1456
 3446TIP3    H210345   5.286   3.326   1.177  0.0909 -0.2937 -0.0239
 3447TIP3   OH210346   5.622   0.943   5.047 -0.3839 -0.5821  0.1025
 3447TIP3    H110347   5.707   0.913   5.016 -0.2621  0.8592 -1.0913
 3447TIP3    H210348   5.642   1.003   5.119 -0.4438 -0.8766  0.3669
 3448TIP3   OH210349   3.447   5.751   4.070 -0.1736 -0.3118 -0.4606
 3448TIP3    H110350   3.497   5.810   4.013  1.0445 -0.8900 -0.0179
 3448TIP3    H210351   3.477   5.663   4.047  0.0337 -0.5863  0.7780
 3449TIP3   OH210352   6.175   2.559   4.434  0.5829  0.1356 -0.4833
 3449TIP3    H110353   6.240   2.489   4.439  0.6894  0.0475 -2.2955
 3449TIP3    H210354   6.107   2.523   4.378 -0.3837  0.7373  0.2850
 3450TIP3   OH210355   0.695   1.656   0.878  0.1530 -0.2164  0.2766
 3450TIP3    H110356   0.780   1.628   0.844  0.8138  1.2545  0.6579
 3450TIP3    H210357   0.712   1.742   0.918 -2.1905  1.8416 -2.7465
 3451TIP3   OH210358   3.882   0.666   0.716  0.4242 -0.4903 -0.2382
 3451TIP3    H110359   3.808   0.634   0.768  0.7336 -0.4211  0.2503
 3451TIP3    H210360   3.946   0.696   0.781  0.5513  0.1916 -0.6663
 3452TIP3   OH210361   3.883   3.289   4.157  0.4226  0.3096  0.1184
 3452TIP3    H110362   3.910   3.218   4.098 -2.3608 -1.3176  0.6379
 3452TIP3    H210363   3.820   3.340   4.105 -0.0809  0.4239  0.8310
 3453TIP3   OH210364   2.753   0.263   3.528 -0.5029 -0.1093 -0.5253
 3453TIP3    H110365   2.817   0.206   3.487 -0.4532 -0.9809  0.7099
 3453TIP3    H210366   2.740   0.226   3.616  0.3735  2.4036  0.7654
 3454TIP3   OH210367   1.432   1.454   2.639  0.4599  0.2314 -0.0623
 3454TIP3    H110368   1.343   1.465   2.674 -0.0343  0.5527 -1.3634
 3454TIP3    H210369   1.464   1.374   2.681 -1.4541 -1.4092 -1.5493
 3455TIP3   OH210370   2.794   2.920   1.739  0.0086 -0.3053  0.2843
 3455TIP3    H110371   2.828   3.001   1.703  0.3010 -1.3339 -1.9157
 3455TIP3    H210372   2.871   2.865   1.752 -0.3100 -0.7435  0.3589
 3456TIP3   OH210373   4.774   1.439   3.117 -0.6701  0.3274 -0.2937
 3456TIP3    H110374   4.828   1.518   3.112  1.1986 -0.8574  0.0661
 3456TIP3    H210375   4.773   1.405   3.028 -0.9706  0.4506 -0.3360
 3457TIP3   OH210376   0.273   1.864   3.739 -0.5575  0.5761 -1.1056
 3457TIP3    H110377   0.304   1.937   3.792 -0.7072  0.2515 -0.5690
 3457TIP3    H210378   0.214   1.904   3.675  0.1394  1.0541 -1.4594
 3458TIP3   OH210379   5.009   2.249   0.548 -0.5378  0.3983  0.1261
 3458TIP3    H110380   4.966   2.294   0.475 -0.8800  3.0058  1.8107
 3458TIP3    H210381   5.097   2.230   0.517 -0.0901  3.0947 -0.4234
 3459TIP3   OH210382   2.163   1.205   3.222 -0.1325  0.2200 -0.2675
 3459TIP3    H110383   2.193   1.250   3.301 -0.8127 -0.1902  0.2397
 3459TIP3    H210384   2.071   1.186   3.239  0.5396 -3.1907  0.4625
 3460TIP3   OH210385   2.432   5.379   2.110  0.0475 -0.4439 -0.1264
 3460TIP3    H110386   2.479   5.462   2.121  0.5844 -0.5984 -1.1490
 3460TIP3    H210387   2.342   5.400   2.134  0.0324  0.6169 -1.0198
 3461TIP3   OH210388   2.010   4.052   3.066  0.1187 -0.4504 -0.0006
 3461TIP3    H110389   1.952   4.005   3.005  0.5524 -0.7009 -0.2317
 3461TIP3    H210390   2.098   4.021   3.043  0.2865 -0.5662  0.7721
 3462TIP3   OH210391   5.400   5.388   2.295  0.1989 -0.9505 -0.1863
 3462TIP3    H110392   5.476   5.433   2.330 -1.0478  0.0430  1.3914
 3462TIP3    H210393   5.415   5.296   2.315  0.2993 -0.5926  1.5839
 3463TIP3   OH210394   5.672   3.363   2.582  0.1852  0.0922  0.4308
 3463TIP3    H110395   5.720   3.357   2.500  0.3293 -1.5672  0.6131
 3463TIP3    H210396   5.585   3.393   2.557  0.0751 -0.8848 -0.4016
 3464TIP3   OH210397   4.627   5.239   2.314  0.1149 -0.4401 -0.1081
 3464TIP3    H110398   4.701   5.181   2.331  1.9553  1.3045 -1.7105
 3464TIP3    H210399   4.606   5.278   2.400  0.7223 -1.3012  0.4427
 3465TIP3   OH210400   0.802   1.742   1.584  0.5065 -0.2450  0.6870
 3465TIP3    H110401   0.808   1.649   1.604 -0.8064 -0.2492  1.1888
 3465TIP3    H210402   0.709   1.757   1.566  0.7877  0.8604  0.0274
 3466TIP3   OH210403   1.305   3.669   3.890  0.5903  0.3331 -0.1783
 3466TIP3    H110404   1.223   3.717   3.900 -1.1649 -1.5973 -3.5026
 3466TIP3    H210405   1.279   3.578   3.880  3.1937 -0.4524 -0.7422
 3467TIP3   OH210406   3.445   3.948   3.923  0.4754  0.1170  1.0362
 3467TIP3    H110407   3.527   3.948   3.973  0.8461 -0.3713  0.4376
 3467TIP3    H210408   3.417   3.856   3.923  0.6587  0.0544  0.0584
 3468TIP3   OH210409   4.693   1.143   2.317 -0.5924  0.1875  0.2010
 3468TIP3    H110410   4.631   1.179   2.254 -0.4268  0.4157  0.1661
 3468TIP3    H210411   4.642   1.130   2.397 -0.8828 -0.4104 -0.0744
 3469TIP3   OH210412   0.082   2.813   2.166  0.0174  0.2879 -0.5208
 3469TIP3    H110413   0.134   2.774   2.236  1.4372  1.2614 -0.9947
 3469TIP3    H210414   0.119   2.776   2.086 -1.5921 -0.8163 -0.8042
 3470TIP3   OH210415   3.707   1.629   2.307  0.2652  0.3579  0.5414
 3470TIP3    H110416   3.704   1.677   2.390  1.0167 -0.4458  1.0484
 3470TIP3    H210417   3.731   1.540   2.332  2.8850  0.6057 -0.7138
 3471TIP3   OH210418   1.619   5.057   4.398  0.0154  0.1823 -0.4136
 3471TIP3    H110419   1.613   5.144   4.358 -2.3151  0.1995 -0.1395
 3471TIP3    H210420   1.571   4.999   4.339 -0.5330 -0.4455  0.6197
 3472TIP3   OH210421   2.594   0.566   0.547  0.2341  0.6872  0.1928
 3472TIP3    H110422   2.656   0.492   0.549  1.4491  1.5794 -1.4519
 3472TIP3    H210423   2.542   0.551   0.468  0.7244  1.7361 -0.3473
 3473TIP3   OH210424   2.258   5.913   0.565 -0.0764  0.2552 -0.0340
 3473TIP3    H110425   2.301   5.884   0.485 -0.2947 -2.3015  0.6993
 3473TIP3    H210426   2.296   5.860   0.634 -0.7954  1.5154  1.4028
 3474TIP3   OH210427   2.741   2.129   0.045 -0.0660  0.4417 -0.2053
 3474TIP3    H110428   2.665   2.144   0.102  0.3108 -0.6324  0.5954
 3474TIP3    H210429   2.713   2.161  -0.041 -0.9684  1.2357  0.3638
 3475TIP3   OH210430   2.040   3.144   4.769  0.1728  0.2448  0.1756
 3475TIP3    H110431   1.967   3.107   4.820  0.8462  0.7598  1.5609
 3475TIP3    H210432   2.062   3.075   4.706 -0.3203 -0.6656  0.9622
 3476TIP3   OH210433   4.072   2.897   2.465  0.6145 -0.9100 -0.3111
 3476TIP3    H110434   4.068   2.855   2.550 -1.8736 -0.8120 -0.3001
 3476TIP3    H210435   4.124   2.976   2.479  1.9102 -1.8805  0.5972
 3477TIP3   OH210436   2.541   0.387   1.836 -0.2207 -0.8831  0.3963
 3477TIP3    H110437   2.572   0.477   1.830 -1.5581 -0.1667  2.7837
 3477TIP3    H210438   2.489   0.374   1.757  0.1911  0.3354 -0.1032
 3478TIP3   OH210439   4.740   2.610   2.861  0.2140  0.2960  0.4704
 3478TIP3    H110440   4.709   2.681   2.917  0.2760 -0.1501  1.0838
 3478TIP3    H210441   4.664   2.553   2.849 -0.1156  0.9730 -0.8595
 3479TIP3   OH210442   5.528   4.735   2.589 -0.1408 -0.9448  0.4636
 3479TIP3    H110443   5.435   4.729   2.609 -0.9583  1.2167 -2.1401
 3479TIP3    H210444   5.555   4.819   2.627  0.8873 -1.7059  1.4910
 3480TIP3   OH210445   3.002   5.198   5.049 -0.1858  1.2099 -0.2069
 3480TIP3    H110446   3.033   5.283   5.018  0.1494  0.9843 -0.4865
 3480TIP3    H210447   2.985   5.147   4.970 -0.0046  0.8794 -0.0370
 3481TIP3   OH210448   3.451   4.185   1.791 -0.3905  0.6485 -0.0702
 3481TIP3    H110449   3.384   4.159   1.728 -0.0489 -1.5711  0.3716
 3481TIP3    H210450   3.403   4.213   1.869 -0.8728 -1.3114  0.3899
 3482TIP3   OH210451   5.308   1.025   2.464  0.4096  0.8140 -0.7018
 3482TIP3    H110452   5.322   0.964   2.536 -1.6845  1.2346  0.1554
 3482TIP3    H210453   5.319   0.972   2.385  4.2754  0.6848 -0.2398
 3483TIP3   OH210454   2.643   4.951   0.639  0.5116  0.2205 -0.0986
 3483TIP3    H110455   2.646   4.883   0.572  1.7673  0.1110  0.0555
 3483TIP3    H210456   2.669   4.906   0.720 -0.2262  0.5306  0.3260
 3484TIP3   OH210457   3.481   2.451   1.852  0.5870 -0.3131 -0.4336
 3484TIP3    H110458   3.574   2.460   1.831  0.8810  1.3509  1.2489
 3484TIP3    H210459   3.469   2.359   1.872  1.2131 -1.1152 -3.3497
 3485TIP3   OH210460   6.237   5.957   1.437 -0.0707  0.1132 -0.3525
 3485TIP3    H110461   6.244   6.025   1.504 -0.1266 -3.3107  3.4447
 3485TIP3    H210462   6.319   5.908   1.443 -1.2115 -1.9734 -0.7710
 3486TIP3   OH210463   5.335   0.724   0.808  0.1896  0.0492 -0.2471
 3486TIP3    H110464   5.261   0.773   0.845  1.0383  1.2297 -0.0819
 3486TIP3    H210465   5.361   0.664   0.878 -1.1730 -1.0530 -0.6259
 3487TIP3   OH210466   4.407   2.758   4.973 -0.2803  0.2769  0.0836
 3487TIP3    H110467   4.395   2.697   4.901 -0.5787  1.0562 -0.5496
 3487TIP3    H210468   4.466   2.714   5.033 -0.3486 -0.5512 -0.4467
 3488TIP3   OH210469   5.196   4.566   2.135 -0.2484  0.6843 -0.3293
 3488TIP3    H110470   5.277   4.614   2.156 -0.2461 -0.0047  1.3670
 3488TIP3    H210471   5.127   4.631   2.145 -0.2429  0.4048  1.9411
 3489TIP3   OH210472   2.769   4.907   0.235 -0.7555  0.3077 -0.2252
 3489TIP3    H110473   2.784   4.967   0.307 -0.4649  0.5399 -0.4799
 3489TIP3    H210474   2.731   4.829   0.277 -0.7666  0.5128  0.1512
 3490TIP3   OH210475   0.990   1.609   3.724  0.0339  0.4082  0.1361
 3490TIP3    H110476   1.005   1.570   3.810 -1.4892  0.3693  0.4110
 3490TIP3    H210477   1.061   1.576   3.670  0.3912 -0.4452  1.1002
 3491TIP3   OH210478   4.538   5.418   2.831  0.0936 -0.1901 -0.4200
 3491TIP3    H110479   4.472   5.450   2.892  0.9707 -0.0592  0.4673
 3491TIP3    H210480   4.615   5.472   2.848  1.1235 -1.7654  0.0776
 3492TIP3   OH210481   2.086   5.464   0.757  0.0638  0.0281  0.3775
 3492TIP3    H110482   2.042   5.399   0.701 -0.7510 -0.1402  1.1843
 3492TIP3    H210483   2.029   5.472   0.833  0.6761  0.9553  0.7551
 3493TIP3   OH210484   4.005   5.668   4.897 -0.2294 -0.5338  0.0530
 3493TIP3    H110485   4.098   5.682   4.912 -0.6701  2.8687  0.3882
 3493TIP3    H210486   3.997   5.662   4.801  0.4900 -3.0898  0.0874
 3494TIP3   OH210487   4.119   5.279   2.616  0.4175 -0.2733  0.2453
 3494TIP3    H110488   4.213   5.264   2.619  0.4676 -0.0216 -0.0035
 3494TIP3    H210489   4.108   5.371   2.640  0.4005  0.2583 -1.6208
 3495TIP3   OH210490   5.022   2.511   2.227  0.3255 -0.2518 -0.1909
 3495TIP3    H110491   4.971   2.499   2.147 -0.2880  0.3880  0.0908
 3495TIP3    H210492   5.109   2.477   2.206  0.2193  0.0744 -1.1843
 3496TIP3   OH210493   3.367   2.933   3.059  0.3317  0.3370 -0.2283
 3496TIP3    H110494   3.435   2.869   3.039  0.2355  0.4645 -0.9936
 3496TIP3    H210495   3.396   3.014   3.017  0.1624  0.6405  0.2275
 3497TIP3   OH210496   3.228   4.068   0.089 -0.5404  0.1288 -0.9040
 3497TIP3    H110497   3.137   4.038   0.095 -0.8037  1.0380  0.0029
 3497TIP3    H210498   3.252   4.052  -0.002 -1.4567 -0.5487 -1.0437
 3498TIP3   OH210499   2.100   2.748   5.071  0.0369  0.2993 -0.1593
 3498TIP3    H110500   2.081   2.797   5.151 -0.2419  1.4384 -0.9037
 3498TIP3    H210501   2.019   2.701   5.051  0.0924  0.0498  0.1902
 3499TIP3   OH210502   2.917   1.819   0.800 -0.0564 -0.4401  0.6007
 3499TIP3    H110503   2.955   1.901   0.769  1.5863 -0.3846  2.5571
 3499TIP3    H210504   2.829   1.818   0.763  0.5618  1.2310 -1.0981
 3500TIP3   OH210505   3.548   3.214   2.327 -0.0698  0.3996  0.1800
 3500TIP3    H110506   3.587   3.238   2.411 -0.3229 -0.9401  0.7001
 3500TIP3    H210507   3.490   3.141   2.348 -0.5428  0.3986 -1.0805
 3501TIP3   OH210508   2.519   1.082   3.458  0.0649  0.3899 -0.4216
 3501TIP3    H110509   2.452   1.148   3.476  0.3219  0.0391  2.2167
 3501TIP3    H210510   2.594   1.108   3.511  0.1009 -2.1090  0.8903
 3502TIP3   OH210511   3.397   5.504   0.701  0.0137 -0.3905 -0.2252
 3502TIP3    H110512   3.445   5.585   0.684 -0.4384 -0.1991 -0.5912
 3502TIP3    H210513   3.343   5.490   0.623 -0.1039 -0.9076 -0.0586
 3503TIP3   OH210514   2.409   4.290   2.930  0.4349  0.0042  0.1996
 3503TIP3    H110515   2.433   4.371   2.886 -0.0047  0.5409  0.9213
 3503TIP3    H210516   2.320   4.305   2.962  1.1995  0.1909  2.4564
 3504TIP3   OH210517   0.272   2.101   2.919  0.5693 -0.6338  0.1813
 3504TIP3    H110518   0.271   2.074   3.011 -0.4058 -2.0116 -0.2106
 3504TIP3    H210519   0.201   2.052   2.879 -0.4699  1.5718 -0.8748
 3505TIP3   OH210520   0.290   2.720   0.901 -0.6793  0.0034  0.4756
 3505TIP3    H110521   0.212   2.701   0.953 -1.2988  1.6087  0.2164
 3505TIP3    H210522   0.363   2.701   0.959 -1.3217  0.5329  1.4986
 3506TIP3   OH210523   0.217   5.733   2.666  0.1146 -0.2921 -0.3011
 3506TIP3    H110524   0.133   5.709   2.704 -0.4659 -0.7503 -1.8497
 3506TIP3    H210525   0.260   5.650   2.646  1.7858 -0.1423  2.1448
 3507TIP3   OH210526   1.194   0.659   1.738  0.2820 -0.2692  0.0742
 3507TIP3    H110527   1.125   0.615   1.787  1.2833 -1.0268  0.8521
 3507TIP3    H210528   1.155   0.742   1.710 -1.0181 -0.8126  0.2364
 3508TIP3   OH210529   1.738   3.121   4.540 -0.2691  0.3349 -0.0616
 3508TIP3    H110530   1.740   3.092   4.632  2.9375 -1.2449 -0.5112
 3508TIP3    H210531   1.770   3.211   4.543  3.1178 -0.7522  0.2072
 3509TIP3   OH210532   3.279   1.876   1.677 -0.3164 -0.2066  0.1763
 3509TIP3    H110533   3.354   1.818   1.688  0.2548  0.7581  1.7172
 3509TIP3    H210534   3.210   1.837   1.730 -0.7768 -0.8262 -0.8456
 3510TIP3   OH210535   5.831   1.670   2.083 -0.3421 -0.1984 -0.0410
 3510TIP3    H110536   5.781   1.684   2.003  0.3453  0.6243 -0.3360
 3510TIP3    H210537   5.873   1.754   2.101 -1.4157 -0.0002  1.8402
 3511TIP3   OH210538   6.053   2.474   2.848  0.1085 -0.2601  0.4043
 3511TIP3    H110539   6.147   2.487   2.859 -0.2502  1.7046  1.6873
 3511TIP3    H210540   6.020   2.559   2.819 -1.0325 -1.4890 -2.2608
 3512TIP3   OH210541   1.534   5.667   2.424 -0.4468 -0.2092 -0.1086
 3512TIP3    H110542   1.591   5.638   2.495 -0.7691  0.5133  0.4475
 3512TIP3    H210543   1.471   5.595   2.414 -0.2660 -0.4098  0.1719
 3513TIP3   OH210544   4.713   3.935   4.094  0.0755  0.1661 -0.1927
 3513TIP3    H110545   4.796   3.978   4.073  0.3354 -0.2121  0.0441
 3513TIP3    H210546   4.736   3.843   4.106 -0.1644  0.2693  1.1741
 3514TIP3   OH210547   0.537   4.747   2.698 -0.3065 -0.4379  0.0430
 3514TIP3    H110548   0.543   4.839   2.673 -2.0334 -0.2918  0.0620
 3514TIP3    H210549   0.628   4.715   2.695  0.3841  1.3880  0.5982
 3515TIP3   OH210550   0.942   1.002   1.039  0.3619  0.2521  0.3464
 3515TIP3    H110551   1.007   0.973   1.103 -0.6467 -0.8432  0.9227
 3515TIP3    H210552   0.943   1.098   1.046  1.3134  0.2139  0.9348
 3516TIP3   OH210553   1.217   2.062   4.261  0.0502 -0.3978  0.8868
 3516TIP3    H110554   1.276   2.137   4.251  1.4255 -1.5505  0.1150
 3516TIP3    H210555   1.238   2.027   4.348 -1.0685  0.4601  1.5405
 3517TIP3   OH210556   3.578   0.019   3.783 -0.4157 -0.3472 -0.3979
 3517TIP3    H110557   3.648   0.070   3.743  0.6754 -0.9996  0.6319
 3517TIP3    H210558   3.566  -0.056   3.725  0.6627 -0.9137  0.0776
 3518TIP3   OH210559   1.042   5.540   3.908 -0.2766  0.1605  0.2925
 3518TIP3    H110560   0.958   5.581   3.887  0.3590  0.1862 -2.6834
 3518TIP3    H210561   1.099   5.614   3.929 -0.1108  0.5328 -1.3162
 3519TIP3   OH210562   5.390   0.681   1.971 -0.1325  0.3812 -0.3568
 3519TIP3    H110563   5.404   0.586   1.964  0.0491  0.2472  1.3455
 3519TIP3    H210564   5.346   0.705   1.890 -0.7121 -1.2654 -0.5643
 3520TIP3   OH210565   1.086   2.731   2.270  0.4122  0.1184  0.3523
 3520TIP3    H110566   1.097   2.644   2.307  2.0748  0.2095  0.1539
 3520TIP3    H210567   1.074   2.717   2.176 -2.9083 -0.0581  0.6940
 3521TIP3   OH210568   5.047   0.777   1.200  0.6910  0.0602  0.2369
 3521TIP3    H110569   5.090   0.860   1.181  0.0475 -0.2266 -2.9432
 3521TIP3    H210570   4.955   0.800   1.216  0.8152  0.0838  0.9563
 3522TIP3   OH210571   3.415   3.533   4.165 -0.3502  0.2265  0.4487
 3522TIP3    H110572   3.472   3.515   4.240 -0.8978 -0.4907  0.7015
 3522TIP3    H210573   3.425   3.627   4.149 -1.7930  0.8365  2.7264
 3523TIP3   OH210574   1.052   3.122   1.504  0.0489 -0.5285 -0.0006
 3523TIP3    H110575   1.091   3.161   1.582 -0.6498 -0.1043  0.1371
 3523TIP3    H210576   1.106   3.044   1.487  0.9613  0.0435  0.1857
 3524TIP3   OH210577   2.162   5.118   4.749 -0.0964  0.1357 -0.2502
 3524TIP3    H110578   2.248   5.112   4.790 -0.0135  0.0651 -0.4304
 3524TIP3    H210579   2.160   5.206   4.711 -0.5436  0.5478  0.7111
 3525TIP3   OH210580   5.679   5.070   3.479  0.1576 -0.4841  0.5345
 3525TIP3    H110581   5.736   4.993   3.476  0.8726  0.0567 -0.2245
 3525TIP3    H210582   5.658   5.080   3.572  1.2870 -0.7244  0.8404
 3526TIP3   OH210583   6.227   2.063   4.466  0.0428  0.3120  0.1534
 3526TIP3    H110584   6.282   2.010   4.523 -0.3352 -1.5158 -1.1138
 3526TIP3    H210585   6.231   2.151   4.505  2.4494 -0.1215  1.0891
 3527TIP3   OH210586   0.241   4.186   3.737  0.0067  0.2235  0.2744
 3527TIP3    H110587   0.247   4.113   3.799 -0.1998  0.9950  1.2143
 3527TIP3    H210588   0.302   4.251   3.770 -0.5119  0.8700 -0.0150
 3528TIP3   OH210589   6.068   0.353   3.417 -0.2633 -0.0551  0.6443
 3528TIP3    H110590   6.116   0.341   3.499 -0.0157  0.8305  0.6383
 3528TIP3    H210591   6.051   0.447   3.413 -1.6505 -0.3065  0.4377
 3529TIP3   OH210592   4.804   5.541   4.516 -0.2875  0.4880 -0.4562
 3529TIP3    H110593   4.858   5.470   4.550 -1.7518  0.1830  1.4083
 3529TIP3    H210594   4.867   5.607   4.488  1.1598 -1.7130 -2.8779
 3530TIP3   OH210595   2.033   0.158   2.501 -0.2426 -0.3700  0.2875
 3530TIP3    H110596   1.994   0.179   2.585  1.3145  0.9717  0.7208
 3530TIP3    H210597   2.124   0.138   2.521  0.7890  2.2337 -1.2628
 3531TIP3   OH210598   0.473   0.742   2.067 -0.1466  0.8697  0.2045
 3531TIP3    H110599   0.426   0.823   2.048  0.1281  1.0973  0.4912
 3531TIP3    H210600   0.407   0.685   2.106 -0.6368  0.5221 -1.0568
 3532TIP3   OH210601   1.099   1.132   1.822  0.0074  0.2444  0.1376
 3532TIP3    H110602   1.114   1.058   1.881 -2.9161 -0.9198 -0.4142
 3532TIP3    H210603   1.166   1.123   1.755 -0.8725 -2.6284 -0.5019
 3533TIP3   OH210604   4.162   2.169   0.900  0.2614  0.1121  0.6332
 3533TIP3    H110605   4.093   2.183   0.965 -0.3838  0.4388 -0.1055
 3533TIP3    H210606   4.160   2.247   0.845 -0.5867 -0.9953 -1.0094
 3534TIP3   OH210607   4.831   3.159   3.462  0.2206  0.6173  1.1895
 3534TIP3    H110608   4.849   3.253   3.460 -1.9208  1.0943  1.5964
 3534TIP3    H210609   4.783   3.142   3.380  1.1785 -0.2699  0.7970
 3535TIP3   OH210610   3.160   0.264   4.256 -0.0111  0.0793  0.1240
 3535TIP3    H110611   3.198   0.181   4.227  0.0081  0.3961 -0.8035
 3535TIP3    H210612   3.071   0.262   4.222  0.0480  0.5097 -0.0610
 3536TIP3   OH210613   5.646   0.635   1.170  0.7196  0.0152  0.2972
 3536TIP3    H110614   5.573   0.632   1.233 -0.7257 -0.3233 -1.3200
 3536TIP3    H210615   5.604   0.630   1.084  2.7228 -1.5913 -0.6818
 3537TIP3   OH210616   3.562   1.583   4.255 -0.2430  0.6664  0.2909
 3537TIP3    H110617   3.556   1.516   4.323  0.7516 -0.1508 -0.3828
 3537TIP3    H210618   3.623   1.647   4.289 -0.7313  0.9282  0.6870
 3538TIP3   OH210619   4.503   1.138   3.782 -0.1508 -0.0972 -0.7297
 3538TIP3    H110620   4.416   1.110   3.754 -0.7007  0.9578 -0.1378
 3538TIP3    H210621   4.563   1.086   3.729 -1.1374 -0.7570 -1.2349
 3539TIP3   OH210622   5.436   0.184   5.040  0.0283  0.0894 -0.0095
 3539TIP3    H110623   5.522   0.143   5.035 -0.4453 -1.2666  1.9761
 3539TIP3    H210624   5.452   0.269   5.080  0.5184  0.1560 -0.3415
 3540TIP3   OH210625   2.194   3.546   2.801 -0.1113 -0.4386 -0.2696
 3540TIP3    H110626   2.160   3.591   2.878  0.7543 -0.6809  0.2663
 3540TIP3    H210627   2.181   3.609   2.729 -1.1686 -0.3221  0.0105
 3541TIP3   OH210628   1.410   4.885   2.586  0.5694 -0.1589 -0.6392
 3541TIP3    H110629   1.340   4.839   2.633  0.2727  0.0572 -0.8693
 3541TIP3    H210630   1.371   4.967   2.557  1.2734  0.5115  0.2776
 3542TIP3   OH210631   0.727   3.798   1.221  0.1942 -0.1363  0.2160
 3542TIP3    H110632   0.659   3.734   1.239 -2.1325  1.4074 -2.2301
 3542TIP3    H210633   0.775   3.806   1.303 -2.1806 -1.7627  1.9129
 3543TIP3   OH210634   0.251   1.536   5.093  0.2199 -0.0347  0.3026
 3543TIP3    H110635   0.228   1.627   5.075  0.2924 -0.0623  0.0637
 3543TIP3    H210636   0.323   1.541   5.157  1.3123  0.1235 -0.9010
 3544TIP3   OH210637   0.390   0.494   2.175 -0.1160  0.1549  0.2909
 3544TIP3    H110638   0.324   0.519   2.240  1.0720  1.0073  1.2305
 3544TIP3    H210639   0.400   0.400   2.186 -1.3484 -0.0262 -0.0498
 3545TIP3   OH210640   5.689   2.220   1.469 -0.1504 -0.0250 -0.5085
 3545TIP3    H110641   5.753   2.241   1.537  1.6366 -1.5878 -1.6410
 3545TIP3    H210642   5.609   2.201   1.518  0.9386 -0.6051  1.1418
 3546TIP3   OH210643   4.014   5.112   0.537  0.1021 -0.4567  0.2459
 3546TIP3    H110644   3.975   5.030   0.509 -0.7576 -0.1710  0.5860
 3546TIP3    H210645   3.977   5.128   0.624 -1.1123  1.1527 -0.5057
 3547TIP3   OH210646   1.449   2.102   4.591  0.1714  0.0643 -0.6844
 3547TIP3    H110647   1.500   2.041   4.538 -1.2664 -0.7412 -1.2104
 3547TIP3    H210648   1.397   2.151   4.527 -2.1928 -1.4777 -0.1061
 3548TIP3   OH210649   0.234   0.902   2.233 -0.1070  0.7482 -0.5587
 3548TIP3    H110650   0.280   0.840   2.290  0.5932  2.4723  0.8220
 3548TIP3    H210651   0.177   0.846   2.180  0.4825 -1.0871  0.6156
 3549TIP3   OH210652   4.710   3.375   4.586 -0.2110 -0.0766  0.6715
 3549TIP3    H110653   4.755   3.290   4.586  0.6801  0.3649 -0.4975
 3549TIP3    H210654   4.713   3.403   4.495 -1.0475  0.9364  0.9409
 3550TIP3   OH210655   3.113   5.664   3.807  0.6063 -0.0168 -0.6088
 3550TIP3    H110656   3.137   5.736   3.749  2.2492 -0.6687 -0.8020
 3550TIP3    H210657   3.025   5.686   3.838  0.3172  1.1250 -2.1156
 3551TIP3   OH210658   3.687   1.943   3.442 -0.0746  0.0734  0.4410
 3551TIP3    H110659   3.607   1.889   3.440 -0.8452  1.1440 -2.1899
 3551TIP3    H210660   3.758   1.880   3.449 -1.0803 -0.9998  1.4859
 3552TIP3   OH210661   0.597   5.994   3.882 -0.3662  0.0587  0.0356
 3552TIP3    H110662   0.586   5.909   3.838 -1.3223 -0.0801  0.5267
 3552TIP3    H210663   0.509   6.030   3.887 -0.1726  0.3932  1.1832
 3553TIP3   OH210664   4.205   0.949   0.298  0.2406  0.7215  0.2399
 3553TIP3    H110665   4.175   0.858   0.304 -2.5389  1.5945  0.7745
 3553TIP3    H210666   4.153   0.987   0.228  2.2095  1.6671 -0.7968
 3554TIP3   OH210667   1.982   5.248   1.743 -0.0436  0.0683 -0.0435
 3554TIP3    H110668   2.010   5.209   1.826  1.2991  0.0009 -0.5192
 3554TIP3    H210669   2.012   5.339   1.749  1.6458 -0.3835 -1.1702
 3555TIP3   OH210670   5.746   0.734   0.399 -0.1662  0.4483  0.0701
 3555TIP3    H110671   5.717   0.679   0.472  0.8007  0.4336  0.4589
 3555TIP3    H210672   5.705   0.694   0.322 -0.4888 -0.0662  0.4965
 3556TIP3   OH210673   0.445   2.880   2.376 -0.3520 -0.4093  0.4721
 3556TIP3    H110674   0.440   2.818   2.448  1.4427  0.9058  1.8203
 3556TIP3    H210675   0.429   2.965   2.416  2.8509  0.6104 -0.1769
 3557TIP3   OH210676   0.722   5.111   2.316 -0.5973  0.0507  0.2057
 3557TIP3    H110677   0.771   5.095   2.236 -1.0050 -0.2491  0.0125
 3557TIP3    H210678   0.771   5.180   2.360 -0.9718  1.0146 -0.8342
 3558TIP3   OH210679   2.678   1.783   0.648 -0.3694 -0.0085 -0.2600
 3558TIP3    H110680   2.722   1.734   0.579 -0.5820 -0.4684 -0.0736
 3558TIP3    H210681   2.592   1.743   0.656 -1.1228  1.3644 -1.1276
 3559TIP3   OH210682   3.021   2.139   4.087 -0.3054 -0.0281 -0.3352
 3559TIP3    H110683   2.999   2.219   4.135 -0.0302  0.5628 -1.1834
 3559TIP3    H210684   2.944   2.121   4.033 -0.0032  0.1884 -0.8409
 3560TIP3   OH210685   1.848   1.505   4.585 -0.2809 -0.1313  0.2174
 3560TIP3    H110686   1.781   1.507   4.653 -0.9799 -1.1175 -0.4185
 3560TIP3    H210687   1.840   1.589   4.541 -1.0053 -0.1862  0.2380
 3561TIP3   OH210688   0.654   5.097   0.318  0.4119  0.4262  0.2940
 3561TIP3    H110689   0.658   5.031   0.387 -0.9615  0.7198  0.6810
 3561TIP3    H210690   0.647   5.180   0.365  2.2740  0.9039 -0.1837
 3562TIP3   OH210691   0.714   2.950   0.998 -0.1860 -0.2160  0.4486
 3562TIP3    H110692   0.686   3.028   1.045  0.5256  0.9475 -1.0074
 3562TIP3    H210693   0.810   2.955   0.997 -0.0359 -1.8584  1.5371
 3563TIP3   OH210694   1.972   1.915   5.132 -0.0093  0.2999  0.6728
 3563TIP3    H110695   1.998   2.007   5.128  1.7740 -0.1151  1.6731
 3563TIP3    H210696   2.046   1.868   5.093 -1.2314 -0.7001 -0.5573
 3564TIP3   OH210697   0.238   5.878   0.643  0.1996 -0.5486  0.1205
 3564TIP3    H110698   0.284   5.859   0.725 -0.3944  0.2016  0.6426
 3564TIP3    H210699   0.219   5.972   0.648  1.8919 -0.0520 -1.7814
 3565TIP3   OH210700   5.911   5.872   4.106 -0.2402  0.1572 -0.3713
 3565TIP3    H110701   5.921   5.840   4.016 -1.5690 -0.0961 -0.4493
 3565TIP3    H210702   5.838   5.822   4.141  0.3284  0.1861  0.8958
 3566TIP3   OH210703   0.924   3.893   2.367  0.5200  0.0476 -0.1122
 3566TIP3    H110704   0.959   3.873   2.280 -0.2294  0.7144 -0.5768
 3566TIP3    H210705   0.871   3.816   2.389  0.6210 -0.0749 -0.2932
 3567TIP3   OH210706   3.965   2.546   1.698 -0.5591  0.5523  0.1397
 3567TIP3    H110707   4.042   2.500   1.730 -0.1670  1.1637  0.0749
 3567TIP3    H210708   3.965   2.531   1.604  2.0254  4.1949 -0.6548
 3568TIP3   OH210709   4.574   2.587   0.777  0.0761  0.2140 -0.2996
 3568TIP3    H110710   4.531   2.505   0.753 -0.8309  1.2678 -2.5821
 3568TIP3    H210711   4.532   2.614   0.858 -1.3355 -0.3839 -0.8023
 3569TIP3   OH210712   5.701   5.152   4.513  0.6022 -0.0293 -0.4659
 3569TIP3    H110713   5.609   5.155   4.538  1.0573  1.1776  1.2173
 3569TIP3    H210714   5.722   5.241   4.485  1.6708  0.1707  0.8638
 3570TIP3   OH210715   3.548   1.497   0.272  0.3336 -0.1406 -0.7009
 3570TIP3    H110716   3.485   1.455   0.213 -1.2361 -0.1962  0.9167
 3570TIP3    H210717   3.520   1.589   0.275  0.8503  0.0143 -0.5986
 3571TIP3   OH210718   4.537   0.810   0.609 -0.1027 -0.3316 -0.4297
 3571TIP3    H110719   4.495   0.885   0.568 -1.1226 -0.8907 -0.4394
 3571TIP3    H210720   4.535   0.828   0.703 -2.0546 -1.1644 -0.2747
 3572TIP3   OH210721   3.968   0.045   1.186  0.4068  0.3440 -0.1860
 3572TIP3    H110722   3.979  -0.050   1.184  1.9038  0.4763  0.1782
 3572TIP3    H210723   3.903   0.064   1.119 -0.2665 -0.9747  0.0656
 3573TIP3   OH210724   3.628   5.517   1.596  0.5798 -0.0947  0.1158
 3573TIP3    H110725   3.723   5.508   1.590  0.6804 -0.3321  1.6192
 3573TIP3    H210726   3.614   5.608   1.623  0.4457 -0.3094  0.7949
 3574TIP3   OH210727   2.283   5.991   1.352 -0.4768  0.4415  0.4626
 3574TIP3    H110728   2.303   5.902   1.323  0.1597  0.0369  2.0185
 3574TIP3    H210729   2.188   5.999   1.338 -0.9580 -1.2878  2.2280
 3575TIP3   OH210730   3.748   5.819   5.010  0.6578  0.1105 -0.0331
 3575TIP3    H110731   3.729   5.791   5.100  0.4282  1.8353  0.4859
 3575TIP3    H210732   3.812   5.755   4.978 -1.1483 -2.0278  0.4302
 3576TIP3   OH210733   2.725   3.859   0.755 -0.1116  0.8840  0.0546
 3576TIP3    H110734   2.703   3.787   0.814  0.4364  1.0963  0.5270
 3576TIP3    H210735   2.650   3.866   0.697 -0.3338  0.1768  0.2463
 3577TIP3   OH210736   4.657   2.126   1.404  0.1500 -0.5517  0.1807
 3577TIP3    H110737   4.740   2.109   1.448  0.7451 -2.7456 -1.6108
 3577TIP3    H210738   4.681   2.145   1.314 -1.2815 -1.6726 -0.4787
 3578TIP3   OH210739   3.089   5.277   3.101 -0.2153  0.1894  0.0045
 3578TIP3    H110740   3.016   5.336   3.116  0.1684  1.0258 -1.2582
 3578TIP3    H210741   3.160   5.313   3.153 -0.9521 -1.2729  2.1641
 3579TIP3   OH210742   2.119   2.167   4.262 -0.3027 -0.1924  0.3144
 3579TIP3    H110743   2.093   2.212   4.181 -1.6736  1.3170  1.5303
 3579TIP3    H210744   2.211   2.190   4.274 -0.0609 -0.4876 -0.8114
 3580TIP3   OH210745   1.272   1.392   4.545 -0.1898 -0.2476  0.0956
 3580TIP3    H110746   1.212   1.338   4.494  0.6762 -1.6769  0.5495
 3580TIP3    H210747   1.334   1.426   4.481  0.8991 -2.0433  0.1348
 3581TIP3   OH210748   0.643   1.361   1.491  0.0243  0.2643  0.6773
 3581TIP3    H110749   0.608   1.450   1.489 -0.6422  0.0196  1.0534
 3581TIP3    H210750   0.573   1.309   1.531 -0.3783 -0.7806 -1.2971
 3582TIP3   OH210751   2.535   5.716   1.437  0.0151  0.3047 -0.0156
 3582TIP3    H110752   2.600   5.755   1.378 -0.7655  0.1830 -0.9845
 3582TIP3    H210753   2.459   5.699   1.381 -0.6071 -0.1867  0.9509
 3583TIP3   OH210754   3.923   4.365   1.680 -0.6968 -0.1805 -0.2208
 3583TIP3    H110755   3.897   4.423   1.609  0.8502  2.2245  1.0572
 3583TIP3    H210756   3.862   4.383   1.751  0.5679  0.9487  0.6360
 3584TIP3   OH210757   5.264   4.763   1.890  0.0416  0.5571  0.0178
 3584TIP3    H110758   5.171   4.741   1.892 -0.0075  0.8032  0.8070
 3584TIP3    H210759   5.309   4.679   1.889 -0.1857  0.4322  0.1472
 3585TIP3   OH210760   3.952   1.605   2.819  0.2135  0.6554  0.0921
 3585TIP3    H110761   3.933   1.597   2.913  1.7255  1.1382  0.4833
 3585TIP3    H210762   4.036   1.560   2.809 -0.3815 -0.2120 -1.2262
 3586TIP3   OH210763   2.662   0.665   1.786  0.0358 -0.5832  0.2860
 3586TIP3    H110764   2.616   0.697   1.708  0.0351  2.2618  1.3215
 3586TIP3    H210765   2.753   0.690   1.772  0.1934 -0.8372  0.8438
 3587TIP3   OH210766   2.901   3.488   4.901 -0.4562 -0.2099  0.0769
 3587TIP3    H110767   2.874   3.569   4.944 -1.7641  0.4819 -1.8918
 3587TIP3    H210768   2.947   3.516   4.822 -1.1476 -1.3538 -0.7758
 3588TIP3   OH210769   0.932   1.914   4.520 -0.6388 -0.6556 -0.2774
 3588TIP3    H110770   1.001   1.971   4.553 -1.2834 -0.0823  0.1161
 3588TIP3    H210771   0.854   1.969   4.517 -1.4347 -1.6721  0.7106
 3589TIP3   OH210772   4.880   2.646   1.018  0.3950 -0.0962  0.2073
 3589TIP3    H110773   4.934   2.567   1.019  0.4594 -0.0822 -0.9414
 3589TIP3    H210774   4.943   2.717   1.031  0.3623 -0.2165  1.0486
 3590TIP3   OH210775   3.098   5.269   2.008  0.4395  0.4093  0.2351
 3590TIP3    H110776   3.109   5.174   2.017 -0.1829  0.2228 -0.8561
 3590TIP3    H210777   3.026   5.279   1.946 -0.3736  1.6048  1.3263
 3591TIP3   OH210778   4.289   2.337   5.151 -0.4192  0.4013  0.2302
 3591TIP3    H110779   4.273   2.292   5.234  1.2343  1.9304  1.4726
 3591TIP3    H210780   4.264   2.274   5.084 -0.8395 -1.2843  1.8832
 3592TIP3   OH210781   1.637   0.006   3.600  0.5431 -0.4985  0.9901
 3592TIP3    H110782   1.688   0.079   3.564 -0.8628 -0.6200 -1.4624
 3592TIP3    H210783   1.701  -0.065   3.610  1.1388 -0.3020 -0.9532
 3593TIP3   OH210784   5.794   2.739   1.751  0.0094 -0.1544 -0.2434
 3593TIP3    H110785   5.785   2.684   1.829  1.6597  1.2629  1.0209
 3593TIP3    H210786   5.793   2.677   1.678 -0.6761 -1.6120  0.9442
 3594TIP3   OH210787   2.013   3.305   0.120 -0.8349  0.1810  0.1379
 3594TIP3    H110788   2.043   3.310   0.029  0.4443  2.7389  0.6130
 3594TIP3    H210789   2.075   3.245   0.162 -0.1501  0.6109 -0.2365
 3595TIP3   OH210790   2.608   5.408   1.245  0.4869 -0.0691  0.3832
 3595TIP3    H110791   2.698   5.430   1.218 -0.0868  2.7635  0.4870
 3595TIP3    H210792   2.555   5.481   1.213 -1.8110 -1.6712  0.3453
 3596TIP3   OH210793   1.771   4.974   0.421  0.0702  0.0432  0.5110
 3596TIP3    H110794   1.857   4.981   0.381 -0.0790  0.1731  0.2081
 3596TIP3    H210795   1.786   4.929   0.504  0.7225  1.9250  1.4671
 3597TIP3   OH210796   3.366   5.993   1.312  0.0106  0.2124  0.9004
 3597TIP3    H110797   3.428   5.926   1.285  0.0306 -0.0445  1.5518
 3597TIP3    H210798   3.280   5.958   1.287 -0.0885 -0.6129  2.2596
 3598TIP3   OH210799   4.821   3.197   0.163  0.1403 -0.2294 -0.2269
 3598TIP3    H110800   4.802   3.105   0.143 -0.9110  0.0917 -0.7942
 3598TIP3    H210801   4.788   3.210   0.251  0.2624 -0.3873 -0.1573
 3599TIP3   OH210802   4.470   5.310   1.047  0.4340  0.2690 -0.5581
 3599TIP3    H110803   4.476   5.360   1.128 -0.4133 -0.7815  0.1747
 3599TIP3    H210804   4.500   5.371   0.979 -0.9823  1.9210  0.2374
 3600TIP3   OH210805   2.359   3.436   4.310  0.3419 -0.5474 -0.0153
 3600TIP3    H110806   2.326   3.499   4.375  0.0938  1.1364 -1.6805
 3600TIP3    H210807   2.400   3.490   4.243  1.1761 -2.2666 -0.9545
 3601TIP3   OH210808   4.875   0.836   4.278 -0.2989 -0.5374 -0.0066
 3601TIP3    H110809   4.889   0.845   4.372  2.0231 -2.0766 -0.1187
 3601TIP3    H210810   4.918   0.753   4.255 -0.3050  0.0667 -2.4996
 3602TIP3   OH210811   1.487   3.291   4.015 -0.0165  0.5484  0.2202
 3602TIP3    H110812   1.492   3.386   4.027 -0.6339  0.4990  1.0306
 3602TIP3    H210813   1.544   3.256   4.084 -1.0479  0.3106  0.9765
 3603TIP3   OH210814   5.307   1.134   2.819  0.4297 -0.1637 -0.4698
 3603TIP3    H110815   5.343   1.163   2.736  0.9790  0.2677 -0.0897
 3603TIP3    H210816   5.355   1.184   2.885  0.5904 -1.1035  0.1542
 3604TIP3   OH210817   1.362   4.164   0.759  0.1606  0.1736  0.0455
 3604TIP3    H110818   1.355   4.087   0.702 -0.9549  0.9539 -0.9219
 3604TIP3    H210819   1.289   4.155   0.820  0.3825  0.1709  0.3117
 3605TIP3   OH210820   4.816   1.029   3.905  0.8192  0.4363 -0.7445
 3605TIP3    H110821   4.778   1.111   3.935 -1.9866 -0.7990 -0.5653
 3605TIP3    H210822   4.866   0.996   3.981 -0.1633  0.7821  0.0701
 3606TIP3   OH210823   1.941   3.330   2.337  0.2957  0.0649  0.1495
 3606TIP3    H110824   2.005   3.401   2.336 -1.7075  1.9521 -0.5140
 3606TIP3    H210825   1.937   3.300   2.246  0.1944 -0.0111  0.1786
 3607TIP3   OH210826   0.083   2.176   5.028  0.2517 -0.2489 -0.1305
 3607TIP3    H110827   0.171   2.171   5.064  0.2507  0.2520 -0.0446
 3607TIP3    H210828   0.026   2.188   5.105  0.1915  0.2216 -0.2412
 3608TIP3   OH210829   4.234   0.625   2.087  0.0718 -0.3987  0.4884
 3608TIP3    H110830   4.327   0.605   2.072 -0.3388 -2.7493  0.5954
 3608TIP3    H210831   4.188   0.564   2.029 -1.4462  1.9338 -0.9255
 3609TIP3   OH210832   5.806   4.306   2.599  0.5448 -0.3080 -0.0499
 3609TIP3    H110833   5.732   4.277   2.546  0.9294 -0.4115 -0.5267
 3609TIP3    H210834   5.771   4.381   2.648  0.3665  0.1867 -0.9082
 3610TIP3   OH210835   3.298   4.874   4.674 -0.8095 -0.7066 -0.1618
 3610TIP3    H110836   3.240   4.809   4.713 -2.1119 -0.3418 -1.4161
 3610TIP3    H210837   3.290   4.951   4.731 -0.7524 -0.9996  0.2453
 3611TIP3   OH210838   3.197   4.647   1.667 -0.6165 -0.2396 -0.3205
 3611TIP3    H110839   3.135   4.631   1.596 -2.1713  1.3602  0.6014
 3611TIP3    H210840   3.225   4.737   1.654  0.0474 -0.3360  0.3902
 3612TIP3   OH210841   4.754   0.636   4.887  0.2563  0.1633 -0.8001
 3612TIP3    H110842   4.690   0.638   4.816  0.3173  1.3605 -0.8444
 3612TIP3    H210843   4.731   0.711   4.942  2.7608  1.8377 -1.8506
 3613TIP3   OH210844   0.094   1.902   4.301 -0.2963 -0.3040  0.1764
 3613TIP3    H110845   0.155   1.975   4.302 -0.5852 -0.0429  2.2256
 3613TIP3    H210846   0.076   1.884   4.393 -0.6958 -2.5759 -0.2766
 3614TIP3   OH210847   5.406   4.307   2.266  0.2793  0.0961 -0.3332
 3614TIP3    H110848   5.340   4.246   2.234  0.0157  0.0960  0.1910
 3614TIP3    H210849   5.417   4.371   2.196 -1.0621  0.7132 -0.0212
 3615TIP3   OH210850   4.696   0.392   3.643  0.0249  0.8952 -0.5203
 3615TIP3    H110851   4.627   0.441   3.687  1.3790  1.4085  1.1074
 3615TIP3    H210852   4.653   0.312   3.613 -1.2519  1.1458  0.5574
 3616TIP3   OH210853   3.626   3.487   0.958  0.1281  0.1116 -0.1523
 3616TIP3    H110854   3.664   3.552   1.016  1.7404 -1.9077  1.1796
 3616TIP3    H210855   3.693   3.419   0.950 -1.9422 -2.0270 -0.4055
 3617TIP3   OH210856   1.912   3.845   4.377  0.0118  0.2691 -0.4093
 3617TIP3    H110857   1.829   3.883   4.348  0.2632  0.7781 -0.4685
 3617TIP3    H210858   1.922   3.878   4.467  0.0125 -0.0262 -0.2990
 3618TIP3   OH210859   1.688   1.590   4.807 -0.5683 -0.3341 -0.4733
 3618TIP3    H110860   1.727   1.628   4.885 -0.6517 -1.0459 -0.0768
 3618TIP3    H210861   1.593   1.596   4.821 -0.5834 -1.0823 -0.2000
 3619TIP3   OH210862   3.965   3.947   4.691 -0.1983  0.6313 -0.0627
 3619TIP3    H110863   3.972   3.852   4.684 -1.5161  0.5319 -0.3796
 3619TIP3    H210864   3.873   3.963   4.712  0.3790  1.7535  1.9297
 3620TIP3   OH210865   4.045   2.559   1.045  0.4732 -0.1308 -0.1470
 3620TIP3    H110866   3.990   2.542   0.968 -0.8146  2.8030 -0.0074
 3620TIP3    H210867   4.007   2.505   1.113 -0.2098 -0.5817 -0.8643
 3621TIP3   OH210868   5.006   4.322   4.494 -0.1650 -0.3355  0.1608
 3621TIP3    H110869   5.067   4.249   4.499 -0.5540 -0.6723  0.0830
 3621TIP3    H210870   4.932   4.288   4.444  0.7274  0.8542 -2.1502
 3622TIP3   OH210871   3.278   3.424   2.725  0.2441 -0.0239  0.4549
 3622TIP3    H110872   3.291   3.503   2.778  2.3195 -0.9151  1.4031
 3622TIP3    H210873   3.298   3.452   2.635 -1.0909  0.9795  0.4469
 3623TIP3   OH210874   0.230   1.740   2.598  0.2697  0.5594 -0.1876
 3623TIP3    H110875   0.226   1.721   2.504  0.8061 -0.5741  0.0036
 3623TIP3    H210876   0.319   1.717   2.624  0.0060  0.4649  0.6745
 3624TIP3   OH210877   4.635   1.002   3.598 -0.2513  0.3079  0.4764
 3624TIP3    H110878   4.628   0.915   3.637 -0.0722 -0.1508 -0.4757
 3624TIP3    H210879   4.723   1.004   3.560 -1.4657 -0.5055 -2.6970
 3625TIP3   OH210880   0.014   3.191   2.638 -0.4095 -0.0600  0.4528
 3625TIP3    H110881  -0.031   3.274   2.622 -0.3627 -0.0687  0.2709
 3625TIP3    H210882   0.105   3.209   2.611 -0.7831 -0.7297 -1.4237
 3626TIP3   OH210883   3.181   2.367   3.552 -0.2307 -0.5629  0.0872
 3626TIP3    H110884   3.095   2.349   3.591 -0.6755 -0.7553 -0.9258
 3626TIP3    H210885   3.161   2.425   3.478  0.5353 -0.4701 -0.0534
 3627TIP3   OH210886   5.625   3.228   4.428  0.5701 -0.4617  0.2449
 3627TIP3    H110887   5.587   3.285   4.494  0.3706 -0.0992 -0.1778
 3627TIP3    H210888   5.553   3.209   4.368  1.1696  0.7538 -0.9203
 3628TIP3   OH210889   0.931   1.402   1.246  0.6578 -0.2127  0.3388
 3628TIP3    H110890   0.970   1.388   1.333  1.6641  1.7689  0.2691
 3628TIP3    H210891   0.987   1.352   1.187  0.4741 -0.8868  0.7238
 3629TIP3   OH210892   6.119   2.700   0.685  0.4161  0.2900 -0.2388
 3629TIP3    H110893   6.186   2.661   0.742  0.3899  1.4952  0.6802
 3629TIP3    H210894   6.166   2.768   0.637 -0.5062  2.9391  2.2734
 3630TIP3   OH210895   5.743   3.198   4.905 -0.0351  0.0273  0.2181
 3630TIP3    H110896   5.764   3.290   4.923 -0.1891  0.0418  0.3258
 3630TIP3    H210897   5.817   3.149   4.941 -0.0743  0.0931  0.3910
 3631TIP3   OH210898   5.097   5.422   4.506 -0.7813 -0.4511  0.2436
 3631TIP3    H110899   5.078   5.429   4.600  1.4157 -2.3408  0.9216
 3631TIP3    H210900   5.193   5.429   4.501 -0.8698 -0.2655 -1.8929
 3632TIP3   OH210901   4.171   4.270   2.677 -0.6883  0.0007 -0.8595
 3632TIP3    H110902   4.168   4.244   2.586 -1.1592  0.7459 -1.0695
 3632TIP3    H210903   4.197   4.363   2.675 -0.4172 -0.0510 -0.2273
 3633TIP3   OH210904   1.633   3.395   0.089  0.2540  0.3041  0.0962
 3633TIP3    H110905   1.719   3.407   0.049  0.1189  2.2737  0.2873
 3633TIP3    H210906   1.571   3.409   0.017  0.0726 -1.1557 -0.0512
 3634TIP3   OH210907   5.074   3.910   4.057 -0.1622 -0.6337  0.2172
 3634TIP3    H110908   5.044   4.001   4.069  0.6472 -0.5375  1.8421
 3634TIP3    H210909   5.037   3.883   3.973 -1.0393  0.9530  0.0554
 3635TIP3   OH210910   4.424   3.285   2.655  0.4394  0.4277  0.4409
 3635TIP3    H110911   4.433   3.194   2.684  1.2881  0.0936 -0.8170
 3635TIP3    H210912   4.396   3.332   2.733 -2.1640 -1.2615  0.6490
 3636TIP3   OH210913   2.058   4.108   5.021 -0.3711  0.7365 -0.0697
 3636TIP3    H110914   1.985   4.099   5.082  0.8519  0.8552  1.4994
 3636TIP3    H210915   2.128   4.147   5.074  0.6222  1.2336 -1.6799
 3637TIP3   OH210916   2.529   1.737   1.570  0.0441 -0.2232  0.0108
 3637TIP3    H110917   2.511   1.711   1.660 -1.0625 -0.5828 -0.3002
 3637TIP3    H210918   2.480   1.674   1.517  1.5661 -0.7000 -0.8755
 3638TIP3   OH210919   1.396   1.840   2.210 -0.1865 -0.0525  0.0277
 3638TIP3    H110920   1.321   1.811   2.158 -0.2691 -1.3678  0.8306
 3638TIP3    H210921   1.450   1.888   2.148 -1.9903  1.5295 -0.4260
 3639TIP3   OH210922   2.105   0.816   0.457  0.4085 -0.1487 -0.3400
 3639TIP3    H110923   2.055   0.735   0.448  0.4654 -0.0884 -1.2614
 3639TIP3    H210924   2.193   0.788   0.482  0.5078 -0.3904 -0.9590
 3640TIP3   OH210925   0.976   2.758   3.403  0.1430 -0.3490 -0.0991
 3640TIP3    H110926   1.027   2.797   3.332 -0.5546  0.3577 -0.2352
 3640TIP3    H210927   0.920   2.693   3.360  1.2912 -1.5142  0.1248
 3641TIP3   OH210928   5.157   4.624   0.835 -0.0242 -0.0533  0.1260
 3641TIP3    H110929   5.175   4.555   0.771  1.4551 -0.0112  0.4738
 3641TIP3    H210930   5.071   4.658   0.810 -0.2782 -1.2613 -0.7235
 3642TIP3   OH210931   1.118   4.734   1.893 -0.8463  0.0557  0.3503
 3642TIP3    H110932   1.201   4.761   1.933 -1.3868  2.1986  0.1384
 3642TIP3    H210933   1.140   4.655   1.845  1.1703  0.7191  0.0655
 3643TIP3   OH210934   2.110   4.784   4.218  0.1261 -0.3839  0.7576
 3643TIP3    H110935   2.163   4.712   4.185  1.1197  0.6840 -0.0453
 3643TIP3    H210936   2.021   4.762   4.192  0.8884  0.8207 -3.7270
 3644TIP3   OH210937   4.443   3.987   2.536 -0.1713  0.0598  0.4811
 3644TIP3    H110938   4.457   3.895   2.512 -3.2816 -0.0457 -1.3810
 3644TIP3    H210939   4.466   4.036   2.458  2.0948  1.0551  1.6665
 3645TIP3   OH210940   3.709   3.322   3.719  0.0029 -0.1638  0.1354
 3645TIP3    H110941   3.671   3.258   3.779  0.8251  0.3370  1.2229
 3645TIP3    H210942   3.785   3.277   3.682  1.6937  0.7403  2.3044
 3646TIP3   OH210943   5.410   2.455   2.461  0.1062  0.1217 -0.2297
 3646TIP3    H110944   5.322   2.443   2.497  0.2365  0.6282  0.2774
 3646TIP3    H210945   5.450   2.368   2.465 -0.3991 -0.1293 -0.5481
 3647TIP3   OH210946   3.879   4.635   4.452  0.4787  1.1098 -0.0491
 3647TIP3    H110947   3.927   4.660   4.531  0.1710  0.9460  0.1934
 3647TIP3    H210948   3.793   4.676   4.462  0.2947  0.7423 -0.0960
 3648TIP3   OH210949   2.922   4.587   4.369  0.0198 -0.0642  0.0347
 3648TIP3    H110950   2.827   4.591   4.379  0.1552 -0.5093  1.8982
 3648TIP3    H210951   2.950   4.523   4.435  1.7354  1.1652  0.5639
 3649TIP3   OH210952   3.951   5.913   3.848  0.4303 -0.1203 -0.1447
 3649TIP3    H110953   3.944   5.992   3.902 -0.0683  0.6138 -1.2479
 3649TIP3    H210954   3.878   5.920   3.786  1.1114 -0.8205 -1.0500
 3650TIP3   OH210955   6.279   4.215   2.762 -0.1359 -0.2851 -0.2690
 3650TIP3    H110956   6.269   4.307   2.784  0.1378 -0.8922  2.9119
 3650TIP3    H210957   6.196   4.191   2.720 -0.4034  1.2865 -0.6820
 3651TIP3   OH210958   0.065   5.053   2.889  0.5605  0.0479 -0.4449
 3651TIP3    H110959   0.082   5.082   2.799 -0.5987  0.2339 -0.6083
 3651TIP3    H210960   0.060   5.135   2.939 -0.5365  0.0454 -0.5272
 3652TIP3   OH210961   3.959   5.513   3.706 -0.1781 -0.0970  0.3083
 3652TIP3    H110962   3.914   5.562   3.637 -0.0871 -0.2515  0.1406
 3652TIP3    H210963   3.946   5.421   3.683 -0.4145 -0.1565  0.6641
 3653TIP3   OH210964   5.394   5.150   4.582 -0.5426 -0.0618  0.1326
 3653TIP3    H110965   5.435   5.076   4.537 -0.0252  0.4943 -0.3404
 3653TIP3    H210966   5.322   5.112   4.632 -0.7729 -0.7794 -0.7263
 3654TIP3   OH210967   3.613   2.184   1.553  0.3114 -0.3103  0.5247
 3654TIP3    H110968   3.635   2.118   1.619 -3.1961 -0.4218  1.7923
 3654TIP3    H210969   3.590   2.134   1.475  0.0535 -0.4735  0.7028
 3655TIP3   OH210970   1.650   4.896   2.135  0.1529  0.5562 -0.0211
 3655TIP3    H110971   1.711   4.947   2.188  0.3358  2.4289 -1.8908
 3655TIP3    H210972   1.627   4.954   2.063 -1.6119 -1.1587 -0.9338
 3656TIP3   OH210973   5.085   2.896   2.483 -0.1503 -0.5339  0.1944
 3656TIP3    H110974   5.037   2.881   2.401 -1.0250 -0.8747  0.7554
 3656TIP3    H210975   5.095   2.809   2.521 -1.7939 -0.1677  1.5667
 3657TIP3   OH210976   5.190   4.293   0.119 -0.2187 -0.3340  0.2140
 3657TIP3    H110977   5.204   4.340   0.202 -1.8771  2.4382 -0.9464
 3657TIP3    H210978   5.265   4.318   0.065  0.1356 -1.0130  0.3791
 3658TIP3   OH210979   0.820   2.665   0.004 -0.0843 -0.4534  0.2482
 3658TIP3    H110980   0.766   2.677  -0.073  0.9309 -1.4349 -0.6601
 3658TIP3    H210981   0.760   2.631   0.071 -1.0120  0.6146 -0.0311
 3659TIP3   OH210982   0.137   5.358   0.387  0.1160  0.5314  0.4155
 3659TIP3    H110983   0.085   5.284   0.418 -0.0241 -0.0014 -0.9930
 3659TIP3    H210984   0.145   5.415   0.463 -2.4111  0.5677  0.7582
 3660TIP3   OH210985   0.135   5.948   5.140  0.3373  0.3898 -0.5585
 3660TIP3    H110986   0.164   6.030   5.181 -0.9996  0.7233 -0.2247
 3660TIP3    H210987   0.193   5.936   5.065  1.3461  0.9845  0.1043
 3661TIP3   OH210988   4.251   3.679   2.940 -0.0017 -0.4052  0.0121
 3661TIP3    H110989   4.223   3.655   2.851  1.1403  0.1227 -0.5137
 3661TIP3    H210990   4.209   3.763   2.957  0.3948 -0.1269 -0.3518
 3662TIP3   OH210991   4.655   0.936   1.872  0.6139 -0.2446 -0.2909
 3662TIP3    H110992   4.599   0.999   1.827 -1.0616 -0.4920  1.3754
 3662TIP3    H210993   4.736   0.984   1.888 -0.1879  1.1008 -0.1374
 3663TIP3   OH210994   1.375   5.954   4.982  0.3935  0.4414 -0.4615
 3663TIP3    H110995   1.313   5.907   4.925  1.5444 -0.3495 -1.1183
 3663TIP3    H210996   1.453   5.899   4.981  0.6232  0.6907  1.5021
 3664TIP3   OH210997   0.150   0.513   1.484 -0.4701  0.2691 -0.3535
 3664TIP3    H110998   0.180   0.424   1.503  1.2338  1.2033  1.7493
 3664TIP3    H210999   0.164   0.523   1.390  2.5343 -0.6309 -0.1181
 3665TIP3   OH211000   3.747   5.062   0.990  0.1309 -0.4428  0.3768
 3665TIP3    H111001   3.789   5.013   1.060 -1.4063 -1.4606  0.6382
 3665TIP3    H211002   3.710   4.995   0.932 -0.3804  0.3936 -0.3023
 3666TIP3   OH211003   4.353   3.667   5.182 -0.1966 -0.1386  0.6985
 3666TIP3    H111004   4.385   3.579   5.159 -3.0101 -0.9354 -0.6418
 3666TIP3    H211005   4.388   3.724   5.113  1.2267 -0.2540  1.2908
 3667TIP3   OH211006   3.566   4.526   0.556  0.8351 -0.6775 -0.5251
 3667TIP3    H111007   3.529   4.446   0.519 -0.6395 -0.0002 -0.5776
 3667TIP3    H211008   3.502   4.594   0.536  2.9904  0.9983 -2.3597
 3668TIP3   OH211009   3.401   0.769   4.504 -0.1696 -0.1014  0.2349
 3668TIP3    H111010   3.346   0.841   4.473 -2.6311 -2.7421 -2.0781
 3668TIP3    H211011   3.467   0.759   4.435 -0.6479 -0.8714 -0.1162
 3669TIP3   OH211012   4.050   0.992   1.165 -0.4217 -0.2915 -0.0958
 3669TIP3    H111013   4.100   0.991   1.083 -0.3278  1.5751 -0.1196
 3669TIP3    H211014   3.978   1.053   1.148 -1.0460 -0.7353  0.8706
 3670TIP3   OH211015   5.957   1.138   2.674 -0.2278  0.0611 -0.4165
 3670TIP3    H111016   6.029   1.094   2.720  0.6536  0.4201 -1.4299
 3670TIP3    H211017   5.884   1.077   2.681 -0.0291 -0.0593  1.1374
 3671TIP3   OH211018   5.247   3.160   2.887 -0.0111  0.0212  0.0534
 3671TIP3    H111019   5.256   3.227   2.820 -0.6268  0.0166 -0.0445
 3671TIP3    H211020   5.284   3.081   2.847 -0.1128  0.0889 -0.1793
 3672TIP3   OH211021   3.668   4.378   1.824 -0.2187  0.0565 -0.1685
 3672TIP3    H111022   3.587   4.344   1.785 -0.4431  0.3114  0.0716
 3672TIP3    H211023   3.640   4.455   1.873  0.2857  0.6231 -0.7458
 3673TIP3   OH211024   2.798   1.394   1.323 -0.0736  0.1030 -0.1450
 3673TIP3    H111025   2.835   1.306   1.329 -0.0886  0.0836 -0.3375
 3673TIP3    H211026   2.708   1.381   1.296 -0.5059  0.0966  1.2022
 3674TIP3   OH211027   0.281   4.403   2.368 -0.5849  0.1349 -0.0492
 3674TIP3    H111028   0.237   4.383   2.451 -1.0829  1.9880  0.1810
 3674TIP3    H211029   0.296   4.498   2.372  0.0509  0.1252 -1.7654
 3675TIP3   OH211030   3.846   3.339   0.923  0.1428  0.2799 -0.1578
 3675TIP3    H111031   3.925   3.324   0.975 -1.1702 -1.6206  1.4162
 3675TIP3    H211032   3.837   3.261   0.869  0.7086  1.6266 -2.3426
 3676TIP3   OH211033   6.315   3.829   4.985  0.1942 -0.2495 -0.0568
 3676TIP3    H111034   6.379   3.897   5.005 -1.7503  1.4138  0.8900
 3676TIP3    H211035   6.331   3.761   5.051  1.1053  0.0171  0.0160
 3677TIP3   OH211036   0.749   3.456   2.083 -0.5609  0.0846 -0.1519
 3677TIP3    H111037   0.744   3.400   2.005  0.6368  0.9963 -0.9167
 3677TIP3    H211038   0.761   3.544   2.049 -1.1785  0.6658  1.0637
 3678TIP3   OH211039   0.262   4.221   1.842 -0.3188  0.0269  0.1473
 3678TIP3    H111040   0.336   4.206   1.902 -0.9635 -2.0061  0.4847
 3678TIP3    H211041   0.295   4.285   1.779  1.2929  0.1411  1.0558
 3679TIP3   OH211042   5.908   3.072   2.669 -0.1652  0.3180 -0.2452
 3679TIP3    H111043   5.881   2.991   2.712  1.7504  0.8175  2.1019
 3679TIP3    H211044   5.993   3.051   2.631 -0.3181  0.8670 -0.9109
 3680TIP3   OH211045   0.596   1.024   5.078  0.0816  0.0653  0.4430
 3680TIP3    H111046   0.651   1.020   5.000 -0.8091 -0.4204 -0.1844
 3680TIP3    H211047   0.525   1.083   5.054 -0.8825 -1.0614  0.4169
 3681TIP3   OH211048   6.032   5.643   2.236  0.0590 -0.0764 -0.1484
 3681TIP3    H111049   5.995   5.615   2.152  0.1571  0.7627 -0.4776
 3681TIP3    H211050   5.958   5.638   2.297 -0.1035 -0.3252 -0.3634
 3682TIP3   OH211051   0.897   2.359   2.948 -0.6657 -0.4591  0.1445
 3682TIP3    H111052   0.893   2.280   2.894 -0.0953 -1.7210  1.8525
 3682TIP3    H211053   0.813   2.361   2.994 -1.1155  0.5610 -0.6795
 3683TIP3   OH211054   3.354   4.932   4.400  0.8136 -0.3996 -0.4490
 3683TIP3    H111055   3.332   4.904   4.489  0.1567 -1.1126 -0.8299
 3683TIP3    H211056   3.313   5.018   4.390 -0.5302 -1.0475 -0.6291
 3684TIP3   OH211057   2.680   2.293   2.496 -0.5362  0.4321  0.5988
 3684TIP3    H111058   2.688   2.226   2.564  1.7078 -0.5587 -0.5476
 3684TIP3    H211059   2.755   2.351   2.510 -1.3179  1.5695  0.3138
 3685TIP3   OH211060   1.611   4.661   4.060  0.2529  0.4197 -1.1696
 3685TIP3    H111061   1.652   4.594   4.004  0.0732 -0.0689 -0.7267
 3685TIP3    H211062   1.517   4.641   4.056  0.2227  0.4978 -0.8473
 3686TIP3   OH211063   0.488   4.457   4.729  0.0556  0.0394 -0.4797
 3686TIP3    H111064   0.531   4.473   4.813 -0.2630  1.4682 -0.5599
 3686TIP3    H211065   0.424   4.527   4.721 -0.4382 -0.5064 -1.5843
 3687TIP3   OH211066   1.966   5.750   0.560  0.1006  0.1038 -0.4403
 3687TIP3    H111067   1.885   5.719   0.520  0.0582 -0.3083 -0.0575
 3687TIP3    H211068   1.994   5.823   0.506 -0.5571  0.2873 -0.5458
 3688TIP3   OH211069   5.115   4.598   1.111  0.4780  0.6750  0.2441
 3688TIP3    H111070   5.136   4.689   1.132  1.9173  0.4954 -0.2975
 3688TIP3    H211071   5.135   4.590   1.017 -1.6435  0.3260 -0.2390
 3689TIP3   OH211072   4.947   0.087   1.887 -0.3347 -0.2903 -0.2043
 3689TIP3    H111073   4.906   0.080   1.800  0.1240 -0.9749 -0.3718
 3689TIP3    H211074   5.041   0.089   1.869 -0.2489 -0.0698  0.2609
 3690TIP3   OH211075   5.718   2.025   1.696  0.3415  0.6725  0.3604
 3690TIP3    H111076   5.714   2.095   1.760 -0.2926  1.4074 -0.4549
 3690TIP3    H211077   5.800   2.041   1.648  0.0688  1.0244  0.0029
 3691TIP3   OH211078   1.720   0.666   4.650 -0.1639  0.2180 -0.0238
 3691TIP3    H111079   1.800   0.685   4.699 -0.4815 -2.4568  1.7234
 3691TIP3    H211080   1.680   0.752   4.636  1.1303  1.3249  2.4453
 3692TIP3   OH211081   2.542   2.944   2.483  0.3373 -0.2117  0.4600
 3692TIP3    H111082   2.623   2.935   2.434 -0.7275 -1.2186 -1.2423
 3692TIP3    H211083   2.489   3.004   2.429 -0.5802 -0.7307  0.7642
 3693TIP3   OH211084   3.850   5.864   4.327 -0.5006 -0.0186 -0.2074
 3693TIP3    H111085   3.913   5.935   4.316 -0.9202  0.4162  0.2334
 3693TIP3    H211086   3.850   5.820   4.241 -0.0229  0.3187 -0.3874
 3694TIP3   OH211087   5.284   4.997   2.487 -0.4868  0.0151  0.3128
 3694TIP3    H111088   5.273   5.044   2.569 -0.6211  0.8103 -0.1581
 3694TIP3    H211089   5.235   4.916   2.499  0.2863 -0.3172  1.3694
 3695TIP3   OH211090   0.744   1.967   2.438 -0.2064 -0.3861  0.8432
 3695TIP3    H111091   0.781   2.053   2.419 -0.4015 -0.6840 -0.9822
 3695TIP3    H211092   0.805   1.905   2.400 -0.8406 -1.0087  0.8212
 3696TIP3   OH211093   0.949   2.614   1.125 -0.5034  0.0976 -0.4560
 3696TIP3    H111094   0.875   2.557   1.105 -0.8969  0.5570 -0.3363
 3696TIP3    H211095   0.917   2.671   1.194  0.2056 -0.1710  0.0989
 3697TIP3   OH211096   4.073   2.060   0.524 -0.0744 -0.3491  0.1267
 3697TIP3    H111097   4.143   2.115   0.489 -0.2195 -0.4648 -0.3440
 3697TIP3    H211098   4.007   2.058   0.455 -0.7641  0.1536  0.7597
 3698TIP3   OH211099   4.090   2.396   2.475 -0.4144  0.0798 -0.2694
 3698TIP3    H111100   4.056   2.449   2.547  1.1097 -0.4467  0.8841
 3698TIP3    H211101   4.138   2.325   2.517  0.6506 -0.1712 -1.7946
 3699TIP3   OH211102   1.389   0.727   3.145 -0.2815 -0.4950 -0.5263
 3699TIP3    H111103   1.425   0.799   3.093 -1.3226 -0.5358 -1.3318
 3699TIP3    H211104   1.376   0.656   3.083  0.3368 -1.2598  0.1869
 3700TIP3   OH211105   5.606   3.796   4.756 -0.4812 -0.1938 -0.2066
 3700TIP3    H111106   5.545   3.831   4.821  0.1610  1.2898 -0.3552
 3700TIP3    H211107   5.592   3.850   4.678  0.8480  0.0513 -0.3086
 3701TIP3   OH211108   4.333   5.273   1.936 -0.8010  0.2902  0.5113
 3701TIP3    H111109   4.284   5.224   1.870 -1.4079  0.6469  0.6806
 3701TIP3    H211110   4.317   5.226   2.018 -1.4706  0.8106  0.6917
 3702TIP3   OH211111   0.951   2.070   4.196  0.2903  0.3469 -0.0763
 3702TIP3    H111112   0.956   2.010   4.122  0.5647 -0.6167  0.7000
 3702TIP3    H211113   1.041   2.102   4.207  0.0960  1.1037 -0.6447
 3703TIP3   OH211114   2.971   4.229   2.406 -0.4882  0.2163  0.0014
 3703TIP3    H111115   2.918   4.290   2.355 -0.3214  0.1433 -0.2619
 3703TIP3    H211116   2.954   4.143   2.367 -1.8029 -0.1238  1.2544
 3704TIP3   OH211117   3.690   4.373   4.105  0.0380 -0.4718 -0.6358
 3704TIP3    H111118   3.764   4.312   4.109  0.4486 -0.0293 -1.2391
 3704TIP3    H211119   3.701   4.419   4.022 -0.5472  0.0666 -0.4278
 3705TIP3   OH211120   4.424   5.943   1.996  0.4106 -0.2081 -0.5353
 3705TIP3    H111121   4.471   5.860   1.987 -0.0624 -0.4170 -1.1205
 3705TIP3    H211122   4.332   5.918   2.004  0.3736  0.2040  0.5612
 3706TIP3   OH211123   3.546   4.973   1.387 -0.2709  0.1318 -0.1184
 3706TIP3    H111124   3.490   4.980   1.310 -0.3311  1.4103  0.0207
 3706TIP3    H211125   3.635   4.990   1.355 -0.3806  1.3763  0.1886
 3707TIP3   OH211126   1.550   2.751   4.780 -0.7353 -0.3774 -0.1225
 3707TIP3    H111127   1.637   2.726   4.750  0.2793  1.8938  0.7734
 3707TIP3    H211128   1.518   2.674   4.826  1.4810 -0.7259  0.9614
 3708TIP3   OH211129   0.282   5.716   0.253  0.3335 -0.0794 -0.1130
 3708TIP3    H111130   0.235   5.658   0.193  0.5622  1.0937 -1.4968
 3708TIP3    H211131   0.334   5.773   0.195  1.4277  0.3817  1.2595
 3709TIP3   OH211132   4.816   1.607   1.362 -0.3296  0.6037 -0.2538
 3709TIP3    H111133   4.773   1.656   1.292 -0.9178  2.6350  1.4288
 3709TIP3    H211134   4.863   1.673   1.413  1.4926 -1.0212  0.3436
 3710TIP3   OH211135   0.107   5.015   2.335 -0.5392 -0.2051 -0.2110
 3710TIP3    H111136   0.088   4.958   2.409  0.6085  0.2916  0.4903
 3710TIP3    H211137   0.178   4.970   2.288  1.0631  1.0657  0.9007
 3711TIP3   OH211138   6.326   4.799   0.283  0.1114 -0.0147 -0.9268
 3711TIP3    H111139   6.260   4.867   0.264 -0.0734  0.0726  0.0022
 3711TIP3    H211140   6.370   4.829   0.362 -1.3169 -1.9226  0.6847
 3712TIP3   OH211141   3.057   5.423   1.619  0.0532  0.0976  0.0955
 3712TIP3    H111142   2.968   5.456   1.607 -0.5195 -0.9017  1.3739
 3712TIP3    H211143   3.096   5.427   1.531 -0.6887  2.0448 -0.1931
 3713TIP3   OH211144   2.589   4.188   4.038  0.4580  0.7514 -0.1111
 3713TIP3    H111145   2.629   4.200   4.124  0.3962 -0.1358  0.0533
 3713TIP3    H211146   2.511   4.135   4.055  0.7960  0.0101 -0.7800
 3714TIP3   OH211147   5.614   2.844   3.785 -0.0804  0.4093  0.2534
 3714TIP3    H111148   5.630   2.937   3.801  1.0748  0.0416  1.4530
 3714TIP3    H211149   5.700   2.803   3.795 -0.6401 -0.8412  0.1325
 3715TIP3   OH211150   3.822   1.396   4.092  0.3406 -0.1203 -0.1242
 3715TIP3    H111151   3.904   1.372   4.048  2.1279  3.1771  1.0537
 3715TIP3    H211152   3.786   1.466   4.037 -1.6455 -1.3299 -0.4668
 3716TIP3   OH211153   5.959   0.103   5.068  0.2165  0.0806  0.7291
 3716TIP3    H111154   6.044   0.131   5.036 -1.0768  0.6735 -2.6931
 3716TIP3    H211155   5.958   0.008   5.055 -0.0731  0.2434 -0.6161
 3717TIP3   OH211156   4.047   5.238   1.520  0.1830 -0.0911  0.1441
 3717TIP3    H111157   4.047   5.171   1.589  0.0013  0.1166  0.3481
 3717TIP3    H211158   4.098   5.310   1.557  0.6468 -0.2376 -0.1976
 3718TIP3   OH211159   0.385   5.076   4.345 -0.0885  0.3192  0.2816
 3718TIP3    H111160   0.425   5.015   4.283  1.1685  1.1963  0.1919
 3718TIP3    H211161   0.316   5.120   4.294  0.4675  0.5359 -0.2995
 3719TIP3   OH211162   2.184   0.142   0.480 -0.3380  0.0324  0.6030
 3719TIP3    H111163   2.111   0.198   0.456 -0.2955  0.1659  0.7861
 3719TIP3    H211164   2.188   0.147   0.576  1.0083  1.4166  0.4988
 3720TIP3   OH211165   5.868   3.551   4.426  0.4029 -0.5532 -0.1773
 3720TIP3    H111166   5.868   3.529   4.519  1.9713  1.6357  0.4207
 3720TIP3    H211167   5.955   3.524   4.395  0.4849  0.1701 -0.6049
 3721TIP3   OH211168   2.369   4.223   4.356  0.7385 -0.4361  0.1090
 3721TIP3    H111169   2.324   4.284   4.298  0.5756  1.4852  2.1135
 3721TIP3    H211170   2.303   4.157   4.377  0.2894 -0.2091 -0.5692
 3722TIP3   OH211171   5.290   1.661   5.131  0.9575 -0.6940 -0.4953
 3722TIP3    H111172   5.346   1.736   5.109  1.9542 -1.3038 -0.1278
 3722TIP3    H211173   5.305   1.647   5.225 -1.3543  0.3580  0.0982
 3723TIP3   OH211174   3.255   5.460   2.286  0.0114 -0.0193 -0.3439
 3723TIP3    H111175   3.345   5.489   2.295 -0.4296  1.2287  0.2609
 3723TIP3    H211176   3.229   5.434   2.375 -0.5508  0.6390 -0.3123
 3724TIP3   OH211177   1.084   4.621   2.762 -0.5629 -0.6368  0.5120
 3724TIP3    H111178   1.177   4.642   2.774 -0.5888  0.5421 -1.0790
 3724TIP3    H211179   1.080   4.526   2.767  0.5874 -0.6636  1.4559
 3725TIP3   OH211180   6.378   1.729   2.102 -0.9302  0.3797  0.2986
 3725TIP3    H111181   6.337   1.764   2.182 -0.2642  1.2138  0.2881
 3725TIP3    H211182   6.304   1.694   2.051 -1.4854  0.7665  0.8166
 3726TIP3   OH211183   1.780   4.890   3.615 -0.1558  0.1221  0.3152
 3726TIP3    H111184   1.742   4.813   3.573  1.4191 -1.1114  1.0156
 3726TIP3    H211185   1.833   4.931   3.547 -1.0140  0.6335 -0.0653
 3727TIP3   OH211186   5.547   3.520   4.882  0.3142 -0.3470 -0.1711
 3727TIP3    H111187   5.622   3.472   4.916 -0.5969 -0.1758  2.2417
 3727TIP3    H211188   5.569   3.612   4.895  0.3492 -0.2159 -1.0386
 3728TIP3   OH211189   1.097   5.338   1.323  0.0697 -0.5572 -0.2358
 3728TIP3    H111190   1.038   5.396   1.370  0.3897  1.4447 -2.1342
 3728TIP3    H211191   1.165   5.316   1.387  0.6659  2.3055  0.2521
 3729TIP3   OH211192   2.592   2.002   0.998  0.7039 -0.4383 -0.2617
 3729TIP3    H111193   2.563   2.006   1.089 -1.2533 -0.9455 -0.8122
 3729TIP3    H211194   2.562   1.916   0.968 -0.7542  0.5979 -2.0029
 3730TIP3   OH211195   5.416   4.984   1.378 -0.6299 -0.4080  0.9856
 3730TIP3    H111196   5.376   5.070   1.369  2.0809  0.8448 -0.5465
 3730TIP3    H211197   5.422   4.970   1.473 -1.1941  1.0519  1.2698
 3731TIP3   OH211198   4.922   2.067   4.947  0.2692 -0.6447  0.4254
 3731TIP3    H111199   4.910   2.070   5.042 -0.2952 -1.8284  0.4075
 3731TIP3    H211200   4.834   2.059   4.911  0.5199 -0.9012 -0.1593
 3732TIP3   OH211201   6.312   3.157   0.133  0.3277 -0.1348  0.0994
 3732TIP3    H111202   6.327   3.161   0.039  1.6907  2.6187  0.3375
 3732TIP3    H211203   6.387   3.110   0.168  0.1200 -0.6366 -0.1245
 3733TIP3   OH211204   4.136   1.248   4.691 -0.1341  0.2642 -0.4951
 3733TIP3    H111205   4.176   1.334   4.696  0.3637  0.0481 -0.7897
 3733TIP3    H211206   4.207   1.186   4.707 -0.7859 -0.0640  1.5366
 3734TIP3   OH211207   6.301   4.149   3.090  0.3359 -0.1408 -0.0752
 3734TIP3    H111208   6.240   4.199   3.037 -1.4269 -0.0038  1.9792
 3734TIP3    H211209   6.309   4.065   3.045  1.3501  0.9945 -2.1743
 3735TIP3   OH211210   5.547   5.543   0.597  0.1759 -0.5876  0.0879
 3735TIP3    H111211   5.476   5.483   0.619 -0.8267  0.9076  1.0768
 3735TIP3    H211212   5.504   5.621   0.563  1.4538 -0.4036 -1.2282
 3736TIP3   OH211213   2.198   0.165   0.208  1.0648  0.0086  0.4190
 3736TIP3    H111214   2.180   0.156   0.302 -0.8147  0.7511  0.1648
 3736TIP3    H211215   2.217   0.257   0.195  1.7898 -0.1736  0.1252
 3737TIP3   OH211216   1.178   4.817   4.880  0.2670 -0.5057  0.5642
 3737TIP3    H111217   1.145   4.743   4.931  1.6428 -0.7330  1.1627
 3737TIP3    H211218   1.227   4.777   4.808 -1.0201 -0.1757 -0.5542
 3738TIP3   OH211219   4.674   1.336   1.831  0.0738  0.3266 -0.7095
 3738TIP3    H111220   4.621   1.257   1.819  1.1952 -1.0506  2.3449
 3738TIP3    H211221   4.629   1.385   1.901  1.5245  0.2752  0.3096
 3739TIP3   OH211222   5.719   0.499   2.597 -0.0900  0.5658 -0.1888
 3739TIP3    H111223   5.810   0.528   2.602  0.2133 -0.4766  0.8336
 3739TIP3    H211224   5.672   0.556   2.656  0.2357 -0.0205  0.6565
 3740TIP3   OH211225   3.672   0.531   3.633 -0.1159  0.5777 -0.2945
 3740TIP3    H111226   3.757   0.574   3.639  0.1483  0.0304 -0.0764
 3740TIP3    H211227   3.672   0.491   3.546  0.3286 -0.4107  0.1504
 3741TIP3   OH211228   1.329   0.196   1.643 -0.4616  0.0154  0.5307
 3741TIP3    H111229   1.271   0.158   1.709 -1.5707 -1.8843 -1.3683
 3741TIP3    H211230   1.274   0.261   1.599 -0.1343  0.4074  0.7050
 3742TIP3   OH211231   3.003   0.502   3.960 -0.0424 -0.3140 -0.1562
 3742TIP3    H111232   3.019   0.463   3.874  0.6555 -2.3130  0.8215
 3742TIP3    H211233   3.052   0.447   4.020 -2.4814 -0.4738  1.8396
 3743TIP3   OH211234   3.732   2.998   3.277  0.7504  0.0780 -0.1852
 3743TIP3    H111235   3.745   3.055   3.201  0.9510  0.6010  0.2317
 3743TIP3    H211236   3.639   3.005   3.296  0.7228  0.0479 -0.3092
 3744TIP3   OH211237   4.207   0.248   0.822 -0.7547  0.0944  0.3217
 3744TIP3    H111238   4.136   0.311   0.812 -0.5542  0.4445  1.0568
 3744TIP3    H211239   4.251   0.273   0.904 -0.8150 -1.1283  0.7552
 3745TIP3   OH211240   5.249   5.409   2.901 -0.1640 -0.1990  0.2195
 3745TIP3    H111241   5.258   5.340   2.967  1.2983  0.5950  0.8943
 3745TIP3    H211242   5.290   5.486   2.941 -0.7115  0.7465 -0.9793
 3746TIP3   OH211243   2.288   5.075   1.436  0.3119  0.0002  0.2107
 3746TIP3    H111244   2.326   5.117   1.513 -1.5427  0.9418  0.6710
 3746TIP3    H211245   2.239   5.000   1.471  0.3104 -0.1852 -0.1728
 3747TIP3   OH211246   3.251   5.203   3.541  0.6106 -0.3193 -0.0088
 3747TIP3    H111247   3.334   5.250   3.536  0.3181  0.0546 -2.6350
 3747TIP3    H211248   3.276   5.111   3.545  1.2421 -0.3229 -2.4307
 3748TIP3   OH211249   5.936   1.797   0.175  0.3047  0.0538  0.1933
 3748TIP3    H111250   5.992   1.783   0.251  0.0097  2.3241  0.9103
 3748TIP3    H211251   5.992   1.777   0.100 -0.0866 -4.6253  0.8505
 3749TIP3   OH211252   5.478   2.820   4.900  0.1238  0.3436  0.3310
 3749TIP3    H111253   5.415   2.776   4.958 -1.4509  1.5872 -0.3563
 3749TIP3    H211254   5.462   2.781   4.814 -0.3000  1.2336 -0.0067
 3750TIP3   OH211255   5.300   1.032   0.569 -0.1595 -0.3984  0.2967
 3750TIP3    H111256   5.369   0.970   0.594  0.8136  1.1687  1.7422
 3750TIP3    H211257   5.221   0.999   0.611 -0.6916 -2.8616 -2.3009
 3751TIP3   OH211258   0.712   5.172   3.808  0.6481  0.3664 -0.4216
 3751TIP3    H111259   0.751   5.248   3.764 -0.3873  0.9908 -0.2931
 3751TIP3    H211260   0.710   5.197   3.900  0.1087  0.2706 -0.4077
 3752TIP3   OH211261   4.942   2.669   3.897  0.4376 -0.0131 -0.2276
 3752TIP3    H111262   4.986   2.730   3.839  3.3486 -0.0403  1.7795
 3752TIP3    H211263   4.900   2.724   3.963  0.3584 -0.1066 -0.1994
 3753TIP3   OH211264   1.690   3.960   4.725 -0.0079  0.9594 -0.6979
 3753TIP3    H111265   1.658   3.878   4.762  1.4761  0.9645  0.7428
 3753TIP3    H211266   1.625   4.025   4.749 -1.1576  0.2483 -1.7836
 3754TIP3   OH211267   1.051   4.335   4.129  0.4845 -0.2050 -0.3732
 3754TIP3    H111268   1.122   4.399   4.125 -0.1783  0.5245 -0.6000
 3754TIP3    H211269   0.993   4.367   4.198 -0.7318  0.3708 -1.6242
 3755TIP3   OH211270   1.151   5.342   4.477  0.1150 -0.0513 -0.0068
 3755TIP3    H111271   1.198   5.322   4.396  1.6846 -0.2454  0.9101
 3755TIP3    H211272   1.060   5.357   4.450  0.4424 -0.9153 -1.6845
 3756TIP3   OH211273   3.655   2.294   3.624  0.3871  0.1118 -0.2866
 3756TIP3    H111274   3.581   2.235   3.608  1.0977 -0.5948 -1.0602
 3756TIP3    H211275   3.726   2.236   3.652 -0.1897  1.0666  3.7459
 3757TIP3   OH211276   4.474   1.151   1.843  0.0042  0.1141  0.4714
 3757TIP3    H111277   4.417   1.195   1.906  0.2131 -2.2349  2.4754
 3757TIP3    H211278   4.415   1.098   1.789  0.0942 -0.8939  1.3312
 3758TIP3   OH211279   1.331   2.292   3.301 -0.0797 -0.0528  0.0788
 3758TIP3    H111280   1.272   2.251   3.365 -0.0106 -1.2763 -0.6097
 3758TIP3    H211281   1.409   2.236   3.301 -0.2243 -0.2893 -1.3096
 3759TIP3   OH211282   5.106   4.728   4.190  0.2826 -0.6252 -0.2609
 3759TIP3    H111283   5.058   4.654   4.154  1.7851 -1.7893  0.0405
 3759TIP3    H211284   5.058   4.752   4.269 -1.2921 -0.0212 -1.3455
 3760TIP3   OH211285   4.905   3.743   0.126  0.5365 -0.9671 -0.0087
 3760TIP3    H111286   4.879   3.677   0.062  1.2265 -1.6547  0.3991
 3760TIP3    H211287   4.990   3.712   0.158  0.6731 -0.0941  0.4914
 3761TIP3   OH211288   2.959   5.280   1.143  0.1331 -0.0794 -0.0455
 3761TIP3    H111289   2.925   5.253   1.058 -0.9532  1.0370 -0.0119
 3761TIP3    H211290   2.920   5.367   1.157  3.7406  1.7465 -0.3858
 3762TIP3   OH211291   0.993   5.146   4.172  0.1789 -0.1531 -0.3833
 3762TIP3    H111292   0.920   5.201   4.142 -0.2948 -0.7289 -0.3028
 3762TIP3    H211293   1.071   5.187   4.134 -0.0038  1.3671  0.7630
 3763TIP3   OH211294   4.461   5.837   0.212 -0.7090 -0.1144  0.3446
 3763TIP3    H111295   4.463   5.743   0.199  0.9934  0.1677 -2.0047
 3763TIP3    H211296   4.541   5.856   0.261 -1.0538  0.1327  0.8247
 3764TIP3   OH211297   1.573   5.939   2.580 -0.5451 -0.0499 -0.4955
 3764TIP3    H111298   1.492   5.964   2.626  0.3741  1.1681  0.5481
 3764TIP3    H211299   1.602   5.860   2.626 -0.4704  0.2555 -0.0044
 3765TIP3   OH211300   5.027   4.259   2.862  0.0684  0.3817 -0.2257
 3765TIP3    H111301   5.018   4.351   2.836 -0.4729  0.5660  0.5475
 3765TIP3    H211302   5.113   4.233   2.831  0.7657  1.5335  0.6581
 3766TIP3   OH211303   2.763   1.114   1.762 -0.5337  0.1806 -0.1393
 3766TIP3    H111304   2.795   1.171   1.692 -0.0144 -1.0078 -0.9040
 3766TIP3    H211305   2.838   1.059   1.784 -1.1854 -0.6074  0.1639
 3767TIP3   OH211306   2.680   5.465   3.464  0.1576 -0.2423  0.0496
 3767TIP3    H111307   2.587   5.462   3.443  0.5614 -1.6455 -1.8128
 3767TIP3    H211308   2.700   5.378   3.497  1.1193 -0.5425 -1.2334
 3768TIP3   OH211309   4.302   1.924   0.212  0.3609  0.4518 -0.2131
 3768TIP3    H111310   4.368   1.863   0.178  0.9583  0.0537  1.5772
 3768TIP3    H211311   4.331   1.944   0.301 -2.2612 -0.2430  0.8741
 3769TIP3   OH211312   3.031   5.780   4.420 -0.5711  0.0473 -0.0859
 3769TIP3    H111313   2.941   5.750   4.432 -0.9710  0.1528 -2.3865
 3769TIP3    H211314   3.034   5.813   4.330  1.6646  0.4487  0.0693
 3770TIP3   OH211315   5.544   3.137   1.642  0.0949  0.0843  0.1844
 3770TIP3    H111316   5.590   3.195   1.581  0.7220  1.2140  1.6524
 3770TIP3    H211317   5.598   3.139   1.721 -0.6354 -1.4205  0.7436
 3771TIP3   OH211318   0.371   0.633   3.834  0.0958 -0.2542 -0.2120
 3771TIP3    H111319   0.438   0.569   3.808 -1.5010 -1.9172 -0.4332
 3771TIP3    H211320   0.355   0.615   3.926  2.2066  2.3461  0.7893
 3772TIP3   OH211321   3.862   0.225   2.149 -0.0239 -0.2655  0.2134
 3772TIP3    H111322   3.829   0.186   2.068 -0.3454  1.4387 -0.4963
 3772TIP3    H211323   3.835   0.163   2.217  1.4165 -2.4423 -1.0455
 3773TIP3   OH211324   2.823   4.080   0.486 -0.9462 -0.2917  0.0240
 3773TIP3    H111325   2.764   4.004   0.483 -0.9537 -0.3079  0.4776
 3773TIP3    H211326   2.877   4.064   0.563  0.9520 -1.2365 -1.4085
 3774TIP3   OH211327   1.756   5.671   4.030  0.2114 -0.1410  0.3205
 3774TIP3    H111328   1.664   5.685   4.054 -0.3300  0.7428 -2.0159
 3774TIP3    H211329   1.759   5.582   3.996 -0.3226  0.5345 -1.6336
 3775TIP3   OH211330   6.059   3.511   0.058 -0.1265  0.3580  0.7890
 3775TIP3    H111331   5.980   3.539   0.012  0.5762  3.9497  1.4715
 3775TIP3    H211332   6.126   3.507  -0.010 -0.4881 -1.0664  0.4838
 3776TIP3   OH211333   5.538   1.513   0.818 -0.0455  0.1219 -0.4302
 3776TIP3    H111334   5.534   1.498   0.912  0.0818 -0.7558 -0.5513
 3776TIP3    H211335   5.475   1.451   0.781 -0.9601  1.2690 -0.8568
 3777TIP3   OH211336   3.863   4.157   4.919  0.2854  0.0464  0.2010
 3777TIP3    H111337   3.887   4.172   5.011 -0.0452  2.3404 -0.0302
 3777TIP3    H211338   3.777   4.116   4.923  1.1790 -1.8627  0.9133
 3778TIP3   OH211339   4.103   1.417   0.985 -0.5955  0.3076  0.7294
 3778TIP3    H111340   4.024   1.471   0.986 -1.6184 -1.0027  3.9999
 3778TIP3    H211341   4.077   1.338   0.938 -0.4865  0.7973 -0.1731
 3779TIP3   OH211342   2.846   1.447   3.755  0.7045  0.2284 -0.3197
 3779TIP3    H111343   2.887   1.531   3.776  1.6228 -0.3832  0.4367
 3779TIP3    H211344   2.918   1.384   3.760  0.3839 -0.3854 -2.5236
 3780TIP3   OH211345   5.015   5.510   2.505 -0.0722  0.0462  0.2921
 3780TIP3    H111346   4.963   5.574   2.553  0.7199 -0.0843  1.3425
 3780TIP3    H211347   5.097   5.502   2.554  0.7468 -0.1307 -1.0527
 3781TIP3   OH211348   1.545   2.799   2.506  0.0584  0.9529  0.2489
 3781TIP3    H111349   1.593   2.717   2.516 -1.1060  0.3120  0.8362
 3781TIP3    H211350   1.581   2.856   2.575  3.3053  2.2621 -2.2578
 3782TIP3   OH211351   3.302   2.682   1.884 -0.1799  0.1133  0.0677
 3782TIP3    H111352   3.320   2.766   1.842 -1.0614 -0.2016 -0.9907
 3782TIP3    H211353   3.382   2.631   1.870  0.7257  1.0381  1.5113
 3783TIP3   OH211354   3.871   4.389   3.537 -0.0352 -0.1691 -0.5582
 3783TIP3    H111355   3.894   4.481   3.525 -0.3965  0.0375  0.2452
 3783TIP3    H211356   3.928   4.342   3.477  1.6556  0.4188  0.5243
 3784TIP3   OH211357   3.509   0.474   1.885 -0.2406  0.1763  0.2905
 3784TIP3    H111358   3.469   0.423   1.816  1.6062  0.5438 -1.1459
 3784TIP3    H211359   3.443   0.480   1.954 -2.1564 -0.1588 -1.4593
 3785TIP3   OH211360   0.919   1.265   2.080 -0.0928  0.4182  0.9960
 3785TIP3    H111361   0.859   1.265   2.154 -1.3095 -0.6558  0.0482
 3785TIP3    H211362   0.952   1.175   2.075 -1.0919  0.1137 -0.5801
 3786TIP3   OH211363   4.683   3.943   3.742 -0.2749  0.0506 -0.5117
 3786TIP3    H111364   4.629   3.913   3.668 -1.1396 -1.5075  0.6915
 3786TIP3    H211365   4.629   3.925   3.819  2.2865 -2.5058  0.8538
 3787TIP3   OH211366   0.530   5.840   1.299 -0.7275 -0.2072  0.0109
 3787TIP3    H111367   0.488   5.783   1.236  0.6535 -1.6923  0.3467
 3787TIP3    H211368   0.515   5.797   1.384  3.6542 -2.4829 -0.0741
 3788TIP3   OH211369   2.755   5.235   2.266 -0.1510 -0.2737  0.1269
 3788TIP3    H111370   2.684   5.264   2.322  0.1560  0.4861  0.1277
 3788TIP3    H211371   2.795   5.315   2.233  0.8680 -0.6792  0.3237
 3789TIP3   OH211372   1.562   1.614   3.909  0.4523  0.3505 -0.1784
 3789TIP3    H111373   1.469   1.613   3.932 -0.2584  0.3957 -2.7502
 3789TIP3    H211374   1.585   1.521   3.904  0.6563  0.3405  0.7728
 3790TIP3   OH211375   1.029   5.273   0.094  0.0264  0.2181 -0.3896
 3790TIP3    H111376   1.032   5.223   0.012 -0.5216 -0.5932  0.0600
 3790TIP3    H211377   0.992   5.211   0.157  0.4224  0.8400  0.4642
 3791TIP3   OH211378   1.916   0.068   3.480  0.2861 -0.4621 -0.2741
 3791TIP3    H111379   1.841   0.124   3.499 -0.7366 -1.7723 -0.3801
 3791TIP3    H211380   1.921   0.067   3.384  0.7723  0.0244 -0.2632
 3792TIP3   OH211381   0.785   0.911   3.825  0.8681 -0.2644  0.0017
 3792TIP3    H111382   0.784   0.957   3.741 -1.0726 -1.1394 -0.5075
 3792TIP3    H211383   0.786   0.981   3.890 -0.5991  0.5105 -0.7569
 3793TIP3   OH211384   1.696   5.927   2.064  0.0677 -0.4624 -0.1524
 3793TIP3    H111385   1.725   5.933   2.155  1.7069 -2.0931 -0.5131
 3793TIP3    H211386   1.617   5.872   2.068 -0.7650  0.7272  0.4063
 3794TIP3   OH211387   2.295   0.373   0.804 -0.2008 -0.2066 -0.4648
 3794TIP3    H111388   2.242   0.447   0.771 -1.0492 -0.8067 -0.4787
 3794TIP3    H211389   2.348   0.411   0.873 -2.8574 -0.1391  1.7083
 3795TIP3   OH211390   0.516   0.138   4.794  0.4575 -0.1247  0.2923
 3795TIP3    H111391   0.496   0.065   4.735 -0.7517 -0.1279  0.6767
 3795TIP3    H211392   0.503   0.216   4.740 -0.7551 -0.1232  0.5576
 3796TIP3   OH211393   2.484   5.034   1.827 -0.0926  0.2530  0.0183
 3796TIP3    H111394   2.450   5.079   1.750 -0.6488  0.2263  0.2391
 3796TIP3    H211395   2.524   4.954   1.793 -2.5798 -1.0631 -0.0568
 3797TIP3   OH211396   1.002   5.205   3.278  0.7357 -0.1627 -0.4866
 3797TIP3    H111397   1.043   5.187   3.362  0.4409 -1.1415 -0.5349
 3797TIP3    H211398   1.075   5.228   3.220  1.1403 -1.1344 -0.3809
 3798TIP3   OH211399   4.291   5.068   1.743  0.4456 -0.0380  0.8093
 3798TIP3    H111400   4.316   4.976   1.751  1.5054 -0.2823 -3.1433
 3798TIP3    H211401   4.208   5.066   1.694  0.8496  1.0969  0.0489
 3799TIP3   OH211402   2.352   3.238   4.100 -0.5116 -0.2931  0.3367
 3799TIP3    H111403   2.339   3.309   4.163  1.0424  0.3459 -0.0060
 3799TIP3    H211404   2.408   3.277   4.033 -0.3829 -1.5894 -0.3235
 3800TIP3   OH211405   4.861   1.000   3.397  0.5835 -0.7104 -0.2291
 3800TIP3    H111406   4.884   1.093   3.394  1.0382 -0.8474 -2.2676
 3800TIP3    H211407   4.802   0.987   3.323  0.9114 -2.1395 -0.2618
 3801TIP3   OH211408   1.590   2.505   2.425  0.3876  0.1818 -0.6787
 3801TIP3    H111409   1.573   2.497   2.519  1.8652 -0.5459 -0.4522
 3801TIP3    H211410   1.667   2.561   2.420 -0.7021  1.6800 -1.5705
 3802TIP3   OH211411   4.417   1.565   3.661 -0.0476 -0.0783 -0.9938
 3802TIP3    H111412   4.338   1.515   3.683  0.1583 -0.8985 -2.0492
 3802TIP3    H211413   4.487   1.524   3.712 -0.4134  1.1833  0.6003
 3803TIP3   OH211414   5.657   0.772   3.775  0.1287 -0.1778 -0.4462
 3803TIP3    H111415   5.721   0.735   3.837  1.6683  0.6209 -1.4756
 3803TIP3    H211416   5.583   0.797   3.830  1.2584  0.1049  1.0444
 3804TIP3   OH211417   4.266   1.321   2.516 -0.4114 -0.3653 -0.1386
 3804TIP3    H111418   4.211   1.246   2.538 -1.5331 -0.5928 -3.2778
 3804TIP3    H211419   4.230   1.393   2.568 -2.7424 -0.8669 -0.9474
 3805TIP3   OH211420   5.681   3.819   1.447  0.2257  0.6550 -0.5478
 3805TIP3    H111421   5.738   3.782   1.379  0.0642  0.8373 -0.7855
 3805TIP3    H211422   5.695   3.913   1.442 -0.2407  0.7199 -0.7458
 3806TIP3   OH211423   3.073   0.342   0.820  0.1399 -0.3305 -0.2871
 3806TIP3    H111424   3.036   0.363   0.906  0.2159  1.3787 -0.6249
 3806TIP3    H211425   3.041   0.254   0.800 -2.1939  0.3075  0.2856
 3807TIP3   OH211426   4.283   4.617   0.791 -0.4463 -0.1161 -0.1581
 3807TIP3    H111427   4.323   4.534   0.818  1.6089  1.3425  1.6737
 3807TIP3    H211428   4.211   4.630   0.853  1.4848  1.0790  2.0049
 3808TIP3   OH211429   2.803   4.042   3.891 -0.1571  0.4122 -0.1805
 3808TIP3    H111430   2.748   4.064   3.966  0.5278  0.9742  0.1684
 3808TIP3    H211431   2.845   4.124   3.866 -0.8532  0.3791 -1.5937
 3809TIP3   OH211432   0.724   1.213   0.224  0.0411  0.2062 -0.2521
 3809TIP3    H111433   0.704   1.124   0.251 -0.1397  0.4445  0.4216
 3809TIP3    H211434   0.702   1.267   0.300 -3.0733  1.2102 -1.6961
 3810TIP3   OH211435   4.358   4.693   2.407 -0.3813  0.1225  0.3492
 3810TIP3    H111436   4.323   4.648   2.484 -1.1216 -1.3578 -0.7955
 3810TIP3    H211437   4.284   4.700   2.347  0.7792 -1.3801 -1.3680
 3811TIP3   OH211438   5.009   5.319   2.822  0.2741  0.0314 -0.4430
 3811TIP3    H111439   4.954   5.391   2.852  2.1344  0.8169  1.2764
 3811TIP3    H211440   5.098   5.344   2.846  1.1531 -2.2287 -1.0437
 3812TIP3   OH211441  -0.011   1.192   3.603 -0.6182  0.3606  0.0376
 3812TIP3    H111442   0.048   1.182   3.527 -1.1007 -1.1619 -0.1734
 3812TIP3    H211443   0.035   1.254   3.660  1.6951 -1.4902  0.3464
 3813TIP3   OH211444   0.380   5.687   0.496 -0.1862  0.2605  0.1048
 3813TIP3    H111445   0.348   5.683   0.406  0.5129 -0.2941 -0.1317
 3813TIP3    H211446   0.328   5.756   0.537 -0.4612  0.5728 -0.7458
 3814TIP3   OH211447   4.168   4.985   2.867  0.8075  0.6062  0.1132
 3814TIP3    H111448   4.120   5.067   2.861  0.8831  0.6334 -0.1279
 3814TIP3    H211449   4.260   5.011   2.872  0.7320  0.6138  1.9570
 3815TIP3   OH211450   1.507   5.792   2.903 -0.2729 -0.3158 -0.4732
 3815TIP3    H111451   1.496   5.725   2.971 -0.4280  0.3953  0.2306
 3815TIP3    H211452   1.578   5.759   2.848 -0.3801 -1.0782 -0.1695
 3816TIP3   OH211453   0.957   4.300   0.605 -0.5527  0.4266 -0.0682
 3816TIP3    H111454   1.026   4.365   0.619 -0.2354  0.1855 -0.5173
 3816TIP3    H211455   0.992   4.219   0.642 -0.6570  0.3412 -0.1557
 3817TIP3   OH211456   3.209   3.577   2.109 -0.0540 -0.5320 -0.0669
 3817TIP3    H111457   3.223   3.640   2.038 -0.7922 -0.0034  0.2408
 3817TIP3    H211458   3.294   3.567   2.151  0.4872 -1.1541 -1.2644
 3818TIP3   OH211459   0.839   2.923   1.967 -0.0637  0.1001  0.6858
 3818TIP3    H111460   0.760   2.909   1.914 -0.9077 -0.7843  2.1181
 3818TIP3    H211461   0.852   2.840   2.013  0.3083  1.0036  2.2832
 3819TIP3   OH211462   0.728   5.922   0.124 -0.0275 -0.1009  0.3492
 3819TIP3    H111463   0.641   5.924   0.163  0.5029  0.6126  1.5397
 3819TIP3    H211464   0.781   5.979   0.179  0.6338  1.5136 -1.8018
 3820TIP3   OH211465   1.222   3.846   2.627  0.2911  0.3327 -0.2890
 3820TIP3    H111466   1.156   3.803   2.681 -0.2373  0.7749 -0.5863
 3820TIP3    H211467   1.190   3.935   2.614  0.5159  0.2974 -1.1574
 3821TIP3   OH211468   5.788   5.991   1.136  0.0220 -0.4057 -0.1420
 3821TIP3    H111469   5.724   5.951   1.078 -0.1866  1.1865 -1.0587
 3821TIP3    H211470   5.812   5.921   1.198 -0.5720 -1.8063 -1.4451
 3822TIP3   OH211471   4.141   5.412   0.702  0.2703 -0.6134 -0.2260
 3822TIP3    H111472   4.052   5.407   0.737  0.3821 -1.6592 -0.0732
 3822TIP3    H211473   4.173   5.497   0.731  0.4660 -1.5152  2.5012
 3823TIP3   OH211474   3.792   4.233   0.754  0.7720  0.1529 -0.0770
 3823TIP3    H111475   3.783   4.138   0.759 -1.0348  0.3545  0.9854
 3823TIP3    H211476   3.873   4.252   0.802  0.3416 -0.7396  1.0435
 3824TIP3   OH211477   5.815   2.757   3.982 -0.0568 -0.2581 -0.0443
 3824TIP3    H111478   5.865   2.749   4.063 -1.0558 -1.6252  0.4908
 3824TIP3    H211479   5.768   2.674   3.975 -1.4093  0.5412 -1.0700
 3825TIP3   OH211480   1.690   4.846   1.394  0.2780  0.0279  0.0424
 3825TIP3    H111481   1.648   4.776   1.345 -0.5417  0.0070  0.7502
 3825TIP3    H211482   1.784   4.828   1.387  0.0454 -1.7462  1.1030
 3826TIP3   OH211483   1.245   1.087   0.822  0.4722  0.1023 -0.9669
 3826TIP3    H111484   1.259   1.006   0.773  1.4444  0.0485 -0.6255
 3826TIP3    H211485   1.327   1.100   0.870 -0.6419 -0.1449  1.0866
 3827TIP3   OH211486   5.681   3.807   2.344 -0.9335 -0.0722  0.0543
 3827TIP3    H111487   5.685   3.898   2.315 -0.6817  0.6796  2.2670
 3827TIP3    H211488   5.660   3.812   2.437  0.3767 -2.2304  0.5442
 3828TIP3   OH211489   1.580   4.509   1.764  0.1232  0.0241 -0.1168
 3828TIP3    H111490   1.670   4.488   1.739 -0.0686 -0.6167 -0.3081
 3828TIP3    H211491   1.555   4.581   1.708  0.8966  0.9804  0.7277
 3829TIP3   OH211492   0.269   0.467   0.431  0.2962  0.0203  0.1403
 3829TIP3    H111493   0.227   0.393   0.386 -0.8441 -0.1058  1.3760
 3829TIP3    H211494   0.336   0.426   0.486  1.2108  0.1209 -0.8530
 3830TIP3   OH211495   1.923   0.108   3.201  0.3855  0.1783 -0.5480
 3830TIP3    H111496   1.843   0.160   3.206  0.6300  0.4925  0.4792
 3830TIP3    H211497   1.992   0.171   3.179  0.8651  0.5711  1.7435
 3831TIP3   OH211498   3.481   1.154   4.928 -0.3343 -0.2432 -0.1347
 3831TIP3    H111499   3.434   1.216   4.871  0.2698 -1.0533 -1.5649
 3831TIP3    H211500   3.557   1.203   4.958 -0.6658  0.2000  0.0056
 3832TIP3   OH211501   2.075   0.587   5.092 -0.3325  0.1086  0.3751
 3832TIP3    H111502   2.157   0.537   5.095 -0.9158 -0.8918  0.2789
 3832TIP3    H211503   2.089   0.659   5.153  1.1983  0.8877 -0.8050
 3833TIP3   OH211504   5.655   0.529   0.564 -0.4901 -0.1380  0.0472
 3833TIP3    H111505   5.582   0.497   0.617 -0.4886 -0.5662 -0.2027
 3833TIP3    H211506   5.698   0.449   0.533 -0.5114  0.1071 -0.6301
 3834TIP3   OH211507   2.706   0.638   4.800  0.0311 -0.3763  0.0704
 3834TIP3    H111508   2.658   0.596   4.729  1.5820 -2.4753  0.1720
 3834TIP3    H211509   2.773   0.691   4.756 -0.1018 -0.3029 -0.0425
 3835TIP3   OH211510   2.941   3.173   1.986 -0.1086 -0.2112 -0.1940
 3835TIP3    H111511   2.974   3.092   1.947  0.1966  1.0814 -2.8306
 3835TIP3    H211512   2.863   3.195   1.933 -0.5835  0.8654  0.9019
 3836TIP3   OH211513   3.764   0.773   0.233 -0.2104 -0.1575 -0.1329
 3836TIP3    H111514   3.685   0.747   0.186  0.2783 -1.7192 -0.1213
 3836TIP3    H211515   3.811   0.829   0.171 -1.9148  1.9451  0.3302
 3837TIP3   OH211516   0.202   1.030   0.908 -0.0606  0.1377 -0.2768
 3837TIP3    H111517   0.196   1.118   0.871  0.5186  0.4068  0.2442
 3837TIP3    H211518   0.189   0.971   0.834 -0.7684  0.6619 -0.5772
 3838TIP3   OH211519   0.906   3.471   3.800  0.1078 -0.0456 -0.3610
 3838TIP3    H111520   0.862   3.457   3.884 -0.7242 -2.6437 -1.1378
 3838TIP3    H211521   0.961   3.393   3.788 -1.0682 -0.5870 -2.9314
 3839TIP3   OH211522   5.781   0.624   1.990 -0.1329 -0.4843  0.0116
 3839TIP3    H111523   5.781   0.556   2.058  1.6651 -0.9861 -0.4411
 3839TIP3    H211524   5.774   0.706   2.038 -2.8555 -0.9405  0.5505
 3840TIP3   OH211525   5.393   1.788   4.784  0.0389  0.0010  0.1040
 3840TIP3    H111526   5.377   1.694   4.795  2.1709 -0.1584  2.7946
 3840TIP3    H211527   5.479   1.794   4.742  0.2705  0.7458  0.6629
 3841TIP3   OH211528   0.666   3.392   4.655 -0.4634 -0.1355  0.0261
 3841TIP3    H111529   0.741   3.335   4.672  0.3630  1.0650  0.6004
 3841TIP3    H211530   0.617   3.348   4.586 -0.0547 -1.7006  0.6820
 3842TIP3   OH211531   4.500   3.699   0.950  0.5341  0.3052 -0.3703
 3842TIP3    H111532   4.425   3.746   0.985  1.6030  3.0213 -1.4577
 3842TIP3    H211533   4.573   3.725   1.006  0.6791 -2.7802  1.0576
 3843TIP3   OH211534   3.598   0.394   1.138 -0.4467  0.5441  0.5286
 3843TIP3    H111535   3.508   0.425   1.126 -0.4435 -0.0269 -1.2298
 3843TIP3    H211536   3.598   0.307   1.099  1.3089  1.2707 -1.2365
 3844TIP3   OH211537   0.721   5.086   4.346  0.3933  0.0546 -0.5331
 3844TIP3    H111538   0.643   5.141   4.357 -0.5119 -1.0127 -1.2979
 3844TIP3    H211539   0.710   5.015   4.409  1.9962  1.1493  1.0757
 3845TIP3   OH211540   2.376   1.060   3.033  0.0514 -0.0869 -0.3479
 3845TIP3    H111541   2.435   0.996   3.074  1.0682  1.5971  1.0088
 3845TIP3    H211542   2.417   1.080   2.949  1.2012  0.6816  0.3600
 3846TIP3   OH211543   3.214   4.229   4.817  0.0708 -0.2750 -0.5321
 3846TIP3    H111544   3.216   4.324   4.812  1.4823 -0.2504  0.0561
 3846TIP3    H211545   3.284   4.199   4.759 -0.4727 -0.9655 -0.8513
 3847TIP3   OH211546   2.979   1.199   1.299 -0.2759  0.2035  0.2209
 3847TIP3    H111547   2.997   1.158   1.384 -0.3588 -0.5865 -0.1386
 3847TIP3    H211548   2.956   1.126   1.241 -0.3206  0.7465 -0.4581
 3848TIP3   OH211549   4.802   4.738   0.472  0.1650  0.0090  0.3295
 3848TIP3    H111550   4.724   4.707   0.519 -0.7168  2.2890  0.5012
 3848TIP3    H211551   4.794   4.700   0.384 -1.9659  1.3352 -0.1198
 3849TIP3   OH211552   5.671   3.366   1.930 -0.5025 -0.4872 -0.1277
 3849TIP3    H111553   5.629   3.375   2.016 -0.3559  1.8110 -0.2222
 3849TIP3    H211554   5.617   3.419   1.871 -1.2840 -2.9538 -1.7888
 3850TIP3   OH211555   3.758   2.518   4.072 -0.1825  0.0593  0.4576
 3850TIP3    H111556   3.725   2.435   4.109  0.6934 -0.5191 -0.0217
 3850TIP3    H211557   3.694   2.542   4.006 -1.3593  0.6903  1.7847
 3851TIP3   OH211558   1.978   2.759   0.435  0.0677  0.3482 -0.2219
 3851TIP3    H111559   1.922   2.796   0.367 -1.8241 -0.7826  0.6478
 3851TIP3    H211560   2.037   2.700   0.387 -3.3971 -3.0522 -0.7689
 3852TIP3   OH211561   0.266   4.880   2.147  0.4445  0.6339 -0.0094
 3852TIP3    H111562   0.292   4.794   2.114  1.6386  1.9625 -2.8685
 3852TIP3    H211563   0.230   4.925   2.071 -0.2093  2.6634  1.4261
 3853TIP3   OH211564   4.339   3.050   1.933 -0.1552 -0.3370 -0.1051
 3853TIP3    H111565   4.289   3.001   1.998  0.2716  0.4523  0.8416
 3853TIP3    H211566   4.349   2.989   1.860  1.1984 -2.0549  1.4199
 3854TIP3   OH211567   0.822   1.190   1.736 -0.4523 -0.3980  0.1408
 3854TIP3    H111568   0.904   1.170   1.780  0.3503 -0.6269 -1.3906
 3854TIP3    H211569   0.842   1.181   1.642 -1.9277  0.6139 -0.3147
 3855TIP3   OH211570   2.908   5.597   3.377 -0.0351 -0.0886  0.0772
 3855TIP3    H111571   2.825   5.556   3.402 -0.2851 -0.4123 -1.2379
 3855TIP3    H211572   2.973   5.527   3.387 -0.1515 -0.2488 -0.2849
 3856TIP3   OH211573   0.840   4.246   1.460 -0.4100 -0.1561 -0.2766
 3856TIP3    H111574   0.918   4.218   1.509 -0.0814  1.2806  0.0753
 3856TIP3    H211575   0.767   4.224   1.518  0.0185  2.3075  1.3788
 3857TIP3   OH211576   2.401   2.459   4.728  0.0273 -0.7141  0.1876
 3857TIP3    H111577   2.456   2.487   4.801  0.1245  0.2269 -0.2313
 3857TIP3    H211578   2.456   2.399   4.678  1.6918  2.1160 -1.6456
 3858TIP3   OH211579   6.145   0.727   5.014  0.0867 -0.0357  0.3873
 3858TIP3    H111580   6.176   0.691   5.098  0.5105 -2.2741 -0.6583
 3858TIP3    H211581   6.219   0.715   4.954 -0.6052  0.4956 -0.5981
 3859TIP3   OH211582   4.767   4.805   4.979  0.3257  0.4530  0.5973
 3859TIP3    H111583   4.675   4.781   4.986 -0.1185  1.8890 -0.1263
 3859TIP3    H211584   4.813   4.721   4.975 -1.1468 -0.3354 -1.7191
 3860TIP3   OH211585   3.950   2.473   1.425 -0.2067 -0.8242 -0.1478
 3860TIP3    H111586   3.934   2.432   1.340 -1.5594  0.1457 -0.3981
 3860TIP3    H211587   3.920   2.563   1.414  0.8746 -0.3032  0.9684
 3861TIP3   OH211588   3.448   0.871   3.677 -0.2904  0.5258 -0.1751
 3861TIP3    H111589   3.462   0.812   3.603 -1.2561  1.6377 -1.2874
 3861TIP3    H211590   3.500   0.949   3.656  0.5483  0.3173  1.0141
 3862TIP3   OH211591   4.707   3.697   4.826 -0.1706 -0.6632 -0.0183
 3862TIP3    H111592   4.683   3.751   4.752 -0.9956 -0.8061  0.1389
 3862TIP3    H211593   4.653   3.618   4.817  1.2764 -1.6463 -0.4579
 3863TIP3   OH211594   4.716   1.809   0.004  0.4034  0.0218 -0.1441
 3863TIP3    H111595   4.699   1.826   0.096 -0.3955  0.3836 -0.3542
 3863TIP3    H211596   4.794   1.754   0.004  1.1590  1.0438  0.6919
 3864TIP3   OH211597   4.767   2.774   1.226  0.0772  0.4073 -0.2155
 3864TIP3    H111598   4.808   2.724   1.155 -1.1091 -0.0882 -0.5882
 3864TIP3    H211599   4.777   2.865   1.199  1.0124  0.3084 -0.2373
 3865TIP3   OH211600   5.914   2.760   4.623 -0.1946 -0.2225 -0.0774
 3865TIP3    H111601   5.918   2.735   4.715 -0.6216 -0.0655 -0.0156
 3865TIP3    H211602   5.996   2.808   4.608 -1.0301  1.5578  0.7668
 3866TIP3   OH211603   2.538   3.190   3.331 -0.3065  0.1415  0.4428
 3866TIP3    H111604   2.454   3.233   3.317 -0.1944  0.7434  1.4427
 3866TIP3    H211605   2.536   3.163   3.423  0.2908 -0.5216  0.2687
 3867TIP3   OH211606   2.975   2.420   0.566 -0.2089  0.1826  0.3444
 3867TIP3    H111607   2.895   2.469   0.587 -1.4261 -0.5314 -2.2205
 3867TIP3    H211608   2.983   2.427   0.471  3.0773  0.5770  0.5531
 3868TIP3   OH211609   0.313   3.258   4.042  0.7871 -0.0932  0.5271
 3868TIP3    H111610   0.237   3.284   3.990  1.2586 -0.6983 -0.4794
 3868TIP3    H211611   0.293   3.169   4.072  1.2188 -0.3718  0.0049
 3869TIP3   OH211612   2.974   0.742   1.618  0.2359  0.2179  0.2764
 3869TIP3    H111613   3.004   0.652   1.629  1.4747  0.6059  0.2449
 3869TIP3    H211614   2.991   0.784   1.702 -1.2532  0.2045  0.6235
 3870TIP3   OH211615   3.593   5.874   0.281  0.1910  0.2538  0.0758
 3870TIP3    H111616   3.540   5.910   0.210 -1.9203 -2.9523 -0.1559
 3870TIP3    H211617   3.652   5.812   0.239 -0.5625 -1.1267  0.9785
 3871TIP3   OH211618   6.152   5.428   0.130 -0.0528 -0.0185  0.1506
 3871TIP3    H111619   6.069   5.385   0.111 -0.2838  0.3678  0.2846
 3871TIP3    H211620   6.218   5.373   0.086 -0.3590 -0.4108  0.1743
 3872TIP3   OH211621   2.179   4.050   3.815 -0.8336 -0.1474 -0.1604
 3872TIP3    H111622   2.126   4.092   3.749 -3.0255  0.1400  1.6542
 3872TIP3    H211623   2.264   4.036   3.773 -1.9743  0.3639 -2.8352
 3873TIP3   OH211624   3.849   1.243   3.817 -0.7294 -0.1789 -0.1804
 3873TIP3    H111625   3.918   1.290   3.863 -1.1316  0.0510  0.1943
 3873TIP3    H211626   3.894   1.169   3.776  0.0534  0.9141 -1.3936
 3874TIP3   OH211627   0.797   1.283   0.526 -0.4657 -0.9982 -0.0406
 3874TIP3    H111628   0.890   1.292   0.548 -0.7453 -1.5637  1.4829
 3874TIP3    H211629   0.767   1.373   0.513  0.1740 -0.7763 -0.0543
 3875TIP3   OH211630   3.978   1.311   4.922 -0.3165  0.3245 -0.2677
 3875TIP3    H111631   4.048   1.370   4.952  0.4192 -0.7517  0.1820
 3875TIP3    H211632   4.021   1.252   4.861 -0.5668 -1.0367  0.8300
 3876TIP3   OH211633   5.663   2.106   4.109  0.1595  0.1616  0.1635
 3876TIP3    H111634   5.751   2.077   4.087  1.0459  1.7619  1.4258
 3876TIP3    H211635   5.627   2.036   4.164  0.9412 -0.1334  0.3095
 3877TIP3   OH211636   4.923   0.136   2.167 -0.2618 -0.1331  0.0180
 3877TIP3    H111637   5.018   0.149   2.176 -0.3288 -0.0537  0.6572
 3877TIP3    H211638   4.909   0.128   2.073  0.4388 -0.5880 -0.0566
 3878TIP3   OH211639   0.640   5.560   1.657 -0.1779 -0.0421  0.0939
 3878TIP3    H111640   0.578   5.620   1.615 -1.4543  0.6875  2.7593
 3878TIP3    H211641   0.716   5.614   1.678 -1.4170  0.8667  2.6942
 3879TIP3   OH211642   0.055   0.681   2.892  0.3270 -0.1719 -0.4114
 3879TIP3    H111643   0.095   0.595   2.878  0.7153 -0.2534  1.0425
 3879TIP3    H211644   0.013   0.674   2.978 -1.9525  0.2581 -1.4012
 3880TIP3   OH211645   6.117   5.266   1.315  0.1441 -1.1508 -0.6880
 3880TIP3    H111646   6.203   5.275   1.356  0.0370  0.6901 -0.7839
 3880TIP3    H211647   6.072   5.201   1.368  0.6466 -0.1461  1.0502
 3881TIP3   OH211648   5.509   5.068   4.087 -0.3370  0.8480  0.4301
 3881TIP3    H111649   5.499   4.976   4.109  0.0853  1.1485  1.9898
 3881TIP3    H211650   5.592   5.073   4.039 -0.0015  0.5066  0.9622
 3882TIP3   OH211651   0.693   0.392   5.100  0.3929 -0.0009 -0.3728
 3882TIP3    H111652   0.643   0.449   5.159  0.0832  0.5212 -1.1275
 3882TIP3    H211653   0.652   0.306   5.111 -1.8387  0.7212 -2.2002
 3883TIP3   OH211654   0.440   0.907   0.167 -0.0516  1.3899 -0.2542
 3883TIP3    H111655   0.486   0.971   0.221  0.1750 -0.1756  1.5108
 3883TIP3    H211656   0.352   0.903   0.204  0.2148  0.0301  0.3164
 3884TIP3   OH211657   4.951   1.491   3.892  0.2476 -0.5468 -0.4572
 3884TIP3    H111658   4.903   1.427   3.840 -0.6362  0.1897 -0.5816
 3884TIP3    H211659   4.912   1.575   3.868  1.3925  0.0485 -0.3194
 3885TIP3   OH211660   4.916   4.721   1.354 -0.0902  0.0765  0.3074
 3885TIP3    H111661   4.972   4.798   1.357  0.8131 -0.5800  1.3585
 3885TIP3    H211662   4.930   4.678   1.439 -2.1771 -0.1319  0.5960
 3886TIP3   OH211663   3.745   2.699   3.793  0.4135  0.1744 -0.2410
 3886TIP3    H111664   3.772   2.654   3.712 -0.5081  1.4685 -1.3101
 3886TIP3    H211665   3.670   2.648   3.825  0.7737 -0.3363 -0.2022
 3887TIP3   OH211666   5.742   1.330   5.147  0.1738 -0.5501  0.1492
 3887TIP3    H111667   5.801   1.367   5.213 -0.5716 -1.1591  1.1969
 3887TIP3    H211668   5.769   1.239   5.139 -0.0213 -0.5893 -0.0726
 3888TIP3   OH211669   3.914   3.087   1.893  0.1118  0.2941  0.0392
 3888TIP3    H111670   3.880   3.015   1.840  0.3656  0.0413  0.2155
 3888TIP3    H211671   3.885   3.066   1.982  2.2676 -0.9270  0.5295
 3889TIP3   OH211672   3.852   1.552   0.751  0.0278 -0.5413  0.3513
 3889TIP3    H111673   3.887   1.631   0.791  1.8719 -0.1390 -1.8331
 3889TIP3    H211674   3.795   1.584   0.681 -0.1782 -1.1601  0.2291
 3890TIP3   OH211675   3.125   1.428   2.682  0.0807  0.2948 -0.3376
 3890TIP3    H111676   3.039   1.441   2.722 -0.7583  0.0375 -1.9597
 3890TIP3    H211677   3.142   1.510   2.635 -0.6945 -0.6778 -2.4686
 3891TIP3   OH211678   0.695   2.609   2.400  0.2640  0.2545 -0.8191
 3891TIP3    H111679   0.710   2.696   2.363  1.0547  0.0549 -1.0008
 3891TIP3    H211680   0.665   2.625   2.489 -0.7919  0.7274 -1.2521
 3892TIP3   OH211681   3.178   5.459   1.079  0.2872 -0.7843  0.1090
 3892TIP3    H111682   3.255   5.494   1.124  0.3462 -2.0032  0.9832
 3892TIP3    H211683   3.144   5.534   1.029  2.6181 -0.4599 -1.1497
 3893TIP3   OH211684   0.980   3.360   3.159 -0.0683  0.3231  0.0013
 3893TIP3    H111685   1.017   3.409   3.085 -1.8429  0.9145 -0.5556
 3893TIP3    H211686   1.000   3.269   3.139 -1.1030  0.4086 -1.6056
 3894TIP3   OH211687   0.761   3.466   1.576  0.5425  0.4841 -0.2483
 3894TIP3    H111688   0.797   3.539   1.526  0.6557  0.2936 -0.4476
 3894TIP3    H211689   0.684   3.502   1.619  0.8436  0.8339  0.0007
 3895TIP3   OH211690   0.157   3.550   2.082  0.0897 -0.7819  0.1643
 3895TIP3    H111691   0.126   3.468   2.045 -1.2982 -0.6770  1.0289
 3895TIP3    H211692   0.142   3.615   2.014  0.6429 -1.1391 -0.3018
 3896TIP3   OH211693   3.963   1.213   2.096  0.1677  0.1020 -0.0336
 3896TIP3    H111694   3.878   1.183   2.129  0.1687  1.1228  0.9436
 3896TIP3    H211695   4.001   1.262   2.168  1.1385  0.5434 -0.8244
 3897TIP3   OH211696   5.786   5.497   0.759  0.3424  0.1896  0.5004
 3897TIP3    H111697   5.797   5.555   0.835 -0.1964 -1.9380  2.3386
 3897TIP3    H211698   5.691   5.490   0.747  0.4280  0.6807 -0.5379
 3898TIP3   OH211699   3.460   5.702   1.336  0.2220 -0.2732 -0.1113
 3898TIP3    H111700   3.466   5.608   1.318  2.6129  0.0436 -1.2726
 3898TIP3    H211701   3.419   5.739   1.258 -0.9186 -0.3255  0.4342
 3899TIP3   OH211702   2.832   5.490   4.590 -0.0728  0.0983 -0.4438
 3899TIP3    H111703   2.826   5.435   4.512 -2.8719  0.7176 -0.7666
 3899TIP3    H211704   2.781   5.443   4.656 -0.5829  1.2090 -0.0338
 3900TIP3   OH211705   4.971   3.867   0.828 -0.2770  0.4328  0.7870
 3900TIP3    H111706   5.023   3.799   0.784 -0.5536  1.2305 -0.8323
 3900TIP3    H211707   4.886   3.825   0.844 -0.8615  0.6956 -1.2981
 3901TIP3   OH211708   2.251   4.382   0.523 -0.0514  0.0797 -0.2825
 3901TIP3    H111709   2.232   4.313   0.459  0.1066 -0.4269  0.2138
 3901TIP3    H211710   2.327   4.349   0.571 -0.2052  0.4394  0.2044
 3902TIP3   OH211711   6.154   0.842   3.311 -0.1495 -0.4029 -0.5378
 3902TIP3    H111712   6.140   0.906   3.242  1.1902  0.1965 -0.2885
 3902TIP3    H211713   6.118   0.883   3.390  0.9419  0.1783 -0.3273
 3903TIP3   OH211714   5.454   4.068   3.485  0.0674  0.3102  0.4385
 3903TIP3    H111715   5.443   4.153   3.527  0.4567  1.6767 -2.0273
 3903TIP3    H211716   5.372   4.053   3.438  0.4328 -0.1317 -0.0690
 3904TIP3   OH211717   5.608   2.168   2.972  0.6774  0.6224  0.6729
 3904TIP3    H111718   5.607   2.223   3.051  0.0898  0.8589  0.5041
 3904TIP3    H211719   5.557   2.217   2.908  1.6541  0.7169 -0.0565
 3905TIP3   OH211720   3.629   5.075   4.829  0.2777  0.7657 -0.6206
 3905TIP3    H111721   3.667   5.078   4.741  0.2167 -0.4870 -0.6973
 3905TIP3    H211722   3.592   4.988   4.837 -1.1957  1.4134  0.0455
 3906TIP3   OH211723   2.975   3.347   5.131 -0.4343  0.2735  0.9328
 3906TIP3    H111724   2.899   3.346   5.189 -0.8628  0.7121  0.3904
 3906TIP3    H211725   2.938   3.364   5.044  0.1495 -0.7551  0.4651
 3907TIP3   OH211726   1.764   3.040   2.170  0.5526  0.5748 -0.0852
 3907TIP3    H111727   1.807   2.997   2.244  1.7448 -0.7370 -1.4369
 3907TIP3    H211728   1.797   3.130   2.172  0.2469  0.6775  1.1788
 3908TIP3   OH211729   3.061   0.947   1.417  0.0244  0.4600 -0.3754
 3908TIP3    H111730   3.077   1.008   1.490 -0.5068  1.5353 -1.1330
 3908TIP3    H211731   3.012   0.875   1.457 -0.2959  1.0529  0.3345
 3909TIP3   OH211732   0.544   2.400   2.705 -0.5166  0.0290 -0.3964
 3909TIP3    H111733   0.508   2.403   2.794  1.1351 -2.1103  0.4655
 3909TIP3    H211734   0.533   2.308   2.679 -0.2026  0.4438 -2.0832
 3910TIP3   OH211735   5.616   0.282   0.046 -0.7067  0.6270 -0.2856
 3910TIP3    H111736   5.593   0.323  -0.037 -0.2059  1.2368 -0.1245
 3910TIP3    H211737   5.613   0.353   0.110 -2.5075 -0.0834  0.4996
 3911TIP3   OH211738   6.236   2.189   3.589 -0.2237 -0.1605 -0.3587
 3911TIP3    H111739   6.190   2.218   3.509  0.1186 -0.2251 -0.5821
 3911TIP3    H211740   6.325   2.170   3.559 -0.3448 -1.1034 -0.1509
 3912TIP3   OH211741   1.263   1.435   3.716  0.1019  0.0338  0.4967
 3912TIP3    H111742   1.271   1.430   3.811  2.3684 -3.3424  0.2967
 3912TIP3    H211743   1.332   1.495   3.688  0.2853  0.0233  0.9246
 3913TIP3   OH211744   1.586   4.658   4.516 -0.0600  0.5142  0.3581
 3913TIP3    H111745   1.614   4.583   4.464 -2.2050  1.0723 -1.7884
 3913TIP3    H211746   1.653   4.725   4.498  1.0698 -0.3661  1.1337
 3914TIP3   OH211747   3.347   4.990   1.839  0.4915 -0.4194  0.5784
 3914TIP3    H111748   3.357   4.916   1.779  3.3581 -0.3244  0.8415
 3914TIP3    H211749   3.350   5.067   1.782  0.5963 -0.4062  0.6021
 3915TIP3   OH211750   3.387   3.041   0.396 -0.2194  0.4418  0.1780
 3915TIP3    H111751   3.422   3.095   0.467  0.4496  1.8479 -1.1661
 3915TIP3    H211752   3.296   3.026   0.421 -0.1178  1.2718  1.1269
 3916TIP3   OH211753   2.928   2.895   1.415  0.3689 -0.2618  0.7896
 3916TIP3    H111754   2.840   2.909   1.378  0.0488  0.2644  1.7245
 3916TIP3    H211755   2.962   2.983   1.427  0.2721 -0.4004  2.1916
 3917TIP3   OH211756   1.582   1.186   1.588  0.2490 -0.1139 -0.4363
 3917TIP3    H111757   1.569   1.196   1.493 -0.0811 -2.8178 -0.7443
 3917TIP3    H211758   1.612   1.272   1.617 -2.2839  1.6208 -2.5200
 3918TIP3   OH211759   1.851   3.820   2.405  0.4149  0.0648 -0.0143
 3918TIP3    H111760   1.784   3.752   2.394  1.7714 -1.1700 -1.0092
 3918TIP3    H211761   1.802   3.903   2.400 -0.9925 -0.7751 -1.0776
 3919TIP3   OH211762   1.270   3.428   1.889  0.6915 -0.4620  0.1741
 3919TIP3    H111763   1.343   3.377   1.854  0.0810 -0.6109 -0.9079
 3919TIP3    H211764   1.257   3.394   1.977  1.5246 -0.8511  0.1601
 3920TIP3   OH211765   1.206   3.222   4.269  0.1066  0.3527 -0.6743
 3920TIP3    H111766   1.172   3.161   4.204  1.0382  0.6869 -1.5061
 3920TIP3    H211767   1.133   3.236   4.330  0.1275 -2.2060  0.0416
 3921TIP3   OH211768   4.255   2.185   3.610 -0.6871  0.1069 -0.0023
 3921TIP3    H111769   4.246   2.196   3.704  1.0205 -3.6397  0.8057
 3921TIP3    H211770   4.348   2.168   3.596 -0.9183  0.3660 -2.3572
 3922TIP3   OH211771   5.447   0.778   2.479 -0.3592  0.1156 -0.1870
 3922TIP3    H111772   5.540   0.777   2.459 -0.1507 -1.4116  0.6925
 3922TIP3    H211773   5.404   0.756   2.396 -0.0772  2.4768 -1.0146
 3923TIP3   OH211774   2.078   1.612   0.721  0.4967  0.1283  0.1836
 3923TIP3    H111775   1.997   1.652   0.689  0.9274 -0.4074 -1.6632
 3923TIP3    H211776   2.123   1.583   0.642  1.7348 -1.0549  1.2879
 3924TIP3   OH211777   4.587   0.502   1.560  0.2699 -0.2528  0.6998
 3924TIP3    H111778   4.557   0.541   1.642  0.6506  2.7765 -0.4651
 3924TIP3    H211779   4.570   0.569   1.494  1.5964 -1.8661 -1.4211
 3925TIP3   OH211780   4.069   2.023   4.381  0.3146  0.2268 -0.0052
 3925TIP3    H111781   4.010   2.031   4.456  0.2049 -1.1220  0.0772
 3925TIP3    H211782   4.044   1.940   4.340 -0.7016  1.6651 -2.4929
 3926TIP3   OH211783   3.497   3.512   0.725  0.6709  0.3257 -0.3676
 3926TIP3    H111784   3.545   3.546   0.801  1.2257  1.7751 -1.3189
 3926TIP3    H211785   3.564   3.502   0.658  0.0433 -0.0903 -0.9354
 3927TIP3   OH211786   5.893   0.979   4.526  0.1428  0.0252  0.4645
 3927TIP3    H111787   5.822   1.014   4.579 -0.6124 -1.1474  0.2735
 3927TIP3    H211788   5.972   0.992   4.578 -0.4655 -0.2960  1.4767
 3928TIP3   OH211789   5.117   3.814   2.495 -0.5524 -0.0480  0.1192
 3928TIP3    H111790   5.062   3.791   2.420  0.8133  0.5104 -1.1040
 3928TIP3    H211791   5.116   3.736   2.551 -1.2420 -0.6331 -0.6899
 3929TIP3   OH211792   6.201   0.222   0.821  0.2923 -0.0335  0.2785
 3929TIP3    H111793   6.276   0.195   0.874 -0.1325 -1.3481  0.2260
 3929TIP3    H211794   6.170   0.142   0.778  0.6137  0.9841 -1.9865
 3930TIP3   OH211795   2.543   4.975   3.349 -0.1880 -0.1415  0.0554
 3930TIP3    H111796   2.484   5.050   3.358 -0.8068 -0.5741 -0.3512
 3930TIP3    H211797   2.618   4.997   3.405  0.4869  1.6235 -1.4335
 3931TIP3   OH211798   5.404   5.806   0.519 -0.2898  0.2821 -0.4175
 3931TIP3    H111799   5.375   5.804   0.610  0.6757 -2.0510 -0.0822
 3931TIP3    H211800   5.335   5.852   0.473 -0.8945  1.3605  1.4590
 3932TIP3   OH211801   3.190   5.075   1.375  0.7702 -0.2038  0.0247
 3932TIP3    H111802   3.219   5.161   1.406 -1.3638  0.9487 -0.9288
 3932TIP3    H211803   3.245   5.057   1.299  0.5504  0.8601 -0.4067
 3933TIP3   OH211804   4.725   4.073   1.362  0.2866 -0.4732  0.5893
 3933TIP3    H111805   4.802   4.102   1.412  0.2015  0.1141  0.3846
 3933TIP3    H211806   4.729   3.977   1.366 -0.3397 -0.4659  2.6593
 3934TIP3   OH211807   6.055   0.293   1.858  0.4370  0.3361  0.3736
 3934TIP3    H111808   6.125   0.262   1.915  1.3443  1.0727 -0.3064
 3934TIP3    H211809   6.084   0.379   1.829  0.0643 -0.0740 -1.3079
 3935TIP3   OH211810   1.840   1.311   1.371 -0.1912  0.3835  0.0620
 3935TIP3    H111811   1.878   1.233   1.331  0.7264  0.4524  0.7781
 3935TIP3    H211812   1.746   1.305   1.351  0.1209 -0.0029 -1.3608
 3936TIP3   OH211813   0.967   1.113   2.438  0.4692 -0.2865  0.0132
 3936TIP3    H111814   0.956   1.086   2.529 -1.1860 -0.5820 -0.2317
 3936TIP3    H211815   0.882   1.149   2.413  0.6354 -0.9307 -1.6418
 3937TIP3   OH211816   0.954   4.889   0.073 -0.7743  0.6971 -0.1939
 3937TIP3    H111817   0.935   4.969   0.024 -0.4542  0.7597 -0.2207
 3937TIP3    H211818   0.918   4.818   0.020 -0.6259  0.7826 -0.4112
 3938TIP3   OH211819   3.445   3.220   2.713 -0.0208  0.3082  0.0940
 3938TIP3    H111820   3.509   3.248   2.647  0.4320 -3.4326 -1.3113
 3938TIP3    H211821   3.380   3.290   2.714  0.0135  0.6979 -4.3087
 3939TIP3   OH211822   5.171   4.107   1.487  0.4476 -0.0567  0.5240
 3939TIP3    H111823   5.260   4.143   1.477 -0.1670  1.1806 -0.8711
 3939TIP3    H211824   5.170   4.030   1.430 -0.7609  2.7261 -3.6680
 3940TIP3   OH211825   3.324   5.933   4.441  0.2426  0.2005 -0.4810
 3940TIP3    H111826   3.375   5.968   4.514 -1.4894  0.6563  0.5676
 3940TIP3    H211827   3.265   5.869   4.481 -0.0370 -0.2933 -1.6392
 3941TIP3   OH211828   4.364   3.819   1.500 -0.0652  0.1598  0.1745
 3941TIP3    H111829   4.343   3.759   1.428  2.3322 -0.6052  0.0323
 3941TIP3    H211830   4.302   3.891   1.489 -0.3485 -0.3323 -2.1537
 3942TIP3   OH211831   2.090   4.500   3.583  0.8698  0.1786 -0.4098
 3942TIP3    H111832   2.068   4.573   3.642 -0.7356 -1.0090  0.5536
 3942TIP3    H211833   2.151   4.538   3.520  1.2441  1.9724  0.9323
 3943TIP3   OH211834   0.766   4.210   4.079  0.1488  0.2139  0.2455
 3943TIP3    H111835   0.696   4.188   4.017 -0.0943 -2.4265  1.3403
 3943TIP3    H211836   0.774   4.133   4.135  1.7431  1.7098  2.2391
 3944TIP3   OH211837   3.667   2.698   1.949 -0.3300  0.1196 -0.0310
 3944TIP3    H111838   3.762   2.711   1.945 -0.2633  0.1202  1.1070
 3944TIP3    H211839   3.654   2.607   1.923 -0.0299  0.1583 -0.3215
 3945TIP3   OH211840   3.886   5.480   1.487 -0.2954 -0.9961 -0.0806
 3945TIP3    H111841   3.948   5.408   1.481  1.6880  0.7457 -2.3308
 3945TIP3    H211842   3.935   5.552   1.527 -1.2450  0.0493 -0.7216
 3946TIP3   OH211843   5.977   0.350   0.376 -0.5079  0.3765 -0.3467
 3946TIP3    H111844   6.058   0.300   0.381  1.6717  3.5299 -1.0451
 3946TIP3    H211845   5.919   0.308   0.439  1.6537 -1.9891  0.2331
 3947TIP3   OH211846   6.215   3.410   3.686  0.3037  0.3932 -0.8149
 3947TIP3    H111847   6.190   3.360   3.763  3.0339  0.6203  0.3265
 3947TIP3    H211848   6.194   3.353   3.612 -1.7655 -0.0871  0.1031
 3948TIP3   OH211849   4.775   0.478   3.986 -0.5717  0.1987 -0.4458
 3948TIP3    H111850   4.706   0.475   4.052 -2.6110 -1.5521 -2.4624
 3948TIP3    H211851   4.752   0.553   3.931 -1.6265 -1.0173 -1.7557
 3949TIP3   OH211852   1.425   3.487   1.613 -0.1126 -0.5065  0.2714
 3949TIP3    H111853   1.475   3.413   1.647  1.8185  0.9398  0.7324
 3949TIP3    H211854   1.345   3.488   1.666 -0.1015 -2.1148  0.3823
 3950TIP3   OH211855   0.214   3.606   0.209  0.2447  0.4874  0.0390
 3950TIP3    H111856   0.251   3.661   0.139  0.6910  1.1913  0.8105
 3950TIP3    H211857   0.275   3.616   0.282 -0.4084  0.0511  0.6524
 3951TIP3   OH211858   0.116   5.072   2.607 -0.2457  0.0170 -0.2433
 3951TIP3    H111859   0.040   5.014   2.596  0.2530 -1.0840  1.6797
 3951TIP3    H211860   0.081   5.160   2.590 -1.8061 -0.5215  0.0054
 3952TIP3   OH211861   5.693   5.569   2.700 -0.0988 -0.1514 -0.3082
 3952TIP3    H111862   5.707   5.638   2.765 -0.3331 -0.0721 -0.3393
 3952TIP3    H211863   5.774   5.567   2.650  0.1455 -0.3267  0.0932
 3953TIP3   OH211864   0.303   5.000   3.463  0.6900 -0.3759 -0.1793
 3953TIP3    H111865   0.226   5.049   3.434 -1.3160 -1.9010  2.1572
 3953TIP3    H211866   0.344   5.056   3.529 -0.3817 -0.8969  0.9632
 3954TIP3   OH211867   1.210   5.953   1.068 -0.2566 -0.0661 -0.4167
 3954TIP3    H111868   1.176   6.041   1.081 -2.1303 -0.7551 -0.2972
 3954TIP3    H211869   1.204   5.939   0.973  1.2494  0.3634 -0.5983
 3955TIP3   OH211870   4.613   0.084   3.359 -0.3639  0.0379  0.5954
 3955TIP3    H111871   4.680   0.105   3.294  0.0485 -0.4563  0.8490
 3955TIP3    H211872   4.533   0.121   3.324  0.4646  3.0106  1.5020
 3956TIP3   OH211873   5.323   1.920   3.335 -0.0008  0.3683 -0.5810
 3956TIP3    H111874   5.307   1.842   3.389 -1.8209 -0.0885 -1.6953
 3956TIP3    H211875   5.332   1.991   3.398 -0.1119 -0.4663  0.4014
 3957TIP3   OH211876   5.020   1.307   4.320  0.4473  0.2129 -0.4268
 3957TIP3    H111877   5.014   1.400   4.339  0.9679 -0.0892  1.4363
 3957TIP3    H211878   5.020   1.265   4.406  0.2010 -1.5130 -1.2299
 3958TIP3   OH211879   5.985   2.500   2.478 -0.3424  0.2622 -0.1360
 3958TIP3    H111880   5.911   2.550   2.442 -1.6454 -0.2712  1.6241
 3958TIP3    H211881   6.028   2.561   2.538  0.5491  0.4923 -0.9769
 3959TIP3   OH211882   1.001   1.133   2.973 -0.1414 -0.3260  0.4616
 3959TIP3    H111883   0.906   1.129   2.959 -0.3097 -0.0255  1.4522
 3959TIP3    H211884   1.015   1.089   3.057  0.7566 -1.5329 -0.2854
 3960TIP3   OH211885   3.994   0.296   3.534 -0.0902 -0.0953  0.0515
 3960TIP3    H111886   4.051   0.275   3.608 -0.4473  0.6392  0.5496
 3960TIP3    H211887   3.985   0.392   3.537  0.3329  0.0039 -1.2801
 3961TIP3   OH211888   0.168   3.865   0.478  0.0967  0.1024 -0.5421
 3961TIP3    H111889   0.244   3.855   0.421  0.5693  1.8567 -0.2904
 3961TIP3    H211890   0.192   3.935   0.538 -0.3247 -1.7793  1.9727
 3962TIP3   OH211891   5.777   5.491   0.190  0.0418 -0.2571  0.4981
 3962TIP3    H111892   5.789   5.487   0.285  1.2404 -0.5042  0.3519
 3962TIP3    H211893   5.740   5.577   0.174 -1.1311 -0.5904  1.2763
 3963TIP3   OH211894   2.757   1.620   0.097 -0.5539 -0.3249 -0.4007
 3963TIP3    H111895   2.761   1.712   0.072  1.0383 -0.4927 -0.8841
 3963TIP3    H211896   2.742   1.573   0.014 -2.0665 -0.4804 -0.0671
 3964TIP3   OH211897   3.152   0.970   2.407 -0.9560 -0.1065  0.1686
 3964TIP3    H111898   3.155   0.948   2.501  0.0072  1.0423  0.4248
 3964TIP3    H211899   3.126   1.062   2.405  3.4495  1.3206 -0.3936
 3965TIP3   OH211900   1.117   3.507   1.051  0.1406  0.2949  0.4659
 3965TIP3    H111901   1.098   3.497   1.144 -1.1610 -2.3483  0.0016
 3965TIP3    H211902   1.212   3.520   1.047  0.3709 -0.6866  2.0942
 3966TIP3   OH211903   5.029   2.207   3.826 -0.6447  0.6931  0.1416
 3966TIP3    H111904   4.960   2.160   3.780  1.0580  0.0526 -1.8938
 3966TIP3    H211905   5.071   2.261   3.759  1.1418  0.7134  1.2084
 3967TIP3   OH211906   6.150   4.594   2.441 -0.4974  0.7523  0.0572
 3967TIP3    H111907   6.080   4.578   2.504  1.6678  0.9212  2.6933
 3967TIP3    H211908   6.114   4.660   2.382 -2.8301  0.2047  0.7434
 3968TIP3   OH211909   5.145   5.789   3.157  0.0653  0.0309  0.3571
 3968TIP3    H111910   5.171   5.846   3.085  1.6266 -0.4356  0.5167
 3968TIP3    H211911   5.074   5.837   3.201  1.0302  1.6602  0.2305
 3969TIP3   OH211912   0.492   2.709   1.875 -0.0554  0.0230  0.1551
 3969TIP3    H111913   0.460   2.620   1.859  1.0106 -0.4334  0.5099
 3969TIP3    H211914   0.499   2.715   1.970 -0.7420  0.7267  0.1769
 3970TIP3   OH211915   1.452   4.551   0.374  0.4352 -0.0608  0.3340
 3970TIP3    H111916   1.453   4.532   0.468 -2.8375 -1.3492  0.2511
 3970TIP3    H211917   1.502   4.632   0.365 -0.8540  1.2419  3.5258
 3971TIP3   OH211918   5.252   2.707   2.554  0.0790 -0.0305 -0.2519
 3971TIP3    H111919   5.292   2.644   2.614 -1.0171 -0.4115  0.1251
 3971TIP3    H211920   5.313   2.713   2.481  0.0906 -1.7731 -0.4390
 3972TIP3   OH211921   0.897   2.185   2.377 -0.1753  0.4655 -0.1390
 3972TIP3    H111922   0.899   2.281   2.386 -1.3756  0.4003  1.3497
 3972TIP3    H211923   0.986   2.161   2.352 -0.1020  2.0485 -1.6199
 3973TIP3   OH211924   3.217   4.550   1.918 -0.6160  0.2602  0.0284
 3973TIP3    H111925   3.142   4.493   1.935 -0.3143 -0.0565  0.3105
 3973TIP3    H211926   3.204   4.580   1.828 -1.6110  1.0210  0.4026
 3974TIP3   OH211927   6.264   1.882   1.210 -0.3306  0.0559 -0.1054
 3974TIP3    H111928   6.179   1.900   1.169 -0.2237 -0.7140 -0.6937
 3974TIP3    H211929   6.243   1.869   1.303 -0.9959 -0.9470 -0.3725
 3975TIP3   OH211930   5.069   3.512   2.739  0.1793 -0.6133  0.3329
 3975TIP3    H111931   5.024   3.596   2.747 -0.1355 -0.5610 -1.5501
 3975TIP3    H211932   4.999   3.447   2.748 -0.0995 -0.5667 -1.3039
 3976TIP3   OH211933   4.020   3.325   3.483  0.3643 -0.0863  0.5532
 3976TIP3    H111934   4.077   3.279   3.422 -2.7468  0.5718 -3.2633
 3976TIP3    H211935   3.946   3.265   3.497 -1.2407  1.5647 -0.3201
 3977TIP3   OH211936   4.062   5.915   2.424  0.4073 -0.3212 -0.2530
 3977TIP3    H111937   4.154   5.894   2.406  0.7073  0.3808  0.3642
 3977TIP3    H211938   4.015   5.889   2.345  0.6894 -3.3722  0.4558
 3978TIP3   OH211939   1.675   2.410   1.652  0.0587  0.1160  0.1449
 3978TIP3    H111940   1.722   2.436   1.731  0.8361 -1.4144  0.2247
 3978TIP3    H211941   1.583   2.418   1.675  0.2783  0.0829  1.0726
 3979TIP3   OH211942   1.750   0.036   0.531 -0.2372  0.3221 -0.4086
 3979TIP3    H111943   1.814  -0.033   0.517 -0.5405  0.3609 -2.2191
 3979TIP3    H211944   1.687   0.026   0.459 -0.4296  2.3098 -0.5771
 3980TIP3   OH211945   2.992   1.473   1.548 -0.4998  0.2506  0.4232
 3980TIP3    H111946   3.055   1.537   1.514 -0.2532  0.6808  1.6264
 3980TIP3    H211947   2.939   1.448   1.473  0.2911  0.8521 -0.3429
 3981TIP3   OH211948   0.613   0.106   0.676  0.0213 -0.1373  0.2806
 3981TIP3    H111949   0.631   0.013   0.687 -0.4338 -0.0629  1.8260
 3981TIP3    H211950   0.700   0.147   0.671  0.3858 -0.2214  3.7026
 3982TIP3   OH211951   4.771   2.323   4.070 -0.3231  0.3590 -0.1333
 3982TIP3    H111952   4.788   2.372   3.989  0.6030  1.1387  0.5209
 3982TIP3    H211953   4.677   2.335   4.085 -0.2039  1.5145 -0.2565
 3983TIP3   OH211954   4.354   3.563   0.258  0.1983  0.0391  0.2436
 3983TIP3    H111955   4.380   3.561   0.166  0.3540 -0.9011  0.2989
 3983TIP3    H211956   4.429   3.526   0.305  0.3170  0.9572  0.8015
 3984TIP3   OH211957   3.655   1.872   3.854 -0.2892 -0.0495 -0.5709
 3984TIP3    H111958   3.700   1.943   3.808  1.5610 -1.6538 -1.3353
 3984TIP3    H211959   3.562   1.885   3.833  0.1517  1.2952 -1.8450
 3985TIP3   OH211960   1.397   0.418   2.602  0.5666  0.9689  0.5859
 3985TIP3    H111961   1.436   0.436   2.688 -0.3747  4.4681  0.4494
 3985TIP3    H211962   1.333   0.349   2.618  0.4885  1.4672  2.6969
 3986TIP3   OH211963   3.948   3.826   2.632  0.5356  0.1258  0.5276
 3986TIP3    H111964   4.000   3.882   2.689  2.2630  0.7638 -1.5292
 3986TIP3    H211965   3.873   3.880   2.607 -0.1322 -0.0954  1.9916
 3987TIP3   OH211966   0.368   3.216   3.733  0.2576 -0.3841  0.1665
 3987TIP3    H111967   0.283   3.215   3.777  0.4388 -2.5513  0.6199
 3987TIP3    H211968   0.417   3.146   3.776  1.8946  0.1224 -0.7996
 3988TIP3   OH211969   0.339   4.971   0.448 -0.2192  0.5134  1.1619
 3988TIP3    H111970   0.244   4.969   0.462  0.1052 -1.3078  3.8825
 3988TIP3    H211971   0.349   4.977   0.353 -3.0130  2.5664  0.8880
 3989TIP3   OH211972   1.230   0.575   0.721 -0.3302 -0.1508  0.0995
 3989TIP3    H111973   1.196   0.662   0.741  0.2714 -0.6381  4.0196
 3989TIP3    H211974   1.153   0.518   0.721 -0.4604  0.0237  0.1342
 3990TIP3   OH211975   2.005   2.082   0.664  0.0062  0.1403 -0.6823
 3990TIP3    H111976   1.917   2.106   0.693  0.1133 -1.1766  0.8455
 3990TIP3    H211977   2.022   2.140   0.590 -0.8613  2.6560  0.9717
 3991TIP3   OH211978   3.101   2.503   1.907  0.2903  0.1464  0.1138
 3991TIP3    H111979   3.126   2.463   1.824 -0.5902  0.3732 -0.2699
 3991TIP3    H211980   3.163   2.576   1.917 -0.8765  1.4423 -1.4205
 3992TIP3   OH211981   1.514   0.416   2.842 -0.0432 -0.1779  0.1324
 3992TIP3    H111982   1.456   0.439   2.914 -1.1585  0.4745 -0.9475
 3992TIP3    H211983   1.592   0.379   2.885 -1.7674 -2.3858  1.6070
 3993TIP3   OH211984   4.189   0.711   4.620  0.2183  0.0151 -0.3708
 3993TIP3    H111985   4.115   0.654   4.600  0.2005  0.7646 -2.6604
 3993TIP3    H211986   4.169   0.793   4.575  1.8203  0.6923  0.0884
 3994TIP3   OH211987   2.605   3.671   3.230 -0.2550  0.9634  0.1332
 3994TIP3    H111988   2.515   3.644   3.212  0.4679 -1.4413 -0.2239
 3994TIP3    H211989   2.649   3.666   3.145  0.8890 -0.8995  0.7743
 3995TIP3   OH211990   3.973   0.031   3.445 -0.5305  0.3085 -0.2065
 3995TIP3    H111991   3.989   0.125   3.438  0.7150  0.0445 -1.2071
 3995TIP3    H211992   3.925   0.008   3.366  0.3074 -0.1010 -0.6118
 3996TIP3   OH211993   1.586   4.848   0.081 -0.2691 -0.3980 -0.1421
 3996TIP3    H111994   1.534   4.809   0.011  0.0977 -1.5277  0.1943
 3996TIP3    H211995   1.667   4.876   0.037  0.5841 -2.3943  0.0129
 3997TIP3   OH211996   0.385   0.780   4.403 -0.4389  0.4694 -0.4423
 3997TIP3    H111997   0.457   0.779   4.466 -0.6790  1.2862 -0.1472
 3997TIP3    H211998   0.398   0.701   4.351  0.5031  0.4584 -0.2095
 3998TIP3   OH211999   3.396   2.162   3.547  0.1259 -0.4722  0.6148
 3998TIP3    H112000   3.398   2.109   3.627  0.8814  0.6879  1.3938
 3998TIP3    H212001   3.318   2.216   3.555  0.8166  0.4745  1.1466
 3999TIP3   OH212002   2.293   2.557   1.103 -0.3099 -0.1739  0.4486
 3999TIP3    H112003   2.376   2.544   1.150 -1.5898  0.8618  3.2101
 3999TIP3    H212004   2.247   2.474   1.111  0.3643 -0.7308 -1.0367
 4000TIP3   OH212005   0.779   3.590   1.035 -0.0324  0.1486 -0.1506
 4000TIP3    H112006   0.792   3.660   1.099  0.4740  0.9876 -1.1199
 4000TIP3    H212007   0.799   3.510   1.082  0.5285  0.7562  0.6815
 4001TIP3   OH212008   3.437   2.648   1.606  0.0289  0.5362 -0.2566
 4001TIP3    H112009   3.514   2.590   1.612 -0.3244  0.1366  0.7034
 4001TIP3    H212010   3.404   2.635   1.518 -1.0706 -2.1077  0.4582
 4002TIP3   OH212011   2.058   2.983   1.430 -0.5049 -0.2707 -0.2499
 4002TIP3    H112012   2.084   2.942   1.347  0.1953 -1.4695  0.5442
 4002TIP3    H212013   1.977   2.938   1.455 -0.9608  0.3966 -0.4859
 4003TIP3   OH212014   1.370   4.806   1.980  0.5544  0.4237 -0.3264
 4003TIP3    H112015   1.437   4.768   2.036  0.7950 -0.6933 -1.3174
 4003TIP3    H212016   1.407   4.802   1.892 -1.0060 -0.7839 -0.9917
 4004TIP3   OH212017   5.813   1.451   2.512 -0.0601  0.9263  0.3555
 4004TIP3    H112018   5.866   1.375   2.488 -0.8977  0.2418  0.6694
 4004TIP3    H212019   5.831   1.514   2.442  1.5985  0.9413  0.7378
 4005TIP3   OH212020   5.448   3.600   4.609 -0.3064  0.6111 -0.1096
 4005TIP3    H112021   5.365   3.634   4.642 -1.2109 -1.4831 -0.0305
 4005TIP3    H212022   5.503   3.591   4.687 -1.6709 -2.2542  0.6601
 4006TIP3   OH212023   0.932   2.852   2.839  0.3601 -0.1074  0.3130
 4006TIP3    H112024   0.849   2.883   2.802 -0.7265 -2.1302  0.9137
 4006TIP3    H212025   0.995   2.921   2.817 -1.5067  1.6210  0.0498
 4007TIP3   OH212026   2.895   0.757   4.645 -0.2745 -0.3815 -0.0763
 4007TIP3    H112027   2.928   0.842   4.675 -0.0675  0.4649 -2.4893
 4007TIP3    H212028   2.969   0.697   4.659  1.1551  0.7688 -2.1889
 4008TIP3   OH212029   1.550   3.885   4.029 -0.0002 -0.0288  0.2787
 4008TIP3    H112030   1.461   3.901   4.062 -0.2922 -0.8988 -0.0415
 4008TIP3    H212031   1.537   3.846   3.943  0.7233  0.6065 -0.1316
 4009TIP3   OH212032   3.813   1.857   0.546  0.1687 -0.3503  0.4278
 4009TIP3    H112033   3.814   1.780   0.489 -2.7337  0.9369 -1.5796
 4009TIP3    H212034   3.876   1.917   0.506  0.5348 -0.6890  0.4923
 4010TIP3   OH212035   5.286   5.627   1.570  0.4205 -0.4914  0.4095
 4010TIP3    H112036   5.331   5.679   1.503  1.3175 -2.9653 -1.0231
 4010TIP3    H212037   5.195   5.627   1.542  0.8310 -1.7600 -1.0708
 4011TIP3   OH212038   3.881   2.253   0.852  0.4140 -0.5454  0.4002
 4011TIP3    H112039   3.838   2.330   0.814 -0.1954 -1.5522 -1.0065
 4011TIP3    H212040   3.871   2.265   0.947 -0.3410  0.7194  0.1920
 4012TIP3   OH212041   6.101   4.381   1.527 -0.1205 -0.0345  0.5068
 4012TIP3    H112042   6.182   4.428   1.546 -0.3944  0.3319  0.7920
 4012TIP3    H212043   6.072   4.417   1.443  0.1892 -0.4131  0.2354
 4013TIP3   OH212044   1.155   3.988   2.970 -0.3831 -0.1058  0.0441
 4013TIP3    H112045   1.206   3.997   3.051 -0.3761  1.2019 -0.0846
 4013TIP3    H212046   1.065   3.978   3.000 -0.0661 -3.2723  0.3063
 4014TIP3   OH212047   6.328   5.588   1.148 -0.7205  0.1185  0.4209
 4014TIP3    H112048   6.326   5.569   1.242  1.4275 -1.7568  0.1917
 4014TIP3    H212049   6.343   5.682   1.142 -2.0537  0.4576  1.9003
 4015TIP3   OH212050   0.689   2.647   4.912  0.1797 -0.7610  0.7019
 4015TIP3    H112051   0.663   2.695   4.833 -1.3353 -0.5444  1.3042
 4015TIP3    H212052   0.731   2.568   4.878  3.4172  1.2009 -0.3330
 4016TIP3   OH212053   1.202   4.360   3.405 -0.1447  0.4514  0.4053
 4016TIP3    H112054   1.179   4.418   3.332  1.8774 -0.1087 -0.7614
 4016TIP3    H212055   1.140   4.382   3.474  0.1215  3.5459 -0.2071
 4017TIP3   OH212056   5.159   0.627   2.848  0.1232  0.4864 -0.3128
 4017TIP3    H112057   5.224   0.583   2.792 -0.1438 -2.5237  1.5222
 4017TIP3    H212058   5.212   0.682   2.905  0.6792  1.0954 -1.3769
 4018TIP3   OH212059   0.108   1.219   2.525  0.7161  0.1635 -0.2082
 4018TIP3    H112060   0.068   1.301   2.498 -2.7657 -1.1817  0.3414
 4018TIP3    H212061   0.116   1.226   2.620  0.4890 -0.0756 -0.1689
 4019TIP3   OH212062   4.536   5.037   0.014 -0.5911  0.0038 -0.5269
 4019TIP3    H112063   4.540   4.942   0.007 -0.6081 -0.0287 -0.1211
 4019TIP3    H212064   4.627   5.064   0.025 -0.5575  0.0590 -0.9477
 4020TIP3   OH212065   4.043   3.191   0.315 -0.3322 -0.4679  0.5094
 4020TIP3    H112066   4.017   3.102   0.293 -1.7398  0.1941 -0.6699
 4020TIP3    H212067   4.053   3.235   0.230  1.8726  0.1264  0.9927
 4021TIP3   OH212068   3.434   4.220   3.303 -0.3587 -0.8402  0.2337
 4021TIP3    H112069   3.502   4.287   3.310 -2.0406  0.8294  1.7355
 4021TIP3    H212070   3.420   4.191   3.393 -1.8790 -0.8674  0.0105
 4022TIP3   OH212071   3.956   2.481   2.696  0.0114  0.0509  0.3348
 4022TIP3    H112072   3.994   2.405   2.739  0.7938 -0.2533 -0.8583
 4022TIP3    H212073   3.955   2.549   2.763 -0.2667 -0.8567  1.2779
 4023TIP3   OH212074   1.007   2.064   0.887  0.0449 -0.3605  0.6144
 4023TIP3    H112075   1.059   2.013   0.825 -0.9417 -0.3965 -0.2036
 4023TIP3    H212076   0.980   2.001   0.953 -0.6734 -0.7863 -0.0739
 4024TIP3   OH212077   6.044   0.403   5.044 -0.6449  0.2920 -0.0356
 4024TIP3    H112078   5.995   0.386   4.963 -1.3460  0.4378  0.3502
 4024TIP3    H212079   6.126   0.442   5.014  0.6203 -2.7115 -0.8925
 4025TIP3   OH212080   2.358   2.224   0.909 -0.0600 -0.2413  0.5628
 4025TIP3    H112081   2.443   2.230   0.866  0.4267 -0.7266  1.4218
 4025TIP3    H212082   2.370   2.157   0.976 -1.1916 -0.4786  0.5442
 4026TIP3   OH212083   1.671   3.618   2.360  0.0144 -0.0955  0.2452
 4026TIP3    H112084   1.734   3.547   2.357  0.7485  0.4477  1.8718
 4026TIP3    H212085   1.590   3.577   2.393 -0.7656 -0.9265 -2.4528
 4027TIP3   OH212086   3.014   3.630   3.122  0.1030 -0.2461  0.3375
 4027TIP3    H112087   3.010   3.713   3.171  0.1132  0.1018 -0.2459
 4027TIP3    H212088   3.024   3.563   3.190  1.4200  0.3363  0.7513
 4028TIP3   OH212089   5.347   3.399   4.393  0.0493 -0.3437  0.1264
 4028TIP3    H112090   5.359   3.320   4.341  1.3094  0.1616 -0.3911
 4028TIP3    H212091   5.266   3.384   4.442 -0.2752 -1.5193 -0.7292
 4029TIP3   OH212092   0.531   1.651   1.500  0.4320  0.2142  0.1571
 4029TIP3    H112093   0.531   1.638   1.595 -2.0262  1.0824  0.3461
 4029TIP3    H212094   0.439   1.639   1.474  0.8889  0.9130 -1.9664
 4030TIP3   OH212095   1.501   4.169   3.545  0.1166 -0.1880  0.2091
 4030TIP3    H112096   1.443   4.110   3.497  0.5691  0.2722 -0.9342
 4030TIP3    H212097   1.472   4.163   3.636 -1.0677 -0.7245 -0.1911
 4031TIP3   OH212098   0.815   1.646   2.422  0.0644 -0.1544  0.3298
 4031TIP3    H112099   0.720   1.632   2.419 -0.1109  1.0812 -0.3028
 4031TIP3    H212100   0.852   1.560   2.404 -0.9083 -0.9992  2.0932
 4032TIP3   OH212101   5.854   3.735   1.219  0.1473 -0.0013  0.2754
 4032TIP3    H112102   5.935   3.739   1.269  1.1634  0.2497 -1.3313
 4032TIP3    H212103   5.861   3.655   1.168 -0.8623 -0.2486  0.5014
 4033TIP3   OH212104   4.877   0.369   2.768 -0.1142  0.3728 -0.9081
 4033TIP3    H112105   4.945   0.307   2.795 -0.2565  0.3607 -0.5760
 4033TIP3    H212106   4.801   0.314   2.747 -0.7789  0.5230  0.9656
 4034TIP3   OH212107   0.768   0.028   4.431  0.0082 -0.1050 -0.3971
 4034TIP3    H112108   0.725   0.100   4.478 -1.1148 -0.1355 -1.3077
 4034TIP3    H212109   0.857   0.059   4.415 -0.1058  0.5944  0.2549
 4035TIP3   OH212110   1.022   3.907   2.096 -0.1620  0.6597 -1.0276
 4035TIP3    H112111   1.066   3.988   2.069  2.7028  0.1932  1.6154
 4035TIP3    H212112   1.090   3.840   2.090 -1.2698 -0.6983  0.6773
 4036TIP3   OH212113   1.025   2.456   3.204  0.0760  0.4010  0.3626
 4036TIP3    H112114   1.084   2.521   3.167 -1.1244  1.4649  0.2486
 4036TIP3    H212115   1.041   2.377   3.153  0.5232  1.0117 -0.4649
 4037TIP3   OH212116   5.226   4.998   4.725 -0.0754 -0.4245 -0.1949
 4037TIP3    H112117   5.231   4.921   4.782 -1.5675 -0.4903 -0.1075
 4037TIP3    H212118   5.145   5.043   4.752 -0.5793 -0.2071 -1.9291
 4038TIP3   OH212119   4.996   2.807   5.066  0.2697 -0.3143  0.0854
 4038TIP3    H112120   4.993   2.853   5.150  1.2155 -0.0885 -0.0010
 4038TIP3    H212121   5.018   2.874   5.002  1.0524 -0.7681 -0.1300
 4039TIP3   OH212122   6.033   1.271   3.329  0.5918  0.2000 -0.6733
 4039TIP3    H112123   5.956   1.216   3.345  0.4425  0.2073 -1.3261
 4039TIP3    H212124   6.052   1.259   3.236  2.3036 -0.9995 -0.2169
 4040TIP3   OH212125   6.160   2.173   0.032 -0.7054 -0.0190 -0.1448
 4040TIP3    H112126   6.139   2.086   0.066 -1.1208  0.8386  1.8809
 4040TIP3    H212127   6.075   2.215   0.019 -0.4998  0.1703 -0.9433
 4041TIP3   OH212128   4.104   5.940   4.643  0.2833 -0.1565  0.3465
 4041TIP3    H112129   4.028   5.888   4.617 -0.0847 -0.2488  1.5572
 4041TIP3    H212130   4.080   5.977   4.728  0.8164  1.4170 -0.1493
 4042TIP3   OH212131   2.317   2.983   3.387 -0.1133 -0.1772  0.1990
 4042TIP3    H112132   2.275   2.903   3.357  0.5293 -0.2881 -0.4330
 4042TIP3    H212133   2.398   2.954   3.429 -0.0998  0.1161  0.3842
 4043TIP3   OH212134   1.570   5.373   0.290  0.2316 -1.2297  0.3002
 4043TIP3    H112135   1.587   5.309   0.220 -1.8262 -0.3046 -1.1703
 4043TIP3    H212136   1.479   5.358   0.314  0.3210 -0.1786  1.3724
 4044TIP3   OH212137   1.083   3.230   0.567 -0.3045  0.2721  0.5523
 4044TIP3    H112138   1.106   3.245   0.659  0.6927  0.4317  0.2903
 4044TIP3    H212139   1.167   3.224   0.522 -0.7789  0.8920 -0.4613
 4045TIP3   OH212140   2.588   4.889   3.769 -0.1366  0.1174  0.0844
 4045TIP3    H112141   2.580   4.794   3.770  0.7121  0.0373  0.9904
 4045TIP3    H212142   2.660   4.906   3.708 -1.0407  0.2635 -0.9671
 4046TIP3   OH212143   1.199   0.974   2.685  0.0378 -0.8130 -0.0281
 4046TIP3    H112144   1.175   1.019   2.603 -1.8898 -0.7539  0.5254
 4046TIP3    H212145   1.278   0.925   2.663  0.5440  0.5387 -1.4536
 4047TIP3   OH212146   0.827   0.815   2.352  0.1424  0.1624  0.2560
 4047TIP3    H112147   0.795   0.905   2.350 -1.9553 -0.5560 -0.4422
 4047TIP3    H212148   0.832   0.794   2.445 -0.8309  0.5126  0.4011
 4048TIP3   OH212149   4.066   1.700   4.851  0.0196  0.0987  0.2068
 4048TIP3    H112150   4.133   1.682   4.785 -0.0332 -0.6602  0.3533
 4048TIP3    H212151   4.068   1.625   4.910 -1.1978 -0.1225  0.0074
 4049TIP3   OH212152   5.484   3.119   4.672  0.0738  0.4183  0.2864
 4049TIP3    H112153   5.545   3.180   4.714  0.8602 -0.2881  0.1903
 4049TIP3    H212154   5.538   3.044   4.647 -0.6637  0.1782 -0.6440
 4050TIP3   OH212155   1.297   5.484   0.629  0.3769  0.3100  0.9791
 4050TIP3    H112156   1.344   5.402   0.637  0.9778  0.6062  0.5261
 4050TIP3    H212157   1.204   5.459   0.629  0.5649 -0.4230  0.2146
 4051TIP3   OH212158   1.682   2.294   3.491 -0.4823 -0.7372 -0.0662
 4051TIP3    H112159   1.778   2.286   3.489 -0.1127  2.3816 -0.3943
 4051TIP3    H212160   1.659   2.279   3.583  0.5006 -0.2363  0.2816
 4052TIP3   OH212161   5.742   1.053   3.925 -0.1898 -0.3117 -0.6747
 4052TIP3    H112162   5.694   1.132   3.900  0.5420  0.1116 -0.7686
 4052TIP3    H212163   5.687   0.981   3.895 -0.6767  0.1673 -0.9426
 4053TIP3   OH212164   0.513   0.870   2.799  0.4028  0.3555 -0.1848
 4053TIP3    H112165   0.464   0.821   2.865  2.0258  0.5158  1.1834
 4053TIP3    H212166   0.464   0.854   2.718  0.4221 -2.9106  0.3075
 4054TIP3   OH212167   6.054   2.300   3.061 -0.5754 -0.0187 -0.1125
 4054TIP3    H112168   6.046   2.380   3.008 -2.1537 -1.6371 -2.5041
 4054TIP3    H212169   6.119   2.247   3.014 -0.6433 -0.7714  0.6185
 4055TIP3   OH212170   2.819   5.562   3.698 -0.5419 -0.3007  0.1645
 4055TIP3    H112171   2.771   5.526   3.623  0.3439 -2.8672  0.7478
 4055TIP3    H212172   2.860   5.486   3.739  1.0551  1.3554  1.8060
 4056TIP3   OH212173   0.460   0.723   3.024  0.0908  0.1814  0.0997
 4056TIP3    H112174   0.412   0.653   3.069  0.5964  0.2866  0.8164
 4056TIP3    H212175   0.504   0.771   3.094 -0.1085  1.1179 -0.3960
 4057TIP3   OH212176   2.183   4.854   2.810  0.0643  0.1517 -0.0099
 4057TIP3    H112177   2.157   4.843   2.902 -0.4264  4.3022  0.5697
 4057TIP3    H212178   2.104   4.836   2.760 -0.5452  0.7863  0.6944
 4058TIP3   OH212179   3.552   1.202   1.511  0.3136  0.3870 -0.1393
 4058TIP3    H112180   3.615   1.178   1.579  0.9952 -2.2029 -1.5370
 4058TIP3    H212181   3.467   1.199   1.556  0.6907 -1.7666  0.5667
 4059TIP3   OH212182   3.981   5.708   1.527 -0.7140 -0.1480 -0.5704
 4059TIP3    H112183   3.899   5.742   1.491 -0.4870  0.4739 -0.5047
 4059TIP3    H212184   4.044   5.715   1.455  0.1236  2.4590  0.2972
 4060TIP3   OH212185   5.805   3.323   4.056 -0.0716  0.0414 -0.5644
 4060TIP3    H112186   5.795   3.267   4.134  1.8178 -0.0127 -0.3001
 4060TIP3    H212187   5.787   3.265   3.982  0.8205 -0.6639 -0.2479
 4061TIP3   OH212188   4.384   4.289   4.795  0.1832 -0.3714  0.1329
 4061TIP3    H112189   4.310   4.240   4.760 -0.1331 -0.0700  0.3800
 4061TIP3    H212190   4.452   4.278   4.729  0.0028 -0.8513  0.0193
 4062TIP3   OH212191   1.368   2.324   4.133 -0.3209 -0.2298 -0.0100
 4062TIP3    H112192   1.346   2.414   4.108 -1.2855 -0.6314 -0.6517
 4062TIP3    H212193   1.445   2.303   4.082 -0.7703 -0.1523 -0.7375
 4063TIP3   OH212194   1.593   3.469   0.360  0.3026 -0.3777  0.6408
 4063TIP3    H112195   1.570   3.387   0.403  2.4525 -1.6890 -0.5050
 4063TIP3    H212196   1.576   3.453   0.267  2.5809 -0.3070  0.1503
 4064TIP3   OH212197   3.668   3.010   0.237  0.4828  0.3305  0.1793
 4064TIP3    H112198   3.689   3.089   0.188  1.0690  0.0925  0.0362
 4064TIP3    H212199   3.578   3.023   0.267  0.1469  0.5316 -0.8639
 4065TIP3   OH212200   1.736   3.471   3.431  0.3375 -0.0757 -0.0865
 4065TIP3    H112201   1.661   3.530   3.442  0.2992 -0.1358 -0.0305
 4065TIP3    H212202   1.809   3.530   3.412  0.0738 -0.0735 -1.1582
 4066TIP3   OH212203   1.386   5.996   1.758  0.1556  0.3626 -0.2506
 4066TIP3    H112204   1.453   6.019   1.694  0.3585 -2.8085 -1.3817
 4066TIP3    H212205   1.415   5.911   1.792  0.1166  1.8747  4.2409
 4067TIP3   OH212206   1.111   0.525   2.838  0.5221  0.0864 -0.4454
 4067TIP3    H112207   1.093   0.619   2.840 -1.0177 -0.1329 -1.8417
 4067TIP3    H212208   1.025   0.484   2.849  1.3534 -1.2122  1.6953
 4068TIP3   OH212209   4.149   0.075   1.382 -0.3518  0.2665 -0.4762
 4068TIP3    H112210   4.087   0.059   1.311 -0.5205  1.8595 -0.7186
 4068TIP3    H212211   4.110   0.031   1.458 -2.0895  1.6712 -0.4903
 4069TIP3   OH212212   4.160   4.561   1.605 -0.1844 -0.8764  0.3604
 4069TIP3    H112213   4.243   4.568   1.652  1.6851 -0.7867 -2.6676
 4069TIP3    H212214   4.097   4.533   1.671  2.0534 -0.1562  2.9733
 4070TIP3   OH212215   4.134   5.918   2.064 -0.0907 -0.2721  0.1031
 4070TIP3    H112216   4.115   5.836   2.110  0.3257 -0.2296  0.3529
 4070TIP3    H212217   4.061   5.927   2.002  0.5412 -1.5128 -0.8675
 4071TIP3   OH212218   2.464   1.391   1.697 -0.2174 -0.4671  0.7018
 4071TIP3    H112219   2.401   1.426   1.635 -0.1186  0.1763  0.9516
 4071TIP3    H212220   2.475   1.461   1.762  2.4572  0.4202 -0.5417
 4072TIP3   OH212221   4.189   5.500   3.861  0.4556 -0.1275 -0.4985
 4072TIP3    H112222   4.109   5.490   3.808  0.4752  0.1717 -0.5861
 4072TIP3    H212223   4.253   5.538   3.800  1.0745 -1.5861 -0.8095
 4073TIP3   OH212224   3.471   3.692   3.064 -0.0656  0.2737 -0.2024
 4073TIP3    H112225   3.505   3.661   3.148  1.2143 -0.0060 -0.8067
 4073TIP3    H212226   3.390   3.643   3.051 -0.9871  1.2706  1.4723
 4074TIP3   OH212227   2.203   2.474   4.999  0.5200  0.0925  0.0608
 4074TIP3    H112228   2.184   2.438   4.912  0.5694  0.5121 -0.1274
 4074TIP3    H212229   2.155   2.557   5.001 -0.5910 -0.5387  0.9514
 4075TIP3   OH212230   5.348   0.166   3.605  0.3661 -0.0193 -0.1008
 4075TIP3    H112231   5.417   0.143   3.668  0.1588  1.0470  0.5504
 4075TIP3    H212232   5.307   0.244   3.643 -1.9912 -1.2933  0.1335
 4076TIP3   OH212233   1.838   2.812   1.310 -0.1624 -0.1667  0.3809
 4076TIP3    H112234   1.765   2.757   1.339 -0.5834 -0.4308 -1.0961
 4076TIP3    H212235   1.905   2.749   1.280  0.4881  0.0841  1.2746
 4077TIP3   OH212236   1.941   1.287   0.689 -0.1270 -0.0069 -0.2925
 4077TIP3    H112237   1.944   1.376   0.653  1.0863  0.4759  0.9316
 4077TIP3    H212238   2.032   1.259   0.691 -0.5111 -1.3752 -0.8333
 4078TIP3   OH212239   2.325   1.994   0.389  0.0635  0.3101 -0.6752
 4078TIP3    H112240   2.230   1.980   0.385  0.2400 -0.8755 -1.3423
 4078TIP3    H212241   2.346   1.995   0.482 -0.3084 -1.9423 -0.5068
 4079TIP3   OH212242   5.446   4.524   3.050 -0.1498 -0.3802  0.8065
 4079TIP3    H112243   5.502   4.452   3.019 -0.0223  0.2893 -0.5902
 4079TIP3    H212244   5.507   4.585   3.090  0.2111  0.4695 -0.9410
 4080TIP3   OH212245   4.513   0.937   1.474 -0.3001 -0.6887 -0.5581
 4080TIP3    H112246   4.577   1.006   1.456 -0.3063 -0.6923 -0.5925
 4080TIP3    H212247   4.474   0.916   1.389 -1.0700  0.0296 -0.3941
 4081TIP3   OH212248   5.051   5.047   4.194  0.3239 -0.3457 -0.0388
 4081TIP3    H112249   5.100   5.023   4.273  0.1778 -2.4260 -0.5450
 4081TIP3    H212250   4.960   5.031   4.217  0.2170 -0.2627 -0.4060
 4082TIP3   OH212251   1.885   3.502   0.324  0.5247 -0.7084  0.0342
 4082TIP3    H112252   1.906   3.493   0.231  0.3443 -2.5032  0.1419
 4082TIP3    H212253   1.794   3.530   0.325  0.9403  0.7561 -0.3223
 4083TIP3   OH212254   3.325   1.255   1.675  0.2408  0.1607 -0.2703
 4083TIP3    H112255   3.325   1.330   1.735  0.8137 -0.4439  0.4884
 4083TIP3    H212256   3.325   1.178   1.731 -0.1914 -0.4260 -1.0494
 4084TIP3   OH212257   3.152   2.419   1.430  0.1273  0.5129  0.8068
 4084TIP3    H112258   3.115   2.505   1.412  0.3418  0.4175 -0.1363
 4084TIP3    H212259   3.166   2.418   1.525  0.7824  1.7850  0.7469
 4085TIP3   OH212260   4.363   4.385   5.077 -0.0964  0.1160 -0.2919
 4085TIP3    H112261   4.393   4.329   5.006 -0.2709  0.4000 -0.5911
 4085TIP3    H212262   4.276   4.413   5.051  0.0012  0.5542 -0.1641
 4086TIP3   OH212263   2.144   4.010   0.667  0.2580  0.2617 -0.3390
 4086TIP3    H112264   2.053   3.981   0.658 -0.3209  1.9596 -0.3663
 4086TIP3    H212265   2.154   4.028   0.761  0.2587  0.9502 -0.4634
 4087TIP3   OH212266   3.128   0.706   4.919 -0.2137  0.1017 -0.0438
 4087TIP3    H112267   3.142   0.693   4.825  0.6557 -0.1259  0.1047
 4087TIP3    H212268   3.095   0.622   4.949 -0.3827  0.1374 -0.1318
 4088TIP3   OH212269   3.766   1.313   0.078 -0.0400 -0.4299 -0.2703
 4088TIP3    H112270   3.757   1.384   0.141 -2.2592  0.7560 -1.7820
 4088TIP3    H212271   3.724   1.238   0.120  0.3341 -0.2457  0.4493
 4089TIP3   OH212272   3.360   0.402   3.744 -0.1564 -0.1023  0.0353
 4089TIP3    H112273   3.390   0.316   3.773 -0.4740 -0.4092 -0.5396
 4089TIP3    H212274   3.432   0.461   3.767  0.4615 -0.6672 -0.3882
 4090TIP3   OH212275   0.570   0.548   1.599 -0.3717  0.1847  0.5112
 4090TIP3    H112276   0.594   0.639   1.613  2.5401 -0.3705 -0.1819
 4090TIP3    H212277   0.654   0.503   1.586 -1.7449 -2.4912  0.2511
 4091TIP3   OH212278   5.825   1.711   3.644  0.8644 -0.7627 -0.0033
 4091TIP3    H112279   5.883   1.635   3.632 -0.4295 -1.3921 -3.9880
 4091TIP3    H212280   5.740   1.680   3.613 -0.1332  1.7929  0.0050
 4092TIP3   OH212281   0.338   4.059   1.199 -0.4253  0.1078 -0.1651
 4092TIP3    H112282   0.291   4.100   1.127 -0.4300  0.6036  0.1150
 4092TIP3    H212283   0.298   3.973   1.208 -2.3395  1.0192  1.0177
 4093TIP3   OH212284   0.849   3.405   4.329 -0.4801 -0.2650  0.5777
 4093TIP3    H112285   0.912   3.343   4.367 -1.4925 -0.2762  2.3258
 4093TIP3    H212286   0.840   3.473   4.394 -1.0739  0.5874 -0.3704
 4094TIP3   OH212287   1.244   0.868   0.670 -0.0465  0.3919  0.0131
 4094TIP3    H112288   1.326   0.820   0.674 -0.3565 -0.1000  0.6393
 4094TIP3    H212289   1.194   0.823   0.602 -0.2889 -0.1098  0.5148
 4095TIP3   OH212290   1.932   4.763   2.000 -0.3525  0.2158  0.6795
 4095TIP3    H112291   1.950   4.686   2.055 -0.7050  0.1563  0.7162
 4095TIP3    H212292   1.855   4.803   2.040 -1.1525 -0.3188 -0.2575
 4096TIP3   OH212293   5.302   2.087   4.540  0.2067 -0.2706 -0.2859
 4096TIP3    H112294   5.256   2.003   4.547 -0.1325  0.0301  2.8606
 4096TIP3    H212295   5.257   2.134   4.470 -1.3237 -1.7336 -0.3339
 4097TIP3   OH212296   0.565   4.231   4.525  0.0460 -0.3163  0.5881
 4097TIP3    H112297   0.495   4.174   4.557  1.3069 -1.3448  1.6154
 4097TIP3    H212298   0.563   4.306   4.586 -1.8003  0.9782 -0.9358
 4098TIP3   OH212299   6.278   2.266   1.295  0.2348 -0.7143  0.4946
 4098TIP3    H112300   6.223   2.203   1.342 -1.1067  0.6662  0.8643
 4098TIP3    H212301   6.237   2.275   1.210  0.2195 -0.1096  0.5600
 4099TIP3   OH212302   3.378   5.304   1.401  0.5225  0.1096 -0.2517
 4099TIP3    H112303   3.452   5.290   1.342  0.8906 -2.2628  0.6587
 4099TIP3    H212304   3.413   5.286   1.488 -0.6870  0.8062  0.4010
 4100TIP3   OH212305   3.258   3.662   1.852 -0.1240 -0.4422 -0.9927
 4100TIP3    H112306   3.286   3.591   1.793  0.0358  0.1800 -1.6773
 4100TIP3    H212307   3.200   3.716   1.798 -0.1769 -0.0034 -0.4978
 4101TIP3   OH212308   6.169   0.168   0.465 -0.9221 -0.5071 -0.6121
 4101TIP3    H112309   6.186   0.100   0.530 -1.1506 -0.0870 -0.1059
 4101TIP3    H212310   6.248   0.170   0.412 -0.0852  0.1801  0.5948
 4102TIP3   OH212311   4.945   2.240   2.506 -0.4215  0.2348 -0.0211
 4102TIP3    H112312   4.855   2.270   2.523 -0.5696 -0.3968  0.3929
 4102TIP3    H212313   4.934   2.159   2.456 -0.0837  0.1552  0.0294
 4103TIP3   OH212314   4.423   2.779   2.079  0.1150 -0.3372 -0.8074
 4103TIP3    H112315   4.382   2.850   2.129 -0.9293 -0.9899 -0.7027
 4103TIP3    H212316   4.366   2.766   2.004  0.1455 -1.2461 -0.6806
 4104TIP3   OH212317   5.663   4.509   5.129  0.0856  0.2793 -0.3683
 4104TIP3    H112318   5.628   4.548   5.049 -1.8471  0.0978  0.3124
 4104TIP3    H212319   5.654   4.415   5.116  1.1792  0.1897 -0.5161
 4105TIP3   OH212320   2.955   5.198   1.772 -0.4015 -0.4926  0.4165
 4105TIP3    H112321   3.011   5.263   1.730  0.0401 -0.2830  1.3005
 4105TIP3    H212322   2.876   5.196   1.720  0.6234 -1.1759 -1.2000
 4106TIP3   OH212323   0.239   2.041   0.473  0.1600  0.1378  0.3112
 4106TIP3    H112324   0.188   2.020   0.551 -1.9311 -0.6237 -1.1868
 4106TIP3    H212325   0.219   2.132   0.455  0.6416  0.3131  0.6298
 4107TIP3   OH212326   3.728   5.518   0.455 -0.3286 -0.6696  0.1868
 4107TIP3    H112327   3.680   5.541   0.375 -0.9503 -0.4138  0.6257
 4107TIP3    H212328   3.768   5.434   0.435  0.0461 -0.3197 -0.6170
 4108TIP3   OH212329   3.891   1.760   4.204 -1.2752 -0.0228  0.4080
 4108TIP3    H112330   3.917   1.669   4.190 -0.5737  0.2505 -0.1112
 4108TIP3    H212331   3.840   1.758   4.284 -1.0715 -0.8411  0.5269
 4109TIP3   OH212332   2.674   3.129   5.182  0.0097  0.5996 -0.1935
 4109TIP3    H112333   2.665   3.223   5.166  1.4447  0.8184  0.2155
 4109TIP3    H212334   2.755   3.105   5.137 -0.6395 -0.5732 -0.7827
 4110TIP3   OH212335   0.585   5.703   2.600  0.1420  0.7893  0.0132
 4110TIP3    H112336   0.664   5.649   2.600 -1.3170 -1.5289  1.2412
 4110TIP3    H212337   0.513   5.641   2.584 -1.7198  2.1933  2.2623
 4111TIP3   OH212338   3.172   0.122   2.869 -0.0368 -0.2743  0.3252
 4111TIP3    H112339   3.113   0.127   2.944  1.3791  2.2911  1.4057
 4111TIP3    H212340   3.210   0.210   2.862  2.9231 -1.5115 -0.8874
 4112TIP3   OH212341   2.619   0.309   4.174  0.0473 -0.0971  0.4148
 4112TIP3    H112342   2.578   0.307   4.260  0.4629  0.2598  0.6214
 4112TIP3    H212343   2.621   0.217   4.146  1.6124 -0.4724  1.5992
 4113TIP3   OH212344   2.786   3.652   3.734 -0.6991 -0.2116  0.0372
 4113TIP3    H112345   2.739   3.622   3.656 -2.3900  1.6489  0.2614
 4113TIP3    H212346   2.846   3.720   3.701  1.6955 -2.3003 -0.1871
 4114TIP3   OH212347   5.915   1.592   0.610  0.1248 -0.0261  0.1371
 4114TIP3    H112348   5.863   1.579   0.689 -1.3157  0.4181 -0.7099
 4114TIP3    H212349   5.868   1.659   0.560  2.2751  1.4533 -0.0280
 4115TIP3   OH212350   0.059   1.448   3.373  0.0701 -0.1575  0.6147
 4115TIP3    H112351   0.087   1.359   3.392 -0.9993 -0.1394  2.5672
 4115TIP3    H212352  -0.030   1.454   3.409 -0.8459  1.0008 -1.6319
 4116TIP3   OH212353   1.106   1.803   2.393 -0.0241  0.1343  0.4140
 4116TIP3    H112354   1.045   1.741   2.435  0.2831 -0.1865  0.3873
 4116TIP3    H212355   1.187   1.794   2.442 -0.2736  1.2651  1.0610
 4117TIP3   OH212356   5.766   4.254   3.708  0.5623  0.8782 -0.2230
 4117TIP3    H112357   5.789   4.197   3.635  1.5511  1.5270 -0.4330
 4117TIP3    H212358   5.714   4.198   3.767  2.5465 -0.6017  0.2096
 4118TIP3   OH212359   4.832   0.306   2.331  0.2069 -0.1297  0.2791
 4118TIP3    H112360   4.849   0.237   2.267  2.3917  0.8051 -0.2348
 4118TIP3    H212361   4.887   0.379   2.302 -0.8864  1.2917  1.6671
 4119TIP3   OH212362   0.481   0.641   0.086 -0.0390  0.2435  0.0084
 4119TIP3    H112363   0.485   0.733   0.114  1.3406  0.5065 -0.9642
 4119TIP3    H212364   0.478   0.592   0.168 -1.7506  1.1521  0.5489
 4120TIP3   OH212365   1.992   4.307   0.928  0.3072 -0.6256 -0.0075
 4120TIP3    H112366   2.067   4.275   0.879 -0.3226  1.5091 -2.5525
 4120TIP3    H212367   1.994   4.402   0.916 -1.2464 -0.2444  2.2084
 4121TIP3   OH212368   5.775   0.685   4.753 -0.0514 -0.4800 -0.0614
 4121TIP3    H112369   5.738   0.682   4.665  0.0850  0.2061 -0.1451
 4121TIP3    H212370   5.701   0.666   4.811 -0.7001  1.4728 -0.1867
 4122TIP3   OH212371   0.400   4.463   0.841  0.2511  0.2175 -0.1948
 4122TIP3    H112372   0.439   4.383   0.805 -1.0179 -0.3046 -0.4698
 4122TIP3    H212373   0.450   4.481   0.921  1.3146 -0.1686 -0.7550
 4123TIP3   OH212374   0.117   0.145   4.166  0.4425  0.6732  0.1105
 4123TIP3    H112375   0.172   0.183   4.234 -0.3275 -1.2564  1.8864
 4123TIP3    H212376   0.167   0.071   4.133 -0.2891  0.0320  0.4208
 4124TIP3   OH212377   5.446   0.480   4.558 -0.4653  0.2125 -0.2180
 4124TIP3    H112378   5.443   0.392   4.594  0.2305  0.2031 -0.1829
 4124TIP3    H212379   5.396   0.533   4.621  0.6667  0.1798  0.7553
 4125TIP3   OH212380   5.798   5.131   3.923  0.6648 -0.2192  0.3334
 4125TIP3    H112381   5.819   5.038   3.935  0.5125 -0.3018 -0.0134
 4125TIP3    H212382   5.824   5.173   4.005  1.0925 -0.5059  0.3463
 4126TIP3   OH212383   3.014   0.599   0.363 -0.2107  0.0569 -0.5650
 4126TIP3    H112384   3.008   0.524   0.304 -0.0582 -0.2280 -0.2208
 4126TIP3    H212385   3.021   0.674   0.305 -0.8518 -0.1514 -0.9226
 4127TIP3   OH212386   0.042   0.530   4.570 -0.5394  0.5679  0.1863
 4127TIP3    H112387  -0.041   0.573   4.550 -0.6102  0.1599 -0.4083
 4127TIP3    H212388   0.064   0.480   4.492  0.4414  0.9356  0.2002
 4128TIP3   OH212389   2.900   1.894   0.385  0.1051  0.1957  0.2119
 4128TIP3    H112390   2.844   1.817   0.394  0.8829 -0.5511 -1.0760
 4128TIP3    H212391   2.967   1.884   0.453 -1.1744  1.0266  1.6744
 4129TIP3   OH212392   2.808   4.775   1.241  0.0722 -0.0827 -0.3046
 4129TIP3    H112393   2.838   4.728   1.163 -0.1919 -0.3182 -0.2689
 4129TIP3    H212394   2.849   4.861   1.236  2.8376 -1.1996  1.0308
 4130TIP3   OH212395   0.578   1.479   2.467  0.0966 -0.2069  0.2018
 4130TIP3    H112396   0.506   1.417   2.458  1.0525 -1.2894 -0.3768
 4130TIP3    H212397   0.564   1.521   2.551 -1.7444  0.3341 -0.3441
 4131TIP3   OH212398   1.315   0.588   3.542  0.4917  0.4899  0.1087
 4131TIP3    H112399   1.361   0.662   3.501  0.5558  0.9333  0.9669
 4131TIP3    H212400   1.269   0.627   3.616  0.3416 -0.2959  0.4323
 4132TIP3   OH212401   3.305   0.481   1.144  0.0242  0.5486  0.0775
 4132TIP3    H112402   3.343   0.565   1.117  0.1868  0.2341 -0.6851
 4132TIP3    H212403   3.214   0.502   1.166 -0.1634  0.7921 -0.8755
 4133TIP3   OH212404   3.613   1.134   2.929  0.6827 -0.5103 -0.2477
 4133TIP3    H112405   3.558   1.212   2.921  2.3926  0.8718  0.8341
 4133TIP3    H212406   3.577   1.087   3.005 -0.4942 -0.9560 -1.0425
 4134TIP3   OH212407   6.234   3.826   2.279 -0.2683  0.5860  0.3768
 4134TIP3    H112408   6.276   3.743   2.298  0.5880  0.5854 -1.2854
 4134TIP3    H212409   6.186   3.848   2.359 -0.3631 -1.3870  0.9120
 4135TIP3   OH212410   2.688   3.360   1.419  0.4718 -0.4921 -0.4069
 4135TIP3    H112411   2.643   3.282   1.385  1.8289 -2.4539  1.9745
 4135TIP3    H212412   2.626   3.400   1.479 -0.4569  0.7203 -2.0812
 4136TIP3   OH212413   2.645   4.179   0.995 -0.7305  0.6563 -0.1535
 4136TIP3    H112414   2.619   4.236   1.068 -3.6962 -2.1026  1.1535
 4136TIP3    H212415   2.734   4.153   1.017 -0.9014  1.3166  1.5355
 4137TIP3   OH212416   0.204   5.346   1.801 -0.1722 -0.5065  0.4128
 4137TIP3    H112417   0.155   5.265   1.784  0.4384 -1.2874  2.1353
 4137TIP3    H212418   0.294   5.317   1.812  0.6879  0.8609 -2.2186
 4138TIP3   OH212419   2.749   4.312   4.265 -0.6395  0.3410 -0.4718
 4138TIP3    H112420   2.836   4.306   4.303 -1.0529 -0.4543  0.3714
 4138TIP3    H212421   2.691   4.333   4.338 -1.5827 -2.1484 -0.3919
 4139TIP3   OH212422   2.663   5.317   3.820  0.1865  0.4437  0.0536
 4139TIP3    H112423   2.688   5.326   3.912 -1.0935 -2.0043  0.7240
 4139TIP3    H212424   2.703   5.235   3.792 -0.6116  0.4343 -1.1542
 4140TIP3   OH212425   0.882   1.699   4.667 -0.4034 -0.3714 -0.1328
 4140TIP3    H112426   0.895   1.782   4.621 -0.3298 -0.6167 -0.5620
 4140TIP3    H212427   0.970   1.662   4.675 -0.3513 -0.0809  0.6891
 4141TIP3   OH212428   1.477   1.096   0.951 -0.5121 -1.1303 -1.0398
 4141TIP3    H112429   1.516   1.090   1.039  0.3717  1.1567 -1.2038
 4141TIP3    H212430   1.551   1.117   0.894 -1.4120 -0.4500 -1.9894
 4142TIP3   OH212431   3.545   2.360   0.188 -0.3408  0.2144  0.1036
 4142TIP3    H112432   3.527   2.290   0.250 -0.3080 -0.7020 -0.8901
 4142TIP3    H212433   3.554   2.316   0.104  0.0719  1.3732 -0.4863
 4143TIP3   OH212434   3.555   5.350   4.667  0.2972  0.3491  0.3257
 4143TIP3    H112435   3.588   5.355   4.757 -1.0604  0.7539  0.8237
 4143TIP3    H212436   3.633   5.353   4.613  1.0526  2.3796  1.4107
 4144TIP3   OH212437   1.936   3.432   1.357  0.8703 -0.2606 -0.5212
 4144TIP3    H112438   1.933   3.487   1.279  1.5854 -0.4291 -0.6792
 4144TIP3    H212439   1.847   3.400   1.369 -0.1966  2.8386  0.9481
 4145TIP3   OH212440   5.981   5.207   4.945  0.3318  0.0196 -0.1422
 4145TIP3    H112441   6.035   5.229   4.869  1.0097  0.9147  0.5658
 4145TIP3    H212442   5.920   5.281   4.953 -1.0947 -1.0256 -0.9910
 4146TIP3   OH212443   5.820   4.388   4.748 -0.3645  0.4781 -0.2854
 4146TIP3    H112444   5.767   4.312   4.771  0.5004 -0.2513 -0.6360
 4146TIP3    H212445   5.812   4.447   4.823 -2.2223  0.7207 -0.6310
 4147TIP3   OH212446   5.342   3.335   1.607 -0.1056 -0.2521  0.1841
 4147TIP3    H112447   5.293   3.329   1.525  0.2521 -0.4526 -0.0187
 4147TIP3    H212448   5.386   3.251   1.614  0.0133 -0.1645  0.4902
 4148TIP3   OH212449   3.517   3.838   0.862  0.2859 -0.5331 -0.2490
 4148TIP3    H112450   3.529   3.827   0.956  0.5606  3.1251  0.2850
 4148TIP3    H212451   3.606   3.846   0.827  0.1513  0.5511 -0.3895
 4149TIP3   OH212452   1.716   0.329   1.017 -0.3363 -0.6709  0.3402
 4149TIP3    H112453   1.687   0.280   0.940 -0.8747 -1.2907  0.9235
 4149TIP3    H212454   1.714   0.265   1.088 -0.1103 -0.0416  0.9239
 4150TIP3   OH212455   5.513   2.991   2.485 -0.2281 -0.0352 -0.1725
 4150TIP3    H112456   5.513   3.070   2.432 -1.1248 -1.1402 -1.9125
 4150TIP3    H212457   5.480   2.923   2.427 -0.4883 -1.4864  1.5780
 4151TIP3   OH212458   4.000   4.996   1.093  0.7424 -0.0409  0.2740
 4151TIP3    H112459   4.061   4.927   1.121 -0.8345 -2.9295 -2.6166
 4151TIP3    H212460   4.042   5.035   1.017  0.4464  0.2989  0.2852
 4152TIP3   OH212461   4.400   1.847   0.728 -0.1563 -0.3384  0.1495
 4152TIP3    H112462   4.444   1.926   0.760  2.0945 -1.8203  0.9442
 4152TIP3    H212463   4.336   1.826   0.796 -0.5014  0.5467  0.1184
 4153TIP3   OH212464   1.756   1.893   4.712  0.5846  0.1609 -0.2464
 4153TIP3    H112465   1.749   1.810   4.758  0.9673 -0.3898 -1.1607
 4153TIP3    H212466   1.843   1.892   4.673  0.1506  0.4664 -1.2563
 4154TIP3   OH212467   5.228   2.970   3.943 -0.8031  0.1424  0.0815
 4154TIP3    H112468   5.168   2.905   3.906  0.7787 -0.1589 -2.1628
 4154TIP3    H212469   5.260   2.931   4.024 -0.7630 -1.4089 -0.6485
 4155TIP3   OH212470   0.223   0.798   4.655  0.2937 -0.4638  0.1265
 4155TIP3    H112471   0.182   0.755   4.580 -1.7157  0.2966  0.7127
 4155TIP3    H212472   0.238   0.888   4.627 -0.3850 -0.1990  0.5902
 4156TIP3   OH212473   4.639   5.964   3.721 -0.0494  0.3902  0.4634
 4156TIP3    H112474   4.729   5.984   3.747  0.4107 -0.9620 -0.0515
 4156TIP3    H212475   4.643   5.876   3.683 -1.0849  1.3163 -2.0532
 4157TIP3   OH212476   5.022   1.507   0.965  0.2157  0.5616  0.2327
 4157TIP3    H112477   4.995   1.536   0.878  0.3088 -1.6639 -0.5913
 4157TIP3    H212478   5.100   1.560   0.984  1.1476  0.0195 -1.7447
 4158TIP3   OH212479   0.381   1.780   3.219  0.2729  0.8927  0.0408
 4158TIP3    H112480   0.475   1.794   3.232  0.2429  1.6257 -0.4913
 4158TIP3    H212481   0.358   1.713   3.284  1.2023  0.5349  0.0228
 4159TIP3   OH212482   3.599   0.417   0.058  0.0160 -0.4500 -0.3248
 4159TIP3    H112483   3.602   0.462  -0.027  3.2697 -0.4673 -0.3687
 4159TIP3    H212484   3.603   0.487   0.122 -1.1467 -0.4938 -0.1839
 4160TIP3   OH212485   1.760   5.196   2.417  0.0571  0.5014  0.2895
 4160TIP3    H112486   1.758   5.183   2.322 -0.0179 -0.4535  0.4111
 4160TIP3    H212487   1.783   5.289   2.428 -1.3054  0.9778 -0.6664
 4161TIP3   OH212488   1.573   0.355   3.727 -0.0446  0.1643  0.1566
 4161TIP3    H112489   1.525   0.358   3.644 -0.2062 -1.6559  0.1425
 4161TIP3    H212490   1.574   0.446   3.757  0.0620  0.8845 -1.8527
 4162TIP3   OH212491   0.113   3.475   3.097 -0.0465 -0.2314 -0.1193
 4162TIP3    H112492   0.123   3.543   3.031  0.4580  0.5162  0.7019
 4162TIP3    H212493   0.200   3.470   3.138 -0.7684  0.4553  1.5514
 4163TIP3   OH212494   0.382   1.221   4.061  0.3193 -0.3886 -0.1463
 4163TIP3    H112495   0.342   1.284   4.121 -0.9366 -0.8553 -0.4775
 4163TIP3    H212496   0.412   1.150   4.118  0.9548  0.0954  0.1343
 4164TIP3   OH212497   2.495   3.207   1.286  0.0666  0.7918  0.3326
 4164TIP3    H112498   2.455   3.131   1.329  0.4477  1.2367  1.5038
 4164TIP3    H212499   2.533   3.171   1.205  0.4280 -0.3204  0.9745
 4165TIP3   OH212500   5.888   5.653   0.447  0.3566  0.1894  0.0386
 4165TIP3    H112501   5.947   5.657   0.372 -0.0853 -2.8363 -0.5950
 4165TIP3    H212502   5.831   5.729   0.437  0.9405  0.4007 -2.1447
 4166TIP3   OH212503   3.992   3.602   1.555 -0.5236  0.2923  0.4706
 4166TIP3    H112504   3.968   3.544   1.628  0.8867  0.9328  1.5086
 4166TIP3    H212505   4.073   3.644   1.585 -0.9359  1.9920 -0.6935
 4167TIP3   OH212506   6.143   3.367   0.259  0.5860  0.2094  0.1685
 4167TIP3    H112507   6.116   3.446   0.213 -0.5468 -0.5852 -0.5691
 4167TIP3    H212508   6.183   3.313   0.191  1.1021  0.0232  0.6139
 4168TIP3   OH212509   3.942   0.401   3.844  0.2980 -0.0138 -0.5630
 4168TIP3    H112510   3.927   0.446   3.761  1.0156  3.3237  0.9572
 4168TIP3    H212511   4.034   0.418   3.864  0.2283 -1.0305  0.7857
 4169TIP3   OH212512   3.651   5.070   3.626  0.5533  0.3550  0.0395
 4169TIP3    H112513   3.728   5.044   3.576  0.6879  1.8578 -0.5833
 4169TIP3    H212514   3.592   5.109   3.561 -0.7720 -0.7987  0.4923
 4170TIP3   OH212515   3.969   3.975   0.152  0.5762 -0.5875 -0.6404
 4170TIP3    H112516   3.985   4.064   0.119 -1.5155 -1.0668 -3.3885
 4170TIP3    H212517   3.884   3.981   0.195  1.3369 -0.9123  0.9707
 4171TIP3   OH212518   1.825   4.047   5.139 -0.5345 -0.3667 -0.8451
 4171TIP3    H112519   1.819   4.112   5.208  0.9534  2.8669 -3.4919
 4171TIP3    H212520   1.738   4.046   5.099 -0.2558  1.0047 -1.5416
 4172TIP3   OH212521   2.510   0.948   0.022  0.2032  0.1417  0.1521
 4172TIP3    H112522   2.591   0.900   0.037  1.8003  2.4521 -0.5699
 4172TIP3    H212523   2.467   0.900  -0.049  2.3268  0.3603 -1.3796
 4173TIP3   OH212524   3.814   1.925   3.036  0.1798  0.1068  0.3920
 4173TIP3    H112525   3.773   1.866   3.099  0.0335  0.2081  0.3912
 4173TIP3    H212526   3.821   2.009   3.082 -0.9264  0.4790 -0.0997
 4174TIP3   OH212527   1.064   5.904   1.601 -0.5523 -0.1239  0.0077
 4174TIP3    H112528   1.035   5.877   1.513 -1.0223 -1.4290  0.5301
 4174TIP3    H212529   1.160   5.909   1.594 -0.6179  0.3041 -0.7062
 4175TIP3   OH212530   2.903   1.850   2.168  0.2228  0.2028 -0.2776
 4175TIP3    H112531   2.999   1.846   2.162  0.1936  0.6578 -1.3526
 4175TIP3    H212532   2.885   1.936   2.204  0.2274 -0.1242  0.5204
 4176TIP3   OH212533   0.752   3.651   1.906 -0.1880 -0.4914 -0.2739
 4176TIP3    H112534   0.677   3.651   1.847  1.3429  2.0398 -2.4850
 4176TIP3    H212535   0.828   3.642   1.848  1.3800  1.6497  1.2903
 4177TIP3   OH212536   2.044   3.765   0.946 -0.0637  0.1353  0.6350
 4177TIP3    H112537   1.989   3.696   0.981 -0.7043  0.7389  0.8237
 4177TIP3    H212538   1.995   3.800   0.872 -0.5422  1.5414  1.5874
 4178TIP3   OH212539   2.582   0.991   4.600  0.5313  0.5357 -0.0539
 4178TIP3    H112540   2.662   1.043   4.614 -0.3972  2.1408 -0.4497
 4178TIP3    H212541   2.568   0.993   4.506  1.1131 -1.4962 -0.2223
 4179TIP3   OH212542   0.526   3.217   3.191  0.2012 -0.6174 -0.5011
 4179TIP3    H112543   0.436   3.186   3.196  0.0109  0.1164  1.3555
 4179TIP3    H212544   0.538   3.271   3.270  1.9420  0.1555 -1.2332
 4180TIP3   OH212545   5.476   2.766   2.363 -0.2807  0.4197  0.1207
 4180TIP3    H112546   5.549   2.706   2.346 -1.0105 -0.1680 -1.0977
 4180TIP3    H212547   5.441   2.786   2.276 -1.2609  1.0878  0.6509
 4181TIP3   OH212548   5.518   4.430   1.122  0.0576  0.3019  0.6876
 4181TIP3    H112549   5.543   4.507   1.173 -1.8740  1.5724 -0.1656
 4181TIP3    H212550   5.432   4.406   1.156  0.4252 -1.1943  0.6017
 4182TIP3   OH212551   3.475   3.160   2.979 -0.4876 -0.2415  0.2411
 4182TIP3    H112552   3.501   3.169   2.887  1.3462  3.3951  0.9301
 4182TIP3    H212553   3.556   3.172   3.028 -1.8162  0.5491  2.3666
 4183TIP3   OH212554   4.168   4.939   3.558 -0.0604  0.4897  0.6223
 4183TIP3    H112555   4.185   4.849   3.587 -1.6829  0.5983  2.0791
 4183TIP3    H212556   4.250   4.966   3.515 -0.1381 -2.2915 -1.6061
 4184TIP3   OH212557   6.340   2.366   0.185  0.4044 -0.1552 -0.6862
 4184TIP3    H112558   6.300   2.285   0.154  2.2444 -1.0856 -0.7719
 4184TIP3    H212559   6.271   2.409   0.236  0.0911 -2.9813  1.5167
 4185TIP3   OH212560   3.139   3.126   3.662  0.1092 -0.0626 -0.1321
 4185TIP3    H112561   3.129   3.220   3.646  1.2212 -0.1489 -1.4783
 4185TIP3    H212562   3.226   3.117   3.701 -0.0097 -0.5293  0.0373
 4186TIP3   OH212563   5.015   1.804   3.597  0.0275  0.7207 -0.0623
 4186TIP3    H112564   4.998   1.797   3.503 -0.8816 -2.1498  0.1963
 4186TIP3    H212565   5.104   1.770   3.608 -0.5109 -0.6821  0.2268
 4187TIP3   OH212566   3.473   2.843   3.521 -0.2991  0.4351  0.0004
 4187TIP3    H112567   3.456   2.798   3.438 -0.9251  2.4186 -1.0036
 4187TIP3    H212568   3.387   2.849   3.563 -0.1322  0.2833  0.3740
 4188TIP3   OH212569   3.553   4.875   1.993 -0.8224 -0.3669  0.1004
 4188TIP3    H112570   3.477   4.904   1.942 -0.3370  0.0944 -0.3802
 4188TIP3    H212571   3.577   4.791   1.954 -0.6803 -0.1931 -0.1902
 4189TIP3   OH212572   4.738   5.045   1.782  0.2814  0.1293 -0.2423
 4189TIP3    H112573   4.818   5.046   1.834 -0.6124 -1.7123  1.2783
 4189TIP3    H212574   4.681   5.111   1.823  0.1184 -0.3017  0.2348
 4190TIP3   OH212575   5.721   4.348   0.908 -0.0235  0.0318 -0.5196
 4190TIP3    H112576   5.699   4.264   0.867 -1.5312  0.8816 -1.5316
 4190TIP3    H212577   5.642   4.374   0.954  0.2675  1.1323 -0.6062
 4191TIP3   OH212578   4.304   0.986   2.192 -0.0612 -0.6067 -0.4884
 4191TIP3    H112579   4.302   1.079   2.169  0.4328 -0.6862 -0.8735
 4191TIP3    H212580   4.272   0.942   2.113 -1.8004 -0.6911  0.2159
 4192TIP3   OH212581   5.509   1.485   3.992  0.0560 -0.5295  0.4046
 4192TIP3    H112582   5.553   1.568   3.974  0.9073 -1.0196  0.1718
 4192TIP3    H212583   5.416   1.508   4.001  0.1748  0.3269 -0.4396
 4193TIP3   OH212584   3.941   4.715   3.407 -0.1275 -0.2174 -0.6646
 4193TIP3    H112585   4.015   4.678   3.453  0.7261  0.2025 -1.6637
 4193TIP3    H212586   3.949   4.683   3.317 -0.7577  0.3774 -0.9480
 4194TIP3   OH212587   0.206   1.262   0.778  0.2765  0.0036 -0.4131
 4194TIP3    H112588   0.191   1.277   0.685 -0.9622 -2.4205 -0.6912
 4194TIP3    H212589   0.128   1.297   0.821  0.9633  1.3569 -0.2142
 4195TIP3   OH212590   2.184   4.474   0.777 -0.4263 -0.7078  0.2465
 4195TIP3    H112591   2.182   4.448   0.685 -2.7103 -2.2862  0.6682
 4195TIP3    H212592   2.214   4.565   0.775  0.4201 -0.9751 -1.9580
 4196TIP3   OH212593   2.422   3.653   2.972  0.1651  0.3781  0.0546
 4196TIP3    H112594   2.495   3.696   2.929  1.5167 -0.7017  1.1464
 4196TIP3    H212595   2.386   3.593   2.907  1.5904 -0.5664  0.1017
 4197TIP3   OH212596   5.776   2.771   2.915 -0.3002 -0.6880 -0.1161
 4197TIP3    H112597   5.748   2.680   2.928  1.5258 -1.2733 -0.0362
 4197TIP3    H212598   5.719   2.804   2.846 -0.9750 -1.9023 -0.1612
 4198TIP3   OH212599   5.070   5.881   0.433 -0.1861 -0.7567 -0.3068
 4198TIP3    H112600   5.035   5.793   0.422 -0.7735 -0.4568 -0.9042
 4198TIP3    H212601   5.020   5.935   0.371  0.0532  0.0241  0.1638
 4199TIP3   OH212602   0.390   3.420   1.191 -0.5343  0.2816  0.0372
 4199TIP3    H112603   0.428   3.482   1.128 -0.4207 -0.0935 -0.2627
 4199TIP3    H212604   0.400   3.335   1.150  0.1859 -0.0502  0.8628
 4200TIP3   OH212605   2.759   0.735   0.979  0.2511  0.0214  0.0779
 4200TIP3    H112606   2.691   0.712   0.916 -0.4091 -0.1063  0.8232
 4200TIP3    H212607   2.729   0.698   1.062  1.7005 -0.8795  0.2374
 4201TIP3   OH212608   2.137   3.063   1.094 -0.0463  0.0687 -0.6198
 4201TIP3    H112609   2.048   3.045   1.123  0.9359 -0.8609  2.1597
 4201TIP3    H212610   2.159   3.147   1.136  0.5623 -0.0012 -0.7880
 4202TIP3   OH212611   0.632   1.146   3.954 -0.2549  0.6158 -0.9809
 4202TIP3    H112612   0.679   1.118   4.032 -1.7256  0.2807 -0.1695
 4202TIP3    H212613   0.573   1.215   3.984 -0.5917  0.7298 -1.8625
 4203TIP3   OH212614   2.313   3.340   0.321 -0.0396  0.5995  0.1341
 4203TIP3    H112615   2.274   3.307   0.403 -0.1503  0.6996  0.1222
 4203TIP3    H212616   2.270   3.289   0.252 -0.0774  0.6398  0.1275
 4204TIP3   OH212617   0.867   0.698   1.448 -0.6009  0.0434 -0.0212
 4204TIP3    H112618   0.851   0.625   1.507  0.6026  0.1725  0.4897
 4204TIP3    H212619   0.801   0.688   1.380 -0.7148 -1.3007  0.2475
 4205TIP3   OH212620   3.218   2.945   3.299  0.2342  0.1094 -0.2740
 4205TIP3    H112621   3.159   3.019   3.307 -0.3479 -0.5236  1.7153
 4205TIP3    H212622   3.262   2.959   3.215 -0.9623  1.8678 -0.6656
 4206TIP3   OH212623   1.553   1.807   4.129  0.1488 -0.0940  0.7784
 4206TIP3    H112624   1.576   1.751   4.056 -0.9752  0.6426 -0.1917
 4206TIP3    H212625   1.503   1.751   4.189 -3.8796  0.4183 -1.7071
 4207TIP3   OH212626   1.129   3.039   0.201  0.2109 -0.2767  0.4802
 4207TIP3    H112627   1.199   3.057   0.139 -0.4399  0.5366 -0.0567
 4207TIP3    H212628   1.168   3.051   0.287  0.6801  0.3910  0.1808
 4208TIP3   OH212629   0.603   1.755   4.961 -0.1114  0.5773 -0.6587
 4208TIP3    H112630   0.668   1.722   5.024 -0.5877  0.7232 -0.0840
 4208TIP3    H212631   0.539   1.685   4.953 -1.1631  1.3358  0.6171
 4209TIP3   OH212632   3.586   2.443   3.863  0.3723 -0.7118  0.2559
 4209TIP3    H112633   3.601   2.364   3.914  1.1822 -1.4359 -1.0573
 4209TIP3    H212634   3.602   2.417   3.772  0.0025  0.7920 -0.2725
 4210TIP3   OH212635   1.691   5.508   4.483  0.1493 -0.2694 -0.7511
 4210TIP3    H112636   1.742   5.450   4.539 -0.7278 -1.0899 -0.7803
 4210TIP3    H212637   1.754   5.538   4.417  0.8844 -0.2887 -0.0729
 4211TIP3   OH212638   4.707   3.314   3.259  0.0265 -0.6945  0.4663
 4211TIP3    H112639   4.689   3.222   3.277  1.1574 -1.1926 -0.7524
 4211TIP3    H212640   4.758   3.313   3.177 -0.6800  1.0687 -0.0383
 4212TIP3   OH212641   1.718   1.465   2.051  0.2254 -0.3581 -0.3442
 4212TIP3    H112642   1.672   1.548   2.035  2.8626  1.0734 -0.9745
 4212TIP3    H212643   1.801   1.491   2.091  1.8976 -2.5069 -2.1557
 4213TIP3   OH212644   1.841   3.809   1.612 -0.0138 -0.1585  0.2166
 4213TIP3    H112645   1.777   3.759   1.561  0.7256  0.6081 -1.5356
 4213TIP3    H212646   1.792   3.840   1.688 -1.2419 -1.0753 -0.1639
 4214TIP3   OH212647   1.364   2.275   4.411 -0.0990  0.2147 -0.4582
 4214TIP3    H112648   1.368   2.299   4.319 -1.5257 -0.8890 -0.8336
 4214TIP3    H212649   1.284   2.317   4.444  0.2092  0.3064  0.2048
 4215TIP3   OH212650   3.183   1.972   2.697 -0.1310 -0.2244 -0.3522
 4215TIP3    H112651   3.182   1.942   2.606 -1.3693 -1.5859  0.0543
 4215TIP3    H212652   3.123   2.047   2.698  0.5285  0.3159 -0.8019
 4216TIP3   OH212653   3.751   2.386   3.089 -0.1045 -0.6110  0.1207
 4216TIP3    H112654   3.660   2.356   3.087 -0.3556  0.1349 -0.3796
 4216TIP3    H212655   3.754   2.448   3.162 -0.2685  0.1373 -0.4907
 4217TIP3   OH212656   1.991   0.379   2.299  0.0100  0.1334 -0.3617
 4217TIP3    H112657   2.078   0.392   2.261 -0.4218 -2.4960 -2.5430
 4217TIP3    H212658   2.004   0.312   2.365 -0.1273  0.9783  0.5477
 4218TIP3   OH212659   1.464   0.366   3.479 -0.0805 -0.5660  0.5480
 4218TIP3    H112660   1.491   0.408   3.397 -3.3514 -1.7162 -1.3013
 4218TIP3    H212661   1.398   0.425   3.516  0.3974 -0.7159  1.6906
 4219TIP3   OH212662   2.244   0.323   1.348  0.1520  0.0663  0.5058
 4219TIP3    H112663   2.268   0.253   1.287  0.8269 -2.1663  3.1267
 4219TIP3    H212664   2.300   0.308   1.424 -2.0196  1.4498  2.5068
 4220TIP3   OH212665   5.423   5.337   3.580 -0.1886  0.4125  0.4798
 4220TIP3    H112666   5.516   5.329   3.600 -0.4016 -2.1526  0.6951
 4220TIP3    H212667   5.378   5.317   3.662 -0.9483  0.1379  0.0109
 4221TIP3   OH212668   4.175   2.202   3.329  0.0998  0.3847  0.1855
 4221TIP3    H112669   4.079   2.205   3.329 -0.0266 -1.2176 -1.8279
 4221TIP3    H212670   4.199   2.213   3.421 -1.9501  1.7225  0.6293
 4222TIP3   OH212671   2.404   5.508   3.321 -0.1551 -0.1282 -0.4739
 4222TIP3    H112672   2.400   5.599   3.350 -3.7055 -0.2122 -0.2015
 4222TIP3    H212673   2.431   5.513   3.229 -0.9045  1.2808 -0.6455
 4223TIP3   OH212674   4.776   3.077   0.644  0.2269  0.4209 -0.1569
 4223TIP3    H112675   4.853   3.131   0.661  1.1225 -1.3681  1.9620
 4223TIP3    H212676   4.729   3.075   0.727 -0.5248 -0.9002 -0.5854
 4224TIP3   OH212677   3.519   0.288   2.331  0.0176  0.0654  0.2391
 4224TIP3    H112678   3.450   0.234   2.369  0.1173 -0.6341 -0.5724
 4224TIP3    H212679   3.568   0.321   2.407 -0.7372 -0.0436  0.7824
 4225TIP3   OH212680   5.061   4.388   2.433  0.1495 -0.1732  0.7522
 4225TIP3    H112681   5.063   4.365   2.340 -0.5048 -0.7005  0.8624
 4225TIP3    H212682   5.043   4.306   2.478  2.6344 -0.3731  1.5354
 4226TIP3   OH212683   4.978   5.027   1.282 -0.3077  1.0116  0.3931
 4226TIP3    H112684   5.009   5.037   1.372 -0.2936 -0.6944  0.6118
 4226TIP3    H212685   4.882   5.027   1.289 -0.3298 -1.0434  0.7086
 4227TIP3   OH212686   0.828   5.590   1.947  0.6739  0.4671  0.1482
 4227TIP3    H112687   0.908   5.550   1.916 -0.3712 -0.5956 -1.3245
 4227TIP3    H212688   0.758   5.538   1.907 -0.7391  1.8852  0.6681
 4228TIP3   OH212689   4.636   1.869   3.576  0.1382 -0.4923  0.2579
 4228TIP3    H112690   4.612   1.960   3.591  0.4358 -0.3018 -0.3946
 4228TIP3    H212691   4.634   1.829   3.663 -0.4077  0.0314  0.4931
 4229TIP3   OH212692   3.296   5.061   4.898 -0.4004  0.6430  0.5655
 4229TIP3    H112693   3.372   5.109   4.931  0.5335  0.1613 -0.8038
 4229TIP3    H212694   3.250   5.124   4.843 -1.0955  0.9840  1.5252
 4230TIP3   OH212695   1.466   5.974   4.271 -0.2752  0.2343  0.4404
 4230TIP3    H112696   1.558   5.991   4.290 -0.8904  3.7591  0.8636
 4230TIP3    H212697   1.430   5.943   4.354  0.3522 -0.5051  0.4529
 4231TIP3   OH212698   5.602   3.512   4.061 -0.0721 -0.1733  0.0937
 4231TIP3    H112699   5.618   3.528   4.154 -0.8581 -1.0408  0.3957
 4231TIP3    H212700   5.641   3.426   4.044 -0.0303 -0.0684 -0.3551
 4232TIP3   OH212701   1.123   2.019   4.829 -0.1070 -0.7263  0.2782
 4232TIP3    H112702   1.180   2.069   4.888  0.5503 -0.6999 -0.3708
 4232TIP3    H212703   1.077   2.085   4.777 -0.3890 -0.7631  0.4745
 4233TIP3   OH212704   4.453   5.482   1.606 -0.0523 -0.1416  0.2286
 4233TIP3    H112705   4.484   5.429   1.680  1.6043 -0.5379 -0.7075
 4233TIP3    H212706   4.473   5.572   1.632 -1.0958 -0.1022  0.9868
 4234TIP3   OH212707   3.612   4.337   4.686  0.4973  0.2338  0.1746
 4234TIP3    H112708   3.563   4.295   4.757  1.0362 -1.9704 -0.6690
 4234TIP3    H212709   3.550   4.398   4.647 -1.7131 -2.4644 -0.8766
 4235TIP3   OH212710   1.478   1.221   2.741 -0.0882  0.4424  0.1350
 4235TIP3    H112711   1.546   1.176   2.790  0.2256  1.6669  0.8772
 4235TIP3    H212712   1.402   1.221   2.801 -0.1635  0.6792  0.0390
 4236TIP3   OH212713   4.787   3.043   2.146  0.2880  0.1607  0.5415
 4236TIP3    H112714   4.779   3.022   2.053  2.7187 -0.0600  0.3284
 4236TIP3    H212715   4.806   2.959   2.188 -0.1007  0.3724  1.1630
 4237TIP3   OH212716   4.614   0.576   2.221  0.1851 -0.0640 -0.3696
 4237TIP3    H112717   4.607   0.480   2.222 -1.6575 -0.0076  1.8989
 4237TIP3    H212718   4.575   0.602   2.138 -0.3443 -1.2440 -0.5215
 4238TIP3   OH212719   4.244   2.641   2.353  0.4908 -0.6499  0.1425
 4238TIP3    H112720   4.258   2.620   2.260 -1.5173  1.1989 -0.6794
 4238TIP3    H212721   4.155   2.612   2.372  0.0428  0.9913  0.7868
 4239TIP3   OH212722   4.870   2.190   4.324 -0.3678 -0.4171  0.4873
 4239TIP3    H112723   4.875   2.268   4.268  2.7240 -0.1291  0.9845
 4239TIP3    H212724   4.810   2.215   4.394  1.7664  2.2928  1.5546
 4240TIP3   OH212725   0.153   1.422   1.758  0.1711  0.6672  0.3528
 4240TIP3    H112726   0.130   1.441   1.667  0.2798  0.4534  0.2811
 4240TIP3    H212727   0.069   1.419   1.804  0.2008  2.4863  0.6003
 4241TIP3   OH212728   2.889   1.443   2.871  0.0431 -0.0269 -0.4137
 4241TIP3    H112729   2.831   1.473   2.801  0.5301  0.5555 -0.5785
 4241TIP3    H212730   2.905   1.521   2.923  1.3000  0.0055 -0.8216
 4242TIP3   OH212731   3.559   4.212   0.543 -0.0873  0.0111  0.2630
 4242TIP3    H112732   3.599   4.128   0.520  1.2503  0.8060 -0.4623
 4242TIP3    H212733   3.620   4.251   0.605  0.4442  1.3661 -1.0588
 4243TIP3   OH212734   4.722   5.108   2.794 -0.1497  0.2753 -0.4942
 4243TIP3    H112735   4.692   5.055   2.720 -1.3586 -0.9041  0.7919
 4243TIP3    H212736   4.807   5.142   2.766  1.6113 -3.7727 -0.7728
 4244TIP3   OH212737   1.075   4.535   3.229 -0.4986 -0.0440  0.1553
 4244TIP3    H112738   0.983   4.520   3.249 -0.2989 -0.2637  0.9524
 4244TIP3    H212739   1.098   4.614   3.278 -0.7652  1.1828 -1.6293
 4245TIP3   OH212740   1.100   2.635   3.652 -0.0810  0.0553 -0.2866
 4245TIP3    H112741   1.060   2.685   3.581 -0.5871 -0.2107 -0.1960
 4245TIP3    H212742   1.139   2.559   3.610  0.6957  0.5119 -0.4257
 4246TIP3   OH212743   4.371   0.157   4.573  0.2688 -0.5279  0.1173
 4246TIP3    H112744   4.303   0.147   4.508  1.0888 -0.9264 -0.7000
 4246TIP3    H212745   4.374   0.073   4.619  1.7588 -1.3807 -1.4187
 4247TIP3   OH212746   0.582   4.963   0.753  0.5016 -0.3815 -0.3029
 4247TIP3    H112747   0.587   4.890   0.691  1.2384 -0.9481  0.4069
 4247TIP3    H212748   0.488   4.980   0.763  0.2994 -1.5957 -0.0539
 4248TIP3   OH212749   1.434   2.922   1.777 -0.7503  0.4191  0.2198
 4248TIP3    H112750   1.462   3.014   1.776 -0.5374  0.3532 -0.0218
 4248TIP3    H212751   1.477   2.885   1.854  1.0442 -0.0467 -0.9592
 4249TIP3   OH212752   0.369   0.647   4.820  0.0454  0.3128  0.2386
 4249TIP3    H112753   0.455   0.686   4.805 -0.6427  1.8750  0.1615
 4249TIP3    H212754   0.307   0.709   4.782 -1.1007 -1.1425 -0.3815
 4250TIP3   OH212755   1.445   2.955   4.928 -0.4334  0.4669 -0.1371
 4250TIP3    H112756   1.364   2.976   4.881 -0.2746  0.5807 -0.3626
 4250TIP3    H212757   1.480   2.878   4.882 -1.2678 -0.6208  0.9904
 4251TIP3   OH212758   4.064   0.722   0.943 -0.1877  0.0334  0.2385
 4251TIP3    H112759   4.120   0.705   1.018 -0.2259  1.5638  0.6455
 4251TIP3    H212760   4.113   0.786   0.891 -0.8891  0.2384 -0.1800
 4252TIP3   OH212761   4.240   3.575   0.990 -0.3144  0.3561  0.4464
 4252TIP3    H112762   4.225   3.481   0.996 -1.7413  0.5003 -0.4105
 4252TIP3    H212763   4.259   3.591   0.898  0.7054  0.8119  0.7273
 4253TIP3   OH212764   1.904   3.670   2.679  0.4935 -0.1244  0.3820
 4253TIP3    H112765   1.838   3.699   2.616  0.4753  0.7588  0.7949
 4253TIP3    H212766   1.986   3.702   2.644  0.3743  1.2635  1.2958
 4254TIP3   OH212767   4.735   1.672   0.496 -0.7698  0.3872 -0.0227
 4254TIP3    H112768   4.646   1.638   0.503 -0.7530  0.3618  0.0693
 4254TIP3    H212769   4.759   1.658   0.404 -0.1736 -1.3615  0.3633
 4255TIP3   OH212770   2.867   5.579   1.790  0.0789  0.2905  0.5397
 4255TIP3    H112771   2.833   5.537   1.868 -0.6401 -0.6522 -0.2641
 4255TIP3    H212772   2.808   5.653   1.774 -0.2335  0.0242  0.4544
 4256TIP3   OH212773   5.715   2.345   4.228 -0.1619 -0.2174 -0.2160
 4256TIP3    H112774   5.695   2.284   4.157  1.7503 -1.2640  0.0732
 4256TIP3    H212775   5.766   2.293   4.290 -2.8462  0.2527  2.6384
 4257TIP3   OH212776   5.363   3.507   3.571 -0.0572  0.1217  0.2649
 4257TIP3    H112777   5.444   3.502   3.621  1.5362  0.5490 -2.0957
 4257TIP3    H212778   5.301   3.453   3.620  2.0076 -1.2418  1.5377
 4258TIP3   OH212779   3.002   2.651   1.348  0.4031  0.8222 -0.6247
 4258TIP3    H112780   2.975   2.724   1.404 -3.4151 -0.6145 -0.3483
 4258TIP3    H212781   2.997   2.686   1.259 -1.2195  1.0276 -0.4821
 4259TIP3   OH212782   0.994   5.811   0.680 -0.2721  0.2541 -0.2171
 4259TIP3    H112783   1.007   5.758   0.601 -0.2859 -0.6781  0.3928
 4259TIP3    H212784   0.963   5.749   0.745 -1.3997  1.2390  0.1995
 4260TIP3   OH212785   5.577   5.397   2.011 -0.3365 -0.2572  0.0262
 4260TIP3    H112786   5.495   5.348   2.014  0.6633 -1.9595  1.5700
 4260TIP3    H212787   5.596   5.407   1.917 -2.8744  1.3111 -0.4216
 4261TIP3   OH212788   3.494   4.616   1.906 -0.1573 -0.7123 -0.0792
 4261TIP3    H112789   3.406   4.604   1.941 -1.1128 -0.3840 -2.2054
 4261TIP3    H212790   3.482   4.624   1.811  2.0179  0.6772 -0.3246
 4262TIP3   OH212791   4.486   3.494   1.370 -0.3110  0.5364  0.5184
 4262TIP3    H112792   4.397   3.529   1.374 -0.8748 -0.8092  0.4504
 4262TIP3    H212793   4.532   3.554   1.312 -1.3968  0.8140 -0.0976
 4263TIP3   OH212794   2.329   1.924   3.630  0.0722  0.3237  0.2359
 4263TIP3    H112795   2.311   1.890   3.717 -0.8597  0.6190  0.1700
 4263TIP3    H212796   2.425   1.920   3.622  0.1728  0.3383  1.2791
 4264TIP3   OH212797   4.445   0.901   2.658 -0.1620  0.2703 -0.2009
 4264TIP3    H112798   4.382   0.955   2.706  0.5637  1.9651 -1.0833
 4264TIP3    H212799   4.509   0.963   2.623  0.9895 -1.2170 -0.8674
 4265TIP3   OH212800   1.977   3.344   3.558 -0.0506  0.3385 -0.3977
 4265TIP3    H112801   1.918   3.370   3.488  1.5947  0.1940 -1.8903
 4265TIP3    H212802   2.017   3.427   3.587 -0.1462  0.3073 -0.1760
 4266TIP3   OH212803   4.218   1.096   1.368 -0.3331  0.6356 -0.3811
 4266TIP3    H112804   4.265   1.175   1.342 -0.6151  1.0567  0.3360
 4266TIP3    H212805   4.168   1.071   1.290 -0.4064  1.2952 -0.5527
 4267TIP3   OH212806   1.127   3.480   1.574  0.4864  0.1944  0.2411
 4267TIP3    H112807   1.108   3.547   1.640 -0.4517 -0.7664  0.9853
 4267TIP3    H212808   1.149   3.402   1.625 -1.7489 -1.0081 -0.4836
 4268TIP3   OH212809   4.745   4.052   2.420  0.5488  0.2364 -0.2460
 4268TIP3    H112810   4.765   4.092   2.505 -0.2315 -0.6086  0.3634
 4268TIP3    H212811   4.676   3.988   2.440  1.3550 -0.9980 -1.2706
 4269TIP3   OH212812   1.057   1.717   4.352  0.1774 -0.2604  0.0391
 4269TIP3    H112813   1.017   1.785   4.406 -0.9713 -0.0868 -1.0056
 4269TIP3    H212814   1.146   1.709   4.386  0.0985  1.2389  0.6508
 4270TIP3   OH212815   5.129   5.877   0.955  0.8366 -0.1275 -0.8422
 4270TIP3    H112816   5.152   5.813   1.022  0.1829 -0.6402 -1.0920
 4270TIP3    H212817   5.033   5.884   0.961  0.8330  0.2791 -1.3032
 4271TIP3   OH212818   4.071   2.488   3.864 -0.5943 -0.1410  0.2645
 4271TIP3    H112819   3.981   2.496   3.897 -0.9171  0.3923 -0.6972
 4271TIP3    H212820   4.075   2.550   3.791  0.6592  0.0885  0.5003
 4272TIP3   OH212821   1.291   5.191   4.656  0.1598  0.3922  0.8904
 4272TIP3    H112822   1.248   5.105   4.661  0.3159  0.2479 -0.0374
 4272TIP3    H212823   1.233   5.243   4.602 -0.2431  1.0825  1.9502
 4273TIP3   OH212824   2.103   3.106   2.584  0.3464 -0.4806  0.0149
 4273TIP3    H112825   2.174   3.165   2.558  0.6103 -0.9388 -0.3334
 4273TIP3    H212826   2.136   3.063   2.663  0.1434 -0.1439  0.2836
 4274TIP3   OH212827   0.584   4.840   1.391  0.1840 -0.0984  0.9120
 4274TIP3    H112828   0.605   4.764   1.336  0.6245  0.6332  0.0426
 4274TIP3    H212829   0.492   4.857   1.375  0.4428  0.4669 -0.0901
 4275TIP3   OH212830   1.195   3.285   4.846 -0.8018  0.9730 -0.0862
 4275TIP3    H112831   1.158   3.265   4.931  1.4095  1.4549  1.0624
 4275TIP3    H212832   1.221   3.201   4.810  2.1428  0.9721  1.6862
 4276TIP3   OH212833   3.792   4.322   3.796  0.0636 -0.2442  0.3951
 4276TIP3    H112834   3.795   4.324   3.700  0.2188 -0.1014  0.4030
 4276TIP3    H212835   3.858   4.256   3.820 -0.9925 -1.3554  0.3520
 4277TIP3   OH212836   1.607   0.807   0.029  0.2161  0.8739  0.1832
 4277TIP3    H112837   1.669   0.819  -0.042  1.6509  0.0207  1.2342
 4277TIP3    H212838   1.582   0.714   0.024  0.1167  0.8743  0.6195
 4278TIP3   OH212839   0.514   4.841   4.888 -0.4573 -0.2470 -0.7591
 4278TIP3    H112840   0.461   4.874   4.815 -0.2265 -2.1807 -1.8888
 4278TIP3    H212841   0.451   4.823   4.957 -0.8186  0.6439 -0.8425
 4279TIP3   OH212842   3.785   5.309   0.049 -0.4503  0.8125 -0.0572
 4279TIP3    H112843   3.822   5.236  -0.000  0.7873  2.1303 -1.1712
 4279TIP3    H212844   3.794   5.284   0.141  0.4529 -0.1877 -0.4096
 4280TIP3   OH212845   2.071   4.322   2.509  0.7006  0.0124  0.1528
 4280TIP3    H112846   2.049   4.238   2.469  0.1095  0.7641 -1.1430
 4280TIP3    H212847   1.989   4.353   2.547  0.4239  0.9373 -1.1536
 4281TIP3   OH212848   3.062   0.508   1.952  0.3233  1.0714  0.1629
 4281TIP3    H112849   3.018   0.478   1.873  0.9927 -0.5253  0.3621
 4281TIP3    H212850   3.065   0.432   2.009  0.0182  2.1404  1.6827
 4282TIP3   OH212851   2.855   1.185   4.817  0.0266  0.7511 -0.8629
 4282TIP3    H112852   2.880   1.114   4.758 -0.8601  2.2689 -3.1972
 4282TIP3    H212853   2.888   1.264   4.775  0.8675  1.8044  1.5933
 4283TIP3   OH212854   0.184   0.468   4.033 -0.2494 -0.0446  0.3993
 4283TIP3    H112855   0.099   0.508   4.049 -0.2267  0.1139  0.1444
 4283TIP3    H212856   0.172   0.417   3.953 -0.6706 -1.7407  1.4931
 4284TIP3   OH212857   1.519   2.862   1.540 -0.2152 -0.1464  0.1972
 4284TIP3    H112858   1.605   2.826   1.561 -0.7340 -1.7627 -0.2513
 4284TIP3    H212859   1.479   2.880   1.625  0.3614  0.1268  0.4169
 4285TIP3   OH212860   2.968   3.140   0.222  0.7950  0.3302 -1.0357
 4285TIP3    H112861   3.021   3.077   0.172  1.6646  1.0914 -1.1143
 4285TIP3    H212862   3.013   3.224   0.209 -0.4503  1.0090 -1.1038
 4286TIP3   OH212863   5.428   4.815   2.907  0.2964  0.4450 -0.3226
 4286TIP3    H112864   5.373   4.770   2.843 -1.5668  1.0756  0.7607
 4286TIP3    H212865   5.481   4.746   2.946 -1.4069 -0.6100  0.2279
 4287TIP3   OH212866   1.707   5.174   1.395  0.1388 -0.0186 -0.5279
 4287TIP3    H112867   1.728   5.081   1.397  1.4916  0.2689  0.8034
 4287TIP3    H212868   1.787   5.216   1.362 -1.1066  0.5580 -3.0093
 4288TIP3   OH212869   2.113   2.199   1.376  0.1739  0.2315 -0.0840
 4288TIP3    H112870   2.032   2.248   1.388  0.1158  0.8279 -2.5790
 4288TIP3    H212871   2.175   2.243   1.434 -0.6702  1.2985  0.0561
 4289TIP3   OH212872   4.357   0.206   3.360  0.2040  0.1105  0.0072
 4289TIP3    H112873   4.353   0.275   3.426  3.4025  0.6733 -0.2253
 4289TIP3    H212874   4.344   0.125   3.410  0.6553  0.6311  1.0087
 4290TIP3   OH212875   5.068   2.189   2.011 -0.4998 -0.1272 -0.0377
 4290TIP3    H112876   4.977   2.210   1.990 -0.0194  0.3091 -1.8056
 4290TIP3    H212877   5.114   2.272   2.002  0.1262 -0.3957  0.6128
 4291TIP3   OH212878   1.549   4.020   0.528  0.1768 -0.0659  0.1501
 4291TIP3    H112879   1.620   4.083   0.538  0.8234 -0.6088 -0.9047
 4291TIP3    H212880   1.591   3.935   0.533 -0.1727 -0.3977 -1.7277
 4292TIP3   OH212881   0.939   3.453   0.544 -0.5391  0.4026 -0.8435
 4292TIP3    H112882   0.939   3.360   0.568  1.8027  0.3235 -0.9110
 4292TIP3    H212883   0.972   3.454   0.454  1.9611  1.3871  0.0028
 4293TIP3   OH212884   3.311   1.853   3.969 -0.3157  0.3444  0.3671
 4293TIP3    H112885   3.308   1.837   3.875  1.8749  2.4627 -0.1520
 4293TIP3    H212886   3.312   1.766   4.008  0.0258 -0.5992 -1.6165
 4294TIP3   OH212887   3.863   4.340   1.244  0.1876  0.1007  0.5564
 4294TIP3    H112888   3.957   4.356   1.246  0.0368  0.9898  2.4975
 4294TIP3    H212889   3.828   4.391   1.316 -1.7002 -0.8679  0.3952
 4295TIP3   OH212890   0.954   1.253   4.740 -0.0437 -0.0811  0.4244
 4295TIP3    H112891   1.021   1.288   4.798  0.8660  0.7774 -1.0640
 4295TIP3    H212892   0.988   1.269   4.652 -0.8928 -2.2532 -0.3538
 4296TIP3   OH212893   0.291   5.862   4.916  0.4022 -0.1179 -0.0746
 4296TIP3    H112894   0.383   5.888   4.918  0.3784 -0.0406  0.0722
 4296TIP3    H212895   0.247   5.931   4.864  0.5462 -0.5502 -0.7818
 4297TIP3   OH212896   4.097   5.647   0.397  0.3634  0.7650  0.5853
 4297TIP3    H112897   4.159   5.630   0.326 -0.9265  0.0302 -0.3988
 4297TIP3    H212898   4.060   5.561   0.418 -1.3700  1.3618  0.1414
 4298TIP3   OH212899   4.909   1.490   4.961  0.0067 -0.1721 -0.5870
 4298TIP3    H112900   4.886   1.416   4.904  1.9064 -2.1659  1.0337
 4298TIP3    H212901   4.867   1.470   5.044 -0.6623  1.3911 -0.5167
 4299TIP3   OH212902   1.555   1.170   4.101  0.4825 -0.6040 -0.5487
 4299TIP3    H112903   1.597   1.221   4.171  0.4957 -1.1839 -0.1240
 4299TIP3    H212904   1.615   1.097   4.087 -0.7476 -1.8809  0.6195
 4300TIP3   OH212905   2.681   5.367   0.843 -0.4318  0.0165  0.4441
 4300TIP3    H112906   2.750   5.303   0.856  0.2599  0.4247 -1.0342
 4300TIP3    H212907   2.694   5.431   0.913 -0.0059 -0.4696  0.8209
 4301TIP3   OH212908   3.311   1.552   1.739  0.2542  0.0283  0.2780
 4301TIP3    H112909   3.230   1.597   1.762  0.7554  1.8853 -1.2981
 4301TIP3    H212910   3.376   1.589   1.798  0.3804  0.3321 -0.0417
 4302TIP3   OH212911   4.301   5.040   3.165 -0.5560 -0.1595  0.0423
 4302TIP3    H112912   4.328   5.095   3.239 -2.7482  2.4398 -0.9172
 4302TIP3    H212913   4.382   5.024   3.117  0.5438  0.1034  1.7137
 4303TIP3   OH212914   4.315   2.236   0.532 -0.2415  0.4914 -0.5705
 4303TIP3    H112915   4.399   2.204   0.564 -1.2191 -2.5474 -0.7224
 4303TIP3    H212916   4.330   2.257   0.440 -0.1278 -2.6029 -1.3648
 4304TIP3   OH212917   5.096   0.466   3.140 -0.0894  0.5006  0.1406
 4304TIP3    H112918   5.050   0.397   3.188  0.1393  0.6548  0.5926
 4304TIP3    H212919   5.048   0.546   3.162 -2.0884  0.1753 -2.5784
 4305TIP3   OH212920   3.861   5.826   0.308 -0.1534  0.0019 -0.0587
 4305TIP3    H112921   3.906   5.775   0.375 -0.2574  0.5664  0.4443
 4305TIP3    H212922   3.895   5.915   0.318 -1.1707  0.3855  0.1542
 4306TIP3   OH212923   3.462   3.128   1.369 -0.2159 -0.4379 -0.0902
 4306TIP3    H112924   3.530   3.173   1.317  0.4126 -0.7399  0.4603
 4306TIP3    H212925   3.389   3.191   1.372 -0.7633 -0.8755 -2.3598
 4307TIP3   OH212926   5.289   5.365   0.237 -0.3576 -0.1020  0.2809
 4307TIP3    H112927   5.259   5.317   0.160 -1.4894  1.0235 -0.0144
 4307TIP3    H212928   5.304   5.297   0.303 -3.0924 -0.8521  0.2615
 4308TIP3   OH212929   1.787   4.938   3.887 -0.1278  0.6573  0.3021
 4308TIP3    H112930   1.713   4.992   3.915 -0.6460  0.1434 -0.0720
 4308TIP3    H212931   1.788   4.947   3.792 -1.0886 -1.0899  0.0957
 4309TIP3   OH212932   5.658   4.577   4.867 -0.4208  0.5136  0.5050
 4309TIP3    H112933   5.711   4.636   4.921  1.1141 -0.7478  0.4513
 4309TIP3    H212934   5.668   4.611   4.778  0.0647  0.4574  0.5357
 4310TIP3   OH212935   5.505   0.848   3.515  0.2074 -0.3870 -0.4508
 4310TIP3    H112936   5.419   0.807   3.526  0.7380 -1.1524  1.2658
 4310TIP3    H212937   5.493   0.911   3.443 -1.2502 -1.8626 -1.5770
 4311TIP3   OH212938   3.287   0.796   2.973 -0.4674 -0.2055 -0.2322
 4311TIP3    H112939   3.198   0.777   3.003  0.1382 -1.1641  1.0449
 4311TIP3    H212940   3.305   0.884   3.006 -1.2019  0.3393 -1.2005
 4312TIP3   OH212941   0.523   5.510   4.901  0.5586  0.5315  0.4547
 4312TIP3    H112942   0.528   5.547   4.813  1.3980 -1.6232 -0.4418
 4312TIP3    H212943   0.493   5.420   4.888  0.0761  0.3657  2.4358
 4313TIP3   OH212944   0.684   3.649   4.772 -0.6822  0.3386 -0.1202
 4313TIP3    H112945   0.766   3.690   4.743 -1.9727  1.5053 -2.4404
 4313TIP3    H212946   0.684   3.564   4.729 -0.2000 -0.1386  0.8011
 4314TIP3   OH212947   5.501   3.519   1.789  0.3244  0.3760  0.2345
 4314TIP3    H112948   5.423   3.471   1.761  0.1156  0.6079  0.4161
 4314TIP3    H212949   5.484   3.610   1.765 -0.4786  0.8331  2.3698
 4315TIP3   OH212950   5.566   0.295   2.902 -0.3635  0.5343 -0.0321
 4315TIP3    H112951   5.586   0.271   2.812  0.3381  0.1785  0.2116
 4315TIP3    H212952   5.471   0.294   2.907 -0.3964  0.2429 -0.6819
 4316TIP3   OH212953   5.942   0.653   4.463  0.1037 -0.3148  0.7140
 4316TIP3    H112954   5.917   0.738   4.425  1.6789  0.0546  0.4226
 4316TIP3    H212955   5.859   0.611   4.484 -0.7661  0.5083 -0.8848
 4317TIP3   OH212956   1.774   0.750   0.281  0.1788  0.4507 -0.0102
 4317TIP3    H112957   1.851   0.718   0.234 -0.7143 -1.4883 -0.2224
 4317TIP3    H212958   1.715   0.781   0.212 -0.6010 -1.2089 -0.1253
 4318TIP3   OH212959   4.274   0.689   0.670 -0.2239 -0.4051  0.1125
 4318TIP3    H112960   4.350   0.705   0.615  0.2443 -1.0496  0.5591
 4318TIP3    H212961   4.217   0.633   0.617 -0.3622  0.0138 -0.1906
 4319TIP3   OH212962   3.113   5.401   1.349  0.2615 -0.4002 -0.0088
 4319TIP3    H112963   3.088   5.354   1.269 -0.6130 -1.1891  0.7082
 4319TIP3    H212964   3.207   5.382   1.359  1.1558  2.1235 -2.4092
 4320TIP3   OH212965   4.002   5.809   2.904 -0.2262 -0.2369 -0.5208
 4320TIP3    H112966   3.964   5.883   2.952  0.7826  0.9208 -1.4365
 4320TIP3    H212967   4.040   5.753   2.971  0.9384  1.2260  0.0737
 4321TIP3   OH212968   1.907   1.841   1.236 -0.5187 -0.1536  0.0987
 4321TIP3    H112969   1.963   1.910   1.201  0.5571 -0.0298  1.9211
 4321TIP3    H212970   1.948   1.760   1.206  0.5388 -0.0569  1.2156
 4322TIP3   OH212971   3.743   3.597   1.190 -0.2230 -0.1374 -0.1323
 4322TIP3    H112972   3.835   3.622   1.204 -0.1107 -0.3952 -0.3895
 4322TIP3    H212973   3.721   3.543   1.265 -0.6310  1.1576  0.7050
 4323TIP3   OH212974   0.764   5.547   3.414  0.4554  0.1831  0.0742
 4323TIP3    H112975   0.757   5.498   3.332  1.7985  2.3124 -1.4258
 4323TIP3    H212976   0.676   5.582   3.428 -0.2249 -1.6193  0.5445
 4324TIP3   OH212977   2.161   1.018   2.138 -0.0033 -0.2798  0.1653
 4324TIP3    H112978   2.088   1.028   2.199  0.4819 -0.9120  0.8725
 4324TIP3    H212979   2.124   1.037   2.052 -0.1120  3.3056  0.8624
 4325TIP3   OH212980   4.677   0.460   4.323 -0.5593 -0.1024  0.3427
 4325TIP3    H112981   4.690   0.390   4.387  0.4462  0.2080  0.4922
 4325TIP3    H212982   4.611   0.517   4.363 -0.4573 -0.2872  0.7819
 4326TIP3   OH212983   1.943   0.094   1.705  0.0076 -0.2053 -0.3215
 4326TIP3    H112984   1.921   0.114   1.796  2.5881  0.8305  0.1956
 4326TIP3    H212985   1.868   0.124   1.655 -0.7547  0.8513  1.3472
 4327TIP3   OH212986   3.262   2.052   0.717 -0.1867 -0.4410  0.5325
 4327TIP3    H112987   3.241   2.140   0.747 -1.4680 -0.5537  0.0538
 4327TIP3    H212988   3.350   2.035   0.751  0.0218  0.9528  0.7588
 4328TIP3   OH212989   3.539   2.476   2.824 -0.0216 -0.3602  0.6442
 4328TIP3    H112990   3.562   2.384   2.811  0.6405  0.0356 -1.3674
 4328TIP3    H212991   3.516   2.508   2.736 -0.4572  1.3476  1.3248
 4329TIP3   OH212992   0.374   2.152   0.193  0.2354  0.1123  0.0969
 4329TIP3    H112993   0.314   2.078   0.190  0.9728 -0.4844  0.0844
 4329TIP3    H212994   0.321   2.223   0.230 -0.6807 -0.2122 -0.5374
 4330TIP3   OH212995   1.203   5.819   4.791 -0.0415  0.2892 -0.1080
 4330TIP3    H112996   1.109   5.828   4.806 -0.2479 -1.1835 -0.3182
 4330TIP3    H212997   1.209   5.770   4.709  0.8708 -0.9268  0.6538
 4331TIP3   OH212998   3.269   3.280   2.066 -0.3262 -0.4302  0.1693
 4331TIP3    H112999   3.362   3.296   2.051 -0.2800 -1.8085 -1.2079
 4331TIP3    H213000   3.235   3.365   2.095  0.9507  0.6318 -1.2850
 4332TIP3   OH213001   3.244   0.395   4.574 -0.0262  0.2346 -0.3607
 4332TIP3    H113002   3.261   0.441   4.491 -0.4052 -0.0375 -0.5981
 4332TIP3    H213003   3.311   0.327   4.578 -0.0740  0.1768 -0.5040
 4333TIP3   OH213004   0.153   2.169   2.293  0.5408 -0.5721 -0.0082
 4333TIP3    H113005   0.113   2.096   2.341  1.2564 -0.5836  0.5931
 4333TIP3    H213006   0.082   2.232   2.283  0.1284 -0.9920  0.2080
 4334TIP3   OH213007   1.557   0.663   0.482 -0.2025 -0.4518  0.6642
 4334TIP3    H113008   1.497   0.724   0.439 -0.5030 -1.5277 -0.5069
 4334TIP3    H213009   1.640   0.675   0.436  0.0906 -0.0079  1.3033
 4335TIP3   OH213010   1.294   1.785   0.307 -0.5514  0.3859 -0.4484
 4335TIP3    H113011   1.284   1.830   0.223 -0.3138  1.9796  0.3422
 4335TIP3    H213012   1.381   1.811   0.337  0.1319 -1.6384 -0.5247
 4336TIP3   OH213013   0.924   3.562   4.542 -0.2110  0.2836 -0.4047
 4336TIP3    H113014   0.936   3.524   4.629  1.0661  0.2794 -0.5633
 4336TIP3    H213015   0.940   3.656   4.555  0.7738  0.1740 -0.7702
 4337TIP3   OH213016   5.779   3.382   1.628  0.3120 -0.2213 -0.2772
 4337TIP3    H113017   5.750   3.468   1.598 -0.1610 -1.1176 -2.5585
 4337TIP3    H213018   5.717   3.359   1.697  0.1753  1.0369  0.0573
 4338TIP3   OH213019   4.333   1.624   0.064 -0.1240  0.1225  0.1360
 4338TIP3    H113020   4.306   1.626   0.156 -1.7217 -0.5833 -0.2772
 4338TIP3    H213021   4.259   1.663   0.017  0.8789  0.9251 -0.8155
 4339TIP3   OH213022   1.237   0.132   0.793 -0.1415  0.1293  0.0148
 4339TIP3    H113023   1.227   0.134   0.698 -1.9929 -0.1140  0.1623
 4339TIP3    H213024   1.325   0.165   0.809  0.8242 -1.3318 -1.8587
 4340TIP3   OH213025   5.820   0.956   3.088 -0.0629  0.0625 -0.0882
 4340TIP3    H113026   5.806   0.937   2.995 -0.4373 -0.9387  0.1638
 4340TIP3    H213027   5.769   0.889   3.134 -1.9025  1.9908  0.8512
 4341TIP3   OH213028   3.795   0.101   3.656 -0.0853 -0.1691  0.3577
 4341TIP3    H113029   3.852   0.113   3.580 -1.1042  0.1130 -0.3787
 4341TIP3    H213030   3.851   0.060   3.722  1.2810  1.1771  0.0714
 4342TIP3   OH213031   1.226   0.865   3.335 -0.3050 -0.3381  0.2425
 4342TIP3    H113032   1.259   0.805   3.268  0.0157  0.5232 -0.3851
 4342TIP3    H213033   1.168   0.924   3.287  1.7301  1.7741  0.2154
 4343TIP3   OH213034   0.569   4.551   4.485  0.6146 -0.6319 -0.1498
 4343TIP3    H113035   0.505   4.602   4.436  1.8224 -0.8863 -2.0691
 4343TIP3    H213036   0.530   4.543   4.572 -2.1382 -1.0667 -1.3016
 4344TIP3   OH213037   2.038   1.288   2.265  0.5620 -0.1223 -0.1004
 4344TIP3    H113038   2.119   1.338   2.257  1.8845 -2.0071  0.8841
 4344TIP3    H213039   2.012   1.271   2.175  0.7940  1.1537 -0.4361
 4345TIP3   OH213040   1.991   3.419   0.837  0.5647 -0.2551  0.1771
 4345TIP3    H113041   1.935   3.341   0.835 -0.6473  0.5887 -1.0771
 4345TIP3    H213042   1.941   3.483   0.887  0.7117  0.2979 -0.3707
 4346TIP3   OH213043   4.969   2.808   0.052  0.2498 -0.4041  0.1049
 4346TIP3    H113044   4.962   2.839   0.142 -0.9073 -0.5775  0.0983
 4346TIP3    H213045   4.907   2.735   0.048  0.8105 -0.8383 -0.6427
 4347TIP3   OH213046   5.704   4.695   4.597 -0.0801 -0.4133 -0.5038
 4347TIP3    H113047   5.714   4.730   4.508  2.5521 -1.1377 -0.5813
 4347TIP3    H213048   5.720   4.770   4.654  1.7623 -0.5944 -0.6963
 4348TIP3   OH213049   2.706   0.536   3.800 -0.0053 -0.6549 -0.5342
 4348TIP3    H113050   2.725   0.443   3.805 -0.5219 -0.7536 -0.3520
 4348TIP3    H213051   2.613   0.541   3.777 -0.5374 -0.2035  1.4483
 4349TIP3   OH213052   3.564   5.247   0.307 -0.2496  0.1929  0.1850
 4349TIP3    H113053   3.645   5.225   0.355  0.5046 -0.8064 -1.4502
 4349TIP3    H213054   3.577   5.338   0.280  0.0210  0.2622  0.5327
 4350TIP3   OH213055   0.325   1.173   5.155  0.0526  0.5251 -0.0861
 4350TIP3    H113056   0.361   1.086   5.138  2.5974  0.8488  2.7331
 4350TIP3    H213057   0.392   1.234   5.126 -1.3195  1.5796 -1.2120
 4351TIP3   OH213058   4.315   0.438   3.533  0.2343 -0.1908 -0.1453
 4351TIP3    H113059   4.265   0.488   3.469  0.8495  2.4636  1.3042
 4351TIP3    H213060   4.407   0.451   3.508  0.4052 -0.7539  0.1608
 4352TIP3   OH213061   3.786   2.538   3.554  0.1458  0.1281  0.7300
 4352TIP3    H113062   3.761   2.531   3.461  0.8222  0.0307  0.5528
 4352TIP3    H213063   3.748   2.460   3.594 -0.0116  0.0847  0.5006
 4353TIP3   OH213064   1.796   4.590   1.490  0.3531  0.1436 -0.0598
 4353TIP3    H113065   1.799   4.635   1.575  1.3651 -1.0573  0.5662
 4353TIP3    H213066   1.823   4.657   1.427  0.6395  0.7553  0.6904
 4354TIP3   OH213067   5.947   1.132   5.092  0.3021  0.1439 -0.1712
 4354TIP3    H113068   5.923   1.040   5.078  1.8921  0.0762 -3.1886
 4354TIP3    H213069   5.939   1.144   5.187  0.7969 -3.3287  0.4473
 4355TIP3   OH213070   5.410   0.239   2.484 -0.6000 -0.2152 -0.5387
 4355TIP3    H113071   5.439   0.255   2.394  3.7562 -0.0004  0.6721
 4355TIP3    H213072   5.353   0.313   2.504 -0.2857  0.6611 -2.6023
 4356TIP3   OH213073   3.879   2.157   3.153 -0.4939 -0.7482 -0.1849
 4356TIP3    H113074   3.805   2.215   3.138 -0.4024 -0.6654 -0.3151
 4356TIP3    H213075   3.874   2.136   3.246  0.5558  0.9702  0.3092
 4357TIP3   OH213076   1.186   4.294   0.187  0.4815  0.1209  0.0364
 4357TIP3    H113077   1.188   4.213   0.238  1.7945  0.1146  0.0061
 4357TIP3    H213078   1.262   4.287   0.129 -0.0505  0.8731 -0.7658
 4358TIP3   OH213079   1.262   5.256   3.613  0.7067 -0.1806 -0.2170
 4358TIP3    H113080   1.238   5.175   3.568  0.3767 -0.4792  0.4778
 4358TIP3    H213081   1.178   5.296   3.635  0.7814  1.7139 -2.8565
 4359TIP3   OH213082   2.388   4.838   0.387 -0.3904  0.0293 -0.0217
 4359TIP3    H113083   2.350   4.843   0.475 -2.1392  0.6963 -0.7533
 4359TIP3    H213084   2.351   4.758   0.349 -0.4820  0.2914 -0.4956
 4360TIP3   OH213085   0.936   2.546   4.341 -0.0724 -0.3868  0.0655
 4360TIP3    H113086   0.843   2.529   4.326  0.0235  0.3084 -1.5396
 4360TIP3    H213087   0.941   2.640   4.359  0.2843 -0.4707  0.3985
 4361TIP3   OH213088   4.835   3.312   3.012  0.0625  0.0376 -0.1937
 4361TIP3    H113089   4.927   3.339   3.018  0.0776  0.3724 -1.6146
 4361TIP3    H213090   4.827   3.275   2.924 -1.4331  1.0633 -0.5185
 4362TIP3   OH213091   1.695   3.296   1.285 -0.0519 -0.0131  0.2407
 4362TIP3    H113092   1.693   3.239   1.362 -0.0708  2.3011  2.0657
 4362TIP3    H213093   1.743   3.245   1.219  0.6448 -1.8038  2.0144
 4363TIP3   OH213094   1.942   4.392   1.302 -0.3059  0.0976  0.6188
 4363TIP3    H113095   1.909   4.445   1.375 -0.5601 -2.2080  2.2737
 4363TIP3    H213096   1.923   4.302   1.326 -0.6188 -0.7820 -2.4555
 4364TIP3   OH213097   1.326   5.685   0.447  0.1430 -0.3360 -0.0835
 4364TIP3    H113098   1.364   5.761   0.491 -0.2336  0.0724 -0.4636
 4364TIP3    H213099   1.342   5.612   0.507 -1.2084  0.3745  1.1846
 4365TIP3   OH213100   5.467   5.424   1.533 -0.1528 -0.0135 -0.3346
 4365TIP3    H113101   5.550   5.417   1.581 -0.3259 -0.8346 -0.1449
 4365TIP3    H213102   5.418   5.491   1.580 -0.7831 -1.5738  1.3736
 4366TIP3   OH213103   3.639   5.379   1.324 -0.1027  0.5470 -0.5564
 4366TIP3    H113104   3.725   5.336   1.331  0.2026  0.8439 -2.1175
 4366TIP3    H213105   3.640   5.446   1.392  0.0975 -0.7643  0.7781
 4367TIP3   OH213106   5.472   0.478   3.560  0.1048  0.1769  0.3345
 4367TIP3    H113107   5.513   0.410   3.507 -1.2704 -0.2522 -0.2291
 4367TIP3    H213108   5.516   0.473   3.644 -1.2615 -2.8169  1.0071
 4368TIP3   OH213109   2.517   5.514   0.352 -0.0770 -0.4320 -0.1899
 4368TIP3    H113110   2.462   5.584   0.388 -1.8276 -2.0610  0.4700
 4368TIP3    H213111   2.513   5.527   0.258 -1.2071 -0.2226 -0.1287
 4369TIP3   OH213112   5.039   0.267   3.436  0.1589  0.2832  0.4602
 4369TIP3    H113113   5.017   0.349   3.479  1.1768  0.9477 -0.2438
 4369TIP3    H213114   5.133   0.258   3.449  0.1914 -0.3587 -0.1717
 4370TIP3   OH213115   4.475   2.079   4.952  0.6352  0.1766  0.3180
 4370TIP3    H113116   4.399   2.060   5.008 -1.1098  1.1646 -1.5943
 4370TIP3    H213117   4.508   2.163   4.985 -1.2395  1.4698 -0.8638
 4371TIP3   OH213118   4.753   1.741   1.860 -0.1081  0.1664  0.0659
 4371TIP3    H113119   4.687   1.809   1.872 -0.7799 -0.5449  0.5139
 4371TIP3    H213120   4.813   1.753   1.933 -0.5029 -0.0179  0.4301
 4372TIP3   OH213121   4.444   1.926   0.467 -0.1749  0.2275  0.7217
 4372TIP3    H113122   4.482   2.014   0.470 -0.8885  0.5603  0.3082
 4372TIP3    H213123   4.453   1.893   0.557  3.1463 -0.6256  0.1818
 4373TIP3   OH213124   5.540   1.722   0.635 -0.5273 -0.4987 -0.4861
 4373TIP3    H113125   5.629   1.736   0.602  0.0236  1.1159  1.5170
 4373TIP3    H213126   5.549   1.649   0.697 -0.3084  0.4460  0.6304
 4374TIP3   OH213127   2.426   2.078   1.989 -0.7318 -0.3361 -0.2521
 4374TIP3    H113128   2.383   2.136   2.052  1.0030 -0.9520  1.6207
 4374TIP3    H213129   2.377   1.996   1.995 -0.7579 -0.2987  0.0959
 4375TIP3   OH213130   0.330   3.011   4.124  0.4772 -0.3791  0.3005
 4375TIP3    H113131   0.359   3.059   4.202  0.7310 -0.4474  0.2477
 4375TIP3    H213132   0.344   2.919   4.146 -0.8983 -0.5014  0.7742
 4376TIP3   OH213133   3.177   5.866   3.622 -0.3649  0.5741  0.0353
 4376TIP3    H113134   3.202   5.958   3.631 -0.1199  0.3959  1.4016
 4376TIP3    H213135   3.085   5.868   3.595 -0.5765  1.2266  0.7822
 4377TIP3   OH213136   6.161   2.567   3.207 -0.5469  0.1826 -0.2136
 4377TIP3    H113137   6.226   2.634   3.229 -0.7460  0.3142 -0.0141
 4377TIP3    H213138   6.129   2.592   3.121 -1.1039  0.7381  0.1386
 4378TIP3   OH213139   2.154   1.681   4.219 -0.2833 -0.3706  0.3128
 4378TIP3    H113140   2.160   1.774   4.241 -0.0603  0.4090 -2.5571
 4378TIP3    H213141   2.242   1.659   4.188 -0.6117 -1.2361 -0.0203
 4379TIP3   OH213142   3.029   1.485   0.124 -0.1536 -1.0439 -0.9656
 4379TIP3    H113143   3.047   1.455   0.213  1.5959  0.2207 -0.8232
 4379TIP3    H213144   2.947   1.534   0.131  0.6339  0.1779  0.2852
 4380TIP3   OH213145   0.354   4.744   0.903 -0.6461  0.3630 -0.1672
 4380TIP3    H113146   0.321   4.796   0.830 -0.7949  0.2067 -0.2102
 4380TIP3    H213147   0.276   4.713   0.948 -0.5691  1.4545  0.7683
 4381TIP3   OH213148   4.585   4.354   0.660 -0.1485  0.0754  0.5890
 4381TIP3    H113149   4.585   4.347   0.564 -0.3879  2.7536  0.3246
 4381TIP3    H213150   4.663   4.307   0.687  1.2108  1.2007 -1.1485
 4382TIP3   OH213151   6.038   5.222   3.625 -0.6963  0.0853  0.5908
 4382TIP3    H113152   5.999   5.174   3.551 -1.4673  0.0988  0.9783
 4382TIP3    H213153   6.077   5.300   3.585 -1.4353  0.2818  0.2407
 4383TIP3   OH213154   2.517   0.233   2.514 -0.4112 -0.1345 -0.4510
 4383TIP3    H113155   2.491   0.233   2.607 -0.5018  0.3226 -0.4762
 4383TIP3    H213156   2.554   0.145   2.500 -1.6734 -0.7057 -0.3415
 4384TIP3   OH213157   0.078   1.406   3.821  0.0902  0.6396  0.1932
 4384TIP3    H113158   0.146   1.460   3.780 -0.1938  1.0622  0.2747
 4384TIP3    H213159   0.120   1.321   3.835  0.0769  0.3477 -1.3379
 4385TIP3   OH213160   5.228   5.422   1.186  0.5689  0.4272  0.3561
 4385TIP3    H113161   5.254   5.512   1.208  0.3284  0.3626  0.8937
 4385TIP3    H213162   5.133   5.425   1.179  0.4938  0.0275  1.1964
 4386TIP3   OH213163   4.923   3.567   4.640  0.5326 -0.1653  0.1027
 4386TIP3    H113164   4.895   3.656   4.620  0.6067 -0.4247 -1.2871
 4386TIP3    H213165   4.843   3.523   4.670  0.2899  0.1283 -0.1068
 4387TIP3   OH213166   1.257   2.664   0.826 -0.1850  0.3180  0.0119
 4387TIP3    H113167   1.172   2.703   0.846 -0.6148 -1.2040  1.4352
 4387TIP3    H213168   1.277   2.611   0.903  1.5960 -0.1490 -0.7229
 4388TIP3   OH213169   3.397   2.652   1.340  0.3141 -0.3985 -0.2456
 4388TIP3    H113170   3.390   2.744   1.314 -0.0210 -0.4794 -0.4460
 4388TIP3    H213171   3.484   2.624   1.309  0.1849 -0.3089 -0.6867
 4389TIP3   OH213172   3.906   4.658   1.238 -0.4105  0.3916 -0.1358
 4389TIP3    H113173   3.873   4.738   1.279 -0.5673  0.8982 -1.2390
 4389TIP3    H213174   3.830   4.619   1.195 -0.6896 -1.1660  1.5873
 4390TIP3   OH213175   0.666   3.030   3.609 -0.1336  0.0753  0.1463
 4390TIP3    H113176   0.675   2.936   3.595 -1.3164 -0.1488  0.6975
 4390TIP3    H213177   0.599   3.057   3.547  1.1142  0.8269 -0.9168
 4391TIP3   OH213178   5.702   2.952   4.598  0.8582  0.6252 -0.0101
 4391TIP3    H113179   5.781   2.901   4.611 -0.1266 -0.8075  0.7048
 4391TIP3    H213180   5.683   2.946   4.504  1.0623  0.1307 -0.0212
 4392TIP3   OH213181   1.433   4.164   1.122 -0.1265 -0.0545 -0.5383
 4392TIP3    H113182   1.522   4.133   1.105 -0.2504 -1.4359  1.0438
 4392TIP3    H213183   1.376   4.094   1.090 -0.5294 -0.2324  0.5032
 4393TIP3   OH213184   4.765   4.784   0.014  0.2319 -0.9421 -1.0005
 4393TIP3    H113185   4.812   4.864   0.040 -2.6832  1.0487 -1.3055
 4393TIP3    H213186   4.729   4.749   0.096 -0.6024 -0.4206 -1.1252
 4394TIP3   OH213187   0.614   4.860   2.035 -0.2936 -0.1127 -0.2404
 4394TIP3    H113188   0.693   4.883   1.987 -0.0397 -0.5312 -0.0288
 4394TIP3    H213189   0.582   4.944   2.070  0.6576 -0.0684  0.5730
 4395TIP3   OH213190   0.117   2.481   2.453  0.3672 -0.2755  0.0739
 4395TIP3    H113191   0.160   2.544   2.395  0.1063 -0.3152 -0.1684
 4395TIP3    H213192   0.047   2.444   2.399  1.3277 -1.7198 -0.2079
 4396TIP3   OH213193   3.294   1.026   3.396  0.8377 -0.1589 -0.1893
 4396TIP3    H113194   3.231   1.051   3.329  0.8151  0.9991  0.2413
 4396TIP3    H213195   3.271   0.936   3.418 -0.2685  0.0305 -0.4979
 4397TIP3   OH213196   3.077   1.217   2.487 -0.2509  0.1089  0.7418
 4397TIP3    H113197   3.011   1.159   2.525 -0.7982  0.0438 -0.2692
 4397TIP3    H213198   3.090   1.285   2.553 -0.4569 -0.5248  1.4452
 4398TIP3   OH213199   3.628   0.895   1.692  0.2777 -0.1634 -0.5187
 4398TIP3    H113200   3.638   0.802   1.713  1.3419 -0.1670 -0.9912
 4398TIP3    H213201   3.674   0.906   1.608  0.8650  0.9504 -0.0709
 4399TIP3   OH213202   0.799   1.668   0.054  0.3231  0.5500 -0.2029
 4399TIP3    H113203   0.732   1.635  -0.005  0.4736  0.7432 -0.4835
 4399TIP3    H213204   0.823   1.753   0.018  1.1482  0.2199 -0.4517
 4400TIP3   OH213205   0.756   4.382   2.011  0.2377 -0.3149  0.3338
 4400TIP3    H113206   0.714   4.296   2.021 -0.6103  0.1307  0.7135
 4400TIP3    H213207   0.683   4.445   2.016  0.8909  0.4449  0.4112
 4401TIP3   OH213208   1.622   1.760   3.442  0.0800  0.0247  0.3584
 4401TIP3    H113209   1.697   1.806   3.403 -0.1805 -0.6425 -0.9666
 4401TIP3    H213210   1.582   1.825   3.499  1.2073  0.6428  0.4860
 4402TIP3   OH213211   4.045   3.272   2.093  0.5445  0.5130 -0.5232
 4402TIP3    H113212   3.969   3.271   2.151  0.4894 -2.4573 -0.4930
 4402TIP3    H213213   4.009   3.289   2.006  0.2580  2.0139 -0.1349
 4403TIP3   OH213214   2.572   1.400   0.736  0.1413  0.4041 -0.1902
 4403TIP3    H113215   2.530   1.485   0.723  2.1859  1.1004 -3.1092
 4403TIP3    H213216   2.664   1.420   0.753  0.1611 -1.2105  2.1592
 4404TIP3   OH213217   0.509   0.630   2.591 -0.1154  0.5384 -0.1722
 4404TIP3    H113218   0.452   0.590   2.657  0.2238  1.7570  0.9111
 4404TIP3    H213219   0.565   0.558   2.561 -1.1711 -0.3254 -0.1093
 4405TIP3   OH213220   3.547   0.657   4.728  0.4078 -0.2702  1.2612
 4405TIP3    H113221   3.516   0.654   4.638  0.1363 -0.4690  1.3608
 4405TIP3    H213222   3.529   0.746   4.757  1.2863  0.0562  0.8429
 4406TIP3   OH213223   5.888   3.927   4.024 -0.2873 -0.3573 -0.2071
 4406TIP3    H113224   5.915   4.011   4.061  0.9513 -0.1145 -1.5563
 4406TIP3    H213225   5.811   3.948   3.972  0.6416  0.2120 -1.4282
 4407TIP3   OH213226   0.813   1.716   0.341  0.3005 -0.5114  0.0177
 4407TIP3    H113227   0.756   1.773   0.393  0.9012  0.5787 -0.4822
 4407TIP3    H213228   0.785   1.729   0.251  0.0611 -1.4653 -0.0528
 4408TIP3   OH213229   4.436   5.960   5.120  0.0844 -0.0536  0.0953
 4408TIP3    H113230   4.388   5.930   5.198 -0.1337 -1.7286 -0.6450
 4408TIP3    H213231   4.517   5.909   5.121 -0.2859 -0.6951 -1.2035
 4409TIP3   OH213232   0.520   4.135   3.529  0.3113 -0.5059 -0.0615
 4409TIP3    H113233   0.517   4.055   3.582  0.8987 -0.7599 -0.3977
 4409TIP3    H213234   0.436   4.135   3.482  1.1106 -2.0263 -1.6111
 4410TIP3   OH213235   4.045   2.615   4.451  0.2334 -0.4142 -0.6048
 4410TIP3    H113236   4.014   2.678   4.517 -1.4557 -2.5556  0.7901
 4410TIP3    H213237   3.992   2.634   4.374  2.1390  2.0398 -1.4544
 4411TIP3   OH213238   4.839   1.715   2.987 -0.0561  0.3451  0.0051
 4411TIP3    H113239   4.928   1.725   2.952  0.9255 -0.2347  2.1755
 4411TIP3    H213240   4.821   1.797   3.032 -0.3759  0.2470  0.0604
 4412TIP3   OH213241   0.285   3.041   1.801 -0.6181 -0.1781  0.4112
 4412TIP3    H113242   0.290   3.074   1.712 -2.0321  0.2400  0.4638
 4412TIP3    H213243   0.351   2.972   1.805  1.4182  1.6285 -0.1104
 4413TIP3   OH213244   5.597   2.759   0.141  0.2864 -0.1693  0.0746
 4413TIP3    H113245   5.561   2.731   0.057  1.0084 -0.7444 -0.0524
 4413TIP3    H213246   5.529   2.815   0.179 -0.9471 -1.6144  0.0684
 4414TIP3   OH213247   0.137   0.145   4.818 -0.9575 -0.2395 -0.5951
 4414TIP3    H113248   0.116   0.235   4.792 -1.4341 -0.7429 -2.0576
 4414TIP3    H213249   0.232   0.139   4.806 -0.7307  0.4249  0.7269
 4415TIP3   OH213250   0.045   1.940   0.692  0.2197 -0.6233  0.5321
 4415TIP3    H113251  -0.035   1.983   0.720  1.9345  2.4101  1.2317
 4415TIP3    H213252   0.109   1.962   0.760  2.4256 -0.1224 -1.5775
 4416TIP3   OH213253   0.550   1.544   0.031 -0.1033  0.5315 -0.5453
 4416TIP3    H113254   0.564   1.565   0.123  1.4887  0.7972 -0.8079
 4416TIP3    H213255   0.483   1.477   0.031  0.3285  0.0672  0.8613
 4417TIP3   OH213256   1.551   0.935   1.187  0.1030  0.7271 -0.0190
 4417TIP3    H113257   1.643   0.908   1.185 -0.4267 -1.3123  0.5835
 4417TIP3    H213258   1.517   0.907   1.102 -0.0643  1.1727 -0.1032
 4418TIP3   OH213259   3.057   0.779   3.114  0.2501  0.1764  0.1710
 4418TIP3    H113260   2.980   0.794   3.060  0.2297 -1.3576 -0.2712
 4418TIP3    H213261   3.036   0.819   3.199 -1.4029 -0.9823  0.3408
 4419TIP3   OH213262   6.040   5.854   0.818  0.4977  0.0105  0.3316
 4419TIP3    H113263   5.950   5.824   0.816  0.0770  1.1729 -2.2095
 4419TIP3    H213264   6.052   5.901   0.735  3.2236  0.5125  0.8981
 4420TIP3   OH213265   3.583   4.808   4.731  0.2729 -0.0170  0.3649
 4420TIP3    H113266   3.502   4.859   4.735  0.4623  0.3334 -0.1965
 4420TIP3    H213267   3.556   4.718   4.749 -0.6793 -0.3792 -2.4482
 4421TIP3   OH213268   4.501   1.411   2.411 -0.4420  0.9571  0.1924
 4421TIP3    H113269   4.443   1.363   2.471  0.7541 -0.0838  0.5666
 4421TIP3    H213270   4.473   1.384   2.324 -1.6056  1.7824  0.2866
 4422TIP3   OH213271   0.162   3.673   5.139 -0.3675 -0.2477 -0.5621
 4422TIP3    H113272   0.166   3.660   5.234  0.1003 -0.8609 -0.6619
 4422TIP3    H213273   0.168   3.768   5.128 -0.3953 -0.1767  0.0233
 4423TIP3   OH213274   2.112   2.523   4.188  0.2772  0.0481 -0.0921
 4423TIP3    H113275   2.112   2.467   4.111  0.1151 -0.8112  0.5181
 4423TIP3    H213276   2.179   2.589   4.170 -2.4507  2.4000 -2.7441
 4424TIP3   OH213277   2.013   5.725   0.853 -0.0389 -0.3550  0.0280
 4424TIP3    H113278   1.944   5.671   0.892  0.0013 -0.7191 -0.3895
 4424TIP3    H213279   1.991   5.728   0.760  1.1386 -1.4558 -0.3189
 4425TIP3   OH213280   4.727   1.456   4.429  0.2113  0.0352  0.2895
 4425TIP3    H113281   4.692   1.536   4.389  0.7511 -0.1388 -0.5517
 4425TIP3    H213282   4.822   1.465   4.421  0.2838 -0.5543  0.4648
 4426TIP3   OH213283   3.681   2.867   0.010  0.0484  0.3790  0.1237
 4426TIP3    H113284   3.700   2.936   0.074  1.2243 -0.3481  0.5933
 4426TIP3    H213285   3.690   2.910  -0.075  1.1755  0.7177  0.3978
 4427TIP3   OH213286   2.663   4.052   4.494  0.4467 -0.0951 -0.5235
 4427TIP3    H113287   2.626   4.065   4.581  2.2368 -0.2642  0.3097
 4427TIP3    H213288   2.664   4.139   4.455 -0.3172 -0.0087 -0.3512
 4428TIP3   OH213289   5.833   2.313   2.099  0.4955  0.0308  0.2603
 4428TIP3    H113290   5.891   2.374   2.146 -0.3170  0.0365  1.2978
 4428TIP3    H213291   5.849   2.229   2.141 -0.4796  0.0971  0.7958
 4429TIP3   OH213292   6.184   0.076   4.888  0.1113 -0.2243  0.5454
 4429TIP3    H113293   6.263   0.128   4.872  0.9952 -1.1204  1.7346
 4429TIP3    H213294   6.205   0.025   4.966 -1.2235 -1.3442  0.2150
 4430TIP3   OH213295   0.439   1.358   3.622 -0.2392 -0.6116 -0.2371
 4430TIP3    H113296   0.382   1.282   3.635 -2.1029  0.1586 -3.1183
 4430TIP3    H213297   0.385   1.433   3.645  0.1723  0.0379 -1.3071
 4431TIP3   OH213298   6.080   5.365   2.067 -0.2397 -0.1328  0.5358
 4431TIP3    H113299   6.133   5.294   2.103 -2.0445 -0.9111  1.8438
 4431TIP3    H213300   6.046   5.329   1.985  1.0561  0.3057 -0.2201
 4432TIP3   OH213301   1.855   4.049   2.126 -0.0582  0.2915  0.2665
 4432TIP3    H113302   1.804   4.072   2.204 -1.8606  0.3252 -0.8785
 4432TIP3    H213303   1.841   4.122   2.066 -0.9108 -0.9603 -1.1048
 4433TIP3   OH213304   0.963   0.762   3.592 -0.5612 -0.2997  0.3748
 4433TIP3    H113305   0.876   0.752   3.630 -0.3507  1.0631  1.2367
 4433TIP3    H213306   0.955   0.722   3.505 -2.0795 -0.0722  0.3832
 4434TIP3   OH213307   6.073   4.266   0.108 -0.0384 -0.4059  0.0677
 4434TIP3    H113308   5.984   4.233   0.094  0.1436 -0.8459 -0.0856
 4434TIP3    H213309   6.113   4.265   0.020  0.0306  0.0483  0.0914
 4435TIP3   OH213310   4.504   4.464   0.147 -0.2809  0.0317  0.9731
 4435TIP3    H113311   4.417   4.456   0.108 -0.3543  1.3072  0.8605
 4435TIP3    H213312   4.563   4.427   0.082 -0.6073  0.3429  0.4965
 4436TIP3   OH213313   1.164   1.299   1.120 -0.2615 -0.3430  0.0507
 4436TIP3    H113314   1.176   1.213   1.160 -0.3385 -0.8584 -0.9941
 4436TIP3    H213315   1.252   1.334   1.109 -0.0928 -1.0801 -1.1579
 4437TIP3   OH213316   5.502   4.273   0.614 -0.1411 -0.4844  0.0405
 4437TIP3    H113317   5.471   4.362   0.600 -2.8692 -0.9630  2.2218
 4437TIP3    H213318   5.456   4.220   0.549  0.2899 -0.5289 -0.2358
 4438TIP3   OH213319   4.853   3.325   4.918  0.1199 -0.1940 -0.4649
 4438TIP3    H113320   4.776   3.315   4.862 -1.1320 -0.2537  1.1614
 4438TIP3    H213321   4.925   3.289   4.868 -0.8098  0.3336 -2.2583
 4439TIP3   OH213322   3.848   1.309   3.268 -0.2801  0.4344  0.1687
 4439TIP3    H113323   3.936   1.284   3.241  0.0068  1.1416  0.4424
 4439TIP3    H213324   3.803   1.329   3.186 -0.6048 -1.1946 -0.0920
 4440TIP3   OH213325   1.740   2.465   4.824 -0.1726  0.3375  0.2184
 4440TIP3    H113326   1.704   2.400   4.764 -1.2512  0.6981  0.4622
 4440TIP3    H213327   1.784   2.528   4.767 -0.1685  0.0544 -0.0989
 4441TIP3   OH213328   5.864   2.744   3.625 -0.6152  0.2402 -0.5815
 4441TIP3    H113329   5.834   2.720   3.538 -1.0882  0.3523 -0.4515
 4441TIP3    H213330   5.940   2.687   3.641 -2.1846 -1.8197  0.0505
 4442TIP3   OH213331   6.225   5.534   0.435 -0.2277 -0.4838  0.2040
 4442TIP3    H113332   6.221   5.457   0.378  0.2158 -1.4093  1.3953
 4442TIP3    H213333   6.315   5.535   0.468 -0.4105  0.1830  0.7104
 4443TIP3   OH213334   3.460   1.761   0.980  0.1699  0.2488  0.1404
 4443TIP3    H113335   3.478   1.691   0.917  3.5633  3.8396 -3.4644
 4443TIP3    H213336   3.532   1.754   1.043  0.1259  0.1127  0.1768
 4444TIP3   OH213337   0.804   3.199   1.592 -0.1138  0.3861  0.0009
 4444TIP3    H113338   0.812   3.293   1.574  0.3365  0.1718 -0.9953
 4444TIP3    H213339   0.894   3.166   1.585 -0.3105 -0.1688  0.0645
 4445TIP3   OH213340   4.876   5.950   2.988  0.2672 -0.1908  0.1383
 4445TIP3    H113341   4.876   5.948   3.083 -2.4930 -1.2302  0.2119
 4445TIP3    H213342   4.793   5.994   2.965  0.7107 -0.2509 -1.7799
 4446TIP3   OH213343   4.611   3.879   1.977  0.0529 -0.0181 -0.4885
 4446TIP3    H113344   4.681   3.933   1.939  0.5951 -0.2653  0.1415
 4446TIP3    H213345   4.540   3.941   1.996  0.8376  0.5691  0.6429
 4447TIP3   OH213346   6.023   4.102   1.175 -0.2998 -0.0986 -0.0502
 4447TIP3    H113347   6.054   4.183   1.216 -2.8012  1.2512 -0.5867
 4447TIP3    H213348   6.065   4.100   1.090 -0.4069  0.8130 -0.1380
 4448TIP3   OH213349   3.818   4.349   4.435  0.4544 -0.1651  0.3425
 4448TIP3    H113350   3.742   4.339   4.492  0.6569  0.0648  0.6510
 4448TIP3    H213351   3.830   4.443   4.427  0.1796 -0.1866 -0.4120
 4449TIP3   OH213352   4.109   0.888   3.167  0.2319  0.0431  0.3493
 4449TIP3    H113353   4.126   0.794   3.177  0.5512  0.0348 -0.2198
 4449TIP3    H213354   4.024   0.892   3.124 -0.1975  0.0381  1.1822
 4450TIP3   OH213355   0.674   5.403   0.070 -0.2656 -0.8890 -0.5326
 4450TIP3    H113356   0.698   5.470   0.135 -1.3633 -0.2125 -0.7978
 4450TIP3    H213357   0.691   5.446  -0.014  1.0781 -1.7345 -0.7262
 4451TIP3   OH213358   3.011   5.878   4.163 -0.4322 -0.0426 -0.3451
 4451TIP3    H113359   2.989   5.816   4.093 -0.4412  1.4351 -1.6920
 4451TIP3    H213360   3.028   5.960   4.118  0.8250  0.6507  1.2970
 4452TIP3   OH213361   1.891   4.308   3.112  0.2190  0.1077  0.1556
 4452TIP3    H113362   1.904   4.321   3.206  1.3850 -0.2586  0.0742
 4452TIP3    H213363   1.916   4.216   3.098 -2.3192 -0.6149 -0.1461
 4453TIP3   OH213364   3.607   2.772   2.892  0.1118 -0.2475 -0.0945
 4453TIP3    H113365   3.601   2.826   2.813 -0.9752  0.2041  0.2691
 4453TIP3    H213366   3.554   2.695   2.872  0.0516 -0.2561  0.0955
 4454TIP3   OH213367   3.277   5.620   4.711  0.1688  0.4508 -0.2173
 4454TIP3    H113368   3.337   5.654   4.777 -0.1870  2.6197 -0.9125
 4454TIP3    H213369   3.198   5.673   4.721 -1.0009 -1.1755 -0.4657
 4455TIP3   OH213370   5.075   2.319   2.859  0.2703 -0.0254 -0.3880
 4455TIP3    H113371   5.078   2.414   2.870 -1.1706 -0.0734  0.7858
 4455TIP3    H213372   4.982   2.297   2.869  0.7762 -1.7224  0.9360
 4456TIP3   OH213373   4.092   2.499   4.903 -0.0726 -0.2855 -0.1794
 4456TIP3    H113374   4.081   2.593   4.919  1.3209 -0.0056 -0.7594
 4456TIP3    H213375   4.030   2.458   4.963 -0.1994  0.9834  0.6069
 4457TIP3   OH213376   5.368   5.251   3.894  0.1535 -0.5577 -0.4145
 4457TIP3    H113377   5.288   5.206   3.922  0.9895 -3.6491 -2.4428
 4457TIP3    H213378   5.430   5.236   3.966  0.1704 -2.1217 -0.7164
 4458TIP3   OH213379   4.127   1.865   4.083 -0.0703  0.4396  0.3228
 4458TIP3    H113380   4.040   1.847   4.118 -0.5534  0.2620 -0.9121
 4458TIP3    H213381   4.140   1.959   4.096  0.3163  0.1635  2.1325
 4459TIP3   OH213382   1.337   3.592   3.560 -0.5153  0.0200 -0.4252
 4459TIP3    H113383   1.299   3.679   3.566  1.1876  0.8938 -1.3104
 4459TIP3    H213384   1.432   3.608   3.557 -0.1934 -1.7902 -1.4980
 4460TIP3   OH213385   3.102   3.130   2.278 -0.4899  0.0134 -0.1013
 4460TIP3    H113386   3.090   3.205   2.336 -0.0876  0.5658 -0.7228
 4460TIP3    H213387   3.182   3.150   2.229 -0.8925 -0.3765 -0.9404
 4461TIP3   OH213388   0.161   1.913   1.679 -0.1888 -0.1407  0.1940
 4461TIP3    H113389   0.236   1.912   1.621 -0.3936  0.9861 -0.1119
 4461TIP3    H213390   0.191   1.869   1.759  0.3024 -1.0762 -0.4905
 4462TIP3   OH213391   0.536   0.271   3.234 -0.6560  0.5219  0.5890
 4462TIP3    H113392   0.512   0.238   3.147 -1.0783  0.9131  0.5514
 4462TIP3    H213393   0.469   0.234   3.293 -0.7257  0.7427  0.6516
 4463TIP3   OH213394   2.212   1.210   1.385 -0.7967 -0.3607  0.4003
 4463TIP3    H113395   2.191   1.269   1.457  0.6610  1.1326 -0.3397
 4463TIP3    H213396   2.234   1.127   1.428 -2.1758 -0.1764  1.5012
 4464TIP3   OH213397   4.587   5.490   3.291  0.1286 -0.0358  0.2984
 4464TIP3    H113398   4.571   5.580   3.321 -0.7072 -0.8476  2.5676
 4464TIP3    H213399   4.677   5.490   3.260  0.2318  1.5149  0.5181
 4465TIP3   OH213400   2.483   0.942   3.805 -0.6392 -0.2103  0.1468
 4465TIP3    H113401   2.468   0.848   3.799 -1.1492 -0.1003 -0.3352
 4465TIP3    H213402   2.578   0.952   3.795  0.2259 -1.0470  4.9109
 4466TIP3   OH213403   5.003   5.342   4.760 -0.2999 -0.7342 -0.2010
 4466TIP3    H113404   4.972   5.275   4.699 -3.0848  0.7061 -0.5155
 4466TIP3    H213405   4.928   5.360   4.816  1.3474 -0.0526  1.9214
 4467TIP3   OH213406   6.221   5.251   0.403 -0.1384  0.8530 -0.1267
 4467TIP3    H113407   6.132   5.217   0.389  0.3084  0.3111 -1.9618
 4467TIP3    H213408   6.242   5.225   0.493 -0.8442 -1.4609 -0.5397
 4468TIP3   OH213409   0.582   2.595   0.400 -0.2466 -0.1326  0.4745
 4468TIP3    H113410   0.594   2.682   0.439 -1.2865  0.1172  0.2749
 4468TIP3    H213411   0.523   2.549   0.460  1.2600 -1.1681  1.2254
 4469TIP3   OH213412   2.756   3.070   3.722  0.1216 -0.0616 -0.0418
 4469TIP3    H113413   2.744   3.008   3.794  0.7714 -0.7652 -0.5401
 4469TIP3    H213414   2.786   3.151   3.765 -0.3654 -0.1970  0.5636
 4470TIP3   OH213415   3.170   3.071   0.615  0.0003  0.4135  0.5869
 4470TIP3    H113416   3.205   3.159   0.602  1.3983 -0.0824  0.7643
 4470TIP3    H213417   3.185   3.054   0.708 -0.3361  0.0216  0.5701
 4471TIP3   OH213418   1.321   4.888   3.955 -0.2426 -0.0621 -0.3459
 4471TIP3    H113419   1.313   4.956   4.022  0.5915 -0.3342  0.0454
 4471TIP3    H213420   1.232   4.876   3.923 -0.1733  2.5400 -1.7728
 4472TIP3   OH213421   4.822   1.311   2.880 -0.3457 -0.4398  0.0499
 4472TIP3    H113422   4.743   1.284   2.833 -0.1100  0.9749 -1.2091
 4472TIP3    H213423   4.879   1.234   2.877 -1.4204 -1.2850  0.4709
 4473TIP3   OH213424   6.242   1.084   1.285  0.1007  0.7909  0.1580
 4473TIP3    H113425   6.317   1.062   1.228 -0.2233 -0.1504  0.0715
 4473TIP3    H213426   6.234   1.179   1.279 -0.0096  0.7110 -1.4921
 4474TIP3   OH213427   1.950   3.595   3.847 -0.2042  0.1989 -0.5815
 4474TIP3    H113428   1.896   3.539   3.902 -0.1833  1.3532  0.6635
 4474TIP3    H213429   1.920   3.683   3.865  0.0302  0.6509 -2.2059
 4475TIP3   OH213430   1.658   4.458   0.161 -0.0318 -0.1730  0.2493
 4475TIP3    H113431   1.591   4.483   0.224 -0.9054 -0.1552 -0.6680
 4475TIP3    H213432   1.740   4.488   0.201 -0.8147  2.3059  0.1680
 4476TIP3   OH213433   5.985   3.363   0.700 -0.5798 -0.1693 -0.2266
 4476TIP3    H113434   5.947   3.385   0.785  0.1694 -1.0700  0.3559
 4476TIP3    H213435   5.910   3.354   0.642 -1.1043  0.3853  0.3436
 4477TIP3   OH213436   3.847   5.171   3.169  0.2470 -0.7663 -0.1807
 4477TIP3    H113437   3.810   5.083   3.170  0.3487 -0.8102 -0.1718
 4477TIP3    H213438   3.928   5.164   3.220  0.4921 -0.7744 -0.5617
 4478TIP3   OH213439   1.808   0.571   5.076  0.3564 -0.0079 -0.1804
 4478TIP3    H113440   1.890   0.577   5.123  0.2871  0.7328 -0.1499
 4478TIP3    H213441   1.809   0.483   5.037 -0.0616 -1.0765  2.0620
 4479TIP3   OH213442   0.060   2.201   0.978  0.0081  0.2350  0.5035
 4479TIP3    H113443   0.077   2.219   0.886  0.5036  1.0810  0.7472
 4479TIP3    H213444  -0.020   2.250   0.998 -0.0854  0.0726  0.5283
 4480TIP3   OH213445   0.728   2.538   3.745 -0.2151  0.5376  0.2851
 4480TIP3    H113446   0.805   2.561   3.797 -1.0942  2.6869  0.7378
 4480TIP3    H213447   0.714   2.613   3.688 -0.8465 -0.6622 -1.1964
 4481TIP3   OH213448   0.164   1.622   4.740  0.0981 -0.4334 -0.2234
 4481TIP3    H113449   0.184   1.684   4.810 -0.6413 -0.0027 -0.3817
 4481TIP3    H213450   0.094   1.568   4.775 -0.0421 -0.4370 -0.5084
 4482TIP3   OH213451   2.115   2.555   0.308 -0.1461 -0.0565 -0.4560
 4482TIP3    H113452   2.186   2.522   0.362  0.6750  0.0273 -1.4331
 4482TIP3    H213453   2.118   2.502   0.228  0.4433  1.5441 -1.5601
 4483TIP3   OH213454   1.122   3.145   2.112  0.5129  0.5651 -0.0000
 4483TIP3    H113455   1.159   3.080   2.171  1.0397  0.8057 -0.0638
 4483TIP3    H213456   1.080   3.209   2.170  1.7704  1.2599  0.1614
 4484TIP3   OH213457   0.687   3.828   2.765 -0.4461  0.0267 -0.0449
 4484TIP3    H113458   0.646   3.770   2.701  1.7499 -0.5537 -1.0315
 4484TIP3    H213459   0.764   3.863   2.719 -0.0699  1.4155  1.5312
 4485TIP3   OH213460   4.838   1.702   3.792 -0.3282  0.3539  0.1134
 4485TIP3    H113461   4.756   1.743   3.819 -0.8416  0.4684 -1.5383
 4485TIP3    H213462   4.874   1.760   3.726  0.9978  0.1903  0.6480
 4486TIP3   OH213463   1.708   0.374   2.537 -0.1523 -0.0554  0.8444
 4486TIP3    H113464   1.745   0.299   2.491 -0.6259  0.5369 -0.5695
 4486TIP3    H213465   1.614   0.353   2.544 -0.0206 -0.3119  1.8997
 4487TIP3   OH213466   5.156   5.714   1.185 -0.2997 -0.0511 -0.3367
 4487TIP3    H113467   5.063   5.729   1.201 -0.1228  1.8984 -0.8748
 4487TIP3    H213468   5.198   5.732   1.269 -0.3181 -0.0405 -0.3300
 4488TIP3   OH213469   2.278   0.031   2.582  0.2712  0.1752  0.2222
 4488TIP3    H113470   2.326   0.086   2.644 -0.8878 -0.5436  1.8212
 4488TIP3    H213471   2.278  -0.055   2.623 -0.5915 -0.2967 -0.7598
 4489TIP3   OH213472   5.517   4.512   0.247  0.0399 -0.3844  0.0151
 4489TIP3    H113473   5.549   4.426   0.277 -0.9922  0.0882  2.8080
 4489TIP3    H213474   5.422   4.501   0.241 -0.3846  1.0217  2.5609
 4490TIP3   OH213475   5.703   5.786   4.690 -0.3991 -0.1247  0.4382
 4490TIP3    H113476   5.681   5.862   4.742  2.1048  0.7409  0.3747
 4490TIP3    H213477   5.644   5.790   4.615 -3.0416 -0.5699  2.3439
 4491TIP3   OH213478   6.097   5.682   0.232 -0.1707 -0.0741 -0.5071
 4491TIP3    H113479   6.075   5.601   0.188  1.2532 -0.6138 -0.2609
 4491TIP3    H213480   6.157   5.656   0.302  1.4376  1.3149 -1.2859
 4492TIP3   OH213481   6.114   3.466   4.326  0.1185 -0.1217  0.6858
 4492TIP3    H113482   6.161   3.545   4.353 -3.1406  2.2525 -0.0033
 4492TIP3    H213483   6.173   3.424   4.264  1.5269  2.4959  0.0956
 4493TIP3   OH213484   1.803   3.915   2.892  0.5024 -0.0341 -0.4261
 4493TIP3    H113485   1.813   3.832   2.845  0.8623 -0.7701  0.9252
 4493TIP3    H213486   1.792   3.891   2.983  0.5182  1.4119 -0.0137
 4494TIP3   OH213487   4.687   1.914   3.295 -0.1503 -0.6154 -0.1831
 4494TIP3    H113488   4.706   2.004   3.267 -0.3398 -1.0054 -1.6259
 4494TIP3    H213489   4.662   1.923   3.387 -0.6558  0.8802 -0.4333
 4495TIP3   OH213490   4.839   4.791   3.025 -0.4678 -0.3270 -0.0624
 4495TIP3    H113491   4.810   4.862   2.969 -0.7427 -0.1359  0.3232
 4495TIP3    H213492   4.801   4.712   2.986 -0.0277 -0.2883 -0.5844
 4496TIP3   OH213493   1.098   4.647   2.484 -0.0804  0.5442  0.5612
 4496TIP3    H113494   1.093   4.618   2.575  0.1964  1.4081  0.8603
 4496TIP3    H213495   1.074   4.570   2.433  4.2355 -1.4674  1.1137
 4497TIP3   OH213496   0.491   5.768   4.114  0.1417 -0.4261  0.0881
 4497TIP3    H113497   0.452   5.856   4.108  0.9890 -0.1265 -2.3151
 4497TIP3    H213498   0.585   5.784   4.120  0.1733 -1.1857  3.2960
 4498TIP3   OH213499   0.819   4.270   0.200  0.9460  0.3001  0.4534
 4498TIP3    H113500   0.851   4.195   0.249 -0.7414 -0.3460  0.6171
 4498TIP3    H213501   0.898   4.317   0.173  1.9908 -1.0597  1.0742
 4499TIP3   OH213502   1.090   1.969   3.215  0.1088 -0.5247  0.0866
 4499TIP3    H113503   1.116   1.996   3.303  0.4379 -1.1798  0.2037
 4499TIP3    H213504   1.123   1.879   3.207  0.3807 -0.3589 -0.8305
 4500TIP3   OH213505   0.045   3.783   3.781 -0.6072  0.0926 -0.0232
 4500TIP3    H113506  -0.029   3.733   3.747 -1.4136  1.4928 -0.4485
 4500TIP3    H213507   0.037   3.868   3.737  0.8576  0.4994  0.4557
 4501TIP3   OH213508   4.037   5.013   1.678 -0.7019 -0.0117 -0.8862
 4501TIP3    H113509   4.008   4.926   1.651 -0.7569 -0.7712  1.4088
 4501TIP3    H213510   4.005   5.022   1.767 -1.1499  2.6090 -1.2244
 4502TIP3   OH213511   2.756   0.037   4.357 -0.3008 -0.0942  0.3766
 4502TIP3    H113512   2.829   0.097   4.349 -0.0453 -0.6490 -2.1139
 4502TIP3    H213513   2.765  -0.000   4.445  1.6300  0.8058  0.5998
 4503TIP3   OH213514   2.339   3.714   3.764 -0.0527 -0.4577 -0.0524
 4503TIP3    H113515   2.423   3.757   3.781  0.4599 -0.6339 -1.9034
 4503TIP3    H213516   2.287   3.730   3.843  1.6557 -0.2108  1.0685
 4504TIP3   OH213517   3.041   5.186   2.536 -0.2960 -0.0476  0.0840
 4504TIP3    H113518   3.070   5.277   2.526  0.5999 -0.3139  0.1096
 4504TIP3    H213519   2.975   5.189   2.605  1.5369  0.2602  1.9438
 4505TIP3   OH213520   6.128   5.321   4.329 -0.0245  0.2166  0.0584
 4505TIP3    H113521   6.186   5.245   4.332  1.4338  1.2803  2.4423
 4505TIP3    H213522   6.105   5.331   4.237  2.8483 -0.8588 -0.8703
 4506TIP3   OH213523   2.732   4.156   1.929  0.0653  0.1620  0.1292
 4506TIP3    H113524   2.732   4.217   1.856  1.1849 -0.7134 -0.6405
 4506TIP3    H213525   2.639   4.139   1.946 -0.2541 -0.6679 -2.0406
 4507TIP3   OH213526   3.418   0.751   1.056  0.0157  0.1298 -0.2220
 4507TIP3    H113527   3.369   0.831   1.074 -0.4182  0.0302 -0.9160
 4507TIP3    H213528   3.445   0.759   0.964  0.3533 -0.3147 -0.1674
 4508TIP3   OH213529   1.436   3.150   4.660 -0.3932 -0.5756 -0.1764
 4508TIP3    H113530   1.472   3.234   4.690 -0.5310 -0.7887  0.6042
 4508TIP3    H213531   1.494   3.123   4.589  0.4404 -0.4527  0.4415
 4509TIP3   OH213532   4.995   0.496   2.536  0.4294  0.1498 -0.2567
 4509TIP3    H113533   5.052   0.424   2.508  0.9913  0.1477  0.8168
 4509TIP3    H213534   4.941   0.457   2.605 -2.0041 -0.2725 -2.2824
 4510TIP3   OH213535   4.592   2.627   4.671  0.3821  1.0699  0.4955
 4510TIP3    H113536   4.589   2.614   4.576  0.0592  1.5753  0.4369
 4510TIP3    H213537   4.643   2.553   4.703  0.3914  0.8301 -0.0610
 4511TIP3   OH213538   1.720   5.327   0.966  0.0172 -0.1558 -0.4248
 4511TIP3    H113539   1.700   5.381   0.890  0.6937 -0.3013 -0.7142
 4511TIP3    H213540   1.643   5.334   1.022 -0.2982  0.3169 -0.9145
 4512TIP3   OH213541   2.945   2.909   2.649  0.4180  0.4134  0.2923
 4512TIP3    H113542   2.910   2.871   2.729  0.4672  1.2048  0.7061
 4512TIP3    H213543   2.936   2.840   2.583 -1.4716  0.4044  0.4976
 4513TIP3   OH213544   3.035   5.081   4.559 -0.1842  0.8572  0.4708
 4513TIP3    H113545   3.111   5.122   4.517  0.5532 -0.2392  0.6624
 4513TIP3    H213546   3.020   5.002   4.508  1.1729 -0.8847  2.5483
 4514TIP3   OH213547   2.554   2.853   4.710 -0.2152 -0.2896 -0.4110
 4514TIP3    H113548   2.499   2.931   4.699  0.4437  0.4494  1.2684
 4514TIP3    H213549   2.501   2.792   4.762  0.1011 -0.0423  0.2106
 4515TIP3   OH213550   0.089   5.486   1.613  0.5442  0.7205  0.1734
 4515TIP3    H113551   0.002   5.457   1.641  0.2676  0.6134 -0.7453
 4515TIP3    H213552   0.149   5.449   1.677  0.1440 -1.2958 -0.5695
 4516TIP3   OH213553   0.276   4.304   5.019 -0.1449 -0.6048  0.0182
 4516TIP3    H113554   0.298   4.393   4.991  1.8512 -0.9043  0.4898
 4516TIP3    H213555   0.182   4.297   5.006 -0.3394  1.5895  0.0262
 4517TIP3   OH213556   0.759   4.552   3.071  0.6259  0.1794 -0.0122
 4517TIP3    H113557   0.805   4.507   3.142 -0.1607  0.9722  1.0382
 4517TIP3    H213558   0.768   4.645   3.092 -3.2629  0.4102  1.5559
 4518TIP3   OH213559   2.420   2.960   1.402  0.8356 -0.6938  0.0676
 4518TIP3    H113560   2.447   2.900   1.472 -0.1750 -2.5752 -1.0544
 4518TIP3    H213561   2.334   2.928   1.376  0.0969  1.4983 -0.3990
 4519TIP3   OH213562   3.805   1.258   0.617  0.0479  0.9217 -0.2369
 4519TIP3    H113563   3.768   1.310   0.688  0.1539  0.0924  0.4429
 4519TIP3    H213564   3.737   1.194   0.596 -0.5200  1.9554 -1.7987
 4520TIP3   OH213565   0.411   4.249   0.629 -0.1684 -0.0051 -0.2452
 4520TIP3    H113566   0.401   4.302   0.550  0.9491  0.3056 -0.1857
 4520TIP3    H213567   0.505   4.245   0.644 -0.3886  0.8334  1.6727
 4521TIP3   OH213568   1.262   5.114   2.453 -0.5621  0.7476  0.5015
 4521TIP3    H113569   1.170   5.119   2.480 -0.7998 -2.3138  0.5480
 4521TIP3    H213570   1.259   5.081   2.363  0.4972  0.0000  0.7240
 4522TIP3   OH213571   2.242   1.901   1.417  0.2330  0.0499  0.0104
 4522TIP3    H113572   2.222   1.973   1.358  1.7509 -0.1284 -0.7626
 4522TIP3    H213573   2.293   1.839   1.364  1.4116 -0.2476  1.4068
 4523TIP3   OH213574   4.547   0.558   4.107  0.2366  0.3154 -0.3792
 4523TIP3    H113575   4.539   0.649   4.136 -2.3642 -0.9403  3.5144
 4523TIP3    H213576   4.606   0.517   4.170 -1.0465 -1.3464 -0.1809
 4524TIP3   OH213577   4.185   1.483   2.753 -0.2198  0.4905 -0.4211
 4524TIP3    H113578   4.184   1.399   2.799  0.6609 -0.8418 -2.6667
 4524TIP3    H213579   4.274   1.516   2.765 -0.8429  1.6893  1.3230
 4525TIP3   OH213580   0.538   5.773   3.767  0.3905  0.2415 -0.1423
 4525TIP3    H113581   0.513   5.778   3.675 -0.6902  0.4867  0.1412
 4525TIP3    H213582   0.517   5.684   3.794  1.3124 -0.0288 -0.2849
 4526TIP3   OH213583   4.903   4.560   4.408  0.4701  0.1797 -0.0400
 4526TIP3    H113584   4.937   4.475   4.432 -1.7536 -1.0267 -0.8316
 4526TIP3    H213585   4.881   4.552   4.315  0.7438  1.8077 -0.2809
 4527TIP3   OH213586   0.415   1.012   1.962  0.3963 -0.6679 -0.0443
 4527TIP3    H113587   0.453   1.010   1.875 -0.4159 -3.3064 -0.4171
 4527TIP3    H213588   0.322   1.033   1.948  0.0986 -1.8338  0.0725
 4528TIP3   OH213589   5.106   3.713   5.025 -0.2919  0.4148  0.1055
 4528TIP3    H113590   5.167   3.681   4.958 -1.0431  1.2078 -1.0100
 4528TIP3    H213591   5.052   3.638   5.047 -0.9265  0.4535 -1.2216
 4529TIP3   OH213592   4.345   5.906   2.376 -0.2887 -0.6745 -0.3684
 4529TIP3    H113593   4.341   5.982   2.318 -1.0530  0.0920  0.6563
 4529TIP3    H213594   4.421   5.857   2.346  2.0009  1.9529  0.6594
 4530TIP3   OH213595   0.639   4.000   0.202  0.6257  0.5765 -0.0976
 4530TIP3    H113596   0.652   4.090   0.232 -0.5276  1.2900 -1.5760
 4530TIP3    H213597   0.592   4.010   0.119  0.4661 -1.4029 -0.2785
 4531TIP3   OH213598   3.508   0.711   0.129  0.0993 -0.1400  0.1331
 4531TIP3    H113599   3.471   0.793   0.165  1.0121 -0.7187  2.6000
 4531TIP3    H213600   3.436   0.648   0.136 -0.9669  0.6004 -2.7909
 4532TIP3   OH213601   4.036   1.010   0.093  0.3100  0.3318  0.2649
 4532TIP3    H113602   4.045   1.101   0.062 -1.7038  0.4464 -0.1047
 4532TIP3    H213603   3.963   0.975   0.042 -0.0710 -0.9598  1.6470
 4533TIP3   OH213604   1.387   4.544   3.119 -0.4693 -0.3913 -0.2309
 4533TIP3    H113605   1.322   4.560   3.187 -0.9185  2.2380 -1.1467
 4533TIP3    H213606   1.471   4.543   3.166 -0.7172  1.9826  0.3805
 4534TIP3   OH213607   4.234   3.733   4.462  0.4714  0.2977 -0.0024
 4534TIP3    H113608   4.158   3.706   4.513 -0.2776 -0.3097 -1.3868
 4534TIP3    H213609   4.265   3.813   4.505  1.1576 -1.2815  2.6580
 4535TIP3   OH213610   0.574   4.506   5.008  0.0037 -0.2242  0.0663
 4535TIP3    H113611   0.489   4.535   5.043  0.9972 -0.0090  2.5535
 4535TIP3    H213612   0.591   4.424   5.055  1.2455 -0.1639 -0.2707
 4536TIP3   OH213613   4.498   5.259   0.341 -0.3289 -0.2484  0.0434
 4536TIP3    H113614   4.422   5.281   0.288  1.0388  1.2157 -1.4436
 4536TIP3    H213615   4.491   5.165   0.357 -2.2454 -0.2004 -0.3081
 4537TIP3   OH213616   6.211   0.866   4.095 -0.1794 -0.0623 -0.5992
 4537TIP3    H113617   6.270   0.837   4.026 -0.6010  1.4314 -1.6592
 4537TIP3    H213618   6.169   0.945   4.058 -1.3532  0.0453  0.8766
 4538TIP3   OH213619   4.279   3.225   3.685 -0.0156 -0.7206 -0.1784
 4538TIP3    H113620   4.244   3.155   3.629 -2.1189 -1.0105  1.3746
 4538TIP3    H213621   4.248   3.306   3.644 -1.3393 -0.9201  0.3896
 4539TIP3   OH213622   5.837   3.704   1.932  0.4273 -0.6999 -0.1776
 4539TIP3    H113623   5.788   3.622   1.940  1.6398 -1.4120  0.2533
 4539TIP3    H213624   5.833   3.725   1.839  0.4153 -1.4618 -0.3579
 4540TIP3   OH213625   5.627   4.328   3.010 -0.1150  0.1680  0.1662
 4540TIP3    H113626   5.669   4.307   3.093  0.7300  0.8623 -0.0627
 4540TIP3    H213627   5.586   4.246   2.982  0.3534 -0.3048  0.8234
 4541TIP3   OH213628   2.287   1.975   1.677 -0.2621 -0.3967 -0.1628
 4541TIP3    H113629   2.248   1.930   1.603 -0.8906 -1.6321  0.8781
 4541TIP3    H213630   2.268   1.919   1.753  0.2872  0.8517  0.9521
 4542TIP3   OH213631   3.502   1.183   2.370 -0.4991 -0.0198  0.6042
 4542TIP3    H113632   3.475   1.093   2.349 -2.3059  0.3143  1.2926
 4542TIP3    H213633   3.435   1.238   2.329  0.3049  1.0084  0.6243
 4543TIP3   OH213634   2.182   2.923   4.625 -0.0581 -0.1804  0.2487
 4543TIP3    H113635   2.263   2.965   4.652 -0.5483  0.7603  0.3152
 4543TIP3    H213636   2.200   2.830   4.629  0.7758  0.0031  1.0056
 4544TIP3   OH213637   1.855   2.308   1.454  0.5234  0.1556  0.3828
 4544TIP3    H113638   1.782   2.319   1.515 -0.8303 -1.8609 -0.7236
 4544TIP3    H213639   1.866   2.394   1.413 -3.3055 -0.0460 -1.5394
 4545TIP3   OH213640   3.326   1.063   5.134  0.2621  0.2490  0.8194
 4545TIP3    H113641   3.383   1.125   5.090  0.2901  0.7006  1.4846
 4545TIP3    H213642   3.239   1.081   5.099  0.2702  0.6643  1.0117
 4546TIP3   OH213643   5.118   4.126   0.863  0.2635 -0.4068 -0.0226
 4546TIP3    H113644   5.199   4.100   0.819  0.1461 -1.8989  0.5988
 4546TIP3    H213645   5.062   4.049   0.859 -2.1844  1.3070 -2.6531
 4547TIP3   OH213646   2.709   5.909   4.242  0.1175  0.1477  0.5682
 4547TIP3    H113647   2.789   5.899   4.190  0.1197  1.5313  0.2605
 4547TIP3    H213648   2.720   5.847   4.314  0.2770 -1.5732 -0.8588
 4548TIP3   OH213649   4.579   4.235   4.234  0.3774 -0.3353 -0.0162
 4548TIP3    H113650   4.590   4.311   4.291 -0.8006  0.4928 -0.8443
 4548TIP3    H213651   4.485   4.230   4.218  0.4543 -1.8579 -0.1485
 4549TIP3   OH213652   0.043   4.482   4.173  0.1272 -0.5225  0.4527
 4549TIP3    H113653   0.100   4.546   4.128 -1.1818  0.0381 -0.4816
 4549TIP3    H213654  -0.022   4.536   4.218 -2.3436 -1.0907 -2.1103
 4550TIP3   OH213655   5.630   0.165   3.743 -0.1751  0.0778  0.5558
 4550TIP3    H113656   5.708   0.156   3.689  0.1122 -0.4358  1.0369
 4550TIP3    H213657   5.660   0.140   3.831 -1.6466 -3.7591  0.1786
 4551TIP3   OH213658   2.225   5.273   2.718  0.1843 -0.0350  0.4903
 4551TIP3    H113659   2.262   5.340   2.660  0.2282 -0.2846  0.2295
 4551TIP3    H213660   2.285   5.199   2.710  0.1287 -0.1121  0.7699
 4552TIP3   OH213661   4.879   1.034   2.660 -0.1449 -0.3523 -0.4753
 4552TIP3    H113662   4.901   0.941   2.656 -0.4789 -0.4942  0.5381
 4552TIP3    H213663   4.945   1.072   2.717  0.3865  0.1742 -1.4164
 4553TIP3   OH213664   5.933   1.435   1.596 -0.0794 -0.1502  0.1165
 4553TIP3    H113665   5.967   1.360   1.548 -0.7732 -2.0628  2.3717
 4553TIP3    H213666   5.990   1.508   1.572 -0.3935 -0.9199 -3.4668
 4554TIP3   OH213667   1.284   3.943   1.009 -0.3277 -0.6627  0.5135
 4554TIP3    H113668   1.270   3.912   0.919  1.8737 -0.9157  0.2129
 4554TIP3    H213669   1.250   3.873   1.064 -0.0869 -1.3086 -0.1429
 4555TIP3   OH213670   4.449   4.014  -0.000 -0.3861  0.5679  0.0223
 4555TIP3    H113671   4.420   4.045   0.086  0.5020  0.7902  0.2441
 4555TIP3    H213672   4.462   4.093  -0.051  1.0858  0.5497  0.3333
 4556TIP3   OH213673   3.526   2.909   1.791  0.9677 -0.3426 -0.5927
 4556TIP3    H113674   3.524   2.973   1.863  1.8595  0.0067 -0.8656
 4556TIP3    H213675   3.554   2.827   1.833  1.5573 -0.1229 -0.5509
 4557TIP3   OH213676   3.773   5.345   3.438  0.0651 -0.0002  0.4794
 4557TIP3    H113677   3.852   5.293   3.423  0.0446 -0.0996  0.7111
 4557TIP3    H213678   3.702   5.289   3.405  0.3204  1.3274 -2.6978
 4558TIP3   OH213679   6.071   1.769   2.953  0.3964  0.1622 -0.0774
 4558TIP3    H113680   6.136   1.729   3.011 -0.7821 -0.1218  1.0878
 4558TIP3    H213681   5.992   1.775   3.006 -0.6903  0.0114 -1.6150
 4559TIP3   OH213682   1.938   3.911   1.152  0.1330 -0.3446  0.0941
 4559TIP3    H113683   1.853   3.884   1.117  0.0544 -1.1011  0.8314
 4559TIP3    H213684   2.002   3.881   1.088 -0.1867  1.1374 -0.9944
 4560TIP3   OH213685   2.038   3.293   2.843 -0.2261  0.3041  0.6562
 4560TIP3    H113686   2.076   3.361   2.787 -0.1661  0.4445  0.8677
 4560TIP3    H213687   2.107   3.272   2.906  0.1407 -0.7099 -0.0574
 4561TIP3   OH213688   1.946   1.808   4.526 -0.5841 -0.2300  0.5859
 4561TIP3    H113689   1.874   1.788   4.467  0.8616 -2.1942 -0.6367
 4561TIP3    H213690   2.005   1.863   4.475  0.6309 -1.8648  0.1209
 4562TIP3   OH213691   5.790   5.372   0.464  0.4420 -0.4330 -0.6196
 4562TIP3    H113692   5.705   5.332   0.484  0.6659 -0.0446  1.2448
 4562TIP3    H213693   5.848   5.298   0.448 -0.0247 -0.7298 -0.9689
 4563TIP3   OH213694   2.856   5.657   2.708  0.2365 -0.2309  0.1493
 4563TIP3    H113695   2.914   5.586   2.737  1.1246  0.9267  1.3185
 4563TIP3    H213696   2.907   5.737   2.722 -1.9300  0.9220  2.1000
 4564TIP3   OH213697   5.341   4.156   0.433  0.0518 -0.2451  0.3142
 4564TIP3    H113698   5.265   4.123   0.480 -0.4540  0.6118  0.1287
 4564TIP3    H213699   5.309   4.234   0.387  0.7505 -0.5643 -0.7477
 4565TIP3   OH213700   3.988   3.515   4.264  0.2123 -0.6356 -0.2873
 4565TIP3    H113701   3.953   3.427   4.249  2.2485 -1.8784  1.6675
 4565TIP3    H213702   3.930   3.552   4.331  0.0713 -0.9648 -0.2248
 4566TIP3   OH213703   2.641   2.053   1.274  0.0348  0.0488 -0.4505
 4566TIP3    H113704   2.577   2.079   1.340  0.3493 -1.5759  0.5550
 4566TIP3    H213705   2.691   1.982   1.315  1.4506  0.2145 -1.7795
 4567TIP3   OH213706   1.644   5.749   1.662 -0.2274 -0.0892 -0.3683
 4567TIP3    H113707   1.661   5.678   1.723  0.8939  1.0296  0.6682
 4567TIP3    H213708   1.625   5.706   1.579 -2.6443 -1.6892  0.9087
 4568TIP3   OH213709   4.736   4.701   3.792  0.7134  0.4901  0.8855
 4568TIP3    H113710   4.731   4.772   3.857  1.5113  1.3027  0.0902
 4568TIP3    H213711   4.687   4.734   3.717  0.2991 -0.2043  0.8414
 4569TIP3   OH213712   0.554   1.157   2.645  0.0248  0.0165 -0.0816
 4569TIP3    H113713   0.541   1.075   2.598  0.7137 -1.3569  2.0198
 4569TIP3    H213714   0.508   1.222   2.592 -0.9012 -1.7725 -1.5820
 4570TIP3   OH213715   4.394   0.759   3.407 -0.5804 -0.5088 -0.3508
 4570TIP3    H113716   4.429   0.775   3.495  2.5719 -0.4972 -1.4807
 4570TIP3    H213717   4.309   0.718   3.422 -0.3608 -0.0817  2.6736
 4571TIP3   OH213718   4.740   3.309   2.496 -0.0058 -0.1460  0.0507
 4571TIP3    H113719   4.679   3.266   2.436  1.4621 -0.5305 -1.2392
 4571TIP3    H213720   4.802   3.354   2.439  0.9491  0.1871  1.3011
 4572TIP3   OH213721   2.226   1.785   0.977 -0.3843  0.2147  0.4447
 4572TIP3    H113722   2.148   1.806   0.926 -0.3888 -1.8344 -0.4681
 4572TIP3    H213723   2.226   1.690   0.985  2.2499  0.0841 -0.0054
 4573TIP3   OH213724   4.002   4.598   3.783 -0.0564  0.0958  0.1317
 4573TIP3    H113725   3.919   4.630   3.817  0.0471  0.0826  0.4017
 4573TIP3    H213726   3.997   4.503   3.792 -0.5458 -0.0134 -1.0868
 4574TIP3   OH213727   0.545   3.824   5.119 -0.4465  0.5525 -0.3526
 4574TIP3    H113728   0.566   3.916   5.099  0.6690  0.4045  0.0801
 4574TIP3    H213729   0.601   3.802   5.193  1.0455 -1.1887 -1.9217
 4575TIP3   OH213730   4.990   2.488   3.260  0.3713 -0.4920 -0.4399
 4575TIP3    H113731   5.057   2.427   3.229  1.1734 -0.4049  1.0571
 4575TIP3    H213732   4.947   2.441   3.332 -0.0008  0.1365 -0.2475
 4576TIP3   OH213733   1.340   5.885   4.477  0.2708 -0.3712 -0.4049
 4576TIP3    H113734   1.258   5.861   4.435 -2.4845  3.0860  2.3841
 4576TIP3    H213735   1.370   5.805   4.520 -1.7517 -1.6690 -1.2854
 4577TIP3   OH213736   1.460   3.216   4.360 -0.5596 -0.3880 -0.0843
 4577TIP3    H113737   1.484   3.136   4.314  0.0257  0.4856 -1.3515
 4577TIP3    H213738   1.369   3.232   4.334 -0.4661 -0.2994 -0.3681
 4578TIP3   OH213739   3.332   1.837   3.104  0.4489  0.1417 -0.0947
 4578TIP3    H113740   3.377   1.881   3.176 -0.5158  0.1699  0.5180
 4578TIP3    H213741   3.380   1.862   3.026  1.3842  0.2947  0.5219
 4579TIP3   OH213742   1.945   2.282   1.039  0.0977  0.5738 -0.6543
 4579TIP3    H113743   1.998   2.202   1.032 -1.0974 -0.3368  0.1570
 4579TIP3    H213744   1.855   2.250   1.043 -0.4375  2.0059 -0.7475
 4580TIP3   OH213745   0.745   5.848   4.107 -0.3829  0.1656 -0.2032
 4580TIP3    H113746   0.834   5.819   4.090 -0.5552  0.1853 -1.1849
 4580TIP3    H213747   0.725   5.909   4.036 -1.9439 -1.5195 -1.3245
 4581TIP3   OH213748   2.573   5.772  -0.020 -0.2119  0.1075 -0.0855
 4581TIP3    H113749   2.552   5.691   0.026  0.5353 -0.6491 -1.0463
 4581TIP3    H213750   2.656   5.800   0.017 -0.6931  0.7230  0.5817
 4582TIP3   OH213751   4.327   2.516   3.976 -0.4903  0.1900  0.6169
 4582TIP3    H113752   4.234   2.512   3.955 -0.6061  0.0713  1.1359
 4582TIP3    H213753   4.363   2.437   3.935 -0.3757  0.8664 -0.6648
 4583TIP3   OH213754   2.865   5.767   3.977 -0.4365 -0.1985  0.1460
 4583TIP3    H113755   2.849   5.831   3.907 -0.2454  0.2060  0.4696
 4583TIP3    H213756   2.786   5.714   3.979 -0.3705 -0.3316 -0.5025
 4584TIP3   OH213757   4.272   0.704   1.139 -0.6273 -0.3009  0.2771
 4584TIP3    H113758   4.322   0.660   1.070 -1.0758 -1.3070  0.5688
 4584TIP3    H213759   4.323   0.783   1.160  0.0175 -0.4978 -0.5091
 4585TIP3   OH213760   4.676   5.203   3.060  0.0495 -0.1093  0.0104
 4585TIP3    H113761   4.703   5.155   2.981  0.0433  0.7837 -0.5467
 4585TIP3    H213762   4.749   5.263   3.077 -1.2809  1.9472 -1.1799
 4586TIP3   OH213763   2.038   3.025   2.289  0.9253 -1.0215 -0.0550
 4586TIP3    H113764   2.062   2.958   2.353  3.4033  0.7814  1.0535
 4586TIP3    H213765   2.045   3.108   2.337  0.2490  0.2067 -1.9736
 4587TIP3   OH213766   4.001   2.242   0.053 -0.3783  0.6181 -0.1406
 4587TIP3    H113767   3.945   2.297   0.108 -0.4861 -1.3464  1.8761
 4587TIP3    H213768   3.970   2.257  -0.036 -1.7149  2.2472  0.5481
 4588TIP3   OH213769   2.840   2.932   0.955  0.4273  0.4474  0.2430
 4588TIP3    H113770   2.818   2.924   0.862 -1.4388 -0.7203  0.7240
 4588TIP3    H213771   2.841   3.026   0.972 -0.6787  0.6373 -0.6649
 4589TIP3   OH213772   1.023   2.936   3.617  0.5654 -0.0749 -0.8538
 4589TIP3    H113773   0.968   3.010   3.589 -0.0561  0.0155  0.5319
 4589TIP3    H213774   0.999   2.865   3.558  0.0711  0.4091 -1.2420
 4590TIP3   OH213775   5.083   0.532   2.040 -0.3479  0.3271  0.0694
 4590TIP3    H113776   5.013   0.530   1.975  0.2743 -1.3485 -0.5905
 4590TIP3    H213777   5.161   0.555   1.990  0.1181 -0.8643  0.2138
 4591TIP3   OH213778   1.183   4.800   3.052 -0.5716  0.0943 -0.1398
 4591TIP3    H113779   1.220   4.760   3.130 -0.7714 -2.0063 -1.0603
 4591TIP3    H213780   1.088   4.788   3.061 -0.6722  0.7865 -0.2268
 4592TIP3   OH213781   5.200   4.052   3.378 -0.4489  0.7263  0.1758
 4592TIP3    H113782   5.120   3.999   3.374 -0.8394  1.3301 -0.2687
 4592TIP3    H213783   5.177   4.133   3.331 -0.0110  1.4832  1.2360
 4593TIP3   OH213784   4.437   1.264   0.598 -0.0379 -0.2452  0.1811
 4593TIP3    H113785   4.409   1.289   0.686  0.3190  1.0470 -0.0470
 4593TIP3    H213786   4.402   1.176   0.586 -0.0008 -0.4831  1.6449
 4594TIP3   OH213787   5.129   1.260   0.501 -0.1458  0.0703 -0.4539
 4594TIP3    H113788   5.168   1.174   0.522 -0.3661  0.1037  0.1040
 4594TIP3    H213789   5.090   1.248   0.414 -0.0964 -0.3694 -0.4184
 4595TIP3   OH213790   0.262   0.732   2.450 -0.0138  0.3748  0.2417
 4595TIP3    H113791   0.271   0.644   2.414  1.2810  1.4210 -2.2529
 4595TIP3    H213792   0.213   0.720   2.532 -2.2157 -2.3441 -1.3098
 4596TIP3   OH213793   4.861   3.718   3.024  0.5189 -0.0885 -0.2566
 4596TIP3    H113794   4.775   3.757   3.010 -0.5633 -2.9165 -2.5025
 4596TIP3    H213795   4.900   3.715   2.936  0.6681 -3.4953 -0.1985
 4597TIP3   OH213796   1.891   0.655   3.050  0.1289 -0.2056  0.2627
 4597TIP3    H113797   1.898   0.665   2.955  0.5504  0.0858  0.3244
 4597TIP3    H213798   1.844   0.733   3.079 -0.3644 -0.4894  0.2541
 4598TIP3   OH213799   2.018   0.517   3.266  0.4700 -0.4909 -0.5775
 4598TIP3    H113800   2.052   0.450   3.207 -0.4488 -0.4982 -1.1062
 4598TIP3    H213801   1.961   0.571   3.212 -2.3490 -1.9431  0.7750
 4599TIP3   OH213802   2.164   0.267   1.636 -0.2828  0.0806 -0.1752
 4599TIP3    H113803   2.132   0.353   1.662  0.1809 -0.2109  1.4719
 4599TIP3    H213804   2.093   0.207   1.660  0.1259 -0.1933  0.3452
 4600TIP3   OH213805   1.723   5.440   2.518  0.1937  0.0741 -0.1352
 4600TIP3    H113806   1.634   5.413   2.542 -0.8722  2.6670 -0.8356
 4600TIP3    H213807   1.741   5.516   2.573  0.6741  1.5028 -2.1437
 4601TIP3   OH213808   5.978   1.154   1.582  0.7141  0.1716 -0.2941
 4601TIP3    H113809   6.010   1.182   1.668 -0.1850  0.0486  0.0956
 4601TIP3    H213810   5.990   1.059   1.583 -0.1877  0.0486  0.0960
 4602TIP3   OH213811   2.083   2.996   0.819  0.2115  0.3241 -0.3939
 4602TIP3    H113812   2.061   2.996   0.912 -0.0112 -1.4865 -0.4086
 4602TIP3    H213813   2.148   3.066   0.809 -0.5524  1.2695  0.8961
 4603TIP3   OH213814   5.674   0.879   1.313 -0.0807 -0.5529  0.6064
 4603TIP3    H113815   5.695   0.951   1.373  0.7319  0.0900 -0.4067
 4603TIP3    H213816   5.579   0.870   1.318 -0.1138  0.1091  1.2905
 4604TIP3   OH213817   6.024   5.055   1.438  0.0437  0.4994  0.1013
 4604TIP3    H113818   5.931   5.059   1.462 -0.2303 -0.6181 -0.6827
 4604TIP3    H213819   6.032   4.975   1.386  1.7716 -0.2766  1.4793
 4605TIP3   OH213820   1.734   4.441   1.101  0.9166  0.0295 -0.2770
 4605TIP3    H113821   1.822   4.446   1.139  0.4866  1.0559  0.6764
 4605TIP3    H213822   1.748   4.435   1.007  2.0203 -1.5032 -0.0519
 4606TIP3   OH213823   6.017   2.442   3.991  0.1950  0.4660  0.1272
 4606TIP3    H113824   6.093   2.476   3.944  0.5758 -1.4047 -0.6706
 4606TIP3    H213825   6.032   2.469   4.082  0.2144  2.7962 -0.5108
 4607TIP3   OH213826   1.668   0.133   3.855 -1.0363 -0.4395  0.1921
 4607TIP3    H113827   1.639   0.209   3.804  1.3309  0.4547  0.0480
 4607TIP3    H213828   1.686   0.066   3.790 -1.0622 -0.3858  0.1292
 4608TIP3   OH213829   1.280   5.657   3.335  0.4462  0.0984 -0.2671
 4608TIP3    H113830   1.252   5.566   3.324  0.7232 -0.2507  1.5155
 4608TIP3    H213831   1.200   5.708   3.326  0.0902 -0.4362 -0.2068
 4609TIP3   OH213832   5.265   5.164  -0.011  0.6471 -0.3219  0.1973
 4609TIP3    H113833   5.361   5.169  -0.012  0.7514 -1.7284 -1.1115
 4609TIP3    H213834   5.245   5.105   0.062  0.8006 -0.2269  0.3153
 4610TIP3   OH213835   1.750   5.597   2.231 -0.4383  0.3829  0.8192
 4610TIP3    H113836   1.803   5.526   2.266  0.1122  0.4108  0.0461
 4610TIP3    H213837   1.723   5.646   2.309 -0.6579 -0.5395  1.3433
 4611TIP3   OH213838   1.680   5.902   4.616 -0.3108 -0.0225 -0.0293
 4611TIP3    H113839   1.734   5.869   4.687  1.1564  1.6572 -0.2944
 4611TIP3    H213840   1.623   5.967   4.657 -1.7112 -1.2830  0.1212
 4612TIP3   OH213841   5.667   1.525   4.370 -0.2542 -0.7587 -0.4343
 4612TIP3    H113842   5.715   1.497   4.291 -0.8181 -0.6857 -0.8073
 4612TIP3    H213843   5.736   1.553   4.430  0.1333  0.2837 -1.3302
 4613TIP3   OH213844   2.108   0.313   3.143 -0.3203 -0.4085  0.5193
 4613TIP3    H113845   2.194   0.311   3.186 -1.5622  1.7962  3.4136
 4613TIP3    H213846   2.129   0.324   3.050  2.5407 -0.1369  1.0933
 4614TIP3   OH213847   5.252   0.145   2.138  0.2071 -0.0662  0.6995
 4614TIP3    H113848   5.255   0.105   2.051  0.2347  2.2515 -0.4391
 4614TIP3    H213849   5.309   0.090   2.192  1.6255 -0.5569 -1.2051
 4615TIP3   OH213850   1.619   5.411   2.086  0.4981  0.0974  0.3078
 4615TIP3    H113851   1.642   5.495   2.126 -1.3209  0.5417  0.5030
 4615TIP3    H213852   1.561   5.370   2.150 -1.8125  0.4580 -1.4262
 4616TIP3   OH213853   4.680   5.176   0.548 -0.2752  0.3916  0.1716
 4616TIP3    H113854   4.612   5.243   0.538 -1.5097 -0.4257  2.3771
 4616TIP3    H213855   4.650   5.104   0.493 -0.7807  0.3666  0.4652
 4617TIP3   OH213856   0.317   4.615   5.056  0.1984  0.5819  0.0656
 4617TIP3    H113857   0.238   4.595   5.108  1.2739 -1.9794  0.8737
 4617TIP3    H213858   0.355   4.691   5.100 -0.1446 -0.1259  1.6571
 4618TIP3   OH213859   4.667   2.571   4.415  0.2650 -0.0215 -0.2533
 4618TIP3    H113860   4.754   2.611   4.406  0.0052  0.6966  0.3956
 4618TIP3    H213861   4.647   2.540   4.326  1.7601 -1.4361 -0.1494
 4619TIP3   OH213862   3.038   0.587   1.180  0.1230 -0.2289  0.3668
 4619TIP3    H113863   2.951   0.560   1.151  0.7004 -1.2457 -0.5006
 4619TIP3    H213864   3.041   0.681   1.162 -0.5569 -0.3165 -0.2616
 4620TIP3   OH213865   2.402   2.474   2.276 -0.1654  0.0800 -0.0379
 4620TIP3    H113866   2.410   2.568   2.289 -0.5279 -0.2208  2.8586
 4620TIP3    H213867   2.492   2.442   2.274 -0.0609  0.3868 -0.2917
 4621TIP3   OH213868   6.068   5.808   1.897 -0.7348 -0.2484  0.1992
 4621TIP3    H113869   6.074   5.713   1.897  1.3171 -0.1708  0.6003
 4621TIP3    H213870   6.013   5.829   1.821 -0.5414 -1.7212 -0.3772
 4622TIP3   OH213871   2.417   4.973   4.479  0.0291 -0.3841  0.3403
 4622TIP3    H113872   2.380   4.954   4.393 -0.9441 -2.1960  1.1076
 4622TIP3    H213873   2.383   5.060   4.501  1.5510  0.8133 -1.7173
 4623TIP3   OH213874   4.882   2.570   4.971  0.5990 -0.2264 -0.3083
 4623TIP3    H113875   4.927   2.653   4.987  1.9486 -0.7642 -1.1485
 4623TIP3    H213876   4.952   2.508   4.955 -0.4312 -1.3313 -0.6416
 4624TIP3   OH213877   0.224   2.946   3.693 -0.1406  0.0232  0.3416
 4624TIP3    H113878   0.298   2.982   3.743  1.4800 -0.2179 -1.7394
 4624TIP3    H213879   0.196   3.018   3.636  1.1251 -0.9835 -1.6641
 4625TIP3   OH213880   3.073   3.139   1.443 -0.5782  0.3669  0.7822
 4625TIP3    H113881   3.019   3.218   1.450  2.3179  2.5521  0.4688
 4625TIP3    H213882   3.157   3.171   1.410  0.7221 -2.9191  0.5683
 4626TIP3   OH213883   4.435   4.033   1.753 -0.1750  0.4265  0.2497
 4626TIP3    H113884   4.411   4.087   1.678 -0.3164  0.2343  0.1537
 4626TIP3    H213885   4.526   4.009   1.737 -0.1801  0.4531  0.1812
 4627TIP3   OH213886   2.819   5.869   2.273  0.9675  0.4742 -0.0569
 4627TIP3    H113887   2.831   5.921   2.353  3.5693  0.6428 -0.4644
 4627TIP3    H213888   2.751   5.916   2.225 -0.0327  0.8601  1.6468
 4628TIP3   OH213889   3.745   0.386   3.396  0.2070  0.0521  0.0048
 4628TIP3    H113890   3.774   0.325   3.464  1.5499  0.6297 -0.0088
 4628TIP3    H213891   3.733   0.331   3.318  0.1947 -0.3812  0.3092
 4629TIP3   OH213892   0.873   0.945   4.601  0.0929 -0.2466  0.0956
 4629TIP3    H113893   0.839   1.025   4.640 -1.7890 -0.9273 -0.0140
 4629TIP3    H213894   0.889   0.887   4.675  1.5944  0.2344  0.1865
 4630TIP3   OH213895   2.208   2.865   1.649 -0.0586 -0.3505 -0.4439
 4630TIP3    H113896   2.181   2.897   1.563 -1.8159 -0.7249 -0.0578
 4630TIP3    H213897   2.152   2.910   1.711  1.0384 -0.2585  0.5136
 4631TIP3   OH213898   1.350   4.898   1.326 -0.1347  0.6467 -0.1282
 4631TIP3    H113899   1.319   4.811   1.349 -1.5303  1.3348  0.7241
 4631TIP3    H213900   1.337   4.950   1.406  2.8490  1.1254  0.1740
 4632TIP3   OH213901   1.130   4.507   0.695  0.0415  0.0863  0.0656
 4632TIP3    H113902   1.160   4.495   0.605 -0.9908 -0.6120 -0.2083
 4632TIP3    H213903   1.186   4.576   0.730  0.9234 -0.1118 -0.8846
 4633TIP3   OH213904   3.712   0.264   5.097 -0.1602 -0.0344  0.1067
 4633TIP3    H113905   3.763   0.341   5.073 -0.5705 -0.6993 -3.4577
 4633TIP3    H213906   3.777   0.198   5.121  0.2860  0.7328  1.0908
 4634TIP3   OH213907   4.418   2.373   4.603  0.7305 -0.5905  0.5082
 4634TIP3    H113908   4.457   2.418   4.678  1.7531 -0.8486  0.1407
 4634TIP3    H213909   4.373   2.298   4.642  0.0755  0.0319  0.9902
 4635TIP3   OH213910   5.353   3.879   4.939 -0.3626  0.2259  0.4703
 4635TIP3    H113911   5.314   3.907   5.022 -0.3726  0.2571  0.4554
 4635TIP3    H213912   5.426   3.823   4.965  0.5614  1.4096  0.5423
 4636TIP3   OH213913   0.929   4.901   1.119  0.6284  0.8772 -0.3393
 4636TIP3    H113914   0.935   4.806   1.125  1.1540  0.9899  2.9701
 4636TIP3    H213915   0.836   4.920   1.106  0.4735 -0.0827 -0.6354
 4637TIP3   OH213916   3.333   5.088   2.492  0.3326 -0.3826  0.0836
 4637TIP3    H113917   3.248   5.114   2.527  1.0523 -1.5915  2.9929
 4637TIP3    H213918   3.313   5.034   2.416 -1.3854  0.8611 -0.4135
 4638TIP3   OH213919   2.404   3.655   1.023 -0.5042  0.0840 -0.1382
 4638TIP3    H113920   2.348   3.579   1.038 -0.2392 -0.0683  0.0938
 4638TIP3    H213921   2.432   3.646   0.932 -0.5872 -0.0196 -0.1540
 4639TIP3   OH213922   1.686   5.994   2.985 -0.1428  0.3692 -0.0854
 4639TIP3    H113923   1.776   5.981   2.954  0.9722  2.4732  1.9930
 4639TIP3    H213924   1.635   5.929   2.937  2.5122 -1.0912 -1.1466
 4640TIP3   OH213925   2.391   4.021   4.127 -0.0366  0.4458  1.0706
 4640TIP3    H113926   2.337   3.951   4.091  1.1830  0.3252 -0.6524
 4640TIP3    H213927   2.386   4.010   4.222 -2.0156 -0.2938  0.9225
 4641TIP3   OH213928   2.009   0.557   0.427 -0.0737 -0.0154 -0.4634
 4641TIP3    H113929   1.993   0.530   0.518  0.9367 -1.8263 -0.7593
 4641TIP3    H213930   1.929   0.532   0.381 -0.4186  0.5057 -0.1596
 4642TIP3   OH213931   3.872   3.858   3.255  0.5177  0.5531 -0.0587
 4642TIP3    H113932   3.954   3.879   3.299  0.4547  2.1728 -0.6475
 4642TIP3    H213933   3.855   3.933   3.198 -1.0031 -0.0785 -0.5009
 4643TIP3   OH213934   4.371   2.500   4.931 -0.2983 -0.3053  0.8771
 4643TIP3    H113935   4.368   2.449   5.012 -1.1491 -0.9609  0.4475
 4643TIP3    H213936   4.280   2.521   4.912 -0.0786  0.1157  0.2612
 4644TIP3   OH213937   1.920   0.985   3.163  0.2270 -0.2636  0.0285
 4644TIP3    H113938   1.827   0.997   3.142  0.1825  0.3055  0.4974
 4644TIP3    H213939   1.922   0.983   3.259  0.4841 -2.2415  0.0168
 4645TIP3   OH213940   2.509   2.970   0.800  0.0275 -0.2311 -0.4861
 4645TIP3    H113941   2.460   2.997   0.723 -2.1269 -1.4424  0.3751
 4645TIP3    H213942   2.557   2.892   0.772 -0.5787 -0.5428 -0.6654
 4646TIP3   OH213943   0.993   2.355   4.071  0.4452 -0.5859 -0.1868
 4646TIP3    H113944   0.978   2.429   4.012 -0.6265 -0.6931 -0.0711
 4646TIP3    H213945   1.041   2.392   4.145 -0.4566  0.1035  0.0731
 4647TIP3   OH213946   3.196   2.021   3.739 -0.2440 -0.5239  0.2631
 4647TIP3    H113947   3.130   2.038   3.672 -0.6868 -1.9109  0.3226
 4647TIP3    H213948   3.189   2.095   3.799  0.3085  0.8751 -1.2951
 4648TIP3   OH213949   4.359   5.228   2.207 -0.0379  0.0197  0.2349
 4648TIP3    H113950   4.362   5.134   2.186  1.3754  0.3461 -1.2554
 4648TIP3    H213951   4.439   5.244   2.257 -0.5860  0.3246  1.0238
 4649TIP3   OH213952   3.857   3.884   1.312 -0.3072  0.4939  0.4721
 4649TIP3    H113953   3.941   3.851   1.282 -0.3105  0.6352  0.3045
 4649TIP3    H213954   3.849   3.970   1.271 -0.2006  0.7994  1.0783
 4650TIP3   OH213955   2.771   1.997   3.379  0.1761  0.0994 -0.1000
 4650TIP3    H113956   2.788   1.954   3.296  1.1701  0.7421 -0.2517
 4650TIP3    H213957   2.732   2.081   3.355 -1.9348 -0.7340  0.1984
 4651TIP3   OH213958   0.549   5.003   3.049 -0.6807  0.1382  0.1907
 4651TIP3    H113959   0.527   4.922   3.095 -1.9884 -1.4873 -2.9395
 4651TIP3    H213960   0.489   5.068   3.086 -2.1189 -1.2336  0.3987
 4652TIP3   OH213961   1.009   5.834   5.179 -0.2526  0.1703  0.2183
 4652TIP3    H113962   1.011   5.930   5.170  0.1251  0.0913 -0.6495
 4652TIP3    H213963   0.916   5.812   5.171 -0.2013  0.3459 -1.1699
 4653TIP3   OH213964   5.005   4.832   1.792  0.1949  0.4551 -0.2164
 4653TIP3    H113965   4.991   4.920   1.828  0.2859  1.3440 -2.2407
 4653TIP3    H213966   4.929   4.782   1.823 -0.1574  1.3969  0.5047
 4654TIP3   OH213967   3.300   0.068   1.955 -0.3722 -0.3967  0.2367
 4654TIP3    H113968   3.366   0.117   2.003 -1.4027  2.8862 -1.3679
 4654TIP3    H213969   3.345   0.040   1.875 -0.5499  0.7427 -0.2802
 4655TIP3   OH213970   1.707   3.144   0.158 -0.4415 -0.1821  0.0176
 4655TIP3    H113971   1.692   3.239   0.150  0.8371  0.2586  2.1653
 4655TIP3    H213972   1.728   3.116   0.069 -1.3617  1.4446 -0.7591
 4656TIP3   OH213973   1.753   0.762   1.024  0.4555 -0.0975 -0.3162
 4656TIP3    H113974   1.813   0.690   1.042  0.4362  0.0758  0.4795
 4656TIP3    H213975   1.796   0.839   1.062 -0.0589  0.1043 -0.1398
 4657TIP3   OH213976   4.537   3.472   4.782 -0.4494  0.4665  0.5684
 4657TIP3    H113977   4.474   3.487   4.711 -1.2946 -0.2269  1.1634
 4657TIP3    H213978   4.605   3.417   4.743  0.2035  1.8043 -0.2815
 4658TIP3   OH213979   4.884   4.617   2.708  0.0162  0.5162 -0.3321
 4658TIP3    H113980   4.882   4.596   2.614 -2.7784 -0.2919 -0.1674
 4658TIP3    H213981   4.795   4.646   2.728 -0.0024 -1.0980  2.4195
 4659TIP3   OH213982   5.157   5.419   4.205 -0.3857  0.2364 -0.0549
 4659TIP3    H113983   5.126   5.417   4.295 -0.2035  0.5200  0.0145
 4659TIP3    H213984   5.207   5.338   4.195 -3.0105 -1.4174 -0.8593
 4660TIP3   OH213985   5.388   2.209   3.468 -0.0439  0.2895  0.2918
 4660TIP3    H113986   5.481   2.226   3.456 -0.1250  0.8855  0.4956
 4660TIP3    H213987   5.385   2.133   3.526  0.3201  1.3614  1.7792
 4661TIP3   OH213988   0.051   5.173   3.480  0.2868  0.1846  0.1332
 4661TIP3    H113989   0.038   5.153   3.573  0.3506  1.1814  0.3730
 4661TIP3    H213990  -0.026   5.136   3.436  1.2373 -2.1403  0.2684
 4662TIP3   OH213991   5.007   3.384   0.295 -0.3882 -0.0174 -0.1273
 4662TIP3    H113992   4.918   3.419   0.292 -0.4800 -0.2930 -1.6983
 4662TIP3    H213993   5.007   3.315   0.228  0.0361 -2.4166  2.1989
 4663TIP3   OH213994   5.658   4.219   3.325  0.2071 -0.2547  0.6493
 4663TIP3    H113995   5.739   4.205   3.374  0.0131 -0.2027  0.9831
 4663TIP3    H213996   5.609   4.137   3.335 -0.0311 -0.0815  0.9182
 4664TIP3   OH213997   5.955   5.273   1.844  0.1276  0.2946 -0.4935
 4664TIP3    H113998   5.899   5.344   1.811  0.6735  1.1130  0.2843
 4664TIP3    H213999   5.979   5.224   1.766  0.4149  1.4763 -1.1819
 4665TIP3   OH214000   2.689   4.575   3.761  0.0612  0.5140  0.4061
 4665TIP3    H114001   2.776   4.572   3.719 -0.7964 -0.2290 -1.4373
 4665TIP3    H214002   2.704   4.541   3.849  1.5637 -0.1080 -0.0461
 4666TIP3   OH214003   3.719   0.670   5.130 -0.9086 -0.0904  0.0282
 4666TIP3    H114004   3.735   0.604   5.062 -0.6324 -0.8498  0.8199
 4666TIP3    H214005   3.712   0.752   5.081 -0.3144 -0.5613 -0.8944
 4667TIP3   OH214006   0.421   0.356   1.004 -0.2668 -0.1686  0.4588
 4667TIP3    H114007   0.333   0.390   1.019 -0.5478 -0.6332 -0.0642
 4667TIP3    H214008   0.407   0.272   0.960  0.4110 -0.8621  1.5272
 4668TIP3   OH214009   3.838   4.397   4.796 -0.0584 -0.3326  0.8502
 4668TIP3    H114010   3.860   4.313   4.838  0.0035 -0.5718  0.3454
 4668TIP3    H214011   3.762   4.377   4.741  0.0965 -0.1114  0.5519
 4669TIP3   OH214012   0.320   3.503   4.424 -0.0744  0.0911  0.1251
 4669TIP3    H114013   0.346   3.485   4.333 -0.2064  1.7017 -0.2662
 4669TIP3    H214014   0.225   3.516   4.419 -0.3391 -1.3605  0.7911
 4670TIP3   OH214015   4.566   2.499   3.648  0.3405  0.0675 -0.2113
 4670TIP3    H114016   4.555   2.416   3.602 -1.5178 -1.1456  2.2689
 4670TIP3    H214017   4.630   2.481   3.717  0.3502  0.8691  0.0060
 4671TIP3   OH214018   4.052   1.352   3.965 -0.2973 -0.9245  0.1939
 4671TIP3    H114019   4.111   1.299   4.018 -0.6283 -0.4631  1.0435
 4671TIP3    H214020   4.098   1.436   3.955  0.0649 -1.2266 -0.8388
 4672TIP3   OH214021   4.158   4.986   4.953 -0.5071 -0.0253 -0.2623
 4672TIP3    H114022   4.165   4.947   4.866  1.8849 -0.4719  0.0578
 4672TIP3    H214023   4.197   4.922   5.011  0.1774  1.2977  0.7878
 4673TIP3   OH214024   0.132   2.351   0.740  0.0715 -0.2285  0.5100
 4673TIP3    H114025   0.125   2.341   0.645  0.0417 -0.2859  0.5181
 4673TIP3    H214026   0.225   2.346   0.759  0.3395  2.3019  0.1991
 4674TIP3   OH214027   1.451   5.533   3.546  0.8116  0.6159  0.3772
 4674TIP3    H114028   1.438   5.554   3.453 -1.4671 -1.7919  0.0085
 4674TIP3    H214029   1.532   5.481   3.547  2.0775  2.4659  0.1620
 4675TIP3   OH214030   1.441   2.169   0.212 -0.1655 -0.6848 -0.2042
 4675TIP3    H114031   1.357   2.213   0.224  1.5427  2.8784 -0.0277
 4675TIP3    H214032   1.457   2.174   0.118  0.4451 -0.0634 -0.0732
 4676TIP3   OH214033   2.213   5.403   4.747 -0.0914 -0.3408  0.0232
 4676TIP3    H114034   2.177   5.481   4.789 -0.1763 -0.6929  0.6189
 4676TIP3    H214035   2.308   5.418   4.746 -0.1193 -0.1660  0.0092
 4677TIP3   OH214036   1.292   1.456   3.257 -0.0649  0.7100  0.2435
 4677TIP3    H114037   1.381   1.486   3.277 -0.5161  1.7951  0.6790
 4677TIP3    H214038   1.258   1.425   3.341 -0.0318  0.0944  0.0347
 4678TIP3   OH214039   5.624   0.200   2.646  0.0230 -0.1308  0.2896
 4678TIP3    H114040   5.703   0.229   2.600  0.7120 -1.6074  0.5116
 4678TIP3    H214041   5.553   0.214   2.583  0.9451 -2.1335 -1.2874
 4679TIP3   OH214042   4.741   2.381   0.478 -0.3896  0.3295 -0.8013
 4679TIP3    H114043   4.788   2.367   0.396 -0.5382  0.8151 -0.9711
 4679TIP3    H214044   4.783   2.458   0.517  0.7723 -0.8316  0.3768
 4680TIP3   OH214045   1.645   0.613   2.699  0.4366 -1.2881  0.4236
 4680TIP3    H114046   1.607   0.544   2.753  1.3779 -0.4817  2.2001
 4680TIP3    H214047   1.702   0.568   2.638 -0.6673 -2.2269  0.0542
 4681TIP3   OH214048   4.199   4.041   1.558 -0.0269 -0.3386 -0.5127
 4681TIP3    H114049   4.208   4.091   1.639  0.8369 -1.1186 -0.1088
 4681TIP3    H214050   4.105   4.035   1.543 -0.3475 -2.2501  1.7598
 4682TIP3   OH214051   4.592   4.810   1.731  0.4571  0.1628  0.5391
 4682TIP3    H114052   4.619   4.785   1.642 -1.8962 -0.0707 -0.1746
 4682TIP3    H214053   4.646   4.886   1.752  1.6517 -0.2917 -0.7475
 4683TIP3   OH214054   2.099   4.124   4.755  0.6434 -0.1444  0.7117
 4683TIP3    H114055   2.082   4.112   4.849  1.4615  0.0861  0.8996
 4683TIP3    H214056   2.063   4.045   4.714 -1.0421  0.4203  1.0350
 4684TIP3   OH214057   5.893   2.100   0.991  0.2192  0.3757  0.3393
 4684TIP3    H114058   5.866   2.137   1.074 -0.9523  1.0195 -0.3054
 4684TIP3    H214059   5.822   2.121   0.930  1.1726  0.1754 -0.8960
 4685TIP3   OH214060   5.569   3.699   2.940  0.2718  0.1378 -0.4994
 4685TIP3    H114061   5.480   3.735   2.946 -0.0230 -0.4499 -1.2659
 4685TIP3    H214062   5.563   3.613   2.982  0.4161 -0.0099 -0.7791
 4686TIP3   OH214063   1.907   5.160   2.981 -0.2198  0.4155  0.4110
 4686TIP3    H114064   1.892   5.118   2.896  2.5778 -0.1433  0.0841
 4686TIP3    H214065   1.888   5.253   2.965 -0.4697  0.2034 -0.6134
 4687TIP3   OH214066   3.246   2.415   1.677  0.1646 -0.2113  0.3104
 4687TIP3    H114067   3.326   2.444   1.719  1.1754 -1.2705 -0.7993
 4687TIP3    H214068   3.265   2.326   1.647  0.1824  0.9593 -3.8366
 4688TIP3   OH214069   5.655   0.600   0.179 -0.4353  0.0036 -0.1848
 4688TIP3    H114070   5.600   0.669   0.143  1.1414  1.9388  0.9054
 4688TIP3    H214071   5.594   0.535   0.214 -1.9715 -0.0599 -2.7527
 4689TIP3   OH214072   1.222   5.936   0.758  0.0354  0.0234  0.2808
 4689TIP3    H114073   1.142   5.887   0.741 -0.2415  0.2437  0.9053
 4689TIP3    H214074   1.283   5.907   0.691 -0.4748 -0.3678 -0.0179
 4690TIP3   OH214075   1.024   5.056   0.858 -0.1738 -0.1254  0.1602
 4690TIP3    H114076   0.965   4.988   0.823 -0.8702 -0.0766  1.2028
 4690TIP3    H214077   1.022   5.043   0.952  0.1747  0.9556  0.3271
 4691TIP3   OH214078   3.159   4.927   5.071  0.2857  0.0716 -0.3156
 4691TIP3    H114079   3.238   4.902   5.118 -0.2577  0.9569  1.1344
 4691TIP3    H214080   3.189   4.994   5.009  0.8479 -0.4384 -0.6134
 4692TIP3   OH214081   5.155   4.601   3.898  0.1918  0.6301 -0.2825
 4692TIP3    H114082   5.147   4.692   3.870 -1.7966  0.5458 -0.1060
 4692TIP3    H214083   5.246   4.593   3.928  0.2507  2.6814  0.2199
 4693TIP3   OH214084   5.768   3.035   0.545  0.3229 -0.1025 -0.1059
 4693TIP3    H114085   5.823   3.113   0.533 -1.5004  0.8968 -3.2411
 4693TIP3    H214086   5.770   3.019   0.639  2.0410  2.7956  0.4899
 4694TIP3   OH214087   6.075   0.973   4.748  0.2053 -0.5029  0.1560
 4694TIP3    H114088   6.086   0.885   4.782  2.1158 -0.2036  0.4434
 4694TIP3    H214089   6.138   0.979   4.675 -2.2184 -0.4154 -2.0912
 4695TIP3   OH214090   0.601   5.094   1.270 -0.3330 -0.3202  0.2443
 4695TIP3    H114091   0.579   5.055   1.185  0.9066  0.0150 -0.2533
 4695TIP3    H214092   0.616   5.020   1.328  0.7973 -0.5915 -0.3719
 4696TIP3   OH214093   2.403   4.890   1.153  0.4287 -0.1097  0.2088
 4696TIP3    H114094   2.405   4.978   1.192  2.0604  0.5283 -1.1970
 4696TIP3    H214095   2.446   4.834   1.218  0.4750  0.3629  0.5923
 4697TIP3   OH214096   0.145   4.128   0.622  0.3527  0.0055  0.4998
 4697TIP3    H114097   0.222   4.171   0.659 -0.0331 -0.1878  1.5618
 4697TIP3    H214098   0.121   4.061   0.686 -0.0196 -0.7146 -0.3636
 4698TIP3   OH214099   2.181   4.695   1.252 -0.1000 -0.0812 -0.2334
 4698TIP3    H114100   2.236   4.766   1.218 -0.1593  2.1818  3.6841
 4698TIP3    H214101   2.241   4.641   1.303 -0.7020 -0.4985  0.0365
 4699TIP3   OH214102   5.712   4.833   4.352  0.3475  0.1892 -0.3637
 4699TIP3    H114103   5.643   4.830   4.285 -0.1520  2.5757 -0.0655
 4699TIP3    H214104   5.793   4.817   4.304 -0.2212 -0.5238 -1.1082
 4700TIP3   OH214105   4.527   0.638   4.682  0.7158  0.5484  0.2030
 4700TIP3    H114106   4.452   0.602   4.729  0.0980  1.9806  0.3716
 4700TIP3    H214107   4.509   0.621   4.590  1.1793 -0.8894  0.3575
 4701TIP3   OH214108   2.258   5.646   0.995  0.3672  0.5567  0.3093
 4701TIP3    H114109   2.191   5.625   0.930 -0.1612  0.3861  0.9057
 4701TIP3    H214110   2.332   5.589   0.973 -0.4374 -0.7434  0.8957
 4702TIP3   OH214111   0.969   0.019   2.218 -0.3122  0.4910  0.0510
 4702TIP3    H114112   1.055  -0.021   2.221  0.0526  1.0537 -1.7258
 4702TIP3    H214113   0.975   0.092   2.280  0.6691  0.8300 -0.4183
 4703TIP3   OH214114   5.958   1.520   4.993 -0.0649 -0.8972  0.3091
 4703TIP3    H114115   5.900   1.463   5.044 -0.1429 -2.2597 -1.2397
 4703TIP3    H214116   5.986   1.466   4.919  0.5188  0.8305 -0.7856
 4704TIP3   OH214117   2.379   2.772   4.981 -0.4840 -0.0064  0.4975
 4704TIP3    H114118   2.305   2.739   5.031  0.6226 -1.2279  1.4205
 4704TIP3    H214119   2.438   2.809   5.047 -0.3207  1.0773 -0.2299
 4705TIP3   OH214120   1.258   3.752   4.389 -0.2828  0.2534  0.2275
 4705TIP3    H114121   1.302   3.759   4.304 -0.4667 -0.7499  0.0362
 4705TIP3    H214122   1.293   3.825   4.440 -1.5835  2.0501 -1.3135
 4706TIP3   OH214123   2.296   4.296   0.197  0.4022  0.1067 -0.0313
 4706TIP3    H114124   2.206   4.264   0.197 -0.0365  1.2540  0.9505
 4706TIP3    H214125   2.340   4.244   0.129 -1.3356  0.4749 -1.5335
 4707TIP3   OH214126   3.988   1.039   3.685  0.2530 -0.5024 -0.3065
 4707TIP3    H114127   4.009   1.003   3.599  0.4189  0.1785 -0.5554
 4707TIP3    H214128   3.979   0.962   3.742 -0.6650 -1.0092 -1.1011
 4708TIP3   OH214129   1.819   1.791   0.101  0.3489  0.3894  0.5778
 4708TIP3    H114130   1.736   1.754   0.129  0.8082 -1.7426 -0.6041
 4708TIP3    H214131   1.828   1.762   0.010  1.5028  2.2152  0.0599
 4709TIP3   OH214132   1.673   1.190   3.124 -0.5345 -0.0527 -0.0476
 4709TIP3    H114133   1.721   1.255   3.176  2.7980 -1.1645 -1.4224
 4709TIP3    H214134   1.589   1.230   3.106  0.8626  3.3520  0.2655
 4710TIP3   OH214135   5.456   5.735   3.193  0.2592 -0.7323  0.3028
 4710TIP3    H114136   5.515   5.660   3.198 -0.5846 -1.3808  0.6626
 4710TIP3    H214137   5.450   5.767   3.284 -1.4491 -1.8699  0.6317
 4711TIP3   OH214138   4.375   3.782   0.498  0.2001  0.0386 -0.0395
 4711TIP3    H114139   4.431   3.793   0.421 -0.4098  2.4721 -0.2076
 4711TIP3    H214140   4.433   3.744   0.564  1.8160  1.5250 -0.5165
 4712TIP3   OH214141   1.333   2.957   2.304 -0.4264 -0.1464 -0.1596
 4712TIP3    H114142   1.291   2.894   2.362  1.5164 -2.2877 -0.8943
 4712TIP3    H214143   1.399   3.000   2.358  0.4176 -1.1088 -0.4004
 4713TIP3   OH214144   4.877   5.221   2.581 -0.2520 -0.0576  0.3754
 4713TIP3    H114145   4.816   5.292   2.600  0.6036  0.4908  1.1907
 4713TIP3    H214146   4.961   5.252   2.615  1.6340  1.1762 -4.5918
 4714TIP3   OH214147   1.183   4.210   5.051 -0.0805 -0.1165  0.1335
 4714TIP3    H114148   1.252   4.276   5.047 -0.4779  0.3121  0.3196
 4714TIP3    H214149   1.194   4.159   4.971 -0.0506  0.4507 -0.2277
 4715TIP3   OH214150   5.491   3.248   2.344 -0.3282 -0.0687  0.0689
 4715TIP3    H114151   5.438   3.275   2.269 -0.2957 -0.6949 -0.1848
 4715TIP3    H214152   5.581   3.257   2.314 -0.2701  1.0999  0.5372
 4716TIP3   OH214153   5.196   4.885   4.477 -0.1156  0.3817 -0.1539
 4716TIP3    H114154   5.225   4.882   4.568 -0.0734 -2.6105 -0.1849
 4716TIP3    H214155   5.274   4.862   4.426 -0.4683  0.7194 -0.8671
 4717TIP3   OH214156   5.914   3.212   0.403 -0.2243 -0.1499  0.3109
 4717TIP3    H114157   5.969   3.266   0.346  0.7355 -0.5860  0.7891
 4717TIP3    H214158   5.880   3.144   0.345  0.8017 -0.6311  0.2433
 4718TIP3   OH214159   2.376   1.923   0.025 -0.2242  0.2238  0.3526
 4718TIP3    H114160   2.399   1.842  -0.021 -0.2205  0.3737  0.0842
 4718TIP3    H214161   2.281   1.921   0.032 -0.5511  1.6357 -2.4287
 4719TIP3   OH214162   2.604  -0.004   3.103  0.2007  0.1931 -0.1271
 4719TIP3    H114163   2.556  -0.035   3.026 -0.4088  1.5771 -0.3188
 4719TIP3    H214164   2.620   0.089   3.086  0.3835  0.4313  1.2611
 4720TIP3   OH214165   0.477   4.839   4.113 -0.5508  0.4079  0.2511
 4720TIP3    H114166   0.569   4.864   4.108 -0.5123  0.0770 -2.6919
 4720TIP3    H214167   0.478   4.744   4.122 -0.5538  0.2861 -0.8849
 4721TIP3   OH214168   1.976   1.029   0.668 -0.2372  0.5993 -0.4889
 4721TIP3    H114169   1.971   0.998   0.577 -3.0729 -2.3969  0.4885
 4721TIP3    H214170   1.932   1.114   0.666  0.6153  1.0543 -2.0319
 4722TIP3   OH214171   2.892   4.191   1.367  0.0215  0.5346  0.0418
 4722TIP3    H114172   2.954   4.259   1.343 -1.2760  1.2015 -1.5645
 4722TIP3    H214173   2.926   4.112   1.325 -0.2882  0.9344 -0.9858
 4723TIP3   OH214174   1.067   1.017   3.526  0.3237 -0.2353  0.7868
 4723TIP3    H114175   1.040   0.934   3.566 -1.1289 -1.4962 -2.4486
 4723TIP3    H214176   1.146   0.995   3.476 -1.0610 -0.2232 -1.5342
 4724TIP3   OH214177   0.983   2.913   1.075  0.3262  0.1819  0.3230
 4724TIP3    H114178   0.942   2.926   1.161 -1.4590  0.5988 -0.5548
 4724TIP3    H214179   1.055   2.852   1.092 -0.7129 -0.6538  1.9129
 4725TIP3   OH214180   3.546   0.125   1.124  0.2693  0.4236 -0.6075
 4725TIP3    H114181   3.459   0.086   1.110  0.8057 -0.1164 -2.7362
 4725TIP3    H214182   3.607   0.064   1.081  1.4431  2.0182 -1.2864
 4726TIP3   OH214183   2.485   1.456   2.966  0.2185  0.1101  0.1912
 4726TIP3    H114184   2.488   1.522   2.896 -1.2870  1.0937  1.0014
 4726TIP3    H214185   2.561   1.477   3.020  0.1128  0.7998  0.0920
 4727TIP3   OH214186   0.754   0.742   2.630  0.0138 -0.3951  0.1144
 4727TIP3    H114187   0.667   0.702   2.628  0.4983 -1.5494  0.7827
 4727TIP3    H214188   0.775   0.751   2.723 -0.5110  2.5060  0.0196
 4728TIP3   OH214189   5.248   5.096   2.762  0.2896  0.0908 -0.2312
 4728TIP3    H114190   5.267   5.054   2.846 -0.6236 -0.2151 -0.1639
 4728TIP3    H214191   5.164   5.140   2.775  1.2942  2.1307 -0.2584
 4729TIP3   OH214192   4.565   0.023   4.948 -0.0713  0.3788  0.1319
 4729TIP3    H114193   4.568   0.091   4.881 -1.2562  2.1493  1.7464
 4729TIP3    H214194   4.656   0.012   4.976  0.0637  1.8662  0.3332
 4730TIP3   OH214195   4.279   1.687   2.210  0.2947  0.1767 -0.4166
 4730TIP3    H114196   4.205   1.745   2.191  1.1598  1.1717 -0.8750
 4730TIP3    H214197   4.349   1.719   2.153  1.1332 -0.6365  0.1377
 4731TIP3   OH214198   3.306   5.653   3.486  0.0284 -0.0127  0.4093
 4731TIP3    H114199   3.289   5.664   3.392  2.8188  0.6106 -0.1313
 4731TIP3    H214200   3.251   5.718   3.529  0.4136  1.3359 -1.0377
 4732TIP3   OH214201   2.942   1.249   0.965 -0.0959 -0.0283  0.1333
 4732TIP3    H114202   2.993   1.305   1.023  0.8361 -1.0323  0.3095
 4732TIP3    H214203   2.885   1.199   1.023  1.9169 -2.1592  0.4182
 4733TIP3   OH214204   1.922   5.016   1.615 -0.1835  0.1115 -0.6625
 4733TIP3    H114205   1.932   5.072   1.692 -0.8980 -0.2669 -0.2738
 4733TIP3    H214206   1.843   4.965   1.634 -0.0998 -0.3182 -1.4448
 4734TIP3   OH214207   1.072   3.617   1.831 -0.1411 -0.4537 -0.1363
 4734TIP3    H114208   1.037   3.620   1.920  0.9431  1.9157  0.2980
 4734TIP3    H214209   1.146   3.557   1.836  0.2732  0.1174  0.7203
 4735TIP3   OH214210   0.938   1.616   0.773 -0.0295  0.1633 -0.4704
 4735TIP3    H114211   0.904   1.561   0.703  0.7509 -0.4536 -0.3762
 4735TIP3    H214212   1.029   1.632   0.750  0.6651 -1.2311  1.0823
 4736TIP3   OH214213   2.358   0.670   3.542  0.3082 -0.0142 -0.3593
 4736TIP3    H114214   2.298   0.603   3.511  0.6354 -1.4604  1.9681
 4736TIP3    H214215   2.441   0.624   3.554  0.7427  0.9690  0.5650
 4737TIP3   OH214216   4.565   5.861   3.168  0.1972  0.0277  0.2866
 4737TIP3    H114217   4.500   5.828   3.231  0.0012  0.8767  0.5395
 4737TIP3    H214218   4.626   5.912   3.221  0.8800 -0.4696 -0.0057
 4738TIP3   OH214219   2.311   3.259   2.489  0.6352 -0.0355  0.1286
 4738TIP3    H114220   2.303   3.308   2.407  2.4788  2.4479  1.2856
 4738TIP3    H214221   2.405   3.260   2.508  0.2075 -0.0435  2.5613
 4739TIP3   OH214222   2.515   2.777   3.045  0.0418 -0.3282  0.1654
 4739TIP3    H114223   2.519   2.719   3.121 -0.5019 -0.4293  0.1200
 4739TIP3    H214224   2.544   2.862   3.078  3.7740 -1.2081 -0.4022
 4740TIP3   OH214225   4.067   0.378   0.085 -0.1632 -0.2142 -0.1890
 4740TIP3    H114226   4.120   0.411   0.012  0.2885  0.5595  0.4805
 4740TIP3    H214227   3.995   0.440   0.092 -0.2721 -0.3574 -0.0496
 4741TIP3   OH214228   1.980   5.524   1.783 -0.0803 -0.1294 -0.3916
 4741TIP3    H114229   1.931   5.567   1.852 -0.7884 -0.2303 -0.8183
 4741TIP3    H214230   2.064   5.570   1.780 -0.6132  0.8596 -0.4760
 4742TIP3   OH214231   1.724   2.550   2.937  0.2143 -0.1606  0.1270
 4742TIP3    H114232   1.787   2.595   2.994  1.3680 -2.3181  0.6506
 4742TIP3    H214233   1.701   2.470   2.984  0.6802 -1.7020 -2.1089
 4743TIP3   OH214234   2.967   0.163   1.639 -0.1717  0.0949 -0.0575
 4743TIP3    H114235   3.022   0.085   1.647  0.5328  0.4705 -1.0290
 4743TIP3    H214236   2.880   0.135   1.666  0.2481 -0.8082  0.3962
 4744TIP3   OH214237   4.922   1.746   1.089  0.2481 -0.1473 -0.9295
 4744TIP3    H114238   4.975   1.685   1.037  2.3188  1.0467 -0.3625
 4744TIP3    H214239   4.971   1.755   1.171 -1.2792  0.4458 -0.0536
 4745TIP3   OH214240   5.787   5.738   1.774 -0.3565 -0.2838 -0.3751
 4745TIP3    H114241   5.748   5.651   1.788 -0.1787 -0.4955 -1.1178
 4745TIP3    H214242   5.738   5.773   1.699 -1.7478  1.0782  1.0957
 4746TIP3   OH214243   1.286   1.770   4.489 -0.1638 -0.1752  0.9217
 4746TIP3    H114244   1.345   1.710   4.443 -0.3740 -0.6718  1.2886
 4746TIP3    H214245   1.329   1.789   4.572 -0.9023 -1.2390  1.5740
 4747TIP3   OH214246   0.575   5.886   4.703  0.4249  0.3824  1.0187
 4747TIP3    H114247   0.593   5.841   4.786  1.4986  0.1610  0.6806
 4747TIP3    H214248   0.662   5.900   4.664 -0.0936  0.1478 -0.2520
 4748TIP3   OH214249   3.207   0.907   2.676 -0.8036 -0.2312  0.1245
 4748TIP3    H114250   3.190   0.958   2.755  0.8428 -0.6432  0.7662
 4748TIP3    H214251   3.288   0.860   2.693 -0.7124 -0.7907 -1.5931
 4749TIP3   OH214252   1.216   5.755   3.879 -0.2165 -0.3482 -1.1982
 4749TIP3    H114253   1.191   5.786   3.791  1.1928 -1.6175 -2.0945
 4749TIP3    H214254   1.311   5.746   3.874 -0.1849 -0.9852  0.3017
 4750TIP3   OH214255   3.841   3.019   2.834  0.0471  0.0977 -0.6508
 4750TIP3    H114256   3.933   3.010   2.807  0.2085 -1.1379  0.2511
 4750TIP3    H214257   3.794   2.958   2.777 -0.1645  0.4173 -0.8211
 4751TIP3   OH214258   1.902   4.493   3.970 -0.2912  0.4193 -0.3907
 4751TIP3    H114259   1.934   4.559   3.909  1.2710 -1.5756 -1.8683
 4751TIP3    H214260   1.832   4.447   3.923 -0.3124  0.0214  0.0157
 4752TIP3   OH214261   5.707   0.118   3.356 -0.1843 -0.1710  0.4209
 4752TIP3    H114262   5.742   0.133   3.444  0.6571  0.5182 -0.0202
 4752TIP3    H214263   5.701   0.023   3.348 -1.0785 -0.2360  1.5230
 4753TIP3   OH214264   2.971   1.364   4.627 -0.3278  0.1693  0.0451
 4753TIP3    H114265   3.056   1.351   4.585  0.0925 -1.3481  1.2808
 4753TIP3    H214266   2.918   1.290   4.598 -0.7001  0.2373  0.5457
 4754TIP3   OH214267   4.730   3.959   0.151 -0.2901 -0.2123 -0.0621
 4754TIP3    H114268   4.786   3.889   0.118  0.5587  1.2655 -1.9368
 4754TIP3    H214269   4.670   3.978   0.079 -2.4343 -0.8833  1.4529
 4755TIP3   OH214270   2.170   2.763   3.324  0.3345  0.0715  0.7954
 4755TIP3    H114271   2.114   2.700   3.369 -0.0306 -1.1671 -1.3202
 4755TIP3    H214272   2.237   2.710   3.281  0.7684  1.2347 -0.0040
 4756TIP3   OH214273   1.474   2.805   2.049  0.5303  0.3585 -0.3218
 4756TIP3    H114274   1.562   2.838   2.036  1.3718 -1.6962 -0.2485
 4756TIP3    H214275   1.456   2.819   2.142  0.6882  0.9583 -0.3770
 4757TIP3   OH214276   5.391   0.082   0.171 -0.1375 -0.1820 -0.1626
 4757TIP3    H114277   5.452   0.134   0.223  1.3777 -0.4651 -1.5653
 4757TIP3    H214278   5.307   0.093   0.215  0.8297  0.5497  1.6138
 4758TIP3   OH214279   5.598   0.213   4.373  0.0185 -0.3675  0.4467
 4758TIP3    H114280   5.574   0.134   4.325 -1.2521  0.9982 -1.2806
 4758TIP3    H214281   5.539   0.215   4.448 -0.5952 -0.5837 -0.0234
 4759TIP3   OH214282   0.899   3.929   2.636  0.2013  0.0685 -0.3772
 4759TIP3    H114283   0.917   3.914   2.543 -2.6585  1.3045 -1.2372
 4759TIP3    H214284   0.975   3.979   2.667  1.7310 -1.3042 -1.7215
 4760TIP3   OH214285   2.121   1.703   0.269  0.3298 -0.2086 -0.2931
 4760TIP3    H114286   2.054   1.752   0.317  0.2864 -1.0471  0.5433
 4760TIP3    H214287   2.159   1.644   0.334 -0.3408 -2.0320 -1.4703
 4761TIP3   OH214288   2.167   1.084   4.524  0.1953  0.0536 -0.4011
 4761TIP3    H114289   2.104   1.156   4.509 -0.2769 -0.4743 -1.0489
 4761TIP3    H214290   2.234   1.098   4.457 -1.1278 -1.4311 -2.1751
 4762TIP3   OH214291   4.876   1.138   1.549 -0.2854  0.0199 -0.3182
 4762TIP3    H114292   4.896   1.232   1.549  0.1269 -0.0539  0.4957
 4762TIP3    H214293   4.791   1.131   1.506 -1.6396  1.0873  1.9903
 4763TIP3   OH214294   0.728   0.439   3.375 -0.6569  0.4841  0.5964
 4763TIP3    H114295   0.667   0.509   3.350 -0.0813  1.1080  0.8989
 4763TIP3    H214296   0.678   0.358   3.363 -1.4534  0.9655  0.5722
 4764TIP3   OH214297   5.209   0.252   4.788  0.4796 -0.0742 -0.0282
 4764TIP3    H114298   5.239   0.300   4.864  0.1632 -0.7182  0.5139
 4764TIP3    H214299   5.118   0.279   4.776  0.5603  0.1092 -0.2520
 4765TIP3   OH214300   0.644   4.702   0.291  0.1150  0.0649  0.4967
 4765TIP3    H114301   0.619   4.610   0.291  1.9375 -0.4644  0.0239
 4765TIP3    H214302   0.645   4.727   0.199 -0.1725  0.5140  0.6116
 4766TIP3   OH214303   2.446   1.643   0.660  0.0428  0.6160 -0.0580
 4766TIP3    H114304   2.368   1.636   0.714 -0.9071 -3.0846 -1.6062
 4766TIP3    H214305   2.412   1.653   0.571  1.2643 -1.3879 -0.8012
 4767TIP3   OH214306  -0.008   0.768   4.842 -0.1407 -0.6808 -0.9322
 4767TIP3    H114307   0.082   0.749   4.817 -0.2093 -0.5596 -1.2774
 4767TIP3    H214308  -0.055   0.777   4.759 -0.2106  0.4865 -0.7764
 4768TIP3   OH214309   2.889   0.563   4.288  0.3808  0.4481  0.2000
 4768TIP3    H114310   2.884   0.597   4.199  0.7566  1.5472  0.5777
 4768TIP3    H214311   2.835   0.623   4.339  0.1366 -0.1992  0.7005
 4769TIP3   OH214312   0.306   4.666   4.722  0.6159  0.4352  0.0717
 4769TIP3    H114313   0.242   4.646   4.789  0.9435  1.1770  0.6218
 4769TIP3    H214314   0.255   4.680   4.642  0.3198 -1.7506 -0.1756
 4770TIP3   OH214315   2.704   2.223   0.875 -0.4883 -0.3720 -0.7338
 4770TIP3    H114316   2.667   2.140   0.905 -0.1232 -0.5504 -0.7719
 4770TIP3    H214317   2.793   2.200   0.846 -0.6526 -0.1102 -1.4538
 4771TIP3   OH214318   4.143   0.109   0.583 -0.6028  0.1780  0.4417
 4771TIP3    H114319   4.224   0.061   0.566 -1.4946 -1.4373  0.5444
 4771TIP3    H214320   4.164   0.169   0.654  0.8788  0.8441 -0.5147
 4772TIP3   OH214321   4.278   4.790   4.245  0.1634 -0.2960  0.3707
 4772TIP3    H114322   4.298   4.856   4.179 -0.3860  1.1992  1.6344
 4772TIP3    H214323   4.213   4.733   4.204  1.2128 -0.5573 -1.0140
 4773TIP3   OH214324   1.119   4.896   2.793  0.0541  0.4742 -0.8287
 4773TIP3    H114325   1.062   4.834   2.747 -0.3827  1.0494 -1.0869
 4773TIP3    H214326   1.151   4.848   2.869  1.6693 -0.8740 -2.2986
 4774TIP3   OH214327   5.695   2.102   4.747  0.0451  0.2502  0.1920
 4774TIP3    H114328   5.781   2.137   4.727  0.0498  0.9483  1.3566
 4774TIP3    H214329   5.706   2.053   4.829 -0.7199  0.6197  0.5273
 4775TIP3   OH214330   5.761   0.625   3.483 -0.3789 -0.3904  0.2354
 4775TIP3    H114331   5.724   0.560   3.423  0.6164 -0.9368  0.1710
 4775TIP3    H214332   5.856   0.610   3.478 -0.3082 -1.9821  3.5895
 4776TIP3   OH214333   2.530   2.310   1.901 -0.3817  0.3301  0.2665
 4776TIP3    H114334   2.618   2.277   1.886 -0.1988  0.7743  0.3273
 4776TIP3    H214335   2.478   2.233   1.923 -0.1337 -0.0059 -0.3140
 4777TIP3   OH214336   1.064   3.080   2.697  0.2299  0.7209  0.2233
 4777TIP3    H114337   1.064   3.100   2.604  0.7667  0.8593  0.2502
 4777TIP3    H214338   1.005   3.144   2.735 -0.7427  0.0675 -0.1373
 4778TIP3   OH214339   6.077   0.962   3.545 -0.1722  0.2822 -0.1945
 4778TIP3    H114340   6.117   0.914   3.617  0.2866  0.4480 -0.3323
 4778TIP3    H214341   6.112   1.051   3.553  0.3643  0.1547 -0.9754
 4779TIP3   OH214342   3.059   2.076   3.525 -0.5401  0.1266  0.3012
 4779TIP3    H114343   3.048   2.120   3.441  1.3040  2.2115  1.0499
 4779TIP3    H214344   2.971   2.047   3.548 -1.5870  1.9516 -1.0720
 4780TIP3   OH214345   5.399   1.984   2.319  0.7638 -0.2942 -0.0142
 4780TIP3    H114346   5.418   1.898   2.283  0.7799 -1.4619  2.5456
 4780TIP3    H214347   5.480   2.034   2.307  0.1873  0.0546 -3.1311
 4781TIP3   OH214348   3.791   3.552   1.979  0.3848 -0.3087  0.3777
 4781TIP3    H114349   3.736   3.622   2.013  1.2022  0.6825 -0.2965
 4781TIP3    H214350   3.822   3.505   2.057 -0.9422 -0.5441  0.7847
 4782TIP3   OH214351   2.722   2.124   2.032 -0.1086  0.1606  0.3543
 4782TIP3    H114352   2.675   2.087   2.106 -1.9771 -0.7675 -1.1764
 4782TIP3    H214353   2.693   2.071   1.957  2.1521  0.6579 -0.9548
 4783TIP3   OH214354   5.203   5.621   0.710  0.3584  0.2778  0.3255
 4783TIP3    H114355   5.255   5.547   0.740 -2.1004 -0.9019  2.0158
 4783TIP3    H214356   5.247   5.698   0.747  2.4322 -0.3586 -0.6884
 4784TIP3   OH214357   0.075   2.263   3.143  0.6156  0.3228 -0.2223
 4784TIP3    H114358   0.105   2.176   3.118  2.1321  0.5610  0.6655
 4784TIP3    H214359  -0.006   2.275   3.092  1.0464 -1.0707 -1.3315
 4785TIP3   OH214360   1.171   0.717   3.768 -0.2942 -0.1524 -0.6573
 4785TIP3    H114361   1.156   0.639   3.821  1.0702 -0.3698 -0.5504
 4785TIP3    H214362   1.091   0.728   3.717 -0.9427 -0.9625  0.1548
 4786TIP3   OH214363   0.897   0.812   0.151 -0.1978  0.7403  0.1389
 4786TIP3    H114364   0.842   0.781   0.223 -0.0246 -1.0161 -0.4416
 4786TIP3    H214365   0.851   0.785   0.072  1.2349 -0.3562 -0.3591
 4787TIP3   OH214366   6.281   2.977   1.038  0.2564  0.4205  0.0454
 4787TIP3    H114367   6.261   2.986   1.131 -1.4854  1.4877 -0.4009
 4787TIP3    H214368   6.333   2.897   1.033 -0.9858 -0.5619  1.7439
 4788TIP3   OH214369   5.186   1.300   4.901  0.0970 -0.4796 -0.3430
 4788TIP3    H114370   5.131   1.375   4.926 -0.1643 -0.4109 -1.0860
 4788TIP3    H214371   5.189   1.245   4.979  1.6090  1.0660  0.7610
 4789TIP3   OH214372   5.674   1.167   3.517 -0.1584  0.3194  0.1202
 4789TIP3    H114373   5.586   1.164   3.554 -0.3399  0.0374 -0.3260
 4789TIP3    H214374   5.660   1.171   3.422  0.3074 -1.5610 -0.0681
 4790TIP3   OH214375   2.009   5.055   1.301  0.0379 -0.1943  0.5144
 4790TIP3    H114376   2.087   5.102   1.271  1.3750 -3.1622 -1.0400
 4790TIP3    H214377   1.997   5.085   1.392  2.6098  0.8199  0.6159
 4791TIP3   OH214378   4.660   4.000   4.435  0.2048  0.6175  0.1911
 4791TIP3    H114379   4.710   4.012   4.354  1.3388 -1.3794  0.5277
 4791TIP3    H214380   4.596   3.932   4.413  0.9730 -0.4329  1.1380
 4792TIP3   OH214381   0.218   1.273   4.421  0.5575  0.3554 -0.2755
 4792TIP3    H114382   0.142   1.304   4.469  0.1697  1.5465 -1.5808
 4792TIP3    H214383   0.277   1.348   4.417  1.2869 -0.2038 -0.2785
 4793TIP3   OH214384   0.389   1.001   4.864  0.0326  0.0473 -0.3210
 4793TIP3    H114385   0.359   1.018   4.775 -0.0137  0.3472 -0.2505
 4793TIP3    H214386   0.471   0.954   4.853  0.0251  0.0802 -0.5225
 4794TIP3   OH214387   1.225   3.526   0.514  0.3370 -0.2491  0.4370
 4794TIP3    H114388   1.146   3.515   0.567 -0.4892  1.2328 -0.4148
 4794TIP3    H214389   1.292   3.553   0.576 -0.5489  1.2221  0.7924
 4795TIP3   OH214390   0.230   0.427   0.739 -0.2253 -0.2203 -0.4097
 4795TIP3    H114391   0.247   0.520   0.730  0.4208 -0.0672  1.9695
 4795TIP3    H214392   0.161   0.409   0.675  0.0183  1.7513 -1.2818
 4796TIP3   OH214393   3.511   1.206   4.123  0.7128 -0.2478  0.2630
 4796TIP3    H114394   3.591   1.155   4.133  0.7381 -0.5087 -1.1167
 4796TIP3    H214395   3.539   1.287   4.079  0.2735 -0.1998  0.0617
 4797TIP3   OH214396   5.490   0.943   3.131  0.0972 -0.1962  0.3341
 4797TIP3    H114397   5.462   0.983   3.214 -0.1597  0.1869  0.0659
 4797TIP3    H214398   5.497   1.016   3.070  1.8046 -0.2585  0.4049
 4798TIP3   OH214399   3.546   0.560   4.173 -0.0375 -0.2317 -0.0375
 4798TIP3    H114400   3.507   0.583   4.088  1.1644  1.9256 -0.0839
 4798TIP3    H214401   3.476   0.576   4.236 -0.8267 -1.5019 -0.5398
 4799TIP3   OH214402   4.291   2.456   0.943 -0.7937 -0.1528  0.4432
 4799TIP3    H114403   4.218   2.493   0.993 -2.2846  1.4579 -2.6574
 4799TIP3    H214404   4.264   2.464   0.852  2.6300 -1.0009 -0.7948
 4800TIP3   OH214405   3.772   3.607   4.413  0.1360  0.1063  0.0421
 4800TIP3    H114406   3.727   3.545   4.356  1.6875 -2.9131  1.8417
 4800TIP3    H214407   3.724   3.602   4.496  1.1377  0.1655  0.6493
 4801TIP3   OH214408   6.231   5.161   2.222 -0.3926 -0.1739 -0.2411
 4801TIP3    H114409   6.233   5.065   2.221 -0.7795 -0.1858  0.1478
 4801TIP3    H214410   6.313   5.187   2.179 -1.3681 -0.6658 -2.5332
 4802TIP3   OH214411   3.820   5.667   2.034  0.4376 -0.8613 -0.4001
 4802TIP3    H114412   3.725   5.663   2.043  0.5442 -1.1979  0.7081
 4802TIP3    H214413   3.834   5.694   1.943 -0.7240 -0.0721 -0.3706
 4803TIP3   OH214414   1.229   4.562   4.245  0.0478 -0.3957  0.0272
 4803TIP3    H114415   1.178   4.643   4.245  2.0975  1.0317 -2.2748
 4803TIP3    H214416   1.269   4.559   4.332 -0.1715  1.0002  0.2001
 4804TIP3   OH214417   1.441   4.597   1.464  0.0259 -0.2319 -0.4843
 4804TIP3    H114418   1.498   4.572   1.391 -0.0103  0.7361 -0.8599
 4804TIP3    H214419   1.352   4.584   1.431 -0.0858  2.5736 -1.5821
 4805TIP3   OH214420   4.871  -0.018   3.791  0.0343 -0.0125  0.0143
 4805TIP3    H114421   4.911   0.067   3.774  1.1156 -0.6965 -0.8977
 4805TIP3    H214422   4.797   0.003   3.849  0.5932  1.4769  0.2416
 4806TIP3   OH214423   1.100   2.213   0.122 -0.4099 -0.3328  0.4748
 4806TIP3    H114424   1.044   2.252   0.055 -1.8085 -1.5661  0.8611
 4806TIP3    H214425   1.122   2.285   0.180 -1.3074  0.2654  0.0946
 4807TIP3   OH214426   1.677   1.123   2.377 -0.2535 -0.6387  0.1132
 4807TIP3    H114427   1.606   1.183   2.400  0.2292  0.1211 -0.3565
 4807TIP3    H214428   1.641   1.036   2.394 -0.7029 -0.2051  1.5325
 4808TIP3   OH214429   5.842   5.614   3.163 -0.5423  0.0193  0.5171
 4808TIP3    H114430   5.747   5.600   3.160 -0.4948 -0.6297  1.7071
 4808TIP3    H214431   5.878   5.545   3.108 -0.7232 -0.0732  0.5148
 4809TIP3   OH214432   3.330   2.249   0.490 -0.2019  0.1553  0.3418
 4809TIP3    H114433   3.248   2.234   0.445 -1.2452  0.8746  1.9021
 4809TIP3    H214434   3.324   2.195   0.569  1.4709 -0.9121 -0.2113
 4810TIP3   OH214435   0.933   2.995   5.165 -0.6454 -0.1471  0.2187
 4810TIP3    H114436   0.912   3.077   5.119  1.0238  0.7108  0.9263
 4810TIP3    H214437   0.950   3.021   5.255  1.4187 -1.0120  0.1436
 4811TIP3   OH214438   3.513   0.868   2.824  0.1268  0.2268  0.0302
 4811TIP3    H114439   3.475   0.956   2.830 -1.7760 -0.5512  0.2138
 4811TIP3    H214440   3.466   0.818   2.891  2.2629 -0.6040  1.0026
 4812TIP3   OH214441   6.338   2.635   4.044 -0.3408 -0.0293 -0.4538
 4812TIP3    H114442   6.336   2.641   3.949 -0.6062 -1.0336 -0.5330
 4812TIP3    H214443   6.337   2.725   4.075  0.8959  0.3300 -1.4073
 4813TIP3   OH214444   0.266   3.414   2.390  0.2239 -0.0579 -0.2746
 4813TIP3    H114445   0.335   3.424   2.456 -0.9141  1.3105  0.7579
 4813TIP3    H214446   0.310   3.436   2.307  1.0569  0.7455  0.3506
 4814TIP3   OH214447   6.177   2.960   3.666  0.5672  0.0777  0.4842
 4814TIP3    H114448   6.147   2.915   3.587  0.5922  2.4590 -0.9833
 4814TIP3    H214449   6.098   2.974   3.718  0.0030  1.2955 -0.6574
 4815TIP3   OH214450   0.060   1.946   4.641  0.2399  0.2504 -0.0158
 4815TIP3    H114451   0.143   1.934   4.686 -0.5330 -0.9770  1.1655
 4815TIP3    H214452  -0.003   1.898   4.695 -1.5407  2.5450  0.0811
 4816TIP3   OH214453   6.179   0.704   4.596  0.1614  0.4743 -0.0878
 4816TIP3    H114454   6.215   0.757   4.525 -0.8668 -1.3763 -2.0848
 4816TIP3    H214455   6.090   0.684   4.568 -0.1098 -0.7462  1.5049
 4817TIP3   OH214456   0.012   5.714   2.131 -0.1591 -0.0125 -0.1003
 4817TIP3    H114457   0.089   5.660   2.147  0.4161  0.7480 -0.2434
 4817TIP3    H214458  -0.023   5.682   2.047  0.6886  0.4061 -0.6290
 4818TIP3   OH214459   5.635   1.684   4.651  0.2963 -0.1511 -0.8162
 4818TIP3    H114460   5.714   1.719   4.692 -0.4840  0.7218 -0.0038
 4818TIP3    H214461   5.645   1.589   4.660  1.3385 -0.0659 -0.9065
 4819TIP3   OH214462   1.811   2.158   1.966 -0.4649 -0.0522 -0.1093
 4819TIP3    H114463   1.874   2.115   1.907 -0.4394 -1.7915  1.0949
 4819TIP3    H214464   1.858   2.167   2.048 -1.4424 -0.4082  0.5057
 4820TIP3   OH214465   5.343   0.008   2.601  0.1692 -0.2964 -0.0038
 4820TIP3    H114466   5.348   0.093   2.558  1.8017 -0.5293 -0.3343
 4820TIP3    H214467   5.425   0.001   2.650  0.0776 -1.6887 -0.0042
 4821TIP3   OH214468   3.514   5.207   2.666 -0.5850  0.1489 -0.0606
 4821TIP3    H114469   3.596   5.157   2.662  0.8153  2.3562 -0.7396
 4821TIP3    H214470   3.452   5.154   2.617  0.6169 -1.2510 -0.1579
 4822TIP3   OH214471   5.862   2.069   2.203  0.3368  0.2549  0.3693
 4822TIP3    H114472   5.808   2.070   2.282 -1.5132  0.2161 -0.8256
 4822TIP3    H214473   5.814   2.013   2.142  2.0814 -0.3092 -0.5544
 4823TIP3   OH214474   3.777   1.660   4.431 -0.1884  0.2451  0.2875
 4823TIP3    H114475   3.786   1.699   4.518  1.7353 -1.8979  1.1455
 4823TIP3    H214476   3.800   1.568   4.444  0.3616 -0.0899 -2.5381
 4824TIP3   OH214477   4.581   0.873   2.298  0.0299 -0.0796  0.0315
 4824TIP3    H114478   4.503   0.917   2.264 -0.5460 -1.7261 -0.8961
 4824TIP3    H214479   4.653   0.932   2.279 -0.4458 -0.3221 -2.9663
 4825TIP3   OH214480   2.458   2.409   2.665  0.4192 -0.0136  0.2355
 4825TIP3    H114481   2.505   2.490   2.645 -0.8872  0.4041 -1.4179
 4825TIP3    H214482   2.514   2.339   2.630  0.6561  0.3232 -0.0627
 4826TIP3   OH214483   4.969   5.831   0.675 -0.1885  0.4723  0.1944
 4826TIP3    H114484   5.040   5.865   0.621  0.3512  0.5677  0.9442
 4826TIP3    H214485   4.998   5.744   0.701 -0.9692 -0.0453 -0.6174
 4827TIP3   OH214486   2.396   2.340   5.138  0.4039  0.0083 -0.3188
 4827TIP3    H114487   2.360   2.254   5.117 -1.3567  0.7546 -0.5528
 4827TIP3    H214488   2.348   2.400   5.080  1.2345  1.1996  0.1964
 4828TIP3   OH214489   4.181   5.898   4.246  0.0048  0.2493 -0.2921
 4828TIP3    H114490   4.200   5.842   4.322 -0.5825 -0.5850 -0.7481
 4828TIP3    H214491   4.206   5.845   4.171  0.7504  1.1437 -0.6902
 4829TIP3   OH214492   3.267   1.226   1.292 -0.0185 -0.2420  0.3714
 4829TIP3    H114493   3.174   1.238   1.275  0.2145  0.4826 -0.5024
 4829TIP3    H214494   3.303   1.200   1.207  0.4049 -1.6825  0.9574
 4830TIP3   OH214495   1.509   3.021   5.197  0.0152  0.0242  0.5257
 4830TIP3    H114496   1.469   3.107   5.210 -0.5092 -0.2469  0.7208
 4830TIP3    H214497   1.500   3.005   5.103  1.7651  0.9815  0.1640
 4831TIP3   OH214498   5.352   4.763   2.231  0.1663  0.3523  0.2801
 4831TIP3    H114499   5.360   4.859   2.225  1.7385  0.2621  0.6491
 4831TIP3    H214500   5.331   4.747   2.323  1.5085  0.2600  0.5797
 4832TIP3   OH214501   5.842   2.971   0.282  0.5058  0.1747  0.1274
 4832TIP3    H114502   5.870   2.915   0.210 -1.3994 -0.3697 -0.2412
 4832TIP3    H214503   5.864   2.920   0.361 -1.1244 -1.1283 -0.1981
 4833TIP3   OH214504   4.527   3.746   2.477  0.9441  0.1965  0.3782
 4833TIP3    H114505   4.555   3.675   2.536 -2.1469 -0.4692  1.2774
 4833TIP3    H214506   4.481   3.701   2.406  0.1680  1.1974  0.2179
 4834TIP3   OH214507   0.957   2.332   2.076  0.5713 -0.0858 -0.5155
 4834TIP3    H114508   0.914   2.255   2.040  0.4188 -1.3330  2.0973
 4834TIP3    H214509   0.886   2.383   2.114  0.3538  2.5995 -4.0074
 4835TIP3   OH214510   4.743   5.514   1.342 -0.2265 -0.2288 -0.2462
 4835TIP3    H114511   4.798   5.532   1.266 -0.3291 -1.3387 -0.5976
 4835TIP3    H214512   4.792   5.448   1.392  1.2614  2.4763  2.2348
 4836TIP3   OH214513   0.504   4.608   2.932 -0.0589 -0.1574 -0.1459
 4836TIP3    H114514   0.526   4.667   2.860  0.0607  0.2209  0.1983
 4836TIP3    H214515   0.583   4.557   2.947  0.0481  0.0464 -0.0140
 4837TIP3   OH214516   0.156   1.611   0.129  0.2191  0.0017 -0.3878
 4837TIP3    H114517   0.077   1.557   0.123  0.1502 -0.0501  0.7370
 4837TIP3    H214518   0.217   1.559   0.181 -0.5226  1.6930  2.3911
 4838TIP3   OH214519   6.144   5.812   0.502  0.1657  0.5798  0.2783
 4838TIP3    H114520   6.236   5.819   0.531  0.9189  0.4202 -1.9036
 4838TIP3    H214521   6.125   5.719   0.505  0.4105  0.5102 -0.1553
 4839TIP3   OH214522   0.294   2.376   3.245 -0.4056 -0.1578  0.4596
 4839TIP3    H114523   0.267   2.455   3.291  0.3937  1.0712 -1.0547
 4839TIP3    H214524   0.212   2.336   3.216 -0.8215  0.1001  1.2544
 4840TIP3   OH214525   5.761   1.414   4.128  0.2200 -0.0192 -0.0463
 4840TIP3    H114526   5.823   1.365   4.075  0.5589 -0.4099  0.6904
 4840TIP3    H214527   5.677   1.404   4.083  0.9319  1.8543 -1.9490
 4841TIP3   OH214528   5.913   5.166   2.862  0.1705  0.3485 -0.0671
 4841TIP3    H114529   5.999   5.132   2.836  0.5110  1.4462 -0.4552
 4841TIP3    H214530   5.863   5.089   2.887  1.2639 -0.3129  0.1411
 4842TIP3   OH214531   5.504   1.935   2.616  0.1171 -0.3868  0.2474
 4842TIP3    H114532   5.473   2.025   2.611  1.2798 -0.0062 -0.2568
 4842TIP3    H214533   5.503   1.915   2.710  0.7246  0.4656  0.4451
 4843TIP3   OH214534   2.980   2.215   1.345 -0.1911 -0.7286  0.9375
 4843TIP3    H114535   3.059   2.250   1.387 -0.0927 -1.3575  1.2819
 4843TIP3    H214536   2.976   2.124   1.373 -1.0983 -0.6772  1.0136
 4844TIP3   OH214537   4.709   1.427   0.242 -0.0661 -0.4804  0.3991
 4844TIP3    H114538   4.740   1.410   0.331  0.0932 -1.7437  0.1271
 4844TIP3    H214539   4.617   1.402   0.244 -1.2309  3.2625  1.2082
 4845TIP3   OH214540   5.803   3.190   3.123  0.2275  0.0665 -0.5246
 4845TIP3    H114541   5.851   3.125   3.173  0.0868  1.2552  1.2371
 4845TIP3    H214542   5.713   3.182   3.153  0.1005  0.6650 -0.7269
 4846TIP3   OH214543   4.355   1.396   4.830 -0.1028 -0.5532  0.0067
 4846TIP3    H114544   4.433   1.405   4.885 -0.3647 -0.4270  0.3663
 4846TIP3    H214545   4.348   1.480   4.785  0.6444 -0.9851 -0.9502
 4847TIP3   OH214546   5.352   3.987   0.739 -0.1264 -0.5123  0.3630
 4847TIP3    H114547   5.317   3.899   0.726 -1.2555  0.1143 -1.1244
 4847TIP3    H214548   5.416   3.998   0.669 -1.2223  0.4291 -0.5343
 4848TIP3   OH214549   3.035   3.535   3.873 -0.2533 -0.1375 -0.5126
 4848TIP3    H114550   3.031   3.630   3.860 -0.2140 -0.3301 -2.2358
 4848TIP3    H214551   3.036   3.523   3.968  1.1199  1.6350 -0.2626
 4849TIP3   OH214552   6.069   1.592   0.352  0.1679 -0.1761 -0.2651
 4849TIP3    H114553   6.027   1.575   0.437  1.0705 -1.1620  0.0065
 4849TIP3    H214554   6.056   1.512   0.302  2.6847 -1.0030  0.2581
 4850TIP3   OH214555   5.100   5.012   0.192  0.1106 -0.2146 -0.2297
 4850TIP3    H114556   5.060   4.950   0.132  0.3355 -0.6984  0.1209
 4850TIP3    H214557   5.026   5.050   0.241  0.0548 -0.9827  0.2997
 4851TIP3   OH214558   1.397   0.073   3.500  0.1548 -0.0548 -0.2741
 4851TIP3    H114559   1.467   0.043   3.559 -0.3505 -0.6830  0.0236
 4851TIP3    H214560   1.376   0.161   3.531 -1.6462 -1.1646  2.0142
 4852TIP3   OH214561   0.316   0.212   5.054  0.9710  0.4338  0.2208
 4852TIP3    H114562   0.411   0.197   5.049  0.9027 -0.5322  1.2820
 4852TIP3    H214563   0.279   0.125   5.065 -0.2077  0.6308 -1.7332
 4853TIP3   OH214564   1.199   5.749   1.219 -0.4394 -0.0504  0.5261
 4853TIP3    H114565   1.223   5.829   1.172 -2.2804  0.8042  0.9518
 4853TIP3    H214566   1.233   5.762   1.307 -0.6027  0.2076  0.5528
 4854TIP3   OH214567   1.852   5.648   4.277  0.0585 -0.2330  0.1699
 4854TIP3    H114568   1.834   5.665   4.184 -0.8952  2.6979  0.8030
 4854TIP3    H214569   1.938   5.606   4.277  0.8706  1.2353 -1.9740
 4855TIP3   OH214570   3.618   3.327   1.621 -0.4870  0.5789 -0.1806
 4855TIP3    H114571   3.610   3.364   1.709 -1.1474 -0.3155  0.1560
 4855TIP3    H214572   3.543   3.268   1.613 -0.9908  1.3737 -1.7181
 4856TIP3   OH214573   5.962   0.135   4.059 -0.1107 -0.3756 -0.4560
 4856TIP3    H114574   6.029   0.198   4.031 -0.3043 -0.7593 -1.8166
 4856TIP3    H214575   5.977   0.126   4.154  1.1171  0.3028 -0.5588
 4857TIP3   OH214576   6.357   2.898   4.185  0.0185 -0.2412  0.0558
 4857TIP3    H114577   6.275   2.917   4.230 -1.0474  0.2909 -1.9934
 4857TIP3    H214578   6.339   2.915   4.093  2.2005 -0.9269 -0.5724
 4858TIP3   OH214579   4.430   1.336   0.194  0.5021 -0.5232 -0.3701
 4858TIP3    H114580   4.457   1.378   0.113 -0.4929 -0.1089 -0.5060
 4858TIP3    H214581   4.341   1.367   0.208 -0.0734 -2.1450 -0.1849
 4859TIP3   OH214582   2.538   3.677   0.450  0.2009  1.2483  0.2360
 4859TIP3    H114583   2.573   3.591   0.473  0.9185  1.8885  1.6813
 4859TIP3    H214584   2.447   3.661   0.428  1.1848 -0.4442 -3.3714
 4860TIP3   OH214585   0.994   5.124   2.610  0.2160 -0.4747 -0.6748
 4860TIP3    H114586   1.039   5.121   2.695 -0.6782  0.4725 -0.1351
 4860TIP3    H214587   0.999   5.034   2.577  0.0606 -1.0119  0.6732
 4861TIP3   OH214588   6.191   5.964   0.250  0.2477 -0.0586 -0.2917
 4861TIP3    H114589   6.123   6.020   0.287  0.7463 -0.9223  2.0811
 4861TIP3    H214590   6.162   5.875   0.269  0.5928 -0.5659 -1.9696
 4862TIP3   OH214591   2.236   3.052   3.663  0.4922 -0.3267  0.0791
 4862TIP3    H114592   2.318   3.063   3.615  0.1082 -0.1296 -0.5417
 4862TIP3    H214593   2.209   3.141   3.687 -1.6341  0.1268 -3.2977
 4863TIP3   OH214594   6.016   3.075   0.003 -0.1589  0.1210  0.5446
 4863TIP3    H114595   5.993   2.983  -0.003  0.0804  0.1132 -0.3633
 4863TIP3    H214596   6.077   3.080   0.076 -0.8435 -0.2991  1.1563
 4864TIP3   OH214597   1.724   2.232   0.189 -0.0744 -0.6020  0.2690
 4864TIP3    H114598   1.769   2.151   0.166 -1.9090 -1.1591 -1.6037
 4864TIP3    H214599   1.647   2.204   0.239  1.5430  0.3462  3.5976
 4865TIP3   OH214600   4.002   3.689   4.621  0.2932 -0.1597  0.6926
 4865TIP3    H114601   4.018   3.647   4.705  0.2883  1.6055  1.6180
 4865TIP3    H214602   3.922   3.648   4.588  0.3278 -0.9081  1.5097
 4866TIP3   OH214603   2.782   5.099   0.426 -0.3470  0.5342 -0.1183
 4866TIP3    H114604   2.746   5.083   0.514 -1.6082 -0.8369 -0.8408
 4866TIP3    H214605   2.738   5.179   0.396 -2.3225 -0.6812 -0.6706
 4867TIP3   OH214606   4.704   5.859   5.142 -0.1623 -0.2652  0.3207
 4867TIP3    H114607   4.761   5.924   5.183 -1.2299  0.8258  0.1476
 4867TIP3    H214608   4.757   5.821   5.072  0.4389  0.5315  0.3276
 4868TIP3   OH214609   2.163   0.385   3.946 -0.2207 -0.3900  0.1864
 4868TIP3    H114610   2.158   0.417   3.855 -0.2148 -1.2365 -0.1238
 4868TIP3    H214611   2.227   0.443   3.988  1.3401 -1.2333 -0.9134
 4869TIP3   OH214612   2.789   0.570   2.760  0.6138 -0.4136  0.2639
 4869TIP3    H114613   2.706   0.523   2.750  0.6763 -0.2947 -1.0762
 4869TIP3    H214614   2.791   0.596   2.852 -0.1852 -1.6032  0.6379
 4870TIP3   OH214615   0.425   0.683   0.733 -0.5456 -0.4125 -0.5964
 4870TIP3    H114616   0.470   0.620   0.789  1.6536  0.5653 -1.1506
 4870TIP3    H214617   0.456   0.664   0.644  0.3064  1.4908 -0.7671
 4871TIP3   OH214618   1.060   1.613   4.945  0.1360  0.7440  0.3704
 4871TIP3    H114619   1.066   1.571   4.859  0.6567  0.9757  0.2934
 4871TIP3    H214620   0.975   1.585   4.979 -0.2818  1.0027 -0.4128
 4872TIP3   OH214621   5.313   5.627   1.841  0.4591 -0.2411 -0.1071
 4872TIP3    H114622   5.368   5.624   1.762  1.7026 -0.8267  0.7557
 4872TIP3    H214623   5.236   5.678   1.815  0.9277 -0.2792 -1.6443
 4873TIP3   OH214624   2.178   3.347   3.778  0.0209  0.2225 -0.3640
 4873TIP3    H114625   2.170   3.298   3.860 -0.0751  0.2369 -0.3653
 4873TIP3    H214626   2.130   3.428   3.794  2.6034  1.6566  0.6957
 4874TIP3   OH214627   2.881   4.985   2.451  0.1246  0.0271  0.1027
 4874TIP3    H114628   2.936   5.062   2.469  0.2069  0.1435 -0.6265
 4874TIP3    H214629   2.851   4.997   2.361 -1.6673  0.3027  0.6994
 4875TIP3   OH214630   1.601   0.211   4.125  0.2569  0.1474  0.6320
 4875TIP3    H114631   1.632   0.142   4.066  0.6410  2.1578 -1.6893
 4875TIP3    H214632   1.681   0.248   4.163  0.2007  0.5987  0.3175
 4876TIP3   OH214633   6.114   4.144   3.620  0.4025 -0.5022  0.4312
 4876TIP3    H114634   6.187   4.150   3.681 -0.9254  0.2449  2.0122
 4876TIP3    H214635   6.124   4.057   3.579  1.7568 -0.6942  1.1250
 4877TIP3   OH214636   3.234   2.701   0.599  0.8825  0.2888 -0.5290
 4877TIP3    H114637   3.223   2.682   0.506  1.4285 -0.6401 -0.4138
 4877TIP3    H214638   3.316   2.750   0.605  1.3703 -0.5185 -0.4430
 4878TIP3   OH214639   2.254   4.269   4.090 -0.0166  0.3670 -0.0911
 4878TIP3    H114640   2.321   4.200   4.089  0.9787  1.3216 -0.0051
 4878TIP3    H214641   2.172   4.222   4.072  0.4994 -0.9880  0.9253
 4879TIP3   OH214642   0.041   0.763   2.134 -0.8835  0.3031 -0.0480
 4879TIP3    H114643  -0.042   0.800   2.105 -0.9894  0.0611 -0.0602
 4879TIP3    H214644   0.051   0.684   2.082 -0.9619 -0.0128  0.4092
 4880TIP3   OH214645   2.327   1.104   0.185  0.1885 -0.4186 -0.1256
 4880TIP3    H114646   2.270   1.028   0.193 -0.4194 -0.1664 -1.8290
 4880TIP3    H214647   2.393   1.078   0.121  0.7939  0.0102  0.3165
 4881TIP3   OH214648   5.078   0.994   0.995  0.2837 -0.0207 -0.3687
 4881TIP3    H114649   5.087   1.011   0.901 -1.3640  0.0186 -0.5351
 4881TIP3    H214650   5.044   1.075   1.032 -0.6060 -0.5555  0.0050
 4882TIP3   OH214651   2.808   2.787   3.846 -0.1214 -0.1835  0.3093
 4882TIP3    H114652   2.778   2.697   3.853 -1.2729  0.2770  1.7524
 4882TIP3    H214653   2.849   2.792   3.759 -0.6384 -1.8938 -0.0698
 4883TIP3   OH214654   4.230   0.050   2.283  0.2528 -0.1089  0.3063
 4883TIP3    H114655   4.202   0.109   2.213  0.1755 -0.7606 -0.2221
 4883TIP3    H214656   4.189   0.086   2.362  0.1511  0.4994 -0.0174
 4884TIP3   OH214657   4.868   5.350   0.763 -0.3542  0.0147 -0.0645
 4884TIP3    H114658   4.912   5.298   0.696 -2.5689 -0.5866 -1.1537
 4884TIP3    H214659   4.815   5.286   0.811 -0.0657  0.6975  1.1929
 4885TIP3   OH214660   0.231   1.735   0.974  0.3080 -0.0989  0.9144
 4885TIP3    H114661   0.216   1.809   0.915 -0.9332  0.5074  1.9542
 4885TIP3    H214662   0.147   1.688   0.975  1.0976 -1.6046  0.1995
 4886TIP3   OH214663   5.678   1.744   5.032 -0.5423 -0.4544 -0.2930
 4886TIP3    H114664   5.656   1.652   5.019 -1.5822  0.0285 -2.6035
 4886TIP3    H214665   5.594   1.786   5.049  0.0592 -0.0483  1.9356
 4887TIP3   OH214666   3.132   3.941   2.661 -0.4655 -0.5481  0.8900
 4887TIP3    H114667   3.182   4.022   2.669  1.3373 -1.2703 -1.8632
 4887TIP3    H214668   3.159   3.889   2.737  0.1797  0.4884  1.3992
 4888TIP3   OH214669   1.102   2.965   3.875  0.5577  0.1102 -0.3188
 4888TIP3    H114670   1.180   2.912   3.894 -0.3142 -1.2779 -0.5192
 4888TIP3    H214671   1.079   2.944   3.785 -0.0510  0.5130 -0.2656
 4889TIP3   OH214672   4.410   5.867   3.803  0.0356  0.3490 -0.9391
 4889TIP3    H114673   4.485   5.918   3.773  1.5011  0.7861  2.8907
 4889TIP3    H214674   4.446   5.782   3.827 -0.8504  0.2518  0.1388
 4890TIP3   OH214675   5.607   3.216   2.837  0.7025 -0.1205  0.0657
 4890TIP3    H114676   5.622   3.284   2.771 -0.1640 -0.4419 -0.4920
 4890TIP3    H214677   5.664   3.144   2.810  0.0515 -0.4088 -0.6032
 4891TIP3   OH214678   4.758   3.694   4.189 -0.1962 -0.4727  0.2715
 4891TIP3    H114679   4.829   3.650   4.234  1.0250  0.7227 -0.4021
 4891TIP3    H214680   4.694   3.625   4.170  0.4879 -1.4554  1.4229
 4892TIP3   OH214681   4.793   1.798   1.593  0.1031 -0.6776  0.3314
 4892TIP3    H114682   4.887   1.811   1.609  0.3931 -3.9446  2.1097
 4892TIP3    H214683   4.757   1.779   1.679 -2.2552  0.3921 -0.3367
 4893TIP3   OH214684   1.414   1.984   3.929  0.1907 -0.2223  0.0759
 4893TIP3    H114685   1.427   1.931   4.008  2.1333  0.6092  0.3742
 4893TIP3    H214686   1.413   1.921   3.857  2.4120 -0.7500  0.4241
 4894TIP3   OH214687   1.713   5.133   0.774  0.1935  0.0771  0.2253
 4894TIP3    H114688   1.683   5.044   0.793  2.3222 -0.8795 -0.5866
 4894TIP3    H214689   1.732   5.171   0.861  0.7075 -0.8244  0.5232
 4895TIP3   OH214690   6.153   1.221   3.808 -0.0959 -0.5211  0.2329
 4895TIP3    H114691   6.184   1.246   3.721 -0.0865 -1.3586 -0.0118
 4895TIP3    H214692   6.109   1.137   3.795  1.9592 -1.8846  1.3647
 4896TIP3   OH214693   4.310   1.033   1.653 -0.2044 -0.6250 -0.6110
 4896TIP3    H114694   4.270   1.113   1.618  1.3769  1.3738  1.7572
 4896TIP3    H214695   4.386   1.018   1.598  1.8535  2.0653  1.2111
 4897TIP3   OH214696   1.410   5.438   3.810  0.1664  0.8154 -0.1338
 4897TIP3    H114697   1.396   5.423   3.717  1.5563  0.9721 -0.3803
 4897TIP3    H214698   1.398   5.533   3.822  0.5511  0.8758 -0.2468
 4898TIP3   OH214699   3.323   0.139   3.640  0.4604  0.0729  0.7823
 4898TIP3    H114700   3.311   0.046   3.623  3.5544 -0.5479  1.3360
 4898TIP3    H214701   3.405   0.161   3.594  0.0946  2.4000  1.1116
 4899TIP3   OH214702   0.654   0.975   0.365  0.2003 -0.0839 -0.1462
 4899TIP3    H114703   0.650   1.001   0.457 -0.4528  0.1939 -0.2478
 4899TIP3    H214704   0.725   0.910   0.362 -1.1702 -1.7048  0.9356
 4900TIP3   OH214705   2.383   0.495   4.082 -0.2044  0.4993 -0.1337
 4900TIP3    H114706   2.472   0.459   4.089 -0.3284  0.0021 -1.0296
 4900TIP3    H214707   2.373   0.548   4.162  1.3213  1.5167 -0.5745
 4901TIP3   OH214708   5.255   4.999   2.056  0.1628 -0.1301 -0.5193
 4901TIP3    H114709   5.305   5.061   2.003  1.5495 -1.1969 -0.5273
 4901TIP3    H214710   5.245   4.923   1.999  2.4020 -1.6241  0.9196
 4902TIP3   OH214711   6.020   1.998   5.125  0.1534  0.1242 -0.4296
 4902TIP3    H114712   6.068   1.915   5.130 -0.2986 -0.1444 -0.5513
 4902TIP3    H214713   6.087   2.064   5.142  1.1568 -0.0627 -3.0337
 4903TIP3   OH214714   2.187   2.789   1.943  0.0298 -0.3270 -0.3529
 4903TIP3    H114715   2.208   2.716   2.001 -1.8243  0.1690  1.0778
 4903TIP3    H214716   2.137   2.749   1.871 -0.7166 -0.5431  0.2681
 4904TIP3   OH214717   2.246   5.321   1.101 -0.5956 -0.3091 -0.3784
 4904TIP3    H114718   2.321   5.310   1.042  0.7022  1.3354  0.8600
 4904TIP3    H214719   2.170   5.298   1.047  0.6987 -1.1635 -1.9534
 4905TIP3   OH214720   0.572   0.206   2.584 -0.0488 -0.1716 -0.5798
 4905TIP3    H114721   0.609   0.288   2.550 -1.0276  0.5862  0.1183
 4905TIP3    H214722   0.648   0.156   2.614  0.5498  0.5699 -0.8281
 4906TIP3   OH214723   3.337   5.423   2.028  0.4254 -0.8470 -0.1788
 4906TIP3    H114724   3.321   5.468   2.112  0.1915  0.1026 -0.7170
 4906TIP3    H214725   3.265   5.361   2.020  0.2295 -0.6652  0.1390
 4907TIP3   OH214726   0.351   3.999   0.801  0.2285  0.0523 -0.5663
 4907TIP3    H114727   0.408   3.985   0.726 -1.0160  1.7282 -1.9058
 4907TIP3    H214728   0.326   4.092   0.795 -1.1223 -0.1642  1.0349
 4908TIP3   OH214729   2.752   3.604   0.875 -0.2219  0.7924 -0.2153
 4908TIP3    H114730   2.840   3.613   0.839  0.1063 -0.7415  0.1525
 4908TIP3    H214731   2.753   3.522   0.924 -1.9895  0.4897 -0.5848
 4909TIP3   OH214732   0.398   1.285   1.607 -0.0619 -0.5229 -0.6793
 4909TIP3    H114733   0.309   1.294   1.574 -0.1585 -0.2813 -0.3633
 4909TIP3    H214734   0.400   1.340   1.686 -0.1727 -1.9401  0.3499
 4910TIP3   OH214735   1.604   3.164   3.454  0.0836  0.9153 -0.5644
 4910TIP3    H114736   1.560   3.239   3.415 -0.2828  0.7034 -0.5692
 4910TIP3    H214737   1.563   3.154   3.540 -2.9093 -1.7490 -2.0438
 4911TIP3   OH214738   2.610   3.819   2.305  0.0436  0.4999 -0.0613
 4911TIP3    H114739   2.633   3.828   2.212 -0.9410  1.3434 -0.2442
 4911TIP3    H214740   2.527   3.867   2.314 -0.5113 -0.5968  1.0065
 4912TIP3   OH214741   5.251   2.343   0.119 -0.2216  0.0083 -0.5546
 4912TIP3    H114742   5.232   2.382   0.204  0.8716  0.9029 -0.6911
 4912TIP3    H214743   5.174   2.361   0.066 -1.3746 -1.4708  0.5091
 4913TIP3   OH214744   4.589   0.413  -0.019 -0.1143  0.4271 -0.0755
 4913TIP3    H114745   4.557   0.485   0.036  1.0081  0.9890 -0.1270
 4913TIP3    H214746   4.684   0.416  -0.010  0.1807  1.0440 -2.6568
 4914TIP3   OH214747   1.262   3.255   3.589 -0.3446  0.4448 -0.3031
 4914TIP3    H114748   1.248   3.347   3.563  0.2947  0.1690 -1.7089
 4914TIP3    H214749   1.329   3.260   3.658 -1.8560  1.1714  1.1993
 4915TIP3   OH214750   1.899   1.238   2.037  0.0199 -0.1820 -0.4986
 4915TIP3    H114751   1.870   1.180   1.967 -2.0908 -0.0059  0.1775
 4915TIP3    H214752   1.851   1.319   2.023 -0.8639 -0.3244  1.4364
 4916TIP3   OH214753   5.403   4.524   3.994  0.6312  0.2025 -0.2806
 4916TIP3    H114754   5.495   4.513   3.969  0.8786  0.1052  0.6577
 4916TIP3    H214755   5.388   4.455   4.058  0.2893  1.0675  0.5913
 4917TIP3   OH214756   2.701   5.899   4.685 -0.0713  0.0939 -0.0018
 4917TIP3    H114757   2.668   5.968   4.628  1.6449  0.7436 -0.2881
 4917TIP3    H214758   2.752   5.945   4.752  0.7806 -0.8460  0.0352
 4918TIP3   OH214759   5.155   3.755   0.440  0.9304 -0.5489 -0.6841
 4918TIP3    H114760   5.082   3.794   0.393  1.4503  0.2240 -0.8715
 4918TIP3    H214761   5.190   3.689   0.381  0.5391 -0.7496 -0.6919
 4919TIP3   OH214762   2.386   1.708   4.093 -0.0350  0.2163  0.1377
 4919TIP3    H114763   2.345   1.776   4.040  1.2186 -0.0864 -1.2996
 4919TIP3    H214764   2.480   1.718   4.077  0.2189 -1.5668  0.2212
 4920TIP3   OH214765   4.258   3.781   4.017  0.7336 -1.1001 -0.1912
 4920TIP3    H114766   4.244   3.704   4.073  0.2837 -1.5179 -0.8612
 4920TIP3    H214767   4.198   3.768   3.944 -0.4443  0.6155  0.3966
 4921TIP3   OH214768   4.535   2.508   4.138 -0.3933  0.3708  0.3258
 4921TIP3    H114769   4.492   2.453   4.204  0.1570 -0.6404 -0.1328
 4921TIP3    H214770   4.472   2.511   4.066  0.0359 -0.6607 -0.1237
 4922TIP3   OH214771   5.655   3.179   1.305  0.0484  0.1684  0.4049
 4922TIP3    H114772   5.744   3.143   1.305  0.6845  1.6487 -0.6847
 4922TIP3    H214773   5.666   3.269   1.275 -1.8830  0.2681 -0.0928
 4923TIP3   OH214774   0.684   2.401   2.079 -0.1329 -0.3567  0.2694
 4923TIP3    H114775   0.612   2.446   2.034 -0.2821  0.9609  1.7243
 4923TIP3    H214776   0.664   2.308   2.069 -0.2926 -0.1454 -2.0897
 4924TIP3   OH214777   0.378   0.465   3.475 -0.1718 -0.1119  0.2380
 4924TIP3    H114778   0.352   0.383   3.517  1.8441 -0.8364  0.2160
 4924TIP3    H214779   0.357   0.533   3.539  0.2515 -0.9031  1.2456
 4925TIP3   OH214780   1.884   2.817   0.695 -0.4274  0.1135 -0.6673
 4925TIP3    H114781   1.912   2.780   0.611 -0.4076  0.0142 -0.6172
 4925TIP3    H214782   1.964   2.847   0.736 -0.4952  0.6138 -0.9006
 4926TIP3   OH214783   2.411   1.463   0.107 -0.0209 -0.1649 -0.6599
 4926TIP3    H114784   2.343   1.406   0.071 -0.6824  0.3688 -0.2834
 4926TIP3    H214785   2.384   1.479   0.198  1.2580 -0.9402 -0.1059
 4927TIP3   OH214786   4.135   4.371   4.493  0.3771 -0.5239  0.2355
 4927TIP3    H114787   4.096   4.420   4.420 -0.2797 -0.8070  0.3912
 4927TIP3    H214788   4.088   4.288   4.494 -0.7347  0.0924  1.9749
 4928TIP3   OH214789   4.833   4.163   3.752 -0.3677 -0.5351 -0.4433
 4928TIP3    H114790   4.776   4.087   3.759 -0.7068 -0.2942 -0.6050
 4928TIP3    H214791   4.913   4.129   3.713 -0.7200 -0.7048 -1.0218
 4929TIP3   OH214792   3.309   0.492   4.327  0.5056 -0.5475  0.0010
 4929TIP3    H114793   3.236   0.553   4.314  1.1515  0.7875  2.1738
 4929TIP3    H214794   3.269   0.406   4.318 -0.9138  0.1558 -0.8900
 4930TIP3   OH214795   1.696   4.263   4.244 -0.3633  0.5873  0.3079
 4930TIP3    H114796   1.781   4.301   4.221 -0.4578  0.6168  0.0096
 4930TIP3    H214797   1.701   4.248   4.339  0.6538 -1.0983  0.0310
 4931TIP3   OH214798   4.779   3.167   3.882 -0.0820  0.0378  0.4650
 4931TIP3    H114799   4.728   3.196   3.806 -0.2627  0.3577  0.7045
 4931TIP3    H214800   4.866   3.149   3.847 -0.1736  0.1560  0.1737
 4932TIP3   OH214801   5.045   0.449   1.555 -0.1667 -0.6808  0.0581
 4932TIP3    H114802   5.113   0.387   1.529 -0.5957 -1.8853  1.6090
 4932TIP3    H214803   4.968   0.422   1.506 -0.3359 -1.3793  0.6847
 4933TIP3   OH214804   6.247   1.663   2.599  0.9311  0.1556  0.0492
 4933TIP3    H114805   6.309   1.652   2.671 -0.7028 -1.3646  1.2958
 4933TIP3    H214806   6.163   1.680   2.642  0.1461  0.4648 -1.5427
 4934TIP3   OH214807   4.860   4.026   5.070 -0.6059 -0.2035 -0.0750
 4934TIP3    H114808   4.798   4.057   5.135  0.4197 -0.0046  0.8262
 4934TIP3    H214809   4.880   3.936   5.096 -0.6553 -0.3340 -0.4722
 4935TIP3   OH214810   3.807   0.505   4.946  0.4727 -0.4126 -0.4011
 4935TIP3    H114811   3.747   0.438   4.914  0.7477 -0.2775 -1.2365
 4935TIP3    H214812   3.834   0.553   4.867 -1.1905  1.9524  0.3547
 4936TIP3   OH214813   4.989   4.755   2.135  0.2231 -0.5774 -0.5398
 4936TIP3    H114814   4.903   4.713   2.143 -0.7323  1.2015 -0.9362
 4936TIP3    H214815   4.988   4.825   2.201  2.0194 -1.5204  0.5507
 4937TIP3   OH214816   5.589   5.707   1.247 -0.8562  0.0510  0.0373
 4937TIP3    H114817   5.580   5.621   1.206 -0.4981 -0.0678  0.2009
 4937TIP3    H214818   5.605   5.767   1.174  3.6759 -0.6792  0.1145
 4938TIP3   OH214819   0.965   2.928   2.438  0.0624  0.1917 -0.1529
 4938TIP3    H114820   1.013   2.867   2.383  1.1839  0.8447  0.0705
 4938TIP3    H214821   1.014   3.010   2.432  1.1703 -0.0956  3.0061
 4939TIP3   OH214822   1.152   0.665   5.007  0.1773 -0.1197 -0.3750
 4939TIP3    H114823   1.215   0.727   4.971 -0.1874  0.5920  0.1976
 4939TIP3    H214824   1.114   0.710   5.083 -1.2769 -0.3920 -0.9028
 4940TIP3   OH214825   3.465   5.108   2.922 -0.3899  0.3574  0.4838
 4940TIP3    H114826   3.524   5.182   2.939 -1.4173  1.1226  0.8630
 4940TIP3    H214827   3.485   5.081   2.832  1.5664 -0.3952  1.1116
 4941TIP3   OH214828   4.252   1.674   3.020 -0.0039 -0.4313  0.2054
 4941TIP3    H114829   4.232   1.671   2.927 -1.7897  1.6095  0.4398
 4941TIP3    H214830   4.335   1.723   3.025  0.7071 -1.5348 -0.3238
 4942TIP3   OH214831   0.055   1.257   5.095 -0.2219  0.0927  0.1560
 4942TIP3    H114832   0.143   1.220   5.103  0.0669  0.7202 -0.0172
 4942TIP3    H214833   0.020   1.255   5.184 -0.5132 -1.2766  0.0408
 4943TIP3   OH214834   2.407   4.532   2.803 -0.0054  0.0772  0.2911
 4943TIP3    H114835   2.387   4.595   2.734  1.0139  0.2807  0.1687
 4943TIP3    H214836   2.378   4.575   2.884  0.9260  0.8320  0.2413
 4944TIP3   OH214837   2.412   1.426   3.747 -0.3532  0.0215 -0.0202
 4944TIP3    H114838   2.385   1.334   3.746 -1.2389  0.2745 -0.0413
 4944TIP3    H214839   2.428   1.447   3.655  0.5687 -0.3080  0.0550
 4945TIP3   OH214840   3.497   1.742   2.177 -0.1112 -0.2104 -0.0852
 4945TIP3    H114841   3.523   1.825   2.216 -0.3004  0.7340 -1.8421
 4945TIP3    H214842   3.562   1.679   2.207 -0.1322  0.5015  1.5173
 4946TIP3   OH214843   2.419   2.753   2.288 -0.2513 -0.0119 -0.0070
 4946TIP3    H114844   2.440   2.828   2.344 -1.1364  0.9172 -0.8843
 4946TIP3    H214845   2.499   2.739   2.237 -0.3052  0.8010 -0.3388
 4947TIP3   OH214846   5.401   1.463   4.788  0.4816 -0.2677 -0.5715
 4947TIP3    H114847   5.332   1.399   4.804 -1.0104  1.5338  0.6748
 4947TIP3    H214848   5.465   1.448   4.858  0.0035 -0.2404 -0.1212
 4948TIP3   OH214849   0.493   3.912   4.826  0.4719  0.7672 -0.0701
 4948TIP3    H114850   0.463   3.965   4.753  0.3052 -0.4464 -0.9242
 4948TIP3    H214851   0.520   3.975   4.893 -0.2185  1.8983 -0.8239
 4949TIP3   OH214852   2.973   0.102   2.003  0.3160  0.1454 -0.0713
 4949TIP3    H114853   2.886   0.100   1.965  0.8650 -1.4597 -1.3687
 4949TIP3    H214854   2.971   0.175   2.065 -1.9467  0.0813 -0.0095
 4950TIP3   OH214855   0.028   3.110   5.197  0.3331 -0.0567 -0.1156
 4950TIP3    H114856  -0.046   3.170   5.205 -0.9616 -1.5750 -0.3299
 4950TIP3    H214857   0.079   3.145   5.124  0.3636  1.5316  0.6246
 4951TIP3   OH214858   3.593   0.225   0.411 -0.5210  0.4180  0.4323
 4951TIP3    H114859   3.508   0.256   0.440  0.0026  1.0620  1.3122
 4951TIP3    H214860   3.633   0.302   0.369 -0.1525  0.2742  0.5203
 4952TIP3   OH214861   5.296   3.745   4.050 -0.7759  0.4762  0.1922
 4952TIP3    H114862   5.227   3.778   3.992  0.6590 -0.3361 -2.1181
 4952TIP3    H214863   5.321   3.661   4.012  2.6180  1.4660 -0.1181
 4953TIP3   OH214864   5.976   0.889   1.595  0.1894  0.2656 -0.5656
 4953TIP3    H114865   6.046   0.848   1.543  0.3550  0.5413 -0.5634
 4953TIP3    H214866   5.944   0.819   1.651 -0.5133 -0.2523 -1.5731
 4954TIP3   OH214867   4.534   2.046   0.825 -0.1306  0.1597 -0.2038
 4954TIP3    H114868   4.599   2.004   0.882  1.0986  2.2558  0.0646
 4954TIP3    H214869   4.506   2.123   0.874 -2.1432 -0.1807 -0.7517
 4955TIP3   OH214870   3.221   2.645   1.106  0.6769  0.4731 -0.0277
 4955TIP3    H114871   3.248   2.647   1.197  1.7421  2.0264 -0.3402
 4955TIP3    H214872   3.138   2.692   1.104  0.7609  0.6285  0.1208
 4956TIP3   OH214873   2.073   2.708   4.401  0.1785  0.3308 -0.3987
 4956TIP3    H114874   2.070   2.659   4.319  1.4856 -1.3650  0.5141
 4956TIP3    H214875   2.165   2.711   4.425 -0.2048  0.4697  1.1902
 4957TIP3   OH214876   6.051   5.486   5.078 -0.8971  0.2928  0.4236
 4957TIP3    H114877   5.966   5.513   5.045 -0.2592  4.2961  1.5617
 4957TIP3    H214878   6.035   5.463   5.170 -0.6629  2.0046  0.9175
 4958TIP3   OH214879   0.867   2.205   0.670  0.0772 -0.0370 -0.4790
 4958TIP3    H114880   0.868   2.121   0.622 -2.0737 -0.1081 -0.4799
 4958TIP3    H214881   0.902   2.183   0.756 -3.2156 -1.7565  0.6199
 4959TIP3   OH214882   5.265   5.812   5.178  0.1056  0.0715  0.0143
 4959TIP3    H114883   5.333   5.837   5.240 -0.7343  0.3368  0.8577
 4959TIP3    H214884   5.311   5.764   5.110  1.5306  2.3233 -0.7372
 4960TIP3   OH214885   2.159   5.231   5.036 -0.3170 -0.4497  0.3286
 4960TIP3    H114886   2.126   5.250   4.948 -0.2732  1.9361  0.7619
 4960TIP3    H214887   2.081   5.231   5.091 -0.2598 -1.1845  0.4183
 4961TIP3   OH214888   1.176   4.266   2.190  0.1866  0.4727  0.6631
 4961TIP3    H114889   1.255   4.306   2.153  1.1160 -0.8871  1.0843
 4961TIP3    H214890   1.203   4.237   2.277 -0.3399 -1.2778  0.2826
 4962TIP3   OH214891   4.190   1.879   1.452  0.3950 -0.6882  0.1370
 4962TIP3    H114892   4.273   1.853   1.412 -0.1616  0.7055 -2.0891
 4962TIP3    H214893   4.215   1.942   1.519  1.1995 -1.0454  0.1910
 4963TIP3   OH214894   3.813   3.298   2.230 -0.6363  0.7746  0.3324
 4963TIP3    H114895   3.784   3.211   2.259 -1.7192  0.8177 -0.5301
 4963TIP3    H214896   3.794   3.356   2.303 -0.9694  0.4681  0.4907
 4964TIP3   OH214897   0.148   1.127   1.907 -0.0383 -0.1414 -0.3757
 4964TIP3    H114898   0.151   1.073   1.829 -1.5867  0.4305 -0.8638
 4964TIP3    H214899   0.133   1.216   1.875 -0.0910  0.1954  0.5349
 4965TIP3   OH214900   5.869   3.833   4.609 -0.0863  0.3842 -0.4055
 4965TIP3    H114901   5.921   3.825   4.528  0.6739  1.3089 -0.0289
 4965TIP3    H214902   5.843   3.743   4.629  0.3384  0.0508 -1.2818
 4966TIP3   OH214903   3.146   0.174   3.887  0.3158  0.2096 -0.4730
 4966TIP3    H114904   3.231   0.176   3.930 -0.0323 -0.1992  0.2621
 4966TIP3    H214905   3.154   0.235   3.814  0.7785  1.2964  0.4582
 4967TIP3   OH214906   1.221   1.978   1.773 -0.2869  0.5911 -0.9274
 4967TIP3    H114907   1.178   2.000   1.856  1.2890 -0.1326  0.1286
 4967TIP3    H214908   1.157   1.925   1.726 -0.4027 -0.9466  0.8498
 4968TIP3   OH214909   0.617   0.928   1.393 -0.5237  0.2327  0.3476
 4968TIP3    H114910   0.655   0.847   1.427  0.1023  0.3268 -0.1039
 4968TIP3    H214911   0.551   0.952   1.457  0.3975  0.2301  1.3321
 4969TIP3   OH214912   3.486   4.056   3.573  0.1895 -0.7835 -0.3821
 4969TIP3    H114913   3.573   4.061   3.534  0.8831 -1.0862  1.0551
 4969TIP3    H214914   3.459   3.965   3.561  0.0389 -0.6681 -0.9073
 4970TIP3   OH214915   3.624   0.561   2.442  0.0313  0.3649  0.0748
 4970TIP3    H114916   3.709   0.603   2.455 -0.0468  0.3774  0.5863
 4970TIP3    H214917   3.619   0.545   2.348  0.6432  0.2707  0.0545
 4971TIP3   OH214918   3.817   0.291   0.583 -0.1234 -0.0790  0.2318
 4971TIP3    H114919   3.770   0.359   0.535  2.2739  2.4017  1.1781
 4971TIP3    H214920   3.759   0.268   0.656 -1.3703  0.2033 -0.6436
 4972TIP3   OH214921   5.368   1.641   2.757  0.4845 -0.4257  0.3480
 4972TIP3    H114922   5.301   1.685   2.808 -2.1593 -1.6025 -1.8606
 4972TIP3    H214923   5.374   1.692   2.676  0.4632 -1.6844 -0.4800
 4973TIP3   OH214924   0.755   4.498   0.761  0.5355 -0.0481  0.1035
 4973TIP3    H114925   0.740   4.412   0.721 -1.3999  0.7403 -0.9868
 4973TIP3    H214926   0.801   4.548   0.693  0.3340  0.2446  0.1832
 4974TIP3   OH214927   5.188   4.170   3.987 -0.0273 -0.2109  0.0432
 4974TIP3    H114928   5.249   4.107   3.950  0.1297 -0.2645  0.3834
 4974TIP3    H214929   5.157   4.221   3.912  0.1414 -0.4368 -0.1814
 4975TIP3   OH214930   0.281   0.249   0.206 -0.3419  0.0069  0.1704
 4975TIP3    H114931   0.263   0.225   0.115 -0.6718  0.1139  0.2048
 4975TIP3    H214932   0.227   0.189   0.257 -0.8833  0.5639  0.2671
 4976TIP3   OH214933   5.217   4.104   1.126 -0.1716 -0.5326 -0.5704
 4976TIP3    H114934   5.141   4.107   1.068  0.2388 -0.2006 -1.1014
 4976TIP3    H214935   5.291   4.087   1.067  0.0488 -1.8153  0.0420
 4977TIP3   OH214936   6.277   2.236   2.904 -0.4116 -0.0595  0.3029
 4977TIP3    H114937   6.268   2.144   2.879 -0.4927  0.0896 -0.2251
 4977TIP3    H214938   6.305   2.280   2.824  2.9804 -0.1469  1.3097
 4978TIP3   OH214939   2.812   2.961   0.541  0.6061  0.4779  0.1724
 4978TIP3    H114940   2.858   2.909   0.606 -0.4446  1.1913  1.5412
 4978TIP3    H214941   2.871   3.034   0.523  0.4060  0.9177  1.2495
 4979TIP3   OH214942   3.317   3.485   2.436  0.3485 -0.2251  0.1744
 4979TIP3    H114943   3.376   3.478   2.361 -2.6896 -0.4529 -2.4113
 4979TIP3    H214944   3.322   3.577   2.462  0.2021  0.2830 -1.4807
 4980TIP3   OH214945   0.596   2.342   3.959  0.0346  0.2430  0.5697
 4980TIP3    H114946   0.632   2.394   3.887 -0.4690  1.2646  1.0420
 4980TIP3    H214947   0.660   2.272   3.972 -0.3659 -0.6048 -1.5647
 4981TIP3   OH214948   2.756   0.834   2.663 -0.2229 -0.0254 -0.0212
 4981TIP3    H114949   2.707   0.763   2.621 -0.5288 -0.0822  0.4293
 4981TIP3    H214950   2.701   0.911   2.652 -1.2907 -0.4441  2.0820
 4982TIP3   OH214951   3.022   1.678   1.362  0.0774  0.1746 -0.1595
 4982TIP3    H114952   2.944   1.646   1.315  0.0806  0.6248 -0.4754
 4982TIP3    H214953   3.093   1.666   1.300  0.6851 -2.3059  0.8828
 4983TIP3   OH214954   5.980   5.260   2.395  0.3378 -0.3495  0.1855
 4983TIP3    H114955   6.040   5.226   2.329 -0.6815 -1.7915 -0.0445
 4983TIP3    H214956   5.894   5.227   2.369 -0.6524  1.9414  0.2999
 4984TIP3   OH214957   5.247   2.606   4.428 -0.3031  0.0562 -0.4983
 4984TIP3    H114958   5.205   2.527   4.462  0.1454 -0.3121 -0.7708
 4984TIP3    H214959   5.243   2.596   4.332 -0.7633  0.6470 -0.5443
 4985TIP3   OH214960   2.629   3.583   4.967  0.0329 -0.1622 -0.3301
 4985TIP3    H114961   2.652   3.611   4.878  0.4399  0.1988 -0.1121
 4985TIP3    H214962   2.533   3.593   4.970  0.1888  1.5635 -0.1491
 4986TIP3   OH214963   5.673   1.883   1.110  0.2213 -0.3006  0.3674
 4986TIP3    H114964   5.714   1.946   1.170  0.2959  0.8924 -0.9000
 4986TIP3    H214965   5.636   1.937   1.041 -1.4934 -1.5231  0.2810
 4987TIP3   OH214966   4.211   2.932   4.701 -0.2003 -0.4971 -0.0413
 4987TIP3    H114967   4.231   2.838   4.696 -0.9894 -0.6235 -1.0607
 4987TIP3    H214968   4.297   2.975   4.703  0.1715 -1.2423  0.7314
 4988TIP3   OH214969   2.053   5.518   3.184  0.1570  0.2353  0.1562
 4988TIP3    H114970   2.096   5.482   3.106  1.8513 -0.7272  1.4573
 4988TIP3    H214971   2.105   5.595   3.206 -0.6032  0.7775  0.0955
 4989TIP3   OH214972   5.388   4.094   2.626 -0.4633 -0.1076 -0.1744
 4989TIP3    H114973   5.414   4.008   2.659  1.0447  0.6271  0.6670
 4989TIP3    H214974   5.464   4.124   2.575  0.3337  1.9350  1.9769
 4990TIP3   OH214975   4.248   4.491   2.148  0.4339  0.1813  0.2396
 4990TIP3    H114976   4.213   4.486   2.237 -0.1211 -0.7783 -0.0218
 4990TIP3    H214977   4.217   4.412   2.105 -0.7534  1.4213 -1.3377
 4991TIP3   OH214978   1.157   4.942   4.608 -0.0315 -0.2280 -0.5315
 4991TIP3    H114979   1.207   4.872   4.566 -1.9617 -1.8824 -0.2391
 4991TIP3    H214980   1.085   4.960   4.547 -0.4942  0.3420  0.1651
 4992TIP3   OH214981   4.546   4.486   0.972 -0.2649 -0.2651 -0.2788
 4992TIP3    H114982   4.474   4.435   0.935 -1.0626 -1.0446  2.1701
 4992TIP3    H214983   4.583   4.430   1.040  1.2527  0.9839 -0.0188
 4993TIP3   OH214984   5.921   0.750   1.125  0.2979 -0.0005 -0.0699
 4993TIP3    H114985   5.930   0.696   1.046  1.0669 -2.0400  1.3296
 4993TIP3    H214986   5.970   0.830   1.105  0.3417 -0.3933 -1.7000
 4994TIP3   OH214987   1.896   3.255   2.059  0.5541  0.5435  0.1434
 4994TIP3    H114988   1.954   3.184   2.034 -1.7619 -2.0778  1.6919
 4994TIP3    H214989   1.862   3.289   1.976  1.7624 -0.0840 -0.6271
 4995TIP3   OH214990   5.397   4.302   4.163 -0.1557 -0.0442 -0.2840
 4995TIP3    H114991   5.396   4.236   4.232 -1.2591 -1.2838 -1.4245
 4995TIP3    H214992   5.323   4.279   4.106  1.3823  0.1798 -2.5380
 4996TIP3   OH214993   4.677   3.878   1.052  0.0614  0.3303  0.2648
 4996TIP3    H114994   4.610   3.940   1.023  0.6853  0.6041 -0.6217
 4996TIP3    H214995   4.753   3.932   1.073  1.2835 -0.2154 -2.3923
 4997TIP3   OH214996   1.857   2.550   3.221  0.5502  0.2578 -0.2004
 4997TIP3    H114997   1.952   2.556   3.230  0.3106  2.6683  1.5095
 4997TIP3    H214998   1.827   2.521   3.306 -0.3477  1.1504 -0.2047
 4998TIP3   OH214999   0.775   1.201   0.871  0.1798  0.0489 -0.2405
 4998TIP3    H115000   0.765   1.289   0.835 -1.5316 -0.4670 -1.1103
 4998TIP3    H215001   0.848   1.164   0.821  0.7665  0.8808 -0.0234
 4999TIP3   OH215002   1.846   3.145   2.544  0.3213  0.3655  0.6002
 4999TIP3    H115003   1.932   3.104   2.555  0.0982 -0.9055 -1.7527
 4999TIP3    H215004   1.862   3.220   2.488 -0.3046 -1.1460 -1.7553
 5000TIP3   OH215005   0.586   0.756   3.299 -0.3189  0.3947  0.1841
 5000TIP3    H115006   0.507   0.789   3.340 -1.7153 -1.6215 -0.7153
 5000TIP3    H215007   0.649   0.747   3.371 -0.8382  2.1017  0.8937
 5001TIP3   OH215008   2.281   1.466   4.040  0.1420  0.1569 -0.6533
 5001TIP3    H115009   2.329   1.422   3.970  1.0530 -0.4865  0.3258
 5001TIP3    H215010   2.331   1.546   4.056  0.0567  0.2018 -0.6156
 5002TIP3   OH215011   3.270   3.921   1.154 -0.1646  0.0891  0.6172
 5002TIP3    H115012   3.344   3.893   1.208 -0.3436  0.8825  1.2970
 5002TIP3    H215013   3.239   3.841   1.113  0.8696 -0.3065  0.5771
 5003TIP3   OH215014   2.075   4.316   4.568  0.2705  0.6358  0.3682
 5003TIP3    H115015   2.082   4.246   4.632 -2.3912  0.5417  0.6575
 5003TIP3    H215016   2.036   4.275   4.491  2.0091  1.0769 -0.8182
 5004TIP3   OH215017   5.116   2.774   0.852  0.2502 -0.4666 -0.0447
 5004TIP3    H115018   5.035   2.780   0.802  1.1993  1.8825 -1.4241
 5004TIP3    H215019   5.169   2.710   0.805  0.0170 -0.4429 -0.3388
 5005TIP3   OH215020   5.523   1.133   1.691 -0.0167 -0.1848  0.2743
 5005TIP3    H115021   5.510   1.212   1.744  0.5117 -0.2458  0.4956
 5005TIP3    H215022   5.603   1.093   1.726  0.5457 -0.0308 -0.7973
 5006TIP3   OH215023   0.882   3.982   3.024  0.8518 -0.5751 -0.7320
 5006TIP3    H115024   0.839   3.975   3.109  0.5100 -0.6602 -0.9092
 5006TIP3    H215025   0.832   4.049   2.978 -1.4119 -3.1590 -2.2963
 5007TIP3   OH215026   0.487   1.827   0.344 -0.3140 -0.6541  0.4600
 5007TIP3    H115027   0.550   1.851   0.412 -0.5604  1.2103  0.0867
 5007TIP3    H215028   0.403   1.856   0.377 -0.5748 -0.5986 -0.2259
 5008TIP3   OH215029   2.813   4.572   4.657  0.1420 -0.5875  0.2488
 5008TIP3    H115030   2.803   4.479   4.678 -0.4654 -1.2001 -2.3860
 5008TIP3    H215031   2.752   4.617   4.715  0.2592 -1.8334  1.3881
 5009TIP3   OH215032   3.091   5.726   1.755  0.3115  0.0008  0.5103
 5009TIP3    H115033   3.016   5.667   1.753 -0.3750  0.8441 -0.8898
 5009TIP3    H215034   3.158   5.682   1.701  1.1798 -1.1330  2.4261
 5010TIP3   OH215035   0.091   1.108   1.589  0.0387  0.6117 -0.3330
 5010TIP3    H115036  -0.002   1.130   1.599  0.1286  1.1617 -0.6441
 5010TIP3    H215037   0.101   1.025   1.634 -0.5773  0.6220 -0.1661
 5011TIP3   OH215038   5.803   4.927   2.935 -0.1970  0.5469  0.9564
 5011TIP3    H115039   5.738   4.954   3.000  1.7953  1.3224  2.7439
 5011TIP3    H215040   5.855   4.861   2.980 -0.8301 -1.4843 -1.0976
 5012TIP3   OH215041   5.988   1.042   0.402 -0.2191  0.3938  0.3786
 5012TIP3    H115042   5.896   1.030   0.380  0.3416  1.6875 -3.2193
 5012TIP3    H215043   6.024   0.953   0.403 -0.8104  0.0730 -1.9709
 5013TIP3   OH215044   4.043   5.493   4.608  0.5575  0.7842 -0.1500
 5013TIP3    H115045   4.001   5.426   4.662 -1.2039  1.9676  0.0283
 5013TIP3    H215046   4.121   5.519   4.657  1.5354 -1.3690 -0.4234
 5014TIP3   OH215047   5.575   5.493   3.163  0.4863 -0.3264  0.0423
 5014TIP3    H115048   5.537   5.431   3.225  2.2496 -1.1995  0.3377
 5014TIP3    H215049   5.540   5.466   3.078 -1.0030  0.1169  0.4897
 5015TIP3   OH215050   2.978   0.035   0.374 -0.1718  0.1655 -0.1478
 5015TIP3    H115051   2.887   0.061   0.379 -0.0170  0.7355 -0.2491
 5015TIP3    H215052   3.024   0.097   0.430  0.2563  0.3909 -0.7380
 5016TIP3   OH215053   2.516   3.618   4.177 -0.2205  0.0974  0.8147
 5016TIP3    H115054   2.567   3.657   4.248  0.9583  0.9559 -0.4418
 5016TIP3    H215055   2.582   3.576   4.121 -1.0560 -0.0538 -0.0815
 5017TIP3   OH215056   3.483   0.729   2.591 -0.3217 -1.0078 -0.6347
 5017TIP3    H115057   3.528   0.767   2.667 -1.6124 -2.6653  1.0502
 5017TIP3    H215058   3.547   0.667   2.555  0.2646 -0.2862 -0.8627
 5018TIP3   OH215059   4.769   1.091   4.649  0.0217  0.3788  0.2739
 5018TIP3    H115060   4.803   1.004   4.629  1.0841  0.5632  1.1809
 5018TIP3    H215061   4.684   1.075   4.689 -0.1264 -0.1906 -0.2402
 5019TIP3   OH215062   0.507   3.488   2.239  0.4220  0.3314 -0.4766
 5019TIP3    H115063   0.567   3.536   2.182  0.2968 -2.0002 -2.7541
 5019TIP3    H215064   0.556   3.410   2.264  0.1505  0.8976  2.0222
 5020TIP3   OH215065   5.921   0.441   4.805 -0.1564 -0.6264  0.0340
 5020TIP3    H115066   5.828   0.420   4.807 -0.1778 -0.6672 -0.9409
 5020TIP3    H215067   5.923   0.536   4.789 -0.0286 -0.6402 -0.0297
 5021TIP3   OH215068   2.396   1.942   2.354 -0.2883  0.2682  0.1978
 5021TIP3    H115069   2.489   1.957   2.338  0.2657 -1.8701  1.0395
 5021TIP3    H215070   2.361   2.028   2.378  2.1343  0.6508  2.8680
 5022TIP3   OH215071   0.964   4.082   0.366 -0.3573  0.4129  0.4839
 5022TIP3    H115072   0.928   4.094   0.454 -0.3921  1.1646  0.3799
 5022TIP3    H215073   1.055   4.055   0.381 -0.9803 -1.6871  0.7439
 5023TIP3   OH215074   5.294   2.385   1.155  0.2598  0.4282 -0.0509
 5023TIP3    H115075   5.332   2.405   1.240 -1.3333  2.2912  0.2948
 5023TIP3    H215076   5.318   2.459   1.100  2.2519 -1.2681 -1.6620
 5024TIP3   OH215077   4.637   2.790   3.072 -0.0874  0.0077  0.3681
 5024TIP3    H115078   4.678   2.719   3.119 -0.6299 -1.7272 -1.6201
 5024TIP3    H215079   4.710   2.844   3.041  0.4035 -0.4316  0.7465
 5025TIP3   OH215080   2.232   3.246   0.806 -0.0555 -0.4278 -0.2791
 5025TIP3    H115081   2.291   3.274   0.876  1.6785  0.1999 -1.9097
 5025TIP3    H215082   2.154   3.300   0.818  1.0347  1.1699 -0.0402
 5026TIP3   OH215083   1.260   4.402   3.718 -0.0637  0.0319 -0.3921
 5026TIP3    H115084   1.337   4.406   3.662  1.0192 -0.5168  0.9979
 5026TIP3    H215085   1.276   4.327   3.775 -2.1462 -0.7703 -0.7871
 5027TIP3   OH215086   2.265   5.349   1.895  0.1247  0.0474  0.3829
 5027TIP3    H115087   2.211   5.425   1.920 -0.4667  0.3446 -1.6075
 5027TIP3    H215088   2.346   5.361   1.944 -0.3004  1.4989  0.8066
 5028TIP3   OH215089   2.989   5.427   4.106 -0.3660  0.5707 -0.5729
 5028TIP3    H115090   3.031   5.341   4.111 -1.5322 -0.0143 -0.6180
 5028TIP3    H215091   3.060   5.487   4.079  1.2781  0.2304  2.4657
 5029TIP3   OH215092   6.207   3.406   2.539  0.2757  0.3211  0.3545
 5029TIP3    H115093   6.134   3.395   2.600  1.6072 -0.9600  1.8106
 5029TIP3    H215094   6.178   3.364   2.458 -0.7166  0.1345  0.7910
 5030TIP3   OH215095   0.044   2.546   2.005  0.2886  0.3154 -0.2260
 5030TIP3    H115096   0.082   2.596   1.932  0.5556  0.6054  0.1038
 5030TIP3    H215097   0.120   2.510   2.051  0.1887  1.1116  0.5913
 5031TIP3   OH215098   4.198   5.056   1.348  0.3848 -0.5365 -0.2375
 5031TIP3    H115099   4.183   4.967   1.382  2.4163 -1.1193 -0.7518
 5031TIP3    H215100   4.166   5.113   1.417 -1.7901 -1.6168 -0.2518
 5032TIP3   OH215101   0.372   2.669   2.920  0.3324 -0.7790  0.0696
 5032TIP3    H115102   0.332   2.633   2.841 -0.6790 -0.4810  0.4313
 5032TIP3    H215103   0.449   2.614   2.936  0.4404 -0.9563 -1.0079
 5033TIP3   OH215104   5.751   5.988   1.922  0.2985  0.2982 -0.0687
 5033TIP3    H115105   5.788   5.931   1.855  1.5911  1.0987 -0.0641
 5033TIP3    H215106   5.750   5.934   2.001 -1.8707 -0.8815 -0.8151
 5034TIP3   OH215107   0.201   1.466   3.131  0.1745 -0.0676 -0.0437
 5034TIP3    H115108   0.294   1.452   3.149 -0.3528 -3.5650  0.7044
 5034TIP3    H215109   0.157   1.446   3.214 -1.3313 -0.0187 -0.7867
 5035TIP3   OH215110   0.738   2.758   5.198  0.5814  0.0972  0.3301
 5035TIP3    H115111   0.730   2.727   5.108  1.7998  1.4926 -0.3211
 5035TIP3    H215112   0.790   2.839   5.190  2.3939 -0.7488  2.4671
 5036TIP3   OH215113   0.341   1.083   1.437 -0.6482  0.3829 -0.7655
 5036TIP3    H115114   0.314   1.113   1.524  1.2568 -0.8074  0.3135
 5036TIP3    H215115   0.305   0.995   1.430  0.2593 -0.0094 -0.6257
 5037TIP3   OH215116   3.752   5.079   2.754 -0.2127 -0.0368  0.1238
 5037TIP3    H115117   3.756   4.986   2.732  3.7580  0.3614 -1.7623
 5037TIP3    H215118   3.835   5.096   2.798 -0.4397  2.7631 -0.3614
 5038TIP3   OH215119   3.200   5.562   4.368 -0.4936 -0.1075  0.3199
 5038TIP3    H115120   3.196   5.583   4.275 -0.3297 -0.6689  0.1868
 5038TIP3    H215121   3.173   5.643   4.412 -1.1836 -0.0370 -0.2294
 5039TIP3   OH215122   4.121   0.303   4.762  0.4752 -0.0380  0.4930
 5039TIP3    H115123   4.137   0.249   4.685  0.1772  1.5791 -0.7619
 5039TIP3    H215124   4.081   0.243   4.825  0.8685 -1.4433 -0.5420
 5040TIP3   OH215125   0.693   2.685   0.932 -0.5380 -0.0918 -0.0823
 5040TIP3    H115126   0.681   2.670   0.838 -3.1398  0.7684  0.0503
 5040TIP3    H215127   0.739   2.768   0.937  0.2474 -0.4782 -0.5719
 5041TIP3   OH215128   1.071   4.149   0.899 -0.7740  0.3042 -0.2851
 5041TIP3    H115129   1.038   4.092   0.969 -0.6817 -0.7787 -1.1149
 5041TIP3    H215130   1.097   4.229   0.945  0.6576 -0.9105  1.1367
 5042TIP3   OH215131   2.995   2.930   4.029  0.2459 -0.1079 -0.1313
 5042TIP3    H115132   2.989   2.873   3.953 -1.3086  0.8758 -0.8050
 5042TIP3    H215133   2.920   2.906   4.083  0.3475  0.3798  0.2321
 5043TIP3   OH215134   5.477   1.743   2.212 -0.1387 -0.0702 -0.3485
 5043TIP3    H115135   5.460   1.649   2.217 -0.4181  0.0341  3.0200
 5043TIP3    H215136   5.567   1.750   2.182  0.1302 -1.4464  0.0795
 5044TIP3   OH215137   4.796   1.269   4.039  0.1784  0.6080  0.4065
 5044TIP3    H115138   4.852   1.347   4.039 -0.5849  1.2851 -2.3499
 5044TIP3    H215139   4.736   1.282   4.112  1.7418  1.2884  1.6210
 5045TIP3   OH215140   3.735   1.619   3.926 -0.2536 -0.4384  0.4573
 5045TIP3    H115141   3.684   1.696   3.901 -0.5261  0.0462  2.3800
 5045TIP3    H215142   3.826   1.646   3.916 -0.3522 -0.2264  0.1146
 5046TIP3   OH215143   1.317   0.892   4.904 -0.3874 -0.1341  0.0860
 5046TIP3    H115144   1.304   0.923   4.814  0.4615 -1.5969 -0.5700
 5046TIP3    H215145   1.389   0.946   4.938 -1.1066  0.8305  0.1128
 5047TIP3   OH215146   0.262   4.919   1.360  0.9438 -0.1109 -0.6677
 5047TIP3    H115147   0.192   4.875   1.407 -0.4824  0.9702 -1.6817
 5047TIP3    H215148   0.269   5.005   1.401  2.7013 -0.6786  0.3486
 5048TIP3   OH215149   2.135   1.805   4.939  0.3694 -0.2442  0.1254
 5048TIP3    H115150   2.116   1.735   4.877  0.3615  0.5739 -0.8326
 5048TIP3    H215151   2.210   1.852   4.900 -0.2719  0.8846  0.2097
 5049TIP3   OH215152   3.339   3.117   4.817 -0.1977 -0.0435  0.3119
 5049TIP3    H115153   3.290   3.037   4.836 -1.2139  0.3614 -0.4840
 5049TIP3    H215154   3.429   3.096   4.840 -0.6142 -1.0624  1.1194
 5050TIP3   OH215155   0.584   5.595   5.141  0.4605 -0.0056  0.4109
 5050TIP3    H115156   0.516   5.578   5.206  0.2331  1.1246  0.4838
 5050TIP3    H215157   0.543   5.572   5.057  0.0570  0.4404  0.4799
 5051TIP3   OH215158   0.528   3.069   2.845 -0.7259 -0.4949  0.1861
 5051TIP3    H115159   0.573   3.009   2.785 -1.2270  0.3924 -1.1352
 5051TIP3    H215160   0.598   3.111   2.894 -0.2955 -1.2365  0.2264
 5052TIP3   OH215161   3.685   1.016   3.934 -0.1683 -0.4386 -0.0561
 5052TIP3    H115162   3.740   1.037   4.010  0.2384 -1.7720  0.0345
 5052TIP3    H215163   3.698   1.090   3.875 -2.4220  1.9542  2.1262
 5053TIP3   OH215164   0.025   3.632   4.769  0.0140  0.2470 -0.1464
 5053TIP3    H115165  -0.070   3.638   4.782 -0.1494 -0.7288 -0.8098
 5053TIP3    H215166   0.046   3.541   4.788  0.6069  0.1377 -1.2685
 5054TIP3   OH215167   3.179   2.303   2.723  0.3309 -0.1111 -0.1564
 5054TIP3    H115168   3.259   2.294   2.671  1.2210  2.1498  0.6925
 5054TIP3    H215169   3.156   2.396   2.716 -1.4001 -0.4266  0.7978
 5055TIP3   OH215170   2.500   5.680   4.291 -0.2588  1.3544 -0.3328
 5055TIP3    H115171   2.540   5.737   4.225 -1.1415  1.1199 -1.0944
 5055TIP3    H215172   2.538   5.708   4.374 -1.2801  3.5951 -0.5705
 5056TIP3   OH215173   0.304   2.262   2.524  0.1927 -0.2478 -0.2257
 5056TIP3    H115174   0.255   2.299   2.450  1.3431 -0.3988 -1.0903
 5056TIP3    H215175   0.258   2.180   2.543  0.2818 -0.5535 -1.2412
 5057TIP3   OH215176   2.135   0.645   3.772 -0.3489 -0.0147 -0.1487
 5057TIP3    H115177   2.134   0.624   3.678 -1.6216  0.2717 -0.2216
 5057TIP3    H215178   2.044   0.631   3.800 -0.1354  0.5995  0.8851
 5058TIP3   OH215179   5.470   3.609   3.812 -0.1511  0.6762  0.1658
 5058TIP3    H115180   5.533   3.661   3.862 -0.7043  0.7464  0.8065
 5058TIP3    H215181   5.449   3.535   3.868 -1.4414  1.2153  0.4274
 5059TIP3   OH215182   4.999   3.205   5.154 -0.5172 -1.1227  0.4018
 5059TIP3    H115183   5.076   3.147   5.149 -0.3586 -0.8475 -0.7132
 5059TIP3    H215184   4.958   3.196   5.068 -1.7632 -1.2927  0.9973
 5060TIP3   OH215185   3.930   3.059   4.002 -0.2847 -0.0955  0.1454
 5060TIP3    H115186   3.958   3.027   3.916  0.8876  0.0964  0.4408
 5060TIP3    H215187   4.001   3.034   4.062 -0.1036  1.5609  0.6878
 5061TIP3   OH215188   4.923   2.281   0.808 -0.3959  0.7673 -0.2095
 5061TIP3    H115189   4.913   2.187   0.824  1.1257  0.7518  0.9657
 5061TIP3    H215190   4.946   2.288   0.716  1.3748 -0.2340  0.1056
 5062TIP3   OH215191   2.440   0.734   2.909  0.1698 -0.0071 -0.5222
 5062TIP3    H115192   2.496   0.783   2.969  0.2340  0.9706 -1.3448
 5062TIP3    H215193   2.499   0.708   2.838 -0.0857 -0.4037 -0.5943
 5063TIP3   OH215194   3.838   3.058   2.384  0.3545  0.6397  0.6173
 5063TIP3    H115195   3.929   3.042   2.408  1.0640  3.1897  0.0018
 5063TIP3    H215196   3.790   3.056   2.467  1.3933  1.5900  1.2674
 5064TIP3   OH215197   2.377   3.197   1.846 -0.0033  0.3155  0.1668
 5064TIP3    H115198   2.432   3.276   1.848  0.6221 -0.0582 -1.1473
 5064TIP3    H215199   2.296   3.225   1.804 -0.0231  0.3913  0.2537
 5065TIP3   OH215200   2.588   4.856   4.652 -0.1243 -0.4697  0.7299
 5065TIP3    H115201   2.533   4.799   4.706 -0.9742  0.3478  0.7511
 5065TIP3    H215202   2.528   4.895   4.589  0.5467 -0.0216  0.3587
 5066TIP3   OH215203   5.703   2.312   0.725  0.3511 -0.4040 -0.5607
 5066TIP3    H115204   5.768   2.365   0.679 -0.2473  0.5547 -0.3322
 5066TIP3    H215205   5.664   2.372   0.788 -0.2183 -1.1766 -0.1650
 5067TIP3   OH215206   1.004   1.212   3.833 -0.1842  0.5652 -0.4123
 5067TIP3    H115207   0.933   1.197   3.772 -0.3191  1.2834 -0.4368
 5067TIP3    H215208   1.042   1.125   3.848 -1.9389 -0.0779  0.6833
 5068TIP3   OH215209   4.555   2.557   2.159 -0.1734  0.4140 -0.0857
 5068TIP3    H115210   4.558   2.558   2.255  0.8354 -1.0925 -0.0698
 5068TIP3    H215211   4.519   2.643   2.136 -0.4234  0.8201  1.6288
 5069TIP3   OH215212   2.644   2.083   0.634 -0.1662 -0.3005 -0.0358
 5069TIP3    H115213   2.653   1.988   0.642  0.4787 -0.2099  0.3606
 5069TIP3    H215214   2.647   2.115   0.724  3.8465  0.4572 -0.2458
 5070TIP3   OH215215   2.945   3.967   1.941 -0.0874 -0.5385 -0.6466
 5070TIP3    H115216   3.031   3.986   1.978  0.1163 -2.6994  0.1245
 5070TIP3    H215217   2.902   4.052   1.937  2.3998  0.7728 -1.9800
 5071TIP3   OH215218   1.339   3.208   2.476 -0.3263  0.0635 -0.3143
 5071TIP3    H115219   1.327   3.302   2.489  1.9128  0.4407 -0.5644
 5071TIP3    H215220   1.381   3.178   2.557 -1.3516 -0.8021 -0.0927
 5072TIP3   OH215221   1.256   2.474   0.621  0.0832 -0.3564 -0.3610
 5072TIP3    H115222   1.262   2.522   0.704  1.2945 -2.4549  0.8317
 5072TIP3    H215223   1.234   2.542   0.557 -0.7079  1.3751  1.6006
 5073TIP3   OH215224   5.307   1.661   4.059 -0.3759 -0.3224  0.5065
 5073TIP3    H115225   5.213   1.678   4.051 -0.3300  0.2052  1.0247
 5073TIP3    H215226   5.348   1.743   4.032 -0.0397 -0.7548 -0.3301
 5074TIP3   OH215227   3.800   4.046   2.524 -0.4389  0.2999 -0.3931
 5074TIP3    H115228   3.854   4.080   2.596  0.0464 -0.6987 -0.2683
 5074TIP3    H215229   3.710   4.058   2.554 -0.2384 -0.4006  0.5394
 5075TIP3   OH215230   0.086   5.773   3.214 -0.1746  0.2792 -0.1641
 5075TIP3    H115231   0.070   5.688   3.257  0.7520  0.9517  1.6433
 5075TIP3    H215232   0.002   5.798   3.176 -0.9047 -0.6461  0.7973
 5076TIP3   OH215233   1.574   5.066   3.982 -0.2117  0.4989  0.6066
 5076TIP3    H115234   1.539   5.061   3.893 -0.9602  0.2854  0.9086
 5076TIP3    H215235   1.563   5.158   4.007 -2.1113  0.1252  1.3034
 5077TIP3   OH215236   4.704   5.749   1.477  0.1646  0.4733  0.1282
 5077TIP3    H115237   4.650   5.802   1.418  0.2120  0.0604 -0.2907
 5077TIP3    H215238   4.701   5.661   1.440  1.4091  0.5131 -0.0897
 5078TIP3   OH215239   0.042   3.827   0.070 -0.7994 -0.1699  0.2086
 5078TIP3    H115240   0.089   3.758   0.117  1.3418  0.0648 -1.4310
 5078TIP3    H215241  -0.051   3.811   0.090 -0.5439 -4.1814 -0.8343
 5079TIP3   OH215242   5.680   3.440   1.216  0.2005  0.4675 -0.1142
 5079TIP3    H115243   5.658   3.515   1.162 -0.7932  0.6360  0.5018
 5079TIP3    H215244   5.748   3.471   1.275 -1.3182  1.4104  1.2416
 5080TIP3   OH215245   1.844   0.727   3.824 -0.1794 -0.5431  0.0819
 5080TIP3    H115246   1.903   0.756   3.755 -0.6268  3.0118  0.9883
 5080TIP3    H215247   1.894   0.739   3.905 -1.4628  0.6921  0.7270
 5081TIP3   OH215248   0.826   4.419   3.306  0.0829 -0.9581  0.0285
 5081TIP3    H115249   0.869   4.427   3.391 -0.6043 -1.1501  0.3959
 5081TIP3    H215250   0.734   4.402   3.326 -0.2063 -0.3977 -0.7497
 5082TIP3   OH215251   0.844   4.849   1.901  0.0058  0.1837 -0.3322
 5082TIP3    H115252   0.838   4.761   1.864  1.2786  0.4694 -1.2955
 5082TIP3    H215253   0.938   4.866   1.908 -0.1889  1.8951 -1.2550
 5083TIP3   OH215254   5.651   4.114   0.783 -0.1423 -0.5105  0.1723
 5083TIP3    H115255   5.607   4.181   0.732  1.5366  1.4962  1.1931
 5083TIP3    H215256   5.581   4.070   0.831 -1.2621  0.8470 -0.1632
 5084TIP3   OH215257   1.801   4.716   2.846 -0.1673 -0.2786  0.7469
 5084TIP3    H115258   1.887   4.691   2.812  0.0498  1.4593 -0.0835
 5084TIP3    H215259   1.773   4.641   2.897  1.4116 -1.2756  0.2219
 5085TIP3   OH215260   3.478   2.792   2.195 -0.0576 -0.4784  0.1495
 5085TIP3    H115261   3.397   2.799   2.145 -0.7207 -0.2262  1.2386
 5085TIP3    H215262   3.546   2.776   2.128 -0.7931  0.6274 -0.9070
 5086TIP3   OH215263   5.405   3.348   2.100 -0.3477 -0.3650 -0.2607
 5086TIP3    H115264   5.440   3.431   2.131 -2.7933 -0.2911  2.8652
 5086TIP3    H215265   5.345   3.372   2.029 -0.6731  0.5022  0.2937
 5087TIP3   OH215266   1.123   2.339   1.856  0.1734 -0.0709  0.5866
 5087TIP3    H115267   1.064   2.365   1.927  1.0764  1.1276  0.9201
 5087TIP3    H215268   1.194   2.292   1.899  1.3461  1.6827  0.6864
 5088TIP3   OH215269   1.640   2.113   3.718 -0.0607 -0.3522 -0.3435
 5088TIP3    H115270   1.621   2.019   3.719 -0.0806 -0.3575 -0.9858
 5088TIP3    H215271   1.558   2.154   3.690  0.2806 -0.2348 -1.2157
 5089TIP3   OH215272   3.708   5.912   2.681  0.1132 -0.3344 -0.2909
 5089TIP3    H115273   3.787   5.963   2.664  0.8802 -0.6795  1.9682
 5089TIP3    H215274   3.651   5.971   2.730 -0.5721 -0.4734 -0.8932
 5090TIP3   OH215275   4.463   5.880   4.420 -0.4709  0.4990  0.0124
 5090TIP3    H115276   4.513   5.952   4.383  1.8393 -1.4904 -0.9820
 5090TIP3    H215277   4.458   5.900   4.513  2.3114  0.7713  0.1887
 5091TIP3   OH215278   4.521   5.681   3.992  0.2051 -0.4445 -0.3746
 5091TIP3    H115279   4.451   5.626   4.028  0.3568  1.1882  2.7886
 5091TIP3    H215280   4.589   5.620   3.966 -0.4291 -1.8723  1.1448
 5092TIP3   OH215281   6.113   3.863   0.770 -0.7079  0.1531 -0.1088
 5092TIP3    H115282   6.118   3.769   0.790 -0.3548  0.4058  1.0544
 5092TIP3    H215283   6.050   3.897   0.834  0.9977  1.1238  1.1415
 5093TIP3   OH215284   5.588   2.916   2.766  0.1132  0.0538 -0.2106
 5093TIP3    H115285   5.559   2.927   2.675 -1.0297  0.3106  0.1648
 5093TIP3    H215286   5.509   2.888   2.813  0.1083  2.0913  1.1192
 5094TIP3   OH215287   3.189   2.011   2.126 -0.2590 -0.2606  0.2880
 5094TIP3    H115288   3.175   1.922   2.093 -2.8389  0.7768 -1.7305
 5094TIP3    H215289   3.255   2.049   2.069 -0.8561 -0.1625 -0.3452
 5095TIP3   OH215290   0.431   1.356   3.083 -0.0565 -0.0265  0.5112
 5095TIP3    H115291   0.450   1.324   3.171 -0.1446 -0.5954  0.3243
 5095TIP3    H215292   0.438   1.279   3.027 -0.9713  0.1398  0.1552
 5096TIP3   OH215293   1.017   2.891   3.103  0.1406  0.1242 -0.8057
 5096TIP3    H115294   0.987   2.875   3.013  1.7946  0.2972 -1.4326
 5096TIP3    H215295   1.080   2.963   3.093  2.2707 -1.5465  0.1100
 5097TIP3   OH215296   6.259   0.206   1.992  0.0475 -0.0659 -0.6763
 5097TIP3    H115297   6.336   0.195   1.936  1.0509  1.7116  0.2328
 5097TIP3    H215298   6.256   0.127   2.046  0.7123 -0.5394 -1.3164
 5098TIP3   OH215299   2.105   5.608   4.905 -0.6124  0.6818 -0.2649
 5098TIP3    H115300   2.177   5.650   4.952 -0.6709  2.1501 -1.4169
 5098TIP3    H215301   2.033   5.607   4.968  0.1104  0.0430  0.5874
 5099TIP3   OH215302   6.058   5.827   4.779 -0.3944  0.2599 -0.0207
 5099TIP3    H115303   5.992   5.778   4.730 -0.7319 -0.8709  1.4783
 5099TIP3    H215304   6.031   5.918   4.772 -0.0130  0.2384 -2.4930
 5100TIP3   OH215305   1.585   4.688   3.509  0.1658 -0.7071  0.2449
 5100TIP3    H115306   1.581   4.692   3.604 -0.5307  0.4743  0.1897
 5100TIP3    H215307   1.514   4.630   3.484  0.9554 -1.8033  0.4675
 5101TIP3   OH215308   2.056   0.280   3.689  0.1763  0.1290  0.5911
 5101TIP3    H115309   1.988   0.347   3.682  0.2229  0.0720 -0.5284
 5101TIP3    H215310   2.088   0.268   3.600 -1.1986 -2.7861  0.3497
 5102TIP3   OH215311   3.172   3.018   1.091 -0.0310 -0.6343  0.1153
 5102TIP3    H115312   3.161   2.971   1.009 -1.5459 -0.5028  0.2125
 5102TIP3    H215313   3.238   3.085   1.072 -2.3811  1.3226 -1.9039
 5103TIP3   OH215314   6.251   5.677   3.517 -0.2189  0.4234 -0.2943
 5103TIP3    H115315   6.302   5.596   3.509  1.1790  1.2785 -0.3494
 5103TIP3    H215316   6.174   5.662   3.461  0.7276 -0.3241 -1.4540
 5104TIP3   OH215317   0.143   2.700   4.322  0.0762  0.6504  0.2788
 5104TIP3    H115318   0.104   2.771   4.271  0.1753  1.4696  1.3198
 5104TIP3    H215319   0.069   2.645   4.346 -0.1045  0.8141  0.1042
 5105TIP3   OH215320   4.032   3.196   1.318  0.3532  0.0324  0.7670
 5105TIP3    H115321   3.997   3.170   1.404 -2.2412 -0.6567 -0.3983
 5105TIP3    H215322   4.029   3.291   1.319 -3.5236  0.0911  0.1527
 5106TIP3   OH215323   1.552   3.706   3.801  0.2373  0.3508 -0.6672
 5106TIP3    H115324   1.590   3.619   3.808  0.7898  0.4021 -2.4384
 5106TIP3    H215325   1.458   3.692   3.801  0.2956 -0.0899  0.5310
 5107TIP3   OH215326   2.946   2.135   0.698 -0.3299 -0.0050  0.0814
 5107TIP3    H115327   2.892   2.115   0.622  0.7894 -2.1621 -0.2324
 5107TIP3    H215328   3.002   2.208   0.670 -0.2854 -0.4366 -0.9999
 5108TIP3   OH215329   1.464   3.009   0.182  0.3552 -0.0702 -0.2298
 5108TIP3    H115330   1.546   3.058   0.184 -0.5759  1.6141 -0.9918
 5108TIP3    H215331   1.457   2.978   0.092  0.9444 -1.6740  0.2540
 5109TIP3   OH215332   0.792   3.292   1.859 -0.2394 -0.5193 -0.3632
 5109TIP3    H115333   0.881   3.262   1.837 -0.1842 -0.5334 -0.1202
 5109TIP3    H215334   0.737   3.256   1.789  0.1039  0.4436 -1.1581
 5110TIP3   OH215335   1.877   5.903   1.580  0.3640  0.1177 -0.7954
 5110TIP3    H115336   1.898   5.945   1.663  0.5439  1.6746 -1.6010
 5110TIP3    H215337   1.795   5.857   1.597  0.4777  0.2835  0.2835
 5111TIP3   OH215338   0.896   3.073   4.714  0.0213  0.3772 -0.2052
 5111TIP3    H115339   0.921   2.983   4.693  0.8630  0.9439 -1.8296
 5111TIP3    H215340   0.801   3.070   4.726  0.0490 -0.7288 -0.2281
 5112TIP3   OH215341   5.392   1.878   0.807  0.1682  0.3984 -0.4096
 5112TIP3    H115342   5.457   1.914   0.868 -0.5366 -0.1138  0.6579
 5112TIP3    H215343   5.444   1.834   0.740  0.9394  0.5027  0.1077
 5113TIP3   OH215344   1.734   0.213   1.880  0.0042 -0.3261 -0.0711
 5113TIP3    H115345   1.665   0.148   1.870 -0.9463  0.0732  2.9259
 5113TIP3    H215346   1.688   0.297   1.880  0.6616  0.0477  0.4232
 5114TIP3   OH215347   1.907   3.699   3.449 -0.2793 -0.1404  0.3389
 5114TIP3    H115348   1.857   3.769   3.491 -0.8383 -0.6252  0.5081
 5114TIP3    H215349   1.994   3.705   3.487 -0.3293  0.4473  0.3685
 5115TIP3   OH215350   0.722   2.747   3.565  0.1905 -0.0814 -0.2721
 5115TIP3    H115351   0.804   2.727   3.521  0.7110 -0.0012  0.6296
 5115TIP3    H215352   0.654   2.715   3.506  0.8991 -1.0515 -0.5727
 5116TIP3   OH215353   0.458   3.011   3.871 -0.2194 -0.5224  0.1520
 5116TIP3    H115354   0.411   3.011   3.954 -1.1803 -0.0414 -0.3716
 5116TIP3    H215355   0.542   2.969   3.890  0.2192  0.9693  1.7139
 5117TIP3   OH215356   5.681   2.371   3.511 -0.1490 -0.6161 -0.4010
 5117TIP3    H115357   5.714   2.283   3.492 -1.2807 -1.2473  0.3715
 5117TIP3    H215358   5.738   2.403   3.581  0.7429 -0.4182 -1.2116
 5118TIP3   OH215359   1.717   3.987   4.241  0.2241 -0.1449  0.2212
 5118TIP3    H115360   1.666   3.939   4.176  1.3941 -2.1811  0.7211
 5118TIP3    H215361   1.716   4.077   4.210  0.1917 -0.9159 -2.2620
 5119TIP3   OH215362   4.825   0.395   1.423 -0.3241 -0.2653 -0.6278
 5119TIP3    H115363   4.786   0.308   1.416 -0.3007 -0.2053 -1.7439
 5119TIP3    H215364   4.758   0.449   1.466 -1.2040 -0.3318 -1.8769
 5120TIP3   OH215365   1.047   5.938   3.106  0.5749 -0.6121  0.4571
 5120TIP3    H115366   1.040   5.917   3.013 -2.9757  1.0452  0.1872
 5120TIP3    H215367   1.127   5.990   3.114  0.9553 -0.8229 -1.6405
 5121TIP3   OH215368   0.203   0.986   3.030  0.2200 -0.5275 -0.5227
 5121TIP3    H115369   0.139   1.035   3.083  1.2859 -0.0659  0.3675
 5121TIP3    H215370   0.150   0.923   2.982 -0.7156 -1.7452  1.9349
 5122TIP3   OH215371   5.437   2.476   3.581 -0.2672  0.5300  0.0251
 5122TIP3    H115372   5.411   2.432   3.662  0.7513 -1.1255 -0.5058
 5122TIP3    H215373   5.502   2.418   3.541 -0.1728  1.6767 -1.6045
 5123TIP3   OH215374   6.096   0.579   3.855 -0.2389 -0.6029 -0.4811
 5123TIP3    H115375   6.033   0.629   3.907 -0.0549  0.4774 -1.2447
 5123TIP3    H215376   6.174   0.574   3.911 -0.2591 -0.0172 -0.3931
 5124TIP3   OH215377   4.791   2.206   2.830 -0.1780  0.7818  0.0445
 5124TIP3    H115378   4.754   2.150   2.762 -0.5047 -0.7438  1.4205
 5124TIP3    H215379   4.734   2.283   2.831 -0.2125  0.7954 -1.3312
 5125TIP3   OH215380   2.090   4.759   4.842 -0.2645 -0.2607 -0.2902
 5125TIP3    H115381   2.120   4.786   4.756 -0.4311 -1.1452 -0.6453
 5125TIP3    H215382   2.171   4.742   4.892 -0.1361  1.8044  0.2791
 5126TIP3   OH215383   1.274   1.935   0.823 -0.3046  0.1016 -0.2478
 5126TIP3    H115384   1.296   1.978   0.906 -1.4244 -1.3212  0.8383
 5126TIP3    H215385   1.276   1.842   0.843 -0.1092 -0.3046 -1.9733
 5127TIP3   OH215386   1.990   5.879   3.630 -0.2276 -0.1729 -0.2232
 5127TIP3    H115387   1.935   5.885   3.708  1.7509  3.6938  1.1318
 5127TIP3    H215388   1.950   5.939   3.567  0.1295 -0.5515 -0.8254
 5128TIP3   OH215389   2.239   4.155   0.897 -0.4973 -0.1540 -0.5441
 5128TIP3    H115390   2.289   4.236   0.904  0.5123 -0.7064 -1.0847
 5128TIP3    H215391   2.282   4.094   0.956 -1.4147 -0.2358  0.0647
 5129TIP3   OH215392   1.844   2.497   4.501  0.1758  0.2337 -0.0754
 5129TIP3    H115393   1.854   2.405   4.477 -1.6169  0.4879 -2.0652
 5129TIP3    H215394   1.933   2.530   4.504  0.7598 -1.0271 -1.7302
 5130TIP3   OH215395   1.065   0.793   2.849 -0.1259 -0.8019 -0.2384
 5130TIP3    H115396   0.985   0.845   2.843 -0.8311 -1.9397 -1.1156
 5130TIP3    H215397   1.132   0.847   2.808 -0.8310 -0.5726 -1.1061
 5131TIP3   OH215398   1.146   4.400   1.243 -0.6175  0.0259  0.3918
 5131TIP3    H115399   1.174   4.397   1.151 -1.3121  0.2350  0.1668
 5131TIP3    H215400   1.086   4.326   1.252  0.1394 -0.5344  0.9221
 5132TIP3   OH215401   5.825   5.575   2.401  1.0819 -0.2442 -0.0084
 5132TIP3    H115402   5.771   5.561   2.323  0.2747  2.3237  0.0011
 5132TIP3    H215403   5.863   5.489   2.419  1.5353 -0.8979 -3.3822
 5133TIP3   OH215404   4.252   2.724   1.164 -0.0790 -0.6588 -0.2484
 5133TIP3    H115405   4.183   2.661   1.144 -0.5549 -1.5041  3.3418
 5133TIP3    H215406   4.212   2.782   1.230  1.1729  1.9009 -1.5873
 5134TIP3   OH215407   4.028   0.515   0.528 -0.2296 -0.4635 -0.0524
 5134TIP3    H115408   3.964   0.548   0.592 -0.2005 -0.3314 -0.0907
 5134TIP3    H215409   3.998   0.427   0.508 -0.7918 -0.1620 -0.5797
 5135TIP3   OH215410   1.500   3.981   2.397  0.2797 -0.9227 -0.1062
 5135TIP3    H115411   1.498   3.922   2.321  3.5241 -1.3015  0.0031
 5135TIP3    H215412   1.518   3.924   2.472  2.5593  0.0036  0.1261
 5136TIP3   OH215413   0.424   3.103   3.462  0.0003 -0.6620  0.2827
 5136TIP3    H115414   0.427   3.152   3.544 -0.3199 -1.1098  0.5721
 5136TIP3    H215415   0.350   3.141   3.414  1.2163  0.7203 -0.5417
 5137TIP3   OH215416   2.701   3.397   5.165  0.2766 -0.4354  0.2447
 5137TIP3    H115417   2.669   3.430   5.081  1.8253  0.1635 -0.1392
 5137TIP3    H215418   2.677   3.465   5.228 -0.4958 -0.6856  0.2414
 5138TIP3   OH215419   5.732   0.956   1.779  0.4212 -1.0670  0.3324
 5138TIP3    H115420   5.723   0.946   1.874  1.3746 -3.3129  0.2446
 5138TIP3    H215421   5.824   0.937   1.761  1.2726  3.0228 -0.7206
 5139TIP3   OH215422   5.470   4.085   1.437  0.0524  0.4048 -0.3663
 5139TIP3    H115423   5.552   4.079   1.486  0.4990  0.7738 -1.0465
 5139TIP3    H215424   5.492   4.137   1.360 -0.6820 -0.0014 -0.8624
 5140TIP3   OH215425   3.151   3.261   2.503 -0.1868 -0.4977  0.0257
 5140TIP3    H115426   3.125   3.270   2.594  2.6912  0.3714  0.8542
 5140TIP3    H215427   3.205   3.338   2.486  0.1238 -1.1323 -2.1495
 5141TIP3   OH215428   3.082   1.698   2.579 -0.0175  0.3892 -0.2182
 5141TIP3    H115429   3.123   1.737   2.502 -1.3814 -1.2290 -1.8506
 5141TIP3    H215430   3.025   1.768   2.613 -0.6973  0.5938 -1.7155
 5142TIP3   OH215431   0.842   2.807   0.678 -0.3802  0.0056 -0.6314
 5142TIP3    H115432   0.834   2.726   0.628  0.3187 -0.7864  0.4733
 5142TIP3    H215433   0.830   2.877   0.614  0.6768 -0.9514 -1.9267
 5143TIP3   OH215434   0.480   2.496   5.045 -0.4171  0.2720  0.2060
 5143TIP3    H115435   0.541   2.569   5.036  0.5881 -0.1602  2.6310
 5143TIP3    H215436   0.499   2.440   4.970  1.6978  0.5236  0.4743
 5144TIP3   OH215437   4.627   0.207   1.447 -0.2584 -0.0300 -0.1835
 5144TIP3    H115438   4.579   0.140   1.398 -0.2705  0.8849 -1.5037
 5144TIP3    H215439   4.564   0.277   1.460  0.8327  1.5998 -2.7783
 5145TIP3   OH215440   3.750   3.588   4.709  0.0123 -0.5453 -0.0375
 5145TIP3    H115441   3.729   3.494   4.711  0.1768 -0.5894  2.5014
 5145TIP3    H215442   3.676   3.629   4.754 -0.4641  0.7019 -1.8315
 5146TIP3   OH215443   5.902   4.667   4.245 -0.3942  0.0161 -0.1440
 5146TIP3    H115444   5.854   4.584   4.247 -0.3237 -0.0222 -0.0692
 5146TIP3    H215445   5.982   4.647   4.195 -0.5159  0.1127 -0.3800
 5147TIP3   OH215446   4.278   1.788   3.779 -0.0375  0.4649  0.0490
 5147TIP3    H115447   4.196   1.776   3.826  0.5313 -3.0177  0.4370
 5147TIP3    H215448   4.316   1.700   3.774  2.1438  1.4041 -2.9223
 5148TIP3   OH215449   0.180   4.273   2.598  0.6101 -0.2492 -0.2002
 5148TIP3    H115450   0.106   4.243   2.650  0.4472 -1.7975 -1.2741
 5148TIP3    H215451   0.235   4.321   2.660 -1.1603  0.7686  0.6594
 5149TIP3   OH215452   0.420   2.526   3.545 -1.2988  0.4704 -0.2332
 5149TIP3    H115453   0.369   2.603   3.572  0.2840  1.4505  0.0781
 5149TIP3    H215454   0.462   2.552   3.463  0.2911  0.4508  0.5347
 5150TIP3   OH215455   6.188   3.736   4.091 -0.5541 -0.1450  0.6538
 5150TIP3    H115456   6.113   3.680   4.070 -0.6340 -0.2989  1.3432
 5150TIP3    H215457   6.211   3.777   4.007  0.1969 -2.0289 -0.1151
 5151TIP3   OH215458   0.091   0.646   0.541  0.2280  0.2536  0.4214
 5151TIP3    H115459   0.170   0.604   0.505  0.4176  1.0687 -0.1201
 5151TIP3    H215460   0.030   0.573   0.554  0.1681 -0.0694 -1.4906
 5152TIP3   OH215461   2.560   0.687   0.778 -0.6428  0.1502 -0.7201
 5152TIP3    H115462   2.596   0.638   0.704 -0.9526 -1.1234 -0.0691
 5152TIP3    H215463   2.497   0.748   0.739 -0.3407 -0.0567 -1.5514
 5153TIP3   OH215464   4.482   3.763   4.336 -0.6852  0.2141 -0.2470
 5153TIP3    H115465   4.394   3.739   4.364 -0.5521 -0.2756 -0.2492
 5153TIP3    H215466   4.504   3.701   4.267  1.0314 -1.9882  2.1105
 5154TIP3   OH215467   4.544   5.901   1.657  0.0167 -0.3001  0.6660
 5154TIP3    H115468   4.468   5.846   1.678 -0.6326  0.8898  1.5441
 5154TIP3    H215469   4.603   5.843   1.610 -0.2537 -1.9846  2.3117
 5155TIP3   OH215470   4.985   5.618   1.492 -0.4866  0.0929 -0.1459
 5155TIP3    H115471   4.914   5.658   1.442 -0.3773  0.7714  0.2239
 5155TIP3    H215472   4.947   5.600   1.578  0.0285  1.3309  0.3658
 5156TIP3   OH215473   5.622   1.726   3.913 -0.1782  0.0917  0.0602
 5156TIP3    H115474   5.667   1.753   3.993 -1.6450  1.0164  0.6198
 5156TIP3    H215475   5.693   1.709   3.850  0.9606  0.6836  1.1341
 5157TIP3   OH215476   5.206   0.714   1.767  0.2816 -0.8800 -0.4215
 5157TIP3    H115477   5.180   0.806   1.773 -0.4524 -1.1374  0.6788
 5157TIP3    H215478   5.126   0.668   1.742  0.2806 -1.3832  0.4671
 5158TIP3   OH215479   5.219   1.520   3.820  0.1563  0.0118  0.3736
 5158TIP3    H115480   5.270   1.597   3.845  1.1721 -1.0367  1.7020
 5158TIP3    H215481   5.134   1.533   3.862  1.2731 -0.8843  3.2071
 5159TIP3   OH215482   1.518   0.306   4.879 -0.3130 -0.4003 -0.0261
 5159TIP3    H115483   1.502   0.343   4.966  0.3376 -0.7217  0.2374
 5159TIP3    H215484   1.591   0.357   4.844 -1.1248  0.2991 -0.7494
 5160TIP3   OH215485   3.612   3.340  -0.016 -0.4451 -0.3233  0.0985
 5160TIP3    H115486   3.651   3.295   0.059 -2.3243 -1.2298  0.5953
 5160TIP3    H215487   3.604   3.431   0.012  1.7114  0.0128 -0.2222
 5161TIP3   OH215488   0.996   5.019   4.410 -0.1648  0.3057 -0.0614
 5161TIP3    H115489   0.904   5.039   4.428 -0.0007  0.8112  0.2487
 5161TIP3    H215490   1.008   5.042   4.318 -0.1878  0.8662  0.0737
 5162TIP3   OH215491   0.828   1.591   4.283 -0.6186  0.3693  0.4887
 5162TIP3    H115492   0.778   1.665   4.248  1.4181  1.5925  0.0263
 5162TIP3    H215493   0.902   1.631   4.328 -0.0290 -1.3788  1.1424
 5163TIP3   OH215494   2.963   5.910   0.408 -0.1559 -0.3421  0.0935
 5163TIP3    H115495   2.964   5.989   0.354  0.3921 -2.1619 -2.8065
 5163TIP3    H215496   2.895   5.856   0.369  0.0433 -1.6534  1.4760
 5164TIP3   OH215497   4.148   3.570   1.984 -0.5673 -0.2079  0.3066
 5164TIP3    H115498   4.227   3.561   2.036 -1.3744 -1.2930  1.3864
 5164TIP3    H215499   4.096   3.636   2.030  1.1423  3.3055 -2.3246
 5165TIP3   OH215500   3.291   2.556   0.107 -0.4265 -0.1169 -0.5679
 5165TIP3    H115501   3.374   2.539   0.151 -1.8447 -0.1972  2.3018
 5165TIP3    H215502   3.233   2.587   0.177 -3.2898 -1.6461 -2.1021
 5166TIP3   OH215503   4.649   3.038   3.286 -0.3962 -0.2143  0.0967
 5166TIP3    H115504   4.669   2.977   3.214 -0.4888 -0.1613  0.0267
 5166TIP3    H215505   4.575   2.997   3.331 -0.1047 -0.4315  0.3819
 5167TIP3   OH215506   2.284   0.073   4.777  0.0273 -0.2650 -0.1890
 5167TIP3    H115507   2.223   0.032   4.716 -0.7278 -1.7993  1.4969
 5167TIP3    H215508   2.265   0.167   4.770  0.3559 -0.3025 -2.6312
 5168TIP3   OH215509   6.257   3.827   3.245  0.2715 -0.3468  0.4430
 5168TIP3    H115510   6.206   3.863   3.173 -1.0009  0.4224  1.6613
 5168TIP3    H215511   6.242   3.732   3.240 -0.0842 -0.2679 -0.0992
 5169TIP3   OH215512   5.133   4.442   1.366  0.3410 -0.6495  0.2486
 5169TIP3    H115513   5.133   4.511   1.432 -0.3835 -1.5962  1.2612
 5169TIP3    H215514   5.105   4.486   1.286 -0.3134  0.1837  0.9225
 5170TIP3   OH215515   2.171   5.413   3.399  0.2435  0.3683  0.1712
 5170TIP3    H115516   2.126   5.444   3.320 -0.3781 -0.0390  0.3606
 5170TIP3    H215517   2.254   5.461   3.399  0.7976 -0.5023 -1.3811
 5171TIP3   OH215518   3.999   5.139   0.155  0.5506  0.0709 -0.1269
 5171TIP3    H115519   4.072   5.160   0.097  0.3315 -0.7514 -0.7111
 5171TIP3    H215520   4.001   5.044   0.164 -0.8906 -0.0485 -0.7595
 5172TIP3   OH215521   6.045   5.590   3.363 -0.4606 -0.6548  0.3916
 5172TIP3    H115522   6.057   5.561   3.273  1.1334  1.0302 -0.0083
 5172TIP3    H215523   5.971   5.651   3.359 -0.1935 -0.3437  0.1525
 5173TIP3   OH215524   3.701   5.651   2.756  0.1769 -0.0797 -0.5280
 5173TIP3    H115525   3.705   5.739   2.720  0.8433 -0.4720 -1.4604
 5173TIP3    H215526   3.757   5.599   2.698 -0.5504 -1.2036 -0.2487
 5174TIP3   OH215527   3.577   5.224   1.958  0.0366  0.1106  0.1302
 5174TIP3    H115528   3.494   5.262   1.988 -1.3497 -0.5704 -2.5511
 5174TIP3    H215529   3.609   5.175   2.034 -1.6332  0.9753  1.4648
 5175TIP3   OH215530   2.811   5.341   4.833 -0.0748  0.5936  0.0526
 5175TIP3    H115531   2.816   5.285   4.756  0.0107 -1.0957  1.2315
 5175TIP3    H215532   2.902   5.365   4.851  0.0975 -0.4585  0.6302
 5176TIP3   OH215533   4.238   3.676   2.515  0.0587  1.0144 -1.0917
 5176TIP3    H115534   4.275   3.603   2.465  1.4015  0.8296  0.0986
 5176TIP3    H215535   4.293   3.751   2.493  1.1435  0.7716  0.5860
 5177TIP3   OH215536   2.950   4.508   2.296 -0.2271  0.3146  0.1563
 5177TIP3    H115537   2.911   4.594   2.283 -1.2447  0.6499  4.1513
 5177TIP3    H215538   2.899   4.450   2.239 -1.6393  1.8871 -0.2600
 5178TIP3   OH215539   3.216   1.311   4.524  0.1089  0.2254 -0.3728
 5178TIP3    H115540   3.204   1.369   4.448 -0.0532  0.7151  0.0183
 5178TIP3    H215541   3.207   1.223   4.488  0.9656  0.4123 -1.0971
 5179TIP3   OH215542   0.404   3.667   4.957  0.0721 -0.1170 -0.2656
 5179TIP3    H115543   0.316   3.644   4.988  0.0045  0.2736 -0.1555
 5179TIP3    H215544   0.441   3.719   5.027 -0.0055  0.6043 -0.7444
 5180TIP3   OH215545   0.346   4.721   0.236  0.4732  0.0657 -0.2059
 5180TIP3    H115546   0.430   4.768   0.233 -0.2298  1.4245  0.5559
 5180TIP3    H215547   0.291   4.767   0.172 -0.5008  0.8746  1.1676
 5181TIP3   OH215548   3.346   2.994   5.184  0.2606 -0.2121  0.5338
 5181TIP3    H115549   3.253   2.994   5.209 -0.3487 -0.0817 -1.5223
 5181TIP3    H215550   3.346   2.959   5.094  2.1573  0.1750  0.3531
 5182TIP3   OH215551   2.557   3.893   2.845 -0.3712 -0.0682  0.6554
 5182TIP3    H115552   2.629   3.851   2.797 -0.5575  0.3156  0.0316
 5182TIP3    H215553   2.512   3.946   2.779  0.4291  1.8743  1.5964
 5183TIP3   OH215554   3.617   1.067   0.138  0.0912 -0.4087  0.6431
 5183TIP3    H115555   3.525   1.046   0.121  0.0362  0.8158 -0.7786
 5183TIP3    H215556   3.620   1.083   0.232 -1.1355 -0.4989  0.7267
 5184TIP3   OH215557   1.085   0.430   4.560  0.2565 -0.5580 -0.1538
 5184TIP3    H115558   1.145   0.485   4.510  0.1586 -1.2105 -1.0123
 5184TIP3    H215559   1.141   0.375   4.615  0.3299  1.3553  1.8157
 5185TIP3   OH215560   5.021   1.641   2.264 -0.2574  0.4993 -0.1091
 5185TIP3    H115561   5.049   1.692   2.340  0.7503  0.4446 -0.4393
 5185TIP3    H215562   5.029   1.550   2.292  1.1331  0.4478 -0.6160
 5186TIP3   OH215563   3.163   4.886   1.008 -0.4766  0.2669 -0.3535
 5186TIP3    H115564   3.100   4.901   0.937 -0.5849  0.6048 -0.1904
 5186TIP3    H215565   3.240   4.848   0.965 -0.9000 -0.4295 -0.5134
 5187TIP3   OH215566   3.137   1.746   2.870 -0.4270 -0.7120 -0.6196
 5187TIP3    H115567   3.151   1.815   2.804 -1.1496  2.4865  2.2676
 5187TIP3    H215568   3.221   1.739   2.915 -0.3670 -1.7693 -0.8779
 5188TIP3   OH215569   3.519   1.737   1.805  0.2145  0.8257 -0.4757
 5188TIP3    H115570   3.548   1.825   1.782 -0.6819  1.2311 -0.1173
 5188TIP3    H215571   3.575   1.711   1.878  3.4577 -0.6851 -3.2490
 5189TIP3   OH215572   5.574   5.878   0.996 -0.2840 -0.3624 -0.0053
 5189TIP3    H115573   5.512   5.942   1.029 -0.8806 -0.5813 -0.6876
 5189TIP3    H215574   5.536   5.847   0.914 -0.1607 -1.8198  0.4588
 5190TIP3   OH215575   3.817   3.943   2.914 -0.0603  0.0305  0.0767
 5190TIP3    H115576   3.846   3.851   2.923  1.8195  0.5563 -0.1218
 5190TIP3    H215577   3.733   3.945   2.959 -0.1968 -1.8206  0.0173
 5191TIP3   OH215578   4.245   4.876   3.914  0.3941  0.1324  0.4094
 5191TIP3    H115579   4.339   4.892   3.916  0.5535 -0.6924 -0.0281
 5191TIP3    H215580   4.206   4.962   3.897  1.1117  0.3464 -0.1694
 5192TIP3   OH215581   2.348   3.490   4.809 -0.2164  0.1098  0.2418
 5192TIP3    H115582   2.372   3.499   4.901 -0.6379  0.9496  0.2703
 5192TIP3    H215583   2.256   3.461   4.811 -1.1560  2.8228  0.0938
 5193TIP3   OH215584   3.552   4.956   3.163  0.2899 -0.0301 -0.2316
 5193TIP3    H115585   3.519   5.003   3.087 -1.4862  0.1229  0.5837
 5193TIP3    H215586   3.625   4.904   3.130  1.0974  1.8286 -1.5364
 5194TIP3   OH215587   4.268   5.841   0.493  0.3702 -0.5359  0.1000
 5194TIP3    H115588   4.254   5.750   0.466 -0.9205 -0.4906  0.5313
 5194TIP3    H215589   4.192   5.861   0.548 -0.6922  1.5671 -1.9592
 5195TIP3   OH215590   2.957   4.879   2.956 -0.2004 -0.3495  0.0545
 5195TIP3    H115591   2.960   4.849   2.865 -0.2646 -0.3139  0.0408
 5195TIP3    H215592   3.005   4.961   2.957 -0.3109 -0.2842  0.0275
 5196TIP3   OH215593   3.721   3.753   1.518 -0.3252  0.3490  0.0919
 5196TIP3    H115594   3.746   3.797   1.437  0.5478 -0.0347  0.1417
 5196TIP3    H215595   3.802   3.751   1.570 -0.4905 -0.8166  0.3233
 5197TIP3   OH215596   1.176   3.101   2.990  0.6390  0.7153  0.3270
 5197TIP3    H115597   1.236   3.176   3.001 -1.3983  2.5391 -0.2460
 5197TIP3    H215598   1.135   3.116   2.904  0.2084 -1.1277  0.1739
 5198TIP3   OH215599   2.279   4.595   1.530 -0.3338 -0.4417 -0.0042
 5198TIP3    H115600   2.248   4.685   1.521 -0.3530 -0.3640  0.8261
 5198TIP3    H215601   2.224   4.557   1.598  0.9695 -0.4787  1.0709
 5199TIP3   OH215602   1.721   0.407   4.735  0.0388  0.3589  0.1296
 5199TIP3    H115603   1.801   0.405   4.787  0.2912 -0.4386 -0.2729
 5199TIP3    H215604   1.706   0.500   4.717  0.9167  0.5079  0.1428
 5200TIP3   OH215605   6.273   0.538   4.099 -0.4272 -0.2301 -0.4474
 5200TIP3    H115606   6.185   0.513   4.126 -0.0631 -1.3553 -0.2642
 5200TIP3    H215607   6.309   0.586   4.173 -1.3689  1.5179 -1.0528
 5201TIP3   OH215608   0.152   1.736   1.330 -0.0041 -0.3723 -0.2942
 5201TIP3    H115609   0.239   1.702   1.309  0.0862 -1.1420  1.1542
 5201TIP3    H215610   0.126   1.787   1.254  2.3785  1.1770 -0.1640
 5202TIP3   OH215611   0.709   0.358   1.815  0.0647  0.0140  0.5265
 5202TIP3    H115612   0.767   0.331   1.886  2.9697  1.5269 -1.0858
 5202TIP3    H215613   0.689   0.449   1.833 -2.1199 -0.5271  1.1544
 5203TIP3   OH215614   1.425   2.501   4.797 -0.0543  0.2517  0.0507
 5203TIP3    H115615   1.487   2.509   4.725  0.5782 -0.6672  0.4747
 5203TIP3    H215616   1.344   2.471   4.755  0.0016  0.7344 -0.4083
 5204TIP3   OH215617   0.540   3.543   1.738 -0.7523 -0.2970  0.1945
 5204TIP3    H115618   0.525   3.471   1.799  1.0706 -0.9984 -0.1530
 5204TIP3    H215619   0.458   3.594   1.742 -0.9327 -0.6412  2.7413
 5205TIP3   OH215620   4.923   0.760   2.655  0.7755 -0.0176  0.0535
 5205TIP3    H115621   4.994   0.699   2.674 -0.0932 -1.5868 -1.4933
 5205TIP3    H215622   4.855   0.740   2.719 -0.4761 -2.4393 -1.8725
 5206TIP3   OH215623   3.732   3.443   3.396  0.1808  0.6336  0.1109
 5206TIP3    H115624   3.811   3.389   3.409 -1.6224 -2.1619  0.2990
 5206TIP3    H215625   3.687   3.440   3.480 -1.2918  0.1405 -0.6699
 5207TIP3   OH215626   0.080   4.417   0.873  0.4044 -0.5487 -0.4981
 5207TIP3    H115627   0.145   4.486   0.884 -0.0406 -0.1295 -0.4878
 5207TIP3    H215628   0.044   4.431   0.786  0.0259 -0.5149 -0.3403
 5208TIP3   OH215629   0.120   1.457   1.471 -0.7687  0.4561  0.0673
 5208TIP3    H115630   0.189   1.495   1.417 -0.0146  0.1142  0.7718
 5208TIP3    H215631   0.056   1.423   1.408  0.3463 -0.4018 -0.6412
 5209TIP3   OH215632   5.750   5.174   1.542  0.3028 -0.4986  0.2712
 5209TIP3    H115633   5.753   5.131   1.627 -3.3234  0.6573  1.1381
 5209TIP3    H215634   5.763   5.267   1.562  2.5274 -0.4724 -0.9214
 5210TIP3   OH215635   0.142   4.858   3.093  0.0300 -0.1695 -0.4313
 5210TIP3    H115636   0.189   4.789   3.047  1.7099  1.0807 -0.7145
 5210TIP3    H215637   0.117   4.920   3.025 -0.9641 -0.2223 -0.1242
 5211TIP3   OH215638   2.168   5.435   3.971  0.2380 -0.4257  0.5252
 5211TIP3    H115639   2.150   5.349   4.008  0.1232 -0.5023  0.2904
 5211TIP3    H215640   2.246   5.465   4.017  1.6567 -1.6185 -0.9815
 5212TIP3   OH215641   0.041   3.943   0.786  0.2315 -0.2378 -0.6329
 5212TIP3    H115642   0.079   3.859   0.809 -1.3198 -0.7341  0.2454
 5212TIP3    H215643  -0.048   3.923   0.756  0.3415  0.9443 -1.8687
 5213TIP3   OH215644   3.480   2.271   3.125 -0.1343  0.0875 -0.3555
 5213TIP3    H115645   3.435   2.332   3.183 -0.6493  0.5063 -1.1783
 5213TIP3    H215646   3.455   2.184   3.157 -1.2849  0.3145 -0.6084
 5214TIP3   OH215647   5.210   3.176   3.460  0.3576 -0.3312 -0.2585
 5214TIP3    H115648   5.287   3.191   3.514 -0.5210  0.9300  0.7126
 5214TIP3    H215649   5.237   3.200   3.372  1.3904 -0.9953 -0.1290
 5215TIP3   OH215650   2.932   4.280   4.709  0.7490  0.5289 -0.0457
 5215TIP3    H115651   3.026   4.276   4.726  0.7196  0.0965  0.0333
 5215TIP3    H215652   2.892   4.232   4.782  0.3985  1.6024  0.4823
 5216TIP3   OH215653   4.295   4.246   4.187 -0.1665  0.0521  0.6066
 5216TIP3    H115654   4.230   4.294   4.239 -0.6112 -0.9498  1.0113
 5216TIP3    H215655   4.288   4.156   4.218  0.3165 -0.3660 -0.4580
 5217TIP3   OH215656   3.173   3.698   0.950  0.1347  0.1012  0.1118
 5217TIP3    H115657   3.101   3.674   0.891  0.2520  0.4917 -0.1893
 5217TIP3    H215658   3.250   3.701   0.895  0.0776  1.4744  0.0674
 5218TIP3   OH215659   0.340   1.227   1.205 -0.2978 -0.0595  0.4463
 5218TIP3    H115660   0.330   1.177   1.285  0.5677 -0.2716  0.4255
 5218TIP3    H215661   0.315   1.166   1.135  0.2913 -0.3150  0.4559
 5219TIP3   OH215662   5.320   3.826   1.539 -0.0645  1.0071 -0.3209
 5219TIP3    H115663   5.253   3.803   1.475 -0.7186  0.9167  0.3778
 5219TIP3    H215664   5.391   3.863   1.488 -1.2549  2.5085 -0.9616
 5220TIP3   OH215665   3.775   3.302   0.199 -0.0139 -0.1642  0.1018
 5220TIP3    H115666   3.819   3.284   0.282 -0.3544  1.6554  0.7420
 5220TIP3    H215667   3.839   3.355   0.150  0.3423 -1.5616 -0.9935
 5221TIP3   OH215668   2.709   1.497   2.631 -0.1676  0.2483 -0.4517
 5221TIP3    H115669   2.701   1.486   2.537  1.9078  1.9973 -0.9057
 5221TIP3    H215670   2.672   1.583   2.649 -0.3382  0.0260  0.3060
 5222TIP3   OH215671   1.789   3.039   3.315 -0.1931  0.1080  0.0954
 5222TIP3    H115672   1.712   3.085   3.348 -1.4231 -1.4295 -0.5328
 5222TIP3    H215673   1.852   3.042   3.388 -2.0154 -1.2801  1.8248
 5223TIP3   OH215674   0.480   5.944   2.502 -0.3829 -0.0870  0.3225
 5223TIP3    H115675   0.417   5.915   2.437 -1.3305 -1.4117  1.7436
 5223TIP3    H215676   0.506   5.864   2.548 -1.0267  0.9246  2.6291
 5224TIP3   OH215677   1.034   5.785   4.469 -0.4273  0.1713 -0.7001
 5224TIP3    H115678   1.061   5.813   4.382  1.3855  0.7648  0.0081
 5224TIP3    H215679   1.081   5.702   4.483  1.6081  1.4641  0.7404
 5225TIP3   OH215680   2.583   0.510   3.502  0.1684 -0.0050  0.2433
 5225TIP3    H115681   2.646   0.565   3.455 -0.3950  2.6754  2.3925
 5225TIP3    H215682   2.635   0.434   3.529  1.3425  0.0360 -1.6700
 5226TIP3   OH215683   5.031   0.915   4.027  0.3308  0.6440 -0.3781
 5226TIP3    H115684   5.018   0.827   4.062 -0.1484  1.1694  0.8114
 5226TIP3    H215685   5.079   0.961   4.097 -1.5329  2.0151  0.0654
 5227TIP3   OH215686   0.158   3.709   1.418 -0.3004  0.1856  0.0367
 5227TIP3    H115687   0.079   3.724   1.471 -0.4243 -0.4752  0.0470
 5227TIP3    H215688   0.171   3.615   1.420  0.4399  0.2757 -0.0495
 5228TIP3   OH215689   3.870   3.687   2.984 -0.0905 -0.0225  0.1421
 5228TIP3    H115690   3.931   3.616   2.965 -0.9501 -1.4788  2.3690
 5228TIP3    H215691   3.856   3.681   3.079 -1.2615  2.2842  0.1827
 5229TIP3   OH215692   1.966   3.837   1.951 -0.3739  0.7521 -0.1120
 5229TIP3    H115693   1.959   3.902   2.021  0.9004  0.9673 -0.1632
 5229TIP3    H215694   1.883   3.843   1.904 -0.3711  2.2099  0.0134
 5230TIP3   OH215695   6.143   4.821   3.674 -0.1559 -0.1833  0.2831
 5230TIP3    H115696   6.089   4.742   3.679 -1.5413  0.6763 -0.6613
 5230TIP3    H215697   6.233   4.787   3.672 -0.6984 -1.7214  0.2758
 5231TIP3   OH215698   3.420   1.274   3.242 -0.2902  0.1753 -0.0768
 5231TIP3    H115699   3.497   1.217   3.240  1.0887  1.9375  0.6074
 5231TIP3    H215700   3.353   1.221   3.285  0.1522 -1.7753 -1.6088
 5232TIP3   OH215701   4.154   1.812   0.562  0.0760  0.1988  0.1943
 5232TIP3    H115702   4.119   1.901   0.554  1.2540  0.6200 -0.4955
 5232TIP3    H215703   4.236   1.823   0.609 -0.4095 -0.7090  1.3039
 5233TIP3   OH215704   0.153   2.769   1.825  0.2311  0.3009 -0.3558
 5233TIP3    H115705   0.151   2.864   1.833  2.6263  0.3967 -0.1528
 5233TIP3    H215706   0.167   2.754   1.731  0.5585  0.1931 -0.2918
 5234TIP3   OH215707   3.808   0.921   1.502 -0.5317  0.0381  0.2036
 5234TIP3    H115708   3.845   0.990   1.446 -0.2349  1.0011  1.5292
 5234TIP3    H215709   3.812   0.842   1.449 -0.3122  0.9225 -1.1489
 5235TIP3   OH215710   0.303   3.368   4.685  0.1738 -0.3358 -0.1653
 5235TIP3    H115711   0.213   3.387   4.713  0.0813 -0.0415 -0.6615
 5235TIP3    H215712   0.318   3.426   4.611  0.7583 -0.4265 -0.1219
 5236TIP3   OH215713   5.500   0.829   0.633  0.1498 -0.0113 -0.0899
 5236TIP3    H115714   5.451   0.766   0.686  0.2273 -0.8907 -1.0128
 5236TIP3    H215715   5.528   0.896   0.694 -0.4284 -0.5882  0.8302
 5237TIP3   OH215716   4.480   2.519   0.445 -0.6820 -0.2512 -0.1055
 5237TIP3    H115717   4.456   2.451   0.383 -0.6452 -0.6642  0.3269
 5237TIP3    H215718   4.570   2.498   0.471 -1.4932 -1.5347  1.9442
 5238TIP3   OH215719   3.056   1.570   0.624 -0.5140  0.1560 -0.5305
 5238TIP3    H115720   3.149   1.548   0.617 -0.4268  0.6756 -1.0030
 5238TIP3    H215721   3.054   1.664   0.637 -0.9576  0.0701  0.0670
 5239TIP3   OH215722   1.352   4.400   5.115 -0.2258 -0.1399 -0.2166
 5239TIP3    H115723   1.432   4.442   5.082  0.5771 -2.8607 -2.1036
 5239TIP3    H215724   1.375   4.370   5.203  1.2551 -1.7113 -1.0732
 5240TIP3   OH215725   0.525   3.319   0.456 -0.3358 -0.3135  0.5207
 5240TIP3    H115726   0.501   3.283   0.371  0.7388 -0.8675  0.4268
 5240TIP3    H215727   0.524   3.414   0.444 -2.1961 -0.3050  0.4806
 5241TIP3   OH215728   5.393   2.738   3.656 -0.0275 -1.0281  0.4254
 5241TIP3    H115729   5.466   2.784   3.699 -0.7547  0.6721 -0.0589
 5241TIP3    H215730   5.431   2.657   3.624  1.1544 -1.1380  1.9743
 5242TIP3   OH215731   1.866   3.780   0.119 -0.0042 -0.1522 -0.0352
 5242TIP3    H115732   1.944   3.725   0.119 -0.6214 -1.0502 -0.5257
 5242TIP3    H215733   1.894   3.862   0.078  1.2803  0.4568  1.9133
 5243TIP3   OH215734   5.094   4.202   4.957 -0.6817  0.4808 -0.1617
 5243TIP3    H115735   5.091   4.251   4.875  1.5010  2.7896  0.9735
 5243TIP3    H215736   5.008   4.161   4.964 -1.3197  1.0989 -3.0376
 5244TIP3   OH215737   2.939   3.996   4.218  0.7035  0.2306  0.1678
 5244TIP3    H115738   3.007   4.037   4.163  0.7198  0.2846  0.2282
 5244TIP3    H215739   2.958   4.027   4.307  1.6952 -1.1680  0.4836
 5245TIP3   OH215740   4.172   0.910   2.452  0.1021 -0.0715 -0.2011
 5245TIP3    H115741   4.224   0.940   2.377 -0.0639  1.7803  0.3591
 5245TIP3    H215742   4.139   0.824   2.426  2.9178 -1.0541 -0.8164
 5246TIP3   OH215743   0.327   4.689   2.414 -0.0557  0.7044 -0.3157
 5246TIP3    H115744   0.342   4.730   2.499 -0.1264  1.7231 -0.7783
 5246TIP3    H215745   0.413   4.687   2.372  0.0461 -0.1211 -0.1043
 5247TIP3   OH215746   0.134   0.898   4.365 -0.1336  0.2776  0.6012
 5247TIP3    H115747   0.227   0.877   4.371 -0.2504 -0.2268  0.6335
 5247TIP3    H215748   0.131   0.976   4.308  0.3109  0.3499  0.6751
 5248TIP3   OH215749   0.063   5.495   4.291 -0.2327 -0.1631  0.0044
 5248TIP3    H115750   0.130   5.507   4.358  0.0139 -1.3422 -0.0141
 5248TIP3    H215751  -0.017   5.475   4.341 -0.2879 -0.0069 -0.0200
 5249TIP3   OH215752   3.290   5.527   1.730  0.0443  0.1336  0.1933
 5249TIP3    H115753   3.199   5.497   1.720  0.0904 -0.4656  1.3680
 5249TIP3    H215754   3.304   5.528   1.825  0.5467  2.4648  0.1606
 5250TIP3   OH215755   4.788   0.606   0.943  0.3591 -0.4432  0.1794
 5250TIP3    H115756   4.822   0.520   0.969 -2.5878 -1.0792  2.5097
 5250TIP3    H215757   4.738   0.588   0.864  0.2897 -0.7398  0.2886
 5251TIP3   OH215758   2.913   0.950   5.033  0.0360 -0.5652 -0.2734
 5251TIP3    H115759   2.961   0.901   5.100 -0.3456  0.2256  0.6045
 5251TIP3    H215760   2.979   1.004   4.991  0.2262 -0.8444 -0.3406
 5252TIP3   OH215761   2.704   2.498   0.602  0.3879 -0.2579  0.4937
 5252TIP3    H115762   2.661   2.452   0.674 -1.9980  0.9739 -0.0475
 5252TIP3    H215763   2.693   2.440   0.527 -0.6517  0.1918  0.2892
 5253TIP3   OH215764   4.574   4.359   1.845  0.4456  0.0610  0.0654
 5253TIP3    H115765   4.551   4.292   1.909 -0.5884  0.4313  0.0967
 5253TIP3    H215766   4.668   4.372   1.857  0.3156 -0.0459  1.3450
 5254TIP3   OH215767   5.308   4.009   4.191  0.8825 -0.0741  0.2170
 5254TIP3    H115768   5.320   3.923   4.150  1.3504 -0.0528  0.2984
 5254TIP3    H215769   5.231   4.046   4.148  0.6898 -0.5258  0.1675
 5255TIP3   OH215770   0.711   5.000   2.624  0.1871  0.3531  0.4685
 5255TIP3    H115771   0.766   4.943   2.569  1.8685  2.2797  0.0202
 5255TIP3    H215772   0.655   5.046   2.561  2.3738  2.8404  0.1487
 5256TIP3   OH215773   5.287   5.285   5.137 -0.2432 -0.1402 -0.2080
 5256TIP3    H115774   5.199   5.303   5.169 -1.0053 -1.1555 -1.5847
 5256TIP3    H215775   5.335   5.367   5.149 -1.5792  0.6523 -0.1085
 5257TIP3   OH215776   3.932   4.860   0.432  0.2939  0.4463 -0.4181
 5257TIP3    H115777   3.873   4.786   0.420  0.1658  0.6542 -1.1185
 5257TIP3    H215778   4.007   4.840   0.376  0.9915  0.0867  0.6204
 5258TIP3   OH215779   5.979   4.427   5.031  0.7351  0.0016 -0.5178
 5258TIP3    H115780   5.894   4.428   5.075 -0.5077 -2.8278 -2.5125
 5258TIP3    H215781   5.989   4.516   4.996 -1.0107  0.6177  0.4356
 5259TIP3   OH215782   1.395   4.260   2.885 -0.3518 -0.0145  0.1197
 5259TIP3    H115783   1.317   4.282   2.937 -0.0244 -0.3214  0.7577
 5259TIP3    H215784   1.436   4.188   2.933  0.4305  0.2743 -0.0957
 5260TIP3   OH215785   4.910   0.877   4.864  0.1897  0.0101 -0.6815
 5260TIP3    H115786   4.885   0.800   4.813  3.5402 -1.2613 -0.6993
 5260TIP3    H215787   4.979   0.918   4.812 -0.7449  2.4258 -0.1195
 5261TIP3   OH215788   0.983   5.553   0.090  0.2693  0.6681 -0.2083
 5261TIP3    H115789   0.983   5.457   0.095  0.0482  0.7148  1.1072
 5261TIP3    H215790   1.044   5.580   0.159  2.1123  1.4512 -2.0592
 5262TIP3   OH215791   2.808   4.712   2.221 -0.0086 -0.0591 -0.5676
 5262TIP3    H115792   2.768   4.698   2.136 -1.2838 -0.3074  0.0473
 5262TIP3    H215793   2.798   4.806   2.238  0.6506  0.0716 -0.8779
 5263TIP3   OH215794   1.667   3.126   1.513  0.4800 -0.7836  0.2366
 5263TIP3    H115795   1.685   3.035   1.539  1.2332 -0.3191  1.4082
 5263TIP3    H215796   1.605   3.158   1.578 -2.2321 -1.3369 -1.9063
 5264TIP3   OH215797   2.561   2.592  -0.027 -0.1340 -0.5823 -0.3423
 5264TIP3    H115798   2.608   2.559   0.049 -0.2837 -0.3084 -0.1305
 5264TIP3    H215799   2.546   2.685  -0.008 -0.7384 -0.6607 -0.4163
 5265TIP3   OH215800   2.951   2.246   4.959  0.1834 -0.6538  0.0693
 5265TIP3    H115801   3.001   2.274   5.035  0.1749  2.0866 -0.8295
 5265TIP3    H215802   2.932   2.327   4.911 -1.5497 -2.0485 -1.7937
 5266TIP3   OH215803   1.843   2.149   3.093 -0.3307  0.5090  0.0604
 5266TIP3    H115804   1.792   2.224   3.121 -2.3780 -0.9284  0.3995
 5266TIP3    H215805   1.834   2.147   2.998  0.4008  1.1270 -0.0294
 5267TIP3   OH215806   4.633   5.894  -0.014 -0.1235  0.3812 -0.8565
 5267TIP3    H115807   4.706   5.957  -0.012  0.9651 -0.8482 -0.0539
 5267TIP3    H215808   4.581   5.916   0.064  1.1085 -0.6287  0.3024
 5268TIP3   OH215809   1.585   4.908   0.825  0.5178 -0.0888  0.5559
 5268TIP3    H115810   1.551   4.894   0.914 -0.5629 -0.3944  0.1158
 5268TIP3    H215811   1.597   4.819   0.790  0.6570  0.0323  0.2953
 5269TIP3   OH215812   4.678   4.722   1.097  0.0734 -0.2581 -0.5244
 5269TIP3    H115813   4.604   4.777   1.123 -0.2757 -0.3492 -1.2947
 5269TIP3    H215814   4.638   4.644   1.058  0.5677 -0.8368  0.0997
 5270TIP3   OH215815   2.024   3.047   4.445  0.0067  0.2851  0.5341
 5270TIP3    H115816   1.938   3.028   4.482 -0.4270  3.6498  1.5831
 5270TIP3    H215817   2.086   3.010   4.509 -0.5129 -2.4548 -0.3998
 5271TIP3   OH215818   1.573   2.507   4.538 -0.4405 -0.7644 -0.1862
 5271TIP3    H115819   1.540   2.436   4.483 -0.4079 -0.6288 -0.3793
 5271TIP3    H215820   1.668   2.499   4.533 -0.3679  0.5885 -1.9154
 5272TIP3   OH215821   6.270   5.526   1.411 -0.3057 -0.5958  0.5863
 5272TIP3    H115822   6.313   5.511   1.496  1.2162  0.5962  0.0609
 5272TIP3    H215823   6.177   5.508   1.428 -0.2557  0.9046  2.8505
 5273TIP3   OH215824   3.498   3.789   4.287 -0.3738 -0.8063  0.0931
 5273TIP3    H115825   3.522   3.737   4.363 -1.6296  0.0540  1.1305
 5273TIP3    H215826   3.404   3.807   4.299 -0.0585  1.4763 -0.3075
 5274TIP3   OH215827   4.160   1.182   4.147  0.6838  0.5353  0.5118
 5274TIP3    H115828   4.182   1.225   4.230 -0.0093  0.9710  0.4772
 5274TIP3    H215829   4.242   1.182   4.098  1.2932 -0.3949  1.4814
 5275TIP3   OH215830   3.891   3.268   2.643  1.0109  0.4801 -0.4869
 5275TIP3    H115831   3.914   3.239   2.732  0.4988  1.1596 -0.1232
 5275TIP3    H215832   3.975   3.295   2.604  1.1769  0.6190 -0.0435
 5276TIP3   OH215833   1.313   3.371   0.190 -0.4912 -0.1002 -0.4991
 5276TIP3    H115834   1.356   3.391   0.107  0.4258 -1.5472 -0.4151
 5276TIP3    H215835   1.349   3.434   0.252 -0.2699  0.2111 -0.9401
 5277TIP3   OH215836   3.273   3.548   3.400  0.0138 -0.3840 -0.0741
 5277TIP3    H115837   3.326   3.474   3.371 -1.7835 -1.7650 -0.0079
 5277TIP3    H215838   3.184   3.523   3.377 -0.7820  1.1811  1.1870
 5278TIP3   OH215839   2.430   2.572   3.774  0.2893 -0.0999 -0.1907
 5278TIP3    H115840   2.373   2.639   3.737  1.6357  0.7234 -0.8457
 5278TIP3    H215841   2.383   2.490   3.757 -1.6939  0.6622  1.2171
 5279TIP3   OH215842   5.812   3.436   4.655 -0.2320  0.0650 -0.4303
 5279TIP3    H115843   5.784   3.434   4.746  0.0697 -0.9614 -0.3471
 5279TIP3    H215844   5.846   3.348   4.638  0.5530  0.5035 -1.2665
 5280TIP3   OH215845   1.382   1.826   2.947 -0.0328  0.2644 -0.1440
 5280TIP3    H115846   1.292   1.797   2.934 -0.1078 -0.1191  1.1139
 5280TIP3    H215847   1.436   1.751   2.921  0.1771  1.5593 -4.2344
 5281TIP3   OH215848   3.524   5.115   4.041  0.1700  0.5260 -0.1561
 5281TIP3    H115849   3.438   5.152   4.019  0.2639  1.1302  0.4805
 5281TIP3    H215850   3.535   5.132   4.134  0.8288  0.1210 -0.1500
 5282TIP3   OH215851   1.231   1.110   2.379 -0.4132  0.0451 -0.4499
 5282TIP3    H115852   1.248   1.147   2.292  0.8727  0.6712  0.0414
 5282TIP3    H215853   1.135   1.115   2.389 -0.5021  0.7127 -1.4972
 5283TIP3   OH215854   1.587   2.788   2.899  0.2586  0.1081 -0.1832
 5283TIP3    H115855   1.620   2.705   2.865 -0.8731 -0.5242  0.1923
 5283TIP3    H215856   1.630   2.855   2.846  2.1040 -0.6503  0.2880
 5284TIP3   OH215857   3.004   1.383   0.378  0.6357  0.6191  0.0932
 5284TIP3    H115858   2.991   1.429   0.461 -0.2361  0.0027  0.3203
 5284TIP3    H215859   2.916   1.354   0.353  0.8408  1.1164 -1.2453
 5285TIP3   OH215860   2.766   4.986   2.161  0.5030 -0.2030  0.5469
 5285TIP3    H115861   2.744   5.072   2.195  1.9827  0.1191  0.7613
 5285TIP3    H215862   2.804   5.004   2.075 -0.1683 -0.7375  0.1309
 5286TIP3   OH215863   6.263   5.556   2.362 -0.2664 -0.2090 -0.0970
 5286TIP3    H115864   6.354   5.533   2.343 -0.3426  0.0683 -0.8430
 5286TIP3    H215865   6.211   5.484   2.324 -0.3730 -0.2200  0.0671
 5287TIP3   OH215866   4.631   4.768   3.552  0.0344  0.8002  0.4827
 5287TIP3    H115867   4.592   4.794   3.468 -0.8167  2.0401  1.2343
 5287TIP3    H215868   4.682   4.690   3.531 -1.2219  0.3127 -0.9349
 5288TIP3   OH215869   5.193   4.796   3.203 -0.3720  0.2746 -0.3944
 5288TIP3    H115870   5.188   4.753   3.288 -1.1585 -0.0824 -0.6145
 5288TIP3    H215871   5.218   4.726   3.142 -1.8917  0.0465 -0.7914
 5289TIP3   OH215872   5.245   1.429   3.073 -0.0529 -0.1686  0.3048
 5289TIP3    H115873   5.190   1.421   2.995  1.1164 -1.1368 -0.4500
 5289TIP3    H215874   5.200   1.378   3.140 -0.5065 -0.2420 -0.0547
 5290TIP3   OH215875   3.127   0.519   1.441  0.1932 -0.3377  0.4449
 5290TIP3    H115876   3.195   0.586   1.444  0.4980 -0.5999 -0.2840
 5290TIP3    H215877   3.071   0.544   1.367  0.0606 -0.6497  0.4367
 5291TIP3   OH215878   2.556   1.298   0.474  0.1787 -0.5801 -0.5200
 5291TIP3    H115879   2.585   1.208   0.487 -0.8471 -0.7953  0.4107
 5291TIP3    H215880   2.549   1.334   0.563 -1.8945 -0.4126 -0.6880
 5292TIP3   OH215881   2.737   2.868   4.154  0.1705 -0.4036  0.2540
 5292TIP3    H115882   2.707   2.945   4.105  2.5985  1.4164  1.4387
 5292TIP3    H215883   2.677   2.863   4.229 -1.1916 -0.9057 -0.8182
 5293TIP3   OH215884   4.604   5.643   2.077  0.0589 -0.2233 -0.6026
 5293TIP3    H115885   4.621   5.666   1.986  2.1492 -0.8706 -0.4256
 5293TIP3    H215886   4.589   5.548   2.075  0.7509 -0.3431 -0.2014
 5294TIP3   OH215887   1.977   0.078   0.889 -0.6230  0.5401 -0.1041
 5294TIP3    H115888   1.898   0.037   0.852 -0.4489 -0.3075  0.4414
 5294TIP3    H215889   1.954   0.097   0.980 -1.0867  2.7259 -0.6196
 5295TIP3   OH215890   2.359   4.665   1.834 -0.2926  0.5024  0.6706
 5295TIP3    H115891   2.414   4.729   1.788  0.2374  0.5346  1.3323
 5295TIP3    H215892   2.286   4.715   1.868 -0.3019  0.6117  0.4900
 5296TIP3   OH215893   1.525   0.523   0.016 -0.3899 -0.1055 -0.2955
 5296TIP3    H115894   1.432   0.533   0.035 -0.1611  0.2054  0.7440
 5296TIP3    H215895   1.563   0.494   0.099  0.3933 -0.5431 -0.7947
 5297TIP3   OH215896   0.378   4.857   1.808 -0.0171 -0.1488  0.3104
 5297TIP3    H115897   0.397   4.789   1.872 -0.4470 -1.5361 -0.9985
 5297TIP3    H215898   0.463   4.876   1.768  0.2390  0.6666  1.1934
 5298TIP3   OH215899   0.466   5.795   1.864  0.0034  0.0726 -0.2003
 5298TIP3    H115900   0.411   5.722   1.891  1.4615 -1.0108 -0.0384
 5298TIP3    H215901   0.534   5.800   1.931  0.4620  0.9780 -0.7125
 5299TIP3   OH215902   2.030   4.536   2.774  0.1492  0.0173 -0.4598
 5299TIP3    H115903   2.107   4.502   2.820 -0.7227 -1.1334  0.2045
 5299TIP3    H215904   1.979   4.458   2.751 -0.5369  0.7144 -1.4175
 5300TIP3   OH215905   3.377   3.688   2.620 -0.1636 -0.5169 -0.0430
 5300TIP3    H115906   3.451   3.689   2.681 -1.3455 -0.7814  1.4675
 5300TIP3    H215907   3.362   3.780   2.599 -0.2176 -0.3371  0.7230
 5301TIP3   OH215908   5.137   4.636   2.785 -0.3998 -0.3893  0.0117
 5301TIP3    H115909   5.151   4.633   2.879  1.0528  0.1266 -0.1646
 5301TIP3    H215910   5.043   4.624   2.774 -0.4334 -1.7643  1.4482
 5302TIP3   OH215911   3.447   1.801   4.782 -0.1695  0.6011 -0.4055
 5302TIP3    H115912   3.352   1.797   4.797 -0.0442  0.0316  0.3111
 5302TIP3    H215913   3.472   1.711   4.762  0.1552  0.8312 -1.0558
 5303TIP3   OH215914   0.211   4.536   1.529  0.3874  0.1994  0.3569
 5303TIP3    H115915   0.247   4.503   1.611  1.1252  1.0749  0.4064
 5303TIP3    H215916   0.196   4.458   1.476  1.4194 -0.2725  0.7292
 5304TIP3   OH215917   4.630   1.560   4.086 -0.2259  0.1111  0.4507
 5304TIP3    H115918   4.667   1.647   4.095 -0.0935  0.0964  0.0669
 5304TIP3    H215919   4.635   1.541   3.992 -0.1700 -0.3423  0.5418
 5305TIP3   OH215920   0.420   1.523   3.937  0.1358 -0.2728  0.4676
 5305TIP3    H115921   0.507   1.552   3.961 -0.2564  0.2881  1.2555
 5305TIP3    H215922   0.396   1.458   4.003  0.4642 -1.4308 -0.5043
 5306TIP3   OH215923   0.501   2.249   1.264  0.1838  0.7732 -0.4025
 5306TIP3    H115924   0.580   2.294   1.235 -0.7794  2.1660 -0.9742
 5306TIP3    H215925   0.509   2.246   1.360  0.5636  1.6393 -0.3974
 5307TIP3   OH215926   4.433   5.200   5.214 -0.5676  0.2146  0.5464
 5307TIP3    H115927   4.471   5.117   5.182 -0.2897  0.4805  0.1743
 5307TIP3    H215928   4.434   5.257   5.137 -0.1682  0.7686  0.9559
 5308TIP3   OH215929   3.380   5.837   0.073  0.1753  0.1052  0.0354
 5308TIP3    H115930   3.319   5.891   0.123 -1.3385 -0.3235 -1.2562
 5308TIP3    H215931   3.441   5.900   0.034 -1.8207  1.0521 -1.8201
 5309TIP3   OH215932   6.295   1.834   1.493 -0.2123  0.1324  0.2344
 5309TIP3    H115933   6.367   1.780   1.460  0.1701  0.5070  0.4446
 5309TIP3    H215934   6.326   1.866   1.578 -0.5635  0.4228  0.2567
 5310TIP3   OH215935   3.960   3.893   3.886 -0.4814  0.7647  0.2937
 5310TIP3    H115936   3.912   3.859   3.811 -0.4984  2.1370 -0.3505
 5310TIP3    H215937   3.922   3.849   3.962  0.3297 -1.5559 -0.5550
 5311TIP3   OH215938   0.829   2.744   1.346 -0.5557 -0.3145  0.7150
 5311TIP3    H115939   0.811   2.837   1.330  3.2721  1.1869  3.5460
 5311TIP3    H215940   0.761   2.717   1.407 -0.1227  1.6109  2.1772
 5312TIP3   OH215941   4.501   3.417   1.733  0.5540  0.4186  0.5195
 5312TIP3    H115942   4.426   3.389   1.680  0.2360  2.4539 -0.2299
 5312TIP3    H215943   4.472   3.500   1.772  1.9954  0.6159  1.2129
 5313TIP3   OH215944   2.788   2.203   2.926 -0.3373 -0.1080 -0.8365
 5313TIP3    H115945   2.711   2.252   2.955 -1.2034 -1.2126 -1.1966
 5313TIP3    H215946   2.860   2.239   2.977 -1.2336  0.3783  0.1218
 5314TIP3   OH215947   5.342   0.616   1.204 -0.1738 -0.3131 -0.1940
 5314TIP3    H115948   5.339   0.707   1.231 -1.4035  0.0562 -1.4196
 5314TIP3    H215949   5.253   0.583   1.219  0.0261 -1.0489 -0.5437
 5315TIP3   OH215950   6.345   1.384   4.535  0.3325 -0.0764 -0.3975
 5315TIP3    H115951   6.305   1.462   4.497  0.3616 -0.1922 -0.6644
 5315TIP3    H215952   6.325   1.391   4.629 -2.0269 -1.0966 -0.7414
 5316TIP3   OH215953   4.445   0.027   3.863  0.4591 -0.3196 -0.1387
 5316TIP3    H115954   4.527   0.061   3.897  1.2387  2.5681 -4.1249
 5316TIP3    H215955   4.469  -0.058   3.826  1.1712 -0.3733  0.4145
 5317TIP3   OH215956   1.114   2.461   1.520  0.1058 -0.4936 -0.2244
 5317TIP3    H115957   1.113   2.365   1.521 -0.9215 -0.4845  0.9648
 5317TIP3    H215958   1.093   2.487   1.609  1.9497  0.8652 -0.1244
 5318TIP3   OH215959   4.620   2.286   5.077 -0.0771 -0.1091 -0.2261
 5318TIP3    H115960   4.709   2.294   5.040  0.2048  0.9394  0.6319
 5318TIP3    H215961   4.624   2.337   5.159 -1.7045  0.6695 -0.6015
 5319TIP3   OH215962   2.922   2.995   5.107 -0.6274  0.9015 -0.1897
 5319TIP3    H115963   2.993   3.027   5.163 -1.3545  1.7894  0.2497
 5319TIP3    H215964   2.922   2.900   5.120  1.6488  0.6217 -1.6011
 5320TIP3   OH215965   2.409   5.881   1.637 -0.1005  0.0358  0.2545
 5320TIP3    H115966   2.445   5.825   1.705  0.6362 -0.4646 -0.5213
 5320TIP3    H215967   2.392   5.821   1.564  0.8876  0.8363 -0.6638
 5321TIP3   OH215968   1.213   2.516   3.396 -0.2727 -0.1351  0.9111
 5321TIP3    H115969   1.118   2.508   3.390 -0.2573  0.7855 -1.7382
 5321TIP3    H215970   1.246   2.429   3.370 -0.4156  0.3115 -0.9108
 5322TIP3   OH215971   0.107   4.282   0.352  0.4836 -0.0483 -0.0533
 5322TIP3    H115972   0.084   4.234   0.432 -1.6859  0.6944 -0.1825
 5322TIP3    H215973   0.194   4.319   0.371  1.0611 -1.8131  1.0280
 5323TIP3   OH215974   2.032   1.987   1.849 -0.1301  0.0872  0.1612
 5323TIP3    H115975   2.098   1.963   1.914  1.0184 -0.8356 -1.2921
 5323TIP3    H215976   2.079   2.039   1.784 -0.7234 -0.8103 -1.0356
 5324TIP3   OH215977   0.599   2.126   2.610 -0.2467  0.0358 -0.0699
 5324TIP3    H115978   0.663   2.073   2.561  0.0810 -0.2828  0.6993
 5324TIP3    H215979   0.516   2.106   2.568 -0.1351 -1.1089  0.2024
 5325TIP3   OH215980   1.825   5.495   1.543 -0.2244 -0.0628 -0.6883
 5325TIP3    H115981   1.872   5.432   1.490 -2.0118 -2.9951  0.9625
 5325TIP3    H215982   1.884   5.515   1.616 -0.7151 -2.2996  0.4020
 5326TIP3   OH215983   6.123   5.804   5.078 -0.5963  0.1952  0.4342
 5326TIP3    H115984   6.068   5.726   5.089 -0.0312 -0.1340  1.0039
 5326TIP3    H215985   6.158   5.797   4.990 -1.5964  0.5005 -0.0073
 5327TIP3   OH215986   1.985   5.212   3.987  0.4817  0.4638  0.6218
 5327TIP3    H115987   1.944   5.126   3.996  0.3621  0.3358 -0.9036
 5327TIP3    H215988   1.962   5.258   4.068  0.1868 -0.7782  1.2654
 5328TIP3   OH215989   3.848   0.910   4.325 -0.0973 -0.0100 -0.2140
 5328TIP3    H115990   3.849   0.964   4.246  0.5795 -0.8209 -0.7816
 5328TIP3    H215991   3.784   0.842   4.306 -0.6564  0.3582  0.3376
 5329TIP3   OH215992   5.168   3.887   1.306  0.4765  0.3049 -0.4704
 5329TIP3    H115993   5.118   3.819   1.260  0.1858  0.0121  0.2670
 5329TIP3    H215994   5.186   3.952   1.238  0.9575 -0.6037 -1.2525
 5330TIP3   OH215995   0.202   3.454   1.389 -0.4291 -0.8927 -0.2909
 5330TIP3    H115996   0.277   3.461   1.330 -0.2615 -0.1348  0.0104
 5330TIP3    H215997   0.157   3.374   1.360 -0.9908  0.0533 -2.1972
 5331TIP3   OH215998   0.297   2.609   3.872 -0.2756 -0.1357  0.5323
 5331TIP3    H115999   0.212   2.571   3.848 -0.4739  1.0299 -0.7200
 5331TIP3    H216000   0.294   2.698   3.837  2.0585 -0.5471 -0.8712
 5332TIP3   OH216001   0.877   5.354   4.436  0.3826  0.3752 -0.0164
 5332TIP3    H116002   0.822   5.294   4.386  1.0694 -0.5609  0.3088
 5332TIP3    H216003   0.830   5.367   4.519  0.1686  0.3807 -0.1390
 5333TIP3   OH216004   5.451   2.312   0.516  0.6033  0.6747  0.8014
 5333TIP3    H116005   5.455   2.329   0.611 -1.2641 -0.9460  1.2409
 5333TIP3    H216006   5.529   2.355   0.481  0.3398  2.9917  2.7908
 5334TIP3   OH216007   0.018   3.332   4.477  0.2697  0.6119 -0.3277
 5334TIP3    H116008  -0.072   3.315   4.503  0.1859  0.3911 -0.7550
 5334TIP3    H216009   0.059   3.245   4.473  0.5693  0.7296  0.1069
 5335TIP3   OH216010   3.742   4.338   3.008  0.3924 -0.0096  0.0213
 5335TIP3    H116011   3.775   4.288   3.083  1.1776  1.0102  0.3684
 5335TIP3    H216012   3.818   4.384   2.974 -0.3376  1.0147 -0.2645
 5336TIP3   OH216013   3.474   4.709   1.351 -0.1033 -0.2409  0.5030
 5336TIP3    H116014   3.523   4.779   1.396  0.0899  0.7675 -1.1986
 5336TIP3    H216015   3.387   4.711   1.391  0.0972  0.5432  0.9199
 5337TIP3   OH216016   0.235   5.567   0.971 -0.2538  0.0026 -0.1844
 5337TIP3    H116017   0.144   5.559   1.000 -0.3904  0.0906 -0.5846
 5337TIP3    H216018   0.236   5.525   0.885  0.5140 -1.7545  0.6417
 5338TIP3   OH216019   1.354   4.858   5.067 -0.2196 -0.0482  0.2475
 5338TIP3    H116020   1.286   4.851   5.000 -0.1041 -0.7319  0.1905
 5338TIP3    H216021   1.435   4.869   5.018 -0.1659 -0.2843  0.2826
 5339TIP3   OH216022   0.442   5.866   0.073 -0.3652 -0.1618  0.1242
 5339TIP3    H116023   0.402   5.911  -0.001 -1.5350 -0.8209  0.3308
 5339TIP3    H216024   0.478   5.785   0.035 -0.7319 -0.3726  0.2171
 5340TIP3   OH216025   2.250   2.583   1.621  0.3528 -0.1211 -0.2593
 5340TIP3    H116026   2.260   2.678   1.615  2.4786 -0.2637  0.0684
 5340TIP3    H216027   2.291   2.560   1.704  0.6051 -1.4048 -0.7163
 5341TIP3   OH216028   3.121   1.439   1.057  0.1924  1.0086  0.2059
 5341TIP3    H116029   3.175   1.479   1.125 -1.4940  0.5282  1.8884
 5341TIP3    H216030   3.056   1.506   1.035 -1.1593  0.1110  1.3135
 5342TIP3   OH216031   2.346   5.767   0.342 -0.3018  0.1536  0.5489
 5342TIP3    H116032   2.288   5.696   0.369 -0.2523 -0.8374 -1.7054
 5342TIP3    H216033   2.295   5.817   0.278  0.6483  0.4141 -0.0220
 5343TIP3   OH216034   0.822   3.344   1.150  0.1819  0.6830  0.0922
 5343TIP3    H116035   0.809   3.274   1.086  0.6033 -0.1273  0.8639
 5343TIP3    H216036   0.906   3.323   1.191 -0.1047  1.1670  0.9403
 5344TIP3   OH216037   4.542   2.773   1.373 -0.4135  0.0355  0.0052
 5344TIP3    H116038   4.497   2.689   1.360 -0.7810 -0.0485  1.6557
 5344TIP3    H216039   4.630   2.758   1.339 -0.4985 -1.0040  0.2142
 5345TIP3   OH216040   2.179   4.869   2.450  0.1899 -0.2528  0.1921
 5345TIP3    H116041   2.228   4.951   2.448 -0.4383  0.1135 -1.2594
 5345TIP3    H216042   2.103   4.888   2.505 -0.3897  0.4178 -0.8078
 5346TIP3   OH216043   5.254   3.122   0.637 -0.1354 -0.2733 -0.4917
 5346TIP3    H116044   5.330   3.169   0.673 -1.9933  1.8200  0.9353
 5346TIP3    H216045   5.273   3.029   0.653  1.1585  0.3253  1.8383
 5347TIP3   OH216046   4.657   1.621   3.511  0.1553 -0.4299  0.1283
 5347TIP3    H116047   4.644   1.716   3.519  0.0530 -0.3137 -1.1474
 5347TIP3    H216048   4.576   1.583   3.543 -0.8383  0.0448 -1.6424
 5348TIP3   OH216049   1.103   1.821   2.808 -0.3767 -0.4625 -0.1557
 5348TIP3    H116050   1.015   1.796   2.780  0.0950 -1.8870 -0.4505
 5348TIP3    H216051   1.092   1.907   2.850 -2.3437 -1.7290  2.1552
 5349TIP3   OH216052   0.493   0.686   0.461 -0.0764  0.2294 -0.5938
 5349TIP3    H116053   0.447   0.611   0.424  1.3965 -0.8480 -0.3345
 5349TIP3    H216054   0.444   0.762   0.429 -2.5567 -0.8240  0.3922
 5350TIP3   OH216055   2.042   5.150   2.044  0.2679 -0.0280 -0.7308
 5350TIP3    H116056   2.134   5.147   2.015  0.7022  1.5803  0.3129
 5350TIP3    H216057   2.048   5.150   2.140 -0.8124  0.4206 -0.6566
 5351TIP3   OH216058   4.803   4.561   2.445 -0.2696  0.3745 -0.6172
 5351TIP3    H116059   4.725   4.505   2.439  0.1133 -0.1567 -0.7600
 5351TIP3    H216060   4.872   4.509   2.404 -0.0864  1.3074 -1.5084
 5352TIP3   OH216061   5.247   5.054   3.025  0.4030 -0.4235  0.0021
 5352TIP3    H116062   5.259   4.961   3.047  0.0814 -0.4913 -0.1054
 5352TIP3    H216063   5.192   5.087   3.096  2.5222  0.2814  1.4145
 5353TIP3   OH216064   5.364   2.795   2.098 -0.2577  0.3701 -0.0006
 5353TIP3    H116065   5.314   2.872   2.126 -0.6133  0.0349  0.2912
 5353TIP3    H216066   5.383   2.812   2.006  0.1307  1.0552  0.1943
 5354TIP3   OH216067   3.885   5.631   0.684  0.1129  0.1407  0.1816
 5354TIP3    H116068   3.891   5.718   0.644 -2.7567  0.1948 -0.3355
 5354TIP3    H216069   3.848   5.575   0.616  2.5116 -1.7298  0.2787
 5355TIP3   OH216070   2.779   5.722   4.925  0.3312  0.2286  0.2735
 5355TIP3    H116071   2.730   5.800   4.951 -1.1602  0.1860 -2.1547
 5355TIP3    H216072   2.717   5.650   4.937  1.4707 -0.5536  1.8163
 5356TIP3   OH216073   1.783   0.952   0.462  0.5201  0.4346 -0.3146
 5356TIP3    H116074   1.820   0.879   0.412 -0.4709  0.1173 -0.6023
 5356TIP3    H216075   1.726   0.997   0.400  0.5054  0.9801  0.0887
 5357TIP3   OH216076   5.995   2.699   4.903 -0.4631 -0.4459 -0.8282
 5357TIP3    H116077   5.984   2.606   4.886  0.2447 -0.9124  1.0858
 5357TIP3    H216078   5.913   2.725   4.946 -0.7906 -0.0875 -1.6428
 5358TIP3   OH216079   4.130   0.434   1.930 -0.0142  0.3921 -0.0843
 5358TIP3    H116080   4.061   0.480   1.883 -0.6908 -2.0516 -1.6335
 5358TIP3    H216081   4.184   0.394   1.861  0.5030 -1.1567  1.1471
 5359TIP3   OH216082   5.770   2.560   5.196 -0.4819 -0.2162  0.1523
 5359TIP3    H116083   5.866   2.568   5.196 -0.4388 -0.6837  0.0857
 5359TIP3    H216084   5.742   2.612   5.121 -0.3388  0.5011  0.5829
 5360TIP3   OH216085   5.649   4.222   5.094 -0.0786 -0.2158 -0.0344
 5360TIP3    H116086   5.716   4.192   5.156  2.1828  4.6553  0.3548
 5360TIP3    H216087   5.570   4.232   5.147  0.6716 -0.1188  1.1065
 5361TIP3   OH216088   2.343   5.301   0.585 -0.1403 -0.1381  0.3914
 5361TIP3    H116089   2.275   5.360   0.615 -0.3599  0.3509 -0.9752
 5361TIP3    H216090   2.418   5.358   0.566 -0.1531 -0.3647 -0.3715
 5362TIP3   OH216091   4.934   0.064   4.864  0.7271  0.0002 -0.1181
 5362TIP3    H116092   4.955   0.136   4.805  1.8861  0.1057  0.3940
 5362TIP3    H216093   4.999   0.070   4.933 -0.0993 -0.6209  0.7466
 5363TIP3   OH216094   3.955   4.784   1.581  0.1120 -0.5813  0.5876
 5363TIP3    H116095   4.044   4.748   1.578 -0.5752 -2.4491  0.8895
 5363TIP3    H216096   3.899   4.707   1.571 -1.4836  0.3906  1.7091
 5364TIP3   OH216097   0.794   2.172   3.980 -0.2472 -0.0128 -0.3182
 5364TIP3    H116098   0.824   2.083   3.965  1.9902  0.7196 -0.5577
 5364TIP3    H216099   0.873   2.225   3.979 -1.2890  1.7606  1.7094
 5365TIP3   OH216100   0.648   5.763   2.066  0.5208  0.0560  0.0230
 5365TIP3    H116101   0.687   5.809   2.140 -0.7874 -1.0067  1.4565
 5365TIP3    H216102   0.719   5.709   2.031  0.9678 -0.0447  1.0429
 5366TIP3   OH216103   3.883   1.609   3.083  0.2727  0.8570  0.3854
 5366TIP3    H116104   3.805   1.634   3.133  0.9971  0.0338  2.0053
 5366TIP3    H216105   3.956   1.626   3.143  1.3842  1.8017 -1.1676
 5367TIP3   OH216106   4.182   2.972   4.082 -0.7146  0.4670  0.1158
 5367TIP3    H116107   4.241   2.917   4.134  0.2364  1.2880 -0.0717
 5367TIP3    H216108   4.177   2.929   3.997 -1.1678 -0.1233  0.4291
 5368TIP3   OH216109   1.216   1.726   3.225  0.2323 -0.4437 -0.0006
 5368TIP3    H116110   1.290   1.751   3.280 -0.5058 -0.5326  1.0558
 5368TIP3    H216111   1.221   1.630   3.220  0.9286 -0.3718 -1.0159
 5369TIP3   OH216112   2.295   0.029   4.397  0.3848 -0.0388 -0.3073
 5369TIP3    H116113   2.221   0.019   4.457  0.5897 -2.3349 -0.3406
 5369TIP3    H216114   2.372   0.018   4.452  0.6875  0.8919 -0.5243
 5370TIP3   OH216115   3.639   4.159   1.469  0.3646  0.1663 -0.4007
 5370TIP3    H116116   3.585   4.237   1.486  1.4997  1.0565 -0.7657
 5370TIP3    H216117   3.605   4.125   1.386 -1.0014 -0.5170  0.4021
 5371TIP3   OH216118   5.338   0.865   2.168  0.2396  0.2276 -0.4385
 5371TIP3    H116119   5.358   0.806   2.095  0.0453  0.4385 -0.6649
 5371TIP3    H216120   5.264   0.825   2.212 -0.1016  0.4649 -0.7872
 5372TIP3   OH216121   5.973   1.676   2.716  0.3882  0.5822  0.0732
 5372TIP3    H116122   5.882   1.698   2.734  0.8138  1.9782  0.6850
 5372TIP3    H216123   6.018   1.692   2.800  0.9565 -1.6286  0.2604
 5373TIP3   OH216124   1.686   3.315   4.975  0.1504  0.0170 -0.5832
 5373TIP3    H116125   1.712   3.286   5.062  1.0158 -0.2468 -0.9101
 5373TIP3    H216126   1.657   3.235   4.931 -0.3260  0.1560 -0.5278
 5374TIP3   OH216127   1.851   3.297   3.042 -0.6773 -0.0891 -0.2120
 5374TIP3    H116128   1.821   3.208   3.025  0.7152 -0.6990  0.4299
 5374TIP3    H216129   1.892   3.325   2.960  0.4954 -0.7273  0.1388
 5375TIP3   OH216130   2.881   3.827   1.458 -0.1738  0.5891  0.4959
 5375TIP3    H116131   2.972   3.797   1.467 -0.3118 -0.2902 -0.7847
 5375TIP3    H216132   2.875   3.860   1.368 -1.7778 -1.8720 -0.4087
 5376TIP3   OH216133   5.799   4.988   1.733 -0.0745  0.3329  0.0782
 5376TIP3    H116134   5.870   4.940   1.775 -0.0213 -0.3919 -0.8267
 5376TIP3    H216135   5.725   4.977   1.793 -0.2823 -1.5326 -0.4499
 5377TIP3   OH216136   2.086   1.282   1.652 -0.0221 -0.1340 -0.0314
 5377TIP3    H116137   2.160   1.267   1.709 -1.0763 -0.4792  1.2917
 5377TIP3    H216138   2.065   1.375   1.664  0.2544 -0.0059 -0.4987
 5378TIP3   OH216139   5.957   3.517   1.352  0.2380 -0.4067 -0.8168
 5378TIP3    H116140   6.028   3.548   1.408  0.2165 -0.8865 -0.5143
 5378TIP3    H216141   5.990   3.436   1.314 -0.1988 -0.7110 -0.5628
 5379TIP3   OH216142   0.375   0.108   3.409 -0.3383  0.4569  0.2480
 5379TIP3    H116143   0.437   0.038   3.431  0.3282  1.1810  0.7185
 5379TIP3    H216144   0.354   0.148   3.493  2.0126  3.0773 -0.2554
 5380TIP3   OH216145   6.344   3.947   2.034  0.0327 -0.1103 -0.4894
 5380TIP3    H116146   6.277   3.932   2.101 -0.5853 -0.8901 -1.2533
 5380TIP3    H216147   6.330   4.037   2.006  0.2466  0.1999  0.3595
 5381TIP3   OH216148   5.472   0.369   2.199  0.3482  0.1485 -0.2111
 5381TIP3    H116149   5.519   0.292   2.169 -0.2947  0.2677 -1.6271
 5381TIP3    H216150   5.421   0.397   2.122 -0.3676  1.2550  0.6374
 5382TIP3   OH216151   5.637   4.261   0.281 -0.5619 -0.2549 -0.2761
 5382TIP3    H116152   5.672   4.211   0.207  0.9261  2.7376 -1.7808
 5382TIP3    H216153   5.714   4.306   0.317 -1.6384  0.1285  1.6746
 5383TIP3   OH216154   4.448   5.266   2.632 -0.5608  0.2785 -0.2235
 5383TIP3    H116155   4.472   5.295   2.720  1.1357  0.0954 -0.5724
 5383TIP3    H216156   4.494   5.183   2.621 -1.8588 -0.3853 -0.8018
 5384TIP3   OH216157   3.489   5.953   4.672  0.6832  0.1121  0.1485
 5384TIP3    H116158   3.571   5.976   4.717  0.7792 -0.2665  0.1773
 5384TIP3    H216159   3.494   5.857   4.664 -0.1177  0.0009  0.8488
 5385TIP3   OH216160   2.710   0.774   2.180  0.0306  0.1831  0.0101
 5385TIP3    H116161   2.629   0.769   2.129  0.0266  1.1699 -0.1032
 5385TIP3    H216162   2.778   0.744   2.120  0.1762  2.3028 -0.9814
 5386TIP3   OH216163   1.242   5.612   2.947  0.1176 -0.1525 -0.7462
 5386TIP3    H116164   1.284   5.604   3.033 -0.7802  0.7247 -0.1919
 5386TIP3    H216165   1.313   5.631   2.887  0.5242  1.4424  0.1890
 5387TIP3   OH216166   1.526   4.962   1.104 -0.2204 -0.2997 -0.3989
 5387TIP3    H116167   1.612   4.999   1.122  0.4193 -1.1159 -1.6493
 5387TIP3    H216168   1.490   4.941   1.190  0.3929  0.9781  0.1951
 5388TIP3   OH216169   2.094   3.399   4.808  0.2473  0.1352  0.0796
 5388TIP3    H116170   2.101   3.304   4.795  0.7805 -0.0532  1.5593
 5388TIP3    H216171   2.011   3.422   4.765  0.0101 -1.0276 -0.1424
 5389TIP3   OH216172   2.727   0.069   1.894  0.3384  0.2173 -0.0670
 5389TIP3    H116173   2.643   0.074   1.941  0.6614  0.6375  0.4766
 5389TIP3    H216174   2.702   0.049   1.804 -0.2505 -1.3433  0.4128
 5390TIP3   OH216175   5.374   3.378   2.587 -0.5888  0.2615  0.3188
 5390TIP3    H116176   5.393   3.311   2.521 -0.4411 -0.3422  0.9735
 5390TIP3    H216177   5.336   3.450   2.536 -0.4179 -0.1693 -0.4396
 5391TIP3   OH216178   5.954   1.706   3.361  0.3957  0.4485 -0.5107
 5391TIP3    H116179   5.997   1.744   3.437  2.4990 -0.7357 -1.0107
 5391TIP3    H216180   5.870   1.750   3.356  0.5127  1.1014  2.0310
 5392TIP3   OH216181   3.174   1.750   4.771 -0.2851  0.1355  0.0867
 5392TIP3    H116182   3.145   1.820   4.830 -0.1042 -0.0520  0.3948
 5392TIP3    H216183   3.095   1.727   4.722 -0.1754  1.0790 -0.5541
 5393TIP3   OH216184   5.206   3.747   2.025  0.4581 -0.2624 -0.0918
 5393TIP3    H116185   5.288   3.783   2.057  0.3886 -1.0901  1.0814
 5393TIP3    H216186   5.231   3.670   1.974  0.4503 -0.1544 -0.2578
 5394TIP3   OH216187   1.318   1.100   3.760  0.2120 -0.2455 -0.3268
 5394TIP3    H116188   1.330   1.171   3.823  0.5793  1.9738 -2.7247
 5394TIP3    H216189   1.228   1.109   3.730  0.4086 -0.4691 -1.0123
 5395TIP3   OH216190   5.511   0.271   1.387 -0.3226  0.1153  0.3887
 5395TIP3    H116191   5.505   0.191   1.336  0.3202  0.1252  0.2938
 5395TIP3    H216192   5.536   0.338   1.324  2.3380 -0.2091  1.0030
 5396TIP3   OH216193   3.336   1.329   3.797  0.1965 -0.3307  0.5974
 5396TIP3    H116194   3.382   1.282   3.726  0.5586  2.0961 -0.9013
 5396TIP3    H216195   3.406   1.359   3.854  0.0737 -0.5493  0.8625
 5397TIP3   OH216196   2.388   1.280   2.690  0.7475 -0.5228  0.2739
 5397TIP3    H116197   2.356   1.190   2.693 -2.2084  0.3991 -0.6152
 5397TIP3    H216198   2.414   1.293   2.599  1.3832 -0.4840  0.4495
 5398TIP3   OH216199   0.694   0.429   0.592  0.1877  0.3382  0.2799
 5398TIP3    H116200   0.606   0.394   0.579 -0.3074  1.9242 -0.9776
 5398TIP3    H216201   0.741   0.403   0.513 -0.3763  2.8739 -1.0065
 5399TIP3   OH216202   5.404   1.308   3.350  0.1246 -0.4104 -0.9925
 5399TIP3    H116203   5.404   1.372   3.422  1.4246 -1.6943  0.2283
 5399TIP3    H216204   5.312   1.296   3.328 -0.2334  0.7474 -0.2142
 5400TIP3   OH216205   4.547   4.881   0.703  0.0232  0.2282 -0.1955
 5400TIP3    H116206   4.514   4.853   0.789 -1.9244 -0.4600 -1.1020
 5400TIP3    H216207   4.587   4.803   0.666  1.2676  0.6399  0.2299
 5401TIP3   OH216208   5.973   0.707   2.429 -0.3032 -0.1281  0.3018
 5401TIP3    H116209   6.009   0.792   2.456 -0.0049 -0.6451  1.6100
 5401TIP3    H216210   6.045   0.665   2.382  2.2162 -2.3723  5.3600
 5402TIP3   OH216211   5.150   2.045   4.040 -0.6441  0.3828 -0.3290
 5402TIP3    H116212   5.099   2.091   3.973  0.8704  0.1020 -1.7536
 5402TIP3    H216213   5.242   2.061   4.015 -0.0312 -0.0590  1.4821
 5403TIP3   OH216214   4.751   1.514   2.337  0.0509  0.2563  0.0415
 5403TIP3    H116215   4.797   1.511   2.420  0.5292  1.4907 -0.1529
 5403TIP3    H216216   4.661   1.488   2.358  0.2769  0.1104  0.8521
 5404TIP3   OH216217   2.085   3.060   0.432  0.1103  0.1834 -0.3019
 5404TIP3    H116218   2.012   3.078   0.490 -0.3813 -1.7893 -0.2315
 5404TIP3    H216219   2.158   3.112   0.467 -0.3703 -0.3843  1.6296
 5405TIP3   OH216220   6.147   1.504   3.407  0.3909 -0.4869  0.3195
 5405TIP3    H116221   6.115   1.427   3.360 -1.9179 -0.4070  1.6352
 5405TIP3    H216222   6.113   1.579   3.358  0.4315 -0.3511  0.4952
 5406TIP3   OH216223   3.800   0.422   1.313 -0.3476  0.0153 -0.0291
 5406TIP3    H116224   3.794   0.351   1.378 -1.5356  0.5043  0.4081
 5406TIP3    H216225   3.720   0.414   1.261  1.0715 -1.0583 -2.2049
 5407TIP3   OH216226   1.111   4.085   3.828 -0.3486  0.2284  0.1789
 5407TIP3    H116227   1.058   4.010   3.799  1.1028 -0.9647  0.4445
 5407TIP3    H216228   1.051   4.139   3.879 -2.3132  1.0459 -2.7586
 5408TIP3   OH216229   4.075   5.073   3.314  0.1761 -0.4530  0.2015
 5408TIP3    H116230   4.131   5.042   3.243  0.5846  0.4040  0.1409
 5408TIP3    H216231   4.077   5.003   3.379  0.8410 -0.6801 -0.0596
 5409TIP3   OH216232   1.645   3.725   0.500  0.3157 -0.3105  0.5892
 5409TIP3    H116233   1.621   3.646   0.451  0.2861  0.0259  0.0550
 5409TIP3    H216234   1.741   3.725   0.498  0.3201 -0.4353  0.7590
 5410TIP3   OH216235   3.991   1.679   3.871 -0.2580 -0.1259  0.1928
 5410TIP3    H116236   4.017   1.623   3.798 -1.0744  0.2959 -0.4340
 5410TIP3    H216237   3.999   1.768   3.838 -1.0023  0.0607  0.4825
 5411TIP3   OH216238   1.862   2.219   4.481 -0.3072 -0.7014 -0.1006
 5411TIP3    H116239   1.809   2.150   4.442  1.0393 -1.5121 -0.5924
 5411TIP3    H216240   1.841   2.215   4.575 -0.3945 -1.6782 -0.1493
 5412TIP3   OH216241   1.600   2.295   2.847 -0.2209 -0.0981  0.2450
 5412TIP3    H116242   1.522   2.241   2.858 -0.2993  0.2587  1.6529
 5412TIP3    H216243   1.655   2.247   2.786 -1.2131 -0.7257 -0.1640
 5413TIP3   OH216244   0.886   0.418   3.634  0.4998  0.2296 -0.0580
 5413TIP3    H116245   0.813   0.461   3.590 -1.0580 -1.3107  0.9336
 5413TIP3    H216246   0.907   0.343   3.578 -0.0004 -0.4601  0.6736
 5414TIP3   OH216247   5.657   2.031   0.108 -0.1109 -0.0003 -0.0330
 5414TIP3    H116248   5.692   1.975   0.039 -1.4144 -1.2700  0.2716
 5414TIP3    H216249   5.567   2.050   0.081 -0.9385 -1.2138  1.6388
 5415TIP3   OH216250   2.828   1.824   2.652  0.5163 -0.1211 -0.2303
 5415TIP3    H116251   2.743   1.828   2.608  0.9046 -2.5450 -1.3095
 5415TIP3    H216252   2.812   1.775   2.732  0.5670  1.0585  0.5333
 5416TIP3   OH216253   4.416   4.124   2.305 -0.5950 -0.0013  0.0495
 5416TIP3    H116254   4.401   4.085   2.219  0.9061  0.0314 -0.2519
 5416TIP3    H216255   4.333   4.167   2.327 -0.6775  0.8904 -1.8530
 5417TIP3   OH216256   1.274   5.294   1.522 -0.4682 -0.6291 -0.0306
 5417TIP3    H116257   1.253   5.361   1.587  0.0908 -1.9235  1.5387
 5417TIP3    H216258   1.364   5.315   1.495 -1.5093  1.3788 -2.3324
 5418TIP3   OH216259   5.776   0.270   0.544 -0.0321  0.6306 -0.5068
 5418TIP3    H116260   5.811   0.231   0.624 -0.0879  0.4221 -0.5837
 5418TIP3    H216261   5.704   0.212   0.518 -0.0102  0.6945 -0.7123
 5419TIP3   OH216262   0.609   5.969   1.629 -0.3815 -0.7416  0.0667
 5419TIP3    H116263   0.529   5.917   1.617 -0.2030 -0.8077 -0.9503
 5419TIP3    H216264   0.680   5.907   1.611 -0.1332 -0.4473  0.0332
 5420TIP3   OH216265   3.258   2.132   0.157 -0.7092 -0.5101  0.4423
 5420TIP3    H116266   3.199   2.170   0.222 -2.9684 -0.6564 -1.3823
 5420TIP3    H216267   3.250   2.190   0.081  1.3002 -0.7381  0.0020
 5421TIP3   OH216268   2.483   0.187   0.203 -0.4937  0.3234  0.0719
 5421TIP3    H116269   2.440   0.195   0.118  0.5323  0.5377 -0.4561
 5421TIP3    H216270   2.462   0.098   0.233  0.5817 -0.4214 -1.2592
 5422TIP3   OH216271   0.600   1.501   4.561  0.1839  0.0619  0.0729
 5422TIP3    H116272   0.586   1.594   4.581 -2.6103  0.2447 -2.2523
 5422TIP3    H216273   0.684   1.499   4.515  0.6209  1.2838  0.7569
 5423TIP3   OH216274   0.803   3.237   4.035 -0.4130 -0.6073 -0.3140
 5423TIP3    H116275   0.781   3.330   4.032  1.0767 -0.2563 -1.6190
 5423TIP3    H216276   0.758   3.199   3.960 -1.7416 -1.1652  0.7077
 5424TIP3   OH216277   4.250   5.949   1.199  0.4249  0.0297 -0.0225
 5424TIP3    H116278   4.233   5.980   1.287 -1.2707 -0.7414 -0.0444
 5424TIP3    H216279   4.179   5.888   1.180  1.2143 -0.4689 -1.6096
 5425TIP3   OH216280   1.525   1.579   3.272  0.0505 -0.0895 -0.1511
 5425TIP3    H116281   1.603   1.533   3.242 -0.1951 -0.9737  0.5198
 5425TIP3    H216282   1.559   1.650   3.326  0.4224  0.2968 -0.8785
 5426TIP3   OH216283   3.826   2.650   2.985  0.0800 -0.1353  0.1430
 5426TIP3    H116284   3.794   2.564   3.010 -1.2998  0.7052  1.4255
 5426TIP3    H216285   3.748   2.698   2.957  0.6321  1.0875  0.6408
 5427TIP3   OH216286   4.409   2.307   0.275 -0.3090  0.1728  0.3921
 5427TIP3    H116287   4.346   2.355   0.220 -1.8614 -2.5532 -0.3818
 5427TIP3    H216288   4.459   2.254   0.213  1.8844  1.2171  1.1504
 5428TIP3   OH216289   4.925   4.149   1.975 -0.0353  0.5011  0.1269
 5428TIP3    H116290   4.980   4.115   1.904 -0.1745  1.4276 -0.4493
 5428TIP3    H216291   4.919   4.078   2.038  2.4623  0.6302  0.5826
 5429TIP3   OH216292   1.291   1.457   2.281  0.1041  0.2458  0.2459
 5429TIP3    H116293   1.294   1.390   2.213  3.0660  2.0855 -1.6664
 5429TIP3    H216294   1.373   1.447   2.329 -1.9222 -1.0399  3.7940
 5430TIP3   OH216295   3.111   4.506   4.166  0.5308 -0.6472 -0.2413
 5430TIP3    H116296   3.073   4.566   4.230  2.4088  0.2419  0.1267
 5430TIP3    H216297   3.129   4.426   4.216  3.5180  0.5955  0.9204
 5431TIP3   OH216298   6.127   2.681   1.123  0.0718  0.0976  0.1340
 5431TIP3    H116299   6.116   2.611   1.188  1.4422 -0.2924 -0.0188
 5431TIP3    H216300   6.119   2.637   1.038  5.1698 -0.9308 -0.1544
 5432TIP3   OH216301   0.412   1.551   1.065 -0.2873  0.2192 -0.1455
 5432TIP3    H116302   0.355   1.613   1.018  1.2621  1.1109 -0.9078
 5432TIP3    H216303   0.445   1.492   0.997 -0.1785 -0.2037  0.2727
 5433TIP3   OH216304   5.300   0.537   1.558  0.4257  0.1995  0.7865
 5433TIP3    H116305   5.208   0.525   1.535  0.2795 -0.6883  1.7745
 5433TIP3    H216306   5.299   0.571   1.648  1.0548 -0.6480  1.1422
 5434TIP3   OH216307   3.839   3.149   1.504  0.5388 -0.6405 -0.5182
 5434TIP3    H116308   3.809   3.066   1.541 -0.7380  0.2866  0.6752
 5434TIP3    H216309   3.789   3.215   1.552  3.0709  0.9531  0.0970
 5435TIP3   OH216310   3.693   3.898   4.793  0.5405  0.5822 -0.0825
 5435TIP3    H116311   3.652   3.878   4.877  0.7909 -0.0300 -0.0945
 5435TIP3    H216312   3.620   3.901   4.731  0.6013 -2.5082 -0.4821
 5436TIP3   OH216313   2.037   5.699   1.415 -0.5781  0.0806 -0.4155
 5436TIP3    H116314   1.964   5.720   1.357  0.0890  1.3675 -0.8439
 5436TIP3    H216315   2.011   5.735   1.500  0.0040  1.6291 -0.8426
 5437TIP3   OH216316   3.506   1.933   0.536  0.0159 -0.2148 -0.2509
 5437TIP3    H116317   3.471   1.950   0.624 -1.2372 -0.7590 -0.6158
 5437TIP3    H216318   3.601   1.929   0.548 -0.0592  0.8099  0.8830
 5438TIP3   OH216319   4.806   2.996   3.056  0.1954  0.3161  0.5307
 5438TIP3    H116320   4.901   2.999   3.044  0.1132  1.8099  0.0335
 5438TIP3    H216321   4.775   3.080   3.024 -1.2169  0.2262  1.5530
 5439TIP3   OH216322   4.641   4.309   3.530  0.0845 -0.2687 -0.3582
 5439TIP3    H116323   4.727   4.284   3.563  0.1399  0.7864  0.3402
 5439TIP3    H216324   4.589   4.326   3.609 -0.9276 -1.3496 -0.7508
 5440TIP3   OH216325   4.280   2.887   1.417 -0.3500 -0.5505 -0.1041
 5440TIP3    H116326   4.309   2.948   1.486 -2.3342 -0.3660  0.6307
 5440TIP3    H216327   4.362   2.855   1.379  0.8457  2.8447 -0.8231
 5441TIP3   OH216328   6.013   2.453   4.253 -0.1077  0.3118 -0.5152
 5441TIP3    H116329   5.956   2.505   4.309 -0.7697  0.4155 -1.2613
 5441TIP3    H216330   5.972   2.366   4.251 -1.1303  0.7843 -2.2567
 5442TIP3   OH216331   4.078   0.554   1.544 -0.0344  0.4312  0.2596
 5442TIP3    H116332   4.000   0.568   1.490  1.9731  0.2661 -2.9866
 5442TIP3    H216333   4.086   0.635   1.595 -1.3797  1.2047 -0.6697
 5443TIP3   OH216334   4.005   4.299   0.906  0.2579  0.1727 -0.4442
 5443TIP3    H116335   4.078   4.237   0.907  0.4832  0.4316  0.1037
 5443TIP3    H216336   4.048   4.385   0.915 -0.1423  0.2831  0.6029
 5444TIP3   OH216337   3.556   4.091   4.429 -0.1091 -0.1620 -0.0440
 5444TIP3    H116338   3.572   4.158   4.363  2.8248  0.0778  0.7626
 5444TIP3    H216339   3.589   4.010   4.389 -1.0052 -0.5767  0.0445
 5445TIP3   OH216340   5.241   2.654   3.924 -0.5625 -0.4087  1.0588
 5445TIP3    H116341   5.214   2.696   3.843 -0.6938  0.1851  1.4042
 5445TIP3    H216342   5.172   2.589   3.941 -0.2580 -0.9043  0.4245
 5446TIP3   OH216343   0.127   4.793   3.366  0.0160 -0.4028 -0.5115
 5446TIP3    H116344   0.168   4.863   3.416 -0.0798 -0.2217 -0.6815
 5446TIP3    H216345   0.122   4.828   3.277  0.2525 -0.7484 -0.6627
 5447TIP3   OH216346   6.133   3.893   2.528 -0.0113 -0.1049 -0.3879
 5447TIP3    H116347   6.106   3.834   2.598 -0.8021  0.2942 -0.3498
 5447TIP3    H216348   6.088   3.975   2.546  0.2930  0.2074 -0.9951
 5448TIP3   OH216349   1.559   1.215   1.316  0.0888 -0.2770  0.0913
 5448TIP3    H116350   1.516   1.267   1.248  0.6922  0.4648  0.2678
 5448TIP3    H216351   1.542   1.124   1.291  1.4580 -0.0683 -1.8547
 5449TIP3   OH216352   2.721   0.158   2.785  0.1812 -0.3754  0.5795
 5449TIP3    H116353   2.627   0.149   2.771  0.3983 -0.2772 -1.2186
 5449TIP3    H216354   2.755   0.068   2.785  0.3902 -0.3537 -1.5772
 5450TIP3   OH216355   4.549   1.332   1.205  0.3545  0.5660 -0.6144
 5450TIP3    H116356   4.528   1.424   1.218 -0.0235  0.1372  2.4544
 5450TIP3    H216357   4.464   1.292   1.183 -0.4581  0.3307  2.5048
 5451TIP3   OH216358   4.847   0.217   4.211  0.1943 -0.3059 -0.2016
 5451TIP3    H116359   4.770   0.272   4.227 -1.1036 -1.2138 -2.7226
 5451TIP3    H216360   4.828   0.136   4.259  1.8068  1.0194  2.9662
 5452TIP3   OH216361   2.300   2.224   2.357  0.5455  0.7310 -0.2334
 5452TIP3    H116362   2.238   2.245   2.426 -0.2088 -0.4961 -0.5032
 5452TIP3    H216363   2.341   2.307   2.335 -0.4497  1.4310  0.4891
 5453TIP3   OH216364   0.228   5.612   1.394  0.0750  0.4170 -0.3535
 5453TIP3    H116365   0.272   5.536   1.355  1.3009  0.4872  0.8062
 5453TIP3    H216366   0.156   5.574   1.444  2.4861 -0.4431  2.8009
 5454TIP3   OH216367   3.058   1.195   1.582 -0.0870  0.2526 -0.4757
 5454TIP3    H116368   3.031   1.283   1.609 -1.0122  0.2575 -1.3408
 5454TIP3    H216369   3.151   1.190   1.606 -0.7966  0.2175  2.6869
 5455TIP3   OH216370   5.315   0.846   1.526 -0.0879 -0.4136 -0.0924
 5455TIP3    H116371   5.231   0.892   1.521 -0.0013 -0.0855  1.1987
 5455TIP3    H216372   5.297   0.771   1.582  0.0332 -1.4107 -1.3325
 5456TIP3   OH216373   5.934   1.864   2.471  0.1225 -0.4191  0.4565
 5456TIP3    H116374   5.875   1.790   2.454 -0.9907  0.9952 -2.3599
 5456TIP3    H216375   5.913   1.890   2.561  0.5049 -3.3800  1.5214
 5457TIP3   OH216376   5.067   3.246   4.775 -0.1519  0.2221  0.6871
 5457TIP3    H116377   5.082   3.272   4.684 -0.3947  0.5368  0.7367
 5457TIP3    H216378   5.141   3.283   4.823 -0.3105  0.5149  0.7031
 5458TIP3   OH216379   2.969   5.424   2.244  0.7467 -0.4891 -0.5743
 5458TIP3    H116380   2.952   5.492   2.309 -1.0149 -0.1381 -1.3412
 5458TIP3    H216381   3.042   5.458   2.193  1.9495 -0.6282  0.9917
 5459TIP3   OH216382   1.113   2.639   1.993 -0.3976 -0.0588 -0.0214
 5459TIP3    H116383   1.119   2.671   1.904  1.5744  0.6717  0.3240
 5459TIP3    H216384   1.191   2.583   2.004 -1.9771 -2.3065  0.4449
 5460TIP3   OH216385   1.811   1.006   1.106  0.2343 -0.8931 -0.6001
 5460TIP3    H116386   1.874   1.063   1.150 -1.4855  0.1276  0.6553
 5460TIP3    H216387   1.791   1.051   1.024  0.1048 -0.5315 -0.3685
 5461TIP3   OH216388   1.171   3.273   3.968 -0.0594 -0.2630 -0.0753
 5461TIP3    H116389   1.262   3.245   3.956  1.0934  3.7113 -2.3190
 5461TIP3    H216390   1.176   3.344   4.031 -1.6500 -0.0592 -0.1464
 5462TIP3   OH216391   5.453   3.917   0.320  0.6472  0.3018 -0.1514
 5462TIP3    H116392   5.371   3.887   0.361 -1.5801  0.8171 -3.7357
 5462TIP3    H216393   5.440   4.011   0.309  1.2269  0.2213 -1.6858
 5463TIP3   OH216394   5.190   2.134   2.380  0.1767 -0.8013 -0.0291
 5463TIP3    H116395   5.260   2.070   2.366  0.4529 -0.5790  0.3236
 5463TIP3    H216396   5.109   2.083   2.371  0.3907 -1.1517  0.0164
 5464TIP3   OH216397   1.499   5.264   2.646  0.0063  0.4105 -0.0973
 5464TIP3    H116398   1.513   5.288   2.738  1.4657 -2.8936  0.6756
 5464TIP3    H216399   1.426   5.202   2.649  0.5839 -0.3312 -1.0346
 5465TIP3   OH216400   3.688   0.949   4.619  0.0656  0.4272  0.2362
 5465TIP3    H116401   3.686   0.928   4.526  3.1214  1.3030 -0.1356
 5465TIP3    H216402   3.597   0.968   4.642 -0.8000 -0.1154 -2.4669
 5466TIP3   OH216403   5.206   4.717   0.549 -0.4295  0.4162 -0.3163
 5466TIP3    H116404   5.249   4.643   0.592  0.5788  0.5847 -1.0060
 5466TIP3    H216405   5.113   4.704   0.567 -0.1394 -0.1648  0.8931
 5467TIP3   OH216406   4.264   1.205   5.035 -0.2038  0.2051  0.3058
 5467TIP3    H116407   4.311   1.165   5.109 -2.0024 -0.6647  1.0363
 5467TIP3    H216408   4.318   1.185   4.959  1.7224  1.1432  1.3455
 5468TIP3   OH216409   5.217   2.547   2.924 -0.3840 -0.0642  0.3861
 5468TIP3    H116410   5.296   2.571   2.972 -0.4252  0.3401  0.2535
 5468TIP3    H216411   5.180   2.630   2.895 -0.9006 -0.2460  0.5124
 5469TIP3   OH216412   5.143   0.131   5.063  0.0941  0.1345 -0.0871
 5469TIP3    H116413   5.145   0.092   5.150  1.6901 -2.1779 -1.0587
 5469TIP3    H216414   5.234   0.130   5.034 -0.4468  0.4300 -1.9351
 5470TIP3   OH216415   4.180   0.196   3.140  0.4400  0.3691 -0.7000
 5470TIP3    H116416   4.159   0.286   3.114  0.2123  0.4809 -0.1397
 5470TIP3    H216417   4.254   0.204   3.199 -1.2525  0.4683  1.5462
 5471TIP3   OH216418   4.643   2.224   3.276 -0.0870  0.2166  0.7784
 5471TIP3    H116419   4.586   2.244   3.201 -0.7467  2.7953  1.8516
 5471TIP3    H216420   4.591   2.164   3.329  0.8210 -2.5764 -1.2148
 5472TIP3   OH216421   4.146   2.307   4.391 -0.5738 -0.2664  0.4289
 5472TIP3    H116422   4.122   2.218   4.364  0.0205 -0.6561  1.1347
 5472TIP3    H216423   4.160   2.300   4.486 -0.5066  0.5774  0.4891
 5473TIP3   OH216424   5.365   4.082   3.764 -0.2073  0.6245  0.2475
 5473TIP3    H116425   5.323   4.153   3.715  0.6351  0.9542 -0.0173
 5473TIP3    H216426   5.315   4.004   3.740 -1.6592  1.2294  1.1637
 5474TIP3   OH216427   4.957   1.112   2.382 -0.1752  0.3139  0.4534
 5474TIP3    H116428   4.947   1.056   2.459 -0.1153 -1.0913 -0.5401
 5474TIP3    H216429   4.868   1.127   2.351 -0.0847 -0.8918 -0.4319
 5475TIP3   OH216430   5.902   1.321   4.379 -0.4671 -0.1392 -0.2839
 5475TIP3    H116431   5.920   1.311   4.472 -2.5453  3.6814  0.7411
 5475TIP3    H216432   5.820   1.273   4.365 -0.8794  0.4001  0.2292
 5476TIP3   OH216433   1.226   3.928   0.287  0.1260  0.7476  0.4205
 5476TIP3    H116434   1.171   3.927   0.209 -0.7286  0.4570  1.0097
 5476TIP3    H216435   1.301   3.983   0.264 -0.2885  0.9404 -0.4813
 5477TIP3   OH216436   4.526   0.171   3.034 -0.2086  0.1351 -0.1684
 5477TIP3    H116437   4.587   0.223   3.086 -0.2047  0.4632 -0.4988
 5477TIP3    H216438   4.448   0.226   3.025 -0.9692 -0.6735  1.1133
 5478TIP3   OH216439   0.370   0.997   3.288 -0.0896  0.1042  0.1196
 5478TIP3    H116440   0.296   0.955   3.331  0.4909  0.2182  1.2562
 5478TIP3    H216441   0.349   0.990   3.195 -2.5800  1.9981  0.4148
 5479TIP3   OH216442   2.947   1.314   2.263 -0.2681  0.7674  0.2994
 5479TIP3    H116443   2.876   1.252   2.249  0.9150 -0.4628 -0.5449
 5479TIP3    H216444   2.982   1.291   2.350 -0.1496  0.5711  0.2011
 5480TIP3   OH216445   3.759   0.517   4.649  0.4054 -0.3288 -0.1372
 5480TIP3    H116446   3.693   0.583   4.668  0.6276 -0.5586  1.5949
 5480TIP3    H216447   3.710   0.446   4.608  0.1634  0.8538 -2.0094
 5481TIP3   OH216448   0.082   1.552   4.059 -0.2225 -0.5554  0.2930
 5481TIP3    H116449  -0.006   1.590   4.060  0.0011 -0.0197  1.4939
 5481TIP3    H216450   0.084   1.497   3.980 -1.5973 -0.5151  0.2135
 5482TIP3   OH216451   3.231   3.106   0.140  0.1899  0.4335  0.2420
 5482TIP3    H116452   3.303   3.043   0.131 -0.6949 -0.4276 -1.1574
 5482TIP3    H216453   3.202   3.121   0.051 -2.8976 -1.0548  0.8823
 5483TIP3   OH216454   3.909   4.205   4.163  0.6644 -0.3028  0.0410
 5483TIP3    H116455   3.906   4.122   4.210 -0.5721 -0.2376  0.1077
 5483TIP3    H216456   3.915   4.271   4.232  0.2716 -0.2763  0.0516
 5484TIP3   OH216457   4.798   2.165   1.939  0.2141 -0.2331 -0.0291
 5484TIP3    H116458   4.738   2.092   1.957  1.6201 -1.6218 -0.7730
 5484TIP3    H216459   4.774   2.232   2.003 -1.2793 -1.2357  0.5176
 5485TIP3   OH216460   2.606   5.278   3.015  0.4028 -0.1703 -0.4145
 5485TIP3    H116461   2.527   5.248   3.059  1.4535  0.7817  2.3808
 5485TIP3    H216462   2.580   5.359   2.971 -0.7401 -1.2659 -1.8395
 5486TIP3   OH216463   2.663   1.670   2.121  0.1630 -0.2689 -1.1537
 5486TIP3    H116464   2.745   1.713   2.149  0.3730 -1.9067  0.9293
 5486TIP3    H216465   2.692   1.601   2.062  0.4370 -1.4705  0.3279
 5487TIP3   OH216466   0.188   0.852   3.476  0.0708  0.4063 -0.0753
 5487TIP3    H116467   0.184   0.774   3.421 -0.8785  0.6739 -0.4031
 5487TIP3    H216468   0.118   0.839   3.540  0.4544  0.6045  0.3829
 5488TIP3   OH216469   4.868   3.506   4.361  0.3980 -0.5697 -0.3752
 5488TIP3    H116470   4.874   3.560   4.440  1.3240  0.6590 -1.2462
 5488TIP3    H216471   4.947   3.529   4.311 -1.4203  0.6500 -2.8799
 5489TIP3   OH216472   1.858   3.049   1.158 -0.0854  0.2153  0.0626
 5489TIP3    H116473   1.802   3.028   1.083 -0.9851  0.6204  0.5959
 5489TIP3    H216474   1.851   2.973   1.215  1.0609 -0.3385 -0.5140
 5490TIP3   OH216475   1.746   4.604   2.254 -0.5455  0.0111 -0.0074
 5490TIP3    H116476   1.777   4.615   2.343 -0.5282 -0.9668  0.1227
 5490TIP3    H216477   1.669   4.661   2.248 -0.3769  0.2990  0.5456
 5491TIP3   OH216478   3.244   0.434   2.910 -0.0542 -0.1533  0.0901
 5491TIP3    H116479   3.250   0.414   3.003  3.0733  0.4442  0.1183
 5491TIP3    H216480   3.209   0.523   2.907 -1.3906 -0.6337  0.5790
 5492TIP3   OH216481   0.194   4.315   4.695 -0.0244  0.0536  0.8235
 5492TIP3    H116482   0.176   4.382   4.762  1.3710  0.3037  0.9873
 5492TIP3    H216483   0.229   4.365   4.621  0.8385 -0.4674  0.8741
 5493TIP3   OH216484   4.240   1.292   1.992 -0.0721  0.2181  0.0597
 5493TIP3    H116485   4.230   1.387   1.981 -2.9860  0.1554  1.1839
 5493TIP3    H216486   4.151   1.261   2.008  0.6197 -2.9381 -1.6098
 5494TIP3   OH216487   3.367   3.798   3.581  0.2161  0.4813 -0.2138
 5494TIP3    H116488   3.337   3.799   3.672  2.3541  2.1821  0.5556
 5494TIP3    H216489   3.407   3.712   3.570 -1.5872 -0.4253 -0.1578
 5495TIP3   OH216490   3.795   3.412   4.954 -0.3027 -0.4987  0.0788
 5495TIP3    H116491   3.743   3.399   4.875  0.0457  0.0473 -0.2518
 5495TIP3    H216492   3.746   3.476   5.005 -0.0399 -0.0988 -0.1626
 5496TIP3   OH216493   3.929   0.111   4.869  0.3381  1.2371 -1.0199
 5496TIP3    H116494   3.929   0.082   4.960 -1.2381  2.3585 -0.6349
 5496TIP3    H216495   3.861   0.059   4.827  1.5619  0.1827 -1.7815
 5497TIP3   OH216496   3.438   1.524   2.464 -0.0009  0.1928 -0.3252
 5497TIP3    H116497   3.524   1.483   2.458  0.2699  0.7346 -0.2564
 5497TIP3    H216498   3.386   1.481   2.395 -0.1153 -1.1309  0.5594
 5498TIP3   OH216499   3.788   1.953   2.212  0.6334 -0.3297 -0.0618
 5498TIP3    H116500   3.712   1.949   2.270  0.7638  1.0765  0.2398
 5498TIP3    H216501   3.848   2.014   2.256  1.5571 -0.7166 -0.7428
 5499TIP3   OH216502   1.040   3.285   1.280 -0.4570  0.1152  0.2608
 5499TIP3    H116503   1.052   3.236   1.361 -2.4608 -1.4657 -0.3151
 5499TIP3    H216504   1.033   3.377   1.307  0.4557 -0.2127  1.6793
 5500TIP3   OH216505   1.665   4.939   1.644 -0.0812  0.1579  0.4727
 5500TIP3    H116506   1.674   4.917   1.551 -0.7632  1.0664  0.1828
 5500TIP3    H216507   1.594   4.882   1.674  1.0510 -1.1487  0.8040
 5501TIP3   OH216508   6.224   2.592   0.320  0.3753  0.3819  0.2487
 5501TIP3    H116509   6.316   2.602   0.295  0.2064  0.0519 -0.5709
 5501TIP3    H216510   6.211   2.655   0.391  0.9956  1.0933 -0.2466
 5502TIP3   OH216511   2.940   4.347   3.032 -0.2507  0.2777  0.0747
 5502TIP3    H116512   2.980   4.375   3.114  0.9056 -0.3272 -0.2462
 5502TIP3    H216513   2.951   4.422   2.973 -0.0592  0.3123  0.1532
 5503TIP3   OH216514   1.288   1.688   1.162  0.9735  0.2944 -0.1651
 5503TIP3    H116515   1.308   1.781   1.170 -1.9810  0.9832  0.1498
 5503TIP3    H216516   1.275   1.674   1.068  0.2502  0.4954 -0.1005
 5504TIP3   OH216517   3.985   2.203   5.031  0.4188 -0.2122 -0.0365
 5504TIP3    H116518   3.928   2.134   4.997 -0.1946  0.2791 -0.0176
 5504TIP3    H216519   3.932   2.248   5.098  0.6864  0.4811 -0.2801
 5505TIP3   OH216520   4.608   2.627   2.471  0.2832  0.0232  0.1233
 5505TIP3    H116521   4.700   2.648   2.486  0.4947  0.3995 -1.5248
 5505TIP3    H216522   4.569   2.710   2.444 -0.6235 -0.0716  1.1003
 5506TIP3   OH216523   5.891   3.102   3.504 -0.3103  0.1020  0.1850
 5506TIP3    H116524   5.971   3.154   3.502 -0.4743  0.3320 -0.6131
 5506TIP3    H216525   5.872   3.091   3.597 -0.1830  1.3242  0.3709
 5507TIP3   OH216526   1.372   3.392   0.948  0.8690  0.1279 -0.1876
 5507TIP3    H116527   1.347   3.323   0.888  0.4295  0.5182 -0.4549
 5507TIP3    H216528   1.366   3.352   1.035  0.2855 -0.0715 -0.3166
 5508TIP3   OH216529   5.279   2.995   2.308  0.0108 -0.1436 -0.0786
 5508TIP3    H116530   5.225   2.953   2.375  0.5297 -0.0176  0.4204
 5508TIP3    H216531   5.227   3.070   2.278 -0.5945 -0.6883 -0.4411
 5509TIP3   OH216532   4.049   4.492   4.260 -0.0963 -0.1235 -0.3917
 5509TIP3    H116533   3.970   4.527   4.301 -0.3651 -0.9783 -0.1638
 5509TIP3    H216534   4.056   4.540   4.177 -2.0572 -1.5187 -1.4283
 5510TIP3   OH216535   5.732   1.159   0.638 -0.5714 -0.0822 -0.1394
 5510TIP3    H116536   5.822   1.160   0.670 -0.8130  1.0758  0.5486
 5510TIP3    H216537   5.732   1.094   0.568  0.8419  0.0460 -0.2751
 5511TIP3   OH216538   5.492   3.090   4.989  0.0598  0.1979  0.5873
 5511TIP3    H116539   5.492   2.999   4.962 -0.1581  0.4146 -0.1802
 5511TIP3    H216540   5.575   3.126   4.957 -0.2788  0.5022  0.0328
 5512TIP3   OH216541   5.385   0.693   0.386 -0.1178  0.5646  0.0960
 5512TIP3    H116542   5.343   0.644   0.457  0.5105  0.0000  0.0886
 5512TIP3    H216543   5.437   0.759   0.430 -0.1474  0.5563  0.1437
 5513TIP3   OH216544   1.123   1.438   3.016 -0.3303 -0.2944  0.0651
 5513TIP3    H116545   1.191   1.462   3.079  0.2754 -0.9311 -0.3206
 5513TIP3    H216546   1.057   1.393   3.068  0.2649 -1.0068  0.2234
 5514TIP3   OH216547   4.526   2.317   3.869 -0.2263 -0.0642  0.3820
 5514TIP3    H116548   4.516   2.283   3.780  0.8245 -1.0730  0.6306
 5514TIP3    H216549   4.615   2.353   3.871 -0.7787  1.3552  0.5886
 5515TIP3   OH216550   2.341   0.098   1.015 -0.4671  0.6296 -0.6095
 5515TIP3    H116551   2.344   0.183   0.972 -0.0331  1.6839  1.3838
 5515TIP3    H216552   2.384   0.112   1.099 -1.3067 -1.3027  0.2066
 5516TIP3   OH216553   2.816   4.324   2.137  0.2713  0.5844 -0.1131
 5516TIP3    H116554   2.841   4.384   2.067  1.9246  0.3801  0.2642
 5516TIP3    H216555   2.814   4.238   2.096 -1.9876  0.8168 -0.6267
 5517TIP3   OH216556   3.812   0.608   3.233 -0.4929  0.3458  0.1952
 5517TIP3    H116557   3.886   0.608   3.293 -0.4829  3.1117  0.3003
 5517TIP3    H216558   3.743   0.559   3.279 -0.2706  1.8363  2.2193
 5518TIP3   OH216559   3.300   4.899   1.583 -0.0635  0.4751  0.1068
 5518TIP3    H116560   3.210   4.930   1.572  0.2013  1.3769  0.3911
 5518TIP3    H216561   3.344   4.927   1.503  0.2440  1.1119  0.4863
 5519TIP3   OH216562   0.077   5.572   2.963  0.1753 -0.0339  0.6041
 5519TIP3    H116563  -0.013   5.573   2.931  0.8828  1.4184 -1.6280
 5519TIP3    H216564   0.091   5.660   2.998  0.2439 -0.7961  2.5893
 5520TIP3   OH216565   3.554   1.952   2.369 -0.4115  0.1355 -0.3392
 5520TIP3    H116566   3.559   1.910   2.455 -0.8050  1.4655  0.3597
 5520TIP3    H216567   3.489   2.021   2.380 -0.5217  0.2741 -1.7374
 5521TIP3   OH216568   0.313   3.730   2.965  0.0838  0.1739 -0.8321
 5521TIP3    H116569   0.254   3.805   2.977  0.2995  0.3386 -0.7828
 5521TIP3    H216570   0.399   3.770   2.953  0.2863 -0.0884 -0.2728
 5522TIP3   OH216571   5.361   5.067   0.230 -0.1922  0.2391 -0.0795
 5522TIP3    H116572   5.405   5.023   0.156 -0.7929  0.7338 -0.7468
 5522TIP3    H216573   5.278   5.021   0.238  0.1600 -0.2671  0.7553
 5523TIP3   OH216574   1.126   5.599   3.565 -0.0135 -0.1743  0.4710
 5523TIP3    H116575   1.219   5.586   3.546  0.2584 -1.3870  2.4063
 5523TIP3    H216576   1.083   5.523   3.526 -0.2591  0.5134 -0.6453
 5524TIP3   OH216577   1.488   2.826   0.756  0.3181 -0.4768 -0.3176
 5524TIP3    H116578   1.557   2.761   0.769  0.3053 -0.5247 -0.4780
 5524TIP3    H216579   1.410   2.786   0.795  0.3067 -0.5647 -0.4284
 5525TIP3   OH216580   2.058   2.750   2.944 -0.2221 -0.3412 -0.0993
 5525TIP3    H116581   2.092   2.672   2.987  0.2607 -0.1720 -0.1617
 5525TIP3    H216582   2.036   2.809   3.017  1.4001  0.2835 -0.0564
 5526TIP3   OH216583   4.193   4.120   4.726  0.1018 -0.5491 -0.0550
 5526TIP3    H116584   4.195   4.085   4.637  0.4521 -1.7112  0.3977
 5526TIP3    H216585   4.107   4.098   4.760 -0.2672  0.4428 -0.2984
 5527TIP3   OH216586   4.047   0.925   3.452 -0.6827  0.0246  1.0820
 5527TIP3    H116587   4.089   0.973   3.382 -0.6881  0.9166  1.6775
 5527TIP3    H216588   4.070   0.833   3.435 -2.2076 -0.0078 -1.1032
 5528TIP3   OH216589   5.578   0.587   1.444  0.1757 -0.1479  0.5154
 5528TIP3    H116590   5.493   0.542   1.439  0.2819 -0.2162 -2.3458
 5528TIP3    H216591   5.558   0.671   1.486 -1.3081 -0.2513  0.0833
 5529TIP3   OH216592   1.705   2.769   3.184  0.2757 -0.0474 -0.3375
 5529TIP3    H116593   1.721   2.838   3.249 -2.1120 -0.6803  1.0617
 5529TIP3    H216594   1.765   2.699   3.208 -1.6425 -0.9269  2.3834
 5530TIP3   OH216595   4.863   2.643   0.528 -0.0731  0.0040  0.0030
 5530TIP3    H116596   4.951   2.678   0.515 -0.5535  1.6279  0.8012
 5530TIP3    H216597   4.838   2.674   0.614 -0.6524 -2.2370  0.7157
 5531TIP3   OH216598   5.772   4.898   0.867 -0.4674  0.4340  0.5183
 5531TIP3    H116599   5.811   4.847   0.939 -1.1638  1.0952  1.3841
 5531TIP3    H216600   5.705   4.952   0.909  0.4296  2.2897 -0.3285
 5532TIP3   OH216601   1.103   0.039   1.120  0.5177 -0.3040  0.0623
 5532TIP3    H116602   1.052  -0.026   1.071  1.1754 -0.1891 -0.7920
 5532TIP3    H216603   1.087   0.121   1.073  0.8685 -0.1239  0.2592
 5533TIP3   OH216604   2.858   4.683   0.654 -0.0412  0.0818 -0.3203
 5533TIP3    H116605   2.775   4.652   0.691  0.0050  1.3528  0.9379
 5533TIP3    H216606   2.871   4.628   0.577 -0.9597 -1.6310  0.6553
 5534TIP3   OH216607   0.149   1.792   4.970  0.2097  0.2737 -0.3885
 5534TIP3    H116608   0.186   1.870   4.930 -1.5909  0.9560 -0.7873
 5534TIP3    H216609   0.101   1.824   5.046  0.5460 -0.6025  0.2089
 5535TIP3   OH216610   0.387   2.445   1.798  0.0807 -0.2872  0.4226
 5535TIP3    H116611   0.378   2.360   1.841  0.4629 -0.7708 -0.4289
 5535TIP3    H216612   0.299   2.465   1.767 -0.1339 -0.0790  1.1566
 5536TIP3   OH216613   3.080   1.036   0.836 -0.7413  0.1517  0.4330
 5536TIP3    H116614   3.035   0.953   0.853 -0.3635 -0.0557  0.4266
 5536TIP3    H216615   3.032   1.101   0.887 -0.3239 -0.2651  1.3719
 5537TIP3   OH216616   5.659   5.284   5.113  0.5258  0.0645  0.3555
 5537TIP3    H116617   5.648   5.239   5.029 -0.2627 -0.0906  0.5371
 5537TIP3    H216618   5.694   5.370   5.090 -1.1539  0.6154 -0.2774
 5538TIP3   OH216619   0.424   4.340   0.377  0.2044  0.0855  0.6292
 5538TIP3    H116620   0.435   4.345   0.282  2.2493 -1.5168  0.7094
 5538TIP3    H216621   0.449   4.427   0.409  3.3032 -0.4093 -0.1064
 5539TIP3   OH216622   2.040   5.065   3.678  0.0090 -0.0046 -0.0761
 5539TIP3    H116623   2.042   4.988   3.621  0.8730 -0.4285  0.5007
 5539TIP3    H216624   2.062   5.031   3.765 -0.9042  0.6941  0.4422
 5540TIP3   OH216625   0.476   4.554   0.571  0.5103  0.0366 -0.2754
 5540TIP3    H116626   0.470   4.538   0.665 -2.3862  1.3014 -0.1499
 5540TIP3    H216627   0.521   4.638   0.564 -0.3477  0.5328  0.0664
 5541TIP3   OH216628   2.452   0.037   3.907  0.3049 -0.5084 -0.0319
 5541TIP3    H116629   2.448   0.060   4.000 -0.7806  2.1224 -0.6331
 5541TIP3    H216630   2.406  -0.046   3.901 -0.9429 -0.0033  1.6170
 5542TIP3   OH216631   2.367   0.249   3.284  0.3308  0.3572  0.0682
 5542TIP3    H116632   2.339   0.157   3.285  1.3992  0.0065  1.6368
 5542TIP3    H216633   2.356   0.278   3.375  1.1465  1.4143 -0.1515
 5543TIP3   OH216634   2.306   1.301   0.375 -0.2432 -0.3649 -0.0965
 5543TIP3    H116635   2.396   1.296   0.405 -0.1716 -0.0194 -0.2528
 5543TIP3    H216636   2.299   1.236   0.306  0.1604  0.2990 -0.7803
 5544TIP3   OH216637   6.291   4.576   1.613  0.2089  0.4402 -0.0931
 5544TIP3    H116638   6.300   4.615   1.700 -0.8531  0.6759 -0.0751
 5544TIP3    H216639   6.373   4.597   1.569  0.5048  0.8677  0.6385
 5545TIP3   OH216640   0.859   0.304   1.005 -0.0302  0.0169  0.4093
 5545TIP3    H116641   0.948   0.281   0.978  0.6489  1.9421  0.8112
 5545TIP3    H216642   0.845   0.391   0.966 -1.9125 -0.4455 -0.0060
 5546TIP3   OH216643   1.626   0.448   1.820  0.2581 -0.2000 -0.4352
 5546TIP3    H116644   1.625   0.426   1.727  0.9559  0.3390 -0.5814
 5546TIP3    H216645   1.538   0.483   1.837  0.9284  2.3305 -1.5869
 5547TIP3   OH216646   5.231   1.683   1.038  0.5501 -0.2626 -0.6271
 5547TIP3    H116647   5.268   1.755   0.988  0.8086 -1.0245 -1.5555
 5547TIP3    H216648   5.272   1.689   1.124 -0.3225  1.4058 -0.2875
 5548TIP3   OH216649   4.376   3.051   1.617 -0.2919  0.5212 -0.4550
 5548TIP3    H116650   4.314   3.092   1.678 -0.2220  0.3970 -0.3005
 5548TIP3    H216651   4.411   3.124   1.566  0.9582  0.8555  0.8343
 5549TIP3   OH216652   4.898   0.171   0.661 -0.6112  0.6480  0.0911
 5549TIP3    H116653   4.863   0.245   0.611 -0.1809 -0.6419 -2.2296
 5549TIP3    H216654   4.979   0.205   0.699 -1.3502  1.8995  0.6198
 5550TIP3   OH216655   4.558   3.775   2.924 -0.1159  0.0424  0.1603
 5550TIP3    H116656   4.605   3.691   2.922  0.0586  0.0286  2.6477
 5550TIP3    H216657   4.486   3.761   2.984 -2.9304  0.3664 -2.8602
 5551TIP3   OH216658   2.518   0.743   1.991  0.0264 -0.3617  0.1864
 5551TIP3    H116659   2.444   0.682   1.994 -0.9150  0.7090 -0.5557
 5551TIP3    H216660   2.582   0.700   1.935 -1.2157 -0.0857 -1.5227
 5552TIP3   OH216661   1.724   2.160   1.121 -0.6243  0.1561 -0.2766
 5552TIP3    H116662   1.668   2.182   1.195 -1.2930  0.6016 -0.8993
 5552TIP3    H216663   1.740   2.065   1.130 -0.7328  0.1992  0.3980
 5553TIP3   OH216664   5.757   4.991   0.297 -0.3509 -0.6645  0.0872
 5553TIP3    H116665   5.718   4.923   0.243  0.3937 -0.6989 -0.4215
 5553TIP3    H216666   5.736   5.073   0.252 -0.8378 -0.5874  0.4445
 5554TIP3   OH216667   3.424   2.451   3.372  0.1352 -0.0839  0.1144
 5554TIP3    H116668   3.430   2.385   3.441 -0.9111  1.4960  1.8077
 5554TIP3    H216669   3.338   2.491   3.384 -0.0328  0.3231 -2.0751
 5555TIP3   OH216670   0.383   5.337   3.424  0.2808 -0.4043 -0.3886
 5555TIP3    H116671   0.297   5.374   3.401  0.9243  2.0603  0.7736
 5555TIP3    H216672   0.434   5.345   3.343  0.2210  0.8544 -0.3347
 5556TIP3   OH216673   1.076   0.406   5.070 -0.9808 -0.2105 -0.2273
 5556TIP3    H116674   1.142   0.476   5.063 -0.8857 -0.3931 -1.3175
 5556TIP3    H216675   1.009   0.431   5.007 -2.0774  0.0779  1.0156
 5557TIP3   OH216676   5.448   4.549   0.573  0.5528 -0.3979 -0.0200
 5557TIP3    H116677   5.495   4.561   0.656  2.8582 -1.2046 -1.1342
 5557TIP3    H216678   5.481   4.619   0.517 -2.3495  1.3242  0.1838
 5558TIP3   OH216679   4.429   0.999   4.608 -0.2730 -0.5662  0.1534
 5558TIP3    H116680   4.354   0.987   4.666 -0.3685  0.1060  0.1711
 5558TIP3    H216681   4.401   0.962   4.524 -0.9018  0.3551 -0.0522
 5559TIP3   OH216682   4.598   1.707   4.359 -0.3197 -0.3917  0.0961
 5559TIP3    H116683   4.665   1.775   4.366 -0.1614 -0.4541 -0.7337
 5559TIP3    H216684   4.532   1.744   4.300 -1.3869 -0.0466  1.4432
 5560TIP3   OH216685   0.255   0.234   1.580  0.0051 -0.4457  0.0442
 5560TIP3    H116686   0.288   0.146   1.597  1.9038  0.0656 -0.6611
 5560TIP3    H216687   0.310   0.266   1.508  0.5184  1.9239  1.3764
 5561TIP3   OH216688   4.886   0.778   3.587  0.0632  0.5640  0.6166
 5561TIP3    H116689   4.936   0.838   3.642  0.3929  0.2458  0.6645
 5561TIP3    H216690   4.870   0.827   3.507  1.0011  0.4468  0.3439
 5562TIP3   OH216691   6.175   4.881   0.748  0.0611  0.8456 -0.4058
 5562TIP3    H116692   6.146   4.790   0.748  0.2125  0.7269  1.7697
 5562TIP3    H216693   6.094   4.931   0.737 -0.3793  0.4482  0.8032
 5563TIP3   OH216694   4.622   3.953   2.732 -0.0988 -0.0436  0.0728
 5563TIP3    H116695   4.552   3.967   2.668 -0.2001  0.4001  0.2799
 5563TIP3    H216696   4.591   3.880   2.785  0.0769 -0.5527 -0.5058
 5564TIP3   OH216697   5.132   3.646   3.781  0.1081 -0.1775  0.3299
 5564TIP3    H116698   5.122   3.561   3.739  2.7468  0.9726 -3.1297
 5564TIP3    H216699   5.045   3.685   3.776 -0.8410 -2.1122  0.7931
 5565TIP3   OH216700   6.107   1.691   4.150 -0.2823  0.1350 -0.1170
 5565TIP3    H116701   6.141   1.779   4.133 -1.1881  0.7205  0.8972
 5565TIP3    H216702   6.123   1.642   4.070  0.8102  1.0399 -0.4785
 5566TIP3   OH216703   4.232   4.368   3.554  0.2339  0.0286  0.0402
 5566TIP3    H116704   4.268   4.309   3.621  0.8463 -0.0617 -0.3591
 5566TIP3    H216705   4.172   4.313   3.504  1.1367 -0.4020 -0.6120
 5567TIP3   OH216706   1.163   1.329   3.488 -0.0295 -0.0393 -0.4832
 5567TIP3    H116707   1.213   1.343   3.568 -1.3897 -2.4686  0.9023
 5567TIP3    H216708   1.154   1.234   3.480  0.5048  0.0398 -3.8794
 5568TIP3   OH216709   3.566   4.238   4.996  0.2642 -0.0797  0.1297
 5568TIP3    H116710   3.546   4.322   5.036 -0.6925 -0.4824  0.5330
 5568TIP3    H216711   3.533   4.173   5.059  0.4890 -0.7479 -0.4238
 5569TIP3   OH216712   3.801   2.080   4.500 -0.2933 -0.5369  0.0881
 5569TIP3    H116713   3.737   2.040   4.559 -1.9931 -1.1404 -2.0131
 5569TIP3    H216714   3.804   2.172   4.526 -1.0651 -0.7671  1.0558
 5570TIP3   OH216715   5.670   0.417   3.305  0.2376  0.4398  0.1550
 5570TIP3    H116716   5.588   0.429   3.259  0.6948  1.1404 -0.4993
 5570TIP3    H216717   5.674   0.323   3.323  0.6322 -0.0872 -2.3774
 5571TIP3   OH216718   2.308   5.163   3.060  0.0055 -0.3706 -0.5526
 5571TIP3    H116719   2.318   5.083   3.009 -1.4974 -1.6033  0.9380
 5571TIP3    H216720   2.341   5.140   3.147 -0.8670  0.4662  0.0236
 5572TIP3   OH216721   4.681   2.743   4.174 -0.0236  0.0155  0.1283
 5572TIP3    H116722   4.637   2.660   4.154 -0.4933  0.2206  0.3083
 5572TIP3    H216723   4.701   2.780   4.088 -0.3536  0.0031  0.0462
 5573TIP3   OH216724   3.527   5.735   3.679 -0.0444 -0.0383 -0.0279
 5573TIP3    H116725   3.565   5.647   3.682 -0.1566 -0.0603  1.5896
 5573TIP3    H216726   3.437   5.721   3.649  0.9020 -0.0413 -3.3378
 5574TIP3   OH216727   1.095   3.290   0.852 -0.3564  0.4118  0.2943
 5574TIP3    H116728   1.097   3.369   0.907 -1.0130 -0.4406  1.5883
 5574TIP3    H216729   1.153   3.228   0.897  1.7496  0.7344 -1.7406
 5575TIP3   OH216730   4.310   5.827   2.669 -0.2529  0.6864 -0.0300
 5575TIP3    H116731   4.401   5.837   2.699 -0.2690  0.5383  0.0752
 5575TIP3    H216732   4.304   5.880   2.590  0.2145 -0.1129 -0.6231
 5576TIP3   OH216733   2.352   0.705   1.707  0.1942 -0.0338  0.0126
 5576TIP3    H116734   2.264   0.735   1.727  0.3197  0.4014 -0.0751
 5576TIP3    H216735   2.378   0.654   1.784 -0.5712 -1.1504 -0.4550
 5577TIP3   OH216736   2.542   2.833   3.506 -0.4882  0.1555  0.0012
 5577TIP3    H116737   2.556   2.848   3.600 -1.2950 -0.3936  0.2247
 5577TIP3    H216738   2.629   2.840   3.467  0.2345 -1.7781  1.1153
 5578TIP3   OH216739   2.655   3.963   3.105  0.4118  0.1214 -0.0075
 5578TIP3    H116740   2.701   3.882   3.128 -0.6298 -0.9107 -1.3636
 5578TIP3    H216741   2.641   3.956   3.010 -1.2049  1.0951  0.1217
 5579TIP3   OH216742   5.286   4.592   4.348  0.3360  0.0808 -0.2643
 5579TIP3    H116743   5.287   4.500   4.322 -1.5971  0.4208 -1.7516
 5579TIP3    H216744   5.226   4.634   4.286  0.0890  2.0974  1.2481
 5580TIP3   OH216745   4.086   3.577   3.891 -0.5633 -0.3526 -0.3213
 5580TIP3    H116746   4.082   3.532   3.807 -1.1417 -2.0559  0.5599
 5580TIP3    H216747   4.171   3.553   3.927 -0.6349 -0.2729 -0.0981
 5581TIP3   OH216748   3.189   0.672   4.651 -0.4931 -0.5635 -0.2504
 5581TIP3    H116749   3.268   0.711   4.614 -1.0129  0.0543 -0.7427
 5581TIP3    H216750   3.190   0.582   4.620 -0.3553 -0.3548 -0.8641
 5582TIP3   OH216751   4.620   4.745   4.096 -0.5807  0.1045  0.2513
 5582TIP3    H116752   4.633   4.653   4.073 -0.1516  0.5223 -1.2673
 5582TIP3    H216753   4.621   4.745   4.192  0.8460 -1.2736  0.2819
 5583TIP3   OH216754   5.716   1.630   0.211  0.4883  0.1155  0.0069
 5583TIP3    H116755   5.779   1.696   0.183 -1.4240  2.1018  0.0885
 5583TIP3    H216756   5.643   1.639   0.149 -0.8547 -0.2444  1.4819
 5584TIP3   OH216757   3.964   4.461   0.553 -0.7238 -0.1651  0.1987
 5584TIP3    H116758   4.004   4.526   0.496 -0.3334 -0.4952  0.0962
 5584TIP3    H216759   4.038   4.421   0.599 -1.0385  0.2314  1.0852
 5585TIP3   OH216760   4.413   2.625   3.083 -0.0685  0.1009  0.4082
 5585TIP3    H116761   4.450   2.628   3.172 -0.8767  0.5292  0.7373
 5585TIP3    H216762   4.476   2.673   3.030  0.4566 -0.2097  0.7354
 5586TIP3   OH216763   4.533   4.651   5.073 -0.0708 -0.2198 -0.3602
 5586TIP3    H116764   4.441   4.632   5.052  0.3786 -2.2804 -0.6949
 5586TIP3    H216765   4.559   4.581   5.132  1.2009  0.5588  0.0339
 5587TIP3   OH216766   2.172   1.517   0.474 -0.0771 -0.0067 -0.0502
 5587TIP3    H116767   2.263   1.533   0.449  0.0554 -0.9772 -0.2336
 5587TIP3    H216768   2.155   1.428   0.443 -0.9995  0.0677  0.2424
 5588TIP3   OH216769   0.200   4.342   1.360  0.0051 -0.0907 -0.1936
 5588TIP3    H116770   0.273   4.311   1.307 -0.1150 -0.2446 -0.2682
 5588TIP3    H216771   0.122   4.323   1.308 -0.1267 -0.4075  0.1159
 5589TIP3   OH216772   2.577   1.119   2.808  0.1533 -0.1408 -0.0642
 5589TIP3    H116773   2.588   1.062   2.732  0.0943 -0.1478 -0.0675
 5589TIP3    H216774   2.525   1.193   2.775 -1.5393 -1.0728  0.4242
 5590TIP3   OH216775   5.327   1.417   1.067 -0.1430 -0.6244  0.0281
 5590TIP3    H116776   5.264   1.394   1.135 -0.9893 -0.1570 -0.5717
 5590TIP3    H216777   5.293   1.498   1.029  0.6273 -0.5614 -0.5598
 5591TIP3   OH216778   0.247   2.740   3.539  0.6007  0.3285 -0.2246
 5591TIP3    H116779   0.286   2.789   3.466 -1.5180 -0.1565 -1.7695
 5591TIP3    H216780   0.225   2.808   3.604 -0.6433  1.2760 -1.5632
 5592TIP3   OH216781   4.427   0.273   1.243 -0.0326 -0.1306  0.4781
 5592TIP3    H116782   4.396   0.331   1.312  0.2452  1.1751 -0.4512
 5592TIP3    H216783   4.408   0.185   1.275 -3.1920  0.4997  0.7199
 5593TIP3   OH216784   2.108   3.596   3.631 -0.1151  0.0500  0.1026
 5593TIP3    H116785   2.048   3.599   3.705 -0.4686  0.8879 -0.1935
 5593TIP3    H216786   2.188   3.636   3.663 -0.4986  1.0573 -0.1441
 5594TIP3   OH216787   2.523   0.300   4.419 -0.4106  0.1408  0.2605
 5594TIP3    H116788   2.601   0.330   4.467 -0.1300  2.0581 -1.2712
 5594TIP3    H216789   2.489   0.227   4.472  1.4391  0.3472  1.8604
 5595TIP3   OH216790   0.110   5.552   0.603  0.3384 -0.7870  0.4993
 5595TIP3    H116791   0.197   5.591   0.603 -0.0739  0.1752  0.0497
 5595TIP3    H216792   0.056   5.613   0.654 -0.7794  0.3921 -1.9077
 5596TIP3   OH216793   1.480   4.731   3.763 -0.7684 -0.2109 -0.0790
 5596TIP3    H116794   1.463   4.800   3.827  0.6820  0.5225 -0.4461
 5596TIP3    H216795   1.458   4.650   3.810 -0.6582  0.3745  1.0200
 5597TIP3   OH216796   3.444   5.561   4.526  0.2486 -0.0076 -0.0323
 5597TIP3    H116797   3.501   5.515   4.588  0.6116  2.2374  1.4207
 5597TIP3    H216798   3.372   5.595   4.579 -0.4629  0.3618 -1.1898
 5598TIP3   OH216799   4.313   1.855   4.515 -1.4761 -0.1458 -0.0521
 5598TIP3    H116800   4.225   1.819   4.530 -1.8807 -0.2823 -2.3712
 5598TIP3    H216801   4.308   1.896   4.429  0.6521  0.1843 -0.0781
 5599TIP3   OH216802   0.942   3.764   1.447  0.0387 -0.7981 -0.6240
 5599TIP3    H116803   0.912   3.796   1.532 -2.3573 -0.0965 -1.6481
 5599TIP3    H216804   0.994   3.836   1.412 -1.6801  0.2930 -1.0652
 5600TIP3   OH216805   4.804   4.658   1.818  0.9672 -0.3144 -0.1932
 5600TIP3    H116806   4.714   4.688   1.808  1.2684  0.6960 -0.0056
 5600TIP3    H216807   4.797   4.569   1.852  0.0427 -0.0988  0.1858
 5601TIP3   OH216808   1.694   1.618   1.468 -0.0038  0.4221 -0.3926
 5601TIP3    H116809   1.681   1.528   1.501  0.1866  0.5698  0.1022
 5601TIP3    H216810   1.646   1.673   1.530  1.2134  0.7941  0.2500
 5602TIP3   OH216811   5.445   1.862   5.033 -0.4690  0.3800 -0.1870
 5602TIP3    H116812   5.419   1.857   4.941 -0.6032 -0.2538 -0.1222
 5602TIP3    H216813   5.466   1.954   5.048  2.4347  0.0529 -1.6151
 5603TIP3   OH216814   3.777   5.090   1.770 -0.0207  0.4181 -0.1629
 5603TIP3    H116815   3.729   5.027   1.716 -1.7088  1.2222  0.3361
 5603TIP3    H216816   3.714   5.119   1.836  1.4988  0.6942  1.2515
 5604TIP3   OH216817   0.683   4.206   1.683 -0.5073  0.3883  0.5550
 5604TIP3    H116818   0.600   4.234   1.644 -1.8508 -1.5464  1.8349
 5604TIP3    H216819   0.666   4.208   1.777 -0.1987 -2.9630  0.7906
 5605TIP3   OH216820   0.515   2.231   3.341  0.2123 -0.4488  0.2691
 5605TIP3    H116821   0.442   2.288   3.321  0.1855 -0.5788 -0.0102
 5605TIP3    H216822   0.530   2.242   3.435 -2.3992 -2.9988  1.1153
 5606TIP3   OH216823   4.205   2.760   0.120 -0.2613 -0.0868 -0.0498
 5606TIP3    H116824   4.133   2.774   0.059 -0.2816  2.1901  0.4051
 5606TIP3    H216825   4.275   2.817   0.089 -0.4187  1.4672  2.2367
 5607TIP3   OH216826   3.340   4.272   0.703  0.2668 -0.6050 -0.4390
 5607TIP3    H116827   3.329   4.179   0.725  0.9100 -0.7351 -0.6523
 5607TIP3    H216828   3.399   4.272   0.628  0.9571  0.0103  0.0861
 5608TIP3   OH216829   0.989   0.670   4.169 -0.0721 -0.2095 -0.3708
 5608TIP3    H116830   1.029   0.757   4.164  0.2559 -0.4117 -1.6968
 5608TIP3    H216831   1.043   0.622   4.231  0.7964  0.0155 -0.9376
 5609TIP3   OH216832   3.896   0.079   4.096 -0.1516  0.0646 -0.4211
 5609TIP3    H116833   3.952   0.156   4.101 -0.9807  0.5877  2.2524
 5609TIP3    H216834   3.881   0.054   4.187  0.1505 -3.3427 -1.1737
 5610TIP3   OH216835   0.618   0.279   4.515 -0.0907  0.6862 -0.0073
 5610TIP3    H116836   0.649   0.366   4.539  0.7669  0.8763 -1.6469
 5610TIP3    H216837   0.581   0.290   4.428 -2.1899 -0.1452  0.7034
 5611TIP3   OH216838   5.241   3.127   0.352 -0.1081  0.4347  0.1053
 5611TIP3    H116839   5.263   3.218   0.337 -2.1531  1.2213  1.3607
 5611TIP3    H216840   5.249   3.115   0.447  2.0720 -1.2968 -0.2258
 5612TIP3   OH216841   3.348   0.246   0.757  0.2678 -0.4302  0.3411
 5612TIP3    H116842   3.283   0.287   0.814  0.4698 -0.1252  0.3520
 5612TIP3    H216843   3.335   0.152   0.771  0.1857 -0.3627  0.7437
 5613TIP3   OH216844   5.187   2.104   5.052 -0.1671  0.4698 -0.2718
 5613TIP3    H116845   5.246   2.156   4.997 -0.2039 -2.4471 -3.3834
 5613TIP3    H216846   5.100   2.116   5.012 -0.8410  0.8114  1.2199
 5614TIP3   OH216847   4.940   2.670   4.480  0.5256 -0.4101  0.1197
 5614TIP3    H116848   5.015   2.723   4.509  0.9360  0.0512 -1.6446
 5614TIP3    H216849   4.968   2.580   4.494  0.9261 -0.2262  0.5733
 5615TIP3   OH216850   5.040   2.417   3.618 -0.1029 -0.4867  0.0669
 5615TIP3    H116851   4.970   2.399   3.555 -0.8427  0.0192  0.7267
 5615TIP3    H216852   5.104   2.468   3.569 -0.1780 -0.9819 -0.5555
 5616TIP3   OH216853   4.419   4.656   3.188  0.5628 -0.3967 -1.0230
 5616TIP3    H116854   4.354   4.597   3.225  0.7110  0.3406  0.4911
 5616TIP3    H216855   4.418   4.637   3.094 -1.1755 -1.0270 -0.9144
 5617TIP3   OH216856   2.913   1.629   1.000 -0.3634  0.3486  0.2413
 5617TIP3    H116857   2.946   1.707   0.956 -0.3456  0.9033  1.2113
 5617TIP3    H216858   2.865   1.581   0.932  0.0031  0.9790 -0.4708
 5618TIP3   OH216859   5.550   2.847   0.485 -0.0248 -0.1849 -0.2903
 5618TIP3    H116860   5.498   2.844   0.405  1.3366  0.2575 -1.2291
 5618TIP3    H216861   5.602   2.927   0.477  0.6439 -0.4996  0.7143
 5619TIP3   OH216862   5.576   4.408   4.568 -0.1199  0.2880 -0.2608
 5619TIP3    H116863   5.649   4.397   4.629 -0.6222  0.4778  0.3913
 5619TIP3    H216864   5.556   4.501   4.572 -2.3294 -0.1629  1.9081
 5620TIP3   OH216865   4.266   4.811   1.488  0.0634  0.2501  0.3086
 5620TIP3    H116866   4.301   4.722   1.480  0.0312  0.0209  2.1520
 5620TIP3    H216867   4.341   4.868   1.475 -0.1610  0.0541 -2.2631
 5621TIP3   OH216868   1.710   5.404   3.468  0.2352  0.2521 -0.0810
 5621TIP3    H116869   1.739   5.490   3.497 -1.1990  0.7104  0.1020
 5621TIP3    H216870   1.788   5.349   3.471  1.0016  1.3488  0.5783
 5622TIP3   OH216871   1.216   2.533   1.067  0.1535 -0.2654  0.5869
 5622TIP3    H116872   1.120   2.533   1.074  0.0588  0.2915 -0.5031
 5622TIP3    H216873   1.244   2.598   1.132 -0.2428 -0.0924  0.5903
 5623TIP3   OH216874   3.542   1.415   1.865 -0.4844 -0.3614 -0.2198
 5623TIP3    H116875   3.614   1.354   1.855  0.1517  0.2836  0.3202
 5623TIP3    H216876   3.478   1.369   1.919  0.4685 -0.1552  1.1097
 5624TIP3   OH216877   0.407   3.105   4.367  0.2407  0.6862 -0.0275
 5624TIP3    H116878   0.470   3.177   4.371  1.3047 -0.2244 -0.0693
 5624TIP3    H216879   0.384   3.088   4.458  0.6777  0.4860  0.0464
 5625TIP3   OH216880   5.080   2.781   2.902  0.1723 -0.1889 -0.1555
 5625TIP3    H116881   5.045   2.755   2.988  0.7103 -0.6396 -0.0627
 5625TIP3    H216882   5.146   2.847   2.923 -0.2737  0.2964 -0.2881
 5626TIP3   OH216883   1.412   2.124   2.395  0.0010  0.1332 -0.4124
 5626TIP3    H116884   1.443   2.048   2.445 -1.1359 -1.4128 -1.9150
 5626TIP3    H216885   1.353   2.169   2.455 -0.0107 -0.6865  0.2150
 5627TIP3   OH216886   2.760   4.467   4.011 -0.0865 -0.1907 -0.1106
 5627TIP3    H116887   2.762   4.418   4.093  1.6112 -1.7416 -1.0133
 5627TIP3    H216888   2.816   4.543   4.027  0.5170 -0.6697  0.0895
 5628TIP3   OH216889   4.637   1.189   1.425 -0.1190  0.2144 -0.8041
 5628TIP3    H116890   4.600   1.259   1.370 -0.2300  1.8571  1.2306
 5628TIP3    H216891   4.629   1.223   1.515  0.0517 -2.3400  0.2451
 5629TIP3   OH216892   2.172   5.838   4.047 -0.1352 -0.0632  0.3694
 5629TIP3    H116893   2.199   5.903   3.982  2.1135 -0.3962  0.8924
 5629TIP3    H216894   2.114   5.779   4.000 -0.7900  1.2948 -0.5778
 5630TIP3   OH216895   3.328   4.633   4.430  0.5749 -0.2501 -0.1393
 5630TIP3    H116896   3.254   4.590   4.473  0.2063 -0.0422 -0.5629
 5630TIP3    H216897   3.296   4.720   4.407  0.9904 -0.1156 -0.2182
 5631TIP3   OH216898   1.643   0.924   1.683 -0.1705 -0.1979 -0.3052
 5631TIP3    H116899   1.637   1.016   1.660 -0.3700 -0.2646 -0.5254
 5631TIP3    H216900   1.675   0.881   1.604  0.0955 -0.2953 -0.1474
 5632TIP3   OH216901   0.428   0.949   2.494 -0.1962  0.0666  0.0212
 5632TIP3    H116902   0.339   0.982   2.492 -0.1196  0.3646  1.1619
 5632TIP3    H216903   0.419   0.854   2.483 -0.4622  0.3144 -2.5027
 5633TIP3   OH216904   6.034   3.569   5.187 -0.3430  0.2073  0.1596
 5633TIP3    H116905   5.984   3.554   5.106 -0.7159  0.9130  0.2503
 5633TIP3    H216906   5.999   3.651   5.222  1.5316  1.2628 -0.2769
 5634TIP3   OH216907   6.121   3.557   1.058  0.5285 -0.3077  0.4632
 5634TIP3    H116908   6.033   3.570   1.022  0.2480  0.8313  1.4845
 5634TIP3    H216909   6.179   3.563   0.982 -0.3190 -2.0420 -0.3801
 5635TIP3   OH216910   5.302   2.926   2.698 -0.2562 -0.4702 -0.0939
 5635TIP3    H116911   5.329   2.970   2.618  0.4335 -0.9733 -0.1501
 5635TIP3    H216912   5.264   2.843   2.670 -0.6307 -0.3555  0.0648
 5636TIP3   OH216913   1.786   1.754   2.388 -0.4049 -0.4015  0.1525
 5636TIP3    H116914   1.813   1.668   2.356  0.2064  0.1549 -0.8692
 5636TIP3    H216915   1.721   1.735   2.457 -0.0255 -1.6736  0.1774
 5637TIP3   OH216916   0.693   1.853   0.531 -0.2041 -0.2753  0.2996
 5637TIP3    H116917   0.624   1.871   0.596 -2.0605 -1.0850 -1.3386
 5637TIP3    H216918   0.756   1.924   0.544 -1.3381  0.5309  1.8714
 5638TIP3   OH216919   2.576   3.367   4.516 -0.2891  0.6644 -0.7056
 5638TIP3    H116920   2.503   3.364   4.454 -0.4279 -1.0815 -0.5105
 5638TIP3    H216921   2.647   3.321   4.472 -0.4154 -0.6823  0.4213
 5639TIP3   OH216922   4.401   3.897   4.769  0.0585  0.2307 -0.3224
 5639TIP3    H116923   4.351   3.963   4.721  1.5749  1.0898 -0.7813
 5639TIP3    H216924   4.440   3.843   4.700 -1.0150 -1.0671  0.0471
 5640TIP3   OH216925   1.963   0.553   4.398  0.2997  0.0663  0.2861
 5640TIP3    H116926   2.048   0.565   4.356  0.0045  1.7547  0.0921
 5640TIP3    H216927   1.914   0.633   4.375 -1.0449 -0.5099  1.0598
 5641TIP3   OH216928   1.134   3.889   0.023  0.2072 -0.0471 -1.1011
 5641TIP3    H116929   1.160   3.819  -0.036  0.6595 -1.7389  0.9879
 5641TIP3    H216930   1.052   3.859   0.062  0.7757  0.1867  0.3553
 5642TIP3   OH216931   5.506   2.895   3.378  0.9697 -1.0023 -0.2871
 5642TIP3    H116932   5.412   2.912   3.384  0.9431 -1.4149  0.7505
 5642TIP3    H216933   5.547   2.977   3.406  0.9164 -0.8319 -0.7111
 5643TIP3   OH216934   5.824   2.544   4.426 -0.7147  0.2709 -0.0554
 5643TIP3    H116935   5.862   2.593   4.500 -0.3343  1.2935 -0.8973
 5643TIP3    H216936   5.743   2.506   4.461 -1.6105  2.4272  0.3528
 5644TIP3   OH216937   2.413   4.312   4.907  0.1015  0.1219  0.1553
 5644TIP3    H116938   2.379   4.295   4.995  0.8854 -1.6465  0.1630
 5644TIP3    H216939   2.353   4.376   4.870 -1.0267 -0.1153  1.4955
 5645TIP3   OH216940   4.801   2.255   1.190 -0.3202 -0.3364 -0.0391
 5645TIP3    H116941   4.776   2.322   1.127  3.3836  1.3955  0.1028
 5645TIP3    H216942   4.856   2.194   1.140 -1.1160 -1.6016  0.5516
 5646TIP3   OH216943   1.433   1.384   1.069  0.3722  0.6270 -0.4072
 5646TIP3    H116944   1.442   1.374   0.974 -0.5418  0.6422 -0.5034
 5646TIP3    H216945   1.485   1.462   1.089  0.0345  1.0229 -1.0083
 5647TIP3   OH216946   2.731   0.768   0.054 -0.0005  0.2230  0.4782
 5647TIP3    H116947   2.764   0.715   0.126  2.7146  1.4025  0.2183
 5647TIP3    H216948   2.725   0.707  -0.020  0.9220 -0.2311  0.7577
 5648TIP3   OH216949   0.760   0.901   0.844 -0.3682  0.2806  0.3583
 5648TIP3    H116950   0.724   0.833   0.900 -0.9684 -0.7383 -1.1847
 5648TIP3    H216951   0.831   0.939   0.894 -0.8243 -0.6410  1.7511
 5649TIP3   OH216952   0.556   4.616   1.871  0.4103 -0.1654  0.0150
 5649TIP3    H116953   0.638   4.609   1.822 -0.1014  0.9882 -1.0592
 5649TIP3    H216954   0.566   4.695   1.924  1.3145 -1.8735  2.5719
 5650TIP3   OH216955   5.391   1.989   1.370  0.7832 -0.2769  0.1167
 5650TIP3    H116956   5.297   1.991   1.355  0.8859  1.7866 -0.6233
 5650TIP3    H216957   5.401   1.957   1.460 -0.8646  2.5654  1.4455
 5651TIP3   OH216958   3.966   3.932   0.985 -0.5783  0.3374  0.0913
 5651TIP3    H116959   3.998   3.893   1.066 -0.4297 -0.1338 -0.1889
 5651TIP3    H216960   3.896   3.991   1.012 -1.2069 -0.5608  0.4680
 5652TIP3   OH216961   1.621   2.244   4.006 -0.2703  0.3942  0.4987
 5652TIP3    H116962   1.605   2.172   3.944  1.2754  0.2742  0.2172
 5652TIP3    H216963   1.645   2.200   4.088 -0.0285  0.5874  0.5295
 5653TIP3   OH216964   2.908   4.113   2.885 -0.0191  0.0735  0.1202
 5653TIP3    H116965   2.940   4.200   2.907  0.3867  0.5136 -1.9946
 5653TIP3    H216966   2.966   4.054   2.932  0.5072  0.9250  0.5627
 5654TIP3   OH216967   6.284   4.856   2.555  0.4083  0.1586  0.0983
 5654TIP3    H116968   6.190   4.842   2.569  0.6045 -0.1930  1.1428
 5654TIP3    H216969   6.306   4.796   2.484 -0.2145  0.4771 -0.3803
 5655TIP3   OH216970   3.103   4.264   0.869 -0.8933 -0.0733  0.8000
 5655TIP3    H116971   3.165   4.284   0.800 -0.8126 -1.4840  0.4325
 5655TIP3    H216972   3.152   4.210   0.931 -1.1546  0.6141  1.6257
 5656TIP3   OH216973   1.612   0.041   4.971  0.2013  0.0663  0.0919
 5656TIP3    H116974   1.664   0.060   4.893  0.0745  0.8034  0.1764
 5656TIP3    H216975   1.528   0.084   4.955 -0.9360 -2.2777 -0.6535
 5657TIP3   OH216976   1.043  -0.005   3.957 -0.1270 -0.3441 -0.7521
 5657TIP3    H116977   0.972  -0.002   3.893  0.0884  0.0679 -0.9767
 5657TIP3    H216978   1.108   0.056   3.923  0.9122 -1.6558 -1.2172
 5658TIP3   OH216979   2.245   3.235   3.000  0.0214 -0.6729  0.0523
 5658TIP3    H116980   2.321   3.286   3.027  0.4817 -0.2749 -1.8413
 5658TIP3    H216981   2.261   3.147   3.034  0.1541 -0.0360  1.6999
 5659TIP3   OH216982   4.433   3.489   2.832  0.5207  0.3753 -0.4999
 5659TIP3    H116983   4.377   3.549   2.881 -0.7068 -0.6000 -0.6455
 5659TIP3    H216984   4.502   3.465   2.894 -0.8296 -0.5946  0.6884
 5660TIP3   OH216985   5.314   2.613   0.747 -0.7559  0.1428  0.5580
 5660TIP3    H116986   5.297   2.519   0.753  0.3942 -0.0755  0.6752
 5660TIP3    H216987   5.400   2.620   0.706 -0.9401  1.1572  0.3045
 5661TIP3   OH216988   3.054   3.885   4.779 -0.7482 -0.1759  0.0523
 5661TIP3    H116989   2.972   3.872   4.827 -0.2902 -1.0450  0.6280
 5661TIP3    H216990   3.091   3.797   4.772  0.7938  0.3723  0.9662
 5662TIP3   OH216991   3.965   1.941   1.669  0.3095 -0.2866  0.1801
 5662TIP3    H116992   4.012   1.880   1.725 -0.8374 -0.8527  0.5573
 5662TIP3    H216993   4.000   2.027   1.691  0.2102 -0.5540  1.4077
 5663TIP3   OH216994   2.993   3.966   1.224 -0.2543  0.2803  0.1036
 5663TIP3    H116995   3.084   3.960   1.195 -0.3006 -0.7958  0.1251
 5663TIP3    H216996   2.946   3.998   1.147 -0.1021 -0.8266 -0.4800
 5664TIP3   OH216997   3.807   3.957   0.373  0.3106  0.1442  0.1479
 5664TIP3    H116998   3.804   4.051   0.391  3.8088  0.4668 -0.1931
 5664TIP3    H216999   3.827   3.917   0.458  1.5138  0.0627 -0.1451
 5665TIP3   OH217000   2.235   0.609   4.301  1.1180  0.3393  0.4289
 5665TIP3    H117001   2.291   0.679   4.334  3.1440 -1.6932  1.4926
 5665TIP3    H217002   2.216   0.554   4.377 -1.2157  0.1822 -0.1897
 5666TIP3   OH217003   2.767   2.728   2.380  0.1442  0.1626 -0.1020
 5666TIP3    H117004   2.713   2.718   2.302 -1.5748 -2.7736  1.3154
 5666TIP3    H217005   2.814   2.810   2.366 -1.6921  0.8373 -3.2147
 5667TIP3   OH217006   0.794   4.486   4.610  0.2593 -0.1576 -0.1498
 5667TIP3    H117007   0.768   4.548   4.678  1.1055  0.0533  0.0013
 5667TIP3    H217008   0.726   4.493   4.544 -0.0028  0.4509  0.1699
 5668TIP3   OH217009   3.426   5.792   1.080  0.0271  0.2548 -0.7329
 5668TIP3    H117010   3.479   5.732   1.028 -0.7232 -1.8922  0.8182
 5668TIP3    H217011   3.341   5.794   1.035  0.2976  0.7929 -1.2229
 5669TIP3   OH217012   0.314   3.708   2.226  0.1319 -0.1072 -0.0605
 5669TIP3    H117013   0.256   3.640   2.191 -0.5752  0.1315  0.6231
 5669TIP3    H217014   0.397   3.664   2.239  0.0965 -0.4764 -0.9908
 5670TIP3   OH217015   3.399   5.823   1.956 -0.2140  0.6993 -0.0324
 5670TIP3    H117016   3.445   5.739   1.951 -1.6337 -0.0660 -1.1037
 5670TIP3    H217017   3.443   5.879   1.893  1.9932  1.4794  2.0487
 5671TIP3   OH217018   4.480   4.964   1.393  0.5162  0.1374  0.1231
 5671TIP3    H117019   4.453   4.988   1.305 -2.4300 -0.5238  0.7359
 5671TIP3    H217020   4.499   5.048   1.436 -1.1635  0.7648 -0.2724
 5672TIP3   OH217021   5.598   0.169   0.893 -0.4568 -0.1785  0.4299
 5672TIP3    H117022   5.679   0.118   0.900 -0.3143 -0.5881 -2.5809
 5672TIP3    H217023   5.529   0.104   0.883 -0.6212  0.1526 -0.7756
 5673TIP3   OH217024   6.252   2.885   0.518 -0.9836 -0.0615 -0.3460
 5673TIP3    H117025   6.226   2.964   0.471 -2.9815  0.6535  1.7669
 5673TIP3    H217026   6.332   2.909   0.564 -1.2939  0.5656 -0.1289
 5674TIP3   OH217027   2.280   4.729   2.148 -0.6479 -0.4178 -0.4842
 5674TIP3    H117028   2.252   4.778   2.225  0.4985 -1.4247  0.6149
 5674TIP3    H217029   2.232   4.768   2.076 -1.7156  0.5875  0.7320
 5675TIP3   OH217030   4.166   3.575   0.708 -0.9578  0.6219  0.1740
 5675TIP3    H117031   4.074   3.549   0.716 -0.7019 -0.4663 -0.1872
 5675TIP3    H217032   4.190   3.550   0.619 -0.5854  1.8345 -0.0762
 5676TIP3   OH217033   5.423   2.759   4.578 -0.4237  0.2083  0.1869
 5676TIP3    H117034   5.400   2.841   4.535 -1.2590  0.5831  1.3242
 5676TIP3    H217035   5.389   2.691   4.519 -0.8400  0.6928 -0.1448
 5677TIP3   OH217036   1.922   3.655   0.541 -0.6178  0.5990 -0.1259
 5677TIP3    H117037   1.895   3.595   0.472  1.2428  0.0919 -0.4826
 5677TIP3    H217038   2.007   3.621   0.571 -0.9658  1.2893  1.8342
 5678TIP3   OH217039   2.203   4.947   0.681  0.3085 -0.8550  0.1451
 5678TIP3    H117040   2.254   4.992   0.748 -1.2291 -0.3280  1.0048
 5678TIP3    H217041   2.232   4.856   0.686 -1.0803 -1.2515  2.9063
 5679TIP3   OH217042   3.603   1.038   3.198 -0.3352 -0.3601 -0.4405
 5679TIP3    H117043   3.556   0.954   3.202  1.5485 -1.6076 -2.3518
 5679TIP3    H217044   3.646   1.045   3.283 -2.5489  0.0210  0.7336
 5680TIP3   OH217045   2.973   2.746   1.094  0.3137 -0.2714  0.7901
 5680TIP3    H117046   2.948   2.682   1.027  0.0473 -0.0268  0.6554
 5680TIP3    H217047   2.947   2.830   1.057  0.8664 -0.0621  0.8734
 5681TIP3   OH217048   1.330   3.096   0.404  0.3253 -0.2577  0.0011
 5681TIP3    H117049   1.316   3.003   0.387 -1.1827 -0.1268  0.3591
 5681TIP3    H217050   1.387   3.125   0.333  0.1788 -1.2951 -0.5586
 5682TIP3   OH217051   5.573   0.276   1.674 -0.7863 -0.2129 -0.5753
 5682TIP3    H117052   5.583   0.369   1.691 -0.9811 -0.3149  0.1582
 5682TIP3    H217053   5.544   0.270   1.583 -0.3485  0.4125 -0.7564
 5683TIP3   OH217054   6.247   0.051   2.786  0.0273  0.1989  0.1620
 5683TIP3    H117055   6.201  -0.032   2.797 -1.0254  0.5217 -1.4890
 5683TIP3    H217056   6.338   0.027   2.774 -0.0296 -0.6012  1.1259
 5684TIP3   OH217057   6.144   3.928   2.985  0.6255  0.0668  0.8048
 5684TIP3    H117058   6.104   4.011   2.958  0.2429  0.1469  1.5967
 5684TIP3    H217059   6.135   3.871   2.909 -0.6492  0.2074  0.8300
 5685TIP3   OH217060   4.481   2.271   0.982  0.5078  0.4283  0.3424
 5685TIP3    H117061   4.557   2.329   0.980  0.0060  1.1243  0.7299
 5685TIP3    H217062   4.406   2.331   0.977 -0.0661 -0.0586  2.2877
 5686TIP3   OH217063   2.002   0.057   1.190 -0.1619  0.0455  0.7232
 5686TIP3    H117064   1.988   0.044   1.284 -1.7863 -0.9549  0.3784
 5686TIP3    H217065   2.060  -0.013   1.164 -2.1316 -1.5942  0.4683
 5687TIP3   OH217066   5.239   2.369   1.677 -0.1714  0.3857 -0.9254
 5687TIP3    H117067   5.185   2.400   1.750  0.0786 -0.1460 -0.5101
 5687TIP3    H217068   5.310   2.434   1.671  0.6144 -0.3174  0.2457
 5688TIP3   OH217069   5.243   2.453   4.199 -0.4235 -0.5113 -0.0139
 5688TIP3    H117070   5.315   2.401   4.162  0.3305  0.4109  0.1158
 5688TIP3    H217071   5.168   2.433   4.142 -1.4210 -4.9973  2.4307
 5689TIP3   OH217072   3.155   4.998   2.035  0.6184 -0.3988  0.0888
 5689TIP3    H117073   3.141   5.041   2.120 -0.3732  0.1423 -0.3321
 5689TIP3    H217074   3.247   5.014   2.015  0.4399  1.0020  0.2497
 5690TIP3   OH217075   5.126   1.840   2.811  0.0492  0.1014  0.0261
 5690TIP3    H117076   5.188   1.842   2.883 -1.0120  1.3907  0.9522
 5690TIP3    H217077   5.113   1.932   2.787  0.4947 -0.2919 -1.9418
 5691TIP3   OH217078   1.455   4.791   1.697  0.5128 -0.2925 -0.0254
 5691TIP3    H117079   1.396   4.859   1.664  1.3466  0.4886  0.0739
 5691TIP3    H217080   1.444   4.719   1.634  1.2060  0.7385 -1.3732
 5692TIP3   OH217081   5.030   3.567   1.527 -0.4638  0.1694  0.4523
 5692TIP3    H117082   4.942   3.531   1.539 -1.1693  1.4598 -0.6050
 5692TIP3    H217083   5.038   3.584   1.433  0.7699  0.4248  0.5765
 5693TIP3   OH217084   2.392   0.796   5.003  0.2221 -0.1889 -0.0697
 5693TIP3    H117085   2.327   0.858   5.035  1.2819  0.7335  0.3718
 5693TIP3    H217086   2.475   0.843   5.009  1.3395 -2.1790  1.9446
 5694TIP3   OH217087   1.053   0.868   1.591 -0.3781  0.6550 -0.0838
 5694TIP3    H117088   1.061   0.962   1.573  0.6618  0.5839 -0.0365
 5694TIP3    H217089   0.995   0.835   1.523 -0.2553  1.2324 -0.4705
 5695TIP3   OH217090   0.533   4.152   3.176 -0.0749  0.1951 -0.3947
 5695TIP3    H117091   0.566   4.233   3.215 -2.0727  1.9049 -1.9929
 5695TIP3    H217092   0.462   4.125   3.235  0.5669 -0.4055  0.1178
 5696TIP3   OH217093   0.081   3.588   0.676 -0.1808  0.3753 -0.8301
 5696TIP3    H117094   0.067   3.552   0.588  0.2339  1.1220 -1.2186
 5696TIP3    H217095   0.176   3.584   0.689 -0.1129  1.3836 -0.9279
 5697TIP3   OH217096   2.642   5.044   1.428  0.7381 -0.4219 -0.2625
 5697TIP3    H117097   2.599   5.087   1.354 -1.6217 -1.1296  0.5795
 5697TIP3    H217098   2.727   5.017   1.395  0.3113  0.5220 -2.2750
 5698TIP3   OH217099   2.586   1.304   4.201 -0.1409  0.0526 -0.0096
 5698TIP3    H117100   2.573   1.240   4.130  0.5487 -1.1661  0.9367
 5698TIP3    H217101   2.667   1.349   4.178 -0.2506  0.1012 -0.3136
 5699TIP3   OH217102   4.887   2.569   1.978  0.0859 -0.2577  0.6882
 5699TIP3    H117103   4.817   2.526   1.929 -1.8744  2.1637  1.1815
 5699TIP3    H217104   4.914   2.642   1.922  2.6008 -1.3407  0.3351
 5700TIP3   OH217105   5.888   3.197   0.989  0.3259  0.1844  0.1135
 5700TIP3    H117106   5.937   3.227   1.065 -0.7269 -0.3538  1.0442
 5700TIP3    H217107   5.953   3.152   0.934  0.7254 -1.4595  1.8128
 5701TIP3   OH217108   1.951   4.383   4.212  0.0862 -0.7873  0.3062
 5701TIP3    H117109   1.931   4.440   4.287  0.9779 -0.3105  0.1873
 5701TIP3    H217110   1.935   4.437   4.135  0.2812 -0.9197  0.1720
 5702TIP3   OH217111   5.059   1.841   1.610 -0.1004  0.2553  0.6003
 5702TIP3    H117112   5.078   1.806   1.523 -1.0055 -1.6883  1.1161
 5702TIP3    H217113   5.144   1.868   1.644  0.5503 -0.6664 -0.2090
 5703TIP3   OH217114   0.277   5.983   0.363 -0.3034 -0.2007 -0.0181
 5703TIP3    H117115   0.250   5.896   0.333 -0.6064  0.0722 -0.5576
 5703TIP3    H217116   0.196   6.023   0.396 -0.4908  0.4406 -1.1945
 5704TIP3   OH217117   1.790   0.403   0.299  0.0089  0.0244 -0.4935
 5704TIP3    H117118   1.694   0.401   0.309 -0.0967 -0.2808 -1.4085
 5704TIP3    H217119   1.805   0.365   0.212  1.1127 -2.0783  0.5357
 5705TIP3   OH217120   5.501   4.898   4.537  0.4761 -0.2148  0.0823
 5705TIP3    H117121   5.587   4.892   4.493  1.0791  0.0050  1.2003
 5705TIP3    H217122   5.496   4.818   4.588  0.7080  0.4787  1.2216
 5706TIP3   OH217123   3.607   3.849   0.229 -0.0489 -0.3700 -0.6893
 5706TIP3    H117124   3.658   3.855   0.309  0.6914 -1.3405 -1.0726
 5706TIP3    H217125   3.666   3.808   0.165 -1.4081 -1.9338 -1.0188
 5707TIP3   OH217126   3.390   4.523   1.069 -0.3873  0.1046 -0.5420
 5707TIP3    H117127   3.394   4.578   0.991  2.5818  0.2353 -0.4394
 5707TIP3    H217128   3.430   4.440   1.041 -1.5952 -0.7675  0.2200
 5708TIP3   OH217129   5.382   1.789   3.809  0.7185  0.2456  0.0521
 5708TIP3    H117130   5.382   1.867   3.864 -0.7950  0.6544 -0.4667
 5708TIP3    H217131   5.464   1.744   3.830  1.6860  2.0266  0.2804
 5709TIP3   OH217132   6.046   2.390   0.399  0.1489  0.2465  0.2696
 5709TIP3    H117133   6.119   2.332   0.421 -0.1302 -0.5213 -0.7628
 5709TIP3    H217134   6.087   2.463   0.352  0.1579 -0.8424 -1.5316
 5710TIP3   OH217135   3.375   1.313   0.123 -0.2416 -0.0341 -0.7014
 5710TIP3    H117136   3.310   1.309   0.052 -1.2608  1.4899  0.0860
 5710TIP3    H217137   3.329   1.276   0.199  0.1485  0.1886 -0.3591
 5711TIP3   OH217138   1.597   2.969   4.334 -0.4505 -0.0919 -0.2782
 5711TIP3    H117139   1.634   2.883   4.313  1.6902  1.3001 -2.9878
 5711TIP3    H217140   1.648   2.999   4.409 -1.0104 -1.0508  0.4975
 5712TIP3   OH217141   1.389   5.844   2.296 -0.2125  0.2912 -0.1259
 5712TIP3    H117142   1.318   5.871   2.354  0.1871  2.0043 -0.3943
 5712TIP3    H217143   1.441   5.783   2.349 -1.8693 -1.0522  0.0523
 5713TIP3   OH217144   3.716   5.558   4.883  0.3637  0.2805 -0.3302
 5713TIP3    H117145   3.759   5.480   4.847  1.2181  0.5790  0.0231
 5713TIP3    H217146   3.706   5.539   4.976  0.7087  0.6426 -0.2144
 5714TIP3   OH217147   3.890   3.941   4.209  0.2884 -0.3756 -0.1369
 5714TIP3    H117148   3.926   3.857   4.180  0.0889 -1.0899  1.5690
 5714TIP3    H217149   3.907   3.943   4.303  0.0278  1.3836 -0.0952
 5715TIP3   OH217150   0.908   3.833   5.114 -0.6463 -0.2487  0.1263
 5715TIP3    H117151   0.974   3.826   5.045 -1.0643  0.7170 -0.3907
 5715TIP3    H217152   0.832   3.870   5.071 -1.9903 -2.4659  0.4358
 5716TIP3   OH217153   4.070   4.592   3.182  0.0553 -0.1180  0.0183
 5716TIP3    H117154   4.074   4.661   3.115 -1.1113  0.2012  0.2546
 5716TIP3    H217155   4.050   4.512   3.133 -1.0082  0.1505 -0.0131
 5717TIP3   OH217156   4.296   4.046   2.764 -0.1816  0.6636  0.2709
 5717TIP3    H117157   4.245   4.125   2.746 -0.2469  0.5455 -0.0702
 5717TIP3    H217158   4.333   4.021   2.679 -1.5084 -0.6094  0.0248
 5718TIP3   OH217159   3.184   2.405   3.047 -0.1557 -0.0134 -0.4898
 5718TIP3    H117160   3.111   2.346   3.030  1.0267 -1.3164 -1.2222
 5718TIP3    H217161   3.202   2.394   3.140  0.9487 -1.9133 -0.8955
 5719TIP3   OH217162   0.907   0.598   0.915 -0.0564 -0.7406 -0.3987
 5719TIP3    H117163   0.842   0.665   0.937  0.1828 -0.3558 -0.8581
 5719TIP3    H217164   0.989   0.632   0.952  0.3355 -0.1279 -1.7691
 5720TIP3   OH217165   0.154   2.211   4.676 -0.1954 -0.0098 -0.3215
 5720TIP3    H117166   0.101   2.152   4.730  0.7958 -0.7102 -0.0971
 5720TIP3    H217167   0.154   2.171   4.589  2.2408 -1.5780  0.3048
 5721TIP3   OH217168   1.513   5.691   4.610 -0.0368 -0.1657 -0.3290
 5721TIP3    H117169   1.575   5.624   4.582 -0.3450 -0.0787 -1.2505
 5721TIP3    H217170   1.566   5.769   4.625 -0.0500  0.3069 -2.4599
 5722TIP3   OH217171   2.653   1.846   3.168 -0.0898  0.1284 -0.6074
 5722TIP3    H117172   2.728   1.877   3.119 -0.0032  0.9353  0.0252
 5722TIP3    H217173   2.580   1.899   3.137 -0.0258  0.6769  0.1570
 5723TIP3   OH217174   4.889   1.395   1.179 -0.4571 -0.4305  0.5341
 5723TIP3    H117175   4.810   1.428   1.222  0.4430 -0.9905  2.7568
 5723TIP3    H217176   4.903   1.454   1.106 -1.2815  1.5031  1.8678
 5724TIP3   OH217177   4.374   0.548   1.762 -0.6287 -0.3739 -0.4049
 5724TIP3    H117178   4.318   0.622   1.740  0.6921  0.2788 -1.7375
 5724TIP3    H217179   4.345   0.478   1.703 -1.0226 -0.5353 -0.0316
 5725TIP3   OH217180   1.834   4.663   2.521 -0.4364  0.1233  0.0638
 5725TIP3    H117181   1.739   4.651   2.520 -0.3209 -0.9101 -0.7610
 5725TIP3    H217182   1.864   4.605   2.591 -0.2649 -1.1283 -0.9995
 5726TIP3   OH217183   2.853   1.945   3.020  0.7058 -0.1749 -0.4326
 5726TIP3    H117184   2.930   1.923   3.072  1.8025 -0.1751 -2.0080
 5726TIP3    H217185   2.860   2.040   3.007  0.1968 -0.1049 -0.2209
 5727TIP3   OH217186   0.372   0.304   2.987  0.2117 -0.3904  0.3278
 5727TIP3    H117187   0.295   0.289   3.041  0.4076 -1.0226  0.4377
 5727TIP3    H217188   0.383   0.223   2.936  0.3238 -0.0002 -0.2885
 5728TIP3   OH217189   1.564   2.494   3.363 -0.3655 -0.4537 -0.3502
 5728TIP3    H117190   1.474   2.461   3.362 -0.2487 -0.7826 -0.4255
 5728TIP3    H217191   1.613   2.426   3.410 -0.3501  0.2421  0.6806
 5729TIP3   OH217192   0.625   1.279   1.158  1.0581 -0.2363  0.0316
 5729TIP3    H117193   0.538   1.306   1.187  1.2270 -0.0740  0.3930
 5729TIP3    H217194   0.685   1.314   1.224  1.3206 -1.1610  0.3055
 5730TIP3   OH217195   2.648   5.342   0.548 -0.6694 -0.4898  0.1458
 5730TIP3    H117196   2.658   5.355   0.642  1.5842  1.6185 -0.2823
 5730TIP3    H217197   2.596   5.417   0.519  0.0084 -0.2506 -0.4753
 5731TIP3   OH217198   2.945   1.768   3.733  0.5959 -0.1751  0.0952
 5731TIP3    H117199   2.955   1.779   3.827  0.1608  2.2373 -0.0596
 5731TIP3    H217200   3.027   1.730   3.704  1.2450  0.2534  1.3022
 5732TIP3   OH217201   4.171   2.568   3.360 -0.3713 -0.4647 -0.0272
 5732TIP3    H117202   4.152   2.578   3.267  0.1149  0.9073 -0.0039
 5732TIP3    H217203   4.204   2.479   3.369 -1.1608 -0.8704 -1.0319
 5733TIP3   OH217204   4.828   4.284   0.518 -0.4830  0.1917  0.6934
 5733TIP3    H117205   4.835   4.210   0.578 -1.1109 -0.2223  0.2703
 5733TIP3    H217206   4.838   4.245   0.431  0.2624  0.7624  0.5092
 5734TIP3   OH217207   4.820   0.749   2.391 -0.8478  0.0062  0.5366
 5734TIP3    H117208   4.845   0.731   2.482 -0.0327 -1.4982  0.0488
 5734TIP3    H217209   4.898   0.789   2.352 -1.1665  0.5668  0.4511
 5735TIP3   OH217210   3.773   0.925   3.411 -0.2031 -0.3228  0.8701
 5735TIP3    H117211   3.728   0.844   3.387  1.9527 -1.3105 -0.0768
 5735TIP3    H217212   3.865   0.900   3.418  0.5092  2.0303  0.6805
 5736TIP3   OH217213   2.845   2.029   3.689 -0.5962 -0.2494 -0.1774
 5736TIP3    H117214   2.874   1.942   3.716  0.2390  0.1397  0.2092
 5736TIP3    H217215   2.799   2.064   3.765  0.2999  0.1927  0.1696
 5737TIP3   OH217216   1.189   0.331   1.435  0.0118  0.3605 -0.4584
 5737TIP3    H117217   1.273   0.315   1.392 -0.8683  0.5371 -2.3148
 5737TIP3    H217218   1.169   0.422   1.415 -1.1549 -0.0038 -1.0290
 5738TIP3   OH217219   2.027   1.488   2.618  0.8310 -0.1491 -0.1319
 5738TIP3    H117220   1.936   1.478   2.588  0.6846  1.7009 -0.4179
 5738TIP3    H217221   2.060   1.398   2.622 -1.7429 -1.1457  2.4292
 5739TIP3   OH217222   6.038   4.768   1.355  0.4590  0.0676 -0.1066
 5739TIP3    H117223   6.122   4.745   1.314  0.0566  0.0909 -0.9804
 5739TIP3    H217224   5.987   4.806   1.283  0.8299  3.1152  1.0698
 5740TIP3   OH217225   3.544   3.223   5.133 -0.4470  0.5608 -0.0236
 5740TIP3    H117226   3.467   3.247   5.185 -0.6653  0.5164 -0.3262
 5740TIP3    H217227   3.559   3.131   5.155 -2.7770 -0.6604 -2.7537
 5741TIP3   OH217228   3.434   5.366   4.298  0.1629 -0.5557 -0.2587
 5741TIP3    H117229   3.466   5.414   4.223  0.7440  0.2975  0.5173
 5741TIP3    H217230   3.408   5.433   4.361  1.2576 -1.2293  0.9626
 5742TIP3   OH217231   2.631   4.713   3.515  0.1077 -0.1949 -0.4049
 5742TIP3    H117232   2.613   4.654   3.589  1.6323 -0.2546 -0.0459
 5742TIP3    H217233   2.684   4.660   3.456  0.7340  0.5414 -0.5061
 5743TIP3   OH217234   1.456   4.046   0.189  0.2144 -0.6063 -0.1262
 5743TIP3    H117235   1.492   3.958   0.185 -0.2324 -0.9295  2.1240
 5743TIP3    H217236   1.527   4.100   0.223 -0.6201 -0.8479  2.1786
 5744TIP3   OH217237   3.167   3.749   0.065  0.3824  0.3346  0.4051
 5744TIP3    H117238   3.244   3.747   0.123  0.2109 -1.4133  0.6321
 5744TIP3    H217239   3.116   3.672   0.092 -1.8988  1.9183  0.8354
 5745TIP3   OH217240   4.531   5.941   4.087 -0.2376  0.0188 -0.8135
 5745TIP3    H117241   4.606   5.946   4.028  0.7528 -0.7662  0.3079
 5745TIP3    H217242   4.493   5.855   4.069 -0.6704  0.2763 -1.1417
 5746TIP3   OH217243   4.320   1.780   3.451  0.4051  0.1735 -0.3970
 5746TIP3    H117244   4.296   1.807   3.540 -0.7234  2.4654 -1.3157
 5746TIP3    H217245   4.404   1.734   3.462 -0.3854 -0.8508  1.9779
 5747TIP3   OH217246   3.832   5.229   4.073  0.1453 -0.0127  0.4850
 5747TIP3    H117247   3.887   5.232   4.152  0.4977  0.8121  0.2253
 5747TIP3    H217248   3.842   5.316   4.034 -1.5131  0.2348  0.5345
 5748TIP3   OH217249   4.302   5.032   0.301 -0.1312  0.4624 -0.4747
 5748TIP3    H117250   4.327   5.010   0.391 -0.1806 -0.9172 -0.7744
 5748TIP3    H217251   4.315   5.127   0.295  2.6704  0.2304  0.1569
 5749TIP3   OH217252   5.859   0.708   3.955 -0.1989  0.6293 -0.2565
 5749TIP3    H117253   5.875   0.738   4.044  2.3002  0.9123 -0.7183
 5749TIP3    H217254   5.835   0.616   3.965 -0.6865  0.8475  0.7259
 5750TIP3   OH217255   6.034   0.531   4.218  0.0892 -0.3689 -0.2056
 5750TIP3    H117256   5.947   0.493   4.231  0.4592 -1.6312 -1.1580
 5750TIP3    H217257   6.060   0.562   4.304 -0.9829 -0.6985  0.2534
 5751TIP3   OH217258   5.334   0.464   4.097  0.3655  0.1555 -0.0875
 5751TIP3    H117259   5.344   0.369   4.093 -0.7098  0.0652 -1.1505
 5751TIP3    H217260   5.307   0.482   4.187 -0.0680 -0.6187 -0.0596
 5752TIP3   OH217261   3.076   4.741   0.057  0.2673  0.4441  0.0027
 5752TIP3    H117262   3.100   4.793  -0.020 -1.2341  0.5329 -0.4453
 5752TIP3    H217263   2.999   4.691   0.029  0.3814 -0.3810  1.1077
 5753TIP3   OH217264   2.521   2.543   1.223 -0.3255  0.4877  0.5211
 5753TIP3    H117265   2.548   2.458   1.187  0.2171  1.1814 -0.8001
 5753TIP3    H217266   2.531   2.534   1.317  0.9698 -0.5041  0.3172
 5754TIP3   OH217267   1.545   2.886   1.265 -0.2878  0.5001 -0.1492
 5754TIP3    H117268   1.576   2.796   1.277 -0.9623  0.3066  0.2280
 5754TIP3    H217269   1.527   2.917   1.354 -1.1444  0.6025 -0.3457
 5755TIP3   OH217270   2.502   3.139   3.592  0.3585  0.0552 -0.5225
 5755TIP3    H117271   2.489   3.226   3.630 -0.9946 -0.7801  1.1134
 5755TIP3    H217272   2.559   3.095   3.655  0.8789 -0.2984 -1.2409
 5756TIP3   OH217273   2.973   2.713   1.767 -0.2315  0.5374  0.0456
 5756TIP3    H117274   3.038   2.727   1.698 -0.2236 -1.0609 -0.2996
 5756TIP3    H217275   3.002   2.633   1.812 -1.1347  0.6453  0.8602
 5757TIP3   OH217276   5.356   1.330   0.692  0.0924  0.4735  0.2195
 5757TIP3    H117277   5.287   1.320   0.626  0.1970 -0.2495  0.2088
 5757TIP3    H217278   5.342   1.257   0.752 -0.8144  1.8749  1.7606
 5758TIP3   OH217279   0.992   4.411   0.023  0.3036 -0.0560  0.7546
 5758TIP3    H117280   1.076   4.378   0.055  0.7263  0.8378  0.5714
 5758TIP3    H217281   1.014   4.485  -0.033 -0.5485 -0.4266 -0.1084
 5759TIP3   OH217282   1.894   4.515   0.620  0.2221  0.5003  0.1666
 5759TIP3    H117283   1.987   4.495   0.612 -0.3165 -1.7646 -1.5455
 5759TIP3    H217284   1.866   4.534   0.531 -0.7547  2.3998  0.8298
 5760TIP3   OH217285   1.186   3.220   1.699  0.2773  0.0819  0.2172
 5760TIP3    H117286   1.123   3.199   1.768 -0.1911  1.8959  0.4085
 5760TIP3    H217287   1.272   3.213   1.741  0.1680 -1.3619  0.2446
 5761TIP3   OH217288   4.884   4.529   5.009  0.1634 -0.1678 -1.2294
 5761TIP3    H117289   4.936   4.454   4.980 -0.3960 -0.1889 -2.2516
 5761TIP3    H217290   4.793   4.502   4.995 -0.0567  0.5347 -1.2100
 5762TIP3   OH217291   3.378   5.413   4.967  0.4519  0.4487  0.2274
 5762TIP3    H117292   3.350   5.382   4.881  0.3856 -2.2149  1.0903
 5762TIP3    H217293   3.307   5.468   4.998  0.8035  2.0571 -1.6672
 5763TIP3   OH217294   1.449   5.863   0.626  0.4522  0.4321  0.0175
 5763TIP3    H117295   1.489   5.893   0.708  1.2697  0.4156 -0.3621
 5763TIP3    H217296   1.506   5.899   0.557  0.2271 -0.2156 -0.5184
 5764TIP3   OH217297   0.219   0.802   1.420  0.0154  0.1426  0.5212
 5764TIP3    H117298   0.270   0.743   1.364  0.9886  1.2793  0.1606
 5764TIP3    H217299   0.135   0.757   1.433 -1.3678  0.9316 -4.0446
 5765TIP3   OH217300   3.280   1.493   1.442 -0.2275 -0.2235  0.2177
 5765TIP3    H117301   3.286   1.404   1.408 -1.6047 -0.7016  1.1410
 5765TIP3    H217302   3.260   1.482   1.535 -2.0368  1.0173  0.0305
 5766TIP3   OH217303   4.018   0.506   4.630 -0.1019  0.1788  0.0508
 5766TIP3    H117304   3.923   0.513   4.626 -0.1734 -0.2493  0.8753
 5766TIP3    H217305   4.035   0.444   4.701  0.8853  2.6335  2.0939
 5767TIP3   OH217306   4.508   4.440   2.503 -0.0163 -0.0204  0.3069
 5767TIP3    H117307   4.430   4.396   2.537 -0.5322  0.2185 -0.5350
 5767TIP3    H217308   4.474   4.521   2.465  0.3660 -0.8069 -1.7998
 5768TIP3   OH217309   1.208   0.249   4.329 -0.2180  0.2317  0.2784
 5768TIP3    H117310   1.286   0.295   4.299  0.5064  0.4265  2.2668
 5768TIP3    H217311   1.135   0.295   4.287  0.6808  0.7063 -0.8029
 5769TIP3   OH217312   5.434   1.105   2.140 -0.1130 -0.1184 -0.1987
 5769TIP3    H117313   5.368   1.168   2.109  0.3169  0.3048 -0.2658
 5769TIP3    H217314   5.383   1.029   2.168 -0.5249 -0.5394 -1.9751
 5770TIP3   OH217315   2.049   1.810   3.173 -0.4664  0.4217 -0.2100
 5770TIP3    H117316   1.957   1.835   3.162 -0.5439  0.0480 -0.4311
 5770TIP3    H217317   2.063   1.809   3.268 -0.7418  0.3105 -0.1698
 5771TIP3   OH217318   0.329   5.451   5.194 -0.3138  0.8341 -0.4744
 5771TIP3    H117319   0.282   5.435   5.112  0.0374 -1.1466 -0.3398
 5771TIP3    H217320   0.404   5.392   5.191  1.5518  3.0597 -0.1372
 5772TIP3   OH217321   3.348   1.405   3.023  0.4830 -0.0087 -0.3737
 5772TIP3    H117322   3.275   1.364   2.976 -0.7936  0.6557  0.9420
 5772TIP3    H217323   3.369   1.343   3.093  0.3422  0.3680  0.0035
 5773TIP3   OH217324   1.491   5.310   5.093  0.0976  0.0773  0.2010
 5773TIP3    H117325   1.404   5.274   5.076 -0.9117  1.3009  2.4139
 5773TIP3    H217326   1.500   5.382   5.031  0.2690 -1.0439 -1.1426
 5774TIP3   OH217327   6.019   3.885   0.084 -0.3094  0.5522 -0.2818
 5774TIP3    H117328   5.948   3.850   0.029 -0.5427  1.7512 -0.7681
 5774TIP3    H217329   5.978   3.901   0.168  0.0017 -1.1046  0.2273
 5775TIP3   OH217330   3.302   4.001   0.763  0.1857 -0.2556 -0.2041
 5775TIP3    H117331   3.310   3.990   0.668  1.0928  0.1468 -0.1786
 5775TIP3    H217332   3.362   3.936   0.800  0.1994 -0.0767  0.0869
 5776TIP3   OH217333   1.312   3.316   1.233 -0.2250 -0.1438 -0.5760
 5776TIP3    H117334   1.367   3.239   1.219 -0.0599 -0.6228  2.1367
 5776TIP3    H217335   1.222   3.284   1.220 -0.0660 -0.1985 -1.6480
 5777TIP3   OH217336   0.171   2.503   4.686  0.1691 -0.0966 -0.1522
 5777TIP3    H117337   0.198   2.411   4.685  0.8464  0.0977 -1.1909
 5777TIP3    H217338   0.109   2.509   4.758 -0.0338 -1.4205 -0.1945
 5778TIP3   OH217339   3.744  -0.003   0.008  0.2264  0.2505 -0.6004
 5778TIP3    H117340   3.736   0.088   0.037  1.5652  0.4289 -0.7259
 5778TIP3    H217341   3.770  -0.051   0.087  1.1497  0.2737 -0.8746
 5779TIP3   OH217342   5.750   5.799   2.854 -0.1592 -0.0107  0.4541
 5779TIP3    H117343   5.798   5.816   2.935  4.5482 -1.2462 -1.7098
 5779TIP3    H217344   5.705   5.881   2.835  0.4292  1.0395  3.1419
 5780TIP3   OH217345   3.323   5.277   0.178 -0.0525 -0.8546 -0.0073
 5780TIP3    H117346   3.323   5.332   0.100 -1.0620  0.0164  0.5808
 5780TIP3    H217347   3.416   5.265   0.199  0.2034 -0.2788 -0.7631
 5781TIP3   OH217348   2.311   4.894   3.241  0.0162  0.0099  0.0628
 5781TIP3    H117349   2.342   4.916   3.153 -0.9514 -3.0158 -1.1682
 5781TIP3    H217350   2.390   4.872   3.289  0.4226 -0.0674 -0.6226
 5782TIP3   OH217351   5.310   1.049   4.478 -0.5360  0.2083  0.8930
 5782TIP3    H117352   5.306   1.049   4.574 -0.0402  0.2905  0.9153
 5782TIP3    H217353   5.268   1.131   4.453  0.9437  1.0673  1.1230
 5783TIP3   OH217354   0.335   5.389   2.861 -0.3251 -1.0039  0.7444
 5783TIP3    H117355   0.245   5.370   2.835 -0.3243 -0.0213 -0.0116
 5783TIP3    H217356   0.326   5.455   2.930 -0.1731 -0.5641  0.3480
 5784TIP3   OH217357   3.520   5.270   1.627  0.2241 -0.4380  0.1907
 5784TIP3    H117358   3.541   5.363   1.624  1.2972 -0.6937 -1.2168
 5784TIP3    H217359   3.554   5.241   1.712  0.4990  0.3014  0.3467
 5785TIP3   OH217360   0.489   4.060   1.445  0.3622  0.1716  0.0874
 5785TIP3    H117361   0.446   4.055   1.360 -0.6347 -0.1675  0.6031
 5785TIP3    H217362   0.450   3.990   1.496 -0.3687  1.4868  1.4129
 5786TIP3   OH217363   3.264   4.784   2.823  0.1949  0.4219  0.6015
 5786TIP3    H117364   3.239   4.718   2.759  1.6186  1.7335 -1.4367
 5786TIP3    H217365   3.186   4.839   2.831 -0.0098  0.2388 -0.0246
 5787TIP3   OH217366   1.873   5.102   4.772 -0.1279 -0.2311  0.2315
 5787TIP3    H117367   1.966   5.101   4.795 -0.3455  2.0275  1.5267
 5787TIP3    H217368   1.848   5.010   4.766  1.8876 -0.8817  1.1319
 5788TIP3   OH217369   0.077   2.398   4.206  0.0350 -0.2044  0.3798
 5788TIP3    H117370   0.060   2.477   4.154 -0.8237 -0.5329  0.1468
 5788TIP3    H217371   0.039   2.327   4.154 -0.0931 -0.6437  1.0717
 5789TIP3   OH217372   1.229   4.098   3.222 -0.2731 -0.1178  0.0954
 5789TIP3    H117373   1.197   4.161   3.288  1.7572 -0.8717  1.9322
 5789TIP3    H217374   1.303   4.143   3.181 -0.3249 -0.3872 -0.2903
 5790TIP3   OH217375   2.629   0.518   3.111 -0.1538 -0.2448  0.7671
 5790TIP3    H117376   2.647   0.425   3.123 -0.5073 -0.4885 -0.4740
 5790TIP3    H217377   2.543   0.520   3.069 -0.6541  0.6934  1.7707
 5791TIP3   OH217378   5.491   2.677   1.316 -1.2306 -0.1034 -0.3681
 5791TIP3    H117379   5.527   2.734   1.383 -0.9206 -0.5282 -0.1676
 5791TIP3    H217380   5.416   2.635   1.358  0.0426 -1.7728  0.3666
 5792TIP3   OH217381   1.692   5.228   1.702  0.2907 -0.2101 -0.3043
 5792TIP3    H117382   1.675   5.153   1.645  2.2585 -1.2958  0.4440
 5792TIP3    H217383   1.770   5.269   1.665 -0.0374  0.7464  0.0236
 5793TIP3   OH217384   4.108   2.997   2.847 -0.1148 -0.3121 -0.1633
 5793TIP3    H117385   4.129   2.974   2.937  0.7621  0.2765 -0.2034
 5793TIP3    H217386   4.191   3.024   2.809 -0.5511 -0.1372 -1.0263
 5794TIP3   OH217387   1.362   0.902   1.763 -0.7752  0.6242  0.3758
 5794TIP3    H117388   1.455   0.897   1.739 -1.3052  0.3238 -1.9395
 5794TIP3    H217389   1.328   0.974   1.710 -2.2491 -0.5986 -0.4349
 5795TIP3   OH217390   0.917   4.275   4.388 -0.2892  0.1946 -0.3083
 5795TIP3    H117391   0.894   4.186   4.360 -2.0421  1.1121 -2.0855
 5795TIP3    H217392   0.853   4.296   4.456 -0.2578  0.2891 -0.3080
 5796TIP3   OH217393   1.640   3.402   3.175  0.1003 -0.4058 -0.2868
 5796TIP3    H117394   1.715   3.372   3.124  0.3082  0.8695 -0.7790
 5796TIP3    H217395   1.678   3.430   3.258  0.1020 -0.2282 -0.3473
 5797TIP3   OH217396   0.460   4.324   1.166  0.3984 -0.1471 -0.1620
 5797TIP3    H117397   0.554   4.321   1.151  0.9371  1.6397  2.1815
 5797TIP3    H217398   0.435   4.233   1.182  1.8586 -0.5616 -0.1254
 5798TIP3   OH217399   2.477   3.473   1.883  0.3785 -0.2728  0.7856
 5798TIP3    H117400   2.427   3.551   1.858  0.5886 -0.2877  0.3144
 5798TIP3    H217401   2.536   3.504   1.951  0.9764  0.1566  0.0907
 5799TIP3   OH217402   0.755   2.663   1.729  0.1988 -0.2454  0.5112
 5799TIP3    H117403   0.782   2.651   1.820  1.0214  2.0526  0.6505
 5799TIP3    H217404   0.818   2.726   1.693 -0.7544 -0.2576 -1.3273
 5800TIP3   OH217405   6.232   0.255   3.169  0.3597  0.5586 -0.2761
 5800TIP3    H117406   6.248   0.311   3.245  0.4754  0.5148 -0.2671
 5800TIP3    H217407   6.170   0.305   3.115  0.7528  0.8645 -0.4526
 5801TIP3   OH217408   1.171   5.706   4.236  0.1635  0.1879 -0.8387
 5801TIP3    H117409   1.177   5.623   4.189 -0.7303  0.6907 -1.9129
 5801TIP3    H217410   1.140   5.768   4.169 -1.7953  0.8138  0.5467
 5802TIP3   OH217411   2.317   4.652   3.080  0.3881 -0.1965 -0.0058
 5802TIP3    H117412   2.403   4.685   3.105  0.7286  0.3631 -1.8018
 5802TIP3    H217413   2.255   4.702   3.134  1.0466  1.3427 -0.6402
 5803TIP3   OH217414   1.911   0.816   4.331  0.0448  0.0958 -0.4781
 5803TIP3    H117415   1.915   0.910   4.351  0.5039 -0.3971  2.1153
 5803TIP3    H217416   1.818   0.795   4.336 -0.1064  0.4742 -1.5028
 5804TIP3   OH217417   3.469   1.624   2.949 -0.2133 -0.1185  0.0711
 5804TIP3    H117418   3.429   1.544   2.984 -1.9350 -0.2310 -1.9772
 5804TIP3    H217419   3.515   1.596   2.870  0.3630  0.7049  0.0962
 5805TIP3   OH217420   4.268   0.487   1.360  0.0787  0.8326 -0.0040
 5805TIP3    H117421   4.231   0.465   1.275  0.2832  0.0181  0.1092
 5805TIP3    H217422   4.192   0.500   1.416 -0.0718  2.1825 -0.4945
 5806TIP3   OH217423   1.132   0.778   0.974 -0.1603  0.3155  0.1173
 5806TIP3    H117424   1.095   0.867   0.973 -0.4940  0.2021 -1.9433
 5806TIP3    H217425   1.227   0.792   0.968 -0.1804  0.5421  0.3083
 5807TIP3   OH217426   4.524   4.943   3.939 -0.0890 -0.1726 -0.2936
 5807TIP3    H117427   4.587   4.933   3.867 -1.1407 -0.5581 -1.1775
 5807TIP3    H217428   4.534   4.864   3.991  0.2983 -0.1333 -0.2993
 5808TIP3   OH217429   1.740   1.224  -0.011 -0.1667  0.2191  0.1727
 5808TIP3    H117430   1.659   1.177   0.008 -0.3947  1.1018  1.5619
 5808TIP3    H217431   1.789   1.220   0.071  0.6253  0.8128 -0.2599
 5809TIP3   OH217432   6.219   4.048   0.519  0.3812  0.0513 -0.3086
 5809TIP3    H117433   6.217   3.958   0.553  1.0059 -0.3493 -1.3076
 5809TIP3    H217434   6.294   4.088   0.563 -0.4549  0.4033  0.8620
 5810TIP3   OH217435   2.411   1.037   4.804  0.1911  0.1613  1.0594
 5810TIP3    H117436   2.351   0.967   4.828 -0.5925  0.3805 -0.1808
 5810TIP3    H217437   2.465   1.001   4.734 -0.9011  1.0745 -0.3084
 5811TIP3   OH217438   0.922   5.579   0.519 -0.4327  0.3030  0.1282
 5811TIP3    H117439   0.837   5.545   0.491 -0.3375 -1.6214  1.9460
 5811TIP3    H217440   0.978   5.567   0.442 -1.2168 -0.7633 -0.3100
 5812TIP3   OH217441   4.832   5.773   2.129  0.3562 -0.2367 -0.1954
 5812TIP3    H117442   4.771   5.699   2.130  0.3477 -0.3058 -1.9838
 5812TIP3    H217443   4.890   5.758   2.204 -0.2377 -1.5484  0.0270
 5813TIP3   OH217444   2.195   5.412   3.688 -0.3660 -0.3608 -0.7386
 5813TIP3    H117445   2.159   5.424   3.776 -1.0814 -1.7206 -0.8193
 5813TIP3    H217446   2.127   5.448   3.630 -0.3724 -0.4315 -0.7749
 5814TIP3   OH217447   1.576   1.903   0.776  0.2878  0.3326 -0.6200
 5814TIP3    H117448   1.486   1.933   0.788  0.3537 -0.0584  1.0937
 5814TIP3    H217449   1.568   1.821   0.728 -0.3118  0.1227 -0.1794
 5815TIP3   OH217450   0.151   0.274   2.705 -0.1059 -0.2700  0.4273
 5815TIP3    H117451   0.085   0.293   2.772 -1.4657 -1.5747 -0.4862
 5815TIP3    H217452   0.108   0.293   2.622  1.9716  2.5704 -0.1585
 5816TIP3   OH217453   2.185   1.119   4.090 -0.0921  0.5107  0.3249
 5816TIP3    H117454   2.222   1.032   4.078 -0.9560  0.4614 -2.8384
 5816TIP3    H217455   2.142   1.139   4.007 -0.4686  3.7070  1.1374
 5817TIP3   OH217456   0.103   2.686   1.522 -0.6948  0.0775 -0.2339
 5817TIP3    H117457   0.164   2.666   1.451  1.7627  0.2728  1.7237
 5817TIP3    H217458   0.085   2.601   1.563 -2.4420 -0.0985 -1.2356
 5818TIP3   OH217459   1.025   3.532   4.791  0.1992  0.3437 -0.5199
 5818TIP3    H117460   0.959   3.478   4.835  0.1724 -0.4415 -1.4981
 5818TIP3    H217461   1.103   3.476   4.787  0.2428  0.4519 -1.3330
 5819TIP3   OH217462   5.660   0.789   4.508 -0.0550 -0.5168  0.0416
 5819TIP3    H117463   5.615   0.737   4.441 -2.0915  1.1771 -0.0082
 5819TIP3    H217464   5.708   0.856   4.459 -0.9591  0.2763  0.2069
 5820TIP3   OH217465   2.773   5.009   3.126  0.1026 -0.2386 -0.3955
 5820TIP3    H117466   2.840   5.037   3.188  0.9458 -0.7373 -1.0543
 5820TIP3    H217467   2.716   5.085   3.116  0.3476  0.0668  0.4665
 5821TIP3   OH217468   0.986   0.189   0.103 -0.1261  0.2099  0.2120
 5821TIP3    H117469   0.967   0.262   0.044 -1.6616  0.3247  0.8303
 5821TIP3    H217470   0.937   0.208   0.183  2.3795  0.3684  1.8275
 5822TIP3   OH217471   2.924   5.847   3.495 -0.4431 -0.2300 -0.0458
 5822TIP3    H117472   2.948   5.762   3.457 -1.0431 -1.2094  1.6728
 5822TIP3    H217473   2.831   5.839   3.515 -0.5688  0.9380 -0.0938
 5823TIP3   OH217474   5.807   3.595   2.220 -0.5413 -0.0088 -0.0960
 5823TIP3    H117475   5.898   3.611   2.194 -0.6807 -0.5802 -0.9691
 5823TIP3    H217476   5.777   3.679   2.254  0.0122  0.4603 -0.7303
 5824TIP3   OH217477   3.767   5.853   3.610  0.1065  0.0678 -0.2471
 5824TIP3    H117478   3.829   5.784   3.588  1.7616  1.7432 -1.1106
 5824TIP3    H217479   3.690   5.807   3.643  0.9850 -2.1808 -1.1729
 5825TIP3   OH217480   5.928   0.437   1.651 -0.1361 -0.3507 -0.0249
 5825TIP3    H117481   5.946   0.358   1.702 -1.4614 -0.5069  0.2286
 5825TIP3    H217482   5.857   0.412   1.592 -0.8220  0.7408  0.3106
 5826TIP3   OH217483   1.196   5.592   4.581  0.3485  1.0346 -0.0872
 5826TIP3    H117484   1.171   5.501   4.567 -0.7437  1.2843  0.1732
 5826TIP3    H217485   1.291   5.589   4.589  0.3318 -0.0772 -0.0884
 5827TIP3   OH217486   4.591   3.516   2.597 -0.3431 -0.4565  0.8624
 5827TIP3    H117487   4.639   3.438   2.570 -0.8506 -0.9685  1.4049
 5827TIP3    H217488   4.533   3.486   2.667 -1.7360  0.0494 -0.0332
 5828TIP3   OH217489   3.023   1.281   4.017  0.4272  0.5472 -0.3369
 5828TIP3    H117490   3.101   1.263   4.070 -0.7538 -1.1451  0.9252
 5828TIP3    H217491   3.047   1.249   3.929  0.9685 -0.5075  0.1772
 5829TIP3   OH217492   2.836   1.470   3.428 -0.2043  0.0665 -0.1900
 5829TIP3    H117493   2.781   1.545   3.406  0.2822  0.7763  0.9731
 5829TIP3    H217494   2.829   1.461   3.523  0.5581 -0.7217 -0.1915
 5830TIP3   OH217495   6.041   2.545   5.182  0.1516 -0.8417 -0.2049
 5830TIP3    H117496   6.064   2.475   5.121 -1.3917 -0.2706 -1.4960
 5830TIP3    H217497   6.091   2.621   5.151 -1.2573 -0.3333 -1.3102
 5831TIP3   OH217498   2.845   1.172   2.848 -0.2833 -0.7775 -0.4238
 5831TIP3    H117499   2.752   1.158   2.865 -0.7823 -0.2457 -2.4510
 5831TIP3    H217500   2.862   1.262   2.878 -0.1761 -1.1507  0.7144
 5832TIP3   OH217501   1.269   3.797   0.783 -0.2329 -0.3586 -0.1424
 5832TIP3    H117502   1.257   3.834   0.695  1.2928 -0.3394 -0.3647
 5832TIP3    H217503   1.327   3.722   0.770  0.0286 -0.3410  0.8482
 5833TIP3   OH217504   5.116   2.818   1.207  0.5844  0.1751 -0.1951
 5833TIP3    H117505   5.108   2.722   1.213  1.5276  0.0358 -0.9217
 5833TIP3    H217506   5.206   2.832   1.176  0.2977  1.2803 -0.5435
 5834TIP3   OH217507   2.897   3.989   3.276  0.1589 -0.1269  0.3422
 5834TIP3    H117508   2.883   3.948   3.361  0.3286  0.8810  0.8774
 5834TIP3    H217509   2.839   4.066   3.277  0.7114  0.3060 -0.1528
 5835TIP3   OH217510   0.649   4.227   3.824 -0.1431  0.3926 -0.1739
 5835TIP3    H117511   0.567   4.268   3.850 -0.4879 -0.6183  0.4099
 5835TIP3    H217512   0.645   4.222   3.729 -0.6941  0.4778 -0.1558
 5836TIP3   OH217513   2.000   4.220   3.676 -0.4078  0.2175 -0.6384
 5836TIP3    H117514   1.928   4.192   3.618  0.3317 -0.2923 -1.3344
 5836TIP3    H217515   2.019   4.310   3.648  0.9357 -0.5161 -2.2565
 5837TIP3   OH217516   0.816   2.618   3.237 -0.4139 -0.3726  0.0325
 5837TIP3    H117517   0.783   2.651   3.154 -0.9842 -0.3987  0.2430
 5837TIP3    H217518   0.865   2.539   3.213 -0.9563 -0.6360 -0.2407
 5838TIP3   OH217519   3.534   1.971   0.806 -0.6721 -0.2738  0.1003
 5838TIP3    H117520   3.499   1.899   0.858  0.7328 -0.3665  0.9675
 5838TIP3    H217521   3.629   1.959   0.809 -0.4333  1.3240 -0.1675
 5839TIP3   OH217522   0.688   0.449   2.488  0.8249  0.1060  0.2810
 5839TIP3    H117523   0.778   0.445   2.520  1.2179  1.0143 -0.6708
 5839TIP3    H217524   0.696   0.467   2.395 -0.3249 -1.5148 -0.1591
 5840TIP3   OH217525   6.307   1.383   0.864  0.4089 -0.2813  0.2200
 5840TIP3    H117526   6.347   1.454   0.915 -0.6600  0.8856 -0.5181
 5840TIP3    H217527   6.213   1.392   0.880  0.3207 -2.3815  1.1581
 5841TIP3   OH217528   1.241   3.742   2.367  0.1499 -0.3330 -0.4388
 5841TIP3    H117529   1.166   3.684   2.362 -1.1534  1.1382  0.8598
 5841TIP3    H217530   1.230   3.788   2.451  2.1903  0.3513 -0.4789
 5842TIP3   OH217531   3.024   3.576   0.741  0.1160 -0.0151 -0.1211
 5842TIP3    H117532   3.111   3.598   0.706 -0.8453  0.5104 -2.3558
 5842TIP3    H217533   2.967   3.575   0.664 -1.7365 -1.0695  1.1963
 5843TIP3   OH217534   0.383   5.374   0.241 -0.3434  0.3249  0.3419
 5843TIP3    H117535   0.461   5.363   0.297  0.3201 -1.3710 -0.8216
 5843TIP3    H217536   0.310   5.373   0.302  0.4977  1.3648  1.4219
 5844TIP3   OH217537   4.456   5.563   0.139 -0.8526 -0.2600 -0.0300
 5844TIP3    H117538   4.403   5.484   0.148  1.0693 -1.4158  2.2002
 5844TIP3    H217539   4.525   5.538   0.078  0.2152 -0.6481  1.2828
 5845TIP3   OH217540   3.650   2.323   4.857 -0.8693 -0.1166  0.5403
 5845TIP3    H117541   3.697   2.400   4.889  1.9383 -1.2721 -0.5177
 5845TIP3    H217542   3.602   2.354   4.780  0.7054  0.5123 -0.2290
 5846TIP3   OH217543   1.427   0.406   4.243  0.0738 -0.1874 -0.3045
 5846TIP3    H117544   1.488   0.342   4.206  0.5874  0.9847 -1.5535
 5846TIP3    H217545   1.480   0.455   4.306  0.2461  0.3462 -0.8540
 5847TIP3   OH217546   1.181   2.478   2.434 -0.2242 -0.0114  0.2802
 5847TIP3    H117547   1.088   2.476   2.457  0.0875 -2.7975  1.7731
 5847TIP3    H217548   1.187   2.431   2.352 -0.0415 -0.7390  0.7042
 5848TIP3   OH217549   0.500   3.420   3.425  0.6759  0.1692 -0.2487
 5848TIP3    H117550   0.447   3.452   3.498  1.0819  0.0253  0.1110
 5848TIP3    H217551   0.588   3.410   3.462  0.7812 -0.3413 -0.6326
 5849TIP3   OH217552   6.221   0.188   3.994 -0.0530 -0.2046  0.0871
 5849TIP3    H117553   6.252   0.141   4.071 -1.1847 -0.6755  0.2704
 5849TIP3    H217554   6.292   0.178   3.930  1.5968  1.5033  1.5293
 5850TIP3   OH217555   0.983   1.283   0.244 -0.2615  0.4153 -0.6680
 5850TIP3    H117556   0.994   1.363   0.193 -3.6014  1.2112 -0.3833
 5850TIP3    H217557   0.891   1.258   0.230 -0.2412 -1.4848  1.8783
 5851TIP3   OH217558   5.385   3.773   2.394  0.5293 -0.2214 -0.8071
 5851TIP3    H117559   5.334   3.839   2.441  2.2779  0.2046  0.6067
 5851TIP3    H217560   5.351   3.689   2.425  1.9096  0.0363  1.7168
 5852TIP3   OH217561   0.818   5.912   4.582 -0.3635  0.4864 -0.3220
 5852TIP3    H117562   0.886   5.866   4.533  0.8475  0.9310  0.8739
 5852TIP3    H217563   0.856   5.926   4.669 -1.8934  0.9846  0.3081
 5853TIP3   OH217564   3.201   3.991   4.972  0.1544  0.2509 -0.3505
 5853TIP3    H117565   3.169   3.938   4.898  1.2420 -0.2170 -0.5081
 5853TIP3    H217566   3.192   4.081   4.942 -1.4849  0.1638 -0.1800
 5854TIP3   OH217567   6.013   4.835   2.614 -0.4918  0.3755 -0.0773
 5854TIP3    H117568   5.965   4.761   2.651  0.3046 -0.6037 -0.9175
 5854TIP3    H217569   5.946   4.889   2.572 -0.8949 -1.0409 -1.3541
 5855TIP3   OH217570   1.779   3.956   1.408 -0.4082  0.3193  0.1287
 5855TIP3    H117571   1.836   3.942   1.483 -0.4642  0.6406  0.2309
 5855TIP3    H217572   1.834   3.936   1.332  0.4161  2.3648  0.1212
 5856TIP3   OH217573   5.908   5.517   3.605 -0.0594  0.1124 -0.7762
 5856TIP3    H117574   5.989   5.554   3.571 -0.2736  0.8462 -0.5119
 5856TIP3    H217575   5.858   5.593   3.635 -0.9217 -0.3079 -1.0999
 5857TIP3   OH217576   3.165   4.346   1.181  0.1430  0.2777 -0.4366
 5857TIP3    H117577   3.184   4.279   1.115  0.9830  0.4918 -0.4130
 5857TIP3    H217578   3.219   4.421   1.157  1.6437 -0.1561  1.3417
 5858TIP3   OH217579   5.501   0.399   0.737 -0.3555 -0.1884 -0.4998
 5858TIP3    H117580   5.551   0.332   0.785  1.8278  2.5080  1.2797
 5858TIP3    H217581   5.416   0.402   0.781  0.3088 -0.3153  0.8242
 5859TIP3   OH217582   0.846   5.583   2.559  0.0178  0.1000  0.0965
 5859TIP3    H117583   0.821   5.497   2.525 -2.5480  0.3563  1.0813
 5859TIP3    H217584   0.881   5.566   2.646 -0.5248  0.0240  0.3055
 5860TIP3   OH217585   0.236   4.646   0.500  0.2626  0.5448  0.6403
 5860TIP3    H117586   0.248   4.660   0.406 -0.6896 -1.0216  0.2419
 5860TIP3    H217587   0.323   4.622   0.532  0.8058  2.0753  0.3684
 5861TIP3   OH217588   5.290   0.518   0.019  0.4320 -0.4753  0.1062
 5861TIP3    H117589   5.292   0.608  -0.016 -0.7586 -0.5627 -0.2433
 5861TIP3    H217590   5.350   0.520   0.093 -0.4355  0.9259  0.8158
 5862TIP3   OH217591   1.389   0.780   0.310 -0.8823 -0.3639  0.0576
 5862TIP3    H117592   1.307   0.828   0.323 -0.8012 -0.0903 -0.4014
 5862TIP3    H217593   1.364   0.701   0.262 -0.9983 -0.7258  0.7023
 5863TIP3   OH217594   3.078   1.317   3.029  0.2491 -0.1169 -0.2074
 5863TIP3    H117595   3.080   1.279   2.941 -0.6203  1.1590 -0.8026
 5863TIP3    H217596   3.030   1.399   3.019 -0.1525 -0.0994  1.5223
 5864TIP3   OH217597   4.497   0.666   1.372  0.4161  0.1496 -0.0261
 5864TIP3    H117598   4.475   0.747   1.417  1.0705  1.3156 -1.7353
 5864TIP3    H217599   4.414   0.621   1.360 -0.1746  1.3264 -0.4624
 5865TIP3   OH217600   3.609   3.592   2.396 -0.0204 -0.0195  0.6579
 5865TIP3    H117601   3.566   3.669   2.433 -0.7468  0.2967 -0.7747
 5865TIP3    H217602   3.701   3.618   2.387 -0.4107  1.0110 -0.6006
 5866TIP3   OH217603   0.023   0.855   0.714 -0.0237 -0.2674 -0.0970
 5866TIP3    H117604   0.035   0.903   0.633  2.2706  0.5899  0.6586
 5866TIP3    H217605   0.027   0.763   0.689 -1.1053 -0.0506 -1.1339
 5867TIP3   OH217606   5.672   4.478   0.003  0.0105  0.4907 -0.1414
 5867TIP3    H117607   5.630   4.514   0.081 -0.5379 -1.1896  0.3788
 5867TIP3    H217608   5.710   4.554  -0.041  2.1434  1.2891  2.7921
 5868TIP3   OH217609   5.322   0.521   2.614 -0.3734 -0.0301 -0.2732
 5868TIP3    H117610   5.418   0.527   2.608 -0.3608 -0.6211 -0.7059
 5868TIP3    H217611   5.290   0.595   2.562 -0.1537  0.0874 -0.2430
 5869TIP3   OH217612   3.703   0.966   0.663 -0.4486 -0.7397 -0.6668
 5869TIP3    H117613   3.698   0.932   0.753 -0.4502 -1.5482 -0.9648
 5869TIP3    H217614   3.786   0.932   0.629  1.2170  2.2324  0.0660
 5870TIP3   OH217615   1.133   0.894   0.305  0.0756  0.1560 -0.5279
 5870TIP3    H117616   1.096   0.815   0.345  0.0836  0.4440  0.0512
 5870TIP3    H217617   1.097   0.895   0.216 -0.5204 -0.0895 -0.2897
 5871TIP3   OH217618   2.545   1.190   3.936  0.0544 -0.0588 -0.2489
 5871TIP3    H117619   2.630   1.171   3.976 -0.9385 -3.4794  0.4964
 5871TIP3    H217620   2.533   1.122   3.871 -2.1731  0.3099 -0.2895
 5872TIP3   OH217621   0.230   2.934   3.300  0.4197 -0.1374 -0.0815
 5872TIP3    H117622   0.301   2.932   3.236  1.0174  0.0712  0.5576
 5872TIP3    H217623   0.228   3.024   3.331  1.4261 -0.6328  1.5702
 5873TIP3   OH217624   0.056   5.861   0.028  0.3201 -0.0622  0.3465
 5873TIP3    H117625   0.052   5.767   0.044  2.3601 -0.0482  1.1760
 5873TIP3    H217626   0.133   5.873  -0.028  1.5537  1.3049  2.2180
 5874TIP3   OH217627   3.610   3.042   4.800  0.9201 -0.1513 -0.4698
 5874TIP3    H117628   3.609   2.970   4.862  1.8946 -0.0485 -0.3029
 5874TIP3    H217629   3.691   3.029   4.749  1.4254  1.1098 -0.0507
 5875TIP3   OH217630   0.754   3.227   5.115 -0.1278  0.4432  0.1947
 5875TIP3    H117631   0.739   3.320   5.132 -0.4122  0.8078 -1.8452
 5875TIP3    H217632   0.666   3.192   5.102 -0.2253 -0.6236  3.0418
 5876TIP3   OH217633   4.730   1.157   0.971 -0.7014  0.6436 -0.4256
 5876TIP3    H117634   4.784   1.078   0.978 -0.7958  0.6286  0.2139
 5876TIP3    H217635   4.788   1.228   0.997 -1.3511  0.4727  1.7469
 5877TIP3   OH217636   0.604   1.203  -0.020  0.1757  0.3193 -0.0446
 5877TIP3    H117637   0.674   1.238   0.035 -0.3267  0.6581  0.3839
 5877TIP3    H217638   0.546   1.158   0.041 -0.2943  0.5406 -0.3275
 5878TIP3   OH217639   4.983   4.219   1.310  0.3477  0.5089  0.6108
 5878TIP3    H117640   5.044   4.187   1.376  0.4284  1.0899  0.8238
 5878TIP3    H217641   5.006   4.311   1.298  0.8095  0.2443 -0.7616
 5879TIP3   OH217642   3.837   5.629   3.462  0.0994 -0.3864  0.1573
 5879TIP3    H117643   3.758   5.668   3.425 -1.4800 -1.6962  1.9600
 5879TIP3    H217644   3.869   5.571   3.392 -2.9754 -3.0433  0.6897
 5880TIP3   OH217645   1.701   4.170   1.026 -0.1705 -0.2507 -1.0283
 5880TIP3    H117646   1.778   4.158   0.969 -0.6164 -1.5467 -1.4013
 5880TIP3    H217647   1.702   4.263   1.048  0.1549  0.2674 -2.9841
 5881TIP3   OH217648   1.717   0.178   1.547 -0.2575 -0.1536 -0.2089
 5881TIP3    H117649   1.693   0.271   1.554  0.6845  0.2157 -1.4741
 5881TIP3    H217650   1.642   0.131   1.581 -0.9916  1.0672 -0.0821
 5882TIP3   OH217651   5.921   2.279   0.107 -0.6369 -0.2736 -0.4959
 5882TIP3    H117652   5.852   2.284   0.041 -1.0879 -3.5129 -0.4522
 5882TIP3    H217653   5.885   2.221   0.174  0.2475  1.9921  2.1472
 5883TIP3   OH217654   4.712   5.739   0.559 -0.0683 -0.3156 -0.2226
 5883TIP3    H117655   4.674   5.771   0.640 -0.2306  0.4036 -0.5748
 5883TIP3    H217656   4.717   5.816   0.503  0.7384 -0.6521 -0.6293
 5884TIP3   OH217657   0.741   2.852   2.239  0.1216 -0.1674  0.2179
 5884TIP3    H117658   0.817   2.858   2.297  0.4714 -0.7089 -0.1727
 5884TIP3    H217659   0.754   2.922   2.175 -0.0686  0.1878  0.5696
 5885TIP3   OH217660   3.529   3.436   1.872 -0.2094  0.0861  0.3309
 5885TIP3    H117661   3.543   3.360   1.928 -1.0367 -0.6277 -0.4023
 5885TIP3    H217662   3.591   3.502   1.904  0.6266 -0.9455  0.8671
 5886TIP3   OH217663   0.737   3.237   3.782  0.1861  0.4199  0.5720
 5886TIP3    H117664   0.686   3.161   3.753  1.1371 -0.2858  0.7105
 5886TIP3    H217665   0.827   3.218   3.754  0.4116  1.5763  0.4608
 5887TIP3   OH217666   5.089   3.025   3.080  0.3537  0.0315 -0.1123
 5887TIP3    H117667   5.150   3.076   3.028  1.2351 -0.2778  0.5917
 5887TIP3    H217668   5.127   3.023   3.168 -1.2493  0.7887  0.6346
 5888TIP3   OH217669   0.204   3.070   0.253  0.8985 -0.2686  0.0466
 5888TIP3    H117670   0.202   3.111   0.339 -0.0072  0.7708 -0.4579
 5888TIP3    H217671   0.288   3.095   0.216  0.7225  0.4024  0.0972
 5889TIP3   OH217672   4.684   5.672   3.734 -0.4009 -0.1098 -0.0099
 5889TIP3    H117673   4.766   5.688   3.781 -0.6572  0.5027  0.2403
 5889TIP3    H217674   4.702   5.701   3.644 -0.5793  0.7958  0.2303
 5890TIP3   OH217675   5.366   3.907   3.211 -0.1588  0.2647  0.0237
 5890TIP3    H117676   5.298   3.966   3.243 -1.9157 -0.7211 -1.6768
 5890TIP3    H217677   5.358   3.830   3.266 -0.2241  0.2712  0.0238
 5891TIP3   OH217678   3.421   4.892   0.692  0.0887 -0.1389 -0.1636
 5891TIP3    H117679   3.427   4.956   0.763  0.9146 -0.5291  0.1402
 5891TIP3    H217680   3.328   4.886   0.673 -0.0675  0.6080  0.3017
 5892TIP3   OH217681   3.983   1.476   4.320 -0.0592 -0.4576 -0.3842
 5892TIP3    H117682   3.919   1.459   4.250 -1.2137  1.1145  0.2399
 5892TIP3    H217683   4.003   1.389   4.356 -0.5851 -1.1366 -1.6552
 5893TIP3   OH217684   4.328   4.044   2.060 -0.1298 -0.4845 -0.0466
 5893TIP3    H117685   4.269   4.119   2.070 -0.4030 -0.7769  0.5649
 5893TIP3    H217686   4.319   4.018   1.969 -0.3449 -0.0300 -0.1571
 5894TIP3   OH217687   4.417   0.661   0.908  0.3447 -0.2694 -0.4889
 5894TIP3    H117688   4.354   0.681   0.838 -1.7221  0.0200  1.3685
 5894TIP3    H217689   4.481   0.732   0.903 -0.8096  0.7806 -0.9268
 5895TIP3   OH217690   4.675   3.659   1.234  0.2540  0.3150 -0.1730
 5895TIP3    H117691   4.628   3.694   1.310 -0.8013  0.7271 -0.9805
 5895TIP3    H217692   4.729   3.732   1.204  0.1053  0.3872 -0.2636
 5896TIP3   OH217693   6.099   4.300   0.553 -0.0352 -0.1553 -0.3185
 5896TIP3    H117694   6.127   4.216   0.517  0.3421 -0.7058  1.2028
 5896TIP3    H217695   6.053   4.278   0.634  2.0742  1.1732  1.3536
 5897TIP3   OH217696   3.486   1.081   4.385  0.1977  0.0908  0.0027
 5897TIP3    H117697   3.398   1.047   4.401 -0.3617  1.4927  0.0306
 5897TIP3    H217698   3.478   1.128   4.302  1.0413 -0.1319 -0.2129
 5898TIP3   OH217699   2.081   1.603   4.762  0.1974 -0.0390  0.0485
 5898TIP3    H117700   2.155   1.607   4.702  0.0446 -2.0194 -0.3496
 5898TIP3    H217701   2.010   1.648   4.716  0.4241 -0.4745 -0.7411
 5899TIP3   OH217702   1.791   5.567   1.106  0.0907 -0.3063 -0.2744
 5899TIP3    H117703   1.708   5.561   1.060 -0.3035  1.8990  0.0277
 5899TIP3    H217704   1.795   5.487   1.158 -1.9325 -0.3999 -0.1697
 5900TIP3   OH217705   3.432   2.534   2.578 -0.4547 -0.1824  0.5571
 5900TIP3    H117706   3.512   2.575   2.544  1.2333 -2.4363  1.5297
 5900TIP3    H217707   3.362   2.564   2.520  1.1466  1.5770 -0.5597
 5901TIP3   OH217708   0.816   2.170   1.899  0.9819  0.4077  0.2487
 5901TIP3    H117709   0.769   2.248   1.870  1.7708  0.1733 -1.8383
 5901TIP3    H217710   0.753   2.122   1.952 -1.5220 -0.2985 -3.0559
 5902TIP3   OH217711   0.125   5.610   4.521 -0.4033 -0.3571 -0.2313
 5902TIP3    H117712   0.081   5.628   4.604  1.3876 -0.0263  0.7001
 5902TIP3    H217713   0.200   5.670   4.520  0.9905 -2.0058 -0.9278
 5903TIP3   OH217714   3.289   2.248   1.272  0.4297  0.1009  0.0970
 5903TIP3    H117715   3.241   2.313   1.323  1.5816  0.5785  0.6228
 5903TIP3    H217716   3.352   2.210   1.334  0.1430 -1.1389 -0.3354
 5904TIP3   OH217717   6.076   4.873   4.777 -0.0962 -0.5364  0.2578
 5904TIP3    H117718   6.027   4.935   4.832  0.2619  0.3504 -0.3908
 5904TIP3    H217719   6.039   4.885   4.690  1.1230 -0.0153 -0.1989
 5905TIP3   OH217720   4.314   1.665   0.355  0.0426 -0.1313 -0.1729
 5905TIP3    H117721   4.275   1.744   0.392 -1.8478 -0.9459 -0.3090
 5905TIP3    H217722   4.369   1.630   0.426  1.8146  1.8313 -0.4864
 5906TIP3   OH217723   3.503   0.520   1.516 -0.2220 -0.5553 -0.3332
 5906TIP3    H117724   3.444   0.553   1.448 -0.2066 -1.2339 -0.6772
 5906TIP3    H217725   3.471   0.432   1.535  0.6010 -0.8831 -0.4343
 5907TIP3   OH217726   5.993   4.084   4.755  0.1608  0.2474  0.1457
 5907TIP3    H117727   6.063   4.026   4.785 -1.1252 -0.7459  1.3365
 5907TIP3    H217728   5.948   4.034   4.686  1.3950  1.4194 -1.6010
 5908TIP3   OH217729   0.394   5.134   2.826  0.1983 -0.0264  0.0371
 5908TIP3    H117730   0.359   5.224   2.830 -2.0364 -0.8396  0.1456
 5908TIP3    H217731   0.376   5.098   2.913  1.6076 -0.4100  0.1777
 5909TIP3   OH217732   2.876   5.355   4.367 -0.0274  0.0467  0.0947
 5909TIP3    H117733   2.914   5.414   4.302 -1.1331  0.8939  0.1837
 5909TIP3    H217734   2.816   5.300   4.318  0.5222 -0.5845  0.1170
 5910TIP3   OH217735   3.556   5.817   3.338 -0.1536  0.3833  0.3818
 5910TIP3    H117736   3.517   5.831   3.424 -1.0465  0.4218 -0.0160
 5910TIP3    H217737   3.539   5.725   3.318 -1.7939  0.8493 -0.6093
 5911TIP3   OH217738   6.271   5.864   2.408  0.5798 -0.2520  0.0904
 5911TIP3    H117739   6.230   5.868   2.494  0.9816  0.2016  0.2669
 5911TIP3    H217740   6.311   5.951   2.397  0.6844 -0.3704 -0.4734
 5912TIP3   OH217741   3.981   0.683   4.158 -0.0452 -0.2108 -0.0195
 5912TIP3    H117742   3.922   0.719   4.092 -0.0456 -0.1910 -0.0087
 5912TIP3    H217743   3.927   0.676   4.237 -0.3826 -1.3916 -0.3442
 5913TIP3   OH217744   1.796   1.993   1.488 -0.8431  0.4516  0.2486
 5913TIP3    H117745   1.844   2.076   1.492 -0.5212  0.2399  0.8476
 5913TIP3    H217746   1.849   1.937   1.432 -0.8456  0.5081  0.1896
 5914TIP3   OH217747   6.362   4.110   4.257  0.3016  0.4887  0.3125
 5914TIP3    H117748   6.277   4.144   4.284 -0.2603  0.3237 -1.1243
 5914TIP3    H217749   6.373   4.030   4.308 -1.9757 -1.2993 -1.7128
 5915TIP3   OH217750   2.895   2.142   2.241 -0.1311  0.1358  0.0540
 5915TIP3    H117751   2.957   2.194   2.293 -0.9959  2.4937 -1.1377
 5915TIP3    H217752   2.905   2.175   2.151 -2.3138 -0.1834 -0.3635
 5916TIP3   OH217753   2.102   1.744   2.715  0.2799 -0.0694  0.7649
 5916TIP3    H117754   2.083   1.666   2.664  0.8831  0.6754 -0.6709
 5916TIP3    H217755   2.058   1.815   2.667  0.7838  0.6456  1.3342
 5917TIP3   OH217756   5.576   1.047   0.838 -0.0018  0.0981  0.4922
 5917TIP3    H117757   5.633   1.066   0.912 -0.7436  1.4205  0.7540
 5917TIP3    H217758   5.624   1.080   0.762  1.2836 -2.2869  0.1571
 5918TIP3   OH217759   1.239   2.660   0.419 -0.5166  0.3686  0.4975
 5918TIP3    H117760   1.245   2.742   0.468 -0.3586  0.1717  0.8101
 5918TIP3    H217761   1.179   2.679   0.347 -0.7365  0.6638  0.7580
 5919TIP3   OH217762   1.135   1.600   4.684 -0.1727  0.1512  0.5598
 5919TIP3    H117763   1.162   1.681   4.641 -0.6461 -0.0814 -0.1983
 5919TIP3    H217764   1.192   1.533   4.647 -1.6270 -0.3142 -0.9314
 5920TIP3   OH217765   0.623   5.669   2.972  0.1848  0.7422  0.1283
 5920TIP3    H117766   0.679   5.616   2.915 -2.2755 -0.4795 -1.2659
 5920TIP3    H217767   0.581   5.731   2.912 -0.5562  1.0972  1.0071
 5921TIP3   OH217768   2.352   4.036   5.081 -0.3969  0.2496  0.0402
 5921TIP3    H117769   2.317   4.125   5.079 -1.6337 -0.1579  1.3615
 5921TIP3    H217770   2.317   3.999   5.162 -0.0539 -1.5070 -0.5767
 5922TIP3   OH217771   1.696   0.196   0.743  0.2528  1.1436 -0.0439
 5922TIP3    H117772   1.672   0.275   0.695  3.4328  1.6912 -0.9919
 5922TIP3    H217773   1.695   0.127   0.677 -2.5276  0.2458  0.7830
 5923TIP3   OH217774   2.869   5.588   0.872 -0.0285 -0.0800 -0.4110
 5923TIP3    H117775   2.828   5.643   0.806 -0.8835 -0.2167 -0.0064
 5923TIP3    H217776   2.910   5.517   0.823 -1.8088 -0.9351 -0.7242
 5924TIP3   OH217777   5.427   1.143   3.668 -0.0685 -0.3481  0.3296
 5924TIP3    H117778   5.348   1.194   3.687 -0.2470 -0.5647  0.1802
 5924TIP3    H217779   5.394   1.059   3.636  0.1839  0.1513 -1.3866
 5925TIP3   OH217780   3.518   5.496   4.003 -0.4323  0.2733  0.0267
 5925TIP3    H117781   3.440   5.457   3.963  0.2867 -1.6614  0.3842
 5925TIP3    H217782   3.591   5.462   3.952  0.2222  1.9885 -0.2494
 5926TIP3   OH217783   5.824   0.319   4.238 -0.1253 -0.2188 -0.4321
 5926TIP3    H117784   5.745   0.289   4.283  0.4167 -1.1553 -0.0622
 5926TIP3    H217785   5.896   0.288   4.294  0.5032  1.2221 -0.3845
 5927TIP3   OH217786   4.907   0.148   2.533 -0.2669 -0.1832  0.0849
 5927TIP3    H117787   4.877   0.194   2.454 -0.7352  0.3374  0.5551
 5927TIP3    H217788   4.993   0.185   2.550 -0.3155 -0.0359  0.0179
 5928TIP3   OH217789   0.758   1.603   1.221  0.2262 -0.5922 -0.0149
 5928TIP3    H117790   0.791   1.667   1.284  0.2777 -0.9276  0.3003
 5928TIP3    H217791   0.833   1.546   1.202  0.4273 -0.0401 -0.9615
 5929TIP3   OH217792   3.212   4.082   2.058  0.9758 -0.4867 -0.0667
 5929TIP3    H117793   3.283   4.141   2.082  0.8644  0.2484 -1.4773
 5929TIP3    H217794   3.255   4.014   2.005  0.6899 -0.2591 -0.5883
 5930TIP3   OH217795   1.607   5.032   3.430 -0.6562  0.0547  0.1601
 5930TIP3    H117796   1.597   4.937   3.418 -2.2082  0.2830 -0.7386
 5930TIP3    H217797   1.677   5.042   3.494 -0.8132 -1.7152  0.6500
 5931TIP3   OH217798   3.624   1.701   3.180 -0.5670  0.1430 -0.0754
 5931TIP3    H117799   3.549   1.729   3.233  0.0367  3.1527 -0.6057
 5931TIP3    H217800   3.585   1.665   3.101 -1.5114  1.2222 -0.1362
 5932TIP3   OH217801   1.468   5.647   3.119 -0.1085  0.0415  0.0219
 5932TIP3    H117802   1.526   5.574   3.143  0.8911  1.2996  1.6341
 5932TIP3    H217803   1.417   5.664   3.198 -0.1934  1.2054 -0.2685
 5933TIP3   OH217804   1.307   2.769   3.322 -0.2959 -0.0126 -0.4821
 5933TIP3    H117805   1.299   2.680   3.355  3.7806 -0.5190 -0.4197
 5933TIP3    H217806   1.296   2.824   3.399 -0.5011 -0.5665 -0.1084
 5934TIP3   OH217807   2.173   0.888   3.152  0.6135  0.1232 -0.5624
 5934TIP3    H117808   2.185   0.795   3.133 -0.5130  0.3703 -2.8933
 5934TIP3    H217809   2.078   0.899   3.159  0.7388  1.0946 -0.2092
 5935TIP3   OH217810   2.807   4.762   1.739  0.0631 -0.6217  0.1002
 5935TIP3    H117811   2.725   4.801   1.711 -1.0775 -0.8499  2.7588
 5935TIP3    H217812   2.841   4.823   1.805  1.1080 -1.3971  0.3041
 5936TIP3   OH217813   2.988   3.392   0.117 -0.0085  0.1929  0.4209
 5936TIP3    H117814   2.929   3.400   0.042 -1.2514 -0.7924  1.2437
 5936TIP3    H217815   3.074   3.377   0.078 -0.5215  0.3023 -0.8094
 5937TIP3   OH217816   0.316   0.569   2.760  0.2097  0.4515 -0.2675
 5937TIP3    H117817   0.293   0.487   2.804  0.8590  0.2593 -0.2733
 5937TIP3    H217818   0.239   0.589   2.706  0.7996 -1.2327 -1.8386
 5938TIP3   OH217819   5.946   1.296   3.956 -0.5212 -0.5235 -0.4666
 5938TIP3    H117820   6.037   1.287   3.929 -0.7782  0.1539 -1.6130
 5938TIP3    H217821   5.899   1.316   3.876 -1.5049  0.3028  0.2892
 5939TIP3   OH217822   3.110   3.037   1.715  0.1456 -0.3217 -0.2972
 5939TIP3    H117823   3.139   2.956   1.674  1.4760  0.3058 -0.6495
 5939TIP3    H217824   3.059   3.082   1.648 -0.1444 -0.6192 -0.2777
 5940TIP3   OH217825   0.065   2.697   1.061  0.0107  0.3820 -0.4513
 5940TIP3    H117826   0.125   2.653   1.121  1.6076  1.8112 -0.9078
 5940TIP3    H217827  -0.018   2.699   1.108  0.4676 -1.0848  0.4869
 5941TIP3   OH217828   2.085   3.814   1.377  0.1215 -0.6500  0.2743
 5941TIP3    H117829   2.028   3.816   1.300  0.4902  2.8977 -0.0741
 5941TIP3    H217830   2.172   3.835   1.343  0.2063  1.5130  1.6509
 5942TIP3   OH217831   4.194   1.508   1.420 -0.0740 -0.7882  0.5689
 5942TIP3    H117832   4.201   1.602   1.436  2.6172 -0.4047 -1.9535
 5942TIP3    H217833   4.102   1.495   1.397 -0.3888  1.3787  0.3711
 5943TIP3   OH217834   4.539   5.334   4.118 -0.0797 -0.0041 -0.2054
 5943TIP3    H117835   4.567   5.337   4.026 -0.2409 -1.5060 -0.3203
 5943TIP3    H217836   4.600   5.392   4.163  0.2070  0.5029 -1.1984
 5944TIP3   OH217837   1.751   1.856   2.946  0.6900 -0.4287 -0.1798
 5944TIP3    H117838   1.766   1.762   2.936  1.2226 -0.3379 -0.2932
 5944TIP3    H217839   1.676   1.863   3.004  0.2119 -0.9353 -0.7230
 5945TIP3   OH217840   2.555   3.077   2.716  0.2321 -0.8043 -0.2049
 5945TIP3    H117841   2.556   3.035   2.630  0.5218 -0.6615 -0.2732
 5945TIP3    H217842   2.469   3.057   2.752 -0.3548  0.1686 -1.0376
 5946TIP3   OH217843   1.584   0.519   3.265 -0.2161 -0.5639 -0.7329
 5946TIP3    H117844   1.615   0.595   3.314 -0.1675 -0.1468 -1.4006
 5946TIP3    H217845   1.496   0.542   3.237 -0.6248 -1.2028 -0.0034
 5947TIP3   OH217846   5.786   0.302   1.909 -0.0369  0.8272  0.3404
 5947TIP3    H117847   5.867   0.310   1.859  0.5722 -0.9827  0.9342
 5947TIP3    H217848   5.726   0.363   1.868  1.0419  0.7975 -1.3677
 5948TIP3   OH217849   3.960   3.468   1.785  0.3129 -0.6844 -0.0802
 5948TIP3    H117850   3.891   3.508   1.837  1.1714  1.1509 -0.2767
 5948TIP3    H217851   4.040   3.485   1.834  0.8865 -0.7852 -0.9617
 5949TIP3   OH217852   2.641   3.731   4.388  0.5295 -0.5727  0.0662
 5949TIP3    H117853   2.617   3.689   4.471  1.3774  0.1331  0.6873
 5949TIP3    H217854   2.643   3.825   4.408  0.3221 -0.3560 -0.8682
 5950TIP3   OH217855   3.645   3.340   2.525  0.1350  0.0125  0.5920
 5950TIP3    H117856   3.728   3.344   2.573 -0.3711  2.5118  1.4307
 5950TIP3    H217857   3.633   3.429   2.491 -1.1079 -0.8896 -1.4958
 5951TIP3   OH217858   1.239   5.043   1.994  0.1269  0.0700  0.0424
 5951TIP3    H117859   1.297   4.968   1.989 -1.0015 -0.7437 -2.3944
 5951TIP3    H217860   1.292   5.117   1.964  0.6811 -0.1091  0.5621
 5952TIP3   OH217861   5.317   3.755   1.023  0.7535  0.0971  0.0473
 5952TIP3    H117862   5.293   3.711   0.941  0.7849  1.0181 -0.4699
 5952TIP3    H217863   5.284   3.697   1.091  0.9255 -0.8060 -0.6092
 5953TIP3   OH217864   0.076   0.093   0.351  0.5093 -0.1375  0.4186
 5953TIP3    H117865   0.069   0.009   0.396  1.8295 -0.3864  0.1903
 5953TIP3    H217866   0.035   0.078   0.266 -0.3637 -0.1824  0.8366
 5954TIP3   OH217867   3.273   4.081   1.597  0.6504  0.4095  0.0172
 5954TIP3    H117868   3.324   4.123   1.528  0.6266 -0.1435 -0.3473
 5954TIP3    H217869   3.243   3.999   1.557 -3.4091  2.1756 -0.9947
 5955TIP3   OH217870   0.145   0.319   1.008  0.6050 -0.2553  0.4391
 5955TIP3    H117871   0.112   0.230   0.992 -0.7290  0.5148 -1.4261
 5955TIP3    H217872   0.131   0.365   0.925 -0.1376  2.1194  1.7912
 5956TIP3   OH217873   4.231   3.599   4.905 -0.0794  0.7649  0.3305
 5956TIP3    H117874   4.211   3.676   4.958  1.0012  1.5547 -0.3511
 5956TIP3    H217875   4.302   3.629   4.847 -1.5245  0.0830 -1.8784
 5957TIP3   OH217876   6.070   0.102   2.603 -0.1885  0.5351  0.6089
 5957TIP3    H117877   6.154   0.097   2.650  0.1134  1.6715  0.2334
 5957TIP3    H217878   6.088   0.061   2.518  0.5714  2.4018 -0.2032
 5958TIP3   OH217879   1.024   5.871   2.154  0.4814 -0.4354 -0.1574
 5958TIP3    H117880   0.970   5.797   2.185  2.5762 -1.8613  0.3087
 5958TIP3    H217881   1.108   5.858   2.197  0.4994  3.1768  1.1856
 5959TIP3   OH217882   2.606   2.766   1.112 -0.3648  0.8784  0.1470
 5959TIP3    H117883   2.582   2.695   1.172  1.1457  1.4451  1.5181
 5959TIP3    H217884   2.527   2.820   1.106 -0.8562  0.2537  0.8172
 5960TIP3   OH217885   3.531   3.579   0.045 -0.0833 -0.2914  0.7310
 5960TIP3    H117886   3.545   3.641  -0.027  1.2443  1.1471  2.1269
 5960TIP3    H217887   3.461   3.619   0.098 -1.6848 -1.7794 -0.1586
 5961TIP3   OH217888   5.457   5.759   2.058 -0.4723  0.3386 -0.2838
 5961TIP3    H117889   5.392   5.736   1.991  0.3219 -0.5816 -0.7735
 5961TIP3    H217890   5.450   5.854   2.066 -0.7141  0.4575 -1.5614
 5962TIP3   OH217891   1.174   2.169   3.923  0.1871  0.5660  0.5312
 5962TIP3    H117892   1.264   2.135   3.924 -0.0543 -0.1090  2.1975
 5962TIP3    H217893   1.174   2.239   3.988 -0.6081  0.1983  0.9451
 5963TIP3   OH217894   5.963   4.660   3.388 -0.0476  0.5279 -0.2169
 5963TIP3    H117895   6.036   4.604   3.361 -0.8446 -0.2509 -0.8102
 5963TIP3    H217896   5.889   4.601   3.396 -0.6477  1.3275  0.2783
 5964TIP3   OH217897   1.543   1.884   3.188 -0.3257  0.0680 -0.2178
 5964TIP3    H117898   1.518   1.952   3.251 -0.0680  0.1157 -0.1657
 5964TIP3    H217899   1.478   1.893   3.117 -0.6326 -0.0076  0.0529
 5965TIP3   OH217900   0.475   1.934   2.389  0.2894 -0.3968  0.0521
 5965TIP3    H117901   0.460   1.883   2.469 -0.0588 -0.3410  0.0260
 5965TIP3    H217902   0.570   1.934   2.378  0.2737 -1.4639 -0.2272
 5966TIP3   OH217903   1.945   0.486   1.016 -0.0725 -0.1548  0.0661
 5966TIP3    H117904   1.973   0.433   1.090  0.1416 -0.9729 -0.5809
 5966TIP3    H217905   1.869   0.440   0.981 -0.0723  0.1326 -0.3188
 5967TIP3   OH217906   1.534   5.687   0.896 -0.5521 -0.5681 -0.4729
 5967TIP3    H117907   1.576   5.639   0.824 -1.0785  0.7485 -1.7135
 5967TIP3    H217908   1.441   5.668   0.886 -0.7272  0.3883 -0.7579
 5968TIP3   OH217909   3.243   1.009   1.803 -0.0980  0.1066  0.0239
 5968TIP3    H117910   3.152   0.980   1.803  0.2479 -1.0239  0.6065
 5968TIP3    H217911   3.294   0.928   1.798  0.8812  0.6980  0.1949
 5969TIP3   OH217912   2.891   1.067   2.603 -0.1118 -0.4643  0.2660
 5969TIP3    H117913   2.850   1.115   2.675 -0.3498 -0.1953 -0.0483
 5969TIP3    H217914   2.890   0.976   2.632  1.4147 -0.1591  1.3801
 5970TIP3   OH217915   1.694   0.748   3.397 -0.3071 -0.0527  0.4092
 5970TIP3    H117916   1.680   0.787   3.310 -2.8657  1.1315  1.2639
 5970TIP3    H217917   1.632   0.793   3.454  1.1542 -0.9385  2.8615
 5971TIP3   OH217918   0.030   5.189   0.187 -0.0192 -0.1250  0.0746
 5971TIP3    H117919   0.003   5.099   0.172 -0.7927  0.0257  0.5393
 5971TIP3    H217920  -0.020   5.217   0.264 -0.1721  0.8547 -0.3689
 5972TIP3   OH217921   6.317   0.096   3.734  0.0457  0.3937 -0.9015
 5972TIP3    H117922   6.261   0.019   3.742 -1.1926  1.4432  2.1495
 5972TIP3    H217923   6.406   0.064   3.748  0.1200 -0.9660 -3.7011
 5973TIP3   OH217924   4.826   0.444   0.668  0.3155  0.2860  0.1209
 5973TIP3    H117925   4.734   0.467   0.679 -0.0325 -0.8883 -0.2085
 5973TIP3    H217926   4.853   0.410   0.754 -0.0357 -0.9324 -0.2372
 5974TIP3   OH217927   6.350   3.517   1.810  0.4980 -0.4345  0.8073
 5974TIP3    H117928   6.267   3.551   1.843 -0.1216 -1.1132  0.0126
 5974TIP3    H217929   6.325   3.451   1.746  1.6582 -0.1389  0.0064
 5975TIP3   OH217930   2.916   1.720   4.082 -0.0507  0.1084 -0.3326
 5975TIP3    H117931   2.924   1.634   4.123  2.7904  0.8409  0.9074
 5975TIP3    H217932   2.988   1.771   4.120 -1.5075  2.9885 -1.1702
 5976TIP3   OH217933   5.574   2.108   5.125  0.0082 -0.1108  0.3193
 5976TIP3    H117934   5.589   2.194   5.164  2.2347  0.7263 -2.1080
 5976TIP3    H217935   5.658   2.085   5.084  0.2501 -4.4718  2.6289
 5977TIP3   OH217936   1.663   5.154   0.156  0.1602  0.2561 -0.3747
 5977TIP3    H117937   1.625   5.078   0.112 -1.4766  1.5609 -1.3623
 5977TIP3    H217938   1.751   5.161   0.121 -0.8272  0.8032 -2.9984
 5978TIP3   OH217939   0.259   0.199   4.474  0.6121  0.3665 -0.3284
 5978TIP3    H117940   0.170   0.235   4.481  0.6181  0.1282  1.4818
 5978TIP3    H217941   0.315   0.267   4.511  1.2717  0.7116 -1.8940
 5979TIP3   OH217942   6.189   2.256   1.647 -0.2217  0.6354 -0.2103
 5979TIP3    H117943   6.190   2.330   1.707  0.8741  0.7366 -0.3319
 5979TIP3    H217944   6.279   2.250   1.614  0.0756 -1.5391  0.7913
 5980TIP3   OH217945   5.537   5.223   0.455  0.0621  0.3968  0.3081
 5980TIP3    H117946   5.499   5.178   0.531 -1.0535  0.8253  0.0265
 5980TIP3    H217947   5.513   5.168   0.380  1.9318 -0.5096  0.3182
 5981TIP3   OH217948   4.144   0.891   1.974 -0.0754  0.0418  0.3785
 5981TIP3    H117949   4.179   0.811   2.013 -2.4107 -0.3105  1.9140
 5981TIP3    H217950   4.050   0.876   1.965 -0.3680  2.0608 -0.7068
 5982TIP3   OH217951   5.945   4.145   0.753  0.2287 -0.2452  0.2356
 5982TIP3    H117952   5.851   4.135   0.763  0.1065 -0.0281 -0.5904
 5982TIP3    H217953   5.982   4.117   0.837 -0.6904  1.9305  1.4440
 5983TIP3   OH217954   3.751   4.526   0.756  0.1138  0.2239 -0.0297
 5983TIP3    H117955   3.810   4.453   0.734 -0.6600 -0.8423  1.3127
 5983TIP3    H217956   3.689   4.529   0.683  0.6641  0.1183 -0.5163
 5984TIP3   OH217957   0.526   1.067   3.727 -0.2906  0.1802 -0.1465
 5984TIP3    H117958   0.592   1.102   3.667 -0.5351  0.9088 -0.0031
 5984TIP3    H217959   0.567   1.073   3.813  0.4903 -1.8875 -0.3168
 5985TIP3   OH217960   3.990   5.470   2.882  0.2426  0.0716 -0.6344
 5985TIP3    H117961   4.033   5.513   2.808  1.9109  1.4905  1.0574
 5985TIP3    H217962   4.062   5.430   2.932 -0.8162 -0.7510  0.2882
 5986TIP3   OH217963   3.239   0.625   2.521 -0.6214 -0.1313 -0.6394
 5986TIP3    H117964   3.328   0.661   2.526 -1.1060  1.2223 -1.2589
 5986TIP3    H217965   3.216   0.605   2.611 -0.8109  2.4220 -0.0418
 5987TIP3   OH217966   4.116   3.988   1.212  0.2431  0.0278 -0.0194
 5987TIP3    H117967   4.192   3.949   1.169 -0.9774 -0.6688 -1.6340
 5987TIP3    H217968   4.105   4.073   1.168 -0.2387 -0.1264 -0.2062
 5988TIP3   OH217969   3.888   0.588   1.870 -0.2929 -0.2410 -0.3819
 5988TIP3    H117970   3.903   0.644   1.946 -1.0553  2.1190 -1.8663
 5988TIP3    H217971   3.822   0.634   1.818  0.7180 -1.3563 -2.8488
 5989TIP3   OH217972   2.601   5.520   4.873  0.1227 -0.2119  0.0024
 5989TIP3    H117973   2.658   5.446   4.855 -0.4613 -0.5021 -0.7203
 5989TIP3    H217974   2.571   5.507   4.963 -1.4210 -1.8792 -0.6773
 5990TIP3   OH217975   2.979   0.300   1.119  0.0399 -0.3159 -0.4130
 5990TIP3    H117976   2.995   0.322   1.210  1.1485  0.9540 -0.8765
 5990TIP3    H217977   2.919   0.225   1.122 -1.7649  1.1067  1.2965
 5991TIP3   OH217978   3.083   4.614   4.644  0.0770  0.0800  0.0120
 5991TIP3    H117979   3.085   4.626   4.739  1.6539 -1.0305  0.1597
 5991TIP3    H217980   2.991   4.593   4.625 -0.1057 -0.5244  1.4172
 5992TIP3   OH217981   5.193   3.658   4.702 -0.2455  0.3618 -0.0910
 5992TIP3    H117982   5.108   3.615   4.691  0.1050 -0.9511  1.9283
 5992TIP3    H217983   5.171   3.749   4.722 -1.0152  1.0833 -3.5247
 5993TIP3   OH217984   0.433   0.336   0.601 -0.2415  0.3990  0.3166
 5993TIP3    H117985   0.384   0.342   0.683  0.9382  1.9086  0.9739
 5993TIP3    H217986   0.444   0.242   0.586 -0.6488  0.0961  1.7855
 5994TIP3   OH217987   2.955   1.641   4.647  0.0561  0.5237  0.4022
 5994TIP3    H117988   2.951   1.546   4.638 -1.2478  0.5341  0.6677
 5994TIP3    H217989   2.863   1.669   4.646  0.3516  1.6381  1.8569
 5995TIP3   OH217990   6.338   5.514   3.286 -0.2992 -0.1591 -0.0392
 5995TIP3    H117991   6.282   5.455   3.235  3.4424 -1.7377 -2.7514
 5995TIP3    H217992   6.340   5.475   3.373 -1.5509 -1.4013 -0.5243
 5996TIP3   OH217993   2.657   1.182   2.019 -0.0484  0.0421  0.9419
 5996TIP3    H117994   2.690   1.160   1.932  1.1773  1.8000  0.9059
 5996TIP3    H217995   2.706   1.126   2.079  2.0847  1.6395  0.7749
 5997TIP3   OH217996   0.450   0.368   1.421 -0.5795  0.1435 -0.1372
 5997TIP3    H117997   0.505   0.413   1.485  0.4729 -1.0804 -0.1402
 5997TIP3    H217998   0.512   0.338   1.354 -1.3924 -0.3937 -0.6614
 5998TIP3   OH217999   2.200   4.897   0.023 -0.0457 -0.2389  0.2471
 5998TIP3    H118000   2.125   4.957   0.021 -0.0899 -0.2631  0.8367
 5998TIP3    H218001   2.256   4.931   0.093  0.0810 -0.6993  0.3741
 5999TIP3   OH218002   1.864   2.981   3.771 -0.7567  0.5990 -0.2783
 5999TIP3    H118003   1.849   3.075   3.762 -0.9058  0.5400 -0.6482
 5999TIP3    H218004   1.779   2.941   3.757 -0.5238  0.3505 -1.0436
 6000TIP3   OH218005   4.579   5.382   2.051 -0.5271 -0.1902  0.5488
 6000TIP3    H118006   4.619   5.333   2.123  1.4289 -1.4904 -1.2992
 6000TIP3    H218007   4.514   5.322   2.014  0.2281 -0.5339 -0.2670
 6001TIP3   OH218008   1.931   4.776   0.112 -0.5026  0.0905 -0.1421
 6001TIP3    H118009   1.925   4.681   0.110 -1.0436  0.0742  1.2941
 6001TIP3    H218010   2.024   4.795   0.120 -0.1116 -0.2107 -3.0164
 6002TIP3   OH218011   6.198   3.571   3.214  0.0704  0.1997  0.7433
 6002TIP3    H118012   6.279   3.547   3.169 -0.3165 -1.4817  0.8584
 6002TIP3    H218013   6.130   3.521   3.168 -0.7394  0.6693  1.3986
 6003TIP3   OH218014   4.893   5.357   4.012  0.0788  0.0539  0.3235
 6003TIP3    H118015   4.978   5.399   4.023 -0.4335  1.3489 -0.4412
 6003TIP3    H218016   4.914   5.265   3.996  1.6577  0.8833 -3.5571
 6004TIP3   OH218017   3.960   2.294   3.644 -0.1031  0.8798 -0.2020
 6004TIP3    H118018   3.936   2.378   3.683 -0.6032  0.6742 -0.0684
 6004TIP3    H218019   4.055   2.299   3.633  0.4286  0.1544  2.9903
 6005TIP3   OH218020   3.509   2.001   1.334  0.3595 -0.2055 -0.4505
 6005TIP3    H118021   3.416   1.980   1.337  0.3735 -0.2609 -0.3855
 6005TIP3    H218022   3.544   1.947   1.263  0.4788 -0.7449  0.0098
 6006TIP3   OH218023   2.427   5.491   3.823  0.0563  0.5208  0.2894
 6006TIP3    H118024   2.353   5.460   3.771  0.3458 -0.8410  0.6516
 6006TIP3    H218025   2.481   5.413   3.837  1.6813  1.5271 -0.1403
 6007TIP3   OH218026   4.110   4.860   0.227 -0.3957 -0.2227 -0.8482
 6007TIP3    H118027   4.124   4.873   0.133 -0.6334  1.7627 -0.6421
 6007TIP3    H218028   4.167   4.924   0.269 -1.3854 -0.0720  0.3270
 6008TIP3   OH218029   2.853   3.938   2.655  0.2239 -0.3956  0.2483
 6008TIP3    H118030   2.831   4.004   2.721  1.8461 -0.0740  0.5114
 6008TIP3    H218031   2.948   3.934   2.656  0.2711 -0.7474 -1.7425
 6009TIP3   OH218032   2.133   1.469   5.180 -0.3466  0.2390 -0.3560
 6009TIP3    H118033   2.085   1.398   5.139 -0.5549  0.5376 -0.6301
 6009TIP3    H218034   2.092   1.549   5.147 -2.0918  0.5273  2.1663
 6010TIP3   OH218035   5.212   5.010   5.037  0.0345 -0.7379 -0.2011
 6010TIP3    H118036   5.236   5.085   5.091  0.4754 -0.2660 -1.0211
 6010TIP3    H218037   5.205   4.937   5.098 -1.6726  0.2123  0.8122
 6011TIP3   OH218038   3.180   5.052   2.975 -0.6471  0.5959 -0.1195
 6011TIP3    H118039   3.273   5.071   2.960 -1.2456  1.8077 -2.9717
 6011TIP3    H218040   3.143   5.134   3.006 -1.1307  0.7981 -1.1759
 6012TIP3   OH218041   6.044   3.278   2.334  0.5591 -0.2867  0.1182
 6012TIP3    H118042   6.100   3.319   2.268  3.2118 -0.7995  1.8631
 6012TIP3    H218043   6.040   3.186   2.307  0.0356 -0.1402 -0.3211
 6013TIP3   OH218044   4.291   3.967   4.259 -0.4485 -0.5023 -0.2792
 6013TIP3    H118045   4.219   3.936   4.204 -0.6877 -1.9470  0.7949
 6013TIP3    H218046   4.328   3.888   4.297  0.7282  0.3464  0.4018
 6014TIP3   OH218047   4.073   1.318   2.945 -0.4771  0.3304 -0.1965
 6014TIP3    H118048   4.091   1.233   2.985  0.1353 -0.8124 -2.6794
 6014TIP3    H218049   3.979   1.331   2.957 -0.6386 -0.8709 -0.0535
 6015TIP3   OH218050   3.861   4.577   2.407 -0.5449  0.4703  0.2455
 6015TIP3    H118051   3.876   4.501   2.463  0.5962  0.9875  0.6687
 6015TIP3    H218052   3.815   4.542   2.331  0.1309 -0.6878  0.3437
 6016TIP3   OH218053   3.192   3.835   3.390 -0.0454 -0.2718  0.1551
 6016TIP3    H118054   3.144   3.754   3.374  0.4010 -0.8611  1.6727
 6016TIP3    H218055   3.263   3.810   3.448  0.6532  1.0457 -0.0931
 6017TIP3   OH218056   2.031   4.812   3.053  0.2252 -0.2586 -0.2786
 6017TIP3    H118057   1.950   4.835   3.008  0.3305 -0.0832 -0.3786
 6017TIP3    H218058   2.042   4.881   3.119  0.3957 -0.1769 -0.3932
 6018TIP3   OH218059   4.137   0.633   2.343  0.3134  0.1340 -0.0389
 6018TIP3    H118060   4.148   0.540   2.365  0.7820  0.4630  1.2540
 6018TIP3    H218061   4.185   0.644   2.261  1.0848 -0.5750  0.2948
 6019TIP3   OH218062   0.271   5.160   1.524  0.6651  0.3923  0.2856
 6019TIP3    H118063   0.351   5.208   1.546 -0.4759  1.1030  3.3470
 6019TIP3    H218064   0.224   5.153   1.607 -3.2950  1.5174 -1.6493
 6020TIP3   OH218065   5.206   2.502   0.393  0.2835  0.6715 -0.5392
 6020TIP3    H118066   5.272   2.492   0.462 -2.6451 -1.6840  2.3068
 6020TIP3    H218067   5.161   2.583   0.414 -1.8771 -0.9642  1.8637
 6021TIP3   OH218068   2.337   0.333   3.543 -0.5311  0.1611 -0.0764
 6021TIP3    H118069   2.352   0.293   3.629  0.2696 -3.4695 -1.6911
 6021TIP3    H218070   2.418   0.382   3.526 -0.1809 -0.0934  0.7431
 6022TIP3   OH218071   2.043   2.334   3.986  0.2386 -0.0996 -0.2504
 6022TIP3    H118072   2.105   2.317   3.915  0.3537 -0.3917 -0.0852
 6022TIP3    H218073   1.957   2.322   3.946  0.2908  0.2350 -0.4640
 6023TIP3   OH218074   2.927   4.763   3.215  0.0608 -0.2855  0.2591
 6023TIP3    H118075   3.000   4.706   3.191  0.4753  0.3795 -0.0709
 6023TIP3    H218076   2.955   4.805   3.296  0.2904  0.4049 -0.1751
 6024TIP3   OH218077   4.154   1.949   2.841 -0.5396 -0.0319  0.3562
 6024TIP3    H118078   4.070   1.924   2.802 -0.0842  0.1177 -0.7499
 6024TIP3    H218079   4.130   2.003   2.916 -1.4237  0.9178 -0.5837
 6025TIP3   OH218080   0.314   3.108   1.534 -0.1423 -1.2083 -0.3749
 6025TIP3    H118081   0.276   3.074   1.453 -0.8150  1.8050 -1.4467
 6025TIP3    H218082   0.407   3.119   1.513 -0.7862  2.5772 -2.0723
 6026TIP3   OH218083   1.519   3.866   3.094  0.0165 -0.0671 -0.5657
 6026TIP3    H118084   1.542   3.813   3.018 -0.3718 -0.5995 -0.3164
 6026TIP3    H218085   1.532   3.808   3.169  0.5456  0.5027 -0.2076
 6027TIP3   OH218086   3.102   5.729   1.015  0.2904 -0.2503  0.6432
 6027TIP3    H118087   3.057   5.792   1.072  1.0523  0.5366  0.4048
 6027TIP3    H218088   3.112   5.775   0.931  0.2017 -0.9667  0.2346
 6028TIP3   OH218089   3.159   2.904   0.854  0.3079  0.2700  0.6509
 6028TIP3    H118090   3.212   2.827   0.833 -0.4572 -0.1260  0.1473
 6028TIP3    H218091   3.079   2.892   0.804 -0.0310  1.1427  0.9779
 6029TIP3   OH218092   2.260   3.911   2.968  0.2946  0.0282  0.0049
 6029TIP3    H118093   2.352   3.901   2.943  0.2350 -0.0078 -0.1973
 6029TIP3    H218094   2.222   3.824   2.955  0.7439 -0.5691  2.1898
 6030TIP3   OH218095   2.108   0.805   1.626 -0.2528 -0.0911 -0.1403
 6030TIP3    H118096   2.184   0.856   1.597 -0.9498  0.2597 -1.3918
 6030TIP3    H218097   2.036   0.868   1.627 -1.1483 -1.0271 -1.7935
 6031TIP3   OH218098   5.880   5.880   3.117  0.3006  0.1473 -0.3645
 6031TIP3    H118099   5.870   5.797   3.163  0.7198  0.2729 -0.0331
 6031TIP3    H218100   5.867   5.947   3.185  1.2738  0.3282 -0.3331
 6032TIP3   OH218101   3.971   2.152   2.321 -0.0550 -0.2198 -0.4080
 6032TIP3    H118102   3.975   2.212   2.396 -1.8786 -1.4525  0.7605
 6032TIP3    H218103   3.946   2.207   2.247 -2.3018  0.4471  0.7594
 6033TIP3   OH218104   4.168   2.744   1.664 -0.1472 -0.2201 -0.4357
 6033TIP3    H118105   4.230   2.810   1.632 -1.0203  1.1250  0.5718
 6033TIP3    H218106   4.185   2.739   1.758 -1.4698  0.0911 -0.1624
 6034TIP3   OH218107   0.100   3.011   0.686  0.4618  0.4221  0.4907
 6034TIP3    H118108   0.039   3.081   0.710 -0.0097  0.1457  0.1267
 6034TIP3    H218109   0.184   3.038   0.723  0.4093  1.4433 -0.1014
 6035TIP3   OH218110   0.175   1.194   2.791 -0.3474 -0.2131 -0.0218
 6035TIP3    H118111   0.263   1.203   2.828 -0.3329 -0.2419 -0.0491
 6035TIP3    H218112   0.157   1.100   2.793 -0.7904 -0.1242  0.9293
 6036TIP3   OH218113   1.183   1.496   2.753 -0.3825 -0.2548 -0.4454
 6036TIP3    H118114   1.176   1.466   2.844  1.4889  1.6216  0.3842
 6036TIP3    H218115   1.093   1.520   2.728 -0.6871  0.7509  1.4802
 6037TIP3   OH218116   1.663   0.795   1.934  1.1495 -0.0179 -0.2752
 6037TIP3    H118117   1.620   0.711   1.920 -1.0462  0.6063  1.9495
 6037TIP3    H218118   1.670   0.833   1.847 -1.4920 -0.8491 -0.9547
 6038TIP3   OH218119   0.898   2.843   4.336 -0.3008  0.4479  0.1302
 6038TIP3    H118120   0.954   2.885   4.271  0.6548 -0.5956  0.2397
 6038TIP3    H218121   0.812   2.839   4.295  0.3832 -0.6015 -1.2830
 6039TIP3   OH218122   6.215   4.128   1.500 -0.0710 -0.4155 -0.3850
 6039TIP3    H118123   6.189   4.220   1.506 -0.2283 -0.4992  0.2808
 6039TIP3    H218124   6.278   4.117   1.572  0.4627 -0.6573 -0.8842
 6040TIP3   OH218125   3.622   5.041   2.405  0.0920  0.6828  0.4806
 6040TIP3    H118126   3.657   4.960   2.442 -1.0025  0.3090  0.7537
 6040TIP3    H218127   3.533   5.047   2.441  0.0920  1.9098  0.3135
 6041TIP3   OH218128   3.263   1.936   1.388 -0.2310 -0.6347 -0.0972
 6041TIP3    H118129   3.167   1.935   1.381 -0.1421 -0.6630 -1.5174
 6041TIP3    H218130   3.281   1.900   1.476 -1.5376  0.1759  0.5354
 6042TIP3   OH218131   2.653   1.702   4.008  0.3849 -0.3243 -0.2552
 6042TIP3    H118132   2.646   1.609   3.984  0.5436 -0.7411  1.2153
 6042TIP3    H218133   2.738   1.708   4.051 -0.4286  0.0952  1.3493
 6043TIP3   OH218134   5.905   1.787   1.654  0.9570  0.3901  0.3220
 6043TIP3    H118135   5.919   1.882   1.657  2.7122  0.2456 -1.0944
 6043TIP3    H218136   5.992   1.751   1.636  0.9436 -1.7477  3.6492
 6044TIP3   OH218137   3.469   3.853   2.372  0.2068 -0.3734 -0.3265
 6044TIP3    H118138   3.439   3.942   2.389  0.5679 -0.7622  2.8775
 6044TIP3    H218139   3.510   3.858   2.286 -0.4076  2.3697 -0.5556
 6045TIP3   OH218140   4.722   1.108   0.311  0.6822 -0.1420 -0.3758
 6045TIP3    H118141   4.677   1.171   0.366  0.6148 -2.4431  2.4691
 6045TIP3    H218142   4.653   1.068   0.258 -0.2153 -1.2857  1.5240
 6046TIP3   OH218143   1.339   4.514   4.501 -0.5291 -0.4599  0.1082
 6046TIP3    H118144   1.417   4.557   4.535  0.2304 -1.1493 -0.7082
 6046TIP3    H218145   1.298   4.473   4.578  0.6773 -1.2556  0.3490
 6047TIP3   OH218146   4.941   4.872   3.272 -0.4114 -0.1250 -0.5533
 6047TIP3    H118147   5.024   4.829   3.251 -0.1375  0.2367 -0.2253
 6047TIP3    H218148   4.888   4.861   3.193  0.4315  0.8079 -1.2685
 6048TIP3   OH218149   1.702   2.966   0.933 -0.6657 -0.2172  0.0878
 6048TIP3    H118150   1.619   3.012   0.924 -1.2064 -0.7694  1.8856
 6048TIP3    H218151   1.678   2.877   0.957  0.4447 -0.6266 -0.2393
 6049TIP3   OH218152   3.838   4.902   1.331  0.3546 -0.3045  0.6190
 6049TIP3    H118153   3.867   4.984   1.292 -0.5994 -0.0923  0.3215
 6049TIP3    H218154   3.869   4.905   1.421 -2.4888  1.9612  1.6745
 6050TIP3   OH218155   4.427   3.006   1.134 -0.2891 -0.1368 -0.0871
 6050TIP3    H118156   4.474   3.022   1.216  1.4708  0.4179 -1.1429
 6050TIP3    H218157   4.407   2.912   1.137  0.7534 -0.3630  0.4967
 6051TIP3   OH218158   0.545   4.641   2.194 -0.2364 -0.2606 -0.2583
 6051TIP3    H118159   0.631   4.610   2.222  0.7552  1.5490 -1.1126
 6051TIP3    H218160   0.564   4.701   2.121 -2.4330 -2.2350 -2.6462
 6052TIP3   OH218161   1.295   0.307   3.249 -0.4870 -0.3355 -0.8913
 6052TIP3    H118162   1.244   0.347   3.320  0.9700 -0.0432  0.0324
 6052TIP3    H218163   1.297   0.214   3.270  0.4520 -0.1671 -0.1997
 6053TIP3   OH218164   1.486   5.126   0.370  0.2596  0.5262 -0.9535
 6053TIP3    H118165   1.577   5.116   0.341  0.3250  0.9207 -0.8879
 6053TIP3    H218166   1.437   5.061   0.318  0.4053  1.0673 -1.7839
 6054TIP3   OH218167   5.155   0.162   0.268  0.1463 -0.3765  0.9231
 6054TIP3    H118168   5.082   0.217   0.237  0.8635 -0.4063 -0.9226
 6054TIP3    H218169   5.190   0.210   0.344  0.2427  1.3460 -0.1480
 6055TIP3   OH218170   2.383   1.791   5.123 -0.7390 -0.0630  0.3316
 6055TIP3    H118171   2.455   1.728   5.130 -0.8040 -0.0984  0.7152
 6055TIP3    H218172   2.316   1.746   5.071  0.5286  0.9167 -2.2986
 6056TIP3   OH218173   0.601   2.910   3.261  0.2142 -0.4544 -0.3651
 6056TIP3    H118174   0.668   2.975   3.282  1.2986 -1.3171 -1.0525
 6056TIP3    H218175   0.543   2.955   3.200 -0.3605  0.5865  0.9141
 6057TIP3   OH218176   3.585   2.189   1.893  0.3462 -0.1985 -0.2461
 6057TIP3    H118177   3.623   2.130   1.828  1.7076 -0.4380  0.7213
 6057TIP3    H218178   3.636   2.173   1.973  0.5243  1.9906  0.1596
 6058TIP3   OH218179   1.931   0.224   0.429 -0.3310 -0.7896  0.0856
 6058TIP3    H118180   1.877   0.295   0.394  1.0565 -0.0222 -0.5800
 6058TIP3    H218181   1.870   0.171   0.481 -1.4330  0.8374  0.5431
 6059TIP3   OH218182   1.505   2.914   3.777 -0.2178  0.5781  0.7248
 6059TIP3    H118183   1.538   2.938   3.864  0.1833 -0.7209  0.9514
 6059TIP3    H218184   1.434   2.852   3.794 -1.1663  1.4732  0.1567
 6060TIP3   OH218185   2.787   5.349   3.192  0.2334  0.3156  0.5008
 6060TIP3    H118186   2.767   5.348   3.098  0.0643  2.1804  0.4840
 6060TIP3    H218187   2.718   5.404   3.231 -0.0997 -0.9864  1.8365
 6061TIP3   OH218188   6.113   1.632   1.544  0.3107 -0.2564  0.8069
 6061TIP3    H118189   6.092   1.634   1.450 -0.3952 -0.5537  0.9566
 6061TIP3    H218190   6.179   1.701   1.555 -0.5357  0.6567  0.3198
 6062TIP3   OH218191   1.699   2.628   3.601  0.0555 -0.0272 -0.2804
 6062TIP3    H118192   1.693   2.723   3.596 -1.1026  0.0121  1.1157
 6062TIP3    H218193   1.623   2.597   3.551 -3.4599  0.0543  4.3018
 6063TIP3   OH218194   4.144   1.716   3.256  0.3523  0.3557 -0.5656
 6063TIP3    H118195   4.175   1.748   3.171  4.3572 -0.1708  0.5075
 6063TIP3    H218196   4.208   1.749   3.319 -0.2885 -2.3975  1.7251
 6064TIP3   OH218197   3.851   3.140   0.727 -0.1630 -0.3806  0.1884
 6064TIP3    H118198   3.930   3.096   0.695 -0.3351 -0.1837 -0.5218
 6064TIP3    H218199   3.820   3.085   0.798  0.7433 -0.3406  0.6324
 6065TIP3   OH218200   1.596   4.899   4.924 -0.8295 -0.4587 -0.3678
 6065TIP3    H118201   1.690   4.887   4.914 -0.7103  0.3110 -0.2667
 6065TIP3    H218202   1.580   4.989   4.894 -1.0259  0.6059  2.5372
 6066TIP3   OH218203   0.916   3.722   0.461 -0.2769  0.0332 -0.3402
 6066TIP3    H118204   0.934   3.738   0.368  2.0732 -0.3395 -0.0089
 6066TIP3    H218205   0.923   3.627   0.470 -1.4304 -0.0259  0.0742
 6067TIP3   OH218206   4.411   4.197   3.920  0.3615 -0.3027 -0.3324
 6067TIP3    H118207   4.377   4.223   4.005  0.9234  2.0677 -0.7688
 6067TIP3    H218208   4.425   4.103   3.928  0.0264 -0.2155  2.0514
 6068TIP3   OH218209   0.565   2.019   4.906 -0.3350 -0.7744  0.0856
 6068TIP3    H118210   0.583   1.927   4.883  1.6901 -0.8194  1.5897
 6068TIP3    H218211   0.604   2.030   4.992 -0.7367  1.4725  0.0247
 6069TIP3   OH218212   4.193   0.272   2.670  0.8057 -0.2666  0.5137
 6069TIP3    H118213   4.205   0.351   2.724  2.4376 -1.1480  1.5334
 6069TIP3    H218214   4.107   0.238   2.697 -0.0664  1.2897 -0.1670
 6070TIP3   OH218215   0.635   2.509   0.143  0.1471 -0.0035  0.0393
 6070TIP3    H118216   0.693   2.433   0.143  1.1241  0.6990 -0.8198
 6070TIP3    H218217   0.612   2.522   0.235 -1.9082 -2.6536  0.0328
 6071TIP3   OH218218   2.855   1.478   0.786 -0.4605  0.0755  0.1666
 6071TIP3    H118219   2.889   1.406   0.839 -0.5301 -0.1311 -0.0652
 6071TIP3    H218220   2.926   1.500   0.726 -0.5226  0.0422  0.0803
 6072TIP3   OH218221   3.250   0.220   1.088 -0.2041 -0.6419  0.1183
 6072TIP3    H118222   3.155   0.228   1.081 -0.4910 -1.0146  2.6563
 6072TIP3    H218223   3.281   0.311   1.094 -0.3981 -0.5271 -0.5391
 6073TIP3   OH218224   4.930   1.613   0.301  0.0392  0.2199 -0.7444
 6073TIP3    H118225   5.014   1.568   0.310 -0.5318 -1.3906 -2.6983
 6073TIP3    H218226   4.869   1.545   0.271 -1.3210  1.9106 -2.0207
 6074TIP3   OH218227   3.306   0.215   4.890 -0.0827 -0.2549 -0.2085
 6074TIP3    H118228   3.333   0.296   4.848 -0.5183 -0.6587 -1.3032
 6074TIP3    H218229   3.364   0.206   4.966 -0.0040  1.0436 -0.1022
 6075TIP3   OH218230   3.924   5.266   1.281 -0.1755 -0.5795  0.3122
 6075TIP3    H118231   3.957   5.231   1.364 -0.3374 -0.0008  0.6262
 6075TIP3    H218232   3.992   5.245   1.217  1.0449  1.0057  1.0337
 6076TIP3   OH218233   0.572   3.334   4.369 -0.1030  0.8610  0.4900
 6076TIP3    H118234   0.655   3.379   4.357  0.1110  0.1582 -0.8291
 6076TIP3    H218235   0.513   3.372   4.304  0.1962 -0.9574 -0.9184
 6077TIP3   OH218236   2.989   4.018   0.247 -0.0101 -0.3718 -0.0645
 6077TIP3    H118237   3.046   3.969   0.306 -0.5621  0.9621  1.6543
 6077TIP3    H218238   2.904   3.974   0.254  0.0371 -0.5004 -0.2661
 6078TIP3   OH218239   0.071   5.845   1.056 -0.6374  0.2563  0.4200
 6078TIP3    H118240   0.132   5.912   1.087 -1.4147  0.2822  1.9704
 6078TIP3    H218241   0.023   5.889   0.986  1.0506  0.2471 -0.8165
 6079TIP3   OH218242   0.507   1.769   4.594 -0.4756 -0.1917 -0.1218
 6079TIP3    H118243   0.460   1.799   4.672  0.4821  0.6677  0.1378
 6079TIP3    H218244   0.575   1.835   4.579  1.4245 -1.9814  0.1983
 6080TIP3   OH218245   1.541   2.126   3.320  0.2595  0.1378  0.1814
 6080TIP3    H118246   1.574   2.161   3.403  0.4130  1.9978 -0.6142
 6080TIP3    H218247   1.610   2.146   3.256 -0.1935 -0.5674 -0.5516
 6081TIP3   OH218248   3.043   0.716   2.371 -0.0069  0.2012 -0.6955
 6081TIP3    H118249   3.115   0.667   2.412 -0.2796  0.0359 -0.4142
 6081TIP3    H218250   3.064   0.808   2.387  0.2776  0.1640 -0.8436
 6082TIP3   OH218251   3.102   5.164   0.363  0.2932 -0.1042  0.1734
 6082TIP3    H118252   3.020   5.213   0.364  1.1738  1.4982 -1.7887
 6082TIP3    H218253   3.074   5.072   0.353 -1.2661  0.3159  0.3654
 6083TIP3   OH218254   2.307   5.052   2.048 -1.1866 -0.4308 -0.0096
 6083TIP3    H118255   2.370   5.086   1.984 -2.9542  0.6762 -1.2848
 6083TIP3    H218256   2.358   4.994   2.105  0.7151 -0.5052 -1.6822
 6084TIP3   OH218257   5.202   1.616   2.032  0.7753 -0.2303  0.4860
 6084TIP3    H118258   5.216   1.704   1.997 -0.3323 -0.6638 -1.1293
 6084TIP3    H218259   5.140   1.628   2.104 -0.3115  0.1950 -0.4956
 6085TIP3   OH218260   4.404   1.785   4.129 -0.0608  0.0593 -0.4983
 6085TIP3    H118261   4.412   1.863   4.184  0.9447  0.2900 -0.9695
 6085TIP3    H218262   4.322   1.798   4.081  0.3119  1.0161 -0.8800
 6086TIP3   OH218263   4.381   2.849   0.716  0.0207  0.0514 -0.2228
 6086TIP3    H118264   4.426   2.843   0.632  1.7738 -0.4305  0.7011
 6086TIP3    H218265   4.434   2.796   0.776  0.5416  2.7198  1.8922
 6087TIP3   OH218266   4.640   2.615   5.140  0.1781  0.3030  0.1340
 6087TIP3    H118267   4.645   2.572   5.225 -0.3866 -0.9554 -0.4466
 6087TIP3    H218268   4.725   2.599   5.099  0.5226  1.0821  0.5288
 6088TIP3   OH218269   5.848   5.353   3.047 -0.1017  0.5445  0.3320
 6088TIP3    H118270   5.881   5.293   2.981  0.6859  1.4578 -0.1363
 6088TIP3    H218271   5.821   5.297   3.120  0.4975 -0.3715 -0.1335
 6089TIP3   OH218272   3.402   3.592   1.479 -0.5855  0.0707 -0.0476
 6089TIP3    H118273   3.355   3.528   1.532 -1.0853 -1.1330 -1.8655
 6089TIP3    H218274   3.477   3.544   1.445 -0.1243  0.9053 -0.2252
 6090TIP3   OH218275   2.415   1.763   2.089 -0.1210  0.0981  0.3413
 6090TIP3    H118276   2.383   1.800   2.171  0.5220  1.6437 -0.0828
 6090TIP3    H218277   2.503   1.731   2.109 -0.9754 -2.1391  0.9313
 6091TIP3   OH218278   2.004   1.456   0.145  0.2415 -0.0625 -0.0334
 6091TIP3    H118279   2.039   1.541   0.172 -0.5596 -0.0879  1.1531
 6091TIP3    H218280   2.011   1.457   0.049 -0.5180  1.7011 -0.1170
 6092TIP3   OH218281   4.428   1.308   2.170 -0.0680  0.0428 -0.3388
 6092TIP3    H118282   4.358   1.296   2.107 -1.0629 -0.2385  0.7785
 6092TIP3    H218283   4.492   1.364   2.126 -0.4740 -0.5840 -1.7639
 6093TIP3   OH218284   4.357   1.760   1.686  0.0188  0.5323 -0.3163
 6093TIP3    H118285   4.321   1.847   1.701 -1.4573 -0.0457 -0.3173
 6093TIP3    H218286   4.281   1.704   1.674  0.9108 -0.8976  0.3726
 6094TIP3   OH218287   1.740   4.244   3.837 -0.5066  0.3543  0.7016
 6094TIP3    H118288   1.784   4.234   3.922 -0.3287 -2.2791  0.3825
 6094TIP3    H218289   1.691   4.163   3.826 -1.3050  1.0478 -1.3124
 6095TIP3   OH218290   5.729   2.416   0.417  0.5456 -0.4199  0.1142
 6095TIP3    H118291   5.755   2.491   0.365 -0.0988 -0.2031  0.0921
 6095TIP3    H218292   5.801   2.354   0.408  0.6646 -0.1851 -0.6271
 6096TIP3   OH218293   5.541   3.667   0.240  0.0934 -0.4594  0.8204
 6096TIP3    H118294   5.562   3.760   0.252 -1.3403 -0.0141  0.1154
 6096TIP3    H218295   5.499   3.662   0.155  0.0811 -1.7574  0.8783
 6097TIP3   OH218296   6.145   3.877   4.796 -0.8888 -0.2860 -0.3414
 6097TIP3    H118297   6.102   3.792   4.805 -0.8253 -0.2184  0.7192
 6097TIP3    H218298   6.208   3.880   4.868 -0.0073  0.1577 -1.1075
 6098TIP3   OH218299   0.044   4.608   0.095 -0.7035  0.5476 -0.5851
 6098TIP3    H118300   0.002   4.542   0.149  0.8653  0.7179  0.9494
 6098TIP3    H218301   0.037   4.689   0.146  2.7975  0.2750  0.6422
 6099TIP3   OH218302   2.612   0.993   0.868 -0.1371  0.0945 -0.2122
 6099TIP3    H118303   2.574   0.942   0.797 -1.7868  1.9042 -0.7429
 6099TIP3    H218304   2.629   1.079   0.830  0.4695  0.6294  1.1806
 6100TIP3   OH218305   2.398   3.878   0.835  0.2150  0.6271  0.4497
 6100TIP3    H118306   2.318   3.827   0.847  1.5404 -1.8456 -0.5071
 6100TIP3    H218307   2.412   3.880   0.741  2.6549 -1.4323  0.6616
 6101TIP3   OH218308   6.080   4.841   4.355  0.1082  0.8919  0.1225
 6101TIP3    H118309   6.131   4.851   4.275  1.1515  0.2778  0.6873
 6101TIP3    H218310   6.010   4.779   4.332 -0.1919  1.4677 -0.5621
 6102TIP3   OH218311   4.792   4.056   0.665 -0.4001 -0.2117  0.1222
 6102TIP3    H118312   4.862   3.991   0.676  1.6292  2.0889  2.1629
 6102TIP3    H218313   4.717   4.018   0.712 -0.8385 -2.9465 -2.5140
 6103TIP3   OH218314   3.949   0.856   1.734 -0.2365 -0.1586 -0.3397
 6103TIP3    H118315   3.928   0.872   1.642 -1.5824  1.2001  0.1600
 6103TIP3    H218316   3.872   0.885   1.782  0.2120 -1.3556  1.2070
 6104TIP3   OH218317   4.085   5.517   4.301 -0.2314  0.0236  0.0977
 6104TIP3    H118318   4.012   5.518   4.363 -0.5327  0.5402 -0.2558
 6104TIP3    H218319   4.161   5.543   4.352 -0.5370  0.7617  0.1824
 6105TIP3   OH218320   3.390   5.429   2.840  0.3957  0.2384  0.0218
 6105TIP3    H118321   3.451   5.454   2.771 -0.8258  0.8776 -0.8753
 6105TIP3    H218322   3.371   5.336   2.822  0.8156  0.1379  0.0854
 6106TIP3   OH218323   6.310   0.141   4.418  0.1187  0.4833  0.0882
 6106TIP3    H118324   6.285   0.085   4.492  2.5627  0.1168  0.7468
 6106TIP3    H218325   6.339   0.079   4.351 -0.8529  0.8685 -0.7115
 6107TIP3   OH218326   1.360   4.460   1.949 -0.1652 -0.8308 -1.1399
 6107TIP3    H118327   1.431   4.475   1.887 -0.0942 -1.4611 -1.2201
 6107TIP3    H218328   1.334   4.369   1.934 -0.9197 -0.6367 -1.0370
 6108TIP3   OH218329   0.590   3.019   1.512  0.2794 -0.2614 -0.6536
 6108TIP3    H118330   0.596   3.060   1.599 -0.8149 -1.3247 -0.0416
 6108TIP3    H218331   0.661   3.060   1.462  1.4078 -0.1241  0.9438
 6109TIP3   OH218332   1.313   1.186   2.121  0.0996 -0.4515 -0.4426
 6109TIP3    H118333   1.404   1.210   2.105 -0.5410  0.6892 -2.7235
 6109TIP3    H218334   1.277   1.166   2.034 -1.9045 -0.5938  0.3584
 6110TIP3   OH218335   5.801   4.444   3.347 -0.2541 -0.4812  0.4422
 6110TIP3    H118336   5.707   4.432   3.356 -0.1187 -1.7814  0.2062
 6110TIP3    H218337   5.831   4.368   3.298  0.7404  0.5557 -0.6337
 6111TIP3   OH218338   5.936   0.692   1.774  0.0983 -0.2802  0.0843
 6111TIP3    H118339   5.926   0.607   1.729  1.8309 -0.2170 -0.5387
 6111TIP3    H218340   5.877   0.687   1.848 -0.4621 -1.7170 -0.4104
 6112TIP3   OH218341   0.562   4.364   3.354  0.2199 -0.4182  0.1781
 6112TIP3    H118342   0.541   4.311   3.430 -0.0591  0.3055  0.6145
 6112TIP3    H218343   0.532   4.452   3.376 -1.0717 -0.4447 -1.2783
 6113TIP3   OH218344   5.691   1.712   2.779 -0.1821 -0.3131  0.4099
 6113TIP3    H118345   5.606   1.753   2.772 -0.6151 -1.1347  0.6750
 6113TIP3    H218346   5.679   1.626   2.738  0.1809 -0.9084  1.5062
 6114TIP3   OH218347   1.280   3.357   2.204 -0.2387  0.5658  0.2053
 6114TIP3    H118348   1.349   3.315   2.152 -0.8984  0.0172 -0.2449
 6114TIP3    H218349   1.328   3.412   2.266  0.6783 -1.2310  1.1721
 6115TIP3   OH218350   0.584   1.076   1.694 -0.3697 -0.3146 -0.5698
 6115TIP3    H118351   0.668   1.119   1.713 -1.0051  1.2304 -1.0998
 6115TIP3    H218352   0.532   1.144   1.652 -1.9867 -1.1871 -0.0352
 6116TIP3   OH218353   2.743   1.017   3.622  0.3737  0.3772  0.1382
 6116TIP3    H118354   2.763   0.940   3.676  1.5949  0.5324 -0.0780
 6116TIP3    H218355   2.824   1.036   3.576 -0.1392  1.3481 -0.3879
 6117TIP3   OH218356   4.198   4.165   3.728  0.4152  0.4641  0.7227
 6117TIP3    H118357   4.122   4.192   3.779 -1.4012 -3.7482  0.6730
 6117TIP3    H218358   4.261   4.132   3.792  0.1853 -0.3454  0.5452
 6118TIP3   OH218359   1.227   2.831   1.174  0.2048  0.2457 -0.6322
 6118TIP3    H118360   1.227   2.772   1.249  1.8315 -0.7819 -1.3527
 6118TIP3    H218361   1.318   2.829   1.143 -0.3975  0.6393 -2.5870
 6119TIP3   OH218362   4.984   3.345   1.775  0.2805 -0.0722  0.2627
 6119TIP3    H118363   4.889   3.341   1.787  0.2284 -0.5722 -0.2574
 6119TIP3    H218364   5.010   3.254   1.759  0.3439  0.3895 -3.1248
 6120TIP3   OH218365   2.701   1.281   3.600 -0.0484 -0.0955  0.2575
 6120TIP3    H118366   2.721   1.193   3.629  0.8809 -0.6094 -1.7412
 6120TIP3    H218367   2.757   1.338   3.653  0.9550 -0.8982  0.0782
 6121TIP3   OH218368   5.647   1.931   3.603 -0.0269  0.3235  0.2744
 6121TIP3    H118369   5.721   1.870   3.610  0.4555  0.8510 -0.1810
 6121TIP3    H218370   5.576   1.877   3.569  0.8610  0.3460 -1.7561
 6122TIP3   OH218371   1.897   2.999   4.985 -0.5021 -0.2581 -0.1729
 6122TIP3    H118372   1.849   2.934   5.036 -0.2872 -0.9962 -0.8801
 6122TIP3    H218373   1.966   3.030   5.044 -1.0167 -0.1763  0.3942
 6123TIP3   OH218374   5.122   2.043   1.331 -0.5712  0.4486 -0.0607
 6123TIP3    H118375   5.028   2.024   1.328 -0.9896  2.3018 -0.0558
 6123TIP3    H218376   5.128   2.121   1.386  1.1236 -0.3674  0.9996
 6124TIP3   OH218377   5.093   0.411   4.385 -0.2632  0.3192  0.0436
 6124TIP3    H118378   5.161   0.364   4.435  1.5778  0.4889 -2.1278
 6124TIP3    H218379   5.060   0.347   4.323 -1.2365  0.5890  0.2720
 6125TIP3   OH218380   1.532   5.502   4.873 -0.1181  0.1473  0.1752
 6125TIP3    H118381   1.523   5.507   4.778  0.3645  1.0907  0.1664
 6125TIP3    H218382   1.605   5.442   4.887 -1.2604 -1.3230  0.0176
 6126TIP3   OH218383   4.574   2.899   2.400 -0.3318 -0.6677 -0.1488
 6126TIP3    H118384   4.656   2.903   2.351 -0.2283 -2.9586 -0.2612
 6126TIP3    H218385   4.523   2.975   2.369  1.0626 -0.1619 -1.2858
 6127TIP3   OH218386   3.080   1.299   3.737 -0.4334  0.5271 -0.4156
 6127TIP3    H118387   3.170   1.302   3.769 -0.4978  1.0277 -0.2642
 6127TIP3    H218388   3.088   1.296   3.641 -0.1986 -2.9173 -0.4144
 6128TIP3   OH218389   4.957   5.601   0.839 -0.2821 -0.2519  0.6311
 6128TIP3    H118390   5.048   5.605   0.809 -0.7579  0.5739 -0.7698
 6128TIP3    H218391   4.926   5.514   0.813 -0.3226  0.0061 -0.1900
 6129TIP3   OH218392   1.724   4.173   0.210 -0.3141  0.6001 -0.0483
 6129TIP3    H118393   1.747   4.098   0.265 -1.9805 -1.3256 -1.8488
 6129TIP3    H218394   1.739   4.249   0.267  0.3877 -1.1196  2.2118
 6130TIP3   OH218395   4.361   4.572   4.796  0.3668  0.2673  1.3930
 6130TIP3    H118396   4.273   4.554   4.763  0.3699 -0.3579  1.7088
 6130TIP3    H218397   4.405   4.487   4.796  1.5277  0.8168 -0.2969
 6131TIP3   OH218398   2.032   5.265   1.470  0.0187  0.4132  0.6495
 6131TIP3    H118399   2.109   5.320   1.453  0.4299 -0.2109  0.4463
 6131TIP3    H218400   2.040   5.243   1.563  1.7497 -2.0655  0.0218
 6132TIP3   OH218401   0.188   0.491   5.140  0.2668  0.5956 -0.0507
 6132TIP3    H118402   0.127   0.457   5.075 -3.3463 -0.5358  3.5407
 6132TIP3    H218403   0.219   0.413   5.187  0.2732  1.5035  1.5457
 6133TIP3   OH218404   3.337   3.844   4.673 -0.5880 -0.1487  0.3712
 6133TIP3    H118405   3.393   3.768   4.657  0.0757  0.1632  1.1067
 6133TIP3    H218406   3.262   3.810   4.721  0.1303 -0.2398  1.4885
 6134TIP3   OH218407   5.613   0.620   0.884 -0.2259 -0.3530  0.0015
 6134TIP3    H118408   5.680   0.685   0.866 -0.7700  0.0555 -0.6052
 6134TIP3    H218409   5.600   0.574   0.801 -1.9152  0.7562 -0.4216
 6135TIP3   OH218410   5.264   1.408   2.684 -0.4446 -0.3869 -0.0475
 6135TIP3    H118411   5.189   1.412   2.744 -1.5861  0.0086 -1.4386
 6135TIP3    H218412   5.312   1.489   2.700  0.2111 -1.0355  1.4649
 6136TIP3   OH218413   3.699   1.034   2.691  0.1504  0.1526 -0.4108
 6136TIP3    H118414   3.674   1.062   2.779 -3.1358  0.5264 -1.3089
 6136TIP3    H218415   3.662   0.946   2.683  1.1498 -0.2139 -1.1425
 6137TIP3   OH218416   3.660   2.167   0.399 -0.2491 -0.3413  0.1004
 6137TIP3    H118417   3.750   2.162   0.369 -0.3816  2.1252 -0.9459
 6137TIP3    H218418   3.633   2.076   0.412  2.1497 -1.1457 -0.2052
 6138TIP3   OH218419   2.416   1.142   2.203  0.5481 -0.3232  0.2723
 6138TIP3    H118420   2.464   1.168   2.124  0.8807  0.7868  0.8263
 6138TIP3    H218421   2.343   1.089   2.170 -0.1369  1.2716 -0.9196
 6139TIP3   OH218422   1.670   2.236   4.683 -0.2844 -0.1618 -0.0191
 6139TIP3    H118423   1.587   2.222   4.637 -0.0279  1.1286 -0.9545
 6139TIP3    H218424   1.661   2.189   4.765 -1.6130 -0.7468 -0.4759
 6140TIP3   OH218425   1.812   4.157   4.499  0.0064 -0.8960  0.1462
 6140TIP3    H118426   1.886   4.126   4.447 -0.5140 -1.4930 -0.2497
 6140TIP3    H218427   1.816   4.107   4.580 -0.2093 -1.2301 -0.0497
 6141TIP3   OH218428   2.422   5.910   1.052 -0.1832  0.4022 -0.2060
 6141TIP3    H118429   2.330   5.913   1.026  0.3447  0.8426 -2.2454
 6141TIP3    H218430   2.438   5.994   1.094 -0.1871  1.3541 -2.0002
 6142TIP3   OH218431   6.357   4.297   5.020  0.1754  0.2095 -0.0215
 6142TIP3    H118432   6.281   4.293   4.963  0.3736 -0.1019 -0.2634
 6142TIP3    H218433   6.320   4.303   5.109 -0.1386 -1.2754 -0.0378
 6143TIP3   OH218434   3.069   0.603   2.757 -0.0467  0.3844  0.2160
 6143TIP3    H118435   2.974   0.598   2.755 -0.0203 -0.3329  0.5028
 6143TIP3    H218436   3.089   0.697   2.749 -0.7407  0.4656 -0.7560
 6144TIP3   OH218437   4.191   1.551   1.893 -0.1943 -0.2950  0.1456
 6144TIP3    H118438   4.140   1.626   1.926  0.9156  0.3590  0.4396
 6144TIP3    H218439   4.135   1.512   1.826 -0.0309  2.0289 -1.4965
 6145TIP3   OH218440   1.000   4.284   4.703 -0.2831 -1.2944 -0.2282
 6145TIP3    H118441   1.043   4.234   4.633 -0.0087 -0.2706 -0.8278
 6145TIP3    H218442   0.938   4.341   4.656 -0.9680 -1.4528  0.4778
 6146TIP3   OH218443   6.187   2.799   4.549  0.4620 -0.1057 -0.3345
 6146TIP3    H118444   6.165   2.847   4.469 -1.0530  0.2279  0.2494
 6146TIP3    H218445   6.182   2.707   4.524 -1.7346 -0.0574 -0.2582
 6147TIP3   OH218446   3.864   4.351   2.576  0.4017 -0.6442  0.2591
 6147TIP3    H118447   3.776   4.344   2.611  0.2290 -0.7781 -0.1872
 6147TIP3    H218448   3.920   4.308   2.641 -0.0204 -1.7145 -0.0601
 6148TIP3   OH218449   5.869   3.191   4.597  0.1023 -0.4432 -0.1621
 6148TIP3    H118450   5.829   3.114   4.638 -0.0699 -1.5164 -2.1867
 6148TIP3    H218451   5.827   3.196   4.511  2.4285 -0.0355 -1.3460
 6149TIP3   OH218452   0.484   5.332   2.392 -0.3436 -0.2184  0.2957
 6149TIP3    H118453   0.501   5.345   2.299  1.4976 -0.1812  0.5980
 6149TIP3    H218454   0.486   5.237   2.404  1.0219 -0.1878  0.5238
 6150TIP3   OH218455   0.237   5.749   3.916 -0.0272 -0.9814 -0.0768
 6150TIP3    H118456   0.313   5.694   3.895  0.2143 -0.1802 -1.4220
 6150TIP3    H218457   0.164   5.705   3.873 -0.0786 -1.0080  0.0386
 6151TIP3   OH218458   2.397   0.863   2.481 -0.1218 -0.2780  0.0195
 6151TIP3    H118459   2.313   0.830   2.511  0.0674 -0.2569  0.5885
 6151TIP3    H218460   2.447   0.785   2.458 -0.9573 -0.2220 -2.1856
 6152TIP3   OH218461   0.462   1.892   0.067  0.3638  0.1353 -0.5241
 6152TIP3    H118462   0.497   1.975   0.035  1.8052 -0.0082  0.5934
 6152TIP3    H218463   0.485   1.890   0.160  1.1291 -1.9069 -0.7077
 6153TIP3   OH218464   4.415   1.696   5.029  0.3949 -1.0031  0.6854
 6153TIP3    H118465   4.359   1.668   5.101 -1.2728  3.0599  1.2827
 6153TIP3    H218466   4.354   1.715   4.957  1.3662  0.1688  0.1215
 6154TIP3   OH218467   1.087   0.943   3.934 -0.1985  0.2237  0.3164
 6154TIP3    H118468   1.163   0.967   3.987  0.0126  0.1288  0.0584
 6154TIP3    H218469   1.115   0.866   3.885 -0.2705  0.5317 -0.2069
 6155TIP3   OH218470   0.607   2.739   1.510 -0.4483  0.5546  0.0244
 6155TIP3    H118471   0.627   2.711   1.599  0.6855  0.4703 -0.2357
 6155TIP3    H218472   0.607   2.834   1.514 -0.0854  0.5567  0.0654
 6156TIP3   OH218473   1.097   4.178   1.560  0.0387  0.5848 -0.0423
 6156TIP3    H118474   1.168   4.159   1.498  0.1980  0.5291  0.1579
 6156TIP3    H218475   1.113   4.120   1.634 -1.0081 -0.4573 -0.5903
 6157TIP3   OH218476   3.639   1.737   1.197 -0.0999 -0.2754 -0.3938
 6157TIP3    H118477   3.600   1.738   1.285 -0.8629 -0.2448 -0.7303
 6157TIP3    H218478   3.632   1.645   1.170 -0.5081 -0.1539 -0.7046
 6158TIP3   OH218479   5.770   1.405   0.940  0.2371 -0.1937 -0.1852
 6158TIP3    H118480   5.705   1.401   0.869 -0.2952  0.4382  0.2546
 6158TIP3    H218481   5.751   1.487   0.985 -0.9699 -1.6608  2.1736
 6159TIP3   OH218482   4.108   4.749   2.248 -0.5083 -1.0550 -0.4822
 6159TIP3    H118483   4.117   4.759   2.154 -0.9437 -4.0673 -0.9414
 6159TIP3    H218484   4.017   4.725   2.262 -0.8594  0.8489  0.9315
 6160TIP3   OH218485   0.998   3.130   1.884  0.2202 -0.6071 -0.3903
 6160TIP3    H118486   1.053   3.133   1.962 -0.1130 -1.4238 -0.1116
 6160TIP3    H218487   0.929   3.068   1.906 -0.3015 -0.2825 -1.0678
 6161TIP3   OH218488   3.183   0.858   3.830  0.5454  0.0258 -0.2155
 6161TIP3    H118489   3.219   0.938   3.869 -0.3614  0.9064 -1.1078
 6161TIP3    H218490   3.249   0.829   3.768 -0.0304  1.3535 -1.4946
 6162TIP3   OH218491   3.372   5.168   0.500 -0.7489  0.0290 -0.0271
 6162TIP3    H118492   3.372   5.139   0.592 -0.6477 -0.2567 -0.1159
 6162TIP3    H218493   3.456   5.137   0.466 -0.5384  0.6285 -0.0632
 6163TIP3   OH218494   4.095   0.697   4.911  0.0231  0.4959  0.0949
 6163TIP3    H118495   4.066   0.768   4.969  1.9589  1.2160  0.2466
 6163TIP3    H218496   4.083   0.732   4.823  0.7951  0.9676  0.1667
 6164TIP3   OH218497   0.970   3.420   2.609  0.5474 -0.2589 -0.0923
 6164TIP3    H118498   0.949   3.329   2.631  1.5728 -0.2164  1.1253
 6164TIP3    H218499   0.929   3.472   2.678  1.2338  0.1001  0.0534
 6165TIP3   OH218500   2.272   3.208   2.120  0.2309 -0.2756 -0.1216
 6165TIP3    H118501   2.186   3.177   2.094 -0.0106  0.7370 -0.5690
 6165TIP3    H218502   2.329   3.186   2.046  0.2734 -0.5838  0.0032
 6166TIP3   OH218503   1.976   3.335   0.536  0.3383 -0.2738  0.0986
 6166TIP3    H118504   1.927   3.394   0.479  0.6683 -0.2853 -0.2022
 6166TIP3    H218505   1.913   3.308   0.603  0.4411  1.2054  0.8394
 6167TIP3   OH218506   1.024   1.450   2.400 -0.2629  0.2176 -0.3164
 6167TIP3    H118507   1.106   1.479   2.361 -0.5787  0.8911 -0.4982
 6167TIP3    H218508   1.039   1.358   2.421  0.8837  0.5976  0.6127
 6168TIP3   OH218509   3.362   1.199   1.983 -0.4718 -0.2246 -0.0501
 6168TIP3    H118510   3.289   1.152   1.943 -1.2134  0.4440  0.4866
 6168TIP3    H218511   3.434   1.136   1.983 -0.8853 -0.7223 -1.0628
 6169TIP3   OH218512   2.977   2.546   0.333  0.2671 -0.0470  0.2542
 6169TIP3    H118513   3.055   2.600   0.338  0.2880 -0.1837  1.8681
 6169TIP3    H218514   2.908   2.606   0.305  1.0875 -0.1405 -2.2384
 6170TIP3   OH218515   4.613   5.746   1.129 -0.2625 -0.3257 -0.2828
 6170TIP3    H118516   4.569   5.811   1.184  0.5211  1.8020 -2.0215
 6170TIP3    H218517   4.544   5.684   1.106 -0.7018 -1.0485  2.6353
 6171TIP3   OH218518   0.739   5.934   0.922  0.0729 -0.5298 -0.1814
 6171TIP3    H118519   0.794   5.860   0.946 -0.9683 -0.8264  1.4192
 6171TIP3    H218520   0.697   5.961   1.004 -0.2573  1.2773 -0.8890
 6172TIP3   OH218521   1.493   0.461   0.279 -0.7889  0.4474 -1.0642
 6172TIP3    H118522   1.519   0.535   0.333  1.0502  0.3830 -1.7628
 6172TIP3    H218523   1.429   0.413   0.332 -0.9341  1.7445 -0.0193
 6173TIP3   OH218524   1.130   5.577   1.727  0.4882  0.3091 -0.1612
 6173TIP3    H118525   1.212   5.606   1.768 -0.3617 -0.4689  2.2115
 6173TIP3    H218526   1.095   5.512   1.787 -0.4079 -1.6248 -2.6400
 6174TIP3   OH218527   1.797   3.378   4.557 -0.2122 -0.0133 -0.3853
 6174TIP3    H118528   1.765   3.413   4.640 -1.3349  0.5439 -1.0263
 6174TIP3    H218529   1.889   3.407   4.553  1.1585 -3.3089  2.3933
 6175TIP3   OH218530   6.145   3.736   1.245  0.1460 -0.3176 -0.5960
 6175TIP3    H118531   6.210   3.800   1.215  1.4653 -1.2015  0.2539
 6175TIP3    H218532   6.141   3.671   1.175  0.6635 -0.5917 -0.3755
 6176TIP3   OH218533   0.986   1.139   0.690 -0.0705  0.3253 -0.3728
 6176TIP3    H118534   1.054   1.146   0.757  0.2505 -1.6494 -0.4269
 6176TIP3    H218535   1.019   1.072   0.630 -2.1821 -0.9237 -0.2366
 6177TIP3   OH218536   0.049   4.037   1.706 -0.3632  0.6409 -0.4268
 6177TIP3    H118537   0.017   4.042   1.797  0.1707 -1.2312 -0.1071
 6177TIP3    H218538   0.126   4.095   1.705  0.5723 -0.5141  0.7668
 6178TIP3   OH218539   4.684   3.320   0.997 -0.9735 -0.1828 -0.1293
 6178TIP3    H118540   4.778   3.311   1.012 -0.6576  1.0928 -1.2378
 6178TIP3    H218541   4.665   3.411   1.017 -1.9459 -0.3776 -0.1258
 6179TIP3   OH218542   0.822   1.242   5.141  0.0605 -0.6698  0.0154
 6179TIP3    H118543   0.781   1.231   5.055 -1.1033  0.6383  0.3675
 6179TIP3    H218544   0.754   1.220   5.204  0.8302 -1.3818  0.6191
 6180TIP3   OH218545   0.134   4.082   0.078  0.7836 -0.1160 -0.2021
 6180TIP3    H118546   0.114   3.996   0.042  1.6531  0.2868 -1.7217
 6180TIP3    H218547   0.061   4.101   0.137 -0.1339 -1.2751 -0.9299
 6181TIP3   OH218548   4.462   3.220   4.911 -1.0282 -0.2255 -0.1619
 6181TIP3    H118549   4.483   3.247   4.821  2.1504 -0.5249  0.3729
 6181TIP3    H218550   4.439   3.301   4.956  0.3545  0.4275 -0.5644
 6182TIP3   OH218551   4.210   5.262   3.629  0.2323  0.1268 -0.4914
 6182TIP3    H118552   4.253   5.243   3.712  1.6858  0.0170 -1.2266
 6182TIP3    H218553   4.117   5.267   3.650  0.7154  2.3680  1.5837
 6183TIP3   OH218554   5.010   2.464   1.300 -0.5038 -0.1497  0.0128
 6183TIP3    H118555   5.080   2.402   1.319 -0.7661 -0.1503  1.0056
 6183TIP3    H218556   4.973   2.434   1.217  0.0808 -0.6721 -0.0653
 6184TIP3   OH218557   0.251   4.616   4.040 -0.4907  0.5259  0.3352
 6184TIP3    H118558   0.337   4.633   4.078 -0.5253  0.2609  0.5324
 6184TIP3    H218559   0.261   4.639   3.948 -0.5986  1.8338  0.6300
 6185TIP3   OH218560   3.495   1.789   2.590  0.4789 -0.3016 -0.1279
 6185TIP3    H118561   3.584   1.754   2.595  0.7756  0.3083 -0.9858
 6185TIP3    H218562   3.445   1.720   2.546  0.5275 -0.6332  0.3316
 6186TIP3   OH218563   0.388   0.844   1.011  0.0200  0.6254 -0.3341
 6186TIP3    H118564   0.367   0.919   0.955  0.3204  1.7473  0.9805
 6186TIP3    H218565   0.321   0.779   0.990 -0.7820  1.6040 -0.9087
 6187TIP3   OH218566   0.918   0.269   3.899  0.1150 -0.1170  0.1056
 6187TIP3    H118567   0.989   0.309   3.950  0.2881  1.2073 -1.1257
 6187TIP3    H218568   0.928   0.305   3.811 -2.9986  1.3430  0.2369
 6188TIP3   OH218569   3.887   5.487   4.013  0.7630 -0.0239 -0.6315
 6188TIP3    H118570   3.935   5.512   3.934 -1.0442  1.4071 -1.3523
 6188TIP3    H218571   3.921   5.544   4.081 -0.9459  2.1816 -1.5108
 6189TIP3   OH218572   3.255   5.916   4.927  0.3794 -0.2285  0.1807
 6189TIP3    H118573   3.292   6.002   4.944  0.9343 -0.2881 -0.6947
 6189TIP3    H218574   3.213   5.923   4.842  0.4603 -0.8361  0.0835
 6190TIP3   OH218575   5.164   3.091   1.690 -0.1633  0.2765  0.4908
 6190TIP3    H118576   5.201   3.168   1.648 -0.0684  0.2716  0.5662
 6190TIP3    H218577   5.113   3.048   1.621  0.1418  0.1705  0.3336
 6191TIP3   OH218578   3.832   5.233   2.439 -0.9832 -0.5479 -0.1567
 6191TIP3    H118579   3.759   5.172   2.443 -1.3209 -0.4476 -2.9774
 6191TIP3    H218580   3.797   5.310   2.394  0.6177 -0.1508 -0.8070
 6192TIP3   OH218581   0.329   3.574   3.575 -0.2440  0.0376 -0.5706
 6192TIP3    H118582   0.328   3.657   3.527  0.5133 -0.5134 -1.5779
 6192TIP3    H218583   0.246   3.532   3.552 -0.7896  0.6558  0.2229
 6193TIP3   OH218584   5.502   0.903   3.974 -0.3267 -0.4287 -0.3436
 6193TIP3    H118585   5.468   0.885   4.062  0.1141 -1.7376 -0.4242
 6193TIP3    H218586   5.440   0.966   3.937 -0.0277  0.8679  1.2184
 6194TIP3   OH218587   0.487   5.065   2.229 -0.1331 -1.0459 -0.1901
 6194TIP3    H118588   0.572   5.077   2.272 -0.3411 -0.8908  0.1887
 6194TIP3    H218589   0.438   5.009   2.290 -0.7457 -0.0969  0.2166
 6195TIP3   OH218590   3.318   1.358   2.246  0.4065 -0.1452  0.0959
 6195TIP3    H118591   3.301   1.326   2.157 -0.1350 -0.3876  0.2831
 6195TIP3    H218592   3.243   1.413   2.267  0.6987  0.1908  0.2788
 6196TIP3   OH218593   4.480   2.700   1.022  0.1297  0.0986  0.1214
 6196TIP3    H118594   4.536   2.634   1.063 -0.1461 -0.9025 -1.0254
 6196TIP3    H218595   4.392   2.682   1.056  0.2656  0.7792  0.8603
 6197TIP3   OH218596   6.066   2.259   2.566  0.3696  0.0915  0.4940
 6197TIP3    H118597   6.112   2.285   2.646  0.4983 -0.6148  0.6551
 6197TIP3    H218598   6.032   2.341   2.531  0.0473  0.3768  1.4344
 6198TIP3   OH218599   3.015   0.583   3.324 -0.1209 -0.5070 -0.7581
 6198TIP3    H118600   2.981   0.582   3.414 -0.8038  0.1095 -0.9998
 6198TIP3    H218601   2.940   0.610   3.270  0.5989  0.3418 -1.3678
 6199TIP3   OH218602   5.977   0.674   0.169 -0.3008  0.1077 -0.1151
 6199TIP3    H118603   5.927   0.626   0.102 -0.6371 -0.4898  0.5548
 6199TIP3    H218604   5.912   0.698   0.235 -0.3090  2.2610 -0.8269
 6200TIP3   OH218605   4.825   3.704   2.488 -0.2291  0.1639  0.1901
 6200TIP3    H118606   4.856   3.728   2.400  0.8856  0.6525  0.7014
 6200TIP3    H218607   4.729   3.712   2.482 -0.0973  1.5160 -0.6066
 6201TIP3   OH218608   1.728   1.880   2.134 -0.2697  0.2442 -0.3408
 6201TIP3    H118609   1.662   1.945   2.156 -1.8604 -1.5961  0.6248
 6201TIP3    H218610   1.745   1.834   2.216  2.3977  0.7570 -0.5240
 6202TIP3   OH218611   3.819   3.031   1.040 -0.5224 -0.3299 -0.2023
 6202TIP3    H118612   3.758   2.965   1.072  1.1880 -1.0333  1.8369
 6202TIP3    H218613   3.906   2.992   1.051  0.4097  1.1714 -1.6414
 6203TIP3   OH218614   0.507   2.450   4.436  0.5745  1.0598 -0.2783
 6203TIP3    H118615   0.450   2.522   4.463 -0.7087  0.2807 -0.8390
 6203TIP3    H218616   0.551   2.482   4.358 -0.5059  1.0176 -0.9259
 6204TIP3   OH218617   3.654   0.610   1.730 -0.3384  0.0204  0.4689
 6204TIP3    H118618   3.619   0.564   1.806  1.3740 -3.0126 -0.4033
 6204TIP3    H218619   3.585   0.603   1.664 -1.0925  1.0631  1.0976
 6205TIP3   OH218620   0.885   1.884   4.012 -0.1909 -0.5604 -0.0796
 6205TIP3    H118621   0.817   1.821   4.035 -0.8709  0.2497  0.1549
 6205TIP3    H218622   0.931   1.843   3.938 -0.6325 -1.3170  0.0540
 6206TIP3   OH218623   3.083   4.603   0.320  0.3351  0.4076 -0.0705
 6206TIP3    H118624   3.039   4.523   0.289  0.2936 -0.2423  1.5177
 6206TIP3    H218625   3.075   4.665   0.248 -0.7528 -0.6171 -0.8781
 6207TIP3   OH218626   5.632   4.067   2.191 -0.1663 -0.7750 -0.5190
 6207TIP3    H118627   5.619   4.145   2.138  0.4143  0.3121  0.8739
 6207TIP3    H218628   5.714   4.029   2.159  0.1100 -0.2046 -0.5018
 6208TIP3   OH218629   4.101   5.674   3.134 -0.2718 -0.3608  0.9783
 6208TIP3    H118630   4.098   5.580   3.116 -1.0095 -0.1963  0.1823
 6208TIP3    H218631   4.132   5.680   3.225 -2.2584 -1.4787  1.7989
 6209TIP3   OH218632   4.672   2.067   4.763  0.0725 -0.4890  0.2710
 6209TIP3    H118633   4.626   1.997   4.716  0.6734 -0.8236  0.1765
 6209TIP3    H218634   4.609   2.097   4.829 -0.4885 -0.5578 -0.2230
 6210TIP3   OH218635   4.190   0.582   3.866  0.4882  0.0722 -0.1161
 6210TIP3    H118636   4.202   0.669   3.827 -1.3461  0.3436 -0.1639
 6210TIP3    H218637   4.170   0.600   3.958 -1.3140 -0.1557 -0.4152
 6211TIP3   OH218638   4.449   4.334   2.999  0.0927 -0.2217  0.5768
 6211TIP3    H118639   4.473   4.288   3.079 -0.6172  0.1801  1.0332
 6211TIP3    H218640   4.515   4.307   2.935  0.8490 -0.3047  1.3761
 6212TIP3   OH218641   6.210   3.187   0.690 -0.0929 -0.1684 -0.1743
 6212TIP3    H118642   6.218   3.176   0.595 -1.1832  0.1523 -0.3175
 6212TIP3    H218643   6.137   3.248   0.701 -0.3095 -0.5952  0.8791
 6213TIP3   OH218644   4.584   1.832   3.863  0.8733  0.2771  0.1062
 6213TIP3    H118645   4.622   1.898   3.921  0.9474  0.7202 -0.4339
 6213TIP3    H218646   4.490   1.836   3.880  0.7841  1.1174 -0.5073
 6214TIP3   OH218647   5.886   2.546   0.664 -0.2004  0.0967 -0.6298
 6214TIP3    H118648   5.926   2.497   0.592 -1.0699  0.0948 -1.1291
 6214TIP3    H218649   5.950   2.613   0.686  0.0688  0.1201 -1.4410
 6215TIP3   OH218650   4.298   2.684   4.635 -0.0074  0.3268 -0.2261
 6215TIP3    H118651   4.383   2.640   4.636 -0.0093  0.3363  0.2911
 6215TIP3    H218652   4.243   2.628   4.581  1.0537  1.6833 -2.9042
 6216TIP3   OH218653   4.535   0.894   0.868 -0.3846 -0.1572  0.8234
 6216TIP3    H118654   4.496   0.982   0.869 -0.4913 -0.1953  0.3222
 6216TIP3    H218655   4.626   0.908   0.892 -0.4261  0.0783  0.8459
 6217TIP3   OH218656   5.022   2.148   0.127  0.4068  0.3681 -0.0638
 6217TIP3    H118657   5.025   2.062   0.168  1.4936  0.3537 -0.1536
 6217TIP3    H218658   5.061   2.136   0.041 -1.3487  0.5236 -0.9242
 6218TIP3   OH218659   6.294   1.705   0.997  0.5292 -0.1587  0.6552
 6218TIP3    H118660   6.206   1.706   0.960  0.3356  1.1497  1.1143
 6218TIP3    H218661   6.284   1.741   1.084  1.4633 -0.3817  0.8670
 6219TIP3   OH218662   3.617   4.091   0.068 -0.5203 -0.4063 -0.5677
 6219TIP3    H118663   3.608   4.028   0.140  0.1044  0.4642  0.2787
 6219TIP3    H218664   3.605   4.038  -0.011 -2.8815 -1.1110  0.1768
 6220TIP3   OH218665   2.055   4.033   4.057  0.3613 -0.3302 -0.1380
 6220TIP3    H118666   2.099   4.027   3.972 -0.9318 -1.3835 -0.7650
 6220TIP3    H218667   1.978   3.976   4.049 -0.2979  0.2734  1.4317
 6221TIP3   OH218668   1.963   2.981   3.527 -0.3302 -0.0337  0.3150
 6221TIP3    H118669   2.048   3.024   3.533 -1.2128  1.9955 -0.8433
 6221TIP3    H218670   1.926   2.988   3.614  0.6327 -0.9212  0.8295
 6222TIP3   OH218671   4.578   3.195   2.304 -0.1800 -0.1311  0.2143
 6222TIP3    H118672   4.655   3.148   2.272 -0.9845 -1.7030  0.4675
 6222TIP3    H218673   4.531   3.220   2.224  0.7974  1.2248  0.0485
 6223TIP3   OH218674   5.633   3.941   3.122 -0.4194 -0.4487  0.0563
 6223TIP3    H118675   5.567   3.890   3.169 -0.1505 -0.7743  0.0837
 6223TIP3    H218676   5.706   3.949   3.184 -0.0637 -0.8757 -0.2998
 6224TIP3   OH218677   3.251   4.858   3.166 -0.3198 -0.2727 -0.3084
 6224TIP3    H118678   3.188   4.915   3.120 -0.3846 -0.3905 -0.3675
 6224TIP3    H218679   3.337   4.891   3.139 -0.3329  0.7845  0.8719
 6225TIP3   OH218680   6.117   0.219   2.289  0.3602  0.4980  0.1824
 6225TIP3    H118681   6.035   0.252   2.327  0.7886  0.1123  1.5051
 6225TIP3    H218682   6.089   0.159   2.220 -0.4960  0.0486  0.8905
 6226TIP3   OH218683   2.184   5.943   0.883 -0.2852 -0.2096  0.0131
 6226TIP3    H118684   2.132   5.866   0.860  0.5608 -0.9817  0.6410
 6226TIP3    H218685   2.129   6.017   0.858 -1.5201 -1.0057  0.2898
 6227TIP3   OH218686   2.576   1.192   1.399 -0.1424 -0.1195  0.1801
 6227TIP3    H118687   2.640   1.197   1.470  1.2739 -2.2980 -0.8397
 6227TIP3    H218688   2.548   1.283   1.385  1.7207  0.7162  1.5504
 6228TIP3   OH218689   1.425   2.955   3.114  0.1387  0.2720 -0.1904
 6228TIP3    H118690   1.358   2.933   3.178 -0.2742  1.9781  0.0178
 6228TIP3    H218691   1.381   3.013   3.052  1.4305  1.5284  0.0130
 6229TIP3   OH218692   1.691   0.291   0.046  0.2067  0.0459 -0.7460
 6229TIP3    H118693   1.617   0.291  -0.016 -2.9360  3.0236  2.4950
 6229TIP3    H218694   1.742   0.368   0.021  1.0049 -0.7687 -1.6798
 6230TIP3   OH218695   5.176   0.782   3.302 -0.3145  0.1590  0.4097
 6230TIP3    H118696   5.095   0.733   3.286 -0.0206 -0.1297 -0.2024
 6230TIP3    H218697   5.218   0.735   3.375 -1.1975  0.9273  1.4429
 6231TIP3   OH218698   5.697   0.054   2.303 -0.7149 -0.4955 -0.2710
 6231TIP3    H118699   5.656   0.090   2.224 -1.2474 -0.1205  0.1655
 6231TIP3    H218700   5.719   0.132   2.356  1.2706 -0.6282 -0.8202
 6232TIP3   OH218701   3.475   2.038   0.022 -0.3712  0.3735 -0.1556
 6232TIP3    H118702   3.497   2.120  -0.022  1.5684 -0.0424 -0.0421
 6232TIP3    H218703   3.386   2.052   0.055 -0.0297  2.5057  0.0250
 6233TIP3   OH218704   2.470   4.451   4.042  0.4705 -0.5173  0.0279
 6233TIP3    H118705   2.551   4.426   3.997 -0.4981 -1.8324 -1.0842
 6233TIP3    H218706   2.418   4.371   4.044 -1.3775  0.6072 -0.5612
 6234TIP3   OH218707   3.710   1.233   1.281  0.5941  0.2815  0.5029
 6234TIP3    H118708   3.662   1.206   1.360 -1.0935  1.0765 -0.1878
 6234TIP3    H218709   3.801   1.239   1.309  0.3738 -1.5826  1.8243
 6235TIP3   OH218710   2.502   1.763   0.939  0.0660  0.2215  0.1345
 6235TIP3    H118711   2.516   1.680   0.892  0.2534  1.2231 -1.6558
 6235TIP3    H218712   2.406   1.770   0.945  0.0073  0.5325 -0.9736
 6236TIP3   OH218713   5.362   2.922   4.193  0.1332  0.5598 -0.3476
 6236TIP3    H118714   5.431   2.861   4.168 -0.0183  0.2705 -0.0719
 6236TIP3    H218715   5.369   2.928   4.288  0.3860  1.2616 -0.4101
 6237TIP3   OH218716   0.483   4.796   3.583 -0.3375  0.0175  0.3201
 6237TIP3    H118717   0.574   4.786   3.556 -0.2660 -2.1909  1.1490
 6237TIP3    H218718   0.439   4.830   3.506  1.2271  1.5155  0.0270
 6238TIP3   OH218719   1.794   1.870   1.861 -0.1816 -0.0342  0.8916
 6238TIP3    H118720   1.886   1.894   1.868 -0.4271  0.9705  0.8286
 6238TIP3    H218721   1.759   1.882   1.949  0.0513 -1.8154  1.2636
 6239TIP3   OH218722   2.213   4.470   2.001 -0.0208  0.4321 -0.1765
 6239TIP3    H118723   2.202   4.441   2.092  2.1186  0.8455  0.2705
 6239TIP3    H218724   2.265   4.550   2.007  0.0974  0.5129 -1.7716
 6240TIP3   OH218725   3.548   1.437   3.982  0.0438  0.1620 -0.3915
 6240TIP3    H118726   3.520   1.477   4.064  0.1298 -0.0901 -0.2376
 6240TIP3    H218727   3.603   1.504   3.940  0.3056  0.1517 -0.0681
 6241TIP3   OH218728   0.724   5.843   3.171  0.2444  0.0078 -0.2423
 6241TIP3    H118729   0.651   5.901   3.149 -0.6476 -0.3592  1.5457
 6241TIP3    H218730   0.714   5.769   3.110 -0.3640  0.3490 -0.5693
 6242TIP3   OH218731   0.706   3.247   0.666 -0.2675 -0.0973  0.1222
 6242TIP3    H118732   0.653   3.262   0.588  0.8670  1.6401 -0.3791
 6242TIP3    H218733   0.699   3.329   0.715  0.0600 -0.7088  1.2127
 6243TIP3   OH218734   6.010   4.798   1.838  0.4917 -0.0833 -0.8274
 6243TIP3    H118735   6.016   4.768   1.747 -0.4235 -0.6790 -0.7016
 6243TIP3    H218736   6.089   4.763   1.880  0.5906 -0.3630 -1.2394
 6244TIP3   OH218737   5.658   4.669   3.162 -0.5518  0.6252  0.6883
 6244TIP3    H118738   5.747   4.704   3.162 -1.1732  2.3239 -0.2522
 6244TIP3    H218739   5.641   4.644   3.253  1.0969 -0.3540  0.7632
 6245TIP3   OH218740   1.055   2.839   0.835 -0.2580  0.4043  0.0055
 6245TIP3    H118741   1.023   2.863   0.922 -2.9359  0.5026 -0.9076
 6245TIP3    H218742   0.976   2.813   0.787  1.2232 -0.3002 -2.1992
 6246TIP3   OH218743   5.963   4.155   4.162  0.5141  0.1946  0.7758
 6246TIP3    H118744   5.973   4.250   4.173 -0.3552  0.2817  0.8702
 6246TIP3    H218745   6.012   4.117   4.235  0.7953  0.5753  0.7868
 6247TIP3   OH218746   1.816   3.808   3.150 -0.2256 -0.0829 -0.0248
 6247TIP3    H118747   1.753   3.743   3.119  0.1522 -0.3241 -0.2949
 6247TIP3    H218748   1.797   3.817   3.243  0.4250 -1.4002  0.2666
 6248TIP3   OH218749   0.675   0.750   4.490  0.3630  0.8752  0.1548
 6248TIP3    H118750   0.742   0.814   4.514  1.4436 -0.3169  0.4983
 6248TIP3    H218751   0.705   0.669   4.532 -2.0710  0.5999  1.5569
 6249TIP3   OH218752   2.992   5.729   2.953 -0.2463  0.0492  0.1611
 6249TIP3    H118753   3.026   5.800   2.899 -1.6830  0.4051 -0.3224
 6249TIP3    H218754   2.910   5.763   2.989 -0.2936 -0.8936  1.0044
 6250TIP3   OH218755   0.188   5.199   4.191 -0.4214 -0.0373  0.3161
 6250TIP3    H118756   0.211   5.119   4.144  1.6588 -0.2353  1.5194
 6250TIP3    H218757   0.093   5.200   4.193 -0.4993 -2.1178 -0.3562
 6251TIP3   OH218758   5.927   5.146   0.448  0.4650 -0.0920 -0.1095
 6251TIP3    H118759   5.858   5.082   0.431  0.6793 -0.5782  0.7767
 6251TIP3    H218760   5.941   5.141   0.543 -0.3960  2.1754  0.1914
 6252TIP3   OH218761   2.613   2.834   0.410 -0.3452  0.3627  0.2646
 6252TIP3    H118762   2.575   2.782   0.481 -1.5565 -0.8552 -1.2234
 6252TIP3    H218763   2.690   2.876   0.450 -0.4707 -0.9840  2.0421
 6253TIP3   OH218764   1.158   4.066   4.512  0.1285 -0.8641 -0.3559
 6253TIP3    H118765   1.246   4.042   4.481  0.4900  2.0423 -1.9109
 6253TIP3    H218766   1.106   4.074   4.432 -0.8402 -0.0413  0.3411
 6254TIP3   OH218767   3.629   1.575   0.563 -0.0250 -0.0438  0.1101
 6254TIP3    H118768   3.662   1.607   0.479 -4.0334 -0.1931 -1.7609
 6254TIP3    H218769   3.642   1.480   0.560 -1.1043 -0.1820 -0.9017
 6255TIP3   OH218770   4.298   2.046   2.285  0.3703 -0.2797  0.7668
 6255TIP3    H118771   4.256   2.132   2.275 -2.2038 -1.5341 -0.1181
 6255TIP3    H218772   4.379   2.053   2.234 -0.6173  1.1155 -0.7170
 6256TIP3   OH218773   0.298   2.344   3.966  0.4325  0.1000  0.4382
 6256TIP3    H118774   0.392   2.323   3.971  0.5237  0.3302 -0.1612
 6256TIP3    H218775   0.294   2.439   3.977  0.4992  0.4109 -1.6549
 6257TIP3   OH218776   3.709   5.058   2.146  0.2660  0.1106 -0.3149
 6257TIP3    H118777   3.676   5.066   2.236 -0.4324  2.0856 -0.6958
 6257TIP3    H218778   3.669   4.977   2.114 -1.4340  0.6117  0.4015
 6258TIP3   OH218779   5.392   1.202   4.228 -0.4129 -0.1141  0.5139
 6258TIP3    H118780   5.361   1.137   4.290 -1.3407  0.4723  0.6845
 6258TIP3    H218781   5.375   1.164   4.142  0.8491 -0.9162  0.5855
 6259TIP3   OH218782   0.341   1.431   4.859 -0.2225  0.6787  0.2270
 6259TIP3    H118783   0.317   1.451   4.950 -0.5408  2.1290 -0.1511
 6259TIP3    H218784   0.276   1.477   4.806 -2.4623 -3.2385 -0.8021
 6260TIP3   OH218785   5.590   1.362   0.506  0.0900 -0.2050 -0.2409
 6260TIP3    H118786   5.505   1.362   0.549  0.6411 -1.1838  0.9221
 6260TIP3    H218787   5.639   1.292   0.550  1.7471  0.8173 -0.3783
 6261TIP3   OH218788   1.483   2.319   0.989 -0.4462 -0.1035 -0.2026
 6261TIP3    H118789   1.409   2.380   0.994 -1.5858 -1.4745  0.5859
 6261TIP3    H218790   1.445   2.234   1.014  1.2248 -1.0056 -0.6082
 6262TIP3   OH218791   1.733   1.424   1.658 -0.8435  0.1851  0.1980
 6262TIP3    H118792   1.794   1.467   1.718 -0.2680 -0.3668  0.0119
 6262TIP3    H218793   1.649   1.464   1.678 -0.2231  1.9002 -0.4221
 6263TIP3   OH218794   1.471   3.792   5.111  0.0446 -0.3455  0.0931
 6263TIP3    H118795   1.529   3.729   5.153  1.6654  0.5927 -0.6529
 6263TIP3    H218796   1.516   3.876   5.119 -0.7444  0.2652 -1.3427
 6264TIP3   OH218797   4.970   5.063   1.917 -0.6567  0.2093 -0.4808
 6264TIP3    H118798   4.987   5.146   1.874  0.2970 -0.4477 -1.4287
 6264TIP3    H218799   4.991   5.078   2.009 -0.5221  1.0155 -0.6430
 6265TIP3   OH218800   1.877   4.334   4.969  0.2801 -0.3196 -0.2801
 6265TIP3    H118801   1.895   4.395   4.897  1.8617  0.2739  0.5665
 6265TIP3    H218802   1.926   4.254   4.946  0.3178 -0.3352 -0.1488
 6266TIP3   OH218803   0.790   4.155   3.569 -0.1114  0.3852  0.0191
 6266TIP3    H118804   0.695   4.148   3.554 -0.1439 -0.2971  0.4628
 6266TIP3    H218805   0.829   4.096   3.505 -0.0937 -0.5158  0.8288
 6267TIP3   OH218806   2.312   2.676   4.585  0.1843  0.2830 -0.5604
 6267TIP3    H118807   2.342   2.600   4.635 -0.8357 -0.2320 -0.7060
 6267TIP3    H218808   2.384   2.696   4.526  0.0453 -1.2801 -1.3065
 6268TIP3   OH218809   6.309   0.078   1.460 -0.4517  0.0666  0.1492
 6268TIP3    H118810   6.280   0.168   1.473 -1.7394 -0.5317  1.6885
 6268TIP3    H218811   6.335   0.048   1.547 -2.2725 -1.7735  0.1368
 6269TIP3   OH218812   3.750   5.951   4.745 -0.0998 -0.3042  0.2337
 6269TIP3    H118813   3.805   5.885   4.702 -1.8725 -1.1998 -0.7679
 6269TIP3    H218814   3.744   5.921   4.836  0.9540 -0.2343  0.3465
 6270TIP3   OH218815   0.400   2.338   2.944  0.0264  0.0005  0.3563
 6270TIP3    H118816   0.344   2.368   3.015 -2.2641 -0.9322 -0.9474
 6270TIP3    H218817   0.371   2.249   2.927  1.0498 -0.0604 -1.2283
 6271TIP3   OH218818   4.763   5.622   2.950 -0.4101  0.6721 -0.0309
 6271TIP3    H118819   4.732   5.689   3.011  1.7650  1.9621 -0.2465
 6271TIP3    H218820   4.815   5.562   3.004 -0.8956  0.1298 -0.1493
 6272TIP3   OH218821   4.658   4.255   1.136  0.3411 -0.0758  0.6487
 6272TIP3    H118822   4.669   4.199   1.212  0.0375 -0.0268  0.7315
 6272TIP3    H218823   4.706   4.335   1.157  0.6098 -0.2293  0.6120
 6273TIP3   OH218824   2.466   5.538   0.084 -0.2030 -0.0237 -0.1055
 6273TIP3    H118825   2.523   5.495   0.020 -0.7458 -1.8952  0.6192
 6273TIP3    H218826   2.383   5.490   0.079 -2.4854  3.6243 -2.3505
 6274TIP3   OH218827   2.343   3.760   5.019 -0.4704  0.9616 -0.0286
 6274TIP3    H118828   2.354   3.853   5.000 -0.4174  1.2570  1.3490
 6274TIP3    H218829   2.330   3.756   5.114 -2.3257 -0.2606 -0.2721
 6275TIP3   OH218830   2.321   4.680   2.580 -0.0919 -0.5006 -0.1407
 6275TIP3    H118831   2.391   4.691   2.515  0.5382  0.9301  0.7460
 6275TIP3    H218832   2.245   4.721   2.539  0.1993  0.0452 -0.1426
 6276TIP3   OH218833   0.542   2.684   2.147 -0.3860 -0.4218  0.4724
 6276TIP3    H118834   0.555   2.601   2.193 -3.0871  0.7183  3.7127
 6276TIP3    H218835   0.613   2.740   2.178  1.1670 -1.2762 -1.3613
 6277TIP3   OH218836   2.886   2.491   2.522  0.6627  0.1438  0.2231
 6277TIP3    H118837   2.939   2.518   2.597  1.8784 -1.4556 -0.0064
 6277TIP3    H218838   2.877   2.570   2.469  0.8732  0.9823  1.4016
 6278TIP3   OH218839   3.771   0.269   3.071 -0.0024 -0.3015  0.0690
 6278TIP3    H118840   3.827   0.196   3.045 -0.3670  0.1179 -2.1230
 6278TIP3    H218841   3.776   0.330   2.997 -2.5764  0.1836  0.2044
 6279TIP3   OH218842   0.341   3.570   0.751 -0.3887  0.0448  0.1793
 6279TIP3    H118843   0.414   3.568   0.689  1.2213 -1.5468  1.9979
 6279TIP3    H218844   0.375   3.621   0.825 -1.7046  0.5855  0.4320
 6280TIP3   OH218845   6.305   2.556   0.830 -0.2811  0.0043  0.0133
 6280TIP3    H118846   6.353   2.599   0.901  0.2781  3.3954 -2.2288
 6280TIP3    H218847   6.360   2.481   0.807  1.7017  1.2360  0.4701
 6281TIP3   OH218848   1.060   2.758   4.102 -0.1556  0.5234  0.0157
 6281TIP3    H118849   1.046   2.849   4.078  0.6774  0.4204 -0.9491
 6281TIP3    H218850   1.101   2.761   4.188 -2.9874  0.9180  1.4875
 6282TIP3   OH218851   0.272   0.112   0.566  0.3667  0.1152  0.2444
 6282TIP3    H118852   0.248   0.046   0.630  0.8228  0.8334  1.1880
 6282TIP3    H218853   0.217   0.095   0.490 -1.3075  0.1974  1.4032
 6283TIP3   OH218854   0.691   5.682   4.399  0.4268 -0.1583  0.2819
 6283TIP3    H118855   0.660   5.759   4.352  0.0016  0.3889  1.4356
 6283TIP3    H218856   0.781   5.703   4.423  0.2526  0.0425  0.7491
 6284TIP3   OH218857   5.930   4.944   0.052  0.2641  0.3308 -0.4885
 6284TIP3    H118858   5.898   4.940   0.142  1.8660  1.4027  0.1910
 6284TIP3    H218859   5.874   5.008   0.009  0.5055  1.0421  0.2349
 6285TIP3   OH218860   0.222   3.813   1.983  0.2741 -0.5012 -0.1947
 6285TIP3    H118861   0.257   3.807   2.071 -0.9700 -2.3518  0.2369
 6285TIP3    H218862   0.139   3.861   1.993  1.0241  0.9646 -0.6944
 6286TIP3   OH218863   2.551   4.833   1.630 -0.1291  0.0292 -0.2333
 6286TIP3    H118864   2.556   4.882   1.548 -0.9426 -0.4672 -0.5943
 6286TIP3    H218865   2.548   4.741   1.603  0.7099 -0.1996  0.4107
 6287TIP3   OH218866   3.341   1.685   0.316 -0.0670  0.3811 -0.1701
 6287TIP3    H118867   3.354   1.779   0.317  1.5943  0.1879 -0.9642
 6287TIP3    H218868   3.270   1.671   0.253 -1.6346  1.1851  1.3278
 6288TIP3   OH218869   4.039   3.709   1.146 -0.2634 -0.1273  0.0844
 6288TIP3    H118870   4.064   3.658   1.069  0.6828  1.1477 -0.4986
 6288TIP3    H218871   4.122   3.737   1.185 -0.7431  0.6867  0.5626
 6289TIP3   OH218872   4.129   2.191   1.811  0.1015  0.1999 -0.1393
 6289TIP3    H118873   4.067   2.223   1.745 -0.4851 -0.9597 -0.1796
 6289TIP3    H218874   4.102   2.233   1.892  1.4700  2.4771 -0.7612
 6290TIP3   OH218875   5.422   5.016   0.661 -0.4297  0.3656  0.1205
 6290TIP3    H118876   5.377   4.970   0.732  1.4071  0.4347  1.4223
 6290TIP3    H218877   5.442   4.948   0.597 -1.8582  0.2482 -0.2271
 6291TIP3   OH218878   6.227   3.002   2.253  0.3426 -0.0268 -0.1068
 6291TIP3    H118879   6.278   2.922   2.239 -0.0987 -0.4271  0.4673
 6291TIP3    H218880   6.140   2.982   2.217 -0.0401 -0.1521  0.8394
 6292TIP3   OH218881   5.859   2.914   3.300 -0.1732 -0.3950  0.2657
 6292TIP3    H118882   5.785   2.854   3.308  0.1658 -0.7964  0.4141
 6292TIP3    H218883   5.851   2.972   3.376  0.5396 -1.4256  1.1534
 6293TIP3   OH218884   5.682   4.977   2.677 -0.0092 -0.0678 -0.4077
 6293TIP3    H118885   5.728   4.958   2.759  0.2099  2.1919  0.0477
 6293TIP3    H218886   5.619   5.045   2.700 -1.0635 -0.5357 -1.8033
 6294TIP3   OH218887   4.219   3.933   2.996  0.0230 -0.0617  0.4584
 6294TIP3    H118888   4.258   3.957   2.913 -1.2078  0.6108  0.0361
 6294TIP3    H218889   4.191   4.016   3.035 -2.3344 -0.5518  0.0051
 6295TIP3   OH218890   3.365   0.361   3.443 -0.5097 -0.0261  0.0665
 6295TIP3    H118891   3.449   0.317   3.434 -0.1526  0.7718 -0.7209
 6295TIP3    H218892   3.352   0.369   3.538  0.1302 -0.4797  0.1971
 6296TIP3   OH218893   5.262   3.721   3.411 -0.2401  0.5740  0.0177
 6296TIP3    H118894   5.322   3.662   3.457  0.0497  1.2983  0.5696
 6296TIP3    H218895   5.188   3.665   3.388  1.3495 -0.7925 -2.2307
 6297TIP3   OH218896   2.892   4.698   4.046 -0.3172 -0.0450 -0.0276
 6297TIP3    H118897   2.884   4.752   3.967  0.6471 -0.4025 -0.3937
 6297TIP3    H218898   2.962   4.740   4.097 -0.9045  0.1575  0.6231
 6298TIP3   OH218899   0.882   0.388   2.835  0.4413  0.4385  0.3606
 6298TIP3    H118900   0.800   0.437   2.829 -0.4661 -1.0182  0.4507
 6298TIP3    H218901   0.871   0.316   2.773  1.1365 -0.4891  1.2835
 6299TIP3   OH218902   2.022   2.427   2.436  0.0923  0.6629 -0.8088
 6299TIP3    H118903   2.073   2.400   2.512  0.0004 -0.3213 -1.0893
 6299TIP3    H218904   1.966   2.352   2.416 -1.5432  1.7297 -0.4655
 6300TIP3   OH218905   3.384   5.559   0.036  0.3719  0.1147  0.3976
 6300TIP3    H118906   3.358   5.650   0.044 -0.4921 -0.1098  0.2417
 6300TIP3    H218907   3.337   5.527  -0.041  0.2734 -0.5906  0.7376
 6301TIP3   OH218908   2.162   5.401   2.954  0.2084  0.2485 -0.3886
 6301TIP3    H118909   2.228   5.335   2.979  0.8641  0.0539 -2.4652
 6301TIP3    H218910   2.151   5.389   2.860 -0.6956  2.2210 -0.5687
 6302TIP3   OH218911   3.836   3.122   3.530  0.1085 -0.5308  0.3819
 6302TIP3    H118912   3.789   3.117   3.447 -2.6795 -1.5113  1.9017
 6302TIP3    H218913   3.805   3.046   3.580  2.2292 -0.3707  2.0829
 6303TIP3   OH218914   2.613   2.146   2.720  0.1482 -0.1914  0.4603
 6303TIP3    H118915   2.669   2.149   2.797  0.9604 -1.6446 -0.0369
 6303TIP3    H218916   2.525   2.128   2.755  0.0593  1.4436  1.1876
 6304TIP3   OH218917   4.770   4.515   0.805  0.3411  0.4106  0.1219
 6304TIP3    H118918   4.688   4.514   0.854  0.4341  1.1788  0.3064
 6304TIP3    H218919   4.805   4.426   0.815 -1.2144 -0.3950 -1.2481
 6305TIP3   OH218920   0.097   2.259   3.432 -0.1429  0.3702  0.2770
 6305TIP3    H118921   0.088   2.234   3.340 -0.1543 -0.0604  0.3907
 6305TIP3    H218922   0.118   2.352   3.430  1.6754 -0.0084 -0.2458
 6306TIP3   OH218923   2.124   2.405   4.432 -0.4217 -0.2558 -0.1952
 6306TIP3    H118924   2.107   2.466   4.360  2.1684  0.6014 -0.2018
 6306TIP3    H218925   2.085   2.323   4.404 -0.1975  0.2735 -2.2238
 6307TIP3   OH218926   1.405   1.245   3.099 -0.0478  0.4552  0.3999
 6307TIP3    H118927   1.383   1.334   3.126  1.5405  1.1604 -0.5314
 6307TIP3    H218928   1.350   1.229   3.022  0.8424  1.2698 -0.4265
 6308TIP3   OH218929   1.473   2.358   5.031 -0.4616  0.3446 -0.1428
 6308TIP3    H118930   1.561   2.352   5.066  0.3282  0.2957 -2.0113
 6308TIP3    H218931   1.483   2.408   4.950 -2.3890  1.6073  0.3302
 6309TIP3   OH218932   3.790   3.948   0.779 -0.2908 -0.0423  0.6513
 6309TIP3    H118933   3.813   3.881   0.714 -1.3376 -2.7262  2.8636
 6309TIP3    H218934   3.862   3.947   0.841 -0.2920  0.9802  0.6855
 6310TIP3   OH218935   2.857   1.016   1.082  0.0404  0.2478 -0.3028
 6310TIP3    H118936   2.799   0.975   1.018  0.6830  1.3100 -1.6090
 6310TIP3    H218937   2.924   0.951   1.099 -1.4683 -1.0044  1.2312
 6311TIP3   OH218938   4.094   5.929   5.125  0.0272  0.4447  0.4346
 6311TIP3    H118939   4.055   5.947   5.210 -1.8381 -1.7309  0.1586
 6311TIP3    H218940   4.117   5.836   5.128  3.9850  1.2478 -0.0090
 6312TIP3   OH218941   4.926   5.684   3.870  0.2394  0.0901 -0.3506
 6312TIP3    H118942   4.974   5.606   3.897  0.4159 -0.2468 -1.5943
 6312TIP3    H218943   4.988   5.732   3.814 -0.2005  0.6345 -0.3738
 6313TIP3   OH218944   0.797   3.482   0.795  0.7649  0.1560  0.2479
 6313TIP3    H118945   0.873   3.479   0.736 -0.0442 -0.2398 -0.8014
 6313TIP3    H218946   0.828   3.533   0.870  1.9842  0.2410 -0.2804
 6314TIP3   OH218947   2.941   2.719   3.243 -0.2481  0.7786 -0.2055
 6314TIP3    H118948   2.879   2.653   3.214  1.6284 -1.0054 -0.3352
 6314TIP3    H218949   2.957   2.773   3.165  0.6322 -0.6192 -1.0194
 6315TIP3   OH218950   5.260   1.386   1.538  0.0857 -0.1641 -0.7078
 6315TIP3    H118951   5.235   1.437   1.616  0.3271 -0.4701 -0.4258
 6315TIP3    H218952   5.231   1.297   1.558 -0.7262 -0.0632 -1.3824
 6316TIP3   OH218953   5.224   2.909   3.348  0.5812  0.2607  0.3853
 6316TIP3    H118954   5.187   2.824   3.371  0.1291  0.4239  0.2746
 6316TIP3    H218955   5.181   2.971   3.407  1.6350  0.2913  1.1408
 6317TIP3   OH218956   0.052   5.226   1.368 -0.7660 -0.1339  0.5112
 6317TIP3    H118957   0.109   5.216   1.444 -0.1414 -0.1576  0.0488
 6317TIP3    H218958   0.106   5.271   1.302 -1.3714  0.1109  0.1638
 6318TIP3   OH218959   3.441   3.118   3.383  0.6411  0.1443  0.0235
 6318TIP3    H118960   3.468   3.117   3.474 -0.0193 -0.3117  0.2167
 6318TIP3    H218961   3.361   3.066   3.380  0.4812  0.4104 -0.7598
 6319TIP3   OH218962   2.843   1.454   4.145  0.6044 -0.4174 -0.2281
 6319TIP3    H118963   2.898   1.384   4.110 -0.5590 -1.5542  0.1072
 6319TIP3    H218964   2.770   1.459   4.082  1.7056  2.0006 -1.4195
 6320TIP3   OH218965   1.359   4.874   3.546  1.0289 -0.1167  0.0077
 6320TIP3    H118966   1.401   4.813   3.607  1.3706 -1.2944 -1.3390
 6320TIP3    H218967   1.422   4.945   3.535  1.8084 -0.8736 -0.4594
 6321TIP3   OH218968   1.002   3.227   4.502  0.1091 -0.5326 -0.4242
 6321TIP3    H118969   1.071   3.161   4.497  1.3937  0.8096 -1.3692
 6321TIP3    H218970   0.942   3.195   4.569  2.2541 -1.1851  1.2680
 6322TIP3   OH218971   5.596   4.174   1.172 -0.3343 -0.5963 -0.2531
 6322TIP3    H118972   5.554   4.258   1.152 -0.4398 -0.2197  1.4333
 6322TIP3    H218973   5.550   4.111   1.117 -0.2066  0.4343 -1.6093
 6323TIP3   OH218974   1.535   1.035   4.989  0.2221 -0.3414 -0.5331
 6323TIP3    H118975   1.508   1.113   4.940 -0.7227 -0.0419  0.4505
 6323TIP3    H218976   1.621   1.013   4.952  0.2802  0.8664 -1.1625
 6324TIP3   OH218977   0.688   3.519   3.180 -0.3692  0.7395  0.0855
 6324TIP3    H118978   0.744   3.443   3.195 -2.2347 -1.2192 -2.0021
 6324TIP3    H218979   0.666   3.552   3.267  0.9056 -0.8050  1.0318
 6325TIP3   OH218980   1.883   0.752   2.796 -0.4321 -0.5466 -0.1817
 6325TIP3    H118981   1.923   0.800   2.723  1.3746 -0.1195  1.0079
 6325TIP3    H218982   1.795   0.731   2.766  0.0749  0.0692 -2.2719
 6326TIP3   OH218983   2.927   0.315   2.635 -0.4923  0.3840  0.2387
 6326TIP3    H118984   2.876   0.258   2.693 -1.0901 -0.2157 -0.8518
 6326TIP3    H218985   2.892   0.402   2.649 -0.7926  0.2090  0.5978
 6327TIP3   OH218986   2.672   3.542   3.520 -0.2779  0.0558  0.0644
 6327TIP3    H118987   2.687   3.502   3.434 -1.7537 -1.1261  0.3294
 6327TIP3    H218988   2.581   3.570   3.518 -0.3790 -0.1352  1.3046
 6328TIP3   OH218989   1.200   1.514   0.631 -0.4348  0.0103 -0.2720
 6328TIP3    H118990   1.240   1.427   0.630  0.6966  0.5191 -1.4248
 6328TIP3    H218991   1.170   1.528   0.541  0.5088  1.2886 -0.4132
 6329TIP3   OH218992   1.278   0.485   2.077  0.2959 -0.1151 -0.4452
 6329TIP3    H118993   1.269   0.472   2.172  0.1545  1.3434 -0.2349
 6329TIP3    H218994   1.318   0.404   2.046 -1.8158 -1.6166  0.4839
 6330TIP3   OH218995   2.525   3.384   3.928 -0.1188  0.1418 -0.3596
 6330TIP3    H118996   2.516   3.378   3.833 -0.6916  1.0950 -0.3853
 6330TIP3    H218997   2.574   3.465   3.942 -0.5534  0.3238  0.1664
 6331TIP3   OH218998   0.905   4.803   3.120  0.2032  0.2819  0.1444
 6331TIP3    H118999   0.890   4.868   3.052 -2.8085 -0.1634  0.2135
 6331TIP3    H219000   0.895   4.852   3.202  0.5431  0.2044  0.2330
 6332TIP3   OH219001   1.401   4.445   0.986  0.1383  0.2579  0.3754
 6332TIP3    H119002   1.438   4.363   1.019  1.2969  0.9548  0.8933
 6332TIP3    H219003   1.310   4.424   0.965  0.6209 -1.3479 -0.2429
 6333TIP3   OH219004   0.496   4.341   4.282  0.3552 -0.2654  0.1932
 6333TIP3    H119005   0.552   4.359   4.358  1.4928  3.8616 -1.3546
 6333TIP3    H219006   0.407   4.354   4.314  0.6349 -0.8848  1.2926
 6334TIP3   OH219007   0.337   4.093   4.671  0.1934  0.3970 -0.1610
 6334TIP3    H119008   0.246   4.063   4.669 -0.1806  1.5217 -1.1796
 6334TIP3    H219009   0.333   4.179   4.712  0.7071  0.7161 -0.7547
 6335TIP3   OH219010   0.524   1.526   1.762  0.0013  0.0686  1.3120
 6335TIP3    H119011   0.464   1.543   1.834  0.6221 -0.0426  1.8742
 6335TIP3    H219012   0.605   1.499   1.805  0.5267  0.4503  0.5870
 6336TIP3   OH219013   4.565   2.174   0.581  0.1668  0.6972 -0.0971
 6336TIP3    H119014   4.631   2.243   0.579 -0.2318  1.0714 -1.6390
 6336TIP3    H219015   4.578   2.131   0.666  1.7797  1.3352  0.0178
 6337TIP3   OH219016   1.360   4.586   3.995  0.0288 -0.4375  0.4898
 6337TIP3    H119017   1.327   4.580   4.085  0.7892 -0.0615  0.8075
 6337TIP3    H219018   1.283   4.570   3.940 -0.2822 -1.4988  1.2040
 6338TIP3   OH219019   4.836   0.769   5.145 -0.2545 -0.2547  0.0252
 6338TIP3    H119020   4.832   0.855   5.186 -1.5003 -0.8121  1.1738
 6338TIP3    H219021   4.875   0.784   5.059 -1.4559  1.6253 -0.2418
 6339TIP3   OH219022   1.145   4.999   0.485 -0.5102  0.3757  0.1806
 6339TIP3    H119023   1.230   4.985   0.527 -0.8523 -2.0027  0.2184
 6339TIP3    H219024   1.110   4.911   0.473 -1.7824  1.1341 -2.3231
 6340TIP3   OH219025   3.518   0.154   2.089 -0.2349 -0.3277 -0.6199
 6340TIP3    H119026   3.585   0.182   2.027 -1.6888 -0.0092 -2.1307
 6340TIP3    H219027   3.528   0.212   2.164  0.3013  0.6177 -1.4024
 6341TIP3   OH219028   5.681   4.479   2.776  0.0524 -0.0660 -0.2941
 6341TIP3    H119029   5.614   4.526   2.727  0.0510 -1.3064 -1.5515
 6341TIP3    H219030   5.634   4.441   2.850 -0.0747  1.2955  0.3602
 6342TIP3   OH219031   4.774   4.363   1.478 -0.2935  0.3962  0.3167
 6342TIP3    H119032   4.819   4.443   1.507  2.2052 -0.9604  0.4112
 6342TIP3    H219033   4.816   4.340   1.395 -0.9984 -0.7957  0.2675
 6343TIP3   OH219034   5.197   4.125   4.569 -0.0988 -0.7021 -0.0885
 6343TIP3    H119035   5.261   4.127   4.498  0.8621 -0.4439  0.7644
 6343TIP3    H219036   5.249   4.111   4.648 -1.0103  0.3331  0.7255
 6344TIP3   OH219037   0.380   5.016   1.045 -0.1657 -0.1324 -0.5470
 6344TIP3    H119038   0.298   5.001   1.092 -0.4130  1.5481 -0.3741
 6344TIP3    H219039   0.428   4.933   1.053 -0.7962 -0.3658  1.4799
 6345TIP3   OH219040   1.365   2.381   3.026 -0.3325 -0.5457  0.6735
 6345TIP3    H119041   1.341   2.330   3.103 -0.5611  0.8060  1.5314
 6345TIP3    H219042   1.292   2.369   2.965 -1.3268  0.3443  1.6629
 6346TIP3   OH219043   4.222   3.307   0.107 -0.4738  0.0349  0.4585
 6346TIP3    H119044   4.261   3.306   0.020  1.0279 -0.0656  1.1020
 6346TIP3    H219045   4.291   3.273   0.165 -1.0875  1.0051  1.8143
 6347TIP3   OH219046   3.172   4.291   0.436  0.8001  0.0378 -0.0626
 6347TIP3    H119047   3.204   4.203   0.417  1.0361  0.4206 -1.5398
 6347TIP3    H219048   3.083   4.292   0.400  0.3047  0.0083  1.1173
 6348TIP3   OH219049   1.065   5.045   3.923 -0.2061 -0.3839  0.2428
 6348TIP3    H119050   1.124   5.120   3.920 -2.7438  1.8063  0.4743
 6348TIP3    H219051   1.019   5.054   4.007 -1.1484 -1.7196 -0.0853
 6349TIP3   OH219052   0.055   3.789   2.656 -0.2987  0.8949  0.2108
 6349TIP3    H119053   0.135   3.781   2.603 -0.3090 -2.6468  0.5269
 6349TIP3    H219054  -0.004   3.841   2.601  1.5266  1.9424 -0.8683
 6350TIP3   OH219055   2.839   0.232   4.893  0.4660 -0.2852 -0.3242
 6350TIP3    H119056   2.902   0.300   4.869  0.7994 -0.6651 -0.5429
 6350TIP3    H219057   2.857   0.160   4.833  0.1156 -0.5674 -0.0984
 6351TIP3   OH219058   3.255   5.729   2.437  0.0142  0.2759  0.3091
 6351TIP3    H119059   3.350   5.724   2.426 -0.1260  0.4814 -1.1636
 6351TIP3    H219060   3.242   5.790   2.509  1.0571 -1.9692  2.5747
 6352TIP3   OH219061   1.951   0.779   0.786 -0.0088 -0.5733 -0.0339
 6352TIP3    H119062   1.974   0.862   0.743  0.7816  0.6916  2.5851
 6352TIP3    H219063   1.870   0.799   0.833  0.8855 -0.7981  1.6977
 6353TIP3   OH219064   5.789   0.341   1.460  0.4917 -0.4167 -0.8689
 6353TIP3    H119065   5.812   0.375   1.374  1.9248  1.4332  0.1720
 6353TIP3    H219066   5.693   0.336   1.459 -0.0549  4.6916 -0.9103
 6354TIP3   OH219067   1.304   1.242   0.606  0.2649 -0.4111 -0.1254
 6354TIP3    H119068   1.276   1.209   0.691 -1.4263  1.1485 -0.0064
 6354TIP3    H219069   1.246   1.198   0.543  0.5127 -0.4595 -0.3217
 6355TIP3   OH219070   2.220   2.535   2.072  0.7387  0.0353 -0.6995
 6355TIP3    H119071   2.132   2.517   2.107  1.2308  0.0159  0.5976
 6355TIP3    H219072   2.279   2.494   2.135  1.6875  0.0092 -1.5834
 6356TIP3   OH219073   1.293   5.489   2.421  0.6365 -0.3992 -0.3124
 6356TIP3    H119074   1.228   5.460   2.485  1.4427 -0.2645  0.5966
 6356TIP3    H219075   1.353   5.415   2.412  3.2039  1.0942  2.6735
 6357TIP3   OH219076   4.381   1.270   2.961  0.5859 -0.0130 -0.2153
 6357TIP3    H119077   4.309   1.305   3.014 -0.0502  0.1686 -1.1859
 6357TIP3    H219078   4.432   1.217   3.023 -0.9929 -1.0440  0.2679
 6358TIP3   OH219079   2.640   4.346   2.349  0.0341 -0.0880 -0.3867
 6358TIP3    H119080   2.670   4.385   2.267  0.6505  0.7197  0.2119
 6358TIP3    H219081   2.586   4.272   2.321  1.5849 -0.8492 -1.5013
 6359TIP3   OH219082   3.667   4.174   2.075  0.1892  0.2112  0.4809
 6359TIP3    H119083   3.691   4.156   1.984 -0.5435 -1.3433  0.5569
 6359TIP3    H219084   3.572   4.184   2.073  0.1229 -0.1808  1.1087
 6360TIP3   OH219085   5.059   0.632   0.840  0.4076 -0.2334  0.3785
 6360TIP3    H119086   5.036   0.688   0.914  1.1922  0.2207  0.2892
 6360TIP3    H219087   5.125   0.573   0.874  2.0200  1.0558 -0.3369
 6361TIP3   OH219088   6.346   1.382   4.833 -0.0499 -0.5027 -0.2939
 6361TIP3    H119089   6.281   1.441   4.873  0.9940  0.0499  0.6541
 6361TIP3    H219090   6.391   1.343   4.908 -0.8814 -2.7500 -0.8967
 6362TIP3   OH219091   3.209   2.697   0.309 -0.1039 -0.0889  0.1605
 6362TIP3    H119092   3.143   2.765   0.326  0.2748  0.5366 -0.7801
 6362TIP3    H219093   3.292   2.746   0.304  0.2219 -0.6703 -0.1798
 6363TIP3   OH219094   4.572   4.615   0.570 -0.2593  0.6417 -0.1983
 6363TIP3    H119095   4.589   4.538   0.624  3.1773  1.4132  0.1071
 6363TIP3    H219096   4.505   4.588   0.508 -0.3961 -2.0051  0.9925
 6364TIP3   OH219097   2.634   0.751   1.551 -0.4585  0.1120 -0.0445
 6364TIP3    H119098   2.602   0.807   1.481 -1.3943  0.0406  0.3144
 6364TIP3    H219099   2.716   0.715   1.517 -1.3282 -0.6098 -1.4611
 6365TIP3   OH219100   0.253   5.089   5.063 -0.1328  0.2792  0.0838
 6365TIP3    H119101   0.240   5.184   5.065 -0.7835  0.1949  0.1034
 6365TIP3    H219102   0.274   5.066   5.154 -0.5251  0.3348  0.1915
 6366TIP3   OH219103   3.605   2.951   1.521 -0.4872  0.2697  0.2313
 6366TIP3    H119104   3.544   3.000   1.466  0.3391  0.4956 -0.5231
 6366TIP3    H219105   3.560   2.941   1.605 -1.9016 -0.3312 -0.5589
 6367TIP3   OH219106   3.724   1.290   4.475 -0.1002 -0.5554 -0.0647
 6367TIP3    H119107   3.675   1.224   4.425 -0.9122 -1.3360  1.6958
 6367TIP3    H219108   3.661   1.361   4.488  0.5740  0.3312 -1.3847
 6368TIP3   OH219109   5.243   0.372   3.741 -0.2593  0.3327 -0.2007
 6368TIP3    H119110   5.296   0.445   3.772  1.6212 -0.8551 -0.4407
 6368TIP3    H219111   5.173   0.363   3.805  1.5570  0.0823  1.8601
 6369TIP3   OH219112   2.023   1.311   4.488  0.4432  0.0545  0.0476
 6369TIP3    H119113   1.962   1.372   4.530 -0.2117 -0.3194 -0.3387
 6369TIP3    H219114   2.035   1.346   4.400 -1.1036 -1.1265 -0.6940
 6370TIP3   OH219115   2.301   1.792   2.935 -0.9090 -0.3610  0.2506
 6370TIP3    H119116   2.240   1.730   2.897 -1.9836  0.1477  1.1028
 6370TIP3    H219117   2.247   1.849   2.989  0.3598 -0.0742  1.2582
 6371TIP3   OH219118   4.566   1.949   1.899  0.1371  0.4497 -0.8843
 6371TIP3    H119119   4.555   1.983   1.988  0.7919  2.0961 -1.3938
 6371TIP3    H219120   4.482   1.964   1.857 -0.2850 -0.6454 -0.4709
 6372TIP3   OH219121   4.068   5.341   3.344  0.3318 -0.0942  0.0346
 6372TIP3    H119122   4.091   5.251   3.367  1.7882  0.6573  1.7608
 6372TIP3    H219123   4.131   5.395   3.391 -2.0218  1.9438  1.1208
 6373TIP3   OH219124   3.427   2.055   3.281 -0.0918  0.6005 -0.3368
 6373TIP3    H119125   3.389   2.069   3.367  0.0561 -0.9766  0.0159
 6373TIP3    H219126   3.520   2.038   3.297  0.6123  3.1761 -1.0916
 6374TIP3   OH219127   5.932   4.507   1.010  0.8584  0.0982  0.1096
 6374TIP3    H119128   5.860   4.452   0.981  0.7869 -0.7523  1.7855
 6374TIP3    H219129   5.889   4.588   1.041  0.7450  0.1208 -0.1079
 6375TIP3   OH219130   0.912   3.811   3.471  0.0292 -0.1841 -0.0478
 6375TIP3    H119131   0.893   3.877   3.403 -0.9961  0.0274  0.4207
 6375TIP3    H219132   0.837   3.752   3.468 -0.1012 -0.0852  0.9995
 6376TIP3   OH219133   3.846   0.957   3.097 -0.1480  0.8358  0.0287
 6376TIP3    H119134   3.804   0.909   3.026  1.0880  1.4332 -1.1528
 6376TIP3    H219135   3.775   0.977   3.158 -1.1514 -0.1210 -0.7723
 6377TIP3   OH219136   4.461   3.504   2.132  0.6396 -0.3604  0.2888
 6377TIP3    H119137   4.385   3.482   2.185  0.0016 -0.5438 -0.6874
 6377TIP3    H219138   4.497   3.419   2.105  1.2416 -0.2767  0.8105
 6378TIP3   OH219139   0.574   2.668   2.634  0.6975  0.1076 -0.0098
 6378TIP3    H119140   0.491   2.713   2.650  0.6779  0.6638 -1.4945
 6378TIP3    H219141   0.552   2.575   2.643 -0.4622  0.1560 -1.7469
 6379TIP3   OH219142   5.438   2.225   4.734  0.2728 -0.1541  0.2609
 6379TIP3    H119143   5.393   2.158   4.681 -0.1028 -0.6616  1.1954
 6379TIP3    H219144   5.530   2.203   4.726  0.1710 -0.6154  0.3214
 6380TIP3   OH219145   2.528   4.524   4.718 -0.2023 -0.5773 -0.0292
 6380TIP3    H119146   2.438   4.506   4.692  0.5707 -3.3790 -1.0363
 6380TIP3    H219147   2.535   4.488   4.807  0.0037 -0.6572 -0.0768
 6381TIP3   OH219148   0.638   4.073   2.302  0.0464  0.2056 -0.7090
 6381TIP3    H119149   0.594   4.018   2.366 -1.1141  1.1664 -0.6514
 6381TIP3    H219150   0.673   4.012   2.238 -0.7287 -0.6297 -0.3574
 6382TIP3   OH219151   4.953   2.731   3.145  0.4464  0.0043 -0.5850
 6382TIP3    H119152   4.951   2.640   3.174  1.2513 -0.2787 -1.3806
 6382TIP3    H219153   4.913   2.780   3.217  1.1565 -0.8362  0.4110
 6383TIP3   OH219154   1.618   3.621   2.992  0.2207  0.3544  0.3123
 6383TIP3    H119155   1.650   3.577   2.913  1.8198  1.7402  0.1382
 6383TIP3    H219156   1.616   3.552   3.059  0.5632 -0.4541 -0.4900
 6384TIP3   OH219157   0.631   0.393   1.197 -0.2200  0.5925 -0.5001
 6384TIP3    H119158   0.699   0.346   1.149 -1.0642 -0.3569 -0.7887
 6384TIP3    H219159   0.551   0.374   1.149 -1.0772 -0.2872  1.1966
 6385TIP3   OH219160   5.780   3.594   3.432  0.0338  0.1260 -0.3982
 6385TIP3    H119161   5.843   3.580   3.362  1.6937  0.0177  1.0413
 6385TIP3    H219162   5.825   3.565   3.512 -1.3298  1.3403  0.8917
 6386TIP3   OH219163   1.598   5.602   1.418 -0.3545  0.4373 -0.1860
 6386TIP3    H119164   1.678   5.557   1.446 -0.7218  0.2117  0.5286
 6386TIP3    H219165   1.531   5.534   1.420 -0.4137  0.4344 -1.5626
 6387TIP3   OH219166   3.681   3.681   3.877  0.1283  0.5202  0.3486
 6387TIP3    H119167   3.642   3.738   3.943 -1.1396 -0.0751  0.1543
 6387TIP3    H219168   3.704   3.601   3.925  1.2966  0.9397  0.4967
 6388TIP3   OH219169   3.945   4.051   3.571  0.2200  0.2276 -0.2798
 6388TIP3    H119170   3.984   4.065   3.658 -2.2719  1.7435  0.6922
 6388TIP3    H219171   3.883   3.980   3.584  0.6494 -0.3246 -1.1488
 6389TIP3   OH219172   4.945   5.180   1.043 -0.2009  0.2877 -0.0548
 6389TIP3    H119173   4.950   5.154   1.135 -0.4530  0.2009 -0.0647
 6389TIP3    H219174   4.911   5.103   0.998  1.3933 -0.2215 -0.4714
 6390TIP3   OH219175   0.495   0.992   4.205 -0.4101 -0.0760  0.6960
 6390TIP3    H119176   0.487   0.933   4.280 -1.4616  0.0653  0.7115
 6390TIP3    H219177   0.473   0.938   4.129 -0.8151  0.1549  0.6488
 6391TIP3   OH219178   2.522   5.172   4.793  0.1620 -0.0666 -0.1522
 6391TIP3    H119179   2.490   5.219   4.870 -1.9880  1.1614 -1.6900
 6391TIP3    H219180   2.617   5.168   4.805 -0.1348 -0.4515  2.7909
 6392TIP3   OH219181   6.141   0.855   2.066 -0.3090 -0.3115  0.5080
 6392TIP3    H119182   6.174   0.945   2.071 -0.4084 -0.1797 -0.8696
 6392TIP3    H219183   6.050   0.861   2.092  0.6762 -0.7245  4.6904
 6393TIP3   OH219184   5.276   0.204   4.332 -0.5571  0.1503  0.1212
 6393TIP3    H119185   5.240   0.192   4.244  0.7812 -0.5220 -0.3720
 6393TIP3    H219186   5.325   0.123   4.348 -0.0066  0.6717  1.1000
 6394TIP3   OH219187   2.488   2.982   0.210  0.3551  0.5293  0.0710
 6394TIP3    H119188   2.516   2.957   0.298 -0.9830 -0.5296  0.2266
 6394TIP3    H219189   2.496   2.902   0.158  1.2437  1.1674 -0.8311
 6395TIP3   OH219190   5.763   1.519   3.155 -0.0659  0.2723  0.4976
 6395TIP3    H119191   5.797   1.588   3.098  1.0936 -0.5321  0.1867
 6395TIP3    H219192   5.669   1.518   3.137  0.2973 -0.1547 -1.6519
 6396TIP3   OH219193   3.819   0.147   0.908  0.8963 -0.2745 -0.1820
 6396TIP3    H119194   3.780   0.233   0.891  1.2144  0.0891  0.8815
 6396TIP3    H219195   3.894   0.143   0.850 -0.1003 -0.5609 -1.5098
 6397TIP3   OH219196   4.239   0.772   1.710 -0.0259 -0.5757  0.1362
 6397TIP3    H119197   4.263   0.855   1.669  1.1290 -1.7501 -1.7196
 6397TIP3    H219198   4.157   0.790   1.755 -1.3142  0.8920 -2.5648
 6398TIP3   OH219199   4.436   1.014   3.300  0.0289 -1.0767  0.2512
 6398TIP3    H119200   4.439   1.086   3.363 -0.6650 -0.0214 -0.8881
 6398TIP3    H219201   4.390   0.943   3.346  0.2229 -0.6092  1.1847
 6399TIP3   OH219202   6.203   0.837   0.059 -0.2554  0.3102 -0.0074
 6399TIP3    H119203   6.129   0.786   0.091 -0.4729  1.3855  1.2936
 6399TIP3    H219204   6.163   0.915   0.020  0.1806  1.4318  1.6819
 6400TIP3   OH219205   6.293   1.033   0.494  0.3917 -0.1834  0.3486
 6400TIP3    H119206   6.228   0.971   0.462  0.8351  0.2720 -1.5523
 6400TIP3    H219207   6.255   1.119   0.478  1.9989  0.1499 -2.2404
 6401TIP3   OH219208   1.908   1.656   2.087 -0.0139 -0.4771  0.4228
 6401TIP3    H119209   1.852   1.734   2.088  0.4616 -0.0991  2.3234
 6401TIP3    H219210   1.988   1.684   2.130  0.9687 -1.5056 -0.6528
 6402TIP3   OH219211   5.049   5.204   3.575  0.1801  0.4393 -0.5008
 6402TIP3    H119212   5.112   5.157   3.521 -0.0269 -2.1131  1.2843
 6402TIP3    H219213   5.078   5.188   3.665 -1.2181  1.9200  0.2628
 6403TIP3   OH219214   4.898   1.304   0.655  0.4631 -0.1699  0.0443
 6403TIP3    H119215   4.967   1.274   0.597  0.6747  0.0734  0.1631
 6403TIP3    H219216   4.921   1.269   0.741 -0.0241 -0.7987 -0.0788
 6404TIP3   OH219217   4.720   3.124   1.590 -0.0890  0.1061  0.2516
 6404TIP3    H119218   4.669   3.160   1.518  0.0715  0.5957  0.3789
 6404TIP3    H219219   4.668   3.051   1.622 -0.9739  0.9085  0.7067
 6405TIP3   OH219220   6.039   1.980   4.297 -0.0542  0.4794 -0.3862
 6405TIP3    H119221   6.127   1.993   4.332 -0.6077  1.7623  0.6128
 6405TIP3    H219222   5.988   1.945   4.370 -0.5667  0.5390 -0.7047
 6406TIP3   OH219223   5.953   3.015   1.659 -0.3289  0.0137  0.0942
 6406TIP3    H119224   5.969   3.105   1.629  1.0658 -0.2784 -0.0757
 6406TIP3    H219225   5.994   2.960   1.594  1.8471 -0.6635  1.9081
 6407TIP3   OH219226   4.862   4.905   1.016 -0.1528  0.1885  0.1366
 6407TIP3    H119227   4.826   4.850   1.085 -0.6676 -0.4120 -0.5996
 6407TIP3    H219228   4.855   4.852   0.936  3.9964 -0.7688  0.1747
 6408TIP3   OH219229   1.393   1.100   3.372 -0.4028  0.4041  0.0832
 6408TIP3    H119230   1.355   1.020   3.336  0.2972  0.5785 -1.0696
 6408TIP3    H219231   1.387   1.164   3.301  1.4010  0.6394  0.1018
 6409TIP3   OH219232   4.201   2.447   0.128 -0.3656 -0.1653 -0.0328
 6409TIP3    H119233   4.117   2.405   0.108 -1.7001  1.6445  1.3867
 6409TIP3    H219234   4.189   2.538   0.101  0.6364  0.4429  1.4219
 6410TIP3   OH219235   6.255   1.106   2.065 -0.3677 -0.0502 -0.2673
 6410TIP3    H119236   6.280   1.158   2.141 -0.0993 -0.9417  0.2620
 6410TIP3    H219237   6.332   1.105   2.009 -0.6878  0.9302 -0.7563
 6411TIP3   OH219238   5.796   4.063   1.330 -0.3272  0.9140 -0.1574
 6411TIP3    H119239   5.881   4.058   1.286 -0.6008 -0.2185 -0.6034
 6411TIP3    H219240   5.737   4.100   1.265 -1.0056 -1.8798 -1.2774
 6412TIP3   OH219241   4.488   5.424   1.318 -0.0427  0.3870 -0.3238
 6412TIP3    H119242   4.577   5.459   1.313  0.3778 -0.6879 -0.5971
 6412TIP3    H219243   4.477   5.398   1.409 -0.2565  0.9441 -0.1838
 6413TIP3   OH219244   0.498   3.271   4.883  0.1190 -0.0062 -0.0140
 6413TIP3    H119245   0.582   3.306   4.854  0.1528  0.8029  1.0083
 6413TIP3    H219246   0.433   3.319   4.832  0.2102  0.8207  0.6215
 6414TIP3   OH219247   0.597   4.656   0.949  0.6228 -0.1526 -0.4957
 6414TIP3    H119248   0.649   4.619   0.878 -0.1087 -0.2793 -0.9843
 6414TIP3    H219249   0.508   4.659   0.914 -0.0984 -1.8531  1.0338
 6415TIP3   OH219250   1.565   4.596   4.936 -0.1261 -0.0838 -0.3703
 6415TIP3    H119251   1.637   4.606   4.999  0.4462 -2.4123 -0.5356
 6415TIP3    H219252   1.555   4.682   4.897  2.1136  0.5013  0.1651
 6416TIP3   OH219253   1.555   4.095   1.437 -0.0895 -0.3902  0.3752
 6416TIP3    H119254   1.590   4.177   1.473  0.4818 -0.8412  0.8731
 6416TIP3    H219255   1.633   4.045   1.413 -0.4562 -0.3383 -0.9912
 6417TIP3   OH219256   4.815   2.358   3.435  0.1922 -0.0342  0.3318
 6417TIP3    H119257   4.753   2.331   3.503  0.3230 -1.3956 -0.0562
 6417TIP3    H219258   4.776   2.327   3.353  0.5999  0.5498 -0.0930
 6418TIP3   OH219259   1.651   1.981   4.475  0.2211  0.4912 -0.5930
 6418TIP3    H119260   1.666   1.983   4.569  0.2056  1.9184 -0.5916
 6418TIP3    H219261   1.691   1.900   4.445 -0.1318 -0.1745  0.6985
 6419TIP3   OH219262   1.012   0.164   3.046  0.7035  0.3460  0.6805
 6419TIP3    H119263   0.996   0.247   3.001 -0.4851  2.0873  3.9843
 6419TIP3    H219264   0.955   0.101   3.002  0.2438  1.7019 -0.7432
 6420TIP3   OH219265   2.024   1.593   1.178 -0.1696  0.2310  0.0553
 6420TIP3    H119266   2.001   1.576   1.269  1.5657  0.8734  0.6519
 6420TIP3    H219267   2.093   1.529   1.159  0.5424  1.0997 -0.3210
 6421TIP3   OH219268   3.316   1.934   5.173 -0.3133  0.1350 -0.8266
 6421TIP3    H119269   3.282   1.849   5.144 -1.3488  1.2677 -3.1968
 6421TIP3    H219270   3.341   1.979   5.092 -1.7818  2.8918  0.1277
 6422TIP3   OH219271   0.786   2.396   4.771  0.0143  0.3505 -0.3252
 6422TIP3    H119272   0.711   2.341   4.750 -0.7675  1.1429  0.3548
 6422TIP3    H219273   0.849   2.336   4.812  0.8483 -0.8652 -3.1041
 6423TIP3   OH219274   4.442   3.017   4.405 -0.3924  0.6402  0.8243
 6423TIP3    H119275   4.377   2.970   4.353 -0.0823  2.7292 -1.6232
 6423TIP3    H219276   4.519   2.960   4.406 -0.6057  0.2961 -0.5391
 6424TIP3   OH219277   5.216   4.724   2.526 -0.2654 -0.1563 -0.0794
 6424TIP3    H119278   5.197   4.688   2.613  1.7694 -0.6507  0.2198
 6424TIP3    H219279   5.223   4.647   2.470 -0.2169  0.0600 -0.3707
 6425TIP3   OH219280   0.485   5.168   3.611  0.3827 -0.0804 -0.4460
 6425TIP3    H119281   0.469   5.232   3.542 -0.1907 -0.9394 -1.1268
 6425TIP3    H219282   0.576   5.183   3.637  0.5059  0.4693 -1.1639
 6426TIP3   OH219283   0.174   1.292  -0.028  0.3171  0.1208 -0.5753
 6426TIP3    H119284   0.242   1.344   0.016 -1.6724  1.1041  1.5457
 6426TIP3    H219285   0.096   1.303   0.026 -1.0440 -2.6440 -1.7591
 6427TIP3   OH219286   1.141   2.092   2.282  0.1068  0.0878  0.1753
 6427TIP3    H119287   1.133   2.003   2.317 -2.6426  0.2171  0.1222
 6427TIP3    H219288   1.229   2.120   2.305  0.1497 -1.7040  2.4940
 6428TIP3   OH219289   4.187   0.281   3.741  0.3561 -0.3665  0.1976
 6428TIP3    H119290   4.237   0.201   3.753  0.2085 -0.4234  0.4479
 6428TIP3    H219291   4.253   0.349   3.726  0.5866 -0.2385  1.6110
 6429TIP3   OH219292   2.174   4.858   1.876  0.4166  0.0089 -0.2263
 6429TIP3    H119293   2.209   4.929   1.930  1.8854 -0.6779 -0.2345
 6429TIP3    H219294   2.084   4.848   1.906  0.1434  1.9102 -0.2739
 6430TIP3   OH219295   4.651   0.044   0.642 -0.0093 -0.0425 -0.2279
 6430TIP3    H119296   4.642   0.062   0.549 -2.3437  1.1353  0.1530
 6430TIP3    H219297   4.728   0.095   0.669 -0.9465  1.8982 -1.0152
 6431TIP3   OH219298   2.943   2.288   1.067 -0.0213  0.1455  0.3865
 6431TIP3    H119299   2.861   2.328   1.039 -0.7365 -1.5329 -0.0562
 6431TIP3    H219300   2.923   2.248   1.152 -0.0437 -1.2985 -0.2671
 6432TIP3   OH219301   3.323   4.738   3.903  0.3205 -0.1043 -0.4725
 6432TIP3    H119302   3.376   4.773   3.831  2.7484 -3.6214 -0.6908
 6432TIP3    H219303   3.374   4.758   3.982 -0.9694  1.3512  0.0428
 6433TIP3   OH219304   4.682   4.422   4.032 -0.0209  0.2609  0.2616
 6433TIP3    H119305   4.634   4.431   3.950 -0.0520  0.5249  0.3065
 6433TIP3    H219306   4.651   4.340   4.070  0.2228 -0.0215 -0.1409
 6434TIP3   OH219307   3.389   5.662   0.384  0.6020  0.6799  0.3852
 6434TIP3    H119308   3.438   5.706   0.454 -0.3832  1.5855  0.5326
 6434TIP3    H219309   3.441   5.677   0.306  0.6940  1.4487  0.5775
 6435TIP3   OH219310   5.782   3.560   0.204 -0.2343  0.4020  0.1337
 6435TIP3    H119311   5.693   3.569   0.239 -0.1820 -0.7709  0.6254
 6435TIP3    H219312   5.784   3.619   0.128 -1.4295  0.4620  0.1265
 6436TIP3   OH219313   6.023   4.662   1.592  0.0858 -0.3388 -0.2480
 6436TIP3    H119314   6.032   4.694   1.502 -0.1204 -1.8982 -0.8670
 6436TIP3    H219315   6.111   4.630   1.614 -0.0769 -0.8134 -0.2658
 6437TIP3   OH219316   3.975   0.999   2.871 -0.3225  0.6518 -0.1179
 6437TIP3    H119317   3.995   0.905   2.864 -1.3304  0.5407 -2.1830
 6437TIP3    H219318   3.920   1.005   2.950 -1.0090 -0.6445 -0.4557
 6438TIP3   OH219319   1.710   5.700   0.466  0.3090  0.1748 -0.0560
 6438TIP3    H119320   1.734   5.633   0.402 -0.1660 -0.1612  0.1120
 6438TIP3    H219321   1.654   5.760   0.417  0.9976  0.6306 -0.2914
 6439TIP3   OH219322   1.653   3.618   1.561  0.6263 -0.3962  0.3148
 6439TIP3    H119323   1.693   3.591   1.643 -0.9712 -0.3859  1.1474
 6439TIP3    H219324   1.578   3.560   1.550  0.9434 -0.5593 -1.2848
 6440TIP3   OH219325   5.868   4.654   3.706 -0.0879  0.7623 -0.3332
 6440TIP3    H119326   5.785   4.605   3.703  0.6116 -0.4827  0.1445
 6440TIP3    H219327   5.935   4.589   3.685  0.8319  1.6045 -0.0463
 6441TIP3   OH219328   4.169   3.473   3.638 -0.0905 -0.1263 -0.0429
 6441TIP3    H119329   4.106   3.416   3.594 -2.3408  0.6998  1.9059
 6441TIP3    H219330   4.177   3.549   3.579 -0.7501 -0.3351 -0.4103
 6442TIP3   OH219331   4.191   2.950   3.546 -0.0469 -0.1006  0.3684
 6442TIP3    H119332   4.155   2.912   3.466  0.0518 -2.8779  1.5094
 6442TIP3    H219333   4.278   2.980   3.522 -0.5720  0.4602 -0.8864
 6443TIP3   OH219334   2.768   0.561   5.075 -0.7792  0.0047 -0.2440
 6443TIP3    H119335   2.820   0.491   5.115 -0.9237  0.3019  0.4662
 6443TIP3    H219336   2.730   0.520   4.997 -1.2499 -0.8620  0.4105
 6444TIP3   OH219337   1.630   1.833   1.648  0.0765 -0.2508  0.0257
 6444TIP3    H119338   1.692   1.805   1.715  0.9299 -1.7564 -1.3347
 6444TIP3    H219339   1.677   1.899   1.597 -0.4628  0.6666  0.6896
 6445TIP3   OH219340   6.178   5.824   3.089 -0.0822 -0.6069 -0.0830
 6445TIP3    H119341   6.199   5.910   3.124  0.9218 -0.8056 -0.1747
 6445TIP3    H219342   6.111   5.841   3.023  0.8618  0.2486 -0.8614
 6446TIP3   OH219343   4.503   2.794   0.464  0.0495  0.0435  0.3385
 6446TIP3    H119344   4.475   2.703   0.461 -2.0404  0.6166  0.0887
 6446TIP3    H219345   4.573   2.800   0.399  0.1707 -1.3640  0.3071
 6447TIP3   OH219346   4.427   2.334   3.142 -0.2382  0.3784  0.1771
 6447TIP3    H119347   4.383   2.314   3.059  1.8109 -0.3706 -0.8059
 6447TIP3    H219348   4.443   2.428   3.138  0.6126  0.2116 -0.7019
 6448TIP3   OH219349   5.449   3.993   1.000  0.3720 -0.3711 -0.6162
 6448TIP3    H119350   5.422   3.999   0.908 -2.1148  1.7999  0.1134
 6448TIP3    H219351   5.424   3.904   1.027  0.8455 -0.9209 -1.9127
 6449TIP3   OH219352   2.269   4.786   0.933 -0.0952 -0.6146  0.0253
 6449TIP3    H119353   2.179   4.816   0.951  0.7150  2.7238 -0.8581
 6449TIP3    H219354   2.320   4.823   1.005  0.9000 -0.6436 -0.6637
 6450TIP3   OH219355   6.099   1.940   1.932 -0.1314 -0.0055 -0.6446
 6450TIP3    H119356   6.102   1.913   2.024  0.1463  0.5262 -0.4895
 6450TIP3    H219357   6.162   1.884   1.888  0.2266  0.1895 -0.3829
 6451TIP3   OH219358   6.259   1.431   1.251 -0.2878 -0.4276  0.1394
 6451TIP3    H119359   6.179   1.484   1.247  0.0078 -0.0463 -1.0067
 6451TIP3    H219360   6.306   1.451   1.170  0.2042 -1.8578  0.0333
 6452TIP3   OH219361   4.147   4.590   0.383  0.7212 -0.1516  0.0428
 6452TIP3    H119362   4.199   4.661   0.421 -0.2729  0.8085 -0.3437
 6452TIP3    H219363   4.126   4.620   0.294  1.4392 -1.5442 -0.6253
 6453TIP3   OH219364   2.970   4.551   2.549 -0.1115 -0.1336 -0.2799
 6453TIP3    H119365   2.883   4.536   2.585  0.0441 -0.9274 -0.2229
 6453TIP3    H219366   2.961   4.537   2.455  0.3279 -2.0682 -0.0741
 6454TIP3   OH219367   3.765   2.164   2.651 -0.0027  0.0481 -0.6399
 6454TIP3    H119368   3.828   2.100   2.683  0.7761  0.8193 -0.5804
 6454TIP3    H219369   3.717   2.191   2.729 -1.2967 -1.4614 -0.8791
 6455TIP3   OH219370   5.580   0.152   2.071 -0.3379 -0.2317  0.5064
 6455TIP3    H119371   5.648   0.180   2.010 -2.0960  3.7584  0.0085
 6455TIP3    H219372   5.540   0.075   2.029  2.2803 -1.2526 -0.2927
 6456TIP3   OH219373   2.783   1.289   4.432  0.0348  0.2378  0.0064
 6456TIP3    H119374   2.800   1.341   4.353 -1.7032  0.7882 -0.0316
 6456TIP3    H219375   2.692   1.307   4.454 -0.2588 -1.8657  0.7067
 6457TIP3   OH219376   1.025   2.817   4.602  0.4874 -0.3323 -0.0018
 6457TIP3    H119377   0.980   2.740   4.638  1.8393 -1.9315 -1.5533
 6457TIP3    H219378   0.984   2.831   4.517  2.9378 -1.9638 -1.5431
 6458TIP3   OH219379   5.792   2.447   3.754 -0.1438 -0.0810 -0.2724
 6458TIP3    H119380   5.882   2.472   3.778 -0.8081  0.5145  1.9087
 6458TIP3    H219381   5.746   2.440   3.838 -2.3078  0.2693 -1.3415
 6459TIP3   OH219382   2.036   3.197   4.012  0.3344  0.3306 -0.5683
 6459TIP3    H119383   2.025   3.239   4.097  0.6152 -0.6074 -0.0526
 6459TIP3    H219384   2.018   3.104   4.028  2.7490 -0.2825 -0.9875
 6460TIP3   OH219385   5.665   4.787   5.061  0.4972  0.6398 -0.4755
 6460TIP3    H119386   5.662   4.869   5.110 -0.5379  0.1786  0.2870
 6460TIP3    H219387   5.595   4.734   5.100 -0.0593  0.0706 -2.1435
 6461TIP3   OH219388   1.889   5.345   1.233  0.3453 -0.3206 -0.4142
 6461TIP3    H119389   1.956   5.347   1.301 -0.6636 -1.0465  0.6280
 6461TIP3    H219390   1.938   5.329   1.152  1.3845 -1.3989  0.3928
 6462TIP3   OH219391   4.112   1.452   3.399 -0.0042  0.3239 -0.8130
 6462TIP3    H119392   4.029   1.491   3.372  0.8102  1.0634 -2.4281
 6462TIP3    H219393   4.173   1.474   3.328  1.1696 -1.6016 -0.4852
 6463TIP3   OH219394   2.121   5.906   2.617  0.7906  0.4689 -0.4671
 6463TIP3    H119395   2.167   5.983   2.651  0.2016  1.4660 -1.7820
 6463TIP3    H219396   2.128   5.840   2.686  0.9569  1.8516  0.8997
 6464TIP3   OH219397   0.177   3.952   3.180 -0.0698  0.0739 -0.2748
 6464TIP3    H119398   0.108   3.909   3.230  0.8247 -0.6383  0.3601
 6464TIP3    H219399   0.138   3.965   3.093 -0.7243 -1.0520 -0.1708
 6465TIP3   OH219400   1.671   2.990   0.614  0.6049 -0.2581  0.2228
 6465TIP3    H119401   1.600   2.943   0.657  1.6764 -1.9029  0.3015
 6465TIP3    H219402   1.750   2.944   0.642  1.6480  1.0495 -0.4536
 6466TIP3   OH219403   4.399   2.799   3.893 -0.1582 -0.0204  0.2868
 6466TIP3    H119404   4.372   2.767   3.807 -2.0335  0.5149  0.6306
 6466TIP3    H219405   4.402   2.721   3.948 -4.0465  0.0640  0.9532
 6467TIP3   OH219406   1.514   3.796   1.307  0.0820  0.5500 -0.7355
 6467TIP3    H119407   1.512   3.854   1.384  0.8582  0.7105 -0.8284
 6467TIP3    H219408   1.472   3.716   1.336  1.5000  0.1286  0.2690
 6468TIP3   OH219409   4.528   1.211   4.462 -0.5135 -0.1037  0.3714
 6468TIP3    H119410   4.618   1.179   4.465 -0.7079 -0.7423 -0.2460
 6468TIP3    H219411   4.484   1.165   4.533 -0.4031  0.0391  0.5320
 6469TIP3   OH219412   5.701   2.527   2.571 -0.3968  1.0103  0.1500
 6469TIP3    H119413   5.726   2.586   2.501 -2.3099  0.6061 -0.9462
 6469TIP3    H219414   5.622   2.483   2.539 -0.9090  0.2588  2.2510
 6470TIP3   OH219415   4.457   0.750   3.065 -0.7030 -0.1670 -0.3995
 6470TIP3    H119416   4.392   0.808   3.104 -0.0370  1.1508 -1.1681
 6470TIP3    H219417   4.417   0.722   2.982 -1.1592 -1.0934  0.1217
 6471TIP3   OH219418   4.928   3.530   3.232 -0.1827  0.0399 -0.6452
 6471TIP3    H119419   4.889   3.587   3.165  0.6177 -0.2202 -1.3462
 6471TIP3    H219420   5.013   3.506   3.197  0.8595  1.0016  1.0658
 6472TIP3   OH219421   2.714   3.455   0.186  0.2679 -0.2039 -0.3460
 6472TIP3    H119422   2.781   3.387   0.185  0.7010  0.2150 -0.0152
 6472TIP3    H219423   2.647   3.423   0.247  0.5510 -0.2494 -0.0627
 6473TIP3   OH219424   2.196   4.797   4.564 -0.6358 -0.1108  0.1533
 6473TIP3    H119425   2.238   4.739   4.500  2.2841 -0.9238  2.5600
 6473TIP3    H219426   2.241   4.881   4.553 -0.8709  0.0504  0.4301
 6474TIP3   OH219427   0.233   1.171   2.240 -0.1755 -0.4745  0.1182
 6474TIP3    H119428   0.192   1.086   2.255 -2.3206  0.3565 -0.5884
 6474TIP3    H219429   0.267   1.167   2.151 -1.2192 -0.2843 -0.3093
 6475TIP3   OH219430   6.103   4.630   0.838  0.4533  0.2987 -0.4654
 6475TIP3    H119431   6.085   4.565   0.906  1.2728 -0.0269 -0.5422
 6475TIP3    H219432   6.088   4.584   0.756 -1.0448  0.8461 -0.5129
 6476TIP3   OH219433   3.292   3.328   0.654 -0.2866 -0.3976 -0.4621
 6476TIP3    H119434   3.375   3.375   0.662 -1.4811  1.8673 -0.5623
 6476TIP3    H219435   3.237   3.384   0.600 -1.8202 -1.9733 -0.6522
 6477TIP3   OH219436   5.511   3.635   0.513  0.1930 -0.2971 -0.2308
 6477TIP3    H119437   5.487   3.662   0.424  0.2335  3.3057  0.6891
 6477TIP3    H219438   5.599   3.597   0.504  0.3040  0.2467 -1.6824
 6478TIP3   OH219439   1.397   0.068   0.217  0.3783 -0.4761 -0.2980
 6478TIP3    H119440   1.329   0.047   0.153  0.8129  1.4488 -1.4744
 6478TIP3    H219441   1.355   0.132   0.276  1.0385  0.5127 -0.8701
 6479TIP3   OH219442   3.877   2.367   4.549 -0.2796 -0.1437  0.2567
 6479TIP3    H119443   3.920   2.423   4.485 -1.5759  2.1126  1.2318
 6479TIP3    H219444   3.946   2.346   4.613  0.2098  0.4232 -0.0834
 6480TIP3   OH219445   1.162   2.347   3.668 -0.0990 -0.2746 -0.4507
 6480TIP3    H119446   1.160   2.306   3.754  1.7134  0.2390 -0.1146
 6480TIP3    H219447   1.076   2.330   3.631 -0.4594 -1.6572  0.9235
 6481TIP3   OH219448   0.947   1.979   0.554  0.8546 -0.3152  0.1373
 6481TIP3    H119449   1.011   1.916   0.586 -0.3648 -1.1463  1.0478
 6481TIP3    H219450   0.960   1.982   0.460  1.0919 -1.7520  0.1101
 6482TIP3   OH219451   2.259   0.023   2.020  0.9449 -0.5183 -0.4220
 6482TIP3    H119452   2.290  -0.010   2.105  0.9262  1.0659  0.2319
 6482TIP3    H219453   2.329   0.082   1.992  0.3344 -0.0132 -0.8734
 6483TIP3   OH219454   3.901   4.968   3.556 -0.3631  0.2400 -0.9062
 6483TIP3    H119455   3.994   4.975   3.579 -0.4375  1.1305 -0.8385
 6483TIP3    H219456   3.892   4.881   3.519  0.6070  0.3314 -1.3809
 6484TIP3   OH219457   2.471   3.424   2.734 -0.0586  0.8208  0.5031
 6484TIP3    H119458   2.376   3.427   2.721 -0.0608 -0.7066  0.0665
 6484TIP3    H219459   2.503   3.364   2.667  0.8864 -0.8481  2.3544
 6485TIP3   OH219460   1.870   3.257   3.787  0.5021  0.3360  0.2509
 6485TIP3    H119461   1.941   3.276   3.725  1.1725  0.5112  1.0602
 6485TIP3    H219462   1.915   3.236   3.869 -0.3994  1.4351  1.0448
 6486TIP3   OH219463   4.884   1.533   2.574  0.8966  0.4345  0.3052
 6486TIP3    H119464   4.955   1.588   2.541  1.8155  0.6155  2.4127
 6486TIP3    H219465   4.922   1.486   2.648 -1.0243  0.0505  1.1201
 6487TIP3   OH219466   2.410   4.222   2.250 -0.3928 -0.3674  0.0454
 6487TIP3    H119467   2.359   4.227   2.330  0.6906 -1.0875  0.8165
 6487TIP3    H219468   2.402   4.308   2.210  0.3457  0.5423  1.7625
 6488TIP3   OH219469   4.215   0.984   0.951 -0.3437  0.3572  0.2420
 6488TIP3    H119470   4.281   1.053   0.960  0.8485 -0.6219 -0.5625
 6488TIP3    H219471   4.174   1.000   0.866 -0.8233  0.7113  0.5436
 6489TIP3   OH219472   0.636   5.659   0.745 -0.3895  0.1316 -0.3173
 6489TIP3    H119473   0.662   5.751   0.736  2.6056 -0.4616  1.0883
 6489TIP3    H219474   0.605   5.635   0.658 -0.5056  2.2433 -0.9281
 6490TIP3   OH219475   3.572   4.071   1.185  0.2073 -0.2151 -0.7843
 6490TIP3    H119476   3.655   4.085   1.140  0.5301 -2.3771 -0.9512
 6490TIP3    H219477   3.561   3.976   1.186 -2.1887  0.0140 -0.6078
 6491TIP3   OH219478   4.365   3.621   3.431  0.1981 -0.7178  0.5686
 6491TIP3    H119479   4.348   3.597   3.340 -0.1270  1.3885  0.0269
 6491TIP3    H219480   4.405   3.543   3.469  1.0083 -1.4142 -1.5685
 6492TIP3   OH219481   3.189   3.638   4.823  0.4806  0.5784 -0.1176
 6492TIP3    H119482   3.223   3.607   4.907  0.3606 -0.1381 -0.3322
 6492TIP3    H219483   3.194   3.562   4.766  0.2912  0.9883 -0.6826
 6493TIP3   OH219484   0.310   0.415   4.681  0.2413  0.2042 -0.2567
 6493TIP3    H119485   0.341   0.486   4.738 -1.9267 -1.4024  3.2527
 6493TIP3    H219486   0.225   0.445   4.649 -0.3901 -0.4837  0.7210
 6494TIP3   OH219487   3.665   2.221   3.994 -0.1153  0.1900  0.0105
 6494TIP3    H119488   3.713   2.175   4.063 -1.8035  0.5759  1.5080
 6494TIP3    H219489   3.592   2.163   3.972 -1.4594  1.4689  0.9180
 6495TIP3   OH219490   0.109   0.928   2.748  0.0939  0.0376  0.3509
 6495TIP3    H119491   0.077   0.894   2.664 -0.7491  0.0180  0.6809
 6495TIP3    H219492   0.114   0.851   2.804  0.1453  0.1374  0.4827
 6496TIP3   OH219493   4.599   5.266   4.620 -0.5988 -0.6680 -0.2372
 6496TIP3    H119494   4.593   5.214   4.700  0.7397  3.0029  2.5437
 6496TIP3    H219495   4.530   5.331   4.628  1.8287  2.0817 -0.0179
 6497TIP3   OH219496   0.070   2.911   2.680 -0.1553  0.3215  0.3766
 6497TIP3    H119497   0.101   3.001   2.670 -0.8792  0.5334 -0.1096
 6497TIP3    H219498   0.002   2.902   2.613  0.1630 -0.7088  0.1700
 6498TIP3   OH219499   1.279   3.650   0.281 -0.4187  0.4316 -0.0212
 6498TIP3    H119500   1.257   3.743   0.272 -0.1560  0.4180 -0.8982
 6498TIP3    H219501   1.266   3.632   0.374  0.0607  1.4854  0.2700
 6499TIP3   OH219502   3.871   4.862   4.636 -0.1680 -0.2973  0.6429
 6499TIP3    H119503   3.887   4.956   4.630 -1.7530 -0.0550 -0.3893
 6499TIP3    H219504   3.779   4.856   4.664 -0.1977 -1.5426  0.3121
 6500TIP3   OH219505   0.023   4.102   4.796  0.5003  0.1621 -0.4659
 6500TIP3    H119506  -0.065   4.137   4.810  1.0308  0.9785  1.0935
 6500TIP3    H219507   0.070   4.172   4.750  1.2532  1.1782  1.7027
 6501TIP3   OH219508   1.683   1.340   4.275  0.2400  0.1177  0.0818
 6501TIP3    H119509   1.621   1.409   4.296 -0.4210 -0.6059  0.5608
 6501TIP3    H219510   1.745   1.381   4.214 -0.3503  1.0157  0.0690
 6502TIP3   OH219511   6.119   2.813   3.419  0.5334  0.2272 -0.0168
 6502TIP3    H119512   6.043   2.842   3.368  1.0256 -0.8821 -1.4489
 6502TIP3    H219513   6.090   2.730   3.458  0.8206  0.0706 -0.1358
 6503TIP3   OH219514   2.256   2.378   0.521  0.2260  0.0760 -0.3644
 6503TIP3    H119515   2.178   2.324   0.522 -0.0786  0.5120  1.2007
 6503TIP3    H219516   2.263   2.413   0.610  1.1904  1.4853 -0.9545
 6504TIP3   OH219517   0.123   2.540   3.413  0.2240  0.1971 -0.4983
 6504TIP3    H119518   0.056   2.604   3.387  0.9464  0.6829 -1.1974
 6504TIP3    H219519   0.176   2.586   3.478 -1.3986 -0.9150  1.7510
 6505TIP3   OH219520   0.643   4.844   4.474 -0.4030 -0.0973  0.0343
 6505TIP3    H119521   0.689   4.804   4.400 -3.7610 -0.1754 -2.2380
 6505TIP3    H219522   0.630   4.773   4.536  2.3192 -0.0776  0.7560
 6506TIP3   OH219523   6.009   4.922   5.080  0.4946 -0.2219  0.2958
 6506TIP3    H119524   5.942   4.989   5.079  0.0547 -0.6540 -0.2914
 6506TIP3    H219525   6.088   4.966   5.050  0.1761  0.0080 -0.2249
 6507TIP3   OH219526   2.970   5.324   0.729 -0.5692 -0.3832 -0.4518
 6507TIP3    H119527   3.058   5.299   0.701  0.2486  0.6143  1.0543
 6507TIP3    H219528   2.936   5.247   0.775  0.4689 -0.0245  0.9743
 6508TIP3   OH219529   5.136   4.127   2.520 -0.8031  0.2224  0.1865
 6508TIP3    H119530   5.116   4.034   2.532 -2.5038  0.7224  1.6860
 6508TIP3    H219531   5.229   4.135   2.543 -0.5445 -1.1374 -0.2861
 6509TIP3   OH219532   0.753   2.160   1.459  0.0473  0.7983 -0.2883
 6509TIP3    H119533   0.772   2.144   1.551 -1.0122  0.4322 -0.1230
 6509TIP3    H219534   0.813   2.230   1.434  0.7515  0.4995  0.5173
 6510TIP3   OH219535   4.793   1.991   3.003  0.3829  0.9383  0.6341
 6510TIP3    H119536   4.749   1.969   2.921  1.5159 -1.1520  0.5370
 6510TIP3    H219537   4.816   2.083   2.994 -0.2583  0.9648 -1.0312
 6511TIP3   OH219538   1.147   5.286   0.793  0.2195  0.1298  0.0702
 6511TIP3    H119539   1.224   5.284   0.850  2.2867 -3.7534 -2.3467
 6511TIP3    H219540   1.099   5.205   0.814 -3.9115  2.7510  1.9951
 6512TIP3   OH219541   2.143   3.531   0.623  0.4056 -0.0585  0.3824
 6512TIP3    H119542   2.123   3.527   0.717 -1.9733  1.9662  0.0600
 6512TIP3    H219543   2.121   3.444   0.590  1.6261 -0.9179  1.7119
 6513TIP3   OH219544   2.344   4.692   0.693  0.2441 -0.0836  0.0142
 6513TIP3    H119545   2.330   4.719   0.784  2.5585  1.3484  0.0063
 6513TIP3    H219546   2.429   4.648   0.694  0.3042 -0.0455 -1.4580
 6514TIP3   OH219547   0.884   0.745   4.828  0.1926  0.2448 -0.2502
 6514TIP3    H119548   0.973   0.725   4.797 -0.5724 -0.2554 -2.2579
 6514TIP3    H219549   0.898   0.797   4.907  2.2793 -1.7659  0.8455
 6515TIP3   OH219550   3.686   1.995   1.107 -0.0492  0.4944  0.0247
 6515TIP3    H119551   3.656   1.904   1.111 -0.3553  0.6353  1.1126
 6515TIP3    H219552   3.769   1.991   1.059 -0.1868 -0.3174 -0.1541
 6516TIP3   OH219553   4.671   5.349   0.164 -0.2553  0.3282  0.3324
 6516TIP3    H119554   4.614   5.347   0.087 -1.1392  2.3982  0.8513
 6516TIP3    H219555   4.610   5.348   0.238  0.4761  0.6421  0.9469
 6517TIP3   OH219556   1.509   0.176   2.240  0.2621  0.3486 -0.1241
 6517TIP3    H119557   1.602   0.179   2.218 -0.1572 -0.0021 -2.2134
 6517TIP3    H219558   1.499   0.098   2.294  0.6440 -2.1448 -3.3398
 6518TIP3   OH219559   0.449   5.716   2.280  0.0502  0.7044  0.2208
 6518TIP3    H119560   0.513   5.748   2.217  1.2669 -1.5759  0.2037
 6518TIP3    H219561   0.451   5.621   2.270 -1.3132  0.4166  2.1794
 6519TIP3   OH219562   2.437   0.554   1.466 -0.1419 -0.6076 -0.2628
 6519TIP3    H119563   2.375   0.567   1.394 -0.1653 -1.0404 -0.3230
 6519TIP3    H219564   2.398   0.601   1.540 -0.4013 -0.6408 -0.3775
 6520TIP3   OH219565   0.324   1.525   1.965  0.2155  0.2440 -0.0289
 6520TIP3    H119566   0.345   1.450   2.019  1.0062 -0.7209 -1.6054
 6520TIP3    H219567   0.267   1.490   1.896  1.7038  0.7406 -1.5863
 6521TIP3   OH219568   2.398   0.661   3.843  0.5253  0.3382  0.5572
 6521TIP3    H119569   2.367   0.601   3.911  1.1280 -0.0646  0.4914
 6521TIP3    H219570   2.323   0.671   3.784  0.6509 -1.0095  0.1247
 6522TIP3   OH219571   4.205   0.336   1.684 -0.0465  0.1152  0.1003
 6522TIP3    H119572   4.269   0.273   1.649 -0.1066  0.4731 -0.6916
 6522TIP3    H219573   4.153   0.362   1.607 -0.3562  0.7446  0.5119
 6523TIP3   OH219574   0.810   1.105   1.461 -0.0689  0.2455 -0.2224
 6523TIP3    H119575   0.743   1.167   1.491  0.3404  0.0597  1.1370
 6523TIP3    H219576   0.762   1.043   1.407 -0.7160  1.0054 -0.5480
 6524TIP3   OH219577   2.937   3.723   3.401 -0.5445  0.3695  0.7139
 6524TIP3    H119578   2.929   3.631   3.375  1.4182  0.1619  0.6956
 6524TIP3    H219579   2.849   3.747   3.430 -1.4311 -1.0888 -0.5967
 6525TIP3   OH219580   0.853   3.041   0.501  0.2539 -0.0526  0.0586
 6525TIP3    H119581   0.947   3.059   0.503  0.1044  0.8645 -0.4535
 6525TIP3    H219582   0.813   3.120   0.539 -0.2190 -1.3303  2.3936
 6526TIP3   OH219583   4.263   1.608   4.673  0.0584  0.5846  0.1666
 6526TIP3    H119584   4.331   1.574   4.616 -1.0087 -0.7670 -0.3687
 6526TIP3    H219585   4.189   1.624   4.614 -0.4632  0.9446  0.9025
 6527TIP3   OH219586   2.879   5.261   2.768 -0.2078 -0.0363 -0.0017
 6527TIP3    H119587   2.920   5.338   2.808  2.9182 -0.5526 -1.8133
 6527TIP3    H219588   2.787   5.284   2.760  0.6339  3.7368 -0.8402
 6528TIP3   OH219589   4.520   4.383   3.771 -0.1565  0.1427 -0.1925
 6528TIP3    H119590   4.498   4.298   3.807 -0.4791  0.2427 -0.1537
 6528TIP3    H219591   4.455   4.443   3.807 -1.9760 -0.1488 -2.7245
 6529TIP3   OH219592   3.321   0.760   5.129 -0.4547 -0.0278  0.2006
 6529TIP3    H119593   3.330   0.855   5.138 -2.6894  0.3167 -0.4289
 6529TIP3    H219594   3.272   0.749   5.047 -0.9122 -1.6724  0.6608
 6530TIP3   OH219595   3.067   0.807   3.568  0.7547 -0.7230 -0.0826
 6530TIP3    H119596   3.094   0.825   3.658 -0.9160  0.4708  0.2365
 6530TIP3    H219597   3.020   0.724   3.572 -1.7787  0.6418  0.7665
 6531TIP3   OH219598   0.051   4.680   2.352  0.5568  0.1439 -0.4746
 6531TIP3    H119599   0.142   4.678   2.382  1.6150 -0.1988 -3.3549
 6531TIP3    H219600   0.016   4.594   2.377  1.3025 -0.0520 -0.0583
 6532TIP3   OH219601   5.911   2.001   4.060  0.3968  0.2115 -0.5340
 6532TIP3    H119602   5.947   1.942   3.993  0.3706 -1.2879  0.7072
 6532TIP3    H219603   5.970   1.991   4.135 -0.1996  1.0063  0.0644
 6533TIP3   OH219604   3.917   1.599   1.782 -0.2709  0.0607  0.2118
 6533TIP3    H119605   3.952   1.510   1.788  0.1050  0.0815 -1.1988
 6533TIP3    H219606   3.874   1.614   1.866  0.8294 -0.9476  0.9898
 6534TIP3   OH219607   4.938   1.767   3.319 -0.1534  0.0369  0.0849
 6534TIP3    H119608   4.843   1.763   3.325 -0.2438 -1.2370 -1.5200
 6534TIP3    H219609   4.958   1.739   3.230  1.7741 -0.5647  0.6467
 6535TIP3   OH219610   1.687   0.944   4.065 -0.2714  0.3583 -0.1163
 6535TIP3    H119611   1.654   0.866   4.110  1.2212 -0.6786 -0.7490
 6535TIP3    H219612   1.758   0.911   4.010  0.1515  2.1279 -0.6668
 6536TIP3   OH219613   4.412   2.384   3.418 -0.1785  0.1305 -0.0867
 6536TIP3    H119614   4.417   2.345   3.331 -1.6286 -0.3629  0.0281
 6536TIP3    H219615   4.440   2.315   3.478 -0.8064 -0.0919 -0.0417
 6537TIP3   OH219616   4.755   5.029   3.433  0.1907  0.2812  0.0202
 6537TIP3    H119617   4.673   5.001   3.394 -0.3960  0.8022  0.8385
 6537TIP3    H219618   4.819   4.965   3.403 -0.5004 -0.0982 -0.6750
 6538TIP3   OH219619   5.177   0.265   0.795  0.1973  0.1022  0.1265
 6538TIP3    H119620   5.145   0.346   0.835  1.0458  0.6659 -0.3125
 6538TIP3    H219621   5.156   0.197   0.859 -1.3988  0.5134  0.0905
 6539TIP3   OH219622   1.030   2.714   0.210 -0.0752 -0.3326  0.1560
 6539TIP3    H119623   1.033   2.618   0.213 -0.2587 -0.4249 -1.4705
 6539TIP3    H219624   0.963   2.733   0.144  0.0976  0.9118  0.3263
 6540TIP3   OH219625   2.649   0.633   1.231  0.7929  0.0642 -0.0032
 6540TIP3    H119626   2.585   0.629   1.302  1.4001 -0.6683  0.5242
 6540TIP3    H219627   2.730   0.600   1.270  1.4998  0.9745 -0.6543
 6541TIP3   OH219628   4.618   4.682   2.745 -0.2434 -0.4548 -0.0361
 6541TIP3    H119629   4.586   4.742   2.678 -0.3263 -1.9995 -1.4367
 6541TIP3    H219630   4.540   4.656   2.794 -0.3673 -0.2629 -0.1301
 6542TIP3   OH219631   2.256   0.805   4.616 -0.4698  0.3111  0.1574
 6542TIP3    H119632   2.317   0.800   4.542 -0.5634 -0.1439  0.1066
 6542TIP3    H219633   2.208   0.887   4.602  1.2308  1.5343  1.0669
 6543TIP3   OH219634   5.354   2.879   0.264  0.1007  0.0832 -0.1507
 6543TIP3    H119635   5.306   2.960   0.281 -1.0748 -0.3398 -1.3270
 6543TIP3    H219636   5.300   2.831   0.202  1.5323 -0.9096 -0.6961
 6544TIP3   OH219637   4.143   0.033   4.304 -0.1186  0.1510 -0.2686
 6544TIP3    H119638   4.203  -0.040   4.317 -0.3425  0.1455  0.7938
 6544TIP3    H219639   4.166   0.068   4.218 -1.8994 -2.9384 -2.2023
 6545TIP3   OH219640   5.227   0.257   1.477  0.1210  0.3481  0.0995
 6545TIP3    H119641   5.312   0.299   1.473  0.3999 -0.2376 -0.4097
 6545TIP3    H219642   5.244   0.172   1.519  0.3122 -0.9023 -2.2950
 6546TIP3   OH219643   2.354   2.915   1.054 -0.1208 -0.4413  0.3391
 6546TIP3    H119644   2.278   2.961   1.091  0.6747  0.8130  0.4950
 6546TIP3    H219645   2.378   2.967   0.977 -0.5088 -1.8630 -0.7606
 6547TIP3   OH219646   3.519   4.829   3.405  0.8282 -0.0550 -0.2121
 6547TIP3    H119647   3.469   4.749   3.388  0.5720  0.1792 -0.5714
 6547TIP3    H219648   3.529   4.870   3.320 -0.2744  1.0109  0.1497
 6548TIP3   OH219649   5.021   2.946   0.304 -0.6419  0.0119 -1.0441
 6548TIP3    H119650   4.933   2.967   0.334 -0.4357  0.0847 -0.4735
 6548TIP3    H219651   5.072   3.025   0.325 -0.3062 -0.2727 -0.7907
 6549TIP3   OH219652   4.915   1.380   1.502  0.9817 -0.0753 -0.8953
 6549TIP3    H119653   4.873   1.433   1.435 -0.2277 -0.0615 -0.1444
 6549TIP3    H219654   4.924   1.438   1.577  0.5932 -0.6258 -0.4129
 6550TIP3   OH219655   5.317   5.828   4.891  0.2992  0.3644  0.3931
 6550TIP3    H119656   5.272   5.758   4.939  0.9999 -0.4991 -0.2021
 6550TIP3    H219657   5.308   5.804   4.799 -2.1155  2.6435 -0.0814
 6551TIP3   OH219658   5.350   0.615   4.335 -0.0115  0.4433 -0.0373
 6551TIP3    H119659   5.433   0.638   4.293  0.1310  1.4072  0.7183
 6551TIP3    H219660   5.373   0.547   4.398  0.3143  1.0538  0.5186
 6552TIP3   OH219661   3.556   1.318   0.485  0.1961  0.4838 -0.4012
 6552TIP3    H119662   3.557   1.227   0.457  0.7926  0.0379  0.9473
 6552TIP3    H219663   3.548   1.369   0.404  1.8049 -0.7088 -1.3757
 6553TIP3   OH219664   2.703   1.436   1.988  0.4827  0.3941 -0.5832
 6553TIP3    H119665   2.771   1.434   1.920 -0.4229 -0.6976 -1.4956
 6553TIP3    H219666   2.681   1.344   2.003  0.6181  0.6267  1.1717
 6554TIP3   OH219667   4.012   1.146   0.354  0.4591  0.5075 -0.4012
 6554TIP3    H119668   3.989   1.102   0.272 -0.5822  0.8740 -0.3158
 6554TIP3    H219669   4.050   1.077   0.409 -1.6748 -0.4574 -0.0479
 6555TIP3   OH219670   5.919   3.912   0.973  0.4429 -0.1498  0.4460
 6555TIP3    H119671   5.940   3.938   1.063  0.5741  1.4870 -0.0203
 6555TIP3    H219672   5.880   3.825   0.981  2.1113 -0.8245  1.9079
 6556TIP3   OH219673   2.334   3.977   4.737  0.5201 -0.3182 -0.5914
 6556TIP3    H119674   2.405   4.040   4.724 -0.9793  1.6159  0.0442
 6556TIP3    H219675   2.255   4.031   4.739 -0.8365 -2.2281  0.2182
 6557TIP3   OH219676   3.786   2.398   2.480 -0.2011 -0.3459  0.0026
 6557TIP3    H119677   3.773   2.308   2.509  1.1081 -0.0912  1.4965
 6557TIP3    H219678   3.818   2.444   2.557 -0.5905  1.3611 -0.8007
 6558TIP3   OH219679   0.296   3.188   2.038  0.0313  0.5435 -0.3232
 6558TIP3    H119680   0.289   3.135   1.959  0.8603  0.3034 -0.2548
 6558TIP3    H219681   0.208   3.220   2.054  0.2080  2.3413 -2.5330
 6559TIP3   OH219682   3.113   4.739   4.886  0.2681 -0.4859  0.0790
 6559TIP3    H119683   3.144   4.662   4.935  3.4769 -0.0009 -0.9705
 6559TIP3    H219684   3.111   4.809   4.952 -1.2045 -1.0939  0.7155
 6560TIP3   OH219685   2.912   0.297   4.198  0.1818 -0.4431 -0.5953
 6560TIP3    H119686   2.828   0.309   4.152 -0.6988 -0.8020  0.8593
 6560TIP3    H219687   2.918   0.374   4.255 -0.4751 -1.7091  1.2421
 6561TIP3   OH219688   1.921   2.960   0.214 -0.3170  0.4901 -0.1331
 6561TIP3    H119689   2.005   2.975   0.257 -0.4446  1.9039 -0.3181
 6561TIP3    H219690   1.880   3.047   0.211 -1.1164  0.0919 -1.4378
 6562TIP3   OH219691   4.894   5.396   3.099 -0.3458 -0.3890  0.2987
 6562TIP3    H119692   4.906   5.445   3.181  0.6296 -0.8051  0.4159
 6562TIP3    H219693   4.941   5.314   3.113 -1.1468 -0.9591 -0.2574
 6563TIP3   OH219694   4.072   0.197   4.498 -0.0713  0.4340 -0.0663
 6563TIP3    H119695   4.054   0.129   4.434  1.7096 -0.0483 -0.1151
 6563TIP3    H219696   4.009   0.266   4.479  1.3589  0.9893 -3.3814
 6564TIP3   OH219697   1.955   5.776   1.145  0.8353 -0.3797 -0.5407
 6564TIP3    H119698   2.011   5.755   1.070  0.7150 -0.9336 -0.4819
 6564TIP3    H219699   1.884   5.712   1.140  0.0485  0.5033 -0.7831
 6565TIP3   OH219700   5.819   3.906   4.923  0.1341  0.3753 -0.4913
 6565TIP3    H119701   5.848   3.836   4.865  0.4325  0.9133 -1.0068
 6565TIP3    H219702   5.728   3.923   4.897 -0.2385 -0.4070  0.2318
 6566TIP3   OH219703   5.219   4.141   2.155  0.4944  0.2608  0.0612
 6566TIP3    H119704   5.255   4.064   2.113 -1.4812  0.1828 -1.6807
 6566TIP3    H219705   5.140   4.110   2.199 -1.7850  1.5021 -2.7524
 6567TIP3   OH219706   1.841   5.559   5.015 -0.4232 -0.2312 -0.1480
 6567TIP3    H119707   1.789   5.500   4.960 -0.1041 -1.4530  0.8224
 6567TIP3    H219708   1.831   5.525   5.104  2.9430 -1.2853 -0.0243
 6568TIP3   OH219709   0.849   2.118   2.823 -0.1736  0.0059  0.7481
 6568TIP3    H119710   0.824   2.135   2.732  0.7569  0.0537  0.4969
 6568TIP3    H219711   0.818   2.029   2.840 -0.6637  0.1232  0.5052
 6569TIP3   OH219712   3.663   0.912   0.935  0.2328  0.1865  0.1396
 6569TIP3    H119713   3.709   0.850   0.991 -1.0611  0.1267  1.1978
 6569TIP3    H219714   3.623   0.975   0.996 -1.8938 -0.3439 -0.6050
 6570TIP3   OH219715   6.097   3.592   4.779 -0.2266  0.3090  0.0014
 6570TIP3    H119716   6.014   3.567   4.820  0.1754  0.5845  1.0348
 6570TIP3    H219717   6.125   3.514   4.732  0.3133 -0.7841  1.9955
 6571TIP3   OH219718   2.427   4.516   2.211 -0.1984 -0.2897  0.4471
 6571TIP3    H119719   2.442   4.535   2.304 -1.5146 -0.7560  0.7738
 6571TIP3    H219720   2.388   4.596   2.176 -1.3396 -0.7085  0.7224
 6572TIP3   OH219721   0.485   3.110   5.131 -0.0341 -0.3970 -0.3368
 6572TIP3    H119722   0.461   3.191   5.085 -1.7539 -2.0167 -2.4809
 6572TIP3    H219723   0.469   3.040   5.068  1.7283 -2.4394  1.3192
 6573TIP3   OH219724   2.342   2.013   4.890 -0.2014  0.1969 -0.3265
 6573TIP3    H119725   2.352   2.054   4.976 -1.9587 -0.2516  0.1483
 6573TIP3    H219726   2.413   1.948   4.886 -1.6300 -1.7196  2.0257
 6574TIP3   OH219727   2.325   1.981   1.117  0.3580  0.0677 -0.5290
 6574TIP3    H119728   2.283   1.903   1.079 -1.0732 -0.5756  2.1136
 6574TIP3    H219729   2.403   1.947   1.161 -0.6488 -0.0704  1.2370
 6575TIP3   OH219730   3.972   5.185   2.914  0.0646  0.0267  0.3972
 6575TIP3    H119731   3.920   5.192   2.994  1.7478  1.0110  1.4705
 6575TIP3    H219732   3.987   5.276   2.887 -1.1632 -0.3013 -1.5398
 6576TIP3   OH219733   1.625   2.638   1.387  0.3691 -0.7148  0.3606
 6576TIP3    H119734   1.575   2.606   1.462 -1.7146 -1.3524 -1.1895
 6576TIP3    H219735   1.608   2.573   1.318 -2.0043  2.2852 -2.1855
 6577TIP3   OH219736   1.376   3.440   4.965 -0.0106 -0.3390  0.3798
 6577TIP3    H119737   1.453   3.456   4.910 -1.7084 -1.2297 -2.4415
 6577TIP3    H219738   1.319   3.386   4.912 -2.4671 -0.0523  2.5177
 6578TIP3   OH219739   4.867   1.004   0.528 -0.6311  0.6423 -0.3262
 6578TIP3    H119740   4.820   1.080   0.494 -3.6275  0.2747  2.5005
 6578TIP3    H219741   4.832   0.930   0.478 -0.6233  0.7102 -0.4326
 6579TIP3   OH219742   3.295   2.834   4.985 -0.5403  0.4251  0.5239
 6579TIP3    H119743   3.272   2.764   4.924  0.1535  1.5017 -1.0482
 6579TIP3    H219744   3.265   2.803   5.070 -2.2531 -0.8212 -0.4667
 6580TIP3   OH219745   4.825   0.893   0.958  0.2400  0.2744 -0.4551
 6580TIP3    H119746   4.816   0.800   0.941 -0.2535  0.3581 -0.6416
 6580TIP3    H219747   4.918   0.904   0.978 -0.0239 -0.5584  1.3959
 6581TIP3   OH219748   5.063   1.454   2.850  0.1367  0.0182  0.5082
 6581TIP3    H119749   4.997   1.385   2.863  1.0768 -0.7724  1.2219
 6581TIP3    H219750   5.034   1.526   2.905  0.0598 -0.4703  1.1127
 6582TIP3   OH219751   4.310   5.162   3.880  0.7382  0.1005 -0.0055
 6582TIP3    H119752   4.275   5.225   3.944  0.3251  0.6428 -0.7492
 6582TIP3    H219753   4.399   5.144   3.911 -0.1713 -1.3961  1.9883
 6583TIP3   OH219754   2.401   4.401   1.746  0.1211 -0.4337 -0.1026
 6583TIP3    H119755   2.388   4.493   1.768 -0.5177 -0.4383 -0.4527
 6583TIP3    H219756   2.355   4.352   1.814  1.4784 -0.5411  0.7922
 6584TIP3   OH219757   2.223   1.267   0.700  0.1953  0.3714  0.1467
 6584TIP3    H119758   2.258   1.257   0.611 -2.0252  0.3112 -0.7767
 6584TIP3    H219759   2.294   1.235   0.757  1.0731 -1.1609 -1.6704
 6585TIP3   OH219760   0.603   3.042   4.707 -0.1516 -0.0761 -0.0643
 6585TIP3    H119761   0.568   3.024   4.795  0.2010  1.0734  0.3247
 6585TIP3    H219762   0.527   3.074   4.657 -0.3533 -0.7344 -0.1899
 6586TIP3   OH219763   5.114   1.043   4.256  0.8896  0.3243  0.1792
 6586TIP3    H119764   5.091   1.136   4.255  1.5088  0.4760 -0.1440
 6586TIP3    H219765   5.052   1.004   4.319  1.3645  1.1490  1.1936
 6587TIP3   OH219766   3.359   3.313   4.032  0.6820  0.0081 -0.0150
 6587TIP3    H119767   3.367   3.395   4.080  0.1841 -0.3269  0.6438
 6587TIP3    H219768   3.272   3.281   4.053  0.7813 -0.5718 -0.4683
 6588TIP3   OH219769   0.662   5.298   0.497  0.0042  0.1136  0.8837
 6588TIP3    H119770   0.667   5.393   0.510 -2.0442  0.0174  3.1705
 6588TIP3    H219771   0.724   5.261   0.559  0.7750 -0.0813  0.0197
 6589TIP3   OH219772   1.414   5.211   3.317 -0.0079  0.2221 -0.7612
 6589TIP3    H119773   1.490   5.187   3.370 -1.7124  0.1487  1.8307
 6589TIP3    H219774   1.377   5.127   3.289  0.3818  0.2264 -1.2863
 6590TIP3   OH219775   0.859   0.473   4.886 -0.5367  0.3280  0.2814
 6590TIP3    H119776   0.788   0.457   4.948 -1.4120 -2.0418 -1.2025
 6590TIP3    H219777   0.863   0.568   4.878 -2.4893  0.5665  1.5760
 6591TIP3   OH219778   4.589   0.162   3.634  0.4184  0.0039  0.1383
 6591TIP3    H119779   4.616   0.115   3.555 -0.6495 -0.0973 -0.1781
 6591TIP3    H219780   4.527   0.103   3.677  0.2219  0.4892  0.5244
 6592TIP3   OH219781   3.680   0.508   0.384  0.2567 -0.2178 -0.1264
 6592TIP3    H119782   3.640   0.549   0.461 -0.7673  1.3121 -1.4151
 6592TIP3    H219783   3.737   0.575   0.348 -0.1910 -0.4735 -1.3547
 6593TIP3   OH219784   1.890   3.849   0.724  0.5084  0.6077 -0.3068
 6593TIP3    H119785   1.897   3.776   0.663  0.2177 -0.9689  1.4548
 6593TIP3    H219786   1.797   3.873   0.722 -0.0389 -1.1019  1.2435
 6594TIP3   OH219787   5.944   1.957   0.709 -0.2557  0.0387  0.9310
 6594TIP3    H119788   5.870   2.009   0.741  0.4083  1.7111 -0.0829
 6594TIP3    H219789   6.020   2.015   0.718  0.4850 -0.6522 -0.4981
 6595TIP3   OH219790   2.042   1.450   3.683 -0.1195 -0.2461  0.3149
 6595TIP3    H119791   2.065   1.369   3.728 -0.6897  0.1828  1.4256
 6595TIP3    H219792   2.094   1.517   3.728  0.4781 -0.0109 -0.7071
 6596TIP3   OH219793   2.268   1.036   2.644 -0.4737  0.6702 -0.0605
 6596TIP3    H119794   2.255   0.958   2.697 -0.3505  0.7911  0.1529
 6596TIP3    H219795   2.304   1.004   2.561  1.3927  0.6260  0.7025
 6597TIP3   OH219796   2.503   0.670   0.293  0.5832  0.2652  0.1841
 6597TIP3    H119797   2.580   0.722   0.317 -0.0621  1.3657 -0.0807
 6597TIP3    H219798   2.530   0.624   0.214  1.2249  0.0582  0.5197
 6598TIP3   OH219799   0.056   1.498   2.415  0.3287 -0.7608  0.5011
 6598TIP3    H119800   0.109   1.570   2.381  0.7093 -0.7029  1.2095
 6598TIP3    H219801  -0.030   1.536   2.430 -0.4851 -1.2629 -2.3438
 6599TIP3   OH219802   3.480   1.428   4.470 -0.0907 -0.4628 -0.0914
 6599TIP3    H119803   3.477   1.481   4.549 -0.5516  2.0461 -1.6725
 6599TIP3    H219804   3.400   1.375   4.473 -0.6104  0.3442  0.6469
 6600TIP3   OH219805   5.810   1.682   4.125  0.3329  0.4500  0.1528
 6600TIP3    H119806   5.904   1.700   4.130  0.1007  1.5864  0.8189
 6600TIP3    H219807   5.804   1.589   4.103  1.6063  0.5967 -0.9300
 6601TIP3   OH219808   2.524   0.855   3.134  0.0323 -0.0179  0.0640
 6601TIP3    H119809   2.608   0.900   3.139  1.0291 -1.5841 -1.3242
 6601TIP3    H219810   2.506   0.826   3.223  1.9113 -1.2386  0.0889
 6602TIP3   OH219811   2.386   1.146   4.336  0.0257  0.0239  0.0866
 6602TIP3    H119812   2.469   1.111   4.306  0.7150  1.4360  0.2691
 6602TIP3    H219813   2.348   1.188   4.259 -0.9630 -1.3672 -0.2223
 6603TIP3   OH219814   4.502   2.081   4.025  0.2136  1.1159  0.1489
 6603TIP3    H119815   4.597   2.073   4.016  0.2647 -0.0554  1.4132
 6603TIP3    H219816   4.480   2.160   3.976  1.7274  0.9657 -0.8491
 6604TIP3   OH219817   0.365   0.688   5.130  0.0446  0.9851 -0.5240
 6604TIP3    H119818   0.419   0.677   5.052 -1.4152  0.5577 -1.5054
 6604TIP3    H219819   0.297   0.621   5.122  1.1075 -0.5913  2.2513
 6605TIP3   OH219820   5.622   5.563   2.219 -0.3310 -0.4077 -0.6620
 6605TIP3    H119821   5.624   5.502   2.145 -0.1301  0.5919 -1.4987
 6605TIP3    H219822   5.578   5.641   2.186  1.7619  0.9458 -0.4418
 6606TIP3   OH219823   0.468   4.012   4.346 -0.1045 -0.4491  0.0540
 6606TIP3    H119824   0.493   3.948   4.413  0.2162 -0.6202 -0.2244
 6606TIP3    H219825   0.478   4.097   4.389  1.2528 -0.4976 -0.1357
 6607TIP3   OH219826   3.399   4.125   4.653  0.3922  0.1646 -0.3115
 6607TIP3    H119827   3.451   4.142   4.574  1.7946  0.3391  0.6163
 6607TIP3    H219828   3.415   4.032   4.673 -0.5360 -0.0765 -0.6117
 6608TIP3   OH219829   3.970   1.129   1.847  0.1799 -0.0035 -0.2175
 6608TIP3    H119830   3.974   1.153   1.939 -0.3482 -0.4111 -0.0815
 6608TIP3    H219831   4.024   1.051   1.839 -0.2152 -0.2916 -0.1368
 6609TIP3   OH219832   0.461   0.856   3.535 -0.0996  0.2376 -0.0224
 6609TIP3    H119833   0.486   0.929   3.591  0.3353 -0.7372  1.1119
 6609TIP3    H219834   0.366   0.854   3.539 -0.0521 -0.5468  1.7219
 6610TIP3   OH219835   3.110   2.509   3.328 -0.3586 -0.3313 -0.1908
 6610TIP3    H119836   3.178   2.571   3.305  0.3943 -0.6015  1.2084
 6610TIP3    H219837   3.029   2.560   3.329 -0.2197 -0.0223 -1.9160
 6611TIP3   OH219838   5.893   5.829   2.587 -0.3801 -0.1302  0.1893
 6611TIP3    H119839   5.838   5.852   2.661 -0.8175  2.2567 -0.7915
 6611TIP3    H219840   5.837   5.776   2.530 -1.0831  0.6933  0.0992
 6612TIP3   OH219841   2.785   4.949   3.556  0.0588 -0.3552  0.6992
 6612TIP3    H119842   2.763   4.862   3.522 -1.1987  0.3365 -0.3567
 6612TIP3    H219843   2.866   4.936   3.606 -0.1431 -2.1312  0.6142
 6613TIP3   OH219844   3.159   1.004   4.735  0.2062 -0.3864 -0.1233
 6613TIP3    H119845   3.195   0.916   4.742 -1.1778 -0.9484  0.1667
 6613TIP3    H219846   3.153   1.020   4.640  2.2769  0.2045 -0.2101
 6614TIP3   OH219847   3.624   4.474   1.338  0.5711  0.6280 -0.4112
 6614TIP3    H119848   3.553   4.538   1.333 -0.0062 -0.0761 -1.5670
 6614TIP3    H219849   3.653   4.463   1.248  0.7901 -0.5984 -0.2069
 6615TIP3   OH219850  -0.013   2.175   4.030  0.1244  0.2566 -0.2160
 6615TIP3    H119851   0.075   2.152   4.060  0.5728  1.0791 -0.8473
 6615TIP3    H219852  -0.060   2.092   4.024  1.1034 -0.2738 -0.6239
 6616TIP3   OH219853   3.317   3.887   0.485 -0.3980 -0.0104  0.2594
 6616TIP3    H119854   3.336   3.948   0.414 -0.4295  0.2434  0.4659
 6616TIP3    H219855   3.222   3.872   0.480 -0.2942 -0.5727 -0.2095
 6617TIP3   OH219856   0.281   0.879   1.655 -0.3834  0.2733  0.1511
 6617TIP3    H119857   0.281   0.838   1.569  0.8145 -1.5873  0.9644
 6617TIP3    H219858   0.305   0.808   1.715 -1.6536  1.3885  2.0854
 6618TIP3   OH219859   2.636   1.881   4.898  0.0120 -0.0465  0.3823
 6618TIP3    H119860   2.621   1.855   4.989 -0.5370  0.4029  0.4249
 6618TIP3    H219861   2.642   1.977   4.902  0.6928 -0.0682  0.0412
 6619TIP3   OH219862   4.824   3.812   4.572 -0.4934 -0.4257 -0.4567
 6619TIP3    H119863   4.784   3.869   4.505  0.0928  0.9153  0.2916
 6619TIP3    H219864   4.874   3.872   4.627  0.9597 -1.7994 -0.1999
 6620TIP3   OH219865   6.180   5.397   1.741 -0.3633  0.0936 -0.0033
 6620TIP3    H119866   6.107   5.448   1.707  0.4404  1.0661 -0.3291
 6620TIP3    H219867   6.151   5.306   1.735 -0.1539  0.1139 -3.6975
 6621TIP3   OH219868   5.389   4.063   4.753  0.2801 -0.5464 -0.1090
 6621TIP3    H119869   5.469   4.066   4.805  1.1420 -2.2011 -1.2453
 6621TIP3    H219870   5.335   3.996   4.795  0.7761 -1.5424 -1.0006
 6622TIP3   OH219871   0.755   2.846   0.378 -0.1854 -0.5165  0.4394
 6622TIP3    H119872   0.822   2.778   0.385  1.2230  0.6186 -1.1822
 6622TIP3    H219873   0.791   2.921   0.425 -0.6441 -0.1313  0.1926
 6623TIP3   OH219874   4.975   4.796   2.425 -0.0450 -0.1798 -0.4309
 6623TIP3    H119875   5.050   4.756   2.470 -0.4457  0.8234  1.2308
 6623TIP3    H219876   4.900   4.744   2.454 -0.1174 -0.5297 -1.2451
 6624TIP3   OH219877   3.202   3.785   4.106 -0.7025 -1.0072  0.7611
 6624TIP3    H119878   3.128   3.836   4.073  0.2501 -0.0951 -0.0219
 6624TIP3    H219879   3.205   3.806   4.200 -0.5458  0.0982  0.5170
 6625TIP3   OH219880   1.023   5.859   4.058 -0.1899 -0.1550  0.0071
 6625TIP3    H119881   1.078   5.934   4.080  1.0364 -1.1504  0.4439
 6625TIP3    H219882   1.048   5.835   3.969 -0.1771 -0.3927  0.0745
 6626TIP3   OH219883   5.723   1.238   2.880  0.4852  0.4305 -0.2817
 6626TIP3    H119884   5.744   1.146   2.862  0.2034  0.0669  1.0729
 6626TIP3    H219885   5.802   1.286   2.859  1.7132 -0.5236  1.8182
 6627TIP3   OH219886   5.589   2.061   0.912 -0.2985  0.4500 -0.0872
 6627TIP3    H119887   5.604   2.059   0.818 -0.7672 -0.5635 -0.1537
 6627TIP3    H219888   5.590   2.154   0.935  5.1896  0.7287 -0.1640
 6628TIP3   OH219889   2.220   1.409   1.175  1.0309 -0.4006 -0.0682
 6628TIP3    H119890   2.232   1.378   1.085 -2.1283 -1.6149 -0.2022
 6628TIP3    H219891   2.250   1.336   1.230 -1.0297 -1.4995 -0.2960
 6629TIP3   OH219892   4.283   5.488   2.191 -0.0313  0.2653 -0.2322
 6629TIP3    H119893   4.320   5.465   2.276  0.2633  0.9834 -0.1609
 6629TIP3    H219894   4.308   5.415   2.133  0.3194  0.0895  0.1376
 6630TIP3   OH219895   4.865   5.174   0.300  0.2621  0.6475 -0.1934
 6630TIP3    H119896   4.843   5.267   0.302  0.3048  0.6497  0.6984
 6630TIP3    H219897   4.812   5.136   0.370  0.4623  0.0479 -0.3632
 6631TIP3   OH219898   2.754   5.843   1.014 -0.2746  0.1841 -0.4109
 6631TIP3    H119899   2.783   5.800   0.934 -0.6890 -0.7536 -0.0746
 6631TIP3    H219900   2.675   5.890   0.989  0.1850  0.7803 -0.7831
 6632TIP3   OH219901   5.106   4.934   1.546  0.0422 -0.7403  0.1088
 6632TIP3    H119902   5.025   4.937   1.597 -0.9530 -0.0764 -1.4224
 6632TIP3    H219903   5.167   4.884   1.600 -2.0172 -3.1400  0.4069
 6633TIP3   OH219904   2.642   5.612   3.918  0.6021  0.3305  0.1283
 6633TIP3    H119905   2.690   5.597   3.837 -0.5630  2.5275 -1.0409
 6633TIP3    H219906   2.554   5.578   3.901  0.5686  0.0993  0.7481
 6634TIP3   OH219907   5.218   3.765   0.172  0.2169  0.2752  0.1987
 6634TIP3    H119908   5.177   3.851   0.172  1.7554  1.0334  0.3180
 6634TIP3    H219909   5.293   3.774   0.114  0.9441 -0.7335  0.9533
 6635TIP3   OH219910   1.844   1.124   3.711  0.0448  0.2045 -0.0121
 6635TIP3    H119911   1.796   1.199   3.676  0.8882  0.9876  0.4433
 6635TIP3    H219912   1.776   1.061   3.737 -0.6651  0.6918 -0.6485
 6636TIP3   OH219913   3.190   5.820   2.182  0.4584  0.8163 -0.1403
 6636TIP3    H119914   3.277   5.814   2.142  0.0560 -1.2626 -0.8533
 6636TIP3    H219915   3.205   5.801   2.275  0.7098 -0.1403 -0.3692
 6637TIP3   OH219916   6.186   1.687   1.858  0.1573 -0.3039 -0.1307
 6637TIP3    H119917   6.147   1.631   1.925 -1.1080  0.2744 -0.3700
 6637TIP3    H219918   6.137   1.667   1.778  1.9867 -1.3758 -1.0578
 6638TIP3   OH219919   3.238   2.679   4.765  0.1107  0.2701 -0.4517
 6638TIP3    H119920   3.291   2.605   4.734  0.4228  0.3039 -0.0194
 6638TIP3    H219921   3.190   2.709   4.688  0.1683 -0.2303 -0.6866
 6639TIP3   OH219922   4.709   5.148   2.065 -0.1650  0.0396 -0.0734
 6639TIP3    H119923   4.749   5.178   2.146 -0.3688 -0.6767  0.2959
 6639TIP3    H219924   4.716   5.053   2.068 -0.8387 -0.0344 -0.5493
 6640TIP3   OH219925   2.646   3.763   1.134  0.3796 -0.1061  0.3415
 6640TIP3    H119926   2.558   3.756   1.098  0.0163 -1.8892  1.4643
 6640TIP3    H219927   2.670   3.674   1.158  1.9433  0.5270  1.3280
 6641TIP3   OH219928   1.571   1.889   5.060 -0.1129  0.0416  0.0951
 6641TIP3    H119929   1.583   1.976   5.021  0.0467 -0.2461 -0.5098
 6641TIP3    H219930   1.478   1.885   5.080 -0.0149  0.5800  0.6803
 6642TIP3   OH219931   3.745   4.960   4.193  0.2533  0.2480 -0.4604
 6642TIP3    H119932   3.762   5.003   4.109 -1.4258 -0.3752 -1.1660
 6642TIP3    H219933   3.753   4.867   4.175 -1.8571 -0.0030 -0.4296
 6643TIP3   OH219934   3.203   1.805   3.434  0.1614  0.5341  0.0614
 6643TIP3    H119935   3.155   1.763   3.362  1.3111 -1.0359  0.1540
 6643TIP3    H219936   3.159   1.890   3.446 -0.9575  0.2271 -1.5193
 6644TIP3   OH219937   2.379   3.462   5.115  0.2050 -0.1655 -0.3335
 6644TIP3    H119938   2.315   3.526   5.147 -0.6844 -1.3253  0.2802
 6644TIP3    H219939   2.444   3.456   5.185 -0.1117 -0.4748 -0.0643
 6645TIP3   OH219940   5.420   1.056   0.334  0.2905 -0.1701  0.5118
 6645TIP3    H119941   5.359   1.038   0.406 -0.7634 -0.0423 -0.3112
 6645TIP3    H219942   5.369   1.036   0.255  0.5721  1.9816 -0.2792
   6.34420   5.98137   5.18002   0.00000   0.00000  -2.11474   0.00000  -2.11474  -2.99068
