Title
19942
    1ASP      N    1   2.744   4.815   3.671  0.3550  0.1951 -0.1606
    1ASP    HT1    2   2.705   4.877   3.745 -0.2675 -0.1826 -0.1662
    1ASP    HT2    3   2.847   4.807   3.680  0.4394 -0.5758 -1.5133
    1ASP    HT3    4   2.698   4.722   3.680 -1.8583  1.0876 -1.3013
    1ASP     CA    5   2.722   4.860   3.529  0.6792 -0.1170  0.6864
    1ASP     HA    6   2.623   4.900   3.518  1.6089  1.4712 -3.4392
    1ASP     CB    7   2.814   4.983   3.508  0.4102  0.0919 -0.0754
    1ASP    HB1    8   2.921   4.952   3.506  0.6959  1.0841 -0.4280
    1ASP    HB2    9   2.814   5.050   3.597 -0.3921 -0.0397  0.0390
    1ASP     CG   10   2.786   5.054   3.380  0.5919  0.3720  0.0485
    1ASP    OD1   11   2.865   5.142   3.340 -0.5647  0.0249  0.3915
    1ASP    OD2   12   2.682   5.022   3.313  0.6421 -0.4442  0.2431
    1ASP      C   13   2.733   4.739   3.437  1.0401  0.2622  0.5215
    1ASP      O   14   2.766   4.632   3.483 -0.4398  0.0055 -0.2529
    2ALA      N   15   2.712   4.750   3.300 -0.5043  0.5274  0.3985
    2ALA     HN   16   2.687   4.842   3.270 -0.6147  1.4105  2.9007
    2ALA     CA   17   2.728   4.651   3.200  0.5989  0.4477 -0.6933
    2ALA     HA   18   2.664   4.566   3.220 -0.3064  0.8873 -1.6077
    2ALA     CB   19   2.673   4.708   3.068 -0.7650 -0.1856  0.0280
    2ALA    HB1   20   2.563   4.719   3.073 -0.8588 -1.1640  0.2303
    2ALA    HB2   21   2.685   4.640   2.981  0.0288 -0.2629  0.1896
    2ALA    HB3   22   2.712   4.806   3.033 -0.5406 -0.4372 -0.4554
    2ALA      C   23   2.867   4.589   3.191 -0.0264 -0.6031  0.7347
    2ALA      O   24   2.971   4.651   3.213 -0.1041 -0.6846  0.3102
    3ASP      N   25   2.874   4.458   3.157 -0.2813 -0.1610  0.0110
    3ASP     HN   26   2.787   4.410   3.143 -1.2615  1.2997  0.8045
    3ASP     CA   27   2.997   4.379   3.135  0.5376  0.5357  0.3859
    3ASP     HA   28   3.062   4.407   3.217  0.3902 -1.9061  1.4287
    3ASP     CB   29   2.975   4.222   3.121  0.1693 -0.0994 -0.0033
    3ASP    HB1   30   3.062   4.169   3.076 -0.5545 -1.8212  0.5479
    3ASP    HB2   31   2.904   4.207   3.037 -0.5583  1.1306  0.3621
    3ASP     CG   32   2.949   4.152   3.250 -0.2292 -0.2354 -0.0988
    3ASP    OD1   33   2.940   4.207   3.363 -0.7452  0.4091  0.2996
    3ASP    OD2   34   2.931   4.025   3.242 -0.3769 -0.0161 -0.1683
    3ASP      C   35   3.055   4.428   3.003 -0.0751  0.0551  0.5904
    3ASP      O   36   2.987   4.472   2.913  0.6219  0.2316  0.1208
    4GLY      N   37   3.191   4.424   2.991 -0.4861 -0.4359 -0.1023
    4GLY     HN   38   3.242   4.413   3.076  1.4061  0.7461 -1.0226
    4GLY     CA   39   3.270   4.483   2.880 -0.0652  0.0955  0.3539
    4GLY    HA1   40   3.361   4.520   2.925 -1.0809  3.2724  0.0451
    4GLY    HA2   41   3.214   4.561   2.831  0.2915  0.7181  0.9287
    4GLY      C   42   3.311   4.379   2.781  0.3185 -0.7900 -0.0512
    4GLY      O   43   3.268   4.264   2.789  0.6436  0.4530  0.0802
    5PRO      N   44   3.404   4.415   2.690 -0.1256  0.0422  0.6978
    5PRO     CD   45   3.447   4.557   2.652  1.0550 -0.1697 -0.1727
    5PRO    HD1   46   3.531   4.592   2.715  0.5700 -1.5429  1.3131
    5PRO    HD2   47   3.363   4.630   2.656  2.1004  1.0671 -0.4125
    5PRO     CA   48   3.472   4.316   2.603  0.4164 -0.1065 -0.4235
    5PRO     HA   49   3.393   4.265   2.550  1.2032 -2.1098  0.2113
    5PRO     CB   50   3.542   4.397   2.500  0.6299  0.0429 -0.1900
    5PRO    HB1   51   3.542   4.344   2.402  0.0597 -1.0482  0.3845
    5PRO    HB2   52   3.649   4.421   2.517  1.2638 -1.5472 -1.5903
    5PRO     CG   53   3.473   4.537   2.499  0.3974  0.2668 -0.2124
    5PRO    HG1   54   3.533   4.622   2.461  2.1869 -1.6480 -1.9458
    5PRO    HG2   55   3.373   4.539   2.450  1.4279  0.6247 -2.3986
    5PRO      C   56   3.549   4.207   2.670  0.3026  0.0908 -0.5173
    5PRO      O   57   3.649   4.232   2.736 -0.2159  0.1687 -0.5068
    6GLY      N   58   3.495   4.085   2.655 -0.4941  0.0749 -0.5996
    6GLY     HN   59   3.416   4.076   2.595  0.4991  0.2522 -1.9734
    6GLY     CA   60   3.549   3.966   2.724  1.2618 -0.1204 -0.3839
    6GLY    HA1   61   3.463   3.904   2.745  0.6102  1.0012  0.3372
    6GLY    HA2   62   3.590   3.995   2.820 -0.9480  0.9447  0.2909
    6GLY      C   63   3.644   3.880   2.641 -0.0279  0.0746 -0.2381
    6GLY      O   64   3.736   3.931   2.575  0.1022  0.3319  0.1104
    7ASP      N   65   3.629   3.746   2.642  0.0892 -0.4666 -0.0279
    7ASP     HN   66   3.547   3.703   2.677 -1.2283  0.9396 -1.2397
    7ASP     CA   67   3.716   3.662   2.568 -0.0134  0.2240 -0.3375
    7ASP     HA   68   3.810   3.708   2.542 -0.5654  2.1897  0.8985
    7ASP     CB   69   3.742   3.529   2.649  0.5367 -0.6562  0.3582
    7ASP    HB1   70   3.648   3.477   2.679  1.8017 -3.0101  0.5038
    7ASP    HB2   71   3.784   3.560   2.747  0.5945  3.1497 -0.7437
    7ASP     CG   72   3.839   3.424   2.591 -0.6099 -0.1440 -0.5627
    7ASP    OD1   73   3.903   3.441   2.485 -0.0170 -0.1385  0.5122
    7ASP    OD2   74   3.875   3.324   2.659  0.7390 -0.0167 -0.3076
    7ASP      C   75   3.648   3.614   2.434  0.2412 -0.0012 -0.1144
    7ASP      O   76   3.554   3.538   2.451 -0.1272 -0.4524  0.2220
    8PRO      N   77   3.693   3.633   2.304  0.9167 -0.1349  0.3735
    8PRO     CD   78   3.782   3.753   2.284 -0.2072  0.2109  0.4200
    8PRO    HD1   79   3.889   3.733   2.307 -0.2729 -0.8402 -0.1536
    8PRO    HD2   80   3.752   3.841   2.345 -1.5169  0.2019 -0.1920
    8PRO     CA   81   3.619   3.598   2.183  0.2498 -0.1242 -0.0039
    8PRO     HA   82   3.524   3.648   2.181  0.6060  0.7070  1.7713
    8PRO     CB   83   3.717   3.661   2.078 -0.0884 -0.1729 -0.4112
    8PRO    HB1   84   3.665   3.678   1.981  1.9919  1.8785 -1.2583
    8PRO    HB2   85   3.799   3.592   2.047  0.2986  0.0368  0.1334
    8PRO     CG   86   3.775   3.789   2.140  0.1672  0.3937 -0.0543
    8PRO    HG1   87   3.873   3.799   2.090 -0.2057  0.8146 -0.7041
    8PRO    HG2   88   3.711   3.877   2.119 -0.2225 -0.3334 -2.1469
    8PRO      C   89   3.594   3.453   2.160  0.2565 -0.4136 -0.1941
    8PRO      O   90   3.501   3.423   2.091 -0.0428  0.2508  0.2607
    9ASP      N   91   3.670   3.364   2.213 -0.5780 -0.1859 -0.1774
    9ASP     HN   92   3.738   3.407   2.273 -0.5778 -1.2697  0.6168
    9ASP     CA   93   3.664   3.220   2.199  0.6600 -0.5295 -0.5948
    9ASP     HA   94   3.638   3.203   2.095  1.1240 -2.1774 -0.4585
    9ASP     CB   95   3.799   3.149   2.232  0.0201  0.6206  0.0046
    9ASP    HB1   96   3.787   3.044   2.198  1.6402  0.5149 -0.3365
    9ASP    HB2   97   3.805   3.155   2.343 -1.4298  0.9256  0.0866
    9ASP     CG   98   3.932   3.197   2.174 -0.8053 -0.0775  0.0027
    9ASP    OD1   99   4.034   3.128   2.183 -0.1644 -0.2358  0.4786
    9ASP    OD2  100   3.929   3.308   2.111  0.5835  0.1979  0.4003
    9ASP      C  101   3.549   3.171   2.294  0.0281  0.0955 -0.3972
    9ASP      O  102   3.498   3.063   2.265  0.7184  0.1561 -1.0458
   10ALA      N  103   3.517   3.236   2.407 -0.1095  0.1774  0.1968
   10ALA     HN  104   3.555   3.323   2.435 -0.6084 -0.0250  1.5760
   10ALA     CA  105   3.447   3.170   2.508 -0.6075  0.2142  0.3130
   10ALA     HA  106   3.481   3.068   2.515  1.5413  0.9678  1.8704
   10ALA     CB  107   3.494   3.236   2.636  0.0489  0.4173  0.2447
   10ALA    HB1  108   3.604   3.227   2.637 -0.0649 -1.6195 -0.4342
   10ALA    HB2  109   3.447   3.188   2.724 -0.0750  1.9362  1.0504
   10ALA    HB3  110   3.466   3.344   2.644 -0.1698  0.5969 -2.1438
   10ALA      C  111   3.301   3.170   2.495 -0.9577 -0.3248  0.5626
   10ALA      O  112   3.224   3.114   2.571 -0.2343 -0.0142 -0.1948
   11GLY      N  113   3.249   3.227   2.385 -0.6020  0.0264 -0.2536
   11GLY     HN  114   3.303   3.269   2.311 -2.4545  2.0656 -0.5616
   11GLY     CA  115   3.112   3.209   2.355  0.2304 -0.7503  0.1596
   11GLY    HA1  116   3.053   3.209   2.446  1.5649  3.1440  1.2021
   11GLY    HA2  117   3.108   3.124   2.288 -0.9720 -1.8085  1.5234
   11GLY      C  118   3.056   3.329   2.279 -0.9144 -0.5260  0.2392
   11GLY    OT1  119   2.965   3.321   2.194 -0.4988 -0.3359  0.0258
   11GLY    OT2  120   3.112   3.443   2.300 -0.3380  0.3252  0.1872
   12LIT    LIT  121   2.433   0.610   1.158  0.5699  0.9444  0.5255
   13LIT    LIT  122   3.869   0.035   3.605 -0.0598 -0.8489 -0.0230
   14LIT    LIT  123   2.025   2.837   0.190 -0.7072 -0.3793  0.1151
   15LIT    LIT  124   2.202   1.586   1.445  0.3395  0.8620 -0.4032
   16LIT    LIT  125   5.624   1.684   3.897 -0.3748  0.5754 -0.1432
   17LIT    LIT  126   4.721   4.177   4.826  0.5606 -0.7010  0.4654
   18LIT    LIT  127   4.327   3.544   1.287  0.2396  0.4874 -0.0180
   19LIT    LIT  128   4.001   3.336   2.794 -0.3400  1.1795 -1.1426
   20LIT    LIT  129   6.153   4.131   2.400  0.7461 -0.3454  0.8419
   21LIT    LIT  130   2.264   1.684   3.814  0.1773 -0.2383  0.4694
   22LIT    LIT  131   2.974   4.028   3.439  1.1374  0.1839  0.0036
   23LIT    LIT  132   4.663   0.132   0.579  0.6486  0.1328 -0.3304
   24LIT    LIT  133   4.074   5.319   4.296 -0.1829  1.8560  0.2128
   25LIT    LIT  134   3.718   0.711   3.825  0.1726 -0.1138 -0.3587
   26LIT    LIT  135   0.893   4.010   3.089 -0.1168 -0.5180  0.7037
   27LIT    LIT  136   1.525   5.685   1.436  0.5171 -0.1688  0.0286
   28LIT    LIT  137   4.879   5.431   3.002  0.8203 -0.5002 -0.6316
   29LIT    LIT  138   4.662   2.027   0.417 -0.8014 -0.4078 -0.1535
   30LIT    LIT  139   2.609   0.825   4.429  1.0873  0.8102 -0.0964
   31LIT    LIT  140   1.650   5.327   2.341  0.3677  1.2501  0.3823
   32LIT    LIT  141   2.865   4.879   2.136  1.1410 -0.1405 -0.1282
   33LIT    LIT  142   2.981   3.874   3.148  0.3586  1.3779 -0.6126
   34CLA    CLA  143   1.784   5.723   2.506  0.4500  0.1222  0.2919
   35CLA    CLA  144   4.658   3.689   3.801 -0.1888 -0.4336  0.1335
   36CLA    CLA  145   4.600   1.895   0.594  0.1564 -0.0157 -0.0333
   37CLA    CLA  146   2.382   1.483   2.271  0.3178 -0.1055  0.1758
   38CLA    CLA  147   4.802   3.163   1.087  0.1077 -0.1502 -0.0304
   39CLA    CLA  148   0.429   5.293   1.568 -0.1045 -0.0071  0.0015
   40CLA    CLA  149   2.978   3.027   3.255 -0.2162 -0.3133  0.4367
   41CLA    CLA  150   3.043   0.424   1.353 -0.3526  0.2399  0.2511
   42CLA    CLA  151   0.176   4.938   2.186 -0.2647 -0.0181  0.0418
   43CLA    CLA  152   1.260   3.560   4.850  0.1222  0.1633  0.1220
   44CLA    CLA  153   6.324   0.979   0.229 -0.2114 -0.6766 -0.0285
   45CLA    CLA  154   5.713   0.413   4.342  0.3747 -0.4189  0.3516
   46CLA    CLA  155   1.912   2.835   0.590 -0.0374 -0.3185 -0.0389
   47CLA    CLA  156   2.564   5.531   2.724  0.2688  0.3730  0.4169
   48CLA    CLA  157   3.189   2.786   4.438  0.1879 -0.0987 -0.0811
   49CLA    CLA  158   3.926   2.646   0.044 -0.0547 -0.1002  0.0579
   50CLA    CLA  159   3.250   5.626   0.273  0.0037 -0.2955  0.5120
   51CLA    CLA  160   1.065   2.829   0.256 -0.3031 -0.1559 -0.0065
   52TIP3   OH2  161   5.066   0.117   0.370  0.7718 -0.3658 -0.1878
   52TIP3    H1  162   5.011   0.107   0.293 -0.2322 -1.7675  0.6578
   52TIP3    H2  163   5.155   0.105   0.338  0.2197 -4.5316 -0.6893
   53TIP3   OH2  164   1.592   4.787   4.556  0.1869 -0.0695  0.4961
   53TIP3    H1  165   1.593   4.812   4.649  2.9986  0.5833  0.3927
   53TIP3    H2  166   1.629   4.862   4.511 -0.7417 -0.5565 -1.1496
   54TIP3   OH2  167   5.823   3.957   0.146 -0.2679  0.2723 -0.1521
   54TIP3    H1  168   5.899   3.997   0.104  0.9542 -1.1453  0.6214
   54TIP3    H2  169   5.755   3.959   0.079 -0.0128  2.7593 -0.4552
   55TIP3   OH2  170   3.553   5.748   0.986  0.2713  0.4598  0.4351
   55TIP3    H1  171   3.464   5.752   1.021  0.6914  0.0337  1.5830
   55TIP3    H2  172   3.608   5.780   1.057  1.2810 -1.7081  0.6829
   56TIP3   OH2  173   6.347   5.354   3.391 -0.0161 -0.4457 -0.7281
   56TIP3    H1  174   6.297   5.409   3.331 -1.1866 -2.1542 -1.4012
   56TIP3    H2  175   6.281   5.320   3.452  0.7658 -0.6436  0.0199
   57TIP3   OH2  176   3.629   2.382   3.563  0.1623 -0.3506  0.1558
   57TIP3    H1  177   3.669   2.299   3.591 -0.5707 -0.9778 -0.5939
   57TIP3    H2  178   3.548   2.356   3.518 -0.7695  0.8451  1.0637
   58TIP3   OH2  179   0.657   1.625   4.939  0.5778 -0.1098  0.0008
   58TIP3    H1  180   0.714   1.640   4.863 -0.8415 -2.2148 -1.6147
   58TIP3    H2  181   0.572   1.661   4.912 -0.3482 -2.2238 -0.1373
   59TIP3   OH2  182   6.033   1.182   1.197 -0.0051  0.1431  0.1716
   59TIP3    H1  183   5.977   1.233   1.255  1.0544  1.7475 -0.1603
   59TIP3    H2  184   5.987   1.098   1.187 -1.7206  0.9562  0.8557
   60TIP3   OH2  185   0.596   4.873   4.044  0.0329  0.0231 -0.2353
   60TIP3    H1  186   0.554   4.897   4.127 -0.5095  0.4663 -0.6271
   60TIP3    H2  187   0.673   4.821   4.070  0.1303  0.5438  0.5591
   61TIP3   OH2  188   6.347   5.283   1.261 -0.4914  0.1491  0.2820
   61TIP3    H1  189   6.311   5.245   1.181  1.6053  1.9645 -1.6920
   61TIP3    H2  190   6.295   5.362   1.275  0.2981  0.8136 -0.4214
   62TIP3   OH2  191   2.484   1.254   5.072  0.5460 -0.6439  0.7148
   62TIP3    H1  192   2.442   1.328   5.028  0.1083 -0.8917  0.7130
   62TIP3    H2  193   2.412   1.194   5.092  0.8173 -0.7885  1.2716
   63TIP3   OH2  194   2.535   2.147   2.486 -0.0588 -0.0992  0.0616
   63TIP3    H1  195   2.506   2.237   2.502  2.4011  0.6660  0.6712
   63TIP3    H2  196   2.456   2.095   2.496 -1.4557  1.9280  0.3024
   64TIP3   OH2  197   4.294   2.858   3.846 -0.1044 -0.3948 -0.2453
   64TIP3    H1  198   4.251   2.820   3.922  0.2933 -0.6734 -0.1579
   64TIP3    H2  199   4.375   2.808   3.836 -0.2689 -0.5305 -1.0006
   65TIP3   OH2  200   1.176   4.850   5.057 -0.4697  0.5210 -0.4087
   65TIP3    H1  201   1.237   4.907   5.010 -0.3730  1.0406  0.3287
   65TIP3    H2  202   1.112   4.910   5.095 -0.5237  0.1228  0.1428
   66TIP3   OH2  203   0.571   4.844   1.919  0.0039  0.0482 -0.0665
   66TIP3    H1  204   0.529   4.909   1.975 -1.2313 -0.2699 -0.5940
   66TIP3    H2  205   0.659   4.836   1.955  0.0172  1.6072  0.3387
   67TIP3   OH2  206   0.081   2.571   2.163  0.3275  0.6754  0.1131
   67TIP3    H1  207   0.035   2.646   2.126 -0.8231  0.4255  0.9791
   67TIP3    H2  208   0.108   2.600   2.250 -0.7223 -0.1208  0.7211
   68TIP3   OH2  209   5.351   0.460   0.561  0.4044  0.1408  0.0798
   68TIP3    H1  210   5.337   0.471   0.655 -1.4093 -1.0276 -0.0097
   68TIP3    H2  211   5.361   0.366   0.549  0.3493  0.2526 -0.9337
   69TIP3   OH2  212   5.380   3.703   2.917  0.4101  0.1685 -0.3303
   69TIP3    H1  213   5.381   3.799   2.908 -0.0534  0.0865 -1.6038
   69TIP3    H2  214   5.287   3.680   2.912  0.3804 -0.2450  1.6173
   70TIP3   OH2  215   2.142   5.522   1.213 -0.3076  0.4917 -0.1418
   70TIP3    H1  216   2.105   5.468   1.282 -1.4384  1.8275  0.3442
   70TIP3    H2  217   2.143   5.610   1.250 -0.6460  1.1856 -1.7063
   71TIP3   OH2  218   4.857   1.560   1.110  0.6406  0.7721 -0.1489
   71TIP3    H1  219   4.877   1.619   1.037 -0.8597 -0.2697 -1.4690
   71TIP3    H2  220   4.762   1.548   1.106  0.7713 -0.8911  0.7279
   72TIP3   OH2  221   1.277   5.413   3.450  0.1596  0.4452  0.1512
   72TIP3    H1  222   1.241   5.347   3.508 -0.2410  0.2842 -0.2763
   72TIP3    H2  223   1.330   5.364   3.387  0.9745  0.6615  0.6527
   73TIP3   OH2  224   1.639   1.694   3.315 -0.3500  0.7983  0.4335
   73TIP3    H1  225   1.550   1.667   3.334 -0.3484  1.2301  1.0589
   73TIP3    H2  226   1.690   1.613   3.320 -0.4814  0.7714  1.4568
   74TIP3   OH2  227   5.664   5.297   2.052 -0.1394  0.1280 -0.4730
   74TIP3    H1  228   5.651   5.381   2.008  1.3715  0.5308 -0.1789
   74TIP3    H2  229   5.702   5.240   1.986  0.9215  0.3514 -0.0731
   75TIP3   OH2  230   0.240   5.266   3.489 -0.2549 -0.3508  0.1028
   75TIP3    H1  231   0.298   5.330   3.449 -0.3357  0.0344  0.5873
   75TIP3    H2  232   0.152   5.292   3.463 -0.2304 -0.7978 -0.4401
   76TIP3   OH2  233   4.795   5.264   1.376  0.1073 -0.3980  0.3579
   76TIP3    H1  234   4.801   5.251   1.281 -0.6216  1.7912 -0.0347
   76TIP3    H2  235   4.873   5.221   1.411  0.9950 -0.2545 -1.3480
   77TIP3   OH2  236   4.011   3.073   1.719  0.4748 -0.2247  0.4180
   77TIP3    H1  237   4.049   3.158   1.737 -0.4415 -0.0282  1.5006
   77TIP3    H2  238   4.029   3.020   1.796 -1.8751  0.0548  1.2503
   78TIP3   OH2  239   5.618   4.877   4.647 -0.0221  0.1345  0.1686
   78TIP3    H1  240   5.631   4.925   4.729  1.3382 -0.9985  0.6442
   78TIP3    H2  241   5.707   4.859   4.616 -0.4957 -1.8527 -0.1147
   79TIP3   OH2  242   1.155   3.598   0.071 -0.2552  0.0397  0.5176
   79TIP3    H1  243   1.088   3.538   0.105  0.2294 -0.6084  0.3310
   79TIP3    H2  244   1.195   3.635   0.150  0.6954 -1.2723  0.6738
   80TIP3   OH2  245   1.155   0.813   0.891 -0.0984 -0.2112 -0.1684
   80TIP3    H1  246   1.192   0.730   0.920 -0.3990 -0.4864 -0.5644
   80TIP3    H2  247   1.146   0.804   0.797 -1.2920 -0.2045 -0.0669
   81TIP3   OH2  248   3.512   5.498   1.878  0.2307  0.3077  0.4443
   81TIP3    H1  249   3.600   5.524   1.849  0.5173 -0.4743  0.5838
   81TIP3    H2  250   3.501   5.541   1.963  0.9322 -0.4724  0.9482
   82TIP3   OH2  251   5.499   2.910   1.712 -0.2972  0.1297 -0.4800
   82TIP3    H1  252   5.557   2.980   1.745  0.4515 -0.0917 -1.2943
   82TIP3    H2  253   5.559   2.842   1.682 -0.9757  0.0966 -1.7898
   83TIP3   OH2  254   2.290   0.853   2.030  0.5001 -0.3123 -0.3308
   83TIP3    H1  255   2.289   0.949   2.027 -0.5660 -0.3320 -1.6144
   83TIP3    H2  256   2.352   0.828   1.961  0.3312 -0.5569 -0.3955
   84TIP3   OH2  257   4.847   3.947   3.743  0.1315 -0.0237  0.2348
   84TIP3    H1  258   4.831   3.867   3.693 -0.5005  1.4023 -1.9945
   84TIP3    H2  259   4.760   3.975   3.772  0.4966 -0.8856  2.3483
   85TIP3   OH2  260   0.886   0.683   4.354 -0.0503 -0.5702 -0.2716
   85TIP3    H1  261   0.849   0.669   4.268 -1.0016  2.2194 -0.4158
   85TIP3    H2  262   0.977   0.710   4.337 -0.2949  0.1654 -0.4201
   86TIP3   OH2  263   4.740   0.190   4.278 -0.2329  0.1762  0.1853
   86TIP3    H1  264   4.756   0.275   4.320 -1.0101  1.5151 -2.0592
   86TIP3    H2  265   4.788   0.195   4.195  0.5383 -2.0227  0.4261
   87TIP3   OH2  266   4.581   4.216   2.839 -0.0415 -0.1773 -0.3244
   87TIP3    H1  267   4.560   4.135   2.794  0.3655 -1.0644  1.0147
   87TIP3    H2  268   4.502   4.239   2.887  0.7114 -1.4441  1.6627
   88TIP3   OH2  269   5.469   1.838   1.682  0.4354  0.4605  0.2505
   88TIP3    H1  270   5.535   1.850   1.613 -0.9871 -0.0629 -1.2614
   88TIP3    H2  271   5.478   1.746   1.708 -2.3065 -0.8951 -2.9156
   89TIP3   OH2  272   4.252   0.678   0.037  0.2410 -0.2674 -0.3751
   89TIP3    H1  273   4.336   0.697   0.077  1.0046 -1.3805 -1.3677
   89TIP3    H2  274   4.191   0.672   0.110  1.1305  0.0170  0.3994
   90TIP3   OH2  275   4.276  -0.009   0.471 -0.0021  0.2923 -0.0797
   90TIP3    H1  276   4.262   0.035   0.387 -0.4516 -0.8945 -0.6493
   90TIP3    H2  277   4.241   0.052   0.536 -0.1222  1.0034 -0.7959
   91TIP3   OH2  278   3.289   0.360   0.048 -0.1690  0.1138 -0.4112
   91TIP3    H1  279   3.305   0.281  -0.005  0.7554 -0.2359  0.3581
   91TIP3    H2  280   3.357   0.421   0.020  1.9147 -0.9285  1.9928
   92TIP3   OH2  281   0.447   1.522   0.194  0.3889 -0.0454  0.2034
   92TIP3    H1  282   0.459   1.581   0.120  1.0816 -0.6212 -0.1566
   92TIP3    H2  283   0.354   1.499   0.191 -0.3413  2.4355  1.4538
   93TIP3   OH2  284   4.119   5.010   1.699 -0.2415  0.6143 -0.0515
   93TIP3    H1  285   4.064   4.995   1.622 -0.7057 -0.4543  0.4692
   93TIP3    H2  286   4.090   5.095   1.733  0.1023  1.1803 -1.1589
   94TIP3   OH2  287   6.090   2.006   3.055  0.3989  0.7242  0.0616
   94TIP3    H1  288   6.062   1.926   3.010  1.3624  0.2324  0.2991
   94TIP3    H2  289   6.021   2.070   3.037 -1.7202 -0.8715  1.9887
   95TIP3   OH2  290   5.777   0.567   1.143 -0.2509  0.3534 -0.4415
   95TIP3    H1  291   5.793   0.502   1.075 -0.1379  0.8575 -0.9050
   95TIP3    H2  292   5.789   0.651   1.099  2.7814  0.7276  0.8356
   96TIP3   OH2  293   5.609   2.344   2.814  0.0209 -0.3025  0.3120
   96TIP3    H1  294   5.664   2.300   2.749 -0.1256  0.7988 -0.6059
   96TIP3    H2  295   5.666   2.412   2.851 -0.2080 -0.2732  0.6150
   97TIP3   OH2  296   4.219   4.299   3.440  0.0759  0.0845  0.0275
   97TIP3    H1  297   4.260   4.213   3.450  0.5726  0.4964  1.8494
   97TIP3    H2  298   4.274   4.346   3.378  2.2432  0.4870  2.1152
   98TIP3   OH2  299   1.263   4.610   1.409  0.9284  0.1018  0.1873
   98TIP3    H1  300   1.247   4.700   1.382  0.7415  0.6128  1.9068
   98TIP3    H2  301   1.177   4.577   1.435  0.9879 -0.6104 -0.4555
   99TIP3   OH2  302   2.578   1.055   3.093 -0.7894  0.0743 -0.4314
   99TIP3    H1  303   2.564   1.114   3.019 -2.8489 -0.7899 -0.8005
   99TIP3    H2  304   2.491   1.041   3.129 -0.3851 -2.7766 -0.3834
  100TIP3   OH2  305   1.010   1.672   3.480 -0.0295 -0.3257  0.5014
  100TIP3    H1  306   1.034   1.763   3.461 -0.3802 -0.6252 -1.6766
  100TIP3    H2  307   0.942   1.679   3.547  0.0382  1.0019  0.4750
  101TIP3   OH2  308   1.763   3.758   4.275  0.0852  0.3067  0.2534
  101TIP3    H1  309   1.853   3.745   4.304 -0.4112 -1.0396  1.3323
  101TIP3    H2  310   1.710   3.725   4.347 -1.2633  0.1555 -0.7677
  102TIP3   OH2  311   3.097   5.891   2.170 -0.2868 -0.5248  0.6456
  102TIP3    H1  312   3.162   5.833   2.208 -0.3989 -2.8403 -2.3354
  102TIP3    H2  313   3.013   5.849   2.187 -0.4014 -1.1451 -1.2424
  103TIP3   OH2  314   3.120   5.537   0.665  0.6687  0.4237 -0.6589
  103TIP3    H1  315   3.043   5.516   0.613  0.6662 -0.2561 -0.3869
  103TIP3    H2  316   3.151   5.621   0.630 -0.4408  0.9256 -0.4850
  104TIP3   OH2  317   4.559   3.930   4.672  0.0050  0.1206  0.3132
  104TIP3    H1  318   4.621   3.937   4.599  0.0919 -0.8368  0.2797
  104TIP3    H2  319   4.607   3.963   4.748  0.1047  0.6106  0.0383
  105TIP3   OH2  320   2.029   5.276   0.234  0.3137 -0.2660 -0.2020
  105TIP3    H1  321   1.978   5.334   0.290  0.7192  0.7702 -0.8677
  105TIP3    H2  322   1.967   5.209   0.206 -1.2475  1.9085 -2.3732
  106TIP3   OH2  323   5.229   4.179   1.220  0.1372 -1.2412 -0.5019
  106TIP3    H1  324   5.202   4.107   1.163 -1.2773 -1.1702  0.0391
  106TIP3    H2  325   5.309   4.148   1.262 -0.3061 -2.3909 -0.4787
  107TIP3   OH2  326   1.654   5.946   3.756  0.4649 -0.2505 -0.0595
  107TIP3    H1  327   1.606   6.020   3.794  0.8623  0.0521 -0.1399
  107TIP3    H2  328   1.624   5.870   3.806  0.7354  0.0968  0.6421
  108TIP3   OH2  329   4.746   5.274   2.345  0.2728  0.0058  0.2334
  108TIP3    H1  330   4.803   5.306   2.415  0.7935 -1.8665  0.7202
  108TIP3    H2  331   4.680   5.221   2.390 -0.8630  0.7607 -0.4889
  109TIP3   OH2  332   4.293   5.499   0.674  0.7069  0.2856  0.0055
  109TIP3    H1  333   4.360   5.565   0.691  1.4607 -0.3774 -0.3361
  109TIP3    H2  334   4.275   5.461   0.760 -0.4467  1.5666  0.3790
  110TIP3   OH2  335   5.074   3.255   2.774 -0.0234  0.1875  0.0871
  110TIP3    H1  336   5.103   3.223   2.689 -0.1642 -1.9155  0.7645
  110TIP3    H2  337   5.038   3.342   2.756  0.6249  0.1092 -1.8546
  111TIP3   OH2  338   6.020   0.215   2.192 -0.2018 -0.7036  0.3974
  111TIP3    H1  339   6.031   0.213   2.287  0.3897 -1.8684  0.3231
  111TIP3    H2  340   6.003   0.124   2.168  4.0549 -1.3550 -1.0482
  112TIP3   OH2  341   6.100   0.734   1.701  0.0753  0.1316 -0.3583
  112TIP3    H1  342   6.070   0.824   1.710  0.6471  0.2641  0.3325
  112TIP3    H2  343   6.160   0.737   1.626  0.4337  0.4275 -0.0690
  113TIP3   OH2  344   4.212   1.054   2.454  0.3138 -0.6866  0.0875
  113TIP3    H1  345   4.244   1.137   2.419 -1.1734 -0.2276 -0.2646
  113TIP3    H2  346   4.200   0.999   2.376  2.1633 -1.5928  0.3900
  114TIP3   OH2  347   4.372   4.199   0.460  0.6832 -0.4349 -0.1664
  114TIP3    H1  348   4.430   4.265   0.498 -0.2043 -0.5257  1.4017
  114TIP3    H2  349   4.391   4.120   0.510 -0.6139 -0.5254  0.1958
  115TIP3   OH2  350   0.425   3.545   4.388  0.3004  0.0434  0.0831
  115TIP3    H1  351   0.440   3.580   4.475 -1.4294  3.1610 -0.7322
  115TIP3    H2  352   0.331   3.551   4.375  0.2319 -2.5385 -1.2172
  116TIP3   OH2  353   1.293   5.708   4.263 -0.4468 -0.5878 -0.3111
  116TIP3    H1  354   1.280   5.733   4.354 -0.2443 -0.9455 -0.1825
  116TIP3    H2  355   1.213   5.737   4.219  0.3398  1.5500 -0.4565
  117TIP3   OH2  356   5.406   2.551   2.836  0.5500 -0.6928  0.2132
  117TIP3    H1  357   5.469   2.480   2.825  0.8264 -0.3587 -0.4603
  117TIP3    H2  358   5.415   2.603   2.756  0.4171  0.1455  0.7252
  118TIP3   OH2  359   5.937   0.075   4.914 -0.0904  0.1104  0.0933
  118TIP3    H1  360   5.951  -0.017   4.891  1.6187 -0.0067  1.4561
  118TIP3    H2  361   5.894   0.073   4.999 -1.1636  0.5948 -0.4127
  119TIP3   OH2  362   6.178   2.049   1.964  0.6744  0.2818 -0.0753
  119TIP3    H1  363   6.235   2.044   1.888  1.2567  1.6750  0.2415
  119TIP3    H2  364   6.113   2.115   1.942 -0.7577 -1.1758 -0.3671
  120TIP3   OH2  365   1.540   1.884   0.107 -0.5146 -0.1363 -0.0058
  120TIP3    H1  366   1.451   1.915   0.122 -0.3754 -0.3191  1.3340
  120TIP3    H2  367   1.532   1.818   0.038 -1.2363  0.6511 -0.7037
  121TIP3   OH2  368   2.085   5.348   0.993 -0.5736 -0.3434 -0.2962
  121TIP3    H1  369   2.095   5.403   1.070 -0.5652  1.0920 -1.2810
  121TIP3    H2  370   2.171   5.351   0.950 -1.3408  1.2002 -1.8250
  122TIP3   OH2  371   2.670   5.679   0.623 -0.1133 -0.2780  0.0140
  122TIP3    H1  372   2.680   5.603   0.566 -1.4696 -0.1369 -0.4382
  122TIP3    H2  373   2.743   5.736   0.599  0.5652 -1.1439 -0.0699
  123TIP3   OH2  374   4.807   0.443   3.810  0.5457  0.6478  0.5231
  123TIP3    H1  375   4.762   0.399   3.739 -1.7040  0.7196  1.8066
  123TIP3    H2  376   4.881   0.386   3.832  1.8593  1.0756 -2.3807
  124TIP3   OH2  377   1.554   5.999   0.774  0.2877 -0.5503 -0.2179
  124TIP3    H1  378   1.580   5.951   0.853  0.9497 -1.8988 -1.2194
  124TIP3    H2  379   1.599   5.954   0.702 -1.1065  0.0014 -1.4997
  125TIP3   OH2  380   0.899   1.216   1.248 -0.1622  0.0771  0.3224
  125TIP3    H1  381   0.921   1.152   1.315 -0.1085  0.3910  0.6101
  125TIP3    H2  382   0.948   1.295   1.272  0.7615 -0.1502 -0.7299
  126TIP3   OH2  383   2.514   4.647   2.091 -0.0481  0.2105  0.0267
  126TIP3    H1  384   2.537   4.719   2.032  2.4335 -0.0026  0.6372
  126TIP3    H2  385   2.533   4.567   2.041 -1.4234 -0.0489 -0.1346
  127TIP3   OH2  386   0.956   5.727   0.394 -0.0773  0.2103  0.3089
  127TIP3    H1  387   0.959   5.778   0.476 -2.1049  1.1874 -0.1617
  127TIP3    H2  388   0.941   5.793   0.326  3.9538 -0.2448 -1.2848
  128TIP3   OH2  389   2.873   0.081   1.441  0.0105 -0.2145 -0.3404
  128TIP3    H1  390   2.808   0.059   1.508  0.6322 -0.3960  0.2029
  128TIP3    H2  391   2.880   0.176   1.444 -0.3873 -0.1764 -0.5499
  129TIP3   OH2  392   5.043   3.744   0.618  0.4403 -0.5186  0.2116
  129TIP3    H1  393   5.119   3.686   0.609 -1.0787 -2.4651 -1.1007
  129TIP3    H2  394   5.052   3.806   0.546  1.2224 -0.1686  0.5994
  130TIP3   OH2  395   3.374   5.397   2.299  1.1441 -0.1253 -0.3417
  130TIP3    H1  396   3.418   5.313   2.284  1.1262  0.0295 -1.2805
  130TIP3    H2  397   3.295   5.393   2.245  0.5462  0.0403  0.4982
  131TIP3   OH2  398   5.256   0.949   0.276  0.5689 -0.3186 -0.0373
  131TIP3    H1  399   5.295   0.946   0.189  0.9823 -0.7237  0.1626
  131TIP3    H2  400   5.290   0.872   0.321 -0.4607 -0.6835  0.1386
  132TIP3   OH2  401   3.246   5.786   2.708  0.3136  0.1199  0.2177
  132TIP3    H1  402   3.221   5.859   2.764 -0.0463 -0.3038  0.6235
  132TIP3    H2  403   3.273   5.717   2.769  0.2049 -0.2437 -0.1353
  133TIP3   OH2  404   5.159   1.751   1.638  0.2435 -0.0598  0.0091
  133TIP3    H1  405   5.165   1.776   1.730  0.4412 -1.8205  0.5225
  133TIP3    H2  406   5.180   1.830   1.589  2.9150  0.2738  1.5067
  134TIP3   OH2  407   4.555   2.610   0.411  0.6281  0.3734  0.3717
  134TIP3    H1  408   4.605   2.680   0.453  0.3360  0.5424  0.4367
  134TIP3    H2  409   4.496   2.578   0.480  1.0901 -0.2557  0.4854
  135TIP3   OH2  410   2.694   4.308   0.509 -0.1347  0.1347 -0.6094
  135TIP3    H1  411   2.624   4.248   0.533 -1.6954  1.4840 -1.5242
  135TIP3    H2  412   2.720   4.280   0.421  0.5416 -0.4065 -0.2436
  136TIP3   OH2  413   2.811   0.978   4.034 -0.2754 -0.2231 -0.0257
  136TIP3    H1  414   2.847   0.898   4.073 -0.6180  0.3199  1.4729
  136TIP3    H2  415   2.742   0.947   3.976  1.9610 -1.2409 -2.3484
  137TIP3   OH2  416   0.115   5.034   4.055 -0.2625 -0.3546 -0.3234
  137TIP3    H1  417   0.157   4.951   4.032 -3.1192 -1.3813 -2.5138
  137TIP3    H2  418   0.034   5.035   4.003 -1.0228  3.2167  0.6408
  138TIP3   OH2  419   3.430   3.551   3.322  0.1279  0.0679 -0.1373
  138TIP3    H1  420   3.340   3.518   3.324  0.5718 -1.1890  0.1818
  138TIP3    H2  421   3.482   3.477   3.290  1.1099  0.6159  0.1531
  139TIP3   OH2  422   0.418   1.477   2.155 -0.6162 -0.3243  0.8070
  139TIP3    H1  423   0.464   1.394   2.167 -0.8101 -0.5365  0.1469
  139TIP3    H2  424   0.483   1.535   2.114 -0.6162 -0.2921  0.8524
  140TIP3   OH2  425   0.889   0.443   1.536  0.0414  0.4016 -0.5244
  140TIP3    H1  426   0.966   0.465   1.483  0.8014  1.2976  0.8697
  140TIP3    H2  427   0.895   0.348   1.548  1.3102  0.5301  0.0849
  141TIP3   OH2  428   1.800   1.875   4.647 -0.8314  0.1715 -0.2940
  141TIP3    H1  429   1.751   1.900   4.569 -2.0230 -1.1897 -0.0027
  141TIP3    H2  430   1.891   1.896   4.625 -1.3717  1.6132 -1.2957
  142TIP3   OH2  431   3.520   0.593   1.879 -0.6911  0.0623  0.3065
  142TIP3    H1  432   3.489   0.566   1.793  2.5229 -0.5160 -0.7935
  142TIP3    H2  433   3.508   0.515   1.934 -0.7342 -0.2954 -0.2000
  143TIP3   OH2  434   0.199   2.535   1.238  0.4695  0.2178  0.3148
  143TIP3    H1  435   0.126   2.505   1.292  0.0058  1.1101  0.2027
  143TIP3    H2  436   0.160   2.553   1.152  0.7906  0.8211  0.2890
  144TIP3   OH2  437   5.382   1.048   2.974  0.0199 -0.0408  0.3681
  144TIP3    H1  438   5.365   1.044   3.068  0.3767  1.3233  0.5054
  144TIP3    H2  439   5.477   1.036   2.967 -0.2105 -1.9929  0.0195
  145TIP3   OH2  440   5.049   2.341   3.068  0.3115 -0.3277 -0.0115
  145TIP3    H1  441   5.051   2.436   3.058  2.0373 -0.0835  1.9150
  145TIP3    H2  442   5.008   2.327   3.153  0.6589 -1.2700  0.0082
  146TIP3   OH2  443   2.714   3.403   3.064 -0.1284  0.7329 -0.3692
  146TIP3    H1  444   2.629   3.446   3.055 -0.3156  0.3099 -0.6999
  146TIP3    H2  445   2.694   3.319   3.106  0.3741  1.4320  1.3404
  147TIP3   OH2  446   0.117   0.597   3.219  0.3133 -0.4437  0.0990
  147TIP3    H1  447   0.138   0.603   3.312 -0.2570 -0.3289  0.2241
  147TIP3    H2  448   0.031   0.556   3.217 -0.2453  0.7199 -0.3154
  148TIP3   OH2  449   1.505   1.720   1.189 -0.0138 -0.2838 -0.3624
  148TIP3    H1  450   1.526   1.775   1.264  0.6378  0.5546 -1.1405
  148TIP3    H2  451   1.562   1.751   1.119 -0.7303 -0.9312 -1.2671
  149TIP3   OH2  452   5.584   4.587   3.952 -0.6620 -0.2679  1.0334
  149TIP3    H1  453   5.658   4.528   3.941 -0.1206  0.0277  2.7494
  149TIP3    H2  454   5.520   4.536   4.002 -0.7418  0.1421  1.3621
  150TIP3   OH2  455   2.715   4.400   0.952  0.1612  0.0015  0.1238
  150TIP3    H1  456   2.777   4.336   0.988  0.4047 -1.6830 -2.9703
  150TIP3    H2  457   2.759   4.435   0.875 -1.1830  1.8123  0.1103
  151TIP3   OH2  458   2.022   0.138   3.905 -0.7374 -0.1403  0.4302
  151TIP3    H1  459   2.025   0.105   3.815  1.0413  1.2864 -0.0720
  151TIP3    H2  460   1.946   0.196   3.907 -0.1685  0.6460 -0.4556
  152TIP3   OH2  461   1.385   3.727   5.085  0.3476  0.3379  0.1939
  152TIP3    H1  462   1.326   3.689   5.021  2.7062 -1.9721 -0.7873
  152TIP3    H2  463   1.379   3.669   5.161 -0.7327  1.7680  1.2655
  153TIP3   OH2  464   3.172   3.838   3.129 -0.1510 -0.6097  0.3031
  153TIP3    H1  465   3.204   3.759   3.087  0.9859 -0.4227  0.7949
  153TIP3    H2  466   3.232   3.907   3.100 -2.6917  0.6903 -2.3660
  154TIP3   OH2  467   3.416   3.854   1.965 -0.1201 -0.9586 -0.1494
  154TIP3    H1  468   3.329   3.864   2.005 -1.6773  0.4398 -3.4826
  154TIP3    H2  469   3.452   3.775   2.004 -3.0332 -1.7862  1.1126
  155TIP3   OH2  470   5.172   4.335   1.003 -0.3652 -0.1926 -0.4180
  155TIP3    H1  471   5.195   4.280   1.079  0.4097  1.8149  0.8818
  155TIP3    H2  472   5.093   4.294   0.967 -1.4731 -0.5759  2.2078
  156TIP3   OH2  473   2.258   1.744   3.635  0.7118 -0.0163 -0.0616
  156TIP3    H1  474   2.187   1.721   3.575  1.1467 -0.0469 -0.5641
  156TIP3    H2  475   2.336   1.749   3.580  0.9115  1.1139  0.2923
  157TIP3   OH2  476   0.822   4.156   3.850  0.2275 -0.3854 -0.1009
  157TIP3    H1  477   0.851   4.160   3.759  1.3954  0.6664  0.2833
  157TIP3    H2  478   0.896   4.116   3.896 -0.3357 -0.8727  0.3947
  158TIP3   OH2  479   4.214   0.131   2.724 -0.1348  0.6340  0.3404
  158TIP3    H1  480   4.251   0.110   2.810  1.3178 -3.1399 -0.9751
  158TIP3    H2  481   4.132   0.082   2.721  1.2950 -1.9128 -1.3609
  159TIP3   OH2  482   3.238   0.962   4.207  0.1809 -0.3814 -0.7216
  159TIP3    H1  483   3.167   0.912   4.248  0.9224 -0.6058  0.3553
  159TIP3    H2  484   3.230   1.050   4.245  0.6227 -0.4799 -0.3841
  160TIP3   OH2  485   1.361   0.472   1.520 -0.6197 -0.2629 -1.0447
  160TIP3    H1  486   1.333   0.398   1.573  1.0784 -0.2779 -0.0943
  160TIP3    H2  487   1.385   0.539   1.583 -0.8180  0.6165 -1.8696
  161TIP3   OH2  488   3.190   3.796   2.104 -0.1174 -0.0660 -0.0250
  161TIP3    H1  489   3.190   3.791   2.200 -1.2857 -0.2499 -0.0126
  161TIP3    H2  490   3.213   3.708   2.075  2.4750  0.5242  0.0483
  162TIP3   OH2  491   2.033   4.512   2.309  0.6629  0.0420  0.0499
  162TIP3    H1  492   1.964   4.573   2.337 -0.8436 -1.1143 -0.9589
  162TIP3    H2  493   2.083   4.562   2.244  0.4538  0.7236  0.3936
  163TIP3   OH2  494   5.453   5.732   3.746  0.0115 -0.7685 -0.8402
  163TIP3    H1  495   5.535   5.779   3.764 -0.6816 -0.0991  0.7571
  163TIP3    H2  496   5.411   5.783   3.676 -0.4337  0.7114  0.4381
  164TIP3   OH2  497   3.544   2.033   2.393  1.0753  0.3372  0.4865
  164TIP3    H1  498   3.567   1.963   2.454  1.9828 -0.2343 -0.4830
  164TIP3    H2  499   3.476   1.995   2.338  2.0544 -0.0593 -0.4918
  165TIP3   OH2  500   4.865   3.416   1.763 -0.6479  0.1361  0.0686
  165TIP3    H1  501   4.912   3.489   1.805  0.7280 -1.1838  0.9367
  165TIP3    H2  502   4.845   3.356   1.835  0.9675 -1.7558 -0.9630
  166TIP3   OH2  503   1.058   3.130   3.310  0.4019  0.8688  0.2319
  166TIP3    H1  504   1.144   3.105   3.342  0.1744  1.2373  1.1722
  166TIP3    H2  505   1.001   3.121   3.387 -0.6335 -0.5005 -0.6487
  167TIP3   OH2  506   4.439   3.142   4.361 -0.1723  0.5043  0.1751
  167TIP3    H1  507   4.460   3.129   4.268  1.6096  0.7029  0.5121
  167TIP3    H2  508   4.521   3.171   4.400 -1.2616  1.8690  1.5548
  168TIP3   OH2  509   2.302   0.862   2.955  0.4018  0.0542  0.0680
  168TIP3    H1  510   2.326   0.785   3.006 -0.4284 -0.2969 -0.0537
  168TIP3    H2  511   2.375   0.874   2.894  0.8328 -0.2510  0.5161
  169TIP3   OH2  512   1.923   0.561   4.351  0.4793 -0.4678 -0.5060
  169TIP3    H1  513   1.852   0.506   4.383  0.2027  0.3188  0.2989
  169TIP3    H2  514   1.986   0.562   4.423 -0.1924  1.4156  0.1219
  170TIP3   OH2  515   6.039   3.397   1.383 -0.3232  0.6213 -0.2145
  170TIP3    H1  516   5.989   3.472   1.416  0.7171  0.1973  2.6481
  170TIP3    H2  517   5.988   3.321   1.410  0.2059  0.2517 -0.2585
  171TIP3   OH2  518   3.593   5.935   3.340 -0.0576 -0.2863  0.6112
  171TIP3    H1  519   3.572   6.007   3.279  0.1898 -0.7968 -0.0872
  171TIP3    H2  520   3.680   5.905   3.313 -0.2450 -0.9817  0.7694
  172TIP3   OH2  521   5.951   3.137   1.648 -0.4304 -0.1692  0.5171
  172TIP3    H1  522   6.035   3.157   1.607  0.7027 -1.4001  2.0673
  172TIP3    H2  523   5.963   3.163   1.740 -1.2967 -1.5232  1.0382
  173TIP3   OH2  524   4.617   5.929   2.457  0.1083  0.3937  0.4290
  173TIP3    H1  525   4.615   6.012   2.409  0.1644  0.0429 -0.1849
  173TIP3    H2  526   4.691   5.882   2.421 -1.1705 -0.8047 -0.7411
  174TIP3   OH2  527   5.679   1.138   3.182  0.1113  0.1193 -0.0235
  174TIP3    H1  528   5.705   1.091   3.261  0.8580  2.1109  0.9620
  174TIP3    H2  529   5.615   1.202   3.212  0.4697  0.9649 -1.0211
  175TIP3   OH2  530   3.157   5.731   4.278  0.1331  0.3858  0.3758
  175TIP3    H1  531   3.074   5.766   4.308 -0.4490  0.4428 -1.2401
  175TIP3    H2  532   3.135   5.677   4.203  1.3905 -0.8613  0.8579
  176TIP3   OH2  533   1.171   2.086   5.102  0.0674 -0.6924  0.1926
  176TIP3    H1  534   1.263   2.101   5.078  0.8388 -2.3438  1.8777
  176TIP3    H2  535   1.152   1.997   5.071 -1.4490  0.0876 -1.3221
  177TIP3   OH2  536   1.845   1.275   0.759 -0.7423  0.6392  0.2388
  177TIP3    H1  537   1.789   1.327   0.702 -0.5385  1.2127  0.5579
  177TIP3    H2  538   1.911   1.336   0.791  0.6924 -0.2400 -0.9286
  178TIP3   OH2  539   2.092   1.962   4.564 -0.3665  0.3643 -0.0990
  178TIP3    H1  540   2.187   1.971   4.563 -0.4011  1.0499  1.1595
  178TIP3    H2  541   2.076   1.873   4.531  0.6650  0.4103 -0.7646
  179TIP3   OH2  542   1.019   3.564   5.068 -0.3333  0.4492  0.6031
  179TIP3    H1  543   0.943   3.592   5.018 -0.3485 -1.2439 -0.3884
  179TIP3    H2  544   1.094   3.588   5.014 -0.3549 -1.5085 -0.3606
  180TIP3   OH2  545   0.728   2.194   1.549 -0.1640 -0.0543  0.3060
  180TIP3    H1  546   0.780   2.266   1.514 -0.4656  1.0538  2.0242
  180TIP3    H2  547   0.792   2.133   1.586  0.0005  0.2699  0.5501
  181TIP3   OH2  548   2.583   1.700   2.178  0.3102 -0.9576 -0.2862
  181TIP3    H1  549   2.548   1.612   2.194  1.4178 -1.8706 -2.3958
  181TIP3    H2  550   2.668   1.699   2.222 -0.2959 -0.3715  0.9476
  182TIP3   OH2  551   4.778   1.693   2.401  0.2666  0.3120 -0.1233
  182TIP3    H1  552   4.847   1.759   2.405  1.7532 -1.1426 -0.9341
  182TIP3    H2  553   4.757   1.684   2.308 -0.7022  0.3855  0.0701
  183TIP3   OH2  554   3.361   5.565   1.258  0.6040  0.4208  0.0043
  183TIP3    H1  555   3.331   5.610   1.179  2.0982  0.2992 -0.6672
  183TIP3    H2  556   3.450   5.536   1.237  0.4920 -0.9203  1.2039
  184TIP3   OH2  557   0.934   3.818   1.071  0.1831 -0.2039 -0.1986
  184TIP3    H1  558   0.848   3.846   1.103 -0.2919 -1.3123 -0.4759
  184TIP3    H2  559   0.997   3.863   1.128 -0.5731  0.6949 -0.0583
  185TIP3   OH2  560   5.295   2.659   1.540  0.1523  0.1004  0.2026
  185TIP3    H1  561   5.219   2.650   1.483 -0.6154  2.1300  0.8482
  185TIP3    H2  562   5.363   2.697   1.484  0.0001  0.3339  0.1779
  186TIP3   OH2  563   4.124   2.503   0.218 -0.1115  0.1430  0.3812
  186TIP3    H1  564   4.048   2.539   0.172 -0.0225 -1.4052 -1.0440
  186TIP3    H2  565   4.090   2.429   0.267  0.0963  0.8302  1.6147
  187TIP3   OH2  566   3.320   2.148   3.123  0.2234 -0.0726 -0.1801
  187TIP3    H1  567   3.303   2.226   3.069 -0.1964 -0.8085 -1.1316
  187TIP3    H2  568   3.258   2.083   3.091  1.4883 -1.2335 -0.3411
  188TIP3   OH2  569   3.657   1.102   0.957 -0.2554 -0.5645 -0.4114
  188TIP3    H1  570   3.571   1.078   0.924 -0.2482  0.3015 -1.1057
  188TIP3    H2  571   3.700   1.018   0.975 -2.4076 -1.1234  3.2633
  189TIP3   OH2  572   4.940   4.882   4.334  0.1847  0.1581 -0.1395
  189TIP3    H1  573   5.031   4.860   4.354  0.7316  1.5783 -0.9295
  189TIP3    H2  574   4.921   4.835   4.253 -0.0104 -0.6438  0.3603
  190TIP3   OH2  575   6.022   4.959   0.542 -0.2673  0.1435 -0.0687
  190TIP3    H1  576   5.984   4.877   0.573 -0.0940  0.2026  0.3133
  190TIP3    H2  577   5.949   5.007   0.503 -0.4641  0.0101  0.1342
  191TIP3   OH2  578   0.570   5.979   2.891  0.3310 -0.0517 -0.3077
  191TIP3    H1  579   0.655   6.023   2.896  0.2595  0.0144  0.5155
  191TIP3    H2  580   0.592   5.888   2.869  0.3764  0.6822 -3.7963
  192TIP3   OH2  581   3.757   5.601   2.200 -0.0767 -0.2515  0.0145
  192TIP3    H1  582   3.678   5.651   2.221  0.3869  0.6866 -0.3891
  192TIP3    H2  583   3.815   5.665   2.158 -0.2146 -1.5629 -2.3420
  193TIP3   OH2  584   4.335   4.992   1.893  0.4117 -0.8165  0.2742
  193TIP3    H1  585   4.293   4.978   1.978  0.0879 -0.9977  0.0855
  193TIP3    H2  586   4.262   5.008   1.833  0.6927  0.5469  0.2612
  194TIP3   OH2  587   2.632   3.706   0.015 -0.5040 -0.2049  0.2780
  194TIP3    H1  588   2.706   3.645   0.027 -0.3786 -0.0627  0.2347
  194TIP3    H2  589   2.558   3.661   0.055  0.2380  0.9585  3.2651
  195TIP3   OH2  590   1.803   1.837   0.688 -0.6001  0.4596 -0.0404
  195TIP3    H1  591   1.751   1.861   0.612 -1.1615 -0.8791 -0.1062
  195TIP3    H2  592   1.808   1.917   0.740  0.8846  1.7857 -2.0535
  196TIP3   OH2  593   4.013   3.358   0.139 -0.0939  0.1153 -0.6564
  196TIP3    H1  594   3.956   3.325   0.209  2.1382 -2.1767  0.2425
  196TIP3    H2  595   3.985   3.448   0.125 -1.2377  0.3746  2.5808
  197TIP3   OH2  596   5.620   4.913   2.521  0.1180 -0.6138 -0.1511
  197TIP3    H1  597   5.652   4.851   2.587  0.2752 -1.4904 -1.0241
  197TIP3    H2  598   5.619   4.862   2.439  1.0200  0.7642 -1.0591
  198TIP3   OH2  599   4.700   1.423   2.444  0.2754  0.0232 -0.3397
  198TIP3    H1  600   4.688   1.518   2.441  2.5422  0.4154  0.7168
  198TIP3    H2  601   4.620   1.390   2.484 -0.5149  1.4897 -0.6350
  199TIP3   OH2  602   1.080   0.330   2.787 -0.4176  0.2406 -0.0881
  199TIP3    H1  603   1.158   0.379   2.814  1.0425 -0.5416 -2.5575
  199TIP3    H2  604   1.011   0.361   2.846  2.0057 -0.0912  3.1723
  200TIP3   OH2  605   1.116   0.682   2.005 -0.2659  0.1260  0.1678
  200TIP3    H1  606   1.163   0.672   2.088  1.1883  1.2700 -0.4579
  200TIP3    H2  607   1.053   0.611   2.004 -0.7800  0.4685  2.5461
  201TIP3   OH2  608   0.076   1.628   4.800  0.0963  0.4232 -0.0396
  201TIP3    H1  609  -0.010   1.668   4.787 -0.6252 -1.1040 -0.2144
  201TIP3    H2  610   0.117   1.680   4.868 -0.8641  1.3448 -0.1424
  202TIP3   OH2  611   3.817   5.804   0.572  0.0889 -0.1232 -0.5502
  202TIP3    H1  612   3.766   5.779   0.650 -0.9598  0.3122 -1.0726
  202TIP3    H2  613   3.803   5.732   0.511  3.0882 -1.8163  0.5439
  203TIP3   OH2  614   1.418   0.615   4.910  0.1414  0.1293  0.5395
  203TIP3    H1  615   1.409   0.547   4.843  0.5420 -0.6015  1.2119
  203TIP3    H2  616   1.399   0.697   4.864  0.9552 -0.3014 -0.6023
  204TIP3   OH2  617   2.667   5.304   1.142  0.1839  0.3319  0.5100
  204TIP3    H1  618   2.720   5.286   1.220  0.6773 -1.0827 -0.1205
  204TIP3    H2  619   2.577   5.303   1.173  0.2954 -1.4984  0.8682
  205TIP3   OH2  620   5.945   3.625   4.082 -0.3149 -0.0822 -0.0061
  205TIP3    H1  621   5.955   3.706   4.133 -0.1639  0.4213 -0.8197
  205TIP3    H2  622   5.850   3.615   4.070 -0.3371 -0.0676  0.1547
  206TIP3   OH2  623   3.876   5.013   0.992 -0.5579  0.1192 -0.3611
  206TIP3    H1  624   3.803   4.961   0.958 -1.5938  0.9784  0.4601
  206TIP3    H2  625   3.925   5.040   0.914 -2.5327  1.5687 -1.1918
  207TIP3   OH2  626   4.578   0.555   2.684 -0.2723 -0.1102  0.4479
  207TIP3    H1  627   4.502   0.611   2.671 -2.4564 -2.5186  1.8750
  207TIP3    H2  628   4.549   0.468   2.659  3.3348 -0.6346 -2.8290
  208TIP3   OH2  629   3.983   4.806   0.158 -0.1350 -0.3154  0.2798
  208TIP3    H1  630   4.072   4.823   0.189 -0.6012  3.2862  0.0984
  208TIP3    H2  631   3.989   4.810   0.063 -0.5939  0.9165  0.2850
  209TIP3   OH2  632   2.428   2.305   3.726  0.2153  0.0377  0.3482
  209TIP3    H1  633   2.472   2.319   3.809  1.2255  1.2156 -0.3496
  209TIP3    H2  634   2.394   2.391   3.702 -2.7811 -0.8758  0.9797
  210TIP3   OH2  635   1.066   0.604   0.548 -0.4478  0.0748  0.0552
  210TIP3    H1  636   1.069   0.626   0.455 -2.8849  0.4785  0.0171
  210TIP3    H2  637   1.021   0.678   0.589 -1.0984 -0.9413  1.2425
  211TIP3   OH2  638   2.736   0.982   2.282 -0.1860 -0.2710 -0.3999
  211TIP3    H1  639   2.778   0.896   2.283  0.0946 -0.1339 -0.2272
  211TIP3    H2  640   2.642   0.962   2.275 -0.2501 -0.6546  1.0166
  212TIP3   OH2  641   5.060   0.333   3.257 -0.2223  0.1791  0.3105
  212TIP3    H1  642   4.987   0.322   3.196  0.8932 -0.4831 -0.9613
  212TIP3    H2  643   5.088   0.424   3.245 -0.0108  0.0530 -0.1655
  213TIP3   OH2  644   0.518   0.552   4.310  0.1468 -0.1346 -0.0041
  213TIP3    H1  645   0.607   0.517   4.317  0.9839  1.9948  0.9058
  213TIP3    H2  646   0.463   0.475   4.296  2.0182 -1.6074  0.3218
  214TIP3   OH2  647   4.363   2.505   0.601 -0.3988  0.6650  0.4053
  214TIP3    H1  648   4.271   2.527   0.614 -0.3566  1.0956  0.0288
  214TIP3    H2  649   4.406   2.532   0.682 -0.5003  1.1236  0.3145
  215TIP3   OH2  650   5.082   5.227   4.879 -0.6355 -0.3250 -0.4690
  215TIP3    H1  651   5.051   5.280   4.952 -2.6535  0.2925 -1.6820
  215TIP3    H2  652   5.125   5.289   4.821 -0.2690 -0.5666 -0.4584
  216TIP3   OH2  653   0.938   1.851   2.896 -0.1260  0.0679  0.1880
  216TIP3    H1  654   0.926   1.795   2.972  0.1939  0.0960  0.2589
  216TIP3    H2  655   0.981   1.796   2.831  1.3848  0.5864  0.7143
  217TIP3   OH2  656   3.568   1.469   3.828  0.0622 -0.2810 -0.1265
  217TIP3    H1  657   3.542   1.399   3.887 -0.7420 -0.1891 -0.3648
  217TIP3    H2  658   3.659   1.488   3.852 -0.0462 -0.6904  0.6325
  218TIP3   OH2  659   0.443   5.728   2.364 -0.4745  0.1195  0.0591
  218TIP3    H1  660   0.499   5.803   2.385  0.3484 -0.7870  1.2308
  218TIP3    H2  661   0.479   5.692   2.284  0.4794 -0.2813  0.6480
  219TIP3   OH2  662   2.183   2.157   3.877  0.5775 -0.1000  0.3742
  219TIP3    H1  663   2.130   2.078   3.879  0.5227 -0.0627  0.4526
  219TIP3    H2  664   2.249   2.141   3.810 -0.5337  0.4898 -0.8984
  220TIP3   OH2  665   0.165   3.443   1.896  0.5507  0.0158 -0.1277
  220TIP3    H1  666   0.172   3.459   1.991  0.4102  0.5169 -0.2015
  220TIP3    H2  667   0.184   3.349   1.887 -0.4160 -0.2602  0.5056
  221TIP3   OH2  668   0.851   3.521   3.027  0.3037  0.1162  0.0437
  221TIP3    H1  669   0.912   3.584   3.065  0.0462  0.8643 -0.7759
  221TIP3    H2  670   0.907   3.455   2.987  0.5907 -0.7220  1.7114
  222TIP3   OH2  671   3.697   1.836   3.868 -0.0593  0.1258 -0.9457
  222TIP3    H1  672   3.721   1.846   3.960 -0.5225 -0.4251 -0.7639
  222TIP3    H2  673   3.605   1.862   3.864 -0.4027 -1.0763 -1.0215
  223TIP3   OH2  674   2.157   0.073   0.359 -0.0372  0.7154  0.4294
  223TIP3    H1  675   2.192   0.120   0.282  1.6740 -0.5315  0.3975
  223TIP3    H2  676   2.109   0.140   0.407  0.7728  2.0698 -0.5624
  224TIP3   OH2  677   6.209   5.994   3.609 -0.2401 -0.3179 -0.1800
  224TIP3    H1  678   6.293   5.976   3.567 -0.6267 -0.8285 -0.7457
  224TIP3    H2  679   6.199   5.925   3.674 -0.7569 -0.9663 -0.9232
  225TIP3   OH2  680   2.356   1.005   2.470  0.1377 -0.3011  0.4216
  225TIP3    H1  681   2.357   0.910   2.484  0.9456 -0.4409 -0.5099
  225TIP3    H2  682   2.446   1.032   2.484 -0.2644  0.4843  1.5984
  226TIP3   OH2  683   2.912   2.721   4.844 -0.0712  0.6587  0.1473
  226TIP3    H1  684   2.861   2.655   4.890  0.6260  1.3991  2.1034
  226TIP3    H2  685   2.879   2.805   4.878  1.7339  1.1679  0.7675
  227TIP3   OH2  686   3.207   1.431   4.713 -0.4155  0.2972  0.6155
  227TIP3    H1  687   3.175   1.479   4.636  0.1684 -0.8279 -0.3718
  227TIP3    H2  688   3.301   1.421   4.698 -0.7169 -2.4163 -0.0212
  228TIP3   OH2  689   3.032   2.406   3.200  0.3372 -0.1582 -0.4720
  228TIP3    H1  690   3.114   2.441   3.164  1.7094 -0.6979  1.9445
  228TIP3    H2  691   3.031   2.314   3.174  0.2957 -0.0604 -0.8199
  229TIP3   OH2  692   5.995   2.939   5.171  0.7364 -0.3720 -0.1577
  229TIP3    H1  693   5.927   2.999   5.142  0.7960 -0.5341 -0.6514
  229TIP3    H2  694   6.028   2.899   5.090  0.6593 -1.1042  0.1622
  230TIP3   OH2  695   4.977   5.663   4.191 -0.1938  0.3283  0.1367
  230TIP3    H1  696   5.052   5.637   4.137 -1.2194  2.2534 -2.4165
  230TIP3    H2  697   5.014   5.723   4.256  0.3212  3.3400 -2.6823
  231TIP3   OH2  698   2.888   3.693   0.772 -0.2708  0.5297 -0.0512
  231TIP3    H1  699   2.977   3.669   0.799 -0.7908 -1.7533 -0.1665
  231TIP3    H2  700   2.886   3.676   0.678 -0.1415  3.0769 -0.6117
  232TIP3   OH2  701   1.963   0.725   2.289 -0.0185 -0.1950 -0.1957
  232TIP3    H1  702   1.958   0.790   2.219 -0.0809  0.0640  0.0471
  232TIP3    H2  703   2.036   0.754   2.343 -1.8978  1.4062  1.6261
  233TIP3   OH2  704   0.658   3.454   1.616 -0.5788  0.7741 -0.2752
  233TIP3    H1  705   0.653   3.518   1.545 -1.1384  0.4973 -0.4867
  233TIP3    H2  706   0.629   3.371   1.577  1.8808 -0.0530 -0.5146
  234TIP3   OH2  707   0.757   5.552   3.208  0.5749  0.3924  0.1378
  234TIP3    H1  708   0.806   5.592   3.279 -0.2272 -0.7697  1.3959
  234TIP3    H2  709   0.699   5.489   3.251 -2.2840  1.8896 -1.2165
  235TIP3   OH2  710   4.602   1.357   1.198 -0.3456  0.7095  0.1143
  235TIP3    H1  711   4.642   1.322   1.278 -1.1463  1.0162  0.6632
  235TIP3    H2  712   4.670   1.349   1.131 -0.1123 -0.7744  0.5132
  236TIP3   OH2  713   4.476   0.500   0.414  0.6141  0.1708 -0.6335
  236TIP3    H1  714   4.433   0.479   0.331 -0.0867  1.5893 -0.6670
  236TIP3    H2  715   4.418   0.565   0.454  2.1882  1.3272 -0.1732
  237TIP3   OH2  716   3.693   0.953   3.561 -0.2000 -0.0868 -0.2435
  237TIP3    H1  717   3.644   0.894   3.617 -0.6866 -0.6731 -1.2488
  237TIP3    H2  718   3.629   0.980   3.494  0.3280  0.6806 -0.4487
  238TIP3   OH2  719   3.574   0.158   0.313 -0.3385 -0.2187 -0.0560
  238TIP3    H1  720   3.629   0.091   0.354  2.1090  1.1594 -0.8403
  238TIP3    H2  721   3.535   0.115   0.237  0.0167 -1.1343  0.2711
  239TIP3   OH2  722   4.537   0.113   4.666 -0.1990 -0.0763 -0.2456
  239TIP3    H1  723   4.624   0.146   4.642 -0.2298  0.7745  0.7064
  239TIP3    H2  724   4.476   0.169   4.617 -0.2198 -0.8608 -1.1368
  240TIP3   OH2  725   0.252   5.143   5.012  0.3325  0.4549  0.1698
  240TIP3    H1  726   0.158   5.156   5.024  0.5996  1.7385  0.9847
  240TIP3    H2  727   0.273   5.192   4.933  0.2684 -0.1207 -0.2116
  241TIP3   OH2  728   1.469   4.473   2.587  0.0201 -0.1362 -0.5906
  241TIP3    H1  729   1.496   4.489   2.678  0.1512  0.1767 -0.6810
  241TIP3    H2  730   1.552   4.468   2.539 -0.0597  0.0118 -0.7422
  242TIP3   OH2  731   2.975   0.249   3.709 -0.4424  0.4348  0.5624
  242TIP3    H1  732   2.905   0.206   3.660 -0.4106  0.4943  0.4642
  242TIP3    H2  733   2.973   0.206   3.794 -0.5486  0.3830  0.5355
  243TIP3   OH2  734   4.169   0.182   1.584  0.2877 -0.2419 -0.9093
  243TIP3    H1  735   4.176   0.219   1.672  1.0274 -0.3398 -0.9229
  243TIP3    H2  736   4.088   0.219   1.549  0.8568  1.1709 -0.8231
  244TIP3   OH2  737   2.830   5.607   3.030 -0.2209  0.8074 -0.2566
  244TIP3    H1  738   2.812   5.665   2.956  0.1041  0.5279 -0.5617
  244TIP3    H2  739   2.764   5.629   3.095 -0.3106  1.2806 -0.5050
  245TIP3   OH2  740   0.896   3.519   3.541 -0.9265  0.5448 -0.7986
  245TIP3    H1  741   0.931   3.504   3.453  1.1980  2.9524 -0.4691
  245TIP3    H2  742   0.970   3.502   3.599 -2.8604 -3.3086  0.9047
  246TIP3   OH2  743   5.307   0.435   2.501 -0.1745  0.4168 -0.2847
  246TIP3    H1  744   5.212   0.434   2.492 -0.1688  0.9227 -0.3934
  246TIP3    H2  745   5.331   0.527   2.499  0.3868  0.2681 -0.9654
  247TIP3   OH2  746   1.400   2.068   2.110  0.2298  0.8557 -0.7325
  247TIP3    H1  747   1.370   1.981   2.086 -2.3311  1.7922 -1.2286
  247TIP3    H2  748   1.480   2.080   2.059  1.4079 -1.6332  0.3554
  248TIP3   OH2  749   2.337   0.797   4.072 -0.1099  0.1732 -0.0340
  248TIP3    H1  750   2.325   0.887   4.103  0.2568  0.7102 -1.3985
  248TIP3    H2  751   2.251   0.772   4.038  0.0765  0.4605 -0.7484
  249TIP3   OH2  752   1.200   5.634   1.747 -0.3239 -0.1594  0.1665
  249TIP3    H1  753   1.157   5.551   1.724  0.8832 -0.9520  0.6863
  249TIP3    H2  754   1.181   5.647   1.840  2.0610 -1.5193  0.9287
  250TIP3   OH2  755   4.374   3.609   2.137  0.5158  0.0611  0.2227
  250TIP3    H1  756   4.352   3.516   2.144 -2.0714  0.5463 -0.1037
  250TIP3    H2  757   4.430   3.615   2.060  0.5112 -1.2106  0.1048
  251TIP3   OH2  758   0.680   3.701   1.798  0.3829 -0.1894 -0.0050
  251TIP3    H1  759   0.659   3.642   1.871  0.7578 -0.8718 -0.4390
  251TIP3    H2  760   0.601   3.700   1.744  0.4938 -0.5280 -0.1632
  252TIP3   OH2  761   3.785   2.807   4.969 -0.0491 -0.1950 -0.1826
  252TIP3    H1  762   3.803   2.879   4.909 -1.4559  1.2912  1.0928
  252TIP3    H2  763   3.804   2.728   4.918  3.4491  1.0101 -1.0083
  253TIP3   OH2  764   2.235   3.781   0.795 -0.2390 -0.4103 -0.2501
  253TIP3    H1  765   2.311   3.785   0.738 -0.3188 -1.3317 -0.4356
  253TIP3    H2  766   2.242   3.697   0.840 -0.6359 -0.0844  0.4592
  254TIP3   OH2  767   2.880   2.598   1.766 -0.0897  0.0433 -0.1219
  254TIP3    H1  768   2.826   2.519   1.761 -1.7813  1.1823 -1.0000
  254TIP3    H2  769   2.858   2.636   1.851 -2.8792  1.8789 -1.4925
  255TIP3   OH2  770   5.783   3.475   3.771  0.0627  0.0876  0.2183
  255TIP3    H1  771   5.869   3.436   3.785 -0.9275 -2.2187  0.2119
  255TIP3    H2  772   5.737   3.413   3.715 -2.1920  0.3678  1.6204
  256TIP3   OH2  773   4.550   3.580   1.944 -0.0369 -0.0740  0.1987
  256TIP3    H1  774   4.472   3.549   1.898  0.2104  1.7503 -1.5839
  256TIP3    H2  775   4.623   3.538   1.899  0.1224  0.2448  0.1562
  257TIP3   OH2  776   4.781   5.001   3.082 -0.3001 -0.2419 -0.0318
  257TIP3    H1  777   4.795   4.985   2.988 -0.0246 -0.7429  0.0904
  257TIP3    H2  778   4.687   5.017   3.089 -0.1950  0.6637 -0.5109
  258TIP3   OH2  779   0.419   3.724   4.078 -0.0391 -0.1805  0.5003
  258TIP3    H1  780   0.376   3.701   3.996  0.4967  0.2174  0.1016
  258TIP3    H2  781   0.398   3.652   4.137  1.3472 -1.5693 -0.6246
  259TIP3   OH2  782   2.598   0.478   0.743 -0.4799  0.2040 -0.1122
  259TIP3    H1  783   2.570   0.495   0.653  1.8284 -2.2498 -1.4358
  259TIP3    H2  784   2.545   0.404   0.771  1.3440 -1.5130 -0.9608
  260TIP3   OH2  785   5.152   3.147   2.020 -0.1103  0.8270  0.2716
  260TIP3    H1  786   5.245   3.150   2.039  0.2699 -2.7063 -0.2820
  260TIP3    H2  787   5.110   3.136   2.105  0.2488 -0.2298  0.3200
  261TIP3   OH2  788   3.770   4.617   4.696 -0.0378  0.0770  0.1753
  261TIP3    H1  789   3.771   4.710   4.672 -1.8159 -0.2777 -1.5073
  261TIP3    H2  790   3.788   4.571   4.614  1.6628 -1.0892  1.1542
  262TIP3   OH2  791   0.964   1.600   0.105 -0.0191 -0.4889 -0.3059
  262TIP3    H1  792   0.945   1.674   0.163  0.5836 -1.4132  1.1456
  262TIP3    H2  793   0.878   1.571   0.074 -0.2811  0.6112 -0.6281
  263TIP3   OH2  794   1.141   1.995   1.880 -0.8940 -0.0233 -0.0916
  263TIP3    H1  795   1.086   1.999   1.958  0.5353 -0.7677  1.0128
  263TIP3    H2  796   1.231   1.994   1.914 -0.2209  0.1125 -1.7700
  264TIP3   OH2  797   0.252   0.995   2.616  0.1051  0.1091  0.5598
  264TIP3    H1  798   0.168   1.028   2.648 -1.2420 -0.6403 -1.9406
  264TIP3    H2  799   0.301   1.073   2.591 -1.3236  0.4586 -1.2936
  265TIP3   OH2  800   1.617   4.399   0.628 -0.3625  0.2645  0.2002
  265TIP3    H1  801   1.552   4.447   0.577 -1.0580 -0.2233  0.6063
  265TIP3    H2  802   1.628   4.450   0.708 -0.7678 -0.0150  0.4358
  266TIP3   OH2  803   0.601   0.289   2.867  0.5342  0.1135 -0.0027
  266TIP3    H1  804   0.677   0.237   2.892 -0.4442 -0.6288  1.6138
  266TIP3    H2  805   0.584   0.263   2.776  1.5517 -0.5157 -0.0362
  267TIP3   OH2  806   3.579   0.467   2.345  0.5796 -0.5002 -0.6203
  267TIP3    H1  807   3.630   0.400   2.300  1.5920 -1.1585  1.3791
  267TIP3    H2  808   3.566   0.433   2.433  0.4990  1.6226  0.2653
  268TIP3   OH2  809   6.263   2.234   1.011 -0.4791  0.5777 -0.0227
  268TIP3    H1  810   6.317   2.225   0.933  1.2487 -0.0960  1.2052
  268TIP3    H2  811   6.226   2.147   1.024  2.5644 -0.5489  2.1684
  269TIP3   OH2  812   1.023   3.998   4.026 -0.4468  0.7955  0.0987
  269TIP3    H1  813   1.093   4.060   4.048 -2.7411  2.7198  2.7957
  269TIP3    H2  814   0.998   3.959   4.110 -2.1375 -0.3297 -0.8543
  270TIP3   OH2  815   5.678   5.834   2.596 -0.4052 -0.3025 -0.2756
  270TIP3    H1  816   5.723   5.806   2.676  0.6427  1.3643 -0.2342
  270TIP3    H2  817   5.747   5.844   2.531 -0.8728  0.8721 -0.6361
  271TIP3   OH2  818   0.533   1.706   2.830 -0.2113 -0.3351 -0.4273
  271TIP3    H1  819   0.439   1.689   2.837  0.0381 -1.4583  0.6311
  271TIP3    H2  820   0.571   1.619   2.816  0.9541 -0.4670  2.7928
  272TIP3   OH2  821   1.641   2.749   1.679 -0.3140 -0.6431  0.3634
  272TIP3    H1  822   1.727   2.788   1.661 -0.0928 -1.0577  0.5101
  272TIP3    H2  823   1.594   2.816   1.729 -1.3754  1.0717 -2.6122
  273TIP3   OH2  824   4.503   3.832   4.064  0.0582  0.2332  0.1679
  273TIP3    H1  825   4.528   3.786   4.144  1.2347 -0.6700 -0.6635
  273TIP3    H2  826   4.431   3.781   4.029 -1.4208  1.4396  1.3305
  274TIP3   OH2  827   5.501   5.834   0.919  0.0259 -0.2660  0.3154
  274TIP3    H1  828   5.531   5.895   0.851  1.0663  0.2660  1.2189
  274TIP3    H2  829   5.540   5.750   0.895  1.1728  0.1212  0.7246
  275TIP3   OH2  830   1.661   2.698   4.806 -0.4997  0.0436 -0.1099
  275TIP3    H1  831   1.657   2.603   4.799 -0.4238  0.0722 -0.6179
  275TIP3    H2  832   1.601   2.720   4.877 -0.9567 -0.3413 -0.3711
  276TIP3   OH2  833   3.198   3.006   3.462  0.2697  0.2358  0.0772
  276TIP3    H1  834   3.257   3.078   3.437  2.8929 -1.8578 -0.2450
  276TIP3    H2  835   3.132   3.005   3.393  1.5036  0.9197 -1.1770
  277TIP3   OH2  836   0.969   4.509   0.488 -0.4497  0.8292  0.0297
  277TIP3    H1  837   0.930   4.579   0.436 -1.0222  1.9961  1.9242
  277TIP3    H2  838   0.965   4.431   0.432 -1.4227  1.9154 -1.4631
  278TIP3   OH2  839   2.815   3.096   1.599 -0.4139  0.2605  0.0243
  278TIP3    H1  840   2.832   3.002   1.601  0.3570  0.4086  1.6437
  278TIP3    H2  841   2.750   3.111   1.668  0.4198  1.0664  0.6648
  279TIP3   OH2  842   3.104   1.634   0.569 -0.0039  0.6306  0.0929
  279TIP3    H1  843   3.196   1.643   0.591 -0.0617 -1.0547  1.1666
  279TIP3    H2  844   3.088   1.539   0.570 -0.8728  0.5764 -3.7839
  280TIP3   OH2  845   4.315   3.264   4.924  0.5216 -0.4863 -0.1863
  280TIP3    H1  846   4.350   3.214   4.998  1.5912 -1.6395 -1.4017
  280TIP3    H2  847   4.255   3.327   4.963  1.0727 -1.0399  1.6529
  281TIP3   OH2  848   6.160   0.921   2.859  0.3640  0.0164  0.0102
  281TIP3    H1  849   6.165   0.886   2.770  0.1618  1.1681 -0.4752
  281TIP3    H2  850   6.230   0.987   2.862  0.2138  0.1522  0.6164
  282TIP3   OH2  851   5.067   1.250   2.541 -0.9269  0.5733 -0.1052
  282TIP3    H1  852   5.119   1.242   2.461  0.9516  3.0016  0.7160
  282TIP3    H2  853   5.123   1.212   2.609 -0.8152  1.8863  0.5716
  283TIP3   OH2  854   1.574   2.219   4.571 -0.6058  0.4957 -0.2095
  283TIP3    H1  855   1.597   2.202   4.663  0.9091  0.1125 -0.6185
  283TIP3    H2  856   1.555   2.313   4.567 -1.0993  0.4353  0.5647
  284TIP3   OH2  857   4.420   4.977   1.422  0.1255  0.2966 -0.0520
  284TIP3    H1  858   4.344   4.931   1.459 -0.5764  2.2980  1.1520
  284TIP3    H2  859   4.470   5.005   1.498  2.6533 -1.7481 -0.8233
  285TIP3   OH2  860   0.168   3.831   2.036 -0.4173 -0.4856 -0.5117
  285TIP3    H1  861   0.247   3.789   2.002 -1.3044 -1.2984 -1.6239
  285TIP3    H2  862   0.130   3.765   2.095  0.2249  0.2776  0.7934
  286TIP3   OH2  863   0.605   3.981   4.645  0.0515 -0.2643 -0.2728
  286TIP3    H1  864   0.659   3.981   4.566 -1.0592 -1.7581 -1.0945
  286TIP3    H2  865   0.558   4.065   4.642  0.3701 -0.1064 -0.9582
  287TIP3   OH2  866   0.763   1.329   3.932  0.1653  0.0967 -0.1333
  287TIP3    H1  867   0.848   1.373   3.929  0.4075 -0.3416  0.2589
  287TIP3    H2  868   0.736   1.335   4.024  0.9138 -1.8997  0.2483
  288TIP3   OH2  869   4.926   5.416   0.619  0.5669  0.1281  0.9678
  288TIP3    H1  870   4.834   5.411   0.594  0.3444 -0.9653  1.9111
  288TIP3    H2  871   4.928   5.483   0.687  0.4548  0.1036  0.9959
  289TIP3   OH2  872   0.635   3.155   5.061  0.1346 -0.2411  1.1272
  289TIP3    H1  873   0.611   3.247   5.051 -1.9594 -0.9412 -1.1951
  289TIP3    H2  874   0.698   3.139   4.991  0.2531 -0.6664  1.3278
  290TIP3   OH2  875   0.824   4.681   1.960  0.0009 -0.1860 -0.3713
  290TIP3    H1  876   0.791   4.643   2.042  3.2061  1.1711  1.8097
  290TIP3    H2  877   0.883   4.614   1.925 -0.4420 -0.2929 -0.9185
  291TIP3   OH2  878   5.308   1.113   5.041 -0.2749 -0.2733 -0.8038
  291TIP3    H1  879   5.290   1.020   5.034 -0.8926 -0.3079  0.9163
  291TIP3    H2  880   5.395   1.124   5.003 -0.7359 -1.3155 -2.2328
  292TIP3   OH2  881   4.660   0.287   3.628 -0.2481 -0.5855 -0.6545
  292TIP3    H1  882   4.601   0.236   3.683 -0.5820 -1.3659 -1.7017
  292TIP3    H2  883   4.712   0.222   3.581 -0.3203  0.0363 -1.6240
  293TIP3   OH2  884   1.277   3.784   0.714  0.3888  0.1882  0.1125
  293TIP3    H1  885   1.207   3.832   0.670  0.2555  0.0870  0.2155
  293TIP3    H2  886   1.357   3.829   0.687  0.5124 -1.0660 -1.8939
  294TIP3   OH2  887   5.850   5.147   1.844 -0.0437 -0.6988  0.3964
  294TIP3    H1  888   5.808   5.136   1.759  0.1914 -0.5196  0.2574
  294TIP3    H2  889   5.927   5.200   1.826  0.0373 -0.7091  0.7127
  295TIP3   OH2  890   3.194   0.852   1.453  0.1009 -0.2192  0.6315
  295TIP3    H1  891   3.237   0.769   1.434  0.8051  0.5513 -1.4772
  295TIP3    H2  892   3.102   0.838   1.430  0.2619 -0.3610  0.0594
  296TIP3   OH2  893   2.312   3.846   0.465 -0.3372 -0.3908  0.1713
  296TIP3    H1  894   2.305   3.940   0.486  1.2799 -0.4258  0.9957
  296TIP3    H2  895   2.358   3.844   0.381  1.0889 -0.4740  0.9418
  297TIP3   OH2  896   2.450   1.801   4.935  0.0250 -0.7299  0.6758
  297TIP3    H1  897   2.374   1.859   4.926  0.2480 -0.1771  2.1480
  297TIP3    H2  898   2.523   1.853   4.901 -0.2731 -1.4111 -1.1274
  298TIP3   OH2  899   4.385   1.938   1.263 -0.1459  0.1762 -0.1632
  298TIP3    H1  900   4.375   1.880   1.339 -1.9748  0.4187 -0.1884
  298TIP3    H2  901   4.399   2.025   1.301 -0.1430  0.1590 -0.1250
  299TIP3   OH2  902   1.823   1.867   1.376  0.3754  0.0048  0.1643
  299TIP3    H1  903   1.868   1.805   1.318 -0.4016 -0.3678 -0.0603
  299TIP3    H2  904   1.767   1.918   1.318 -1.8248 -1.6102  0.7236
  300TIP3   OH2  905   3.737   0.739   2.385 -0.6497 -0.3302  0.0083
  300TIP3    H1  906   3.739   0.649   2.419 -1.6514 -0.4691 -0.2482
  300TIP3    H2  907   3.769   0.731   2.295 -0.7471 -0.4363 -0.0180
  301TIP3   OH2  908   5.642   2.701   0.378 -0.2938  0.7476 -0.0241
  301TIP3    H1  909   5.635   2.623   0.433 -0.9039  0.9444  0.1866
  301TIP3    H2  910   5.726   2.692   0.333  0.8306  1.1903  1.8754
  302TIP3   OH2  911   1.250   5.348   0.525 -0.4840 -0.5552  0.0352
  302TIP3    H1  912   1.343   5.343   0.504 -0.9039 -3.2025 -1.6138
  302TIP3    H2  913   1.239   5.290   0.600 -0.8515 -0.4227  0.0878
  303TIP3   OH2  914   4.827   2.877   3.172 -0.4544  0.0691 -0.3224
  303TIP3    H1  915   4.807   2.924   3.253  0.4822 -0.8378  0.4637
  303TIP3    H2  916   4.877   2.939   3.120  0.1421  0.2001  0.3896
  304TIP3   OH2  917   2.748   1.306   0.520  0.0944  0.1882 -0.6690
  304TIP3    H1  918   2.745   1.215   0.549 -0.6244 -0.4104 -2.4945
  304TIP3    H2  919   2.657   1.333   0.514  0.3032  1.6299  1.4436
  305TIP3   OH2  920   1.366   3.183   3.131  0.1372 -0.2656 -0.4897
  305TIP3    H1  921   1.372   3.169   3.225  0.7778 -0.3780 -0.5461
  305TIP3    H2  922   1.322   3.105   3.098 -2.9060  1.0658  0.0605
  306TIP3   OH2  923   5.374   5.153   2.133  0.7941  0.0027 -0.2491
  306TIP3    H1  924   5.434   5.228   2.136  1.2095 -0.2937 -0.9280
  306TIP3    H2  925   5.378   5.123   2.042  1.0601 -1.1804  0.1331
  307TIP3   OH2  926   5.447   0.073   2.815  0.1132 -0.3536  0.7035
  307TIP3    H1  927   5.492   0.088   2.732  0.6083  0.2794  1.0736
  307TIP3    H2  928   5.499   0.005   2.859 -1.1815 -2.0293 -0.2613
  308TIP3   OH2  929   5.794   4.397   4.917 -0.7890  0.0863  0.0937
  308TIP3    H1  930   5.704   4.389   4.885 -1.0384  0.1886  0.7491
  308TIP3    H2  931   5.797   4.340   4.994  0.3586 -1.7323 -1.2193
  309TIP3   OH2  932   3.631   2.665   3.545 -0.3688 -0.1004 -0.0961
  309TIP3    H1  933   3.637   2.569   3.550  0.6538  0.0151  2.6096
  309TIP3    H2  934   3.538   2.683   3.536 -0.4643 -1.3278 -2.2548
  310TIP3   OH2  935   2.582   0.504   1.119 -0.0443 -0.0472  0.6219
  310TIP3    H1  936   2.651   0.549   1.168  1.3477 -1.7360  0.2978
  310TIP3    H2  937   2.629   0.451   1.055 -1.6353 -1.5478  0.6308
  311TIP3   OH2  938   3.873   2.774   2.427  0.1491  0.3339 -0.6629
  311TIP3    H1  939   3.862   2.680   2.443  0.7505  0.4094  0.2276
  311TIP3    H2  940   3.788   2.801   2.393  0.1655 -0.6505 -1.5588
  312TIP3   OH2  941   1.120   3.936   0.538 -0.0588 -0.0278 -0.1081
  312TIP3    H1  942   1.200   3.987   0.547  0.8685 -1.0836 -1.8239
  312TIP3    H2  943   1.081   3.965   0.456 -0.3578 -0.9144 -0.2950
  313TIP3   OH2  944   5.414   3.179   1.128  0.0952  0.5571 -0.1870
  313TIP3    H1  945   5.341   3.239   1.138  0.6443  1.1096  0.6981
  313TIP3    H2  946   5.401   3.114   1.197  0.7485  1.0036  0.3696
  314TIP3   OH2  947   5.648   2.481   1.504  0.2151 -0.4777 -0.2867
  314TIP3    H1  948   5.669   2.570   1.534  1.5918 -1.4022  1.6078
  314TIP3    H2  949   5.640   2.490   1.409 -0.5228  1.8306 -0.0702
  315TIP3   OH2  950   4.277   0.748   0.848  0.5600  0.2665 -0.4103
  315TIP3    H1  951   4.189   0.725   0.817  0.6844 -0.3226 -0.3315
  315TIP3    H2  952   4.300   0.827   0.798 -0.6500  1.3659  0.6863
  316TIP3   OH2  953   5.203   3.334   4.603 -0.0369  0.6396 -0.6314
  316TIP3    H1  954   5.290   3.296   4.622 -0.6014  0.5574  2.1908
  316TIP3    H2  955   5.222   3.419   4.566  1.2678  0.2887 -0.8328
  317TIP3   OH2  956   0.510   5.605   4.632  0.2874  0.5202  0.8983
  317TIP3    H1  957   0.428   5.648   4.608  0.2943  0.7163  1.2129
  317TIP3    H2  958   0.484   5.526   4.679  0.2740  0.1505  0.2782
  318TIP3   OH2  959   4.860   3.468   4.409  0.0379  0.2180 -0.1351
  318TIP3    H1  960   4.938   3.415   4.389  0.5620  1.0515 -0.3458
  318TIP3    H2  961   4.843   3.516   4.328  0.2172  1.1757  0.3799
  319TIP3   OH2  962   0.876   0.289   2.986  0.0611 -0.5966  0.1802
  319TIP3    H1  963   0.820   0.336   3.048 -2.5746 -2.2144 -0.7555
  319TIP3    H2  964   0.940   0.245   3.041 -0.1148  0.6318  1.4324
  320TIP3   OH2  965   0.523   3.073   1.252 -0.4128 -0.4286  0.3586
  320TIP3    H1  966   0.545   3.085   1.344  0.5081 -0.6811  0.1805
  320TIP3    H2  967   0.602   3.099   1.205 -0.5767 -1.1198 -0.3169
  321TIP3   OH2  968   2.629   3.365   0.214  0.1944 -0.1617  0.0011
  321TIP3    H1  969   2.561   3.433   0.213 -0.3885 -0.7151  0.6873
  321TIP3    H2  970   2.601   3.304   0.282  0.8832 -0.9206 -0.3747
  322TIP3   OH2  971   3.238   0.109   3.691  0.0097  0.5926  0.3121
  322TIP3    H1  972   3.165   0.161   3.658  0.4726  2.2342  1.6821
  322TIP3    H2  973   3.290   0.171   3.742  0.1793 -1.3659  2.7294
  323TIP3   OH2  974   2.554   2.338   3.980 -0.0774  0.1845 -0.2405
  323TIP3    H1  975   2.648   2.330   3.992  0.0691 -0.1387 -1.4787
  323TIP3    H2  976   2.530   2.416   4.031  1.1408  1.3053 -1.3095
  324TIP3   OH2  977   0.625   3.651   1.455 -0.3230 -0.3248  0.0999
  324TIP3    H1  978   0.698   3.711   1.467  0.5357 -0.7971 -2.2058
  324TIP3    H2  979   0.550   3.696   1.494  0.7117  1.2737  0.3471
  325TIP3   OH2  980   0.058   3.629   4.950 -0.2542 -0.1832 -0.3263
  325TIP3    H1  981   0.105   3.546   4.949 -1.2098 -0.7407 -1.0714
  325TIP3    H2  982   0.034   3.643   5.041  0.5432 -0.3503 -0.0854
  326TIP3   OH2  983   4.665   4.509   3.836  0.1277 -0.3554  0.2029
  326TIP3    H1  984   4.714   4.563   3.774  0.1164  0.1663  0.6419
  326TIP3    H2  985   4.710   4.522   3.919 -0.3988 -0.3342  0.4891
  327TIP3   OH2  986   2.195   5.614   3.389  0.3338  0.0274  0.1326
  327TIP3    H1  987   2.191   5.526   3.351  1.0553 -1.1727  2.5679
  327TIP3    H2  988   2.288   5.637   3.387  0.5757 -0.5732  2.0474
  328TIP3   OH2  989   1.714   5.371   0.056  0.0637  0.0279 -0.3468
  328TIP3    H1  990   1.785   5.307   0.066  0.3553  0.3312 -0.4418
  328TIP3    H2  991   1.643   5.322   0.014 -0.2742 -0.6092  0.9364
  329TIP3   OH2  992   2.442   5.808   2.670  0.6403  0.0541 -0.2250
  329TIP3    H1  993   2.475   5.721   2.649 -2.0688 -0.8493 -1.1365
  329TIP3    H2  994   2.479   5.827   2.756 -0.7602 -3.2339  1.2849
  330TIP3   OH2  995   4.179   1.239   0.934  0.6174 -0.6274  0.0252
  330TIP3    H1  996   4.145   1.233   1.023  2.8760 -0.4731  0.9797
  330TIP3    H2  997   4.229   1.321   0.933  0.3084 -0.4195 -1.5298
  331TIP3   OH2  998   2.485   1.856   4.536 -0.6540 -0.4583  0.0675
  331TIP3    H1  999   2.519   1.941   4.507 -0.0122 -1.3841 -2.0964
  331TIP3    H2 1000   2.516   1.847   4.626 -0.7078  1.5666  0.3353
  332TIP3   OH2 1001   0.773   2.211   3.194  0.0361 -0.7310  0.1310
  332TIP3    H1 1002   0.783   2.291   3.246  1.8841 -0.3760 -0.6859
  332TIP3    H2 1003   0.689   2.174   3.223 -1.5161  2.1148 -0.3460
  333TIP3   OH2 1004   0.977   1.243   4.718 -0.1557 -0.1949 -0.6776
  333TIP3    H1 1005   1.051   1.273   4.771 -0.2636 -1.4259  0.2296
  333TIP3    H2 1006   0.912   1.214   4.783 -1.3979  0.7493 -1.4530
  334TIP3   OH2 1007   4.754   5.561   0.190  0.3864 -0.1519  0.4963
  334TIP3    H1 1008   4.804   5.613   0.253  0.6652  1.9480 -1.3315
  334TIP3    H2 1009   4.668   5.551   0.231  0.6063  1.0090  1.3231
  335TIP3   OH2 1010   1.249   0.004   2.861  0.3163  0.0786  0.6308
  335TIP3    H1 1011   1.287   0.031   2.944  0.7991 -0.5015  0.6069
  335TIP3    H2 1012   1.285   0.064   2.796 -0.9978  1.3155  0.9869
  336TIP3   OH2 1013   0.761   5.699   1.511 -0.1483 -0.1296  0.1851
  336TIP3    H1 1014   0.794   5.746   1.588 -0.6358  0.0785  0.2680
  336TIP3    H2 1015   0.836   5.695   1.452 -0.0575  0.6062  0.2463
  337TIP3   OH2 1016   5.685   2.758   1.617  0.2269 -0.2241  0.2417
  337TIP3    H1 1017   5.721   2.724   1.699  0.0677 -1.2423 -0.0913
  337TIP3    H2 1018   5.762   2.790   1.569  0.1719  1.7333  1.3585
  338TIP3   OH2 1019   0.282   2.840   4.247  0.0775 -0.6510  0.0865
  338TIP3    H1 1020   0.365   2.881   4.270  0.3302 -0.7510 -0.6419
  338TIP3    H2 1021   0.254   2.797   4.328  0.1222  0.4078  0.6778
  339TIP3   OH2 1022   3.333   2.456   1.848  0.2473  0.4247 -0.1726
  339TIP3    H1 1023   3.354   2.368   1.880 -0.9256 -0.5616 -1.9232
  339TIP3    H2 1024   3.244   2.472   1.879 -0.2195  0.2089 -1.3313
  340TIP3   OH2 1025   0.265   4.659   3.708  0.1350  0.5301  0.8610
  340TIP3    H1 1026   0.291   4.735   3.760  1.1655 -0.6472  2.1580
  340TIP3    H2 1027   0.301   4.584   3.755 -3.2191 -1.0557  1.2366
  341TIP3   OH2 1028   5.396   1.219   3.884 -0.3135 -0.3367 -0.2826
  341TIP3    H1 1029   5.478   1.244   3.840 -0.4565  0.1895 -0.2594
  341TIP3    H2 1030   5.335   1.203   3.812  0.2228 -2.2647 -0.3542
  342TIP3   OH2 1031   0.313   4.750   2.727  0.4523 -0.1982  0.4547
  342TIP3    H1 1032   0.319   4.672   2.672 -1.8660 -0.1665  0.0671
  342TIP3    H2 1033   0.292   4.717   2.814 -2.1612 -0.0525 -0.0222
  343TIP3   OH2 1034   4.680   5.406   0.547  0.3371 -0.0533 -0.2564
  343TIP3    H1 1035   4.634   5.443   0.471  0.0947 -1.3714 -0.7794
  343TIP3    H2 1036   4.675   5.311   0.534 -0.7696 -0.3839  2.0076
  344TIP3   OH2 1037   0.188   1.003   3.818  0.6351  0.2645 -1.0301
  344TIP3    H1 1038   0.275   0.997   3.857 -0.4744 -0.4110  1.5183
  344TIP3    H2 1039   0.132   1.036   3.888 -1.4781 -0.8851 -2.0909
  345TIP3   OH2 1040   4.149   5.450   3.950 -0.0269  0.1231  0.7737
  345TIP3    H1 1041   4.181   5.539   3.933  0.1175  0.2070  1.4514
  345TIP3    H2 1042   4.229   5.400   3.970  0.0053 -0.3919 -0.5184
  346TIP3   OH2 1043   2.480   0.215   3.496 -0.1672 -0.1252  0.0014
  346TIP3    H1 1044   2.503   0.293   3.446 -1.1396  0.5350  0.5468
  346TIP3    H2 1045   2.433   0.160   3.434  1.4634 -0.8058 -0.6939
  347TIP3   OH2 1046   1.526   4.064   3.022 -0.9861  0.1275 -0.1334
  347TIP3    H1 1047   1.558   4.154   3.030 -3.0936  1.0135 -0.7250
  347TIP3    H2 1048   1.498   4.041   3.111 -0.9470  0.2723 -0.0827
  348TIP3   OH2 1049   1.974   3.318   0.660 -0.0506 -0.7134 -0.1711
  348TIP3    H1 1050   1.920   3.348   0.733 -1.6038 -2.1829 -0.6466
  348TIP3    H2 1051   1.938   3.364   0.584  1.5975  0.8566 -0.0747
  349TIP3   OH2 1052   4.695   4.871   4.830 -0.3164 -0.8737  0.4535
  349TIP3    H1 1053   4.753   4.879   4.754  1.0750 -0.6065  1.4982
  349TIP3    H2 1054   4.723   4.941   4.889 -3.2347  0.7465  0.0872
  350TIP3   OH2 1055   1.084   1.381   5.204  0.2399 -0.3995 -0.5468
  350TIP3    H1 1056   1.130   1.306   5.166  0.1726 -0.4454 -0.5372
  350TIP3    H2 1057   1.034   1.417   5.131 -1.3062 -1.5562 -0.0890
  351TIP3   OH2 1058   5.913   5.183   2.167  0.4640 -0.4248 -0.6660
  351TIP3    H1 1059   5.879   5.185   2.078  0.2840 -0.8500 -0.6096
  351TIP3    H2 1060   5.878   5.263   2.208  1.2888  0.2405 -1.2352
  352TIP3   OH2 1061   1.743   3.668   0.618 -0.1353 -0.3536  0.1572
  352TIP3    H1 1062   1.750   3.633   0.529 -1.3774  2.1201 -0.9895
  352TIP3    H2 1063   1.827   3.711   0.633 -0.6563  1.0056 -0.6734
  353TIP3   OH2 1064   3.928   1.053   2.104  0.0204 -0.2008 -0.0891
  353TIP3    H1 1065   3.936   1.047   2.199  1.1426  0.8782 -0.0875
  353TIP3    H2 1066   3.849   1.106   2.089  0.2337  0.2177  0.2630
  354TIP3   OH2 1067   4.239   5.293   2.328 -0.3999  0.0811  0.6310
  354TIP3    H1 1068   4.265   5.284   2.237  0.9683  1.2578  0.8523
  354TIP3    H2 1069   4.277   5.216   2.372 -1.6682 -0.8663  0.1323
  355TIP3   OH2 1070   5.961   5.670   0.742  0.4995 -0.3874  0.0836
  355TIP3    H1 1071   6.031   5.643   0.682 -0.0222 -2.3233  0.2745
  355TIP3    H2 1072   5.918   5.744   0.697  0.1518 -1.7409 -1.9569
  356TIP3   OH2 1073   1.902   5.252   3.628  0.0125  0.2735 -0.3666
  356TIP3    H1 1074   1.813   5.273   3.658  0.1076 -1.5547  1.4114
  356TIP3    H2 1075   1.906   5.157   3.632  1.1284  0.1224 -3.3498
  357TIP3   OH2 1076   5.068   2.544   5.086  0.2040  0.3247  0.0607
  357TIP3    H1 1077   5.116   2.463   5.107  0.2831 -0.0680 -1.5379
  357TIP3    H2 1078   4.989   2.514   5.041  0.6400  1.1585 -1.3155
  358TIP3   OH2 1079   3.266   3.646   2.325  0.6596  0.2221  0.1072
  358TIP3    H1 1080   3.344   3.603   2.359  1.3639 -0.1857 -1.9290
  358TIP3    H2 1081   3.211   3.575   2.294  0.5190  0.6303 -0.5894
  359TIP3   OH2 1082   2.582   3.955   1.066 -0.1389 -0.1885 -0.1942
  359TIP3    H1 1083   2.660   3.900   1.058 -0.8208 -1.2749  0.4112
  359TIP3    H2 1084   2.509   3.894   1.059 -0.9607  0.8708 -1.2138
  360TIP3   OH2 1085   4.195   5.863   1.987  0.8931  0.4083 -0.0770
  360TIP3    H1 1086   4.189   5.857   2.083  1.0419  1.6120  0.0254
  360TIP3    H2 1087   4.265   5.927   1.972 -0.0497  1.2642 -0.9641
  361TIP3   OH2 1088   2.063   3.222   4.703 -0.2156 -0.3242  0.1012
  361TIP3    H1 1089   2.022   3.149   4.751  0.5450 -1.1466 -0.4670
  361TIP3    H2 1090   2.136   3.249   4.759 -1.7119  1.4475  1.3387
  362TIP3   OH2 1091   1.432   1.208   4.324  0.2218 -0.0392 -0.4291
  362TIP3    H1 1092   1.348   1.252   4.331 -0.2153 -0.8854 -0.3110
  362TIP3    H2 1093   1.425   1.132   4.382  1.0423 -0.1427 -0.4535
  363TIP3   OH2 1094   0.553   1.239   2.137 -0.3910 -0.1667  0.6206
  363TIP3    H1 1095   0.602   1.206   2.213 -1.7151 -0.2915  1.4547
  363TIP3    H2 1096   0.556   1.167   2.074 -0.5587 -0.6687  1.1710
  364TIP3   OH2 1097   6.316   4.801   1.265  0.4302 -0.3447 -0.3730
  364TIP3    H1 1098   6.408   4.779   1.252  0.6701 -0.1618  0.9086
  364TIP3    H2 1099   6.280   4.729   1.316  0.7198  1.1073  2.0503
  365TIP3   OH2 1100   3.273   1.654   3.289  0.1691  0.4031 -0.6140
  365TIP3    H1 1101   3.312   1.619   3.209  1.6008  0.5856 -0.0278
  365TIP3    H2 1102   3.280   1.749   3.279 -0.7020  0.4583 -0.7640
  366TIP3   OH2 1103   5.706   5.359   1.169 -0.2708 -0.5106 -0.5976
  366TIP3    H1 1104   5.730   5.362   1.262 -2.3194  0.3349 -0.0320
  366TIP3    H2 1105   5.653   5.438   1.156 -1.0983 -1.2879 -2.1769
  367TIP3   OH2 1106   2.621   2.698   0.018 -0.5192 -0.2526 -0.1502
  367TIP3    H1 1107   2.645   2.723   0.107  0.0811 -0.3323 -0.2815
  367TIP3    H2 1108   2.542   2.749  -0.001 -0.5351 -0.0819  0.3521
  368TIP3   OH2 1109   1.737   5.433   2.029  0.4887 -0.1388  0.5975
  368TIP3    H1 1110   1.830   5.440   2.050  1.0579 -0.4911 -1.6118
  368TIP3    H2 1111   1.716   5.341   2.046  0.3774  0.0580  1.6097
  369TIP3   OH2 1112   4.113   0.909   0.613 -0.2020  0.3673  0.2469
  369TIP3    H1 1113   4.023   0.904   0.647 -0.3909  0.0797 -0.2880
  369TIP3    H2 1114   4.143   0.997   0.637 -0.5135  0.3534  0.7049
  370TIP3   OH2 1115   6.257   2.951   1.658  0.2355  0.0078  0.2476
  370TIP3    H1 1116   6.228   2.994   1.578 -0.3495  3.1677  1.9887
  370TIP3    H2 1117   6.185   2.894   1.684  0.0603 -0.3321 -0.9646
  371TIP3   OH2 1118   6.334   2.851   2.982 -0.4937 -0.1071 -0.4852
  371TIP3    H1 1119   6.268   2.917   3.003  1.1255  2.0376 -1.6416
  371TIP3    H2 1120   6.411   2.877   3.032  0.7117 -0.0190 -2.2755
  372TIP3   OH2 1121   2.564   4.518   2.584 -0.4136  0.0414  0.1648
  372TIP3    H1 1122   2.649   4.543   2.622  0.2326 -0.7964 -0.6667
  372TIP3    H2 1123   2.513   4.485   2.657  0.9049 -1.8302  0.2972
  373TIP3   OH2 1124   0.941   0.130   1.645  0.3285 -0.2339  0.3445
  373TIP3    H1 1125   0.960   0.059   1.706  1.2402  0.4473  0.8773
  373TIP3    H2 1126   0.865   0.099   1.595  0.7613 -1.6122  0.4934
  374TIP3   OH2 1127   1.132   2.725   3.932 -0.0067 -0.2209 -0.1682
  374TIP3    H1 1128   1.041   2.755   3.943  0.0768  0.7730 -1.8840
  374TIP3    H2 1129   1.140   2.707   3.839  1.3885 -0.9706  0.0757
  375TIP3   OH2 1130   3.425   1.090   0.301  0.4497 -0.0612  0.1875
  375TIP3    H1 1131   3.470   1.068   0.219 -0.0006 -0.2399 -0.0132
  375TIP3    H2 1132   3.464   1.174   0.327 -0.2859  0.6562 -0.8884
  376TIP3   OH2 1133   4.388   4.073   4.353 -0.1710  0.1978  0.1643
  376TIP3    H1 1134   4.406   4.163   4.326 -1.5305  0.2591 -0.6171
  376TIP3    H2 1135   4.296   4.059   4.329 -0.3761 -0.9537  1.5161
  377TIP3   OH2 1136   4.387   2.071   0.152  0.0716  0.3439  0.4104
  377TIP3    H1 1137   4.354   2.158   0.130  0.7159  0.3334 -0.6840
  377TIP3    H2 1138   4.311   2.022   0.182 -0.5441  0.8882 -0.2519
  378TIP3   OH2 1139   2.506   0.089   3.828 -0.0019  0.2978  0.2813
  378TIP3    H1 1140   2.429   0.131   3.791 -0.0367 -1.0829 -1.2965
  378TIP3    H2 1141   2.485  -0.004   3.830  1.8456 -0.1947 -0.8501
  379TIP3   OH2 1142   0.856   3.610   0.074 -0.0050  0.1141  0.2774
  379TIP3    H1 1143   0.927   3.590   0.013 -0.3470 -0.8576  0.1808
  379TIP3    H2 1144   0.875   3.557   0.151  0.4097  1.3141  1.0352
  380TIP3   OH2 1145   4.531   2.091   1.462  0.1839 -0.3176  0.1230
  380TIP3    H1 1146   4.557   2.157   1.398 -1.9938  0.1218 -0.3845
  380TIP3    H2 1147   4.601   2.092   1.528  0.6802  1.7968 -0.3738
  381TIP3   OH2 1148   2.012   5.046   3.099 -1.1141  0.0326 -0.2098
  381TIP3    H1 1149   2.101   5.072   3.076 -1.0362 -0.7994 -0.8902
  381TIP3    H2 1150   1.966   5.129   3.116  0.0035  0.4294  1.0290
  382TIP3   OH2 1151   4.005   2.742   0.855  0.1148  0.0552  0.0498
  382TIP3    H1 1152   4.095   2.718   0.878  0.3182 -0.2548 -0.9893
  382TIP3    H2 1153   4.010   2.767   0.763 -0.2074  3.4850  0.8393
  383TIP3   OH2 1154   6.037   0.255   1.340 -0.2632  0.4617  0.2915
  383TIP3    H1 1155   5.985   0.307   1.402 -1.0305  0.0456  0.0216
  383TIP3    H2 1156   6.024   0.299   1.256 -1.8991 -0.7936 -0.1692
  384TIP3   OH2 1157   0.471   5.591   2.676 -0.4433 -0.0683  0.4879
  384TIP3    H1 1158   0.442   5.504   2.703 -0.6013  0.5896  2.6111
  384TIP3    H2 1159   0.498   5.580   2.585  0.1542 -2.4801  0.8952
  385TIP3   OH2 1160   3.576   2.853   1.161 -0.9675 -0.1386 -0.2855
  385TIP3    H1 1161   3.566   2.780   1.222 -0.3427  0.0192  0.0141
  385TIP3    H2 1162   3.638   2.821   1.095 -0.4013  0.2384  0.0506
  386TIP3   OH2 1163   5.305   1.987   0.966 -0.3469  0.8480 -0.1830
  386TIP3    H1 1164   5.392   1.948   0.958 -1.0169 -0.5883 -0.9218
  386TIP3    H2 1165   5.315   2.056   1.032  1.7410  1.9694 -1.5628
  387TIP3   OH2 1166   0.582   3.346   1.875 -0.6910  0.7296  0.0713
  387TIP3    H1 1167   0.499   3.309   1.845 -1.3129  2.5003 -0.4919
  387TIP3    H2 1168   0.619   3.388   1.798  0.4626  0.4730  0.4602
  388TIP3   OH2 1169   4.609   3.652   2.390 -0.2209  0.1002  0.6442
  388TIP3    H1 1170   4.544   3.697   2.443  1.6588  1.5181  1.8915
  388TIP3    H2 1171   4.593   3.682   2.301 -1.6333 -0.0767  0.8249
  389TIP3   OH2 1172   3.458   5.209   2.906  0.5270 -0.2575  0.5850
  389TIP3    H1 1173   3.417   5.123   2.912 -0.1049  0.0903  1.7476
  389TIP3    H2 1174   3.385   5.270   2.912  0.7988  0.3978 -1.6945
  390TIP3   OH2 1175   5.996   2.182   3.784  0.5068 -0.1803  0.5630
  390TIP3    H1 1176   5.916   2.130   3.774  1.6537 -1.8798 -0.2807
  390TIP3    H2 1177   5.970   2.254   3.841 -1.6644 -0.5771  0.1851
  391TIP3   OH2 1178   2.578   5.073   2.544  0.1332 -0.2050 -0.0768
  391TIP3    H1 1179   2.550   5.016   2.472 -1.2124 -0.1722  0.4114
  391TIP3    H2 1180   2.547   5.160   2.518  1.7832  0.2680 -0.6012
  392TIP3   OH2 1181   1.361   2.274   4.143  0.3976  0.0894 -0.3477
  392TIP3    H1 1182   1.435   2.327   4.113 -1.0467  1.6730 -1.3431
  392TIP3    H2 1183   1.337   2.221   4.068 -0.0910  0.3440 -0.3792
  393TIP3   OH2 1184   1.108   1.149   2.276  0.1654  0.0560 -0.3744
  393TIP3    H1 1185   1.179   1.085   2.285 -0.3340 -0.9822 -3.0082
  393TIP3    H2 1186   1.090   1.177   2.366  2.1325 -1.5775  0.6215
  394TIP3   OH2 1187   2.278   0.266   0.195 -0.1280  0.1904 -0.0467
  394TIP3    H1 1188   2.297   0.260   0.101 -1.0036 -0.1508 -0.2142
  394TIP3    H2 1189   2.363   0.261   0.237  0.1985 -0.6417 -0.7842
  395TIP3   OH2 1190   5.478   3.427   2.952  0.0158 -0.1326 -0.0080
  395TIP3    H1 1191   5.408   3.370   2.984  1.0231 -1.3135  0.1599
  395TIP3    H2 1192   5.443   3.515   2.960 -0.5569 -0.5097  2.4368
  396TIP3   OH2 1193   2.922   4.386   2.085  0.0921 -0.4668  0.1738
  396TIP3    H1 1194   2.947   4.426   2.169 -1.9570 -1.3028  1.2493
  396TIP3    H2 1195   2.827   4.399   2.080  0.1673 -0.4905 -2.0136
  397TIP3   OH2 1196   4.350   4.111   1.887  0.0228  0.6936 -0.5711
  397TIP3    H1 1197   4.438   4.144   1.905  0.6485 -1.1080 -0.0915
  397TIP3    H2 1198   4.362   4.018   1.872 -1.7277  0.5387 -1.2477
  398TIP3   OH2 1199   5.761   1.038   4.738  0.2809 -0.3807 -0.3195
  398TIP3    H1 1200   5.762   0.952   4.695 -1.0297 -0.9618  0.7465
  398TIP3    H2 1201   5.755   1.017   4.831 -0.6430  0.8721 -0.0776
  399TIP3   OH2 1202   3.104   2.216   1.348  0.4720 -0.1025  0.1048
  399TIP3    H1 1203   3.135   2.138   1.395  2.2562  1.2807  1.3495
  399TIP3    H2 1204   3.044   2.258   1.410  1.8256  1.0450  0.6811
  400TIP3   OH2 1205   5.823   1.732   2.022 -0.8952  0.2710  0.1832
  400TIP3    H1 1206   5.869   1.723   1.939 -1.9840 -1.1228 -0.3070
  400TIP3    H2 1207   5.885   1.700   2.088 -0.1588  1.0584 -0.1096
  401TIP3   OH2 1208   1.259   2.417   4.864 -0.1932 -0.3684  1.0533
  401TIP3    H1 1209   1.340   2.367   4.854  0.8575  1.1171  1.6285
  401TIP3    H2 1210   1.286   2.496   4.912 -1.7437  0.7471  0.1884
  402TIP3   OH2 1211   0.710   2.935   3.382  0.4107  0.6650 -0.6012
  402TIP3    H1 1212   0.734   3.018   3.424  0.2908  0.4406 -0.0823
  402TIP3    H2 1213   0.783   2.916   3.323  1.7091 -0.1727  1.1911
  403TIP3   OH2 1214   4.585   2.941   1.748 -0.0298  0.2357 -0.0439
  403TIP3    H1 1215   4.491   2.951   1.736 -0.3437 -0.7347  1.3780
  403TIP3    H2 1216   4.613   2.886   1.675 -0.7430 -0.2907  0.0768
  404TIP3   OH2 1217   3.096   2.570   3.978 -0.6177 -0.3651  0.2430
  404TIP3    H1 1218   3.111   2.546   4.070 -0.9742  0.3524  0.4963
  404TIP3    H2 1219   3.085   2.665   3.980 -1.0220 -0.3933 -0.4913
  405TIP3   OH2 1220   5.745   3.306   2.564  0.2374  0.2708 -0.8238
  405TIP3    H1 1221   5.707   3.291   2.651  0.2496  1.9582 -0.4772
  405TIP3    H2 1222   5.836   3.276   2.572  0.1000 -0.0391 -0.3988
  406TIP3   OH2 1223   1.421   2.198   1.010 -0.2802 -0.0314  0.7762
  406TIP3    H1 1224   1.327   2.189   1.024 -0.5166  0.1674 -0.6054
  406TIP3    H2 1225   1.445   2.122   0.958  0.5947 -0.8049  2.2462
  407TIP3   OH2 1226   0.690   3.517   4.661  0.0908 -0.3476  0.0935
  407TIP3    H1 1227   0.703   3.423   4.648  1.0641 -0.2132 -0.0147
  407TIP3    H2 1228   0.778   3.553   4.656 -0.1583  0.4446  1.2155
  408TIP3   OH2 1229   1.393   0.754   0.286 -0.2529  0.3630  0.1904
  408TIP3    H1 1230   1.380   0.810   0.363  2.0939 -0.1399  1.0374
  408TIP3    H2 1231   1.487   0.758   0.269 -0.5324 -0.5821 -1.8917
  409TIP3   OH2 1232   5.466   3.932   3.277 -0.7367  0.0106 -0.2403
  409TIP3    H1 1233   5.477   3.879   3.198  0.5790  0.0855 -0.1258
  409TIP3    H2 1234   5.371   3.937   3.289 -0.9286 -0.8700 -1.2226
  410TIP3   OH2 1235   2.625   4.629   5.091  0.2853 -0.6560  0.4307
  410TIP3    H1 1236   2.686   4.702   5.102  0.7057 -0.7389 -1.1559
  410TIP3    H2 1237   2.674   4.564   5.040 -0.2629 -1.8463  1.3548
  411TIP3   OH2 1238   2.292   5.198   5.070 -0.1187 -1.0562 -0.0944
  411TIP3    H1 1239   2.328   5.258   5.135 -0.3803 -0.8388 -0.1510
  411TIP3    H2 1240   2.348   5.210   4.993 -0.1250 -0.9392 -0.0807
  412TIP3   OH2 1241   4.111   1.006   0.342 -0.2507 -0.0899  0.3747
  412TIP3    H1 1242   4.081   0.986   0.431 -1.7606 -0.1032 -0.1039
  412TIP3    H2 1243   4.069   1.089   0.321 -0.6731 -0.5539 -0.6605
  413TIP3   OH2 1244   4.094   3.730   3.648 -1.0333  0.7429 -0.0852
  413TIP3    H1 1245   4.187   3.741   3.671 -0.9400 -0.0107 -0.0847
  413TIP3    H2 1246   4.064   3.659   3.704 -1.6181  0.9862 -0.0849
  414TIP3   OH2 1247   4.773   4.666   0.482  0.0124 -0.2204 -0.2594
  414TIP3    H1 1248   4.782   4.715   0.400 -0.0942 -2.5201 -1.7211
  414TIP3    H2 1249   4.819   4.584   0.467 -1.1472 -1.2762  1.5342
  415TIP3   OH2 1250   4.574   3.983   2.704 -0.0249  0.3325 -0.7547
  415TIP3    H1 1251   4.584   3.888   2.713  0.5009  0.3704 -0.8871
  415TIP3    H2 1252   4.630   4.005   2.629  0.7028  0.8938 -0.0594
  416TIP3   OH2 1253   4.148   3.602   0.436  0.3125 -0.4223 -0.1310
  416TIP3    H1 1254   4.054   3.592   0.418  0.6752 -2.3077 -1.3285
  416TIP3    H2 1255   4.175   3.676   0.383 -0.2995 -0.5895 -0.6982
  417TIP3   OH2 1256   0.061   3.169   4.363  0.3131  0.0556  0.3848
  417TIP3    H1 1257   0.025   3.133   4.282 -1.1279 -1.6788  1.7114
  417TIP3    H2 1258   0.075   3.261   4.344  1.1802 -0.5436 -2.2060
  418TIP3   OH2 1259   1.016   4.538   1.552  0.0476 -0.1716 -0.1058
  418TIP3    H1 1260   0.929   4.571   1.529  0.1319  0.2904  0.2253
  418TIP3    H2 1261   1.002   4.445   1.571 -0.6071  0.1502  1.1363
  419TIP3   OH2 1262   5.163   1.315   2.289 -0.0920 -0.3602 -0.3766
  419TIP3    H1 1263   5.223   1.246   2.261  0.1809  0.4888 -1.9978
  419TIP3    H2 1264   5.168   1.381   2.220 -1.1312  0.8138  0.6182
  420TIP3   OH2 1265   1.073   2.187   1.372  0.3859  0.3535 -0.6570
  420TIP3    H1 1266   1.013   2.115   1.351 -1.2025  1.0419  1.2105
  420TIP3    H2 1267   1.015   2.260   1.397  1.9955  1.4052  0.1672
  421TIP3   OH2 1268   5.736   5.432   1.448 -0.2960  0.1418  0.5080
  421TIP3    H1 1269   5.808   5.451   1.507 -1.2089  0.8983  1.4255
  421TIP3    H2 1270   5.710   5.517   1.413  1.9588 -0.4831 -3.2086
  422TIP3   OH2 1271   3.526   5.046   3.989  0.6199  0.0719 -0.5073
  422TIP3    H1 1272   3.547   4.954   4.003  0.0429 -0.5321 -3.0500
  422TIP3    H2 1273   3.534   5.059   3.894 -1.3789  2.0770 -0.5121
  423TIP3   OH2 1274   4.868   4.159   2.673 -0.2317  0.5129 -0.3458
  423TIP3    H1 1275   4.827   4.219   2.736 -1.7246  0.1818 -0.9390
  423TIP3    H2 1276   4.813   4.166   2.595  0.3095 -0.6825 -0.8598
  424TIP3   OH2 1277   2.821   3.432   4.183 -0.2016 -0.5458 -0.2197
  424TIP3    H1 1278   2.839   3.447   4.276 -1.8021  1.6137 -0.1892
  424TIP3    H2 1279   2.907   3.430   4.142  0.4548  0.6629  1.0288
  425TIP3   OH2 1280   4.639   2.105   2.543  0.6394  0.0792  0.1162
  425TIP3    H1 1281   4.731   2.131   2.547  0.7315 -0.2883  0.5166
  425TIP3    H2 1282   4.615   2.113   2.451  0.4139  2.3907  0.3147
  426TIP3   OH2 1283   5.529   0.616   4.978 -0.1328 -0.1819  0.4887
  426TIP3    H1 1284   5.585   0.578   4.910 -2.0266  0.4339 -1.5416
  426TIP3    H2 1285   5.502   0.541   5.031  1.6314 -0.6344  0.8000
  427TIP3   OH2 1286   1.377   5.091   0.410  0.2456  0.3110  0.0251
  427TIP3    H1 1287   1.331   5.008   0.397  0.6262 -0.0754  1.0420
  427TIP3    H2 1288   1.343   5.125   0.493  1.5178  0.1913  0.6203
  428TIP3   OH2 1289   2.077   3.173   1.201 -0.0692 -0.0500  0.0503
  428TIP3    H1 1290   2.000   3.142   1.249  0.2185 -2.8727 -1.1195
  428TIP3    H2 1291   2.149   3.120   1.234  0.1506 -2.0437 -3.2190
  429TIP3   OH2 1292   0.747   2.765   0.250  0.4456 -0.1755  0.2216
  429TIP3    H1 1293   0.837   2.798   0.242  0.2608  0.4951  0.8319
  429TIP3    H2 1294   0.722   2.786   0.340 -1.2688  2.0874 -0.6971
  430TIP3   OH2 1295   4.942   0.291   3.008  0.0392 -0.0299  0.1893
  430TIP3    H1 1296   4.916   0.206   3.043  0.9129  0.3839  1.9887
  430TIP3    H2 1297   4.995   0.271   2.931  0.1252 -1.0966  0.5163
  431TIP3   OH2 1298   4.255   4.871   2.489  0.6341  0.1873  0.0795
  431TIP3    H1 1299   4.324   4.805   2.478  1.7913  0.9613  2.2221
  431TIP3    H2 1300   4.174   4.822   2.474  1.5315 -1.1893 -0.6134
  432TIP3   OH2 1301   0.467   1.113   4.310  1.0242  0.1624  0.1049
  432TIP3    H1 1302   0.466   1.019   4.297  0.6905  0.2723 -0.6787
  432TIP3    H2 1303   0.518   1.125   4.391  0.8517 -0.6937  0.3498
  433TIP3   OH2 1304   2.623   1.067   2.528  0.2633  0.2133 -0.3621
  433TIP3    H1 1305   2.700   1.052   2.472  0.4795 -1.7726  0.3772
  433TIP3    H2 1306   2.622   0.991   2.587  0.2692  2.3797  2.6383
  434TIP3   OH2 1307   6.333   2.440   1.390  0.0526  0.0229  0.2296
  434TIP3    H1 1308   6.348   2.346   1.402  0.4247  0.0821  0.2126
  434TIP3    H2 1309   6.337   2.477   1.478  1.9621  0.3316  0.0450
  435TIP3   OH2 1310   2.858   3.725   1.617 -0.1373 -0.0453 -0.4672
  435TIP3    H1 1311   2.894   3.693   1.534  0.1237 -1.0571  0.0150
  435TIP3    H2 1312   2.843   3.645   1.669 -0.1059  0.5794  0.5339
  436TIP3   OH2 1313   4.876   5.087   4.679 -0.1024  0.1745 -0.1373
  436TIP3    H1 1314   4.957   5.107   4.725  0.2772  1.3086 -1.2449
  436TIP3    H2 1315   4.897   5.100   4.587 -1.2562 -0.5647 -0.5250
  437TIP3   OH2 1316   4.670   5.215   3.699 -0.6690 -0.9308 -0.5125
  437TIP3    H1 1317   4.727   5.287   3.669 -0.4667 -0.8742  0.0016
  437TIP3    H2 1318   4.656   5.162   3.621 -0.3935 -0.6146 -0.7798
  438TIP3   OH2 1319   6.171   2.765   0.317 -0.2128 -0.4321 -0.1046
  438TIP3    H1 1320   6.139   2.791   0.404  0.1358 -1.9550  0.5094
  438TIP3    H2 1321   6.265   2.755   0.328  0.1632  1.4450 -1.2355
  439TIP3   OH2 1322   0.713   0.383   1.256  0.2782 -0.6974  0.2546
  439TIP3    H1 1323   0.713   0.316   1.324 -2.0828  0.3337  1.3818
  439TIP3    H2 1324   0.695   0.464   1.303 -1.3903  0.0549 -1.5727
  440TIP3   OH2 1325   3.642   3.444   4.199 -0.6097  0.3213  0.5425
  440TIP3    H1 1326   3.687   3.525   4.222  0.4152 -0.1927  0.4123
  440TIP3    H2 1327   3.710   3.376   4.205 -1.2111 -0.3816 -0.3181
  441TIP3   OH2 1328   1.239   0.098   4.728 -0.3028  0.0407  0.4573
  441TIP3    H1 1329   1.296   0.039   4.778  0.2402 -1.5102 -1.8310
  441TIP3    H2 1330   1.176   0.130   4.793  1.7107 -0.0084  2.5854
  442TIP3   OH2 1331   5.078   3.069   0.471 -0.3682 -0.0238 -0.2268
  442TIP3    H1 1332   5.007   3.034   0.525 -0.7162 -0.2753 -0.8434
  442TIP3    H2 1333   5.119   3.135   0.527 -0.4014 -0.6329  0.5396
  443TIP3   OH2 1334   3.044   3.632  -0.017 -0.5346 -0.3246 -0.0164
  443TIP3    H1 1335   3.138   3.649  -0.015 -0.6308  0.2893 -0.3664
  443TIP3    H2 1336   3.014   3.653   0.072 -0.1521 -1.7672  0.4857
  444TIP3   OH2 1337   4.145   0.102   4.279 -0.1543  0.3575  0.6239
  444TIP3    H1 1338   4.056   0.119   4.310 -0.4950  1.4724 -0.8675
  444TIP3    H2 1339   4.197   0.174   4.314  0.2063 -0.3334  1.5555
  445TIP3   OH2 1340   4.705   5.532   3.037 -0.2542  0.4005 -0.6832
  445TIP3    H1 1341   4.652   5.609   3.016 -1.8378 -0.9972 -2.1291
  445TIP3    H2 1342   4.643   5.459   3.032  1.4172 -1.0900 -0.3908
  446TIP3   OH2 1343   0.548   2.700   4.896 -0.0032  0.0255  0.1597
  446TIP3    H1 1344   0.622   2.661   4.848 -1.3108  0.6114 -2.5602
  446TIP3    H2 1345   0.483   2.630   4.899  0.0368  0.0219  1.0742
  447TIP3   OH2 1346   1.210   0.819   4.459 -0.1012 -1.0968  0.0842
  447TIP3    H1 1347   1.127   0.839   4.501  0.1776  0.5466 -0.0655
  447TIP3    H2 1348   1.187   0.800   4.368 -0.2449  0.5450 -0.2592
  448TIP3   OH2 1349   4.747   2.757   0.899  0.6393 -0.3910 -0.4094
  448TIP3    H1 1350   4.737   2.847   0.867  0.6574 -1.5950 -4.3457
  448TIP3    H2 1351   4.841   2.739   0.889  0.5732 -0.9712 -0.0185
  449TIP3   OH2 1352   2.377   0.354   5.097  0.1785 -0.2935 -0.1359
  449TIP3    H1 1353   2.411   0.289   5.035 -1.2685 -1.2211  0.0077
  449TIP3    H2 1354   2.304   0.310   5.140 -0.7992  1.4229  0.0267
  450TIP3   OH2 1355   5.192   4.087   3.067 -0.3492  0.1798  0.2995
  450TIP3    H1 1356   5.137   4.065   2.991  0.1231 -0.5400  0.1514
  450TIP3    H2 1357   5.166   4.025   3.135 -0.4076  0.4839  0.5564
  451TIP3   OH2 1358   5.001   3.064   3.450 -0.0614 -0.2289 -0.2017
  451TIP3    H1 1359   5.044   3.119   3.516  1.0138  0.5413 -1.4724
  451TIP3    H2 1360   4.908   3.067   3.472  0.2452  0.1806  1.1274
  452TIP3   OH2 1361   2.243   3.967   5.127 -0.8072 -0.0117  0.4256
  452TIP3    H1 1362   2.210   3.970   5.217 -1.6980 -0.3426  0.1207
  452TIP3    H2 1363   2.294   3.886   5.124 -0.8753 -0.0639  0.6074
  453TIP3   OH2 1364   1.267   2.029   0.658 -0.1048  0.3982 -0.5197
  453TIP3    H1 1365   1.208   2.026   0.733  1.2099  0.4343  0.5442
  453TIP3    H2 1366   1.274   2.122   0.636  2.0115  0.7611  1.3996
  454TIP3   OH2 1367   5.237   0.157   1.829 -0.0639  0.6294  0.0322
  454TIP3    H1 1368   5.179   0.185   1.899  0.7988  0.7127  0.7290
  454TIP3    H2 1369   5.179   0.139   1.755 -1.1942 -1.1708  1.2675
  455TIP3   OH2 1370   4.887   2.514   4.869  0.3593 -0.4657  0.3973
  455TIP3    H1 1371   4.864   2.597   4.911  1.8242  0.4912 -0.5877
  455TIP3    H2 1372   4.913   2.538   4.780  1.2789 -1.9126  0.2345
  456TIP3   OH2 1373   4.360   3.607   3.720  0.4203  0.1999 -0.2673
  456TIP3    H1 1374   4.453   3.602   3.742  0.3403 -0.3875 -0.0471
  456TIP3    H2 1375   4.317   3.636   3.800  0.3549 -0.0282 -0.2195
  457TIP3   OH2 1376   2.315   5.388   3.997  0.6301  0.3254 -0.3019
  457TIP3    H1 1377   2.228   5.420   3.971 -0.2662  0.3050  2.3818
  457TIP3    H2 1378   2.332   5.315   3.936 -2.2874 -1.1346  0.4431
  458TIP3   OH2 1379   5.528   2.909   4.959 -0.5414  0.2121  0.1019
  458TIP3    H1 1380   5.585   2.861   5.019 -2.9343 -1.3249  1.3052
  458TIP3    H2 1381   5.582   2.923   4.881  1.2864 -1.6168  0.9421
  459TIP3   OH2 1382   3.049   2.762   0.614  0.3543 -0.5389  0.0243
  459TIP3    H1 1383   3.088   2.767   0.701  1.1460 -0.0565 -0.3411
  459TIP3    H2 1384   2.983   2.693   0.621  1.7179 -1.8604  0.5066
  460TIP3   OH2 1385   5.430   2.477   3.101 -0.2430 -0.1301  0.1455
  460TIP3    H1 1386   5.386   2.509   3.022 -1.3091  0.5450  0.9908
  460TIP3    H2 1387   5.391   2.391   3.116  1.6826 -1.3608 -1.3791
  461TIP3   OH2 1388   0.740   0.553   3.682 -0.4206 -0.2157 -0.4618
  461TIP3    H1 1389   0.687   0.579   3.607  0.4160 -1.0396 -1.3617
  461TIP3    H2 1390   0.822   0.601   3.672  1.1937 -3.0470 -2.2154
  462TIP3   OH2 1391   2.150   0.552   2.961 -0.4604 -0.3067 -0.9628
  462TIP3    H1 1392   2.115   0.468   2.991 -0.8784  0.9645  2.5180
  462TIP3    H2 1393   2.245   0.540   2.963 -0.5117 -0.6554 -0.3491
  463TIP3   OH2 1394   5.091   1.038   3.898 -0.7124  0.0838 -0.2583
  463TIP3    H1 1395   5.078   1.132   3.880 -0.7526 -0.0160 -0.7518
  463TIP3    H2 1396   5.141   1.036   3.980  1.5517  0.5818 -1.5787
  464TIP3   OH2 1397   6.151   4.195   2.179 -0.2725 -0.0635 -0.0402
  464TIP3    H1 1398   6.093   4.272   2.177 -0.3952 -0.1211  0.9620
  464TIP3    H2 1399   6.148   4.161   2.090 -0.7270  0.7221 -0.3356
  465TIP3   OH2 1400   2.956   0.106   2.838 -0.0097 -0.7595  0.2687
  465TIP3    H1 1401   2.955   0.161   2.917  1.0363  2.8352 -1.9683
  465TIP3    H2 1402   3.046   0.074   2.834  0.1186 -0.4047  0.2272
  466TIP3   OH2 1403   2.488   0.595   5.191  0.1861 -0.2001  0.1070
  466TIP3    H1 1404   2.436   0.514   5.191 -0.8614  0.4532  0.6268
  466TIP3    H2 1405   2.487   0.624   5.100 -1.0315  0.1924  0.2178
  467TIP3   OH2 1406   3.497   3.986   4.610  0.1534  0.3057 -0.1948
  467TIP3    H1 1407   3.476   3.902   4.651  0.0030 -0.3451 -1.5375
  467TIP3    H2 1408   3.564   4.025   4.666 -0.2880 -0.3783  0.8370
  468TIP3   OH2 1409   4.146   0.888   2.264 -0.0221  0.0931 -0.5781
  468TIP3    H1 1410   4.154   0.808   2.212  1.1979 -0.6524  0.6746
  468TIP3    H2 1411   4.052   0.905   2.266 -0.3269 -1.3573 -0.8304
  469TIP3   OH2 1412   4.496   0.534   1.794  0.2694  0.5765  0.0706
  469TIP3    H1 1413   4.466   0.612   1.841 -1.0426 -0.1429  0.4938
  469TIP3    H2 1414   4.558   0.566   1.729  0.2527  1.8859  0.6839
  470TIP3   OH2 1415   5.923   3.061   3.722  0.0556 -0.0799 -0.4745
  470TIP3    H1 1416   5.903   2.973   3.753  0.3861 -0.8517 -2.3066
  470TIP3    H2 1417   6.017   3.060   3.706  0.1694  0.8195  0.1074
  471TIP3   OH2 1418   3.981   0.446   3.657  0.0282  0.5617  0.3106
  471TIP3    H1 1419   3.943   0.529   3.630 -0.2726  0.7278  1.2233
  471TIP3    H2 1420   4.072   0.467   3.679  0.4809  0.2954 -1.1960
  472TIP3   OH2 1421   6.221   3.194   2.694  0.0498 -0.7325  0.2148
  472TIP3    H1 1422   6.217   3.262   2.626 -1.1278 -0.4922  0.5014
  472TIP3    H2 1423   6.287   3.225   2.756 -1.0712  0.5861  0.7883
  473TIP3   OH2 1424   0.695   0.826   1.508  0.2596  0.0440  0.3017
  473TIP3    H1 1425   0.703   0.919   1.526  1.9052 -0.0826  0.4131
  473TIP3    H2 1426   0.775   0.788   1.544  0.0363 -1.2905 -0.5400
  474TIP3   OH2 1427   0.902   0.505   1.989  0.3912  0.6185 -0.3029
  474TIP3    H1 1428   0.862   0.529   1.905 -1.4258  0.5169  0.4728
  474TIP3    H2 1429   0.947   0.423   1.971  1.2158  1.2966 -1.4879
  475TIP3   OH2 1430   1.577   3.454   4.759  0.4467 -0.7115  0.4560
  475TIP3    H1 1431   1.615   3.529   4.714  0.0822  0.5944  2.1959
  475TIP3    H2 1432   1.483   3.462   4.743  0.4127 -0.8227  0.5981
  476TIP3   OH2 1433   1.132   0.899   3.651  0.0793  0.5417 -0.3191
  476TIP3    H1 1434   1.165   0.956   3.720  2.8632  1.3698 -2.1812
  476TIP3    H2 1435   1.081   0.956   3.594 -0.2110  0.3717 -0.2327
  477TIP3   OH2 1436   4.144   0.912   3.659 -0.0620 -0.0085 -0.4053
  477TIP3    H1 1437   4.169   0.867   3.740 -0.8744  0.9466  0.4080
  477TIP3    H2 1438   4.225   0.918   3.609  0.2739 -1.3924 -0.0557
  478TIP3   OH2 1439   3.708   2.774   4.044 -0.2121 -0.2543  0.0560
  478TIP3    H1 1440   3.784   2.743   3.996 -0.7745 -0.5561 -0.6595
  478TIP3    H2 1441   3.710   2.726   4.127 -0.7492 -1.8120 -0.7949
  479TIP3   OH2 1442   3.683   3.817   3.644 -0.2419 -0.5454  0.2195
  479TIP3    H1 1443   3.678   3.911   3.626  0.8207 -0.6441 -0.6922
  479TIP3    H2 1444   3.770   3.805   3.684 -0.1226 -1.2176 -0.2329
  480TIP3   OH2 1445   0.949   2.875   1.091 -0.6027 -0.4717  0.2445
  480TIP3    H1 1446   0.893   2.867   1.014 -2.2915 -0.7263  1.4161
  480TIP3    H2 1447   0.975   2.786   1.111 -0.6267 -0.4723  0.2742
  481TIP3   OH2 1448   1.191   0.493   3.876 -0.4102 -0.4936 -1.0291
  481TIP3    H1 1449   1.175   0.425   3.941 -0.3299 -0.3926 -0.9043
  481TIP3    H2 1450   1.175   0.449   3.792  1.1875 -1.1206 -1.0400
  482TIP3   OH2 1451   1.814   3.827   3.911  0.4466  0.5843 -0.2323
  482TIP3    H1 1452   1.873   3.772   3.961 -1.0112 -3.1969 -2.2551
  482TIP3    H2 1453   1.862   3.846   3.830 -0.2023 -0.6328 -0.9374
  483TIP3   OH2 1454   0.893   0.522   3.220 -0.6293  0.3604  0.2010
  483TIP3    H1 1455   0.864   0.590   3.160  0.6567 -0.1965 -1.0868
  483TIP3    H2 1456   0.984   0.504   3.196 -0.4144 -0.6499  1.5958
  484TIP3   OH2 1457   3.514   5.933   4.649  0.4861  0.3721 -0.1720
  484TIP3    H1 1458   3.476   5.979   4.574  0.4758  0.8898  0.1518
  484TIP3    H2 1459   3.530   6.001   4.714 -0.2240 -0.1809  0.5940
  485TIP3   OH2 1460   3.921   3.941   3.405 -0.4451  0.9297  0.2916
  485TIP3    H1 1461   3.860   4.015   3.399  0.0235  1.2811 -0.2498
  485TIP3    H2 1462   3.973   3.947   3.325  1.7543  1.9049  1.6849
  486TIP3   OH2 1463   4.789   0.942   0.078  0.3342  0.1072 -0.4958
  486TIP3    H1 1464   4.813   1.029   0.108 -0.0163 -0.2938  1.0491
  486TIP3    H2 1465   4.726   0.957   0.008 -1.6368  1.1540  1.3670
  487TIP3   OH2 1466   1.832   2.612   2.732  0.1061  0.2020 -0.3390
  487TIP3    H1 1467   1.925   2.607   2.711  0.2866 -0.1748  0.5041
  487TIP3    H2 1468   1.789   2.622   2.647  1.0896  3.3077 -0.5843
  488TIP3   OH2 1469   3.007   2.974   1.242 -0.0081 -0.6450  0.6486
  488TIP3    H1 1470   3.036   3.066   1.244 -0.2334 -0.4877 -1.5670
  488TIP3    H2 1471   3.089   2.924   1.234  0.0108 -0.5148 -0.0325
  489TIP3   OH2 1472   1.478   5.771   1.262 -0.4776  0.2166 -0.3812
  489TIP3    H1 1473   1.395   5.770   1.213 -1.2043 -0.3835  0.8145
  489TIP3    H2 1474   1.545   5.785   1.195 -1.4770 -0.0301 -1.4716
  490TIP3   OH2 1475   2.509   2.500   3.406 -0.0380 -0.4376  0.0401
  490TIP3    H1 1476   2.521   2.576   3.350  2.3346 -0.4010  0.4775
  490TIP3    H2 1477   2.470   2.535   3.486  0.3904  0.1949 -0.0251
  491TIP3   OH2 1478   5.818   2.943   4.803  0.2034  0.0341  0.5225
  491TIP3    H1 1479   5.906   2.919   4.832  0.3740  0.2294  0.1817
  491TIP3    H2 1480   5.770   2.861   4.797  0.9718 -0.3458 -1.2687
  492TIP3   OH2 1481   6.096   2.470   0.742 -0.1905 -0.3084  0.0873
  492TIP3    H1 1482   6.058   2.527   0.675 -0.8369 -0.3863  0.3735
  492TIP3    H2 1483   6.109   2.386   0.698 -0.0978 -0.1994 -0.0903
  493TIP3   OH2 1484   2.526   0.741   4.279 -0.4600 -0.3190  0.1501
  493TIP3    H1 1485   2.538   0.723   4.186 -0.0430 -1.7338  0.4604
  493TIP3    H2 1486   2.434   0.766   4.287 -0.1651  1.2265 -0.8271
  494TIP3   OH2 1487   3.407   3.800   0.317 -0.6300  0.0635 -0.2464
  494TIP3    H1 1488   3.360   3.717   0.308 -0.4333 -0.1175  0.3611
  494TIP3    H2 1489   3.403   3.821   0.410  2.6653 -1.2780  0.3446
  495TIP3   OH2 1490   0.322   5.038   2.777  0.1952 -0.1056 -0.2751
  495TIP3    H1 1491   0.229   5.026   2.795  0.3739 -0.5818  0.3829
  495TIP3    H2 1492   0.354   4.951   2.757  1.0350 -0.4435  2.2059
  496TIP3   OH2 1493   0.270   0.427   2.499  0.3735  0.3464  0.1660
  496TIP3    H1 1494   0.276   0.429   2.594 -0.3593  1.8473  0.2247
  496TIP3    H2 1495   0.228   0.510   2.477  0.4927  0.0018 -1.4663
  497TIP3   OH2 1496   1.944   4.865   2.907 -0.0111 -0.0889  0.0811
  497TIP3    H1 1497   2.020   4.820   2.943 -0.3372  0.3863  1.4263
  497TIP3    H2 1498   1.968   4.958   2.909  0.0892 -0.0692 -1.2792
  498TIP3   OH2 1499   1.797   4.219   2.938  0.3138 -0.3086  0.1746
  498TIP3    H1 1500   1.727   4.255   2.994 -0.9258 -2.2388 -0.0443
  498TIP3    H2 1501   1.868   4.201   2.999  0.9395  2.2278  0.3221
  499TIP3   OH2 1502   5.094   4.234   0.279 -0.6179 -0.1449  0.4205
  499TIP3    H1 1503   5.028   4.298   0.252 -1.1600 -0.1322  1.7130
  499TIP3    H2 1504   5.048   4.150   0.278 -0.2396 -0.3516 -0.0939
  500TIP3   OH2 1505   6.325   2.889   3.898 -0.0598  0.4076 -0.2934
  500TIP3    H1 1506   6.293   2.945   3.828  0.3610  0.6127 -0.3224
  500TIP3    H2 1507   6.247   2.870   3.950 -0.0655  1.7704  0.2454
  501TIP3   OH2 1508   2.486   5.171   3.308  0.4717  0.0901  0.0106
  501TIP3    H1 1509   2.513   5.257   3.275 -0.9057 -0.7395 -3.7967
  501TIP3    H2 1510   2.567   5.120   3.311  1.1375  1.1325  1.3074
  502TIP3   OH2 1511   5.887   3.492   4.953  0.0536  0.2118  0.5090
  502TIP3    H1 1512   5.962   3.542   4.986 -1.2049  1.7735  1.1429
  502TIP3    H2 1513   5.851   3.547   4.884  0.0111 -0.9599 -0.4280
  503TIP3   OH2 1514   1.906   2.508   0.971  0.2219 -0.1071  0.1391
  503TIP3    H1 1515   1.813   2.525   0.959  0.1078  0.2995  1.5210
  503TIP3    H2 1516   1.949   2.568   0.910 -0.4053 -0.7377 -0.9728
  504TIP3   OH2 1517   1.113   0.065   4.235 -0.3256  0.0075  0.2419
  504TIP3    H1 1518   1.151   0.082   4.322  1.5082  1.7919 -0.8240
  504TIP3    H2 1519   1.024   0.100   4.241 -0.1893  0.2178  1.3689
  505TIP3   OH2 1520   3.157   2.840   4.002  0.0487  0.6484  0.0014
  505TIP3    H1 1521   3.122   2.903   3.940 -0.5335  0.3801  0.0464
  505TIP3    H2 1522   3.249   2.833   3.980  0.3226  2.1650  0.5568
  506TIP3   OH2 1523   0.161   2.388   0.958 -0.1127 -0.7511 -0.3766
  506TIP3    H1 1524   0.081   2.375   1.009  0.9567 -1.3975  1.2476
  506TIP3    H2 1525   0.204   2.302   0.960  1.3443 -0.0350  0.1206
  507TIP3   OH2 1526   5.433   4.901   3.382  0.2375  0.7226 -0.0213
  507TIP3    H1 1527   5.457   4.905   3.475  1.1579 -0.6741 -0.1720
  507TIP3    H2 1528   5.338   4.891   3.383  0.3163 -0.1210  0.8165
  508TIP3   OH2 1529   2.933   2.867   2.001 -0.3245 -0.9124 -0.1571
  508TIP3    H1 1530   2.954   2.886   2.093 -0.3419 -2.8719  0.2975
  508TIP3    H2 1531   2.839   2.885   1.995  0.4141  4.2898 -1.2562
  509TIP3   OH2 1532   4.292   2.363   3.152 -0.1479 -0.0467 -0.2720
  509TIP3    H1 1533   4.371   2.410   3.179 -0.7679  1.0787 -0.3339
  509TIP3    H2 1534   4.277   2.300   3.222  0.1070  0.5938  0.3793
  510TIP3   OH2 1535   3.995   3.206   1.212 -0.1587 -0.3284  0.3076
  510TIP3    H1 1536   3.909   3.173   1.188  1.1098 -2.3087 -2.0031
  510TIP3    H2 1537   4.053   3.173   1.144  2.3372  1.5427  1.3756
  511TIP3   OH2 1538   0.916   4.425   3.697  0.0966 -0.3425 -0.6548
  511TIP3    H1 1539   0.852   4.435   3.768 -0.1732  0.3387 -0.9913
  511TIP3    H2 1540   0.989   4.380   3.738  0.0482  0.2699  0.1310
  512TIP3   OH2 1541   4.241   3.362   2.187  0.4438  0.1730 -0.1583
  512TIP3    H1 1542   4.180   3.291   2.165  0.0799  0.8223 -1.3131
  512TIP3    H2 1543   4.185   3.434   2.216  0.7695  0.2254  0.3444
  513TIP3   OH2 1544   3.968   5.054   3.253 -0.7152  0.1452  0.2759
  513TIP3    H1 1545   3.908   5.098   3.313 -0.2870 -1.0081  1.5791
  513TIP3    H2 1546   4.048   5.040   3.304 -0.8041 -2.0422 -0.1128
  514TIP3   OH2 1547   3.084   0.039   1.779 -0.5966 -0.4626 -0.6653
  514TIP3    H1 1548   3.099   0.100   1.706  2.4418  2.2112  1.8810
  514TIP3    H2 1549   3.003   0.069   1.819 -1.1658 -0.6053 -1.6683
  515TIP3   OH2 1550   6.244   2.458   4.932  0.0213 -0.5968 -0.0541
  515TIP3    H1 1551   6.173   2.518   4.957  2.3790  3.2776 -1.7865
  515TIP3    H2 1552   6.278   2.426   5.016 -1.8933 -0.3110  0.9041
  516TIP3   OH2 1553   4.344   0.056   1.421 -0.3811 -0.1571  0.0070
  516TIP3    H1 1554   4.343   0.084   1.329 -1.9274  0.4213  0.1806
  516TIP3    H2 1555   4.288   0.119   1.466  0.7509 -0.1272  1.4643
  517TIP3   OH2 1556   5.102   1.738   3.492  0.2618  0.4747  0.0996
  517TIP3    H1 1557   5.097   1.778   3.405  1.1036 -3.4366 -1.9846
  517TIP3    H2 1558   5.012   1.712   3.513  0.2402  0.2722 -0.2419
  518TIP3   OH2 1559   2.214   0.691   0.782  0.0092 -0.1012 -0.5266
  518TIP3    H1 1560   2.185   0.736   0.862  0.6113 -1.6598  0.6145
  518TIP3    H2 1561   2.150   0.622   0.769  0.3555 -0.3444 -0.9456
  519TIP3   OH2 1562   0.166   2.494   2.719  0.6470 -0.1611 -0.0286
  519TIP3    H1 1563   0.113   2.548   2.661  1.9248 -0.0046 -1.1177
  519TIP3    H2 1564   0.212   2.433   2.660  0.8830 -0.9744  0.9657
  520TIP3   OH2 1565   5.047   4.598   4.450 -0.1613  0.3903 -0.0439
  520TIP3    H1 1566   5.088   4.680   4.423 -2.1026  1.8032  1.0232
  520TIP3    H2 1567   5.111   4.557   4.508  0.5545  1.5103 -0.0035
  521TIP3   OH2 1568   2.323   1.816   3.948  0.1592  0.1323  0.6500
  521TIP3    H1 1569   2.277   1.787   4.026 -1.4955  0.1303 -0.2746
  521TIP3    H2 1570   2.357   1.902   3.971 -1.4390  0.7118  0.9820
  522TIP3   OH2 1571   5.189   4.082   2.085  0.0821 -0.0431 -0.3349
  522TIP3    H1 1572   5.244   4.159   2.099  0.6767 -0.4938 -0.1477
  522TIP3    H2 1573   5.249   4.008   2.092 -0.8069 -0.6655  1.6331
  523TIP3   OH2 1574   0.313   1.954   1.725 -0.2341 -0.2785  0.0703
  523TIP3    H1 1575   0.246   1.886   1.737 -0.4276 -0.3060 -1.0372
  523TIP3    H2 1576   0.389   1.907   1.692  0.5090 -0.3109  1.7360
  524TIP3   OH2 1577   4.508   0.267   1.729 -0.1956  0.0075  0.1432
  524TIP3    H1 1578   4.492   0.354   1.765 -0.5929  0.8780 -1.9669
  524TIP3    H2 1579   4.575   0.282   1.662  0.7084 -1.5600  0.6692
  525TIP3   OH2 1580   0.137   1.744   1.782 -0.9018  0.4444  0.2762
  525TIP3    H1 1581   0.048   1.775   1.770 -1.3155 -0.3550  1.1740
  525TIP3    H2 1582   0.132   1.684   1.857  0.5597  1.1647  0.9966
  526TIP3   OH2 1583   1.852   2.680   2.013 -0.1716 -0.2259  0.1034
  526TIP3    H1 1584   1.839   2.632   1.931  1.6580  0.3358 -0.5589
  526TIP3    H2 1585   1.790   2.752   2.009 -0.5213 -0.5510 -0.5017
  527TIP3   OH2 1586   4.151   2.798   2.650  0.4751 -0.0851  0.4290
  527TIP3    H1 1587   4.101   2.780   2.731 -0.0566  0.0606  0.1394
  527TIP3    H2 1588   4.090   2.847   2.595  0.6620 -0.6187 -0.2665
  528TIP3   OH2 1589   0.390   2.178   1.605  0.0853 -0.3516  0.2475
  528TIP3    H1 1590   0.471   2.167   1.655 -1.0831  0.9107  2.6073
  528TIP3    H2 1591   0.324   2.134   1.657 -1.4819  2.3747  0.7421
  529TIP3   OH2 1592   0.111   1.436   0.372 -0.0232 -0.1256  0.1049
  529TIP3    H1 1593   0.110   1.403   0.282 -1.9748 -1.4345  0.5508
  529TIP3    H2 1594   0.021   1.464   0.389  1.0347  3.6695  0.4930
  530TIP3   OH2 1595   1.467   5.489   2.958  0.3384 -0.4888  0.5052
  530TIP3    H1 1596   1.401   5.558   2.948  0.1398 -0.6407  0.7304
  530TIP3    H2 1597   1.548   5.527   2.924  0.0462 -0.4343 -0.1416
  531TIP3   OH2 1598   2.118   5.454   1.755 -0.4336  0.4484  0.4820
  531TIP3    H1 1599   2.143   5.545   1.767 -2.4929  1.0597  0.4777
  531TIP3    H2 1600   2.156   5.429   1.671  0.3738  1.1974  0.6152
  532TIP3   OH2 1601   5.863   1.093   3.979 -0.2007  0.0379 -0.6211
  532TIP3    H1 1602   5.920   1.037   3.926 -0.3541  0.0871 -0.8442
  532TIP3    H2 1603   5.816   1.032   4.036 -0.4557 -0.0778 -0.9470
  533TIP3   OH2 1604   2.126   4.936   4.996 -1.0384 -0.0755  0.4376
  533TIP3    H1 1605   2.191   5.006   4.990 -0.6434 -0.4499  0.3707
  533TIP3    H2 1606   2.071   4.947   4.918 -0.9070  0.0886  0.3687
  534TIP3   OH2 1607   1.874   5.524   4.560 -0.4240  0.1403  0.0012
  534TIP3    H1 1608   1.947   5.474   4.522 -0.1734 -0.1876  0.8731
  534TIP3    H2 1609   1.819   5.547   4.486 -0.9226 -2.0335 -0.3720
  535TIP3   OH2 1610   3.795   5.777   4.060 -0.2294  0.9466  0.2472
  535TIP3    H1 1611   3.739   5.844   4.099 -0.2400  1.7011 -1.0248
  535TIP3    H2 1612   3.751   5.694   4.082 -0.6229  1.3889  1.1752
  536TIP3   OH2 1613   5.502   3.030   2.100 -0.2049  0.0305  0.0097
  536TIP3    H1 1614   5.563   3.081   2.047 -0.2035 -0.1823 -0.1900
  536TIP3    H2 1615   5.558   2.967   2.146 -0.3678 -0.7483 -0.8370
  537TIP3   OH2 1616   1.220   0.279   3.284  0.5231 -0.1776  0.0152
  537TIP3    H1 1617   1.247   0.337   3.213  2.7600 -1.7575 -0.5370
  537TIP3    H2 1618   1.254   0.320   3.364  1.1117 -0.1589 -0.2409
  538TIP3   OH2 1619   5.837   0.376   0.150  0.4839 -0.1406  0.0402
  538TIP3    H1 1620   5.876   0.288   0.149 -0.0342 -0.3821  0.6795
  538TIP3    H2 1621   5.837   0.403   0.058 -0.1994 -1.1908 -0.2900
  539TIP3   OH2 1622   6.250   4.876   0.434 -0.4629 -0.0962 -0.7458
  539TIP3    H1 1623   6.167   4.901   0.475 -0.2476  0.0205 -0.3847
  539TIP3    H2 1624   6.226   4.853   0.344 -0.7036  1.2413 -1.0477
  540TIP3   OH2 1625   4.114   3.346   3.434 -0.4761  0.2184  0.2829
  540TIP3    H1 1626   4.122   3.299   3.351  0.2583 -1.2672  1.1672
  540TIP3    H2 1627   4.101   3.438   3.408 -1.6089 -0.3951 -1.4801
  541TIP3   OH2 1628   4.616   5.592   1.199  0.3364  0.6330  0.2593
  541TIP3    H1 1629   4.562   5.543   1.261  1.6345 -0.2991  0.7009
  541TIP3    H2 1630   4.572   5.581   1.115 -0.4146  0.2979  0.6836
  542TIP3   OH2 1631   4.225   5.921   2.241 -0.4021  0.5229 -0.9122
  542TIP3    H1 1632   4.278   5.862   2.294  0.5616  1.2796 -1.0119
  542TIP3    H2 1633   4.261   6.008   2.257 -0.8106  0.9034 -1.9446
  543TIP3   OH2 1634   5.438   1.830   3.208 -0.4829 -0.0517 -0.2771
  543TIP3    H1 1635   5.454   1.840   3.114  1.8797  1.1366  0.1771
  543TIP3    H2 1636   5.430   1.919   3.241  0.0290 -0.3998  0.8336
  544TIP3   OH2 1637   1.466   2.471   4.582 -0.4806 -0.8851 -0.0152
  544TIP3    H1 1638   1.394   2.533   4.571 -0.2903 -0.9344 -2.0878
  544TIP3    H2 1639   1.486   2.473   4.675  0.0017  2.7341 -0.0355
  545TIP3   OH2 1640   5.316   1.214   0.142  0.4357  0.1007  0.4993
  545TIP3    H1 1641   5.313   1.164   0.061 -0.6734 -0.4953  0.8883
  545TIP3    H2 1642   5.249   1.282   0.130  0.5144  0.2293  0.7847
  546TIP3   OH2 1643   2.972   3.352   3.189  0.5914 -0.3982 -0.0438
  546TIP3    H1 1644   2.981   3.256   3.190 -0.6269 -0.5190  0.6912
  546TIP3    H2 1645   2.884   3.368   3.156  0.8685  0.4852 -0.3799
  547TIP3   OH2 1646   4.940   2.296   3.314 -0.0860  0.1153 -0.0143
  547TIP3    H1 1647   4.889   2.366   3.355  0.0816 -0.4628  1.2176
  547TIP3    H2 1648   4.911   2.216   3.357 -0.6287 -0.6702 -1.7531
  548TIP3   OH2 1649   0.285   5.737   4.549 -0.3636  0.2123 -0.1600
  548TIP3    H1 1650   0.209   5.696   4.591 -0.0641 -1.2242 -0.9441
  548TIP3    H2 1651   0.254   5.824   4.525 -0.9164  0.6514  1.8915
  549TIP3   OH2 1652   0.898   2.568   0.403 -0.1550  0.2546 -0.3052
  549TIP3    H1 1653   0.818   2.566   0.350 -0.0981 -0.4080 -0.3720
  549TIP3    H2 1654   0.969   2.564   0.339 -0.0812 -2.4064 -0.1665
  550TIP3   OH2 1655   2.561   0.546   0.490  0.0933 -0.6366  0.5467
  550TIP3    H1 1656   2.545   0.463   0.445 -0.4865 -0.6153  0.7076
  550TIP3    H2 1657   2.627   0.589   0.437 -0.6793 -0.5540 -0.3830
  551TIP3   OH2 1658   3.651   2.135   4.278 -0.1837 -0.0026 -0.2775
  551TIP3    H1 1659   3.614   2.092   4.355  0.5112  0.5459  0.3801
  551TIP3    H2 1660   3.678   2.221   4.309 -0.7092  0.5733 -1.3546
  552TIP3   OH2 1661   0.267   4.447   1.607  0.1831 -0.0998 -0.2872
  552TIP3    H1 1662   0.341   4.390   1.628 -0.6328 -0.6150  1.3754
  552TIP3    H2 1663   0.236   4.480   1.692  0.3649  2.5432 -1.1431
  553TIP3   OH2 1664   3.740   2.472   1.360 -0.0130  0.2319  0.1032
  553TIP3    H1 1665   3.724   2.566   1.351  2.6560  0.6888 -1.0604
  553TIP3    H2 1666   3.833   2.467   1.385 -0.2236 -2.0976  0.5885
  554TIP3   OH2 1667   2.198   3.038   4.401 -0.5126  0.1690  0.5009
  554TIP3    H1 1668   2.173   2.991   4.322 -0.5851 -0.8270  1.0915
  554TIP3    H2 1669   2.165   2.983   4.473  1.9299 -0.3926  1.2880
  555TIP3   OH2 1670   4.217   4.989   4.666 -0.1737  0.4044  0.2810
  555TIP3    H1 1671   4.179   4.904   4.689  1.6962 -0.1087  1.7185
  555TIP3    H2 1672   4.263   4.973   4.584 -1.0475  0.4552 -0.2421
  556TIP3   OH2 1673   3.317   3.330   3.003 -0.6977 -0.0435 -0.1672
  556TIP3    H1 1674   3.256   3.305   2.934 -0.4917  0.7957 -0.6616
  556TIP3    H2 1675   3.302   3.266   3.073  1.2999 -2.9721 -2.1841
  557TIP3   OH2 1676   0.839   5.454   1.241  0.4710 -0.4831  0.0777
  557TIP3    H1 1677   0.746   5.470   1.225  0.5525  0.7012  0.7054
  557TIP3    H2 1678   0.847   5.358   1.240 -1.0761 -0.6868  1.7013
  558TIP3   OH2 1679   5.104   5.860   2.816  0.3427  0.6539  0.4696
  558TIP3    H1 1680   5.045   5.819   2.752  0.7004  0.3406  0.3387
  558TIP3    H2 1681   5.143   5.933   2.768 -1.2188  1.9361  1.0701
  559TIP3   OH2 1682   5.794   3.216   2.140 -0.1988 -0.3252  0.4540
  559TIP3    H1 1683   5.748   3.220   2.057 -2.1438 -0.7498  1.4518
  559TIP3    H2 1684   5.728   3.239   2.206  0.9117 -1.3071  1.9963
  560TIP3   OH2 1685   0.022   1.978   2.171 -0.2267 -0.3450 -0.3880
  560TIP3    H1 1686   0.071   2.059   2.159 -0.3799 -0.1577  0.2245
  560TIP3    H2 1687  -0.043   1.979   2.100 -0.2942  0.1185 -0.3265
  561TIP3   OH2 1688   0.559   1.202   1.315 -0.2648 -0.2791  0.2972
  561TIP3    H1 1689   0.628   1.263   1.291 -0.6146 -0.3151 -0.8857
  561TIP3    H2 1690   0.496   1.208   1.243  0.1937 -2.7712 -0.4308
  562TIP3   OH2 1691   5.703   0.877   3.736 -0.4254 -0.0644 -0.3402
  562TIP3    H1 1692   5.755   0.953   3.765  0.2153 -0.0535 -1.4782
  562TIP3    H2 1693   5.731   0.806   3.794  1.6755 -0.3242 -1.5690
  563TIP3   OH2 1694   5.322   2.711   1.006 -0.0295  0.2015 -0.0336
  563TIP3    H1 1695   5.281   2.649   1.066  0.9819  0.5646  1.0724
  563TIP3    H2 1696   5.416   2.700   1.021  0.2652  0.1102 -1.7706
  564TIP3   OH2 1697   2.478   2.743   3.291  0.2539 -0.2425  0.2928
  564TIP3    H1 1698   2.527   2.746   3.209  0.7067 -0.1913  0.5674
  564TIP3    H2 1699   2.516   2.811   3.345  1.2277 -1.5025  1.2517
  565TIP3   OH2 1700   0.683   3.774   2.454 -0.1712 -0.0295 -0.6879
  565TIP3    H1 1701   0.723   3.730   2.379  1.9069  0.7410 -0.1024
  565TIP3    H2 1702   0.724   3.860   2.456 -0.5156  0.1294  1.0779
  566TIP3   OH2 1703   4.624   0.694   2.429 -0.0532  0.0137  0.0597
  566TIP3    H1 1704   4.619   0.644   2.510 -0.8986 -0.1300 -0.0685
  566TIP3    H2 1705   4.647   0.783   2.456 -1.6294  0.2866  0.5982
  567TIP3   OH2 1706   3.755   0.659   5.125  0.1599 -0.0522  0.3424
  567TIP3    H1 1707   3.664   0.630   5.115  0.3424 -0.4514 -0.1706
  567TIP3    H2 1708   3.755   0.709   5.207 -1.0376  2.0078 -0.8305
  568TIP3   OH2 1709   4.857   3.211   4.653  0.9975  0.0824  0.0707
  568TIP3    H1 1710   4.912   3.147   4.608  2.2770  0.8752  0.4556
  568TIP3    H2 1711   4.798   3.244   4.586  1.2479 -0.5062 -0.4506
  569TIP3   OH2 1712   1.499   4.527   2.860 -0.4457 -0.1159 -0.3730
  569TIP3    H1 1713   1.501   4.620   2.882 -0.3248 -0.2063  0.0012
  569TIP3    H2 1714   1.451   4.486   2.931  0.3093 -0.4670 -0.0530
  570TIP3   OH2 1715   1.127   5.883   3.892 -0.4454 -0.0438 -0.6301
  570TIP3    H1 1716   1.145   5.940   3.817  0.3718  0.5957  0.0295
  570TIP3    H2 1717   1.126   5.942   3.968  1.5721 -1.0007  0.2383
  571TIP3   OH2 1718   4.615   1.846   2.836 -0.3949  0.2573  0.2544
  571TIP3    H1 1719   4.596   1.838   2.743 -0.2105 -2.3736  0.3723
  571TIP3    H2 1720   4.552   1.910   2.868 -0.2289  1.4702 -1.7111
  572TIP3   OH2 1721   2.681   2.966   1.958  0.1883 -0.5058 -0.0987
  572TIP3    H1 1722   2.624   3.002   1.890  0.4091 -1.1953 -0.6604
  572TIP3    H2 1723   2.710   3.042   2.008  1.5176  0.2442 -1.9167
  573TIP3   OH2 1724   4.881   4.917   0.657 -0.9887 -0.1290  0.2856
  573TIP3    H1 1725   4.806   4.857   0.661 -1.3438  0.3685  1.3259
  573TIP3    H2 1726   4.878   4.953   0.568 -0.5055 -1.9514 -0.5203
  574TIP3   OH2 1727   2.809   1.289   3.134 -0.0034  0.1343  0.3701
  574TIP3    H1 1728   2.761   1.277   3.051 -2.2817 -0.3767  1.6645
  574TIP3    H2 1729   2.754   1.350   3.184  1.8695  1.2643  1.1309
  575TIP3   OH2 1730   5.819   1.142   2.674  0.6969 -0.4901  0.7108
  575TIP3    H1 1731   5.741   1.088   2.668  0.7158 -0.3980 -0.8358
  575TIP3    H2 1732   5.797   1.211   2.736 -0.0355 -1.1043  1.1483
  576TIP3   OH2 1733   5.990   2.222   1.917 -0.2921 -0.1654 -0.2265
  576TIP3    H1 1734   5.926   2.234   1.988 -1.2764 -1.3550 -0.8776
  576TIP3    H2 1735   5.960   2.280   1.847  2.5799  3.7376  1.3791
  577TIP3   OH2 1736   1.538   3.860   0.675 -0.4917 -0.2372 -0.2637
  577TIP3    H1 1737   1.568   3.947   0.699 -2.1293  0.3757 -0.2694
  577TIP3    H2 1738   1.618   3.807   0.668  0.5390  1.2850 -0.3986
  578TIP3   OH2 1739   2.444   0.266   4.141  0.4628 -0.3714  0.2018
  578TIP3    H1 1740   2.439   0.351   4.098 -2.7566  0.5934  2.1923
  578TIP3    H2 1741   2.516   0.276   4.204 -0.9849  1.6254  1.6784
  579TIP3   OH2 1742   2.309   5.049   1.501 -0.0177  0.0610 -0.4941
  579TIP3    H1 1743   2.323   4.968   1.453  0.1494 -0.1101 -0.1519
  579TIP3    H2 1744   2.390   5.099   1.489  0.6213 -0.6152  0.8609
  580TIP3   OH2 1745   4.540   3.643   4.728  0.4937 -0.3420  0.0977
  580TIP3    H1 1746   4.526   3.737   4.728  0.3440 -0.3447 -1.1245
  580TIP3    H2 1747   4.464   3.607   4.682  1.3955 -0.8898 -1.0244
  581TIP3   OH2 1748   3.076   1.978   0.420  0.4513 -0.7762 -0.3818
  581TIP3    H1 1749   3.022   1.969   0.498  0.4639 -0.5827 -0.3504
  581TIP3    H2 1750   3.061   2.068   0.390 -1.0424 -1.4037 -1.6964
  582TIP3   OH2 1751   2.068   2.295   0.963 -0.2158  0.1216  0.0143
  582TIP3    H1 1752   2.155   2.329   0.987 -0.6331  0.1074  1.7429
  582TIP3    H2 1753   2.009   2.369   0.980 -0.7004 -0.3244  0.2840
  583TIP3   OH2 1754   2.174   0.818   5.187 -0.4888 -0.3082 -0.1283
  583TIP3    H1 1755   2.155   0.728   5.159  1.5913 -0.8063 -0.0850
  583TIP3    H2 1756   2.114   0.872   5.135 -1.7388 -1.6855 -0.1990
  584TIP3   OH2 1757   5.819   5.095   2.521 -0.3370  0.6056 -0.1477
  584TIP3    H1 1758   5.766   5.025   2.484  0.1997 -0.4626  1.0244
  584TIP3    H2 1759   5.783   5.175   2.483 -1.2164 -0.2670 -1.2228
  585TIP3   OH2 1760   0.978   4.705   4.380 -0.3494 -0.3979  0.2330
  585TIP3    H1 1761   1.011   4.753   4.456 -0.7515 -0.9479  0.7630
  585TIP3    H2 1762   0.980   4.768   4.309  1.5961 -0.3320  0.3017
  586TIP3   OH2 1763   6.105   3.929   2.304 -0.2986  0.5001 -0.8242
  586TIP3    H1 1764   6.067   3.892   2.224  0.0538 -2.4732  0.2479
  586TIP3    H2 1765   6.160   3.859   2.339  0.7557  2.2434  1.2639
  587TIP3   OH2 1766   0.581   1.123   1.824  0.1694 -0.0147  0.9016
  587TIP3    H1 1767   0.606   1.078   1.743 -2.8647 -0.0653 -0.1555
  587TIP3    H2 1768   0.604   1.062   1.893  0.7582 -0.9907 -0.1184
  588TIP3   OH2 1769   5.275   2.016   2.140 -0.4643  0.0760  0.1822
  588TIP3    H1 1770   5.231   2.092   2.178  0.0162  1.0448 -1.1251
  588TIP3    H2 1771   5.336   1.987   2.208 -0.4851  1.0080  0.6136
  589TIP3   OH2 1772   2.484   4.365   4.099  0.3228 -0.0038 -0.5072
  589TIP3    H1 1773   2.490   4.387   4.006  1.4424 -1.0572 -0.7144
  589TIP3    H2 1774   2.551   4.297   4.112 -2.1242 -2.4868  0.2962
  590TIP3   OH2 1775  -0.025   3.944   3.526 -0.0118 -0.0354  0.3943
  590TIP3    H1 1776  -0.022   3.971   3.618  1.5971  0.2326  0.2837
  590TIP3    H2 1777   0.053   3.982   3.487 -0.5300 -0.3755 -1.0424
  591TIP3   OH2 1778   5.454   4.192   2.995 -0.0777 -0.4241 -0.3339
  591TIP3    H1 1779   5.534   4.180   3.045  1.4357  0.3688 -2.4115
  591TIP3    H2 1780   5.389   4.138   3.040  1.2388 -0.0586  2.1808
  592TIP3   OH2 1781   3.969   1.089   3.102  0.0572 -0.4331 -0.1658
  592TIP3    H1 1782   4.008   1.032   3.035 -0.1016  0.5028 -1.0763
  592TIP3    H2 1783   3.964   1.033   3.180  0.8765 -1.3418 -0.7294
  593TIP3   OH2 1784   2.422   1.560   3.820  0.5171  0.6812  0.4932
  593TIP3    H1 1785   2.436   1.499   3.892 -1.7510  0.5738  0.9123
  593TIP3    H2 1786   2.495   1.543   3.760  0.2950 -2.0222  0.8739
  594TIP3   OH2 1787   4.327   0.432   1.167 -0.4513 -0.1538 -0.4191
  594TIP3    H1 1788   4.240   0.426   1.128 -0.0112 -0.6003 -1.3870
  594TIP3    H2 1789   4.368   0.507   1.124  0.5771 -1.5454 -2.0071
  595TIP3   OH2 1790   5.919   3.176   0.976 -0.2416  0.2593  0.5318
  595TIP3    H1 1791   5.910   3.251   1.034 -0.6279 -0.2326  1.1239
  595TIP3    H2 1792   5.834   3.167   0.933 -0.5269 -0.4369  1.2176
  596TIP3   OH2 1793   0.121   4.515   1.379 -0.1476 -0.3488  1.0349
  596TIP3    H1 1794   0.173   4.475   1.448  1.6567  0.5570  0.2702
  596TIP3    H2 1795   0.129   4.609   1.394  0.3220 -0.1293 -0.4001
  597TIP3   OH2 1796   5.025   2.406   0.355  0.1369  0.0642  0.0561
  597TIP3    H1 1797   5.032   2.337   0.421 -1.6822 -0.7800 -0.5912
  597TIP3    H2 1798   4.931   2.420   0.344  0.3935  0.2708 -2.2551
  598TIP3   OH2 1799   0.974   3.572   0.774  0.6671  0.5113  0.4849
  598TIP3    H1 1800   0.908   3.504   0.787  1.6464 -0.4619  0.4232
  598TIP3    H2 1801   1.037   3.559   0.844  2.7999 -0.9876 -1.5719
  599TIP3   OH2 1802   5.512   0.879   2.030  0.5597 -0.0951  0.4094
  599TIP3    H1 1803   5.417   0.881   2.017  0.5943 -0.0458  0.1589
  599TIP3    H2 1804   5.528   0.793   2.071  0.2476  0.4878  1.8105
  600TIP3   OH2 1805   0.527   1.180   0.267  0.4976  0.1632  0.1163
  600TIP3    H1 1806   0.440   1.141   0.277  0.5386  0.3644  1.3732
  600TIP3    H2 1807   0.579   1.113   0.224  0.0398 -0.4099  0.4437
  601TIP3   OH2 1808   2.688   2.076   3.228 -0.9944  0.3339  0.5298
  601TIP3    H1 1809   2.604   2.031   3.241 -1.6498  1.4982  0.5092
  601TIP3    H2 1810   2.665   2.169   3.228  0.0281  0.6329 -1.4442
  602TIP3   OH2 1811   4.134   4.107   1.171 -0.1009  0.1971  0.1793
  602TIP3    H1 1812   4.168   4.196   1.182  0.5321 -0.1090  0.7407
  602TIP3    H2 1813   4.048   4.109   1.214  1.1671 -0.2320  2.9413
  603TIP3   OH2 1814   2.658   2.590   4.631 -0.0226 -0.4607 -0.3055
  603TIP3    H1 1815   2.647   2.599   4.726  1.3595  0.6200 -0.2072
  603TIP3    H2 1816   2.737   2.641   4.611 -0.5343 -0.2942 -2.1012
  604TIP3   OH2 1817   1.262   3.426   4.580  0.2250  0.2655  0.3219
  604TIP3    H1 1818   1.266   3.467   4.666  0.0596 -0.8030  0.8649
  604TIP3    H2 1819   1.170   3.400   4.569 -0.5899  3.4936 -1.7339
  605TIP3   OH2 1820   4.908   1.194   0.943 -0.2074  0.2934  0.5600
  605TIP3    H1 1821   4.970   1.139   0.990  0.2367  0.8460  0.6316
  605TIP3    H2 1822   4.948   1.209   0.857 -1.3046 -1.2485 -0.2945
  606TIP3   OH2 1823   5.515   0.818   1.466 -0.0547 -0.1184  0.3304
  606TIP3    H1 1824   5.504   0.724   1.481  0.2663 -0.3198 -0.6499
  606TIP3    H2 1825   5.478   0.859   1.544  0.0247 -1.0651  0.8784
  607TIP3   OH2 1826   0.532   5.695   1.846 -0.3002 -0.3671  0.4597
  607TIP3    H1 1827   0.557   5.638   1.773  0.7859  0.4774  0.1399
  607TIP3    H2 1828   0.535   5.638   1.923  1.7460 -0.5666  0.2945
  608TIP3   OH2 1829   4.029   2.831   2.208 -0.0990 -0.5939 -0.1832
  608TIP3    H1 1830   3.977   2.801   2.283 -1.1772 -0.4405 -0.8437
  608TIP3    H2 1831   4.050   2.922   2.228  0.1275 -0.7226  0.1896
  609TIP3   OH2 1832   1.415   5.995   0.094 -1.1470  0.1581  0.0059
  609TIP3    H1 1833   1.419   5.900   0.105 -0.6027  0.3623  2.0297
  609TIP3    H2 1834   1.461   6.012   0.012 -2.2536 -1.3833 -0.9858
  610TIP3   OH2 1835   5.255   4.991   1.530  0.1244 -0.1061 -0.5864
  610TIP3    H1 1836   5.227   4.940   1.606 -2.0359  1.6707 -0.0841
  610TIP3    H2 1837   5.228   4.940   1.454 -0.0373 -0.6903 -0.1411
  611TIP3   OH2 1838   5.266   1.498   3.833 -0.3826  0.1516 -0.4653
  611TIP3    H1 1839   5.271   1.587   3.797  0.6907  0.8050  1.1968
  611TIP3    H2 1840   5.343   1.454   3.798  0.4375  0.6629  0.6303
  612TIP3   OH2 1841   4.472   3.144   5.148  0.4830  0.0686  0.0228
  612TIP3    H1 1842   4.509   3.122   5.062  0.7727  1.7818 -0.3275
  612TIP3    H2 1843   4.506   3.076   5.207  1.9656  0.0457 -0.8171
  613TIP3   OH2 1844   2.079   5.763   1.975 -0.2224 -0.7665 -0.0458
  613TIP3    H1 1845   2.130   5.743   1.896  0.9164 -1.0250  0.7277
  613TIP3    H2 1846   2.134   5.823   2.025 -0.3845 -1.5539  1.1179
  614TIP3   OH2 1847   4.094   3.738   4.272  0.3165 -0.1476  0.4105
  614TIP3    H1 1848   4.161   3.689   4.223  1.1698 -0.3107  1.6880
  614TIP3    H2 1849   4.127   3.827   4.275 -0.3028  0.1135 -0.2795
  615TIP3   OH2 1850   0.512   0.060   0.965  0.3813 -0.1119 -0.1625
  615TIP3    H1 1851   0.581   0.033   1.026  2.1979  1.1965 -1.5063
  615TIP3    H2 1852   0.528   0.153   0.951 -1.0652  0.0027 -1.3084
  616TIP3   OH2 1853   2.729   5.314   0.768 -0.1030 -0.0928  0.4599
  616TIP3    H1 1854   2.791   5.291   0.698 -0.6192 -0.8602  0.2419
  616TIP3    H2 1855   2.728   5.237   0.825 -1.6853 -0.5500 -0.1407
  617TIP3   OH2 1856   1.681   5.042   4.680 -0.4919  0.3034  0.5223
  617TIP3    H1 1857   1.625   5.045   4.758 -0.2596 -1.2890  0.7959
  617TIP3    H2 1858   1.721   5.129   4.675 -2.5221  1.2973  0.6440
  618TIP3   OH2 1859   5.130   0.158   1.212  0.1345 -0.8860  0.1590
  618TIP3    H1 1860   5.091   0.167   1.299  0.4368  0.1169  0.2020
  618TIP3    H2 1861   5.211   0.209   1.216 -1.8259  2.8189 -1.9071
  619TIP3   OH2 1862   3.608   4.283   0.035 -0.1512  0.6878  0.7384
  619TIP3    H1 1863   3.696   4.291   0.073  1.2743 -0.1160 -2.1157
  619TIP3    H2 1864   3.559   4.232   0.100  2.3558 -1.3542  1.2001
  620TIP3   OH2 1865   3.837   2.379   1.782  0.1764  0.0247  0.1445
  620TIP3    H1 1866   3.862   2.437   1.854  2.1288 -0.1689 -0.3127
  620TIP3    H2 1867   3.863   2.427   1.703 -0.4047 -0.4674 -0.3486
  621TIP3   OH2 1868   3.334   2.111   0.839  0.2905  0.4554  0.8770
  621TIP3    H1 1869   3.315   2.050   0.910 -1.2030  1.6501  1.5465
  621TIP3    H2 1870   3.308   2.196   0.873 -0.8482  1.0062 -1.2271
  622TIP3   OH2 1871   1.270   4.272   1.463  0.1130  0.0919 -0.3585
  622TIP3    H1 1872   1.325   4.347   1.487  0.8479 -0.1898 -1.1194
  622TIP3    H2 1873   1.180   4.303   1.477  0.3202  1.6671 -2.1201
  623TIP3   OH2 1874   2.698   5.170   5.105  0.8323  0.4678  1.2420
  623TIP3    H1 1875   2.694   5.181   5.200  0.4835  2.0838  1.0813
  623TIP3    H2 1876   2.646   5.091   5.087  0.4549  0.4498  2.3555
  624TIP3   OH2 1877   3.687   1.441   2.177  0.0368  0.0170  0.0338
  624TIP3    H1 1878   3.598   1.430   2.212  0.7571  0.0195  2.0272
  624TIP3    H2 1879   3.713   1.529   2.204  1.3636 -0.7234  1.3893
  625TIP3   OH2 1880   3.115   1.460   2.147  0.1720 -0.2502  0.3942
  625TIP3    H1 1881   3.036   1.452   2.200  1.1298 -0.6741  1.8161
  625TIP3    H2 1882   3.095   1.413   2.066 -0.2396 -2.4532  1.6906
  626TIP3   OH2 1883   0.098   3.357   3.213  0.3179 -0.6070  0.0030
  626TIP3    H1 1884   0.008   3.369   3.184  0.6377  0.0492 -0.7826
  626TIP3    H2 1885   0.101   3.396   3.300  0.1919  0.8209 -0.5979
  627TIP3   OH2 1886   4.304   5.536   2.007 -0.2836 -0.1690 -0.5072
  627TIP3    H1 1887   4.331   5.595   2.078 -2.0692 -1.3575  1.2621
  627TIP3    H2 1888   4.330   5.449   2.036  0.9831 -0.4996 -2.4146
  628TIP3   OH2 1889   3.958   5.483   2.930  0.2020 -0.5622 -0.1890
  628TIP3    H1 1890   3.958   5.442   2.843  2.3919 -2.0229  0.4219
  628TIP3    H2 1891   3.866   5.484   2.956 -0.2533 -2.3089 -1.5581
  629TIP3   OH2 1892   4.701   0.346   1.528  0.3647 -0.1837 -0.2676
  629TIP3    H1 1893   4.768   0.407   1.560  0.6209 -0.0407 -1.0468
  629TIP3    H2 1894   4.640   0.402   1.480 -1.0247 -0.1284  1.4774
  630TIP3   OH2 1895   0.230   4.818   0.773  0.3208 -0.0017  0.6414
  630TIP3    H1 1896   0.137   4.837   0.766  0.6841  1.7612  0.0663
  630TIP3    H2 1897   0.273   4.904   0.766  1.9611 -0.7048  1.4153
  631TIP3   OH2 1898   2.287   3.353   2.358 -0.4903 -0.0278 -0.6348
  631TIP3    H1 1899   2.228   3.419   2.322  0.4440  1.6722  0.8016
  631TIP3    H2 1900   2.230   3.294   2.407 -1.1330  0.9967 -0.1108
  632TIP3   OH2 1901   3.501   3.042   0.516 -0.0533 -0.3025 -0.4769
  632TIP3    H1 1902   3.563   3.112   0.495 -0.3057  0.0902  0.0721
  632TIP3    H2 1903   3.443   3.080   0.581 -0.9186 -0.6486 -1.0274
  633TIP3   OH2 1904   5.629   1.315   3.755  0.1022 -0.0353 -0.2452
  633TIP3    H1 1905   5.722   1.333   3.768  0.4319  0.3493 -2.6122
  633TIP3    H2 1906   5.628   1.246   3.689 -1.3004 -0.5933  0.3342
  634TIP3   OH2 1907   5.311   4.648   1.504  0.2063 -0.1740 -0.4734
  634TIP3    H1 1908   5.294   4.554   1.499 -1.5459  0.0512  0.3973
  634TIP3    H2 1909   5.285   4.673   1.593  0.8225  1.0958 -0.6246
  635TIP3   OH2 1910   2.000   5.329   3.237  0.0423  1.1030  0.1935
  635TIP3    H1 1911   1.966   5.403   3.186  0.5545 -0.0664 -1.9709
  635TIP3    H2 1912   2.091   5.352   3.255  0.2906  0.9121 -0.7405
  636TIP3   OH2 1913   4.028   5.372   4.600 -0.3108  0.1489  0.0788
  636TIP3    H1 1914   4.005   5.461   4.625  0.5168  0.3015  0.3227
  636TIP3    H2 1915   4.118   5.378   4.569 -0.2620 -0.5998  0.0515
  637TIP3   OH2 1916   1.952   3.537   4.868  0.1436  0.7574  0.0960
  637TIP3    H1 1917   1.987   3.491   4.945 -2.9135 -0.5691  0.8724
  637TIP3    H2 1918   1.952   3.629   4.893  1.7293  0.6683  0.5425
  638TIP3   OH2 1919   2.001   0.856   4.882 -0.2038  0.0808  0.0810
  638TIP3    H1 1920   1.983   0.916   4.810  0.4138  0.2774  0.0849
  638TIP3    H2 1921   2.040   0.779   4.840 -0.1797  0.0471  0.1644
  639TIP3   OH2 1922   0.648   4.103   1.383 -0.2427 -0.3813  0.0798
  639TIP3    H1 1923   0.688   4.187   1.401 -0.5231  0.2329 -1.9148
  639TIP3    H2 1924   0.623   4.107   1.290  0.7661 -3.0708 -0.4232
  640TIP3   OH2 1925   4.495   3.768   0.187  0.6643 -0.0742  0.2206
  640TIP3    H1 1926   4.410   3.775   0.144  0.7680 -3.8363 -0.9729
  640TIP3    H2 1927   4.537   3.693   0.144  2.8412 -1.0015  3.5792
  641TIP3   OH2 1928   3.211   2.179   1.711 -0.1752  1.4589 -0.1648
  641TIP3    H1 1929   3.125   2.210   1.740 -0.6763  1.6195 -1.7606
  641TIP3    H2 1930   3.192   2.117   1.641  0.9480 -0.2108  0.9271
  642TIP3   OH2 1931   5.851   0.631   3.617 -0.5747  0.4369  0.1531
  642TIP3    H1 1932   5.875   0.711   3.569  0.5061  0.1959  0.2633
  642TIP3    H2 1933   5.882   0.646   3.706 -0.8619  0.1098  0.3091
  643TIP3   OH2 1934   1.795   4.313   0.829  0.2140  0.1715  0.2896
  643TIP3    H1 1935   1.853   4.376   0.871  0.8515 -0.5766  0.5516
  643TIP3    H2 1936   1.734   4.287   0.899 -0.9484  1.5320 -0.1859
  644TIP3   OH2 1937   4.443   3.431   1.154  0.0408 -0.4478  0.1630
  644TIP3    H1 1938   4.422   3.349   1.108 -0.2599 -1.6749  2.3718
  644TIP3    H2 1939   4.532   3.452   1.125 -0.4776 -0.6304 -1.6817
  645TIP3   OH2 1940   3.416   3.043   0.791  0.6760 -0.2745 -0.1463
  645TIP3    H1 1941   3.478   3.046   0.863 -0.1833  2.8902  0.5896
  645TIP3    H2 1942   3.396   2.950   0.780  0.9006 -0.9001  3.6241
  646TIP3   OH2 1943   3.889   2.508   3.327 -0.2530  0.2050 -0.1592
  646TIP3    H1 1944   3.869   2.535   3.238 -2.2443 -0.1505  0.1415
  646TIP3    H2 1945   3.850   2.576   3.382  0.6078  0.2120  0.4591
  647TIP3   OH2 1946   4.637   2.248   4.609 -0.1865  0.6554 -0.1939
  647TIP3    H1 1947   4.579   2.194   4.664  1.1811 -0.7011 -0.0129
  647TIP3    H2 1948   4.603   2.235   4.520 -0.3927  0.1581 -0.0487
  648TIP3   OH2 1949   3.572   2.886   2.743 -0.4145 -0.0586  0.3998
  648TIP3    H1 1950   3.630   2.951   2.704  0.2000 -0.6700  0.2903
  648TIP3    H2 1951   3.591   2.890   2.836  0.2340 -0.6729  0.2992
  649TIP3   OH2 1952   6.077   2.760   4.011 -0.0517 -0.4945 -0.0896
  649TIP3    H1 1953   6.082   2.810   4.093 -0.9448 -0.5425  0.0020
  649TIP3    H2 1954   6.126   2.679   4.030 -3.7341 -2.5250  1.9143
  650TIP3   OH2 1955   3.649   5.618   5.104  0.0820 -0.2414 -0.7158
  650TIP3    H1 1956   3.722   5.577   5.057 -0.1492  0.6863 -1.9183
  650TIP3    H2 1957   3.586   5.641   5.036 -0.1169  1.4317 -0.0117
  651TIP3   OH2 1958   4.615   5.240   4.761  0.6486 -0.6365  0.2658
  651TIP3    H1 1959   4.551   5.192   4.814  1.6456 -1.3973  0.7984
  651TIP3    H2 1960   4.672   5.173   4.725  2.5652  0.1550  1.6570
  652TIP3   OH2 1961   0.281   1.069   0.322 -0.5089 -0.1770 -0.0256
  652TIP3    H1 1962   0.199   1.037   0.284  0.6210 -1.1678 -1.7422
  652TIP3    H2 1963   0.281   1.035   0.411 -2.0222 -0.0022  0.0740
  653TIP3   OH2 1964   2.757   0.808   4.921  0.4397  0.4857  0.6284
  653TIP3    H1 1965   2.836   0.856   4.898 -0.4920  1.5968 -0.3788
  653TIP3    H2 1966   2.686   0.871   4.909 -0.6801 -0.7133  0.7208
  654TIP3   OH2 1967   3.834   2.792   1.998  0.4411  0.3735 -0.3167
  654TIP3    H1 1968   3.903   2.832   2.053  1.0958 -1.6873  0.4619
  654TIP3    H2 1969   3.882   2.735   1.938 -0.5289 -0.7308 -0.0814
  655TIP3   OH2 1970   3.813   3.176   3.434 -0.5617 -0.2975 -0.0406
  655TIP3    H1 1971   3.770   3.107   3.486  0.0479  0.6178  1.7469
  655TIP3    H2 1972   3.885   3.206   3.489 -0.3107  1.2155 -1.1457
  656TIP3   OH2 1973   5.805   1.840   2.318  0.1966 -0.1462  0.5173
  656TIP3    H1 1974   5.758   1.816   2.238  0.2711  0.7233  0.2037
  656TIP3    H2 1975   5.887   1.877   2.287 -0.4671  1.7300  0.9177
  657TIP3   OH2 1976   1.319   5.134   0.691 -0.1070 -0.2811  0.3190
  657TIP3    H1 1977   1.293   5.187   0.766 -0.6492  0.6663 -0.5093
  657TIP3    H2 1978   1.357   5.055   0.729 -0.8299 -0.0462  1.5801
  658TIP3   OH2 1979   5.606   3.753   1.110  0.3328  0.0146 -0.6038
  658TIP3    H1 1980   5.555   3.824   1.072  0.7137  0.7359  0.1946
  658TIP3    H2 1981   5.540   3.689   1.140 -0.0512  0.4382 -0.5373
  659TIP3   OH2 1982   5.132   1.360   1.191  0.2577 -0.5168  0.1467
  659TIP3    H1 1983   5.136   1.430   1.257  1.1632 -0.2020 -0.2202
  659TIP3    H2 1984   5.132   1.406   1.107 -0.3337 -0.9311 -0.0854
  660TIP3   OH2 1985   0.717   0.674   1.259 -0.0889 -0.5472  0.5292
  660TIP3    H1 1986   0.786   0.690   1.195 -0.4302 -0.2296  0.2329
  660TIP3    H2 1987   0.725   0.745   1.321 -0.7682  0.0614 -0.0556
  661TIP3   OH2 1988   5.187   3.928   1.639  0.2888  0.2597 -0.0995
  661TIP3    H1 1989   5.272   3.965   1.662  0.2924  1.3463 -1.6664
  661TIP3    H2 1990   5.142   3.999   1.593 -0.4491 -1.0846 -1.5608
  662TIP3   OH2 1991   3.598   4.747   1.461  0.3521 -0.2717  0.3323
  662TIP3    H1 1992   3.532   4.756   1.393  2.4357 -0.0676 -1.7603
  662TIP3    H2 1993   3.594   4.829   1.510  0.7564  0.8010 -1.3765
  663TIP3   OH2 1994   0.137   3.823   2.826 -0.0151  0.2588 -0.5712
  663TIP3    H1 1995   0.206   3.767   2.792 -0.7193 -0.4607 -0.8320
  663TIP3    H2 1996   0.057   3.793   2.782 -0.2034  2.4317 -1.8619
  664TIP3   OH2 1997   4.133   3.594   2.521 -0.0067  0.1218 -0.1688
  664TIP3    H1 1998   4.047   3.553   2.533  0.0270  0.5678  2.0033
  664TIP3    H2 1999   4.181   3.534   2.464 -2.0216  0.3194 -2.1890
  665TIP3   OH2 2000   0.383   4.961   4.434 -0.2609  0.3056  0.3992
  665TIP3    H1 2001   0.410   4.996   4.519 -0.3350 -0.9759  0.9778
  665TIP3    H2 2002   0.397   4.866   4.441 -0.4826  0.1491 -0.9425
  666TIP3   OH2 2003   3.112   2.608   2.003  0.2799 -0.6968  0.2031
  666TIP3    H1 2004   3.177   2.654   2.056 -1.1312  2.5376 -0.6755
  666TIP3    H2 2005   3.036   2.667   2.000 -0.7778 -1.9849 -3.0600
  667TIP3   OH2 2006   5.663   2.001   4.225 -0.7475 -0.2067 -0.1572
  667TIP3    H1 2007   5.676   2.067   4.294  0.0170 -1.0733  0.5601
  667TIP3    H2 2008   5.748   1.957   4.219 -0.4941  0.4687 -2.3554
  668TIP3   OH2 2009   6.002   4.962   4.038 -0.4896  0.2745 -0.0228
  668TIP3    H1 2010   5.927   4.941   3.982 -1.2440  0.0404  1.0621
  668TIP3    H2 2011   5.964   4.994   4.119  0.5861  3.3372 -0.5989
  669TIP3   OH2 2012   5.942   4.307   0.235  0.1381 -0.0090  0.3388
  669TIP3    H1 2013   5.857   4.310   0.191  0.9508 -1.1099 -1.3757
  669TIP3    H2 2014   5.920   4.284   0.326 -1.4550  0.7022  0.1689
  670TIP3   OH2 2015   4.619   4.194   1.135 -0.1832 -0.6603  0.1857
  670TIP3    H1 2016   4.713   4.180   1.148  0.3124  1.4281 -0.6123
  670TIP3    H2 2017   4.583   4.203   1.223  0.6494 -0.0433  0.4758
  671TIP3   OH2 2018   0.939   0.830   1.609  0.5362 -0.2599  0.1907
  671TIP3    H1 2019   0.962   0.914   1.648 -0.0684  0.8071 -1.6422
  671TIP3    H2 2020   1.023   0.788   1.591  0.8828  0.4704  0.0489
  672TIP3   OH2 2021   2.824   4.052   5.120  0.2688 -0.0128  0.1804
  672TIP3    H1 2022   2.824   3.960   5.147  1.7126 -0.1355 -0.1809
  672TIP3    H2 2023   2.852   4.099   5.198 -1.4251  0.2562  0.6735
  673TIP3   OH2 2024   0.954   1.985   4.464  0.2251  0.4694  0.2351
  673TIP3    H1 2025   0.874   1.987   4.517  1.3992 -0.1482  2.1015
  673TIP3    H2 2026   1.024   1.968   4.526  1.7225 -0.0161 -1.4992
  674TIP3   OH2 2027   3.687   0.460   1.197 -0.2591 -0.4520 -0.2518
  674TIP3    H1 2028   3.678   0.535   1.256  2.1716  0.7989 -1.3025
  674TIP3    H2 2029   3.744   0.400   1.244 -0.6693 -0.7860 -0.1770
  675TIP3   OH2 2030   0.544   4.246   2.520 -0.0195 -0.6679 -0.3386
  675TIP3    H1 2031   0.633   4.210   2.521 -0.4723 -1.9570 -2.0243
  675TIP3    H2 2032   0.495   4.189   2.579 -0.0367 -0.8010 -0.4832
  676TIP3   OH2 2033   6.078   4.471   2.716 -0.2172  0.7167 -0.4686
  676TIP3    H1 2034   6.100   4.561   2.741 -0.4039  0.1363  2.1194
  676TIP3    H2 2035   6.162   4.431   2.695  0.4219  0.5326  2.0887
  677TIP3   OH2 2036   5.852   2.217   4.104 -0.4347 -0.1242 -0.2181
  677TIP3    H1 2037   5.922   2.280   4.094  0.4588 -0.7412  1.6094
  677TIP3    H2 2038   5.783   2.247   4.045  0.6914  1.4622 -0.7820
  678TIP3   OH2 2039   3.892   2.092   2.131  0.2562  0.2013 -0.4899
  678TIP3    H1 2040   3.886   2.174   2.180 -0.1516 -0.0149 -0.1754
  678TIP3    H2 2041   3.879   2.118   2.040 -0.5087  0.4071 -0.3280
  679TIP3   OH2 2042   2.034   5.180   4.224  0.1595  0.0142 -0.6177
  679TIP3    H1 2043   2.036   5.262   4.274  0.8997 -1.0873  1.2529
  679TIP3    H2 2044   2.025   5.208   4.132  0.9841  2.1872 -0.0926
  680TIP3   OH2 2045   2.346   4.332   3.009 -0.4482  0.4433 -0.3942
  680TIP3    H1 2046   2.305   4.296   3.087  0.3425  1.0395  0.3182
  680TIP3    H2 2047   2.284   4.397   2.977 -0.2772  0.9994  0.3922
  681TIP3   OH2 2048   1.431   4.734   2.503  0.0664  0.0316 -0.3270
  681TIP3    H1 2049   1.456   4.648   2.535 -2.4200 -0.6131  0.1309
  681TIP3    H2 2050   1.365   4.765   2.565  0.7287  2.2084 -0.5906
  682TIP3   OH2 2051   0.964   3.899   2.300  0.5488 -0.3899 -0.7103
  682TIP3    H1 2052   0.936   3.946   2.378 -0.5036  1.0077 -1.8653
  682TIP3    H2 2053   0.910   3.820   2.298 -0.9141  0.5756 -1.0686
  683TIP3   OH2 2054   3.036   2.097   4.120 -0.0448  0.1684  0.4055
  683TIP3    H1 2055   3.027   2.050   4.037 -0.4967  0.9071  0.0323
  683TIP3    H2 2056   3.047   2.027   4.185 -2.0353 -0.5583  0.0474
  684TIP3   OH2 2057   4.647   3.353   3.497  0.4535 -0.2241  0.3600
  684TIP3    H1 2058   4.632   3.259   3.507 -0.0331 -0.2439 -0.4659
  684TIP3    H2 2059   4.561   3.392   3.513  0.1524 -0.0970 -1.3879
  685TIP3   OH2 2060   3.274   1.127   1.674 -0.0269  0.1115  0.1551
  685TIP3    H1 2061   3.305   1.119   1.764 -1.6979 -1.7158  0.6376
  685TIP3    H2 2062   3.315   1.054   1.627  0.3848  0.7144 -0.4417
  686TIP3   OH2 2063   1.967   3.108   0.476  0.0273  0.3235 -0.2440
  686TIP3    H1 2064   1.931   3.028   0.515 -1.1510  0.3275 -1.2731
  686TIP3    H2 2065   1.960   3.173   0.546  1.5933 -0.5858  0.8241
  687TIP3   OH2 2066   1.767   5.245   3.368 -0.1163 -0.0027  0.4307
  687TIP3    H1 2067   1.804   5.222   3.453 -0.9824 -0.8495  0.5985
  687TIP3    H2 2068   1.843   5.265   3.313  0.4211  1.7945  1.7171
  688TIP3   OH2 2069   0.137   1.004   1.126 -0.1553  0.2877  0.7752
  688TIP3    H1 2070   0.188   1.042   1.055  1.6992 -2.0213  0.7374
  688TIP3    H2 2071   0.193   1.012   1.203 -0.0109 -1.5855  0.9076
  689TIP3   OH2 2072   4.219   2.616   1.954  0.3530 -0.0738  0.5810
  689TIP3    H1 2073   4.206   2.540   1.897 -0.2633 -0.0942  0.7459
  689TIP3    H2 2074   4.193   2.691   1.900  1.8808  0.1416  0.0763
  690TIP3   OH2 2075   2.644   5.280   3.965 -0.1816  0.5945 -0.5875
  690TIP3    H1 2076   2.677   5.321   4.044  2.0297 -2.1601  0.0900
  690TIP3    H2 2077   2.580   5.216   3.996  2.3700 -2.1727 -0.5694
  691TIP3   OH2 2078   1.232   2.304   4.414  0.3323 -0.4059 -0.0158
  691TIP3    H1 2079   1.182   2.311   4.496 -2.2277 -1.0218 -1.4263
  691TIP3    H2 2080   1.247   2.210   4.403  1.1315 -0.2849 -0.0240
  692TIP3   OH2 2081   4.687   2.128   0.048 -0.0750  0.2977  0.1108
  692TIP3    H1 2082   4.646   2.070   0.113 -0.6991 -0.1469 -0.6626
  692TIP3    H2 2083   4.632   2.119  -0.030  0.0633  1.6189 -0.1591
  693TIP3   OH2 2084   2.143   4.487   0.130 -0.4301  0.0713  0.0049
  693TIP3    H1 2085   2.069   4.432   0.105  0.2552 -1.1982  0.6581
  693TIP3    H2 2086   2.103   4.568   0.163 -1.4978 -0.3871 -0.1209
  694TIP3   OH2 2087   1.589   4.139   0.699 -0.1716  0.1743  0.0609
  694TIP3    H1 2088   1.654   4.137   0.768  0.2052  0.9276 -0.2500
  694TIP3    H2 2089   1.604   4.223   0.655  0.4614 -0.8318 -1.7509
  695TIP3   OH2 2090   6.025   2.818   2.560  0.2506 -0.0492 -0.0760
  695TIP3    H1 2091   6.096   2.855   2.611 -1.5906 -0.9948  3.5056
  695TIP3    H2 2092   6.057   2.733   2.532  0.8094 -0.1501  0.8286
  696TIP3   OH2 2093   5.137   4.425   4.164 -0.3657  0.2883  0.0521
  696TIP3    H1 2094   5.088   4.502   4.194 -0.2276  0.9429 -1.3263
  696TIP3    H2 2095   5.226   4.440   4.196  0.0181  1.4801 -1.4563
  697TIP3   OH2 2096   1.933   0.220   4.714  0.0188 -0.5280  0.0568
  697TIP3    H1 2097   1.900   0.303   4.748 -1.3817 -0.7008 -0.7964
  697TIP3    H2 2098   1.948   0.167   4.792  1.5350  0.7112  0.6503
  698TIP3   OH2 2099   1.354   4.352   3.223 -0.3958 -0.3284  0.0409
  698TIP3    H1 2100   1.358   4.448   3.227  0.9880 -0.2205 -2.0511
  698TIP3    H2 2101   1.321   4.334   3.135 -1.0151 -1.7873  0.5492
  699TIP3   OH2 2102   1.513   5.208   1.964 -0.6994  0.1068  0.0821
  699TIP3    H1 2103   1.442   5.143   1.957 -0.2836 -0.2903 -0.5751
  699TIP3    H2 2104   1.472   5.291   1.941 -1.1650  0.0250  0.6107
  700TIP3   OH2 2105   4.046   5.513   4.316 -0.7736 -0.8785  0.3558
  700TIP3    H1 2106   4.085   5.594   4.349 -1.0558 -0.9036  0.7577
  700TIP3    H2 2107   3.966   5.541   4.272  0.6956 -0.5805 -2.3232
  701TIP3   OH2 2108   3.494   2.073   3.695  0.6143  0.2829  0.2580
  701TIP3    H1 2109   3.421   2.100   3.639 -1.4824  0.1118  2.7419
  701TIP3    H2 2110   3.486   1.978   3.702  1.5586  0.1672 -0.0199
  702TIP3   OH2 2111   2.343   3.413   1.249  0.1304 -0.4013 -0.4129
  702TIP3    H1 2112   2.328   3.352   1.322 -0.1614  0.0413 -0.0978
  702TIP3    H2 2113   2.353   3.356   1.173  0.4226 -0.8709 -0.0306
  703TIP3   OH2 2114   3.670   3.329   1.436  0.4544  0.1022 -0.0706
  703TIP3    H1 2115   3.650   3.366   1.522 -1.0821 -0.0821 -0.3191
  703TIP3    H2 2116   3.712   3.245   1.455  1.5896  0.7694  0.4818
  704TIP3   OH2 2117   1.224   2.387   0.674 -0.5396  0.0016 -0.3991
  704TIP3    H1 2118   1.233   2.457   0.738  1.2499 -1.1056  0.6547
  704TIP3    H2 2119   1.167   2.323   0.717  1.4267 -1.1802  0.5750
  705TIP3   OH2 2120   1.866   2.934   3.326 -0.1586  0.4132 -0.9288
  705TIP3    H1 2121   1.816   2.853   3.337  1.9663 -0.7618  1.0707
  705TIP3    H2 2122   1.951   2.906   3.293  0.8442  1.6939  0.3976
  706TIP3   OH2 2123   3.562   5.668   4.652 -0.0017 -0.4496 -0.5046
  706TIP3    H1 2124   3.518   5.625   4.726  1.1812 -1.1947 -0.2024
  706TIP3    H2 2125   3.535   5.760   4.658 -1.5954 -0.9013 -0.4174
  707TIP3   OH2 2126   0.879   5.130   2.015  0.2256 -0.0132  0.3696
  707TIP3    H1 2127   0.880   5.042   2.054 -0.7283 -0.3480 -0.3503
  707TIP3    H2 2128   0.855   5.116   1.924  2.5808  0.7512 -0.4470
  708TIP3   OH2 2129   3.829   3.308   0.352  0.5694 -0.6030  0.0657
  708TIP3    H1 2130   3.885   3.230   0.354 -1.0239 -1.8253  1.9149
  708TIP3    H2 2131   3.825   3.336   0.443  1.2156  1.7991 -0.5917
  709TIP3   OH2 2132   3.192   5.023   3.914 -0.0712  0.1586  0.3232
  709TIP3    H1 2133   3.152   4.997   3.997 -0.6486 -0.9282 -0.2750
  709TIP3    H2 2134   3.118   5.048   3.858  0.3045  0.7971  0.1025
  710TIP3   OH2 2135   2.410   5.112   4.010 -0.6894  0.1945  0.2967
  710TIP3    H1 2136   2.368   5.067   4.083  0.7930 -1.3931  0.2159
  710TIP3    H2 2137   2.352   5.097   3.935 -1.5530  0.7369  0.8366
  711TIP3   OH2 2138   0.648   0.098   3.212  0.5331 -0.4872 -0.5195
  711TIP3    H1 2139   0.680   0.043   3.140 -0.9924 -2.1299 -0.0063
  711TIP3    H2 2140   0.631   0.037   3.284 -0.9769  0.6719  0.1653
  712TIP3   OH2 2141   1.071   0.466   4.628 -0.0846 -0.0580  0.2399
  712TIP3    H1 2142   1.154   0.423   4.646 -0.0853 -0.0133  0.3530
  712TIP3    H2 2143   1.036   0.488   4.714 -0.1695  0.0062  0.1900
  713TIP3   OH2 2144   2.641   1.818   1.927  0.1849 -0.1440  0.6026
  713TIP3    H1 2145   2.722   1.862   1.955  1.4055 -2.4073  0.9120
  713TIP3    H2 2146   2.618   1.761   2.000 -0.7474 -0.7556 -0.1426
  714TIP3   OH2 2147   3.876   1.755   1.085 -0.0091 -0.3516 -0.0709
  714TIP3    H1 2148   3.834   1.824   1.034  0.6889  0.3902  0.3216
  714TIP3    H2 2149   3.970   1.771   1.072  0.1762 -1.6780 -0.5573
  715TIP3   OH2 2150   1.971   3.217   1.941  0.2216 -0.2547  0.5836
  715TIP3    H1 2151   1.971   3.299   1.892  1.5474 -0.4441  0.2388
  715TIP3    H2 2152   1.972   3.245   2.033  1.0663  0.1372  0.4676
  716TIP3   OH2 2153   4.179   2.022   0.504 -0.0199 -0.2149 -0.0013
  716TIP3    H1 2154   4.211   2.111   0.521  1.5049 -0.0664 -2.9493
  716TIP3    H2 2155   4.089   2.035   0.473 -0.4068  0.0834  1.1658
  717TIP3   OH2 2156   6.149   4.591   0.217 -0.6189 -0.4697  0.7561
  717TIP3    H1 2157   6.058   4.567   0.195 -0.2283 -0.3233 -1.2489
  717TIP3    H2 2158   6.161   4.560   0.306 -2.9867  0.5156  1.4982
  718TIP3   OH2 2159   5.501   0.905   1.051 -0.5295  0.6292 -0.4824
  718TIP3    H1 2160   5.505   0.885   0.958 -0.7260 -0.7700 -0.2168
  718TIP3    H2 2161   5.501   0.820   1.094  0.9015  1.2579  0.8718
  719TIP3   OH2 2162   0.368   3.820   2.500  0.0780  0.4608 -0.0695
  719TIP3    H1 2163   0.287   3.817   2.448  0.6647 -0.0169 -0.9784
  719TIP3    H2 2164   0.432   3.771   2.448  1.2716  1.7810  0.1012
  720TIP3   OH2 2165   4.480   3.273   1.713 -0.4496  0.5275  0.5319
  720TIP3    H1 2166   4.430   3.192   1.710 -1.0938  0.9256 -0.1322
  720TIP3    H2 2167   4.423   3.334   1.760 -1.2379  1.3696 -1.3810
  721TIP3   OH2 2168   4.938   2.229   0.807  0.1829 -0.5234 -0.1238
  721TIP3    H1 2169   4.851   2.192   0.797 -0.1950  0.6327 -1.5101
  721TIP3    H2 2170   4.971   2.192   0.889 -1.0681 -2.0162 -0.2528
  722TIP3   OH2 2171   1.007   4.001   4.809 -0.3303  0.1681 -0.4308
  722TIP3    H1 2172   0.970   4.080   4.768  0.4608  0.1524 -1.2089
  722TIP3    H2 2173   1.062   3.962   4.741  1.0493  0.1481  0.6336
  723TIP3   OH2 2174   2.684   5.427   4.189 -0.6867 -1.0319  0.2207
  723TIP3    H1 2175   2.736   5.486   4.244  0.8875  0.2146 -2.3772
  723TIP3    H2 2176   2.612   5.482   4.157  1.2060 -0.0851 -2.8203
  724TIP3   OH2 2177   0.726   5.003   3.515  0.3063  0.0510  0.3781
  724TIP3    H1 2178   0.761   5.023   3.428 -1.2948  1.3703 -0.0100
  724TIP3    H2 2179   0.645   4.955   3.497  0.6895 -0.9416  1.2025
  725TIP3   OH2 2180   2.730   3.188   3.756  0.5432 -0.0043 -0.1032
  725TIP3    H1 2181   2.771   3.192   3.842  0.6557 -0.7850 -0.1174
  725TIP3    H2 2182   2.802   3.197   3.694  0.5436 -0.0960 -0.1170
  726TIP3   OH2 2183   0.332   3.460   3.009  0.1565  0.7157 -0.2181
  726TIP3    H1 2184   0.298   3.413   3.085 -0.3622 -0.2205 -1.0127
  726TIP3    H2 2185   0.414   3.416   2.988  0.9634  1.7846  0.5472
  727TIP3   OH2 2186   5.111   3.334   1.472 -0.2009  0.2009 -0.6502
  727TIP3    H1 2187   5.124   3.296   1.559 -1.4093  0.6800 -0.2360
  727TIP3    H2 2188   5.056   3.270   1.426  0.2268  0.0662 -0.9834
  728TIP3   OH2 2189   4.369   3.105   2.709 -0.1499 -0.0647 -0.0410
  728TIP3    H1 2190   4.345   3.022   2.668 -0.3357  0.2400 -0.5665
  728TIP3    H2 2191   4.460   3.120   2.681  0.5710 -1.0478  1.6640
  729TIP3   OH2 2192   3.466   4.268   4.059  0.0372 -0.6533 -0.1694
  729TIP3    H1 2193   3.396   4.284   3.995  1.3252 -1.4548 -1.8622
  729TIP3    H2 2194   3.484   4.174   4.052  0.4018 -0.6995  1.1939
  730TIP3   OH2 2195   0.088   2.206   1.899 -0.1765 -0.2597 -0.1889
  730TIP3    H1 2196   0.164   2.155   1.926 -1.3014 -2.5388 -1.0675
  730TIP3    H2 2197   0.119   2.258   1.825  0.5257 -1.2929 -0.6470
  731TIP3   OH2 2198   3.845   4.894   0.489 -0.0178  0.3707  0.0871
  731TIP3    H1 2199   3.779   4.945   0.442 -3.0726 -0.8423  2.6923
  731TIP3    H2 2200   3.868   4.947   0.565 -0.8934 -0.7433  1.1724
  732TIP3   OH2 2201   2.112   0.699   3.650  0.3208  0.4314 -0.5092
  732TIP3    H1 2202   2.024   0.676   3.623  0.0433  2.8147 -1.8342
  732TIP3    H2 2203   2.101   0.740   3.736 -0.2160  2.8171 -1.6573
  733TIP3   OH2 2204   4.190   5.568   0.073  0.2667 -0.1194  0.3381
  733TIP3    H1 2205   4.187   5.636   0.141  0.1890  1.4815 -1.2116
  733TIP3    H2 2206   4.205   5.616  -0.008 -0.7662 -1.8952 -0.9524
  734TIP3   OH2 2207   1.612   5.570   0.203 -0.5333 -0.1399  0.0228
  734TIP3    H1 2208   1.704   5.596   0.209 -0.2744 -1.3040  2.4460
  734TIP3    H2 2209   1.614   5.485   0.160 -0.4078 -0.4126  0.5617
  735TIP3   OH2 2210   3.136   0.988   5.095 -0.3440 -0.5197  0.1836
  735TIP3    H1 2211   3.169   1.050   5.160  2.0577 -3.9142  2.6059
  735TIP3    H2 2212   3.044   0.974   5.118 -1.1603  2.3916 -0.8587
  736TIP3   OH2 2213   4.312   2.403   5.080 -0.6528  0.4024  0.9197
  736TIP3    H1 2214   4.279   2.339   5.016  1.2734 -0.0505  0.3108
  736TIP3    H2 2215   4.335   2.480   5.028  0.0946  0.3646  1.1880
  737TIP3   OH2 2216   5.912   4.390   1.179  0.5904  0.0166  0.0714
  737TIP3    H1 2217   5.870   4.360   1.259  0.2539 -0.0131 -0.1137
  737TIP3    H2 2218   5.996   4.344   1.177 -0.2100 -1.4941 -0.5612
  738TIP3   OH2 2219   3.699   3.638   3.056 -0.9682  0.3380 -0.3990
  738TIP3    H1 2220   3.684   3.545   3.038 -1.0626  0.3444 -0.3543
  738TIP3    H2 2221   3.733   3.640   3.145 -2.0206  0.4319  0.0163
  739TIP3   OH2 2222   3.670   4.548   3.987  0.5228  0.1673 -0.6173
  739TIP3    H1 2223   3.659   4.628   4.038  0.7657 -0.6325  0.7499
  739TIP3    H2 2224   3.753   4.512   4.018 -0.7536 -1.8727  0.6312
  740TIP3   OH2 2225   6.382   5.025   0.870 -0.2454  0.3305  0.3269
  740TIP3    H1 2226   6.331   4.963   0.817 -0.5623  1.9043 -1.3262
  740TIP3    H2 2227   6.316   5.073   0.920 -0.1720  0.5940  0.1726
  741TIP3   OH2 2228   1.448   1.284   1.255 -0.0713  0.5422  0.4594
  741TIP3    H1 2229   1.451   1.256   1.346  1.1689  1.4210  0.7268
  741TIP3    H2 2230   1.407   1.212   1.208 -3.0315  1.0401  2.0304
  742TIP3   OH2 2231   2.522   1.755   1.031  0.0405  0.2178 -0.1295
  742TIP3    H1 2232   2.596   1.699   1.009 -0.5150  0.1746 -2.0800
  742TIP3    H2 2233   2.446   1.697   1.021 -0.3366  0.5065  0.9427
  743TIP3   OH2 2234   1.279   3.430   0.356  0.4101  0.7454 -0.5573
  743TIP3    H1 2235   1.201   3.480   0.384  0.5880 -0.1513  1.7416
  743TIP3    H2 2236   1.266   3.343   0.393  1.5431 -0.0462 -1.9443
  744TIP3   OH2 2237   4.014   1.726   2.434 -0.2130 -0.2785 -0.7216
  744TIP3    H1 2238   4.055   1.800   2.389 -0.7279  0.6201  0.2296
  744TIP3    H2 2239   3.998   1.758   2.523 -2.8865 -0.5654 -1.0041
  745TIP3   OH2 2240   4.730   1.422   1.541 -0.7978 -0.4777 -0.0984
  745TIP3    H1 2241   4.796   1.489   1.525 -1.1329 -0.4010 -1.2703
  745TIP3    H2 2242   4.772   1.340   1.513 -1.5087 -0.2980 -1.8062
  746TIP3   OH2 2243   0.928   2.040   0.578 -0.4304  0.1573 -0.4730
  746TIP3    H1 2244   0.935   1.944   0.571  1.6070  0.1974  0.3344
  746TIP3    H2 2245   0.940   2.071   0.489  2.8318 -0.2311 -0.2721
  747TIP3   OH2 2246   1.390   0.610   4.585  0.3758 -0.0709  0.0642
  747TIP3    H1 2247   1.346   0.695   4.580 -0.9741 -0.6560  1.3538
  747TIP3    H2 2248   1.357   0.562   4.508  0.4321  0.2377 -0.1550
  748TIP3   OH2 2249   5.162   1.517   0.969  0.3240 -0.0472 -0.7728
  748TIP3    H1 2250   5.095   1.518   0.901 -0.1359  0.1473 -0.3316
  748TIP3    H2 2251   5.183   1.610   0.983  0.7176 -0.1099 -0.9376
  749TIP3   OH2 2252   3.477   3.264   1.236 -0.1634  0.2656 -0.1482
  749TIP3    H1 2253   3.482   3.351   1.195  0.7175  0.6607  0.7558
  749TIP3    H2 2254   3.502   3.279   1.327  0.7611 -1.0443 -0.1600
  750TIP3   OH2 2255   5.966   2.589   3.377 -0.0412  0.7667  0.0025
  750TIP3    H1 2256   5.939   2.679   3.393  0.0549  1.2084 -2.1051
  750TIP3    H2 2257   5.921   2.564   3.297  1.1843 -0.5033 -0.3367
  751TIP3   OH2 2258   1.824   2.483   5.190 -0.3779 -0.1502 -0.2929
  751TIP3    H1 2259   1.845   2.440   5.107 -0.3452  0.7793 -0.7736
  751TIP3    H2 2260   1.909   2.514   5.223 -0.4361 -0.2200 -0.0733
  752TIP3   OH2 2261   1.158   5.179   0.192  0.0272  0.2411  0.1910
  752TIP3    H1 2262   1.190   5.160   0.104 -2.7679  0.1556 -0.9025
  752TIP3    H2 2263   1.212   5.252   0.223  0.7339  0.5924 -1.7783
  753TIP3   OH2 2264   4.461   0.350   2.542 -0.7456 -0.2451  0.3316
  753TIP3    H1 2265   4.395   0.323   2.478 -0.1229 -1.0323  0.0037
  753TIP3    H2 2266   4.517   0.273   2.553  1.1984  0.9232 -0.7567
  754TIP3   OH2 2267   1.794   1.103   1.884 -0.6132  0.1780  0.0792
  754TIP3    H1 2268   1.868   1.153   1.918  0.3993  0.2814 -2.0859
  754TIP3    H2 2269   1.718   1.137   1.931  0.6256  0.4800  1.9486
  755TIP3   OH2 2270   6.080   4.218   0.965 -0.9290  0.6935  0.4120
  755TIP3    H1 2271   6.126   4.221   1.048  0.0673  0.0991 -0.1040
  755TIP3    H2 2272   5.990   4.194   0.989 -0.7919  1.0768  1.3534
  756TIP3   OH2 2273   3.268   2.508   4.500 -0.6137  0.8150  0.1589
  756TIP3    H1 2274   3.362   2.517   4.517 -0.3742  2.4537 -1.6353
  756TIP3    H2 2275   3.238   2.598   4.487 -2.1121  0.2042 -0.8165
  757TIP3   OH2 2276   3.797   2.466   3.759 -0.3962  0.2076  0.5815
  757TIP3    H1 2277   3.745   2.436   3.684  1.9516 -2.1253 -0.2540
  757TIP3    H2 2278   3.760   2.419   3.834 -0.0681 -0.8023  0.1287
  758TIP3   OH2 2279   6.338   2.593   4.715  0.0130  0.6121 -0.3199
  758TIP3    H1 2280   6.356   2.534   4.642  0.7927  1.3061 -0.7040
  758TIP3    H2 2281   6.317   2.535   4.789  2.2604 -0.2361 -0.2611
  759TIP3   OH2 2282   4.813   4.754   2.053  0.3780 -0.0923 -0.4731
  759TIP3    H1 2283   4.752   4.682   2.072  0.3941  0.6471  2.8765
  759TIP3    H2 2284   4.757   4.824   2.018 -0.5007  0.0589  1.1671
  760TIP3   OH2 2285   4.517   0.054   4.386  0.8009 -1.2695 -0.0968
  760TIP3    H1 2286   4.596   0.106   4.377  0.8279 -0.7199  2.4830
  760TIP3    H2 2287   4.527   0.009   4.470 -1.4220 -1.5014  0.1174
  761TIP3   OH2 2288   0.426   1.742   3.172 -0.4679  0.1681 -0.3770
  761TIP3    H1 2289   0.347   1.789   3.144 -0.2817 -0.5785 -2.3102
  761TIP3    H2 2290   0.395   1.685   3.243 -1.2636  1.1851  0.1271
  762TIP3   OH2 2291   3.323   0.977   3.070 -0.0030  0.1199  0.4874
  762TIP3    H1 2292   3.322   1.055   3.125 -0.4775  0.5035 -0.0606
  762TIP3    H2 2293   3.415   0.948   3.072  0.4588  1.4213 -0.3255
  763TIP3   OH2 2294   4.271   0.022   3.560  0.0657 -0.4710 -0.4854
  763TIP3    H1 2295   4.317  -0.035   3.621  2.8100  1.5525 -0.4323
  763TIP3    H2 2296   4.313   0.108   3.572 -2.6226  1.1664 -1.7852
  764TIP3   OH2 2297   2.776   4.149   1.693  0.0630 -0.2288  0.3890
  764TIP3    H1 2298   2.846   4.102   1.739  0.6616  0.5134  0.2531
  764TIP3    H2 2299   2.750   4.090   1.622  0.0837 -0.7913  0.8436
  765TIP3   OH2 2300   5.266   1.476   4.152  0.8564  0.1755  0.0522
  765TIP3    H1 2301   5.256   1.465   4.057 -2.1825 -0.7056  0.3778
  765TIP3    H2 2302   5.292   1.389   4.183  0.9397  0.2314  0.1384
  766TIP3   OH2 2303   0.158   1.146   1.408  0.1471  0.2009  0.3963
  766TIP3    H1 2304   0.075   1.182   1.376  0.6171  0.5915 -0.4132
  766TIP3    H2 2305   0.171   1.186   1.494 -0.9334 -0.5376  0.9233
  767TIP3   OH2 2306   2.579   5.908   1.402 -0.2038  0.0720 -0.2433
  767TIP3    H1 2307   2.628   5.913   1.484  0.6997  0.6321 -0.8012
  767TIP3    H2 2308   2.598   5.821   1.368  1.6187  0.7749 -1.1627
  768TIP3   OH2 2309   3.042   5.233   0.989  0.0639  0.1087 -0.1156
  768TIP3    H1 2310   3.037   5.145   0.952 -1.3605  0.1408 -0.0464
  768TIP3    H2 2311   2.994   5.228   1.071 -0.9559  1.1838 -0.6101
  769TIP3   OH2 2312   6.118   4.057   2.586  0.0245  0.0372 -0.0115
  769TIP3    H1 2313   6.141   3.980   2.638  0.0701  0.6797  0.9550
  769TIP3    H2 2314   6.163   4.130   2.629 -0.9964  0.7888 -0.1540
  770TIP3   OH2 2315   5.422   4.819   2.778 -0.5620 -0.7707 -0.0386
  770TIP3    H1 2316   5.405   4.895   2.721  0.4565 -1.3564 -1.1775
  770TIP3    H2 2317   5.418   4.744   2.719  3.9221 -1.1426 -0.1431
  771TIP3   OH2 2318   6.042   5.397   2.478 -0.4517  0.0075  0.0095
  771TIP3    H1 2319   5.999   5.479   2.503  0.0547  0.3229 -0.1279
  771TIP3    H2 2320   6.134   5.422   2.465 -0.2168 -0.6641  0.3581
  772TIP3   OH2 2321   2.072   2.005   0.956 -0.3075  0.5998 -0.1220
  772TIP3    H1 2322   2.096   2.096   0.976  2.7491  0.0885 -0.9269
  772TIP3    H2 2323   2.070   1.961   1.041  1.1564  0.8384  0.0593
  773TIP3   OH2 2324   0.262   3.617   1.044 -0.1773  0.3941  0.5071
  773TIP3    H1 2325   0.293   3.573   0.965  0.4496  0.1634  0.8717
  773TIP3    H2 2326   0.169   3.631   1.029 -0.0672  0.3256 -0.2576
  774TIP3   OH2 2327   5.466   2.693   1.902  0.7725 -0.3292 -0.2045
  774TIP3    H1 2328   5.491   2.625   1.840 -1.9870 -0.1701 -1.6489
  774TIP3    H2 2329   5.476   2.775   1.854 -1.5813 -0.2176 -0.6200
  775TIP3   OH2 2330   4.737   1.167   2.620  0.1124  0.0805  0.2137
  775TIP3    H1 2331   4.664   1.224   2.645 -0.6727 -1.3818  1.3921
  775TIP3    H2 2332   4.785   1.218   2.554 -1.1071  1.6848  0.4913
  776TIP3   OH2 2333   0.851   1.421   4.560 -0.0768  0.0646  0.0726
  776TIP3    H1 2334   0.875   1.364   4.633  0.5671 -0.2095 -0.3347
  776TIP3    H2 2335   0.935   1.445   4.520 -0.4337 -0.1859 -0.8622
  777TIP3   OH2 2336   5.576   4.685   2.999 -0.4432 -0.2045  0.7265
  777TIP3    H1 2337   5.534   4.601   2.979 -2.4712  0.7120  0.9907
  777TIP3    H2 2338   5.555   4.741   2.925  3.6467 -0.7498 -1.1050
  778TIP3   OH2 2339   4.862   1.601   4.487 -0.0449  0.3215  0.1582
  778TIP3    H1 2340   4.807   1.542   4.539  0.2577 -0.2001 -0.0977
  778TIP3    H2 2341   4.838   1.689   4.516 -0.5708  0.0757  0.4856
  779TIP3   OH2 2342   4.113   4.422   3.135  0.5711  0.0302 -0.5496
  779TIP3    H1 2343   4.181   4.432   3.201  0.1010  0.2857 -0.0917
  779TIP3    H2 2344   4.095   4.512   3.107  0.0201  0.0202 -0.2420
  780TIP3   OH2 2345   4.646   3.438   0.799  0.3041 -0.5396 -0.1227
  780TIP3    H1 2346   4.646   3.470   0.889  2.0658 -2.3657  0.6033
  780TIP3    H2 2347   4.567   3.474   0.760  0.6772  2.1818  1.4452
  781TIP3   OH2 2348   6.109   0.827   0.773 -0.0717 -0.5673 -0.1732
  781TIP3    H1 2349   6.132   0.855   0.684 -2.3269  1.2173 -0.3189
  781TIP3    H2 2350   6.108   0.732   0.768  1.7865 -0.5800 -1.4851
  782TIP3   OH2 2351   0.898   5.120   4.813  0.0100 -0.1408 -0.1809
  782TIP3    H1 2352   0.923   5.123   4.721  0.7667  0.7264  0.0410
  782TIP3    H2 2353   0.908   5.210   4.844  0.9464 -0.6446  1.0570
  783TIP3   OH2 2354   3.115   1.994   3.011 -0.0449  0.6832 -0.6226
  783TIP3    H1 2355   3.158   2.012   2.928  0.8935 -0.4224 -0.4018
  783TIP3    H2 2356   3.104   1.899   3.013 -1.3693  0.8186 -0.0986
  784TIP3   OH2 2357   3.321   2.358   0.981 -0.0503  0.1963 -0.1213
  784TIP3    H1 2358   3.414   2.334   0.987  0.0991  0.8997  0.4125
  784TIP3    H2 2359   3.295   2.378   1.071 -0.4870  0.8688 -0.3931
  785TIP3   OH2 2360   1.363   2.394   2.712 -0.0603 -0.5403 -0.7781
  785TIP3    H1 2361   1.316   2.347   2.781 -1.7719  0.7477 -0.9922
  785TIP3    H2 2362   1.342   2.486   2.727  2.5713  0.1424 -0.8243
  786TIP3   OH2 2363   3.084   5.994   1.594  0.0449  0.0172 -0.3004
  786TIP3    H1 2364   3.050   6.011   1.506 -0.5849  0.4844  0.0218
  786TIP3    H2 2365   3.049   5.909   1.618 -1.5635  0.8056  0.3154
  787TIP3   OH2 2366   0.914   4.321   2.437  0.5887  0.2551  0.0120
  787TIP3    H1 2367   1.007   4.345   2.429  0.2708  1.2934 -0.7245
  787TIP3    H2 2368   0.867   4.404   2.437 -0.5369 -0.3082 -2.2784
  788TIP3   OH2 2369   5.048   0.979   2.970  0.3983  0.4347  0.2831
  788TIP3    H1 2370   5.100   0.903   2.942  0.4794 -0.7154  3.2400
  788TIP3    H2 2371   5.103   1.054   2.950  0.0185 -0.0730 -3.4258
  789TIP3   OH2 2372   1.079   3.205   4.442 -0.3304  0.5843  0.5344
  789TIP3    H1 2373   1.044   3.132   4.392  2.1820 -0.5706  0.3044
  789TIP3    H2 2374   1.110   3.166   4.524 -0.1146  1.6280  0.9704
  790TIP3   OH2 2375   1.325   5.727   1.009 -0.1978  0.0346  0.2569
  790TIP3    H1 2376   1.330   5.719   0.914  0.1699  2.1964  0.0272
  790TIP3    H2 2377   1.262   5.798   1.023  1.4744  1.3378  1.4951
  791TIP3   OH2 2378   1.351   1.312   0.199  0.5137 -0.6406  0.3613
  791TIP3    H1 2379   1.378   1.282   0.113  2.5869  1.6694  0.0786
  791TIP3    H2 2380   1.285   1.380   0.181  0.2509 -0.8173  0.6511
  792TIP3   OH2 2381   6.033   4.123   3.905 -0.3359  0.4762 -0.0872
  792TIP3    H1 2382   5.984   4.175   3.968  0.3568  0.2673  0.6399
  792TIP3    H2 2383   6.093   4.186   3.864 -1.0958  0.7054 -0.8839
  793TIP3   OH2 2384   3.225   2.887   4.732 -0.3550  0.2115 -0.0693
  793TIP3    H1 2385   3.308   2.843   4.748  0.2180  0.2908 -2.5329
  793TIP3    H2 2386   3.201   2.865   4.642 -1.1683  3.0569 -0.6719
  794TIP3   OH2 2387   0.655   1.383   1.830  0.3001  0.1920  0.3115
  794TIP3    H1 2388   0.749   1.365   1.827  0.1974 -0.6010  1.4625
  794TIP3    H2 2389   0.616   1.304   1.867 -1.0720 -0.3264 -2.0132
  795TIP3   OH2 2390   4.030   4.539   1.294 -0.0285 -0.2257 -0.0789
  795TIP3    H1 2391   4.077   4.489   1.227 -0.2980 -0.1472 -0.3303
  795TIP3    H2 2392   4.096   4.561   1.359  0.0669 -1.0605  0.1215
  796TIP3   OH2 2393   3.767   5.804   1.699  1.0327  0.1896  0.5737
  796TIP3    H1 2394   3.791   5.721   1.741  0.1576 -0.4419 -0.1378
  796TIP3    H2 2395   3.812   5.871   1.751 -0.1507 -0.5322  2.6338
  797TIP3   OH2 2396   0.057   4.182   4.895  0.3435  0.2914  1.0475
  797TIP3    H1 2397   0.095   4.105   4.937 -1.6198 -2.1238 -1.2757
  797TIP3    H2 2398   0.106   4.192   4.813 -0.7103  0.2447  0.3937
  798TIP3   OH2 2399   5.726   4.428   0.970 -0.0515  0.8794 -0.3846
  798TIP3    H1 2400   5.759   4.457   1.055 -0.7331 -0.0932  0.2279
  798TIP3    H2 2401   5.646   4.380   0.990  0.3055 -0.2201 -1.4891
  799TIP3   OH2 2402   3.048   4.976   4.585  0.3079 -0.0798  0.0519
  799TIP3    H1 2403   3.045   5.057   4.636 -3.0573 -0.6623  1.0659
  799TIP3    H2 2404   2.993   4.994   4.509  0.1433 -1.1618 -0.1010
  800TIP3   OH2 2405   0.166   4.792   3.233 -0.1461 -0.7465 -0.1222
  800TIP3    H1 2406   0.170   4.849   3.310 -0.6689 -2.8687  1.5803
  800TIP3    H2 2407   0.074   4.796   3.205 -0.6461 -2.1252  1.1780
  801TIP3   OH2 2408   0.547   4.915   4.949  0.1676  0.0403  0.0761
  801TIP3    H1 2409   0.538   4.986   5.013  1.8569 -1.5880  2.2877
  801TIP3    H2 2410   0.641   4.914   4.928 -0.0074 -0.9138 -0.7123
  802TIP3   OH2 2411   0.654   5.918   3.939  0.7666 -0.2151 -0.6973
  802TIP3    H1 2412   0.576   5.873   3.907  0.9916 -2.0957  1.2092
  802TIP3    H2 2413   0.634   6.011   3.927 -0.2848 -0.7191 -3.4753
  803TIP3   OH2 2414   1.142   5.943   4.757 -0.1353  0.0434  0.8310
  803TIP3    H1 2415   1.048   5.928   4.772  0.0038 -1.7945  0.0967
  803TIP3    H2 2416   1.186   5.881   4.816  0.6206  0.4781  0.7410
  804TIP3   OH2 2417   3.650   2.017   1.021 -0.3277  0.7755 -0.0492
  804TIP3    H1 2418   3.657   2.057   0.935 -2.3603 -0.7726 -1.0088
  804TIP3    H2 2419   3.621   2.088   1.078 -0.5579  1.4328 -0.9692
  805TIP3   OH2 2420   2.148   1.362   5.036 -0.8334  0.1330  0.8626
  805TIP3    H1 2421   2.176   1.361   5.128 -2.5574 -1.9950  1.4822
  805TIP3    H2 2422   2.132   1.454   5.016  0.4279  0.7322  2.3938
  806TIP3   OH2 2423   5.324   4.801   2.516  0.1466 -0.6665  0.3033
  806TIP3    H1 2424   5.300   4.710   2.531  3.9627 -1.7594  0.9167
  806TIP3    H2 2425   5.356   4.803   2.426 -1.4092  0.5399 -0.2780
  807TIP3   OH2 2426   2.812   5.244   1.367  0.1513 -0.2634 -0.3604
  807TIP3    H1 2427   2.881   5.208   1.423 -0.2314 -1.9518 -0.8873
  807TIP3    H2 2428   2.749   5.172   1.358 -1.6283  1.1869 -0.0017
  808TIP3   OH2 2429   4.294   1.744   0.515 -0.0897  0.2804  0.0478
  808TIP3    H1 2430   4.390   1.753   0.510  0.1907 -0.1012  2.7691
  808TIP3    H2 2431   4.261   1.833   0.504  0.5189  0.3366 -1.4849
  809TIP3   OH2 2432   2.232   0.839   4.368 -0.2120  0.5921  0.0974
  809TIP3    H1 2433   2.187   0.808   4.289 -0.3873  0.3261  0.2974
  809TIP3    H2 2434   2.206   0.931   4.375 -0.9237  0.3780  0.3402
  810TIP3   OH2 2435   2.834   2.641   0.462  0.0883 -0.2196 -0.4112
  810TIP3    H1 2436   2.752   2.638   0.413  0.0309  1.5725 -0.5087
  810TIP3    H2 2437   2.810   2.618   0.552 -0.6141  0.6681 -0.3571
  811TIP3   OH2 2438   1.339   2.810   0.135  0.2556  0.1263  0.0581
  811TIP3    H1 2439   1.265   2.808   0.195 -1.0036 -0.8683 -1.4468
  811TIP3    H2 2440   1.332   2.895   0.090  2.2593  1.7047  2.4594
  812TIP3   OH2 2441   1.068   2.363   4.642 -0.5140 -0.4279 -0.1333
  812TIP3    H1 2442   1.136   2.369   4.710 -0.1347 -1.4266 -0.4170
  812TIP3    H2 2443   0.989   2.338   4.690 -0.6784  0.6413  0.1837
  813TIP3   OH2 2444   4.858   2.197   2.427 -0.3600 -0.2045 -0.1721
  813TIP3    H1 2445   4.856   2.218   2.334 -1.8518  2.9467  0.4547
  813TIP3    H2 2446   4.950   2.210   2.452 -0.1377 -0.1135 -1.0035
  814TIP3   OH2 2447   6.314   1.396   2.875 -0.7753 -0.0949 -0.4794
  814TIP3    H1 2448   6.399   1.369   2.840 -0.3260  0.5760  0.0703
  814TIP3    H2 2449   6.318   1.491   2.879 -1.0281 -0.1182  0.8228
  815TIP3   OH2 2450   3.529   5.190   1.368  0.1575  0.2163 -0.4213
  815TIP3    H1 2451   3.588   5.174   1.442  1.0571  1.9716 -0.7114
  815TIP3    H2 2452   3.529   5.285   1.357 -0.9859  0.0805 -1.8590
  816TIP3   OH2 2453   5.755   2.172   5.157 -0.3334 -0.1802  0.0453
  816TIP3    H1 2454   5.661   2.173   5.139 -0.1812 -0.6258 -0.8718
  816TIP3    H2 2455   5.786   2.093   5.112  0.3899 -0.3576  0.8303
  817TIP3   OH2 2456   1.789   4.850   4.161  0.2646 -0.2699  0.3724
  817TIP3    H1 2457   1.731   4.786   4.203  1.0442 -0.5313  1.0817
  817TIP3    H2 2458   1.830   4.897   4.234  0.4695  0.3531 -0.1270
  818TIP3   OH2 2459   1.116   5.261   3.607  0.4516  0.5141  0.1937
  818TIP3    H1 2460   1.188   5.203   3.631  1.4534  1.3741 -0.6252
  818TIP3    H2 2461   1.040   5.204   3.602  1.6538 -1.0402 -1.9763
  819TIP3   OH2 2462   1.166   2.779   1.647  0.6024 -0.0488  0.0302
  819TIP3    H1 2463   1.231   2.818   1.589  1.0728  0.9762  1.2259
  819TIP3    H2 2464   1.085   2.827   1.628  0.7214  0.1892  0.1245
  820TIP3   OH2 2465   4.310   2.676   1.135 -0.0265  0.0261 -0.3223
  820TIP3    H1 2466   4.242   2.626   1.091  0.6315 -1.5419  0.3509
  820TIP3    H2 2467   4.391   2.630   1.115  1.0127  2.3230 -1.8089
  821TIP3   OH2 2468   4.447   3.698   0.534  0.6137  0.5802 -0.0029
  821TIP3    H1 2469   4.482   3.646   0.461  0.3817  0.0163  0.2809
  821TIP3    H2 2470   4.422   3.633   0.599 -0.5019  1.0030  0.0056
  822TIP3   OH2 2471   0.952   5.870   1.363 -0.7995 -0.0279  0.5779
  822TIP3    H1 2472   0.976   5.836   1.449  0.7468  0.8751  0.5396
  822TIP3    H2 2473   0.879   5.929   1.379  0.5073  1.3891  1.5408
  823TIP3   OH2 2474   4.072   4.281   3.699 -0.7938  0.1070 -0.0071
  823TIP3    H1 2475   4.108   4.325   3.623  0.2511  1.4128  1.1820
  823TIP3    H2 2476   4.080   4.188   3.679  2.8479  0.2920 -0.0673
  824TIP3   OH2 2477   4.650   1.847   1.289  0.3660 -0.2016 -0.0596
  824TIP3    H1 2478   4.577   1.890   1.333 -1.0392 -1.0005 -1.5125
  824TIP3    H2 2479   4.613   1.767   1.253  1.9124 -0.5411 -1.0052
  825TIP3   OH2 2480   4.411   2.798   4.169 -0.3250 -0.6528  0.4283
  825TIP3    H1 2481   4.324   2.819   4.134  0.2134 -0.6697 -1.0191
  825TIP3    H2 2482   4.395   2.735   4.239 -1.4562 -0.9493 -0.0818
  826TIP3   OH2 2483   2.803   1.137   2.060  0.5692  0.1826  0.2301
  826TIP3    H1 2484   2.788   1.098   2.146  1.1197  0.4785  0.4606
  826TIP3    H2 2485   2.878   1.090   2.024  0.0991 -0.2062 -0.2535
  827TIP3   OH2 2486   4.957   1.776   2.092 -0.6081  0.3836  0.3317
  827TIP3    H1 2487   5.010   1.699   2.111 -0.8573 -0.1499 -1.0095
  827TIP3    H2 2488   4.960   1.828   2.172  1.5815  0.1815  0.4339
  828TIP3   OH2 2489   1.727   4.483   5.020 -0.1235 -0.1405  0.2591
  828TIP3    H1 2490   1.789   4.450   4.955 -0.2581 -0.9473  0.5258
  828TIP3    H2 2491   1.643   4.484   4.975  0.1709  1.6615 -0.3384
  829TIP3   OH2 2492   0.614   1.081   1.546  0.9967  0.4915  0.2566
  829TIP3    H1 2493   0.598   1.103   1.454  0.0336  0.8121  0.4842
  829TIP3    H2 2494   0.672   1.150   1.578 -1.3432  2.4054  0.7457
  830TIP3   OH2 2495   6.270   3.963   3.214 -0.1950  0.2087 -0.0809
  830TIP3    H1 2496   6.282   3.880   3.168  0.3691  1.2538 -1.9702
  830TIP3    H2 2497   6.181   3.990   3.191 -0.1357  0.4312 -0.0499
  831TIP3   OH2 2498   3.609   5.619   1.467  0.1303 -0.7335 -0.0350
  831TIP3    H1 2499   3.613   5.715   1.474 -0.0802 -0.7004 -0.3665
  831TIP3    H2 2500   3.522   5.601   1.431 -0.3082 -1.1208  1.1659
  832TIP3   OH2 2501   5.146   2.839   3.391 -0.0673 -0.5639 -0.6551
  832TIP3    H1 2502   5.226   2.873   3.431 -0.6660 -0.4790  0.5270
  832TIP3    H2 2503   5.081   2.907   3.406 -0.3569 -0.5940 -1.6859
  833TIP3   OH2 2504   4.478   0.217   4.029  0.6090 -0.3193  0.7673
  833TIP3    H1 2505   4.496   0.311   4.037 -0.9029  0.3780 -2.3456
  833TIP3    H2 2506   4.448   0.191   4.116  0.8995  2.1122  1.6843
  834TIP3   OH2 2507   4.760   5.674   4.029  0.3642 -0.5034 -0.0386
  834TIP3    H1 2508   4.833   5.665   4.090 -0.3315  0.9136  1.0518
  834TIP3    H2 2509   4.688   5.625   4.069  0.7839 -2.2474 -1.3107
  835TIP3   OH2 2510   3.729   3.993   4.130  0.7268 -0.3011  0.2775
  835TIP3    H1 2511   3.799   4.002   4.065  1.0377  0.0714  0.6548
  835TIP3    H2 2512   3.670   3.927   4.093  0.7682  0.0809 -0.4939
  836TIP3   OH2 2513   2.113   4.052   2.497 -0.1452  0.0443  0.1429
  836TIP3    H1 2514   2.064   4.134   2.499  0.6842  0.5383  1.2659
  836TIP3    H2 2515   2.091   4.013   2.413 -0.3969  1.5226 -0.5113
  837TIP3   OH2 2516   4.543   4.798   1.254  0.0586 -0.0339  0.1387
  837TIP3    H1 2517   4.507   4.847   1.328 -1.8971  0.5426 -1.1203
  837TIP3    H2 2518   4.597   4.861   1.207 -0.2535  0.1368  0.0114
  838TIP3   OH2 2519   4.466   3.025   3.133 -0.1168  0.4419  0.8881
  838TIP3    H1 2520   4.509   3.109   3.116 -0.5145  0.6019  0.6724
  838TIP3    H2 2521   4.440   2.992   3.047 -1.3911  0.8670  1.0920
  839TIP3   OH2 2522   3.385   3.667   2.776  0.1200  0.1238  0.0430
  839TIP3    H1 2523   3.383   3.643   2.868  2.4473  1.4933  0.5350
  839TIP3    H2 2524   3.305   3.630   2.739 -0.4467 -1.1681  2.4136
  840TIP3   OH2 2525   3.889   2.309   0.929 -0.2122  0.9275  0.2747
  840TIP3    H1 2526   3.945   2.233   0.911 -0.8503  0.0061  1.8912
  840TIP3    H2 2527   3.817   2.273   0.981 -0.6297  2.6248  0.9414
  841TIP3   OH2 2528   2.811   5.831   1.945 -0.4631  0.6272  0.0698
  841TIP3    H1 2529   2.891   5.862   1.903  1.3506 -1.6236  1.5872
  841TIP3    H2 2530   2.783   5.757   1.891  0.8671 -1.1420  1.6756
  842TIP3   OH2 2531   5.542   0.584   2.094  0.2807 -0.9883 -0.2768
  842TIP3    H1 2532   5.479   0.531   2.142  0.2654 -1.7361 -1.0835
  842TIP3    H2 2533   5.614   0.597   2.156 -1.2668  1.2183  1.2163
  843TIP3   OH2 2534   4.516   1.621   1.274  0.4843  0.5334  0.3196
  843TIP3    H1 2535   4.512   1.528   1.252  2.5275  0.3837  0.4286
  843TIP3    H2 2536   4.441   1.634   1.333  1.1421 -1.4554  1.7189
  844TIP3   OH2 2537   1.938   5.922   0.833  0.0192 -0.4315 -0.1671
  844TIP3    H1 2538   1.974   5.970   0.907 -0.6438 -0.2643  0.0565
  844TIP3    H2 2539   1.957   5.977   0.757  0.5893 -0.5437 -0.1089
  845TIP3   OH2 2540   5.896   3.706   0.227 -0.1847  0.1754  0.1964
  845TIP3    H1 2541   5.804   3.683   0.218 -0.0407 -0.1196 -0.5871
  845TIP3    H2 2542   5.900   3.800   0.209 -0.2713  0.1006 -0.2142
  846TIP3   OH2 2543   0.854   1.011   2.569  0.2744  0.6015 -0.4027
  846TIP3    H1 2544   0.759   1.012   2.561  0.4068  0.8884 -2.4185
  846TIP3    H2 2545   0.886   1.015   2.479  2.2302  2.5163  0.2996
  847TIP3   OH2 2546   3.068   0.076   3.369 -0.3746 -0.4695  0.0328
  847TIP3    H1 2547   3.110   0.013   3.311  2.5553  0.1071  1.3756
  847TIP3    H2 2548   3.094   0.049   3.457 -2.9814 -0.0947  1.0136
  848TIP3   OH2 2549   1.541   2.452   3.159 -0.3420  0.0097 -0.2432
  848TIP3    H1 2550   1.589   2.435   3.078  1.3593  0.2457  0.6727
  848TIP3    H2 2551   1.453   2.420   3.141  0.4503 -1.6150 -1.5794
  849TIP3   OH2 2552   2.274   0.468   4.846  0.1354 -0.6694 -0.5829
  849TIP3    H1 2553   2.313   0.385   4.816 -0.4253 -1.3701  0.5616
  849TIP3    H2 2554   2.181   0.460   4.824  0.3704  0.4332 -2.0897
  850TIP3   OH2 2555   2.974   5.756   1.698  0.2885  0.1934 -0.1194
  850TIP3    H1 2556   2.882   5.738   1.681 -0.0328 -0.0873  1.6989
  850TIP3    H2 2557   3.021   5.714   1.626 -1.0152  0.8063 -1.3625
  851TIP3   OH2 2558   1.916   4.335   0.124  0.0513 -0.0239  0.0776
  851TIP3    H1 2559   1.835   4.302   0.084 -0.1467  1.0817 -0.4993
  851TIP3    H2 2560   1.896   4.343   0.217  0.4697 -2.5101  0.4297
  852TIP3   OH2 2561   1.691   1.881   4.392  0.5802  0.3132 -0.4046
  852TIP3    H1 2562   1.693   1.941   4.319  0.8908  0.6887 -0.0878
  852TIP3    H2 2563   1.689   1.794   4.352 -1.8422  0.5295 -0.9186
  853TIP3   OH2 2564   1.841   5.969   0.244  0.6476  0.4466  0.0435
  853TIP3    H1 2565   1.799   5.975   0.159 -1.1222 -0.3462  0.8256
  853TIP3    H2 2566   1.905   5.898   0.235  0.8183  0.6925 -0.7378
  854TIP3   OH2 2567   1.221   1.394   1.437 -0.2502 -0.2141  0.0993
  854TIP3    H1 2568   1.231   1.484   1.406 -1.1777  0.5536  1.8697
  854TIP3    H2 2569   1.281   1.342   1.382  0.2477  1.4553 -0.9970
  855TIP3   OH2 2570   0.193   2.095   0.446 -0.2296  0.2629  0.4736
  855TIP3    H1 2571   0.259   2.067   0.509 -0.1737  0.3526  0.4541
  855TIP3    H2 2572   0.239   2.099   0.362 -0.3685 -0.1202  0.3770
  856TIP3   OH2 2573   2.653   4.263   3.271 -0.0843  0.2066 -0.0106
  856TIP3    H1 2574   2.645   4.201   3.199 -0.8026  0.3454 -0.0630
  856TIP3    H2 2575   2.737   4.243   3.312  0.0240 -0.3069 -0.4787
  857TIP3   OH2 2576   2.864   2.478   4.306 -0.2215  0.6528  0.3747
  857TIP3    H1 2577   2.807   2.404   4.288 -0.0572  0.6825 -0.2914
  857TIP3    H2 2578   2.877   2.476   4.401  0.8618 -0.9645  0.2165
  858TIP3   OH2 2579   5.179   4.723   2.931  0.1304 -0.4550  0.3053
  858TIP3    H1 2580   5.240   4.732   2.857 -1.8038  2.6157 -1.1077
  858TIP3    H2 2581   5.163   4.813   2.959 -3.5364 -1.0974  0.7313
  859TIP3   OH2 2582   5.616   4.196   2.231 -0.0067 -0.1891 -0.5540
  859TIP3    H1 2583   5.648   4.170   2.317  0.8761 -0.8595 -1.0733
  859TIP3    H2 2584   5.676   4.265   2.203  0.7121 -1.0865 -1.3028
  860TIP3   OH2 2585   5.584   5.613   0.789  0.0069  0.0461  0.3226
  860TIP3    H1 2586   5.579   5.606   0.693 -3.3269  0.7807  0.3073
  860TIP3    H2 2587   5.589   5.522   0.819  1.2202 -0.1905 -0.5024
  861TIP3   OH2 2588   1.905   2.091   1.546 -0.3396  0.0269  0.7928
  861TIP3    H1 2589   1.859   2.080   1.629  0.4418  0.1111  1.2391
  861TIP3    H2 2590   1.880   2.013   1.495 -1.0519  0.1200  0.9827
  862TIP3   OH2 2591   2.426   3.940   1.545 -0.3961  0.2597  0.0523
  862TIP3    H1 2592   2.423   4.025   1.588 -1.4384  0.0589  0.4147
  862TIP3    H2 2593   2.469   3.882   1.608 -0.2432  0.3805  0.0587
  863TIP3   OH2 2594   5.590   2.727   3.024  0.0922  0.3592  0.0181
  863TIP3    H1 2595   5.518   2.702   2.966  0.7889 -0.7221 -0.4312
  863TIP3    H2 2596   5.553   2.793   3.082 -1.0444  0.3695 -0.6863
  864TIP3   OH2 2597   5.015   0.908   5.021 -0.1038  0.0994  0.1113
  864TIP3    H1 2598   4.953   0.841   5.050 -0.3532  0.6730  0.9643
  864TIP3    H2 2599   5.049   0.876   4.938 -1.7683 -0.0966 -0.5233
  865TIP3   OH2 2600   3.748   2.600   4.243 -0.4510 -0.5971  0.8867
  865TIP3    H1 2601   3.681   2.537   4.269  0.0157 -1.0301  1.0518
  865TIP3    H2 2602   3.831   2.557   4.262  0.1081 -2.1735 -3.8126
  866TIP3   OH2 2603   1.204   4.123   3.321 -0.1453  0.3801 -0.0230
  866TIP3    H1 2604   1.291   4.155   3.297  0.6789 -0.1914  1.9690
  866TIP3    H2 2605   1.200   4.134   3.416 -2.2144  0.2650 -0.0533
  867TIP3   OH2 2606   1.292   5.084   4.967  0.1106 -1.3616  0.7208
  867TIP3    H1 2607   1.304   5.142   5.042  1.8322 -0.6737 -0.0515
  867TIP3    H2 2608   1.287   5.143   4.892  0.5459 -2.1424  0.0663
  868TIP3   OH2 2609   2.091   1.097   3.575  0.0382  0.2768 -0.5247
  868TIP3    H1 2610   2.131   1.105   3.662  1.4161  0.8673 -1.1741
  868TIP3    H2 2611   2.164   1.070   3.518 -1.1393 -1.4767 -1.2603
  869TIP3   OH2 2612   3.009   3.371   0.704 -0.6962 -1.0664 -0.1456
  869TIP3    H1 2613   2.945   3.302   0.688 -1.6619  0.0142 -1.0687
  869TIP3    H2 2614   3.093   3.326   0.704 -1.3652 -2.3483  0.0297
  870TIP3   OH2 2615   5.240   5.389   1.081 -0.2049 -0.1386  0.0508
  870TIP3    H1 2616   5.170   5.453   1.065 -1.0181 -0.8117  0.8039
  870TIP3    H2 2617   5.300   5.401   1.008 -0.7965  0.8757 -0.2961
  871TIP3   OH2 2618   5.624   0.769   3.161 -0.1123  0.2163 -0.5161
  871TIP3    H1 2619   5.715   0.743   3.176  0.0806 -0.4473 -2.5417
  871TIP3    H2 2620   5.573   0.712   3.220  0.7509  0.4948  0.5288
  872TIP3   OH2 2621   4.752   2.938   2.868  0.3437 -0.1001 -0.1653
  872TIP3    H1 2622   4.800   3.004   2.918  1.2352 -0.0350 -1.0569
  872TIP3    H2 2623   4.797   2.856   2.887  0.9274 -0.0195 -1.1128
  873TIP3   OH2 2624   5.199   3.246   0.647  0.3472 -0.0408  0.1908
  873TIP3    H1 2625   5.282   3.258   0.693  0.5948  0.1024 -0.2967
  873TIP3    H2 2626   5.135   3.234   0.718  0.5773  1.0837  0.6114
  874TIP3   OH2 2627   4.381   2.939   3.377 -0.3504  0.4251 -0.3164
  874TIP3    H1 2628   4.328   2.997   3.432  0.2009  0.5327  0.1031
  874TIP3    H2 2629   4.403   2.992   3.301 -0.2943  0.5896 -0.1859
  875TIP3   OH2 2630   2.975   5.942   3.871 -0.0141  0.7692 -0.0442
  875TIP3    H1 2631   2.947   5.899   3.791 -1.4527 -0.9543  1.2885
  875TIP3    H2 2632   2.933   5.892   3.941  1.8766  1.6652  1.8477
  876TIP3   OH2 2633   6.346   2.808   2.057  0.4740 -0.3037 -0.0387
  876TIP3    H1 2634   6.292   2.782   1.982  2.3369 -0.6902 -1.3184
  876TIP3    H2 2635   6.283   2.826   2.126 -1.2940 -0.6349 -1.4707
  877TIP3   OH2 2636   5.487   0.813   4.780  0.2695 -0.1727 -0.4283
  877TIP3    H1 2637   5.514   0.759   4.854  1.5676  1.0776  0.0773
  877TIP3    H2 2638   5.530   0.773   4.704  3.1799  1.3374  0.2558
  878TIP3   OH2 2639   0.038   3.763   1.192 -0.1434  0.5234  0.0841
  878TIP3    H1 2640   0.063   3.853   1.212  2.0387  0.0501 -0.2547
  878TIP3    H2 2641   0.048   3.716   1.275  0.3595  0.2835 -0.1068
  879TIP3   OH2 2642   5.637   0.184   1.453  0.1087 -0.1253 -0.3857
  879TIP3    H1 2643   5.654   0.092   1.476 -1.3703  0.4965  4.1177
  879TIP3    H2 2644   5.549   0.201   1.485  1.8375  3.8949  3.1668
  880TIP3   OH2 2645   6.060   5.823   1.283 -0.9356 -0.5082  0.3862
  880TIP3    H1 2646   6.073   5.763   1.357  0.5407 -0.2921  0.3262
  880TIP3    H2 2647   6.079   5.771   1.206 -0.1678 -0.1047  0.3022
  881TIP3   OH2 2648   1.839   3.721   4.566  0.1231  0.3551 -0.0520
  881TIP3    H1 2649   1.912   3.736   4.506  1.3761 -1.4971  0.8786
  881TIP3    H2 2650   1.853   3.631   4.598 -1.9310  0.3652  1.0476
  882TIP3   OH2 2651   1.175   4.344   4.956  0.0855 -0.4783  0.1799
  882TIP3    H1 2652   1.105   4.408   4.975 -0.2488 -1.0416  0.9025
  882TIP3    H2 2653   1.249   4.374   5.009  0.0507 -0.4663  0.2227
  883TIP3   OH2 2654   1.199   5.463   5.107 -0.1800  0.5038  0.2655
  883TIP3    H1 2655   1.280   5.514   5.110  0.3670 -0.4124  1.4860
  883TIP3    H2 2656   1.185   5.433   5.197 -0.9882 -0.7333 -0.2451
  884TIP3   OH2 2657   4.398   4.068   1.002 -0.4517 -0.0798  0.1460
  884TIP3    H1 2658   4.483   4.092   1.037 -0.3136  0.3465 -0.4661
  884TIP3    H2 2659   4.336   4.090   1.071 -0.2318  1.1770 -0.0332
  885TIP3   OH2 2660   4.718   4.680   2.663 -0.1462  0.1440 -0.9534
  885TIP3    H1 2661   4.724   4.676   2.567  2.2152  0.7890 -0.8822
  885TIP3    H2 2662   4.740   4.592   2.692  1.2249  0.4735 -0.9576
  886TIP3   OH2 2663   4.121   2.887   1.487 -0.2411 -0.7237  0.2006
  886TIP3    H1 2664   4.180   2.916   1.417 -0.3703 -0.6909  0.1047
  886TIP3    H2 2665   4.033   2.900   1.452 -0.3064 -0.7838  0.3385
  887TIP3   OH2 2666   4.212   4.657   2.833  0.0446 -0.2980  0.3787
  887TIP3    H1 2667   4.283   4.610   2.789 -0.7262  1.7919 -3.5611
  887TIP3    H2 2668   4.134   4.638   2.781 -1.1445  1.8272  1.2456
  888TIP3   OH2 2669   2.585   3.957   3.680  0.1654  0.2335  0.2599
  888TIP3    H1 2670   2.552   3.973   3.768  1.1371  0.3051  0.6267
  888TIP3    H2 2671   2.559   3.867   3.660  0.0955  0.1583  0.6904
  889TIP3   OH2 2672   1.789   2.963   2.236  0.5809  0.6617 -0.5101
  889TIP3    H1 2673   1.790   2.981   2.142  0.4578  0.4331 -0.5555
  889TIP3    H2 2674   1.696   2.952   2.258  0.6187  0.5848 -0.3849
  890TIP3   OH2 2675   0.729   1.058   0.849 -0.0170 -0.2921 -0.6501
  890TIP3    H1 2676   0.787   1.134   0.842  1.1530 -1.3054 -3.3230
  890TIP3    H2 2677   0.734   1.033   0.941  2.2125  0.8730 -0.3731
  891TIP3   OH2 2678   1.494   0.310   2.943  0.2581  0.0507 -0.3289
  891TIP3    H1 2679   1.509   0.217   2.926  0.0331 -0.4590  1.9732
  891TIP3    H2 2680   1.565   0.336   3.001 -1.0098  0.6484  1.0207
  892TIP3   OH2 2681   1.451   1.490   4.159 -0.5038  0.0128 -0.2258
  892TIP3    H1 2682   1.427   1.398   4.150 -1.7641  0.3002  0.0843
  892TIP3    H2 2683   1.375   1.539   4.129 -0.3479  0.9590  0.8295
  893TIP3   OH2 2684   0.954   3.556   2.569 -0.1145  0.2559 -0.1590
  893TIP3    H1 2685   0.997   3.641   2.562 -0.9531  0.6058 -1.7543
  893TIP3    H2 2686   1.024   3.495   2.589  0.6932  1.1586 -0.1458
  894TIP3   OH2 2687   5.400   0.194   1.568  0.1584  0.2224 -0.3931
  894TIP3    H1 2688   5.334   0.260   1.585 -0.8293 -1.1367  1.3432
  894TIP3    H2 2689   5.366   0.114   1.609  1.8791 -1.0566 -1.3148
  895TIP3   OH2 2690   2.259   5.201   3.766 -0.1442 -0.2678 -0.6530
  895TIP3    H1 2691   2.314   5.155   3.702 -1.8556 -1.0431 -1.6446
  895TIP3    H2 2692   2.236   5.283   3.722  3.2153  1.9319  1.2578
  896TIP3   OH2 2693   4.541   2.737   3.866 -0.7868 -0.4386  0.1470
  896TIP3    H1 2694   4.586   2.777   3.940  1.1440 -1.3641 -0.4372
  896TIP3    H2 2695   4.493   2.663   3.903 -2.8519  1.2418  0.9534
  897TIP3   OH2 2696   1.945   4.292   1.337  0.4824  0.0011  0.2010
  897TIP3    H1 2697   1.940   4.205   1.298  0.5001  0.5199 -0.9850
  897TIP3    H2 2698   2.024   4.290   1.390 -0.6206 -1.3756  1.9183
  898TIP3   OH2 2699   1.979   1.757   2.250  0.6874  0.0794  0.0704
  898TIP3    H1 2700   2.029   1.804   2.317 -0.5103 -0.2537  1.2319
  898TIP3    H2 2701   2.034   1.683   2.225  1.1008  0.1530  0.7594
  899TIP3   OH2 2702   4.383   2.349   1.529 -0.4137  0.1870  0.2148
  899TIP3    H1 2703   4.479   2.343   1.532 -0.4848 -1.5700 -0.0539
  899TIP3    H2 2704   4.365   2.418   1.465  0.6701 -0.1129 -0.4327
  900TIP3   OH2 2705   2.616   1.141   4.129  0.0082 -0.3191  0.0492
  900TIP3    H1 2706   2.699   1.094   4.123  0.0372 -0.6022  2.0391
  900TIP3    H2 2707   2.600   1.149   4.223 -1.2928  1.3735 -0.2696
  901TIP3   OH2 2708   3.267   4.257   1.067 -0.3472 -0.0483  0.0646
  901TIP3    H1 2709   3.308   4.247   0.981 -0.8690 -0.6882 -0.1151
  901TIP3    H2 2710   3.228   4.344   1.065 -0.4663 -0.1113 -0.3959
  902TIP3   OH2 2711   1.169   0.709   1.526 -0.0195  0.3721 -0.3609
  902TIP3    H1 2712   1.128   0.654   1.459 -0.6768  0.2596  0.1309
  902TIP3    H2 2713   1.246   0.746   1.482 -1.0643  1.2296 -1.5758
  903TIP3   OH2 2714   5.263   0.981   2.578  0.1507  0.1980 -0.4130
  903TIP3    H1 2715   5.276   1.037   2.654  2.7863 -1.7973  0.7883
  903TIP3    H2 2716   5.328   1.011   2.515 -0.5370  0.4290 -1.0294
  904TIP3   OH2 2717   2.946   0.762   2.915  0.1919 -0.6290 -0.2023
  904TIP3    H1 2718   3.005   0.761   2.991  0.0862 -1.0190 -0.1248
  904TIP3    H2 2719   2.970   0.684   2.865 -0.2764 -0.7996 -0.1602
  905TIP3   OH2 2720   2.953   4.382   1.638 -0.2190 -0.2270  0.5873
  905TIP3    H1 2721   2.896   4.352   1.709 -1.5985 -0.1997 -0.4732
  905TIP3    H2 2722   2.905   4.362   1.558  1.8557 -1.4584 -0.4509
  906TIP3   OH2 2723   2.882   1.542   2.888 -0.1267  0.3424  0.8895
  906TIP3    H1 2724   2.836   1.588   2.958  0.0001 -0.5103  1.5501
  906TIP3    H2 2725   2.884   1.604   2.816 -0.0258  1.3487  1.7295
  907TIP3   OH2 2726   6.144   5.950   5.176 -0.4406  0.0231 -0.4294
  907TIP3    H1 2727   6.070   5.989   5.130 -0.4053 -0.1256 -0.6154
  907TIP3    H2 2728   6.113   5.865   5.205  0.1375 -0.7328 -1.9021
  908TIP3   OH2 2729   3.138   5.359   2.630 -0.4764  0.5292  0.2578
  908TIP3    H1 2730   3.052   5.402   2.624 -0.1580  1.5908  2.2303
  908TIP3    H2 2731   3.125   5.289   2.695  0.2151  0.9203  0.8311
  909TIP3   OH2 2732   1.833   4.547   3.047 -0.0188  0.0896  0.4744
  909TIP3    H1 2733   1.826   4.639   3.024 -1.2670  0.4921  2.2174
  909TIP3    H2 2734   1.780   4.538   3.126  0.6511 -1.9869  0.7575
  910TIP3   OH2 2735   3.138   3.604   1.706 -0.2629 -0.1301  0.8327
  910TIP3    H1 2736   3.157   3.668   1.637 -0.8196  1.8184  2.3853
  910TIP3    H2 2737   3.043   3.603   1.712 -0.3341 -2.0084  0.0997
  911TIP3   OH2 2738   3.882   2.321   4.228 -0.2422 -0.3938 -0.5416
  911TIP3    H1 2739   3.954   2.259   4.222  0.3207  0.1855 -0.0076
  911TIP3    H2 2740   3.859   2.322   4.321 -0.0865  0.3558 -0.5050
  912TIP3   OH2 2741   0.325   2.610   0.905  0.1932  0.2155 -0.2503
  912TIP3    H1 2742   0.253   2.547   0.904  0.7185 -0.4090 -2.2743
  912TIP3    H2 2743   0.290   2.685   0.953 -1.1812 -0.7752  0.3512
  913TIP3   OH2 2744   0.085   4.409   5.107 -0.4906 -0.3580 -0.7466
  913TIP3    H1 2745   0.149   4.478   5.090 -0.0325 -0.6743 -0.3568
  913TIP3    H2 2746   0.095   4.348   5.034  0.5915 -1.0739 -0.0384
  914TIP3   OH2 2747   5.465   1.866   5.042 -0.0665  0.1606 -0.1816
  914TIP3    H1 2748   5.477   1.773   5.025 -1.0721  0.2354 -1.4357
  914TIP3    H2 2749   5.387   1.871   5.097  0.5253  0.2248  0.6801
  915TIP3   OH2 2750   1.072   1.828  -0.024  0.0385 -0.2376 -0.3001
  915TIP3    H1 2751   1.015   1.751  -0.027 -1.8207  0.9896  0.8506
  915TIP3    H2 2752   1.083   1.846   0.070  0.7684  0.6596 -0.5378
  916TIP3   OH2 2753   4.098   2.972   3.698 -0.3708 -0.4455  0.2000
  916TIP3    H1 2754   4.019   2.924   3.675 -1.0531  0.4682  0.6008
  916TIP3    H2 2755   4.165   2.904   3.705 -0.8900 -1.1264 -1.0567
  917TIP3   OH2 2756   1.796   1.102   2.247  0.3434 -0.3387  0.4667
  917TIP3    H1 2757   1.834   1.029   2.197  0.4400 -0.2652  0.4325
  917TIP3    H2 2758   1.870   1.160   2.263 -0.4216  2.1632 -3.5246
  918TIP3   OH2 2759   5.568   1.546   4.430  0.2344 -0.3950 -0.8062
  918TIP3    H1 2760   5.488   1.519   4.476  0.6451 -0.7650 -0.2886
  918TIP3    H2 2761   5.548   1.632   4.394 -0.2075 -0.2336 -0.1849
  919TIP3   OH2 2762   6.229   2.924   2.726  0.6505  0.0284 -0.2150
  919TIP3    H1 2763   6.306   2.888   2.770  0.1110  1.0043  1.6489
  919TIP3    H2 2764   6.236   3.018   2.740 -0.3346  0.2205 -0.9471
  920TIP3   OH2 2765   1.078   0.401   3.660  0.0520 -0.8143  0.0127
  920TIP3    H1 2766   0.993   0.428   3.625 -0.0476  1.0598  1.4557
  920TIP3    H2 2767   1.141   0.429   3.594 -0.3043  0.2096  0.0758
  921TIP3   OH2 2768   5.419   5.633   3.144  0.0161 -0.0635  0.3390
  921TIP3    H1 2769   5.361   5.561   3.169 -1.7835  0.8801 -0.9031
  921TIP3    H2 2770   5.362   5.697   3.103  1.6062  1.9607  1.0817
  922TIP3   OH2 2771   0.241   5.479   0.902  0.0894 -0.0768 -0.1636
  922TIP3    H1 2772   0.152   5.508   0.921 -0.0821 -1.6861  1.8042
  922TIP3    H2 2773   0.230   5.398   0.851  0.4558  0.1949 -0.6863
  923TIP3   OH2 2774   2.081   3.474   1.277  0.2999 -0.6739  0.4508
  923TIP3    H1 2775   2.039   3.399   1.319  0.2868 -2.2569 -2.1466
  923TIP3    H2 2776   2.173   3.449   1.271  0.4840 -0.0115  0.5040
  924TIP3   OH2 2777   2.154   0.227   1.718 -0.5731 -0.5802 -0.0952
  924TIP3    H1 2778   2.221   0.219   1.651  0.3034  1.0093  0.5487
  924TIP3    H2 2779   2.088   0.285   1.680  1.1653  2.4877  1.2477
  925TIP3   OH2 2780   3.319   5.268   1.032 -0.2621 -0.2704  0.9735
  925TIP3    H1 2781   3.229   5.280   1.001 -0.2267 -0.0805  0.9442
  925TIP3    H2 2782   3.373   5.311   0.966 -0.1852  0.1000  1.2753
  926TIP3   OH2 2783   5.971   1.913   4.545 -0.1373  0.3709  0.2313
  926TIP3    H1 2784   6.014   1.967   4.478 -1.7068 -0.9676 -1.9604
  926TIP3    H2 2785   5.896   1.965   4.572 -0.8503 -0.0642 -0.8456
  927TIP3   OH2 2786   1.164   3.291   0.739  0.1452  0.3839  0.1392
  927TIP3    H1 2787   1.211   3.366   0.775  0.6270 -0.9557  2.5520
  927TIP3    H2 2788   1.077   3.296   0.779 -0.3991  0.5558 -1.0273
  928TIP3   OH2 2789   4.990   3.704   1.107 -0.3307  0.0015 -0.3515
  928TIP3    H1 2790   5.067   3.686   1.052 -1.2876  1.7223 -2.3993
  928TIP3    H2 2791   4.977   3.624   1.158  2.5544 -0.4863 -0.2161
  929TIP3   OH2 2792   5.803   5.402   2.798 -0.2038 -0.1100 -0.1690
  929TIP3    H1 2793   5.790   5.428   2.707 -0.5582  1.1645  0.2107
  929TIP3    H2 2794   5.737   5.453   2.846  0.1375 -0.5769  0.8178
  930TIP3   OH2 2795   1.812   4.001   0.860 -0.3380 -0.3866 -0.5706
  930TIP3    H1 2796   1.860   4.018   0.941 -1.0134 -0.3743 -0.1571
  930TIP3    H2 2797   1.843   4.068   0.799  0.7140 -0.8501 -0.5652
  931TIP3   OH2 2798   1.735   1.733   0.257  0.3339  0.3876 -0.7094
  931TIP3    H1 2799   1.710   1.779   0.338 -0.2444  0.5141 -0.9505
  931TIP3    H2 2800   1.666   1.756   0.195  1.1155  0.8328 -1.4446
  932TIP3   OH2 2801   3.953   4.308   3.322 -0.2028 -0.1008 -0.2367
  932TIP3    H1 2802   3.979   4.325   3.231  0.0732  2.1907  0.2024
  932TIP3    H2 2803   4.034   4.313   3.372 -0.0320 -3.3228 -0.0090
  933TIP3   OH2 2804   4.795   3.573   0.480 -0.2072 -0.0068  0.2743
  933TIP3    H1 2805   4.852   3.522   0.423 -0.5116  0.0543 -0.0914
  933TIP3    H2 2806   4.755   3.638   0.422  0.2011  0.6739  0.7366
  934TIP3   OH2 2807   4.048   1.451   4.821  0.2114  0.0273 -0.0150
  934TIP3    H1 2808   4.015   1.525   4.771 -1.1216 -0.6364 -0.1540
  934TIP3    H2 2809   4.141   1.445   4.797  0.5962  2.1665  0.6761
  935TIP3   OH2 2810   1.558   4.802   1.150  0.4495  0.6435  0.0781
  935TIP3    H1 2811   1.628   4.771   1.208 -0.7864  0.0457  1.3140
  935TIP3    H2 2812   1.537   4.726   1.096  0.1512  0.5530  0.3224
  936TIP3   OH2 2813   2.277   0.762   3.303  0.0227  0.0057 -0.4777
  936TIP3    H1 2814   2.363   0.741   3.267  0.3438  1.7237 -0.7783
  936TIP3    H2 2815   2.292   0.771   3.397  0.4840  1.6628 -0.6877
  937TIP3   OH2 2816   1.239   2.291   2.106 -0.5049  0.6808 -0.2449
  937TIP3    H1 2817   1.303   2.221   2.110 -0.2976  0.9098  1.5165
  937TIP3    H2 2818   1.291   2.371   2.114 -0.8839  0.9403 -0.3438
  938TIP3   OH2 2819   3.923   1.545   1.374 -0.0368  0.1813  0.6700
  938TIP3    H1 2820   3.978   1.514   1.445 -0.0315  0.0636  0.6144
  938TIP3    H2 2821   3.963   1.628   1.347  0.4266 -0.1711  0.2678
  939TIP3   OH2 2822   3.667   5.374   3.008  0.1964 -0.0529 -0.3711
  939TIP3    H1 2823   3.615   5.303   2.969  1.4488 -0.5009 -1.2631
  939TIP3    H2 2824   3.648   5.450   2.953 -0.6985  0.1847  0.2408
  940TIP3   OH2 2825   4.325   0.088   2.967 -0.2892 -0.0166  0.3743
  940TIP3    H1 2826   4.401   0.119   3.016 -0.9526  2.0883  0.1507
  940TIP3    H2 2827   4.263   0.060   3.034 -0.5824  1.3818  0.7114
  941TIP3   OH2 2828   2.852   5.708   3.997 -0.2335 -0.3845 -0.4087
  941TIP3    H1 2829   2.769   5.700   3.949 -0.2700 -0.0199 -0.4025
  941TIP3    H2 2830   2.827   5.732   4.086 -0.0507  1.2529 -0.7805
  942TIP3   OH2 2831   0.258   1.267   2.784  0.6625  0.7020  0.3713
  942TIP3    H1 2832   0.276   1.312   2.701  3.0223 -1.8891 -0.6727
  942TIP3    H2 2833   0.343   1.263   2.828  0.0416 -0.5981  1.5245
  943TIP3   OH2 2834   4.968   3.352   5.038 -0.4572  0.1844 -0.0507
  943TIP3    H1 2835   4.886   3.303   5.047  0.2377 -1.5301 -2.1591
  943TIP3    H2 2836   4.967   3.384   4.947  0.2712  1.9815  0.5308
  944TIP3   OH2 2837   1.080   2.761   2.676 -0.2979  0.1633 -0.8386
  944TIP3    H1 2838   1.033   2.844   2.668 -0.6029  0.0888  0.0740
  944TIP3    H2 2839   1.012   2.694   2.666  0.0240 -0.0047 -2.1015
  945TIP3   OH2 2840   2.370   4.077   4.156 -0.1987  0.0985 -0.6419
  945TIP3    H1 2841   2.386   4.151   4.215 -1.2415  0.1605 -0.4316
  945TIP3    H2 2842   2.458   4.042   4.138  0.4342  2.0377 -1.6123
  946TIP3   OH2 2843   0.271   5.509   5.111 -0.0804 -0.0524  0.0509
  946TIP3    H1 2844   0.193   5.550   5.147  0.5660  1.4877 -0.2109
  946TIP3    H2 2845   0.245   5.484   5.022 -0.5002 -0.2439  0.2250
  947TIP3   OH2 2846   5.006   0.183   4.735 -0.1000 -0.0077  0.3032
  947TIP3    H1 2847   5.032   0.275   4.738  0.6530 -0.1743 -0.7198
  947TIP3    H2 2848   5.063   0.139   4.798  0.5477 -0.0026 -0.2724
  948TIP3   OH2 2849   0.877   0.435   0.087  0.2594  0.1085 -0.5504
  948TIP3    H1 2850   0.944   0.417   0.021  0.7134  0.2597 -0.1320
  948TIP3    H2 2851   0.913   0.506   0.139 -0.0952 -0.0227 -0.1243
  949TIP3   OH2 2852   4.613   5.196   2.588  0.0935  0.4645 -0.2292
  949TIP3    H1 2853   4.606   5.147   2.669 -0.1480 -1.3857 -1.3171
  949TIP3    H2 2854   4.697   5.240   2.593 -0.0400  0.5870  1.1189
  950TIP3   OH2 2855   4.625   5.931   2.132 -0.5563 -0.4100  0.2412
  950TIP3    H1 2856   4.663   6.019   2.124 -0.5704 -0.5172 -1.1015
  950TIP3    H2 2857   4.696   5.877   2.165 -0.5168  0.0698  0.9820
  951TIP3   OH2 2858   5.407   5.120   2.760  0.2497 -0.0839 -0.1120
  951TIP3    H1 2859   5.415   5.141   2.667  1.5224  0.2342  0.0469
  951TIP3    H2 2860   5.496   5.128   2.794 -0.3164  0.6454  1.3070
  952TIP3   OH2 2861   2.607   3.310   4.632 -0.1173  0.0553 -0.2353
  952TIP3    H1 2862   2.616   3.387   4.576  0.2372  0.6315  0.5967
  952TIP3    H2 2863   2.522   3.273   4.606  0.9989 -1.0007 -2.7107
  953TIP3   OH2 2864   3.316   4.445   3.242 -0.3095  0.0822 -0.4104
  953TIP3    H1 2865   3.362   4.527   3.258  0.5248 -0.4885  0.2403
  953TIP3    H2 2866   3.274   4.424   3.325 -1.1330  0.2109 -0.7844
  954TIP3   OH2 2867   0.691   5.584   3.692 -0.2372  0.2729  0.8264
  954TIP3    H1 2868   0.780   5.609   3.715  0.4855 -0.6869 -0.7952
  954TIP3    H2 2869   0.668   5.518   3.758  0.3734  0.2830  1.0567
  955TIP3   OH2 2870   4.821   3.433   3.728 -0.2848 -0.1427 -0.4852
  955TIP3    H1 2871   4.787   3.381   3.655  0.5469  1.5943 -2.1836
  955TIP3    H2 2872   4.753   3.498   3.745 -0.4233 -0.4696  0.2080
  956TIP3   OH2 2873   0.195   4.062   1.834  0.3657 -0.5893  0.2847
  956TIP3    H1 2874   0.113   4.111   1.828  0.7317  0.2245  1.4958
  956TIP3    H2 2875   0.189   4.014   1.916  1.6093  0.5087  1.0631
  957TIP3   OH2 2876   6.297   2.164   4.151 -0.4842 -0.1268  0.1966
  957TIP3    H1 2877   6.310   2.158   4.057 -0.8163  0.0386  0.1384
  957TIP3    H2 2878   6.213   2.119   4.167 -0.5842  0.1204  0.3734
  958TIP3   OH2 2879   5.006   1.709   5.054  0.2201 -0.3956 -0.2559
  958TIP3    H1 2880   4.951   1.780   5.086 -1.0831 -1.9116  1.0933
  958TIP3    H2 2881   5.092   1.725   5.094 -0.4451 -0.3184  1.2308
  959TIP3   OH2 2882   5.046   5.586   1.049  0.2724 -0.0427 -0.3589
  959TIP3    H1 2883   5.082   5.665   1.008  1.1592 -0.7033 -0.9099
  959TIP3    H2 2884   4.952   5.603   1.056  0.0767  0.1853 -2.5743
  960TIP3   OH2 2885   5.732   5.034   0.817 -0.1239 -0.1886  0.4612
  960TIP3    H1 2886   5.701   4.945   0.829  0.5979 -0.5604 -0.3647
  960TIP3    H2 2887   5.824   5.032   0.843 -0.0818  0.3028  0.3766
  961TIP3   OH2 2888   0.679   2.986   2.523 -0.2889 -0.0307  0.1702
  961TIP3    H1 2889   0.604   2.934   2.495  0.5205 -0.3583 -1.4747
  961TIP3    H2 2890   0.678   3.063   2.467  1.1360 -0.5009 -0.5376
  962TIP3   OH2 2891   5.661   3.663   3.089 -0.1211  0.2984 -0.4800
  962TIP3    H1 2892   5.672   3.569   3.076 -3.1642 -0.5233  1.7759
  962TIP3    H2 2893   5.605   3.690   3.017 -1.4529 -0.2544  0.3072
  963TIP3   OH2 2894   4.880   1.617   3.230  0.2074 -0.3437 -0.2956
  963TIP3    H1 2895   4.786   1.638   3.235  0.3039  0.0472 -0.0168
  963TIP3    H2 2896   4.917   1.689   3.179  0.5389  0.1540  0.6237
  964TIP3   OH2 2897   4.331   1.045   0.177 -0.7740 -0.3446 -0.2437
  964TIP3    H1 2898   4.389   1.035   0.252  0.0335  1.2336 -0.6229
  964TIP3    H2 2899   4.246   1.012   0.208 -0.3532 -0.1349  1.1996
  965TIP3   OH2 2900   2.847   5.768   5.143  0.0550 -0.5309  0.7258
  965TIP3    H1 2901   2.934   5.805   5.127 -0.0739 -0.0949  1.0050
  965TIP3    H2 2902   2.861   5.709   5.218  0.0209 -0.0838  1.0934
  966TIP3   OH2 2903   2.719   0.112   3.617  0.0865 -0.4102 -0.3754
  966TIP3    H1 2904   2.653   0.159   3.566  0.4353 -0.4605 -0.8708
  966TIP3    H2 2905   2.670   0.079   3.693 -0.0949  1.0705  0.1963
  967TIP3   OH2 2906   3.148   4.440   3.993 -0.6907  0.5691  0.5080
  967TIP3    H1 2907   3.088   4.439   3.918 -0.0238 -1.0685 -0.0395
  967TIP3    H2 2908   3.091   4.453   4.069 -1.6287  0.0379 -0.0787
  968TIP3   OH2 2909   3.136   0.086   0.527  0.1810  0.9410  0.0387
  968TIP3    H1 2910   3.096   0.016   0.578 -0.3210  0.5148 -0.9270
  968TIP3    H2 2911   3.230   0.078   0.545  0.0041  0.8595  0.9595
  969TIP3   OH2 2912   3.573   0.402   3.177  0.3252  0.2270  0.6914
  969TIP3    H1 2913   3.478   0.406   3.164  0.1083 -1.5159  1.4974
  969TIP3    H2 2914   3.587   0.445   3.261  0.0777 -0.5681  1.1550
  970TIP3   OH2 2915   0.419   1.599   3.948 -0.9461  0.1455  0.3094
  970TIP3    H1 2916   0.391   1.674   4.001  1.1410  0.8136  0.5954
  970TIP3    H2 2917   0.345   1.539   3.950 -2.8620  2.3153 -0.2253
  971TIP3   OH2 2918   0.366   1.398   2.540 -0.7978 -0.1054 -0.1793
  971TIP3    H1 2919   0.444   1.450   2.520 -1.5224  2.4046  2.6325
  971TIP3    H2 2920   0.297   1.437   2.487 -1.0100  0.8519  0.7530
  972TIP3   OH2 2921   3.991   5.428   1.161  0.0186 -0.2870 -0.5992
  972TIP3    H1 2922   3.965   5.501   1.216  2.6715 -1.3746  2.3678
  972TIP3    H2 2923   3.913   5.372   1.156 -1.6200  1.9202 -1.8038
  973TIP3   OH2 2924   1.008   0.070   2.673 -0.7278  0.1337  0.2503
  973TIP3    H1 2925   1.019   0.159   2.708  0.1137 -0.8880  2.7977
  973TIP3    H2 2926   1.095   0.031   2.681 -0.9649 -0.7810 -1.3339
  974TIP3   OH2 2927   5.260   1.206   2.751  0.2241  1.2044 -0.3079
  974TIP3    H1 2928   5.315   1.174   2.823 -0.5706 -0.1832 -0.2734
  974TIP3    H2 2929   5.281   1.299   2.744  1.8297  0.9250  0.3544
  975TIP3   OH2 2930   4.774   4.467   1.364  1.0160 -0.0612 -0.0316
  975TIP3    H1 2931   4.704   4.486   1.302  0.0813 -1.0156  0.6788
  975TIP3    H2 2932   4.821   4.549   1.374  0.9780  0.2008 -1.7219
  976TIP3   OH2 2933   1.367   0.410   2.084  0.7718 -0.0192  0.5249
  976TIP3    H1 2934   1.456   0.440   2.068  0.5986  0.0395 -0.3978
  976TIP3    H2 2935   1.324   0.483   2.129  0.8478  0.4408 -0.1319
  977TIP3   OH2 2936   5.088   3.335   3.724 -0.8135 -0.4462 -0.3245
  977TIP3    H1 2937   5.003   3.376   3.738 -0.6618  0.0292 -0.7675
  977TIP3    H2 2938   5.105   3.345   3.630 -0.6140 -1.2140 -0.3755
  978TIP3   OH2 2939   3.938   3.992   4.949  0.2186 -1.1282  0.2911
  978TIP3    H1 2940   3.961   4.082   4.969 -1.5644 -0.2094 -1.5107
  978TIP3    H2 2941   4.022   3.947   4.939  1.1865  0.8799 -1.0667
  979TIP3   OH2 2942   6.235   4.186   2.806 -0.7295  0.0613 -0.1767
  979TIP3    H1 2943   6.185   4.233   2.873 -0.7353 -0.3454  0.1137
  979TIP3    H2 2944   6.322   4.176   2.845 -0.9469 -0.8481  0.0999
  980TIP3   OH2 2945   3.823   0.232   4.984 -0.1813  0.0430 -0.2394
  980TIP3    H1 2946   3.900   0.206   5.035  1.3554 -0.7600 -2.8110
  980TIP3    H2 2947   3.774   0.151   4.973  1.1091 -0.5124 -2.5294
  981TIP3   OH2 2948   0.677   3.505   3.713  0.2633  0.3716 -0.5443
  981TIP3    H1 2949   0.687   3.423   3.761 -1.9267  0.2442 -0.2412
  981TIP3    H2 2950   0.765   3.522   3.677  1.0031 -1.5472  0.2246
  982TIP3   OH2 2951   2.383   3.761   1.114  0.4450 -0.3004 -0.2099
  982TIP3    H1 2952   2.296   3.798   1.130  0.3519 -0.1817 -0.9768
  982TIP3    H2 2953   2.366   3.670   1.088  0.6344 -0.6959  0.9931
  983TIP3   OH2 2954   3.702   5.060   0.324  0.5051  0.5534  0.1436
  983TIP3    H1 2955   3.685   5.153   0.337  1.8494  0.7598  0.5691
  983TIP3    H2 2956   3.616   5.022   0.306  0.0963  2.1105 -1.5043
  984TIP3   OH2 2957   5.573   0.435   2.787  0.1427 -0.0441 -0.7334
  984TIP3    H1 2958   5.516   0.364   2.759  1.7241 -1.0409 -1.5832
  984TIP3    H2 2959   5.638   0.393   2.844  0.3799  0.9481 -0.2438
  985TIP3   OH2 2960   2.394   5.249   2.183  0.3490  0.3640  0.4963
  985TIP3    H1 2961   2.326   5.311   2.157 -0.2078  0.1112  1.3115
  985TIP3    H2 2962   2.473   5.302   2.190  0.3257  0.6057 -0.7692
  986TIP3   OH2 2963   5.345   0.820   0.028  0.2676  0.3795  0.0217
  986TIP3    H1 2964   5.380   0.734   0.050 -1.2246 -0.0035  1.0536
  986TIP3    H2 2965   5.288   0.805  -0.047 -0.0710  0.4529  0.2642
  987TIP3   OH2 2966   1.914   1.112   1.473  0.5647  0.1591 -0.0023
  987TIP3    H1 2967   1.932   1.021   1.498  0.7029  0.0775 -0.3825
  987TIP3    H2 2968   1.870   1.105   1.388 -0.5641  0.3973  0.5491
  988TIP3   OH2 2969   1.260   0.884   2.305 -0.0668  0.1242  0.3758
  988TIP3    H1 2970   1.264   0.868   2.399  0.9450 -0.9602  0.1648
  988TIP3    H2 2971   1.345   0.922   2.283 -0.5299  0.9650 -0.0111
  989TIP3   OH2 2972   6.025   1.586   2.187 -0.1332 -0.2209  0.2630
  989TIP3    H1 2973   6.074   1.553   2.111 -1.1916  0.7921 -0.9098
  989TIP3    H2 2974   5.963   1.517   2.208  1.0291 -1.0563  1.0686
  990TIP3   OH2 2975   5.615   2.460   0.519 -0.3182 -1.1371 -0.4984
  990TIP3    H1 2976   5.523   2.438   0.510 -1.3054  1.2889  2.1509
  990TIP3    H2 2977   5.638   2.434   0.609  1.1654 -0.4327 -0.6308
  991TIP3   OH2 2978   5.968   4.964   3.211 -0.2916 -0.3196  0.2808
  991TIP3    H1 2979   5.986   4.900   3.142  2.1716  0.2302  0.3363
  991TIP3    H2 2980   5.872   4.969   3.214 -0.6710  1.1526 -4.5623
  992TIP3   OH2 2981   0.732   3.186   0.319 -0.3505  0.2353 -0.0327
  992TIP3    H1 2982   0.725   3.255   0.385  1.5455 -0.7629  1.3340
  992TIP3    H2 2983   0.706   3.106   0.364  0.2111 -0.3581 -0.7224
  993TIP3   OH2 2984   0.188   3.862   4.895 -0.0100 -0.1262 -0.2717
  993TIP3    H1 2985   0.150   3.776   4.911  0.3229 -0.6435 -2.1008
  993TIP3    H2 2986   0.184   3.874   4.800  0.2981  1.7216 -0.1001
  994TIP3   OH2 2987   6.296   4.496   3.290 -0.0472  0.1098 -0.1227
  994TIP3    H1 2988   6.331   4.513   3.378  0.2694 -1.9910  0.2047
  994TIP3    H2 2989   6.357   4.432   3.252 -1.1937 -0.3878 -1.1756
  995TIP3   OH2 2990   5.758   2.508   4.117  0.2171 -0.9966  0.4431
  995TIP3    H1 2991   5.834   2.501   4.175  0.3142 -2.5596  0.1941
  995TIP3    H2 2992   5.795   2.504   4.029  0.1813  2.5217  0.1258
  996TIP3   OH2 2993   5.079   2.792   2.038 -0.2825 -0.0062 -0.0693
  996TIP3    H1 2994   5.119   2.787   1.952  0.4684 -0.9371  0.3216
  996TIP3    H2 2995   4.988   2.819   2.021 -0.5756 -1.6483 -1.2731
  997TIP3   OH2 2996   6.174   1.308   4.593  0.4969 -0.2827  0.0169
  997TIP3    H1 2997   6.255   1.284   4.637  0.1860 -2.4957 -0.5296
  997TIP3    H2 2998   6.115   1.234   4.608 -0.1783 -0.4139 -2.7109
  998TIP3   OH2 2999   5.106   2.003   4.513  0.3411 -0.2755  0.3313
  998TIP3    H1 3000   5.106   1.949   4.593  0.4386  0.9586  1.2004
  998TIP3    H2 3001   5.032   2.062   4.525  1.7939  1.5708  0.6947
  999TIP3   OH2 3002   5.916   3.701   3.348 -0.6822 -0.7149  0.4918
  999TIP3    H1 3003   5.858   3.744   3.285  0.9472  2.4263  0.9312
  999TIP3    H2 3004   5.857   3.671   3.418 -2.2026 -1.6773 -1.1254
 1000TIP3   OH2 3005   5.661   5.294   2.331  0.0924 -0.5610 -0.0190
 1000TIP3    H1 3006   5.616   5.371   2.366 -0.8708 -1.1860  0.1369
 1000TIP3    H2 3007   5.673   5.313   2.238 -0.8907 -0.5702 -0.1508
 1001TIP3   OH2 3008   5.057   1.008   0.563  0.2603 -0.1364 -0.0122
 1001TIP3    H1 3009   5.147   0.997   0.592  0.9835  0.2622 -1.9496
 1001TIP3    H2 3010   5.021   0.919   0.562  0.4992 -0.2602  1.0904
 1002TIP3   OH2 3011   1.864   4.760   4.785 -0.5601  0.2913  1.2579
 1002TIP3    H1 3012   1.898   4.682   4.830 -1.0515  0.3345  1.7149
 1002TIP3    H2 3013   1.769   4.754   4.796 -0.5837  1.1118  1.5609
 1003TIP3   OH2 3014   1.876   5.532   0.918 -0.4256  0.1058  0.2052
 1003TIP3    H1 3015   1.916   5.609   0.958 -0.8449  1.2105 -1.3862
 1003TIP3    H2 3016   1.950   5.481   0.884 -0.2198  0.7155 -0.2791
 1004TIP3   OH2 3017   1.389   3.842   4.735  0.1048 -0.4905 -0.1287
 1004TIP3    H1 3018   1.383   3.779   4.807 -1.9791 -0.0920  0.1102
 1004TIP3    H2 3019   1.302   3.842   4.696  1.3330 -1.2404 -3.1923
 1005TIP3   OH2 3020   4.037   3.762   2.755 -0.4968  0.4216  0.8546
 1005TIP3    H1 3021   4.065   3.780   2.666  0.2028  0.2147  1.0176
 1005TIP3    H2 3022   3.945   3.787   2.758  0.2263  3.4504  0.9325
 1006TIP3   OH2 3023   1.495   0.606   1.765  0.2298 -0.2537  0.2925
 1006TIP3    H1 3024   1.587   0.602   1.791  0.5165  0.0072 -0.6620
 1006TIP3    H2 3025   1.467   0.694   1.790  0.7021  0.2502 -0.8844
 1007TIP3   OH2 3026   2.006   4.831   4.564  0.0771  0.4016 -0.0217
 1007TIP3    H1 3027   1.949   4.812   4.639  0.7665  0.7796  0.6146
 1007TIP3    H2 3028   2.017   4.746   4.521  1.0672 -0.2042  1.3256
 1008TIP3   OH2 3029   0.770   5.729   0.064 -0.2411  0.9016  0.2192
 1008TIP3    H1 3030   0.701   5.695   0.122  1.6473  0.5738  2.4348
 1008TIP3    H2 3031   0.809   5.651   0.025  0.8760  0.7957  1.4602
 1009TIP3   OH2 3032   1.122   4.324   3.851  0.0035  0.5875  0.4016
 1009TIP3    H1 3033   1.194   4.265   3.872  0.1145  0.7019  0.3422
 1009TIP3    H2 3034   1.143   4.405   3.899  0.8039  1.2275 -0.9920
 1010TIP3   OH2 3035   0.221   4.776   1.329  0.6682 -0.2608 -0.1005
 1010TIP3    H1 3036   0.263   4.803   1.248  3.1315 -1.5067  0.6743
 1010TIP3    H2 3037   0.271   4.818   1.399 -2.2711  1.9577  0.8678
 1011TIP3   OH2 3038   1.259   1.122   1.944 -0.5911 -0.1881  0.4993
 1011TIP3    H1 3039   1.247   1.207   1.987 -0.5072 -1.2599  2.8210
 1011TIP3    H2 3040   1.194   1.065   1.986  0.4195 -1.6437  0.1552
 1012TIP3   OH2 3041   2.245   4.597   1.580 -0.1552 -0.1933  0.3751
 1012TIP3    H1 3042   2.281   4.681   1.552  0.1658 -0.2631  0.5700
 1012TIP3    H2 3043   2.288   4.533   1.523  1.2682 -0.4438  1.6376
 1013TIP3   OH2 3044   3.459   4.683   3.254  0.2347 -0.1278  0.3763
 1013TIP3    H1 3045   3.483   4.773   3.275 -0.0176  0.0483 -0.0834
 1013TIP3    H2 3046   3.459   4.680   3.159  0.2422 -0.6169  0.3888
 1014TIP3   OH2 3047   6.257   5.645   3.578 -0.3623 -0.0817  0.5204
 1014TIP3    H1 3048   6.344   5.608   3.568 -1.4971 -2.7858 -0.4470
 1014TIP3    H2 3049   6.254   5.678   3.668  1.8000  0.6240  0.3811
 1015TIP3   OH2 3050   3.782   4.741   2.318  0.2724 -0.0687 -0.1331
 1015TIP3    H1 3051   3.720   4.681   2.277  0.6914  0.5748 -1.7954
 1015TIP3    H2 3052   3.786   4.816   2.259 -0.2061  1.6278  1.8521
 1016TIP3   OH2 3053   1.754   1.846   3.518  0.0550 -0.1054 -0.2542
 1016TIP3    H1 3054   1.737   1.798   3.437  1.0463  2.7898 -2.3557
 1016TIP3    H2 3055   1.827   1.904   3.496 -0.8228  2.0767  2.1275
 1017TIP3   OH2 3056   5.842   4.381   2.949 -0.3385  0.1499 -0.1562
 1017TIP3    H1 3057   5.796   4.310   2.904  3.0506 -2.3544  0.0053
 1017TIP3    H2 3058   5.819   4.459   2.898 -1.4050 -1.5801 -2.5636
 1018TIP3   OH2 3059   4.946   1.592   0.804 -0.2719 -0.1660 -0.2709
 1018TIP3    H1 3060   4.872   1.652   0.795  0.8660  1.3120 -0.2193
 1018TIP3    H2 3061   4.997   1.605   0.724 -0.3974 -1.6772 -0.6274
 1019TIP3   OH2 3062   4.583   5.067   2.883 -0.1623  0.1956  0.1307
 1019TIP3    H1 3063   4.507   5.017   2.852 -0.4951  0.8381 -0.1054
 1019TIP3    H2 3064   4.547   5.151   2.910  0.1767 -0.1674  1.8543
 1020TIP3   OH2 3065   0.082   1.161   1.774  0.2109  0.2455  0.0563
 1020TIP3    H1 3066   0.117   1.233   1.826  0.6510  0.6762 -0.8025
 1020TIP3    H2 3067   0.140   1.088   1.791  1.2678  0.8125 -0.9624
 1021TIP3   OH2 3068   5.330   4.140   5.007  0.2591 -0.1330 -0.1492
 1021TIP3    H1 3069   5.277   4.064   4.983 -0.2387 -0.2475  1.2312
 1021TIP3    H2 3070   5.397   4.145   4.939 -0.8083 -0.6983 -1.2886
 1022TIP3   OH2 3071   1.926   4.764   3.943 -0.2168 -0.0361  0.7802
 1022TIP3    H1 3072   1.881   4.680   3.933  1.7340 -0.9597 -1.2061
 1022TIP3    H2 3073   1.869   4.815   4.001 -4.4621 -0.6131 -2.3545
 1023TIP3   OH2 3074   1.045   0.530   1.336 -0.2086 -0.1058 -0.1383
 1023TIP3    H1 3075   0.994   0.514   1.257 -0.3118 -0.0084 -0.0914
 1023TIP3    H2 3076   1.129   0.486   1.320  0.3745  1.2489 -0.9716
 1024TIP3   OH2 3077   5.762   4.381   1.733 -0.3747 -0.1346  1.2452
 1024TIP3    H1 3078   5.784   4.473   1.717 -2.2263  0.7680  3.4421
 1024TIP3    H2 3079   5.715   4.353   1.654  1.9745  0.0796 -0.3420
 1025TIP3   OH2 3080   2.919   3.426   4.817 -0.0390 -0.3441  0.7619
 1025TIP3    H1 3081   2.973   3.349   4.835 -0.1566 -0.5255  0.3485
 1025TIP3    H2 3082   2.976   3.484   4.767  0.7088  0.7168  2.7771
 1026TIP3   OH2 3083   6.079   5.192   0.172  0.0102 -0.0387 -0.4427
 1026TIP3    H1 3084   5.985   5.194   0.186 -0.1185  0.3838 -1.3117
 1026TIP3    H2 3085   6.117   5.217   0.256 -0.6711  0.5940 -0.3228
 1027TIP3   OH2 3086   4.879   5.061   0.407  0.1709 -0.3138 -0.2922
 1027TIP3    H1 3087   4.797   5.090   0.447  1.4390  0.1892  2.1775
 1027TIP3    H2 3088   4.853   5.007   0.333 -2.3497  1.6398 -0.9479
 1028TIP3   OH2 3089   0.130   4.635   4.562  0.0306  0.1258 -0.4037
 1028TIP3    H1 3090   0.207   4.657   4.509  0.7070 -0.2382  0.4258
 1028TIP3    H2 3091   0.057   4.673   4.513  0.5943 -0.5428 -1.8096
 1029TIP3   OH2 3092   1.192   0.159   4.475 -0.0403  0.5290 -0.3919
 1029TIP3    H1 3093   1.196   0.142   4.569 -0.0369 -0.8196 -0.6237
 1029TIP3    H2 3094   1.280   0.192   4.453 -0.1139  1.0734  0.1025
 1030TIP3   OH2 3095   3.153   3.606   4.420  0.4031  0.1621 -0.8603
 1030TIP3    H1 3096   3.230   3.553   4.399  1.4003  0.9666  0.6568
 1030TIP3    H2 3097   3.186   3.696   4.424 -0.4687  0.4404  0.4942
 1031TIP3   OH2 3098   0.290   2.365   2.518  0.1997 -0.0041 -0.2121
 1031TIP3    H1 3099   0.341   2.316   2.454  1.4286  0.3720  0.4478
 1031TIP3    H2 3100   0.351   2.382   2.590 -0.6692  1.0357  0.3130
 1032TIP3   OH2 3101   4.535   0.964   2.747  0.0864  0.0558 -0.0396
 1032TIP3    H1 3102   4.569   0.955   2.657  1.4584  0.2213  0.4368
 1032TIP3    H2 3103   4.614   0.968   2.802 -0.6976 -3.2136  1.5200
 1033TIP3   OH2 3104   5.391   3.864   5.082  0.1276 -0.1939 -0.2549
 1033TIP3    H1 3105   5.421   3.927   5.148  0.4601 -1.2792  0.6594
 1033TIP3    H2 3106   5.447   3.882   5.006  0.3161  0.5140  0.0343
 1034TIP3   OH2 3107   3.895   1.685   0.016 -0.2295  0.5935  0.1477
 1034TIP3    H1 3108   3.921   1.593   0.024 -0.5712  0.3435 -1.2987
 1034TIP3    H2 3109   3.955   1.733   0.073 -0.8659 -0.6317  1.9450
 1035TIP3   OH2 3110   2.406   1.371   2.964  0.0515  0.6649  0.3978
 1035TIP3    H1 3111   2.333   1.310   2.953 -0.0345  0.2278  2.8050
 1035TIP3    H2 3112   2.367   1.458   2.958 -0.5004  0.4401  0.6920
 1036TIP3   OH2 3113   4.434   5.816   2.603  0.0588  0.0828  0.2217
 1036TIP3    H1 3114   4.515   5.857   2.573 -1.8888  2.0868 -3.0139
 1036TIP3    H2 3115   4.386   5.886   2.646 -1.3715 -0.0337 -1.1010
 1037TIP3   OH2 3116   0.629   4.117   4.135  0.1897  0.1241 -0.1343
 1037TIP3    H1 3117   0.576   4.185   4.095 -0.8231 -1.2627 -1.2349
 1037TIP3    H2 3118   0.694   4.095   4.069  1.4217  0.9855  0.7608
 1038TIP3   OH2 3119   6.134   3.464   3.708 -0.0055 -0.0116 -0.5802
 1038TIP3    H1 3120   6.112   3.494   3.620  3.1408  1.3728 -1.0570
 1038TIP3    H2 3121   6.207   3.404   3.694  0.7942  0.5233  1.0838
 1039TIP3   OH2 3122   1.348   5.731   1.522  0.0537 -0.5271  0.3384
 1039TIP3    H1 3123   1.320   5.819   1.498  1.0100 -0.0294  1.0073
 1039TIP3    H2 3124   1.294   5.709   1.598  1.7040  0.6275  1.9362
 1040TIP3   OH2 3125   2.389   2.001   0.599  0.3787  0.1409  0.0405
 1040TIP3    H1 3126   2.430   1.925   0.640  0.3404  0.5457  0.8575
 1040TIP3    H2 3127   2.442   2.076   0.629 -0.8661  0.6586  1.0400
 1041TIP3   OH2 3128   0.141   2.430   1.730 -0.0424  0.6047  0.0707
 1041TIP3    H1 3129   0.188   2.437   1.647 -1.0952 -1.3787 -0.7716
 1041TIP3    H2 3130   0.067   2.489   1.720  0.4311  1.2089  0.0592
 1042TIP3   OH2 3131   4.081   2.593   4.328 -0.0118  0.0124  0.1526
 1042TIP3    H1 3132   4.134   2.635   4.396 -0.9368  0.8147  0.3931
 1042TIP3    H2 3133   4.102   2.500   4.336  1.0253  0.2617  0.5265
 1043TIP3   OH2 3134   4.280   5.093   0.934 -0.3809  0.2736 -1.1275
 1043TIP3    H1 3135   4.278   4.998   0.929  0.7816  0.2356 -1.2306
 1043TIP3    H2 3136   4.324   5.112   1.017  0.4778  0.6947 -1.6632
 1044TIP3   OH2 3137   2.324   3.070   3.387  0.2892  0.2018  0.1989
 1044TIP3    H1 3138   2.342   2.977   3.379 -0.6510 -0.1186  1.5574
 1044TIP3    H2 3139   2.404   3.112   3.354  0.9723 -1.0743  0.1477
 1045TIP3   OH2 3140   2.036   1.052   4.673  0.2857  0.0132  0.0400
 1045TIP3    H1 3141   2.107   1.109   4.702  0.8287 -0.5690 -0.1313
 1045TIP3    H2 3142   1.972   1.112   4.634 -0.1983  0.7448  1.8819
 1046TIP3   OH2 3143   4.087   4.734   4.691 -0.1849 -0.1667  0.4874
 1046TIP3    H1 3144   4.135   4.652   4.699 -0.4659 -0.3757  0.0854
 1046TIP3    H2 3145   4.027   4.734   4.765 -0.4063 -0.4797  0.3121
 1047TIP3   OH2 3146   0.809   0.100   2.498 -0.1523 -0.7000  0.5511
 1047TIP3    H1 3147   0.857   0.132   2.422  0.8751  0.4564  1.6282
 1047TIP3    H2 3148   0.876   0.085   2.564 -1.1352 -0.2983  1.6884
 1048TIP3   OH2 3149   1.439   0.723   1.114 -0.1596  0.2210 -0.1362
 1048TIP3    H1 3150   1.422   0.646   1.167  0.7026  0.8326  1.0771
 1048TIP3    H2 3151   1.439   0.796   1.177  1.2196  0.9274 -0.9189
 1049TIP3   OH2 3152   0.761   3.097   0.643  0.0595  0.8553 -0.4575
 1049TIP3    H1 3153   0.842   3.075   0.598  1.4971 -1.5436  2.8903
 1049TIP3    H2 3154   0.780   3.178   0.689  0.1078  0.9643 -0.6669
 1050TIP3   OH2 3155   3.291   5.023   2.164 -0.1465  0.3304  0.3778
 1050TIP3    H1 3156   3.364   5.085   2.158  0.8502 -0.9425 -1.5693
 1050TIP3    H2 3157   3.329   4.944   2.202 -0.6108 -0.1874 -0.2158
 1051TIP3   OH2 3158   1.859   3.077   2.500  0.4736 -0.5117  0.7420
 1051TIP3    H1 3159   1.797   3.033   2.559  1.1081 -1.7958  0.4702
 1051TIP3    H2 3160   1.866   3.019   2.424  1.5249 -0.0635  0.4798
 1052TIP3   OH2 3161   0.777   3.784   3.813  0.6740 -0.2811  0.0230
 1052TIP3    H1 3162   0.746   3.793   3.903  1.7101 -0.4822  0.4159
 1052TIP3    H2 3163   0.734   3.706   3.780  1.8632 -1.4225  1.0530
 1053TIP3   OH2 3164   6.045   2.007   2.550  0.3641  0.0753 -0.3656
 1053TIP3    H1 3165   6.021   2.058   2.472 -2.0936 -0.1298  0.1978
 1053TIP3    H2 3166   6.136   2.032   2.567  0.7149  0.7490 -2.7928
 1054TIP3   OH2 3167   2.678   5.207   1.863  0.4767  0.0571 -0.0085
 1054TIP3    H1 3168   2.740   5.147   1.820 -0.2670 -1.9605  1.5349
 1054TIP3    H2 3169   2.733   5.272   1.905  1.2850  1.1763 -2.5862
 1055TIP3   OH2 3170   0.048   3.425   1.313 -0.1377 -0.1710 -0.5955
 1055TIP3    H1 3171   0.027   3.400   1.403  0.3087 -0.2895 -0.5200
 1055TIP3    H2 3172   0.144   3.419   1.308 -0.0950  0.5605 -0.8623
 1056TIP3   OH2 3173   0.649   3.836   4.127  0.7269  0.1405  0.6724
 1056TIP3    H1 3174   0.563   3.805   4.100  0.4415  0.5505  1.1003
 1056TIP3    H2 3175   0.639   3.930   4.138  0.5992 -0.0736  2.9106
 1057TIP3   OH2 3176   6.073   3.584   4.345  0.7368 -0.2089  0.1507
 1057TIP3    H1 3177   6.069   3.563   4.251  0.0648 -2.5171  0.6360
 1057TIP3    H2 3178   6.157   3.549   4.373  2.1538  2.7397  0.0110
 1058TIP3   OH2 3179   2.323   3.663   4.098 -0.2405  0.2557  0.2200
 1058TIP3    H1 3180   2.371   3.590   4.059 -2.5596 -1.8472  1.0111
 1058TIP3    H2 3181   2.302   3.633   4.186 -2.8934  1.0234 -0.0701
 1059TIP3   OH2 3182   2.867   4.228   2.401  0.5115 -0.2556 -0.2191
 1059TIP3    H1 3183   2.919   4.235   2.481  0.3139  1.4873 -0.1875
 1059TIP3    H2 3184   2.932   4.236   2.330  0.5232 -0.2193 -0.2046
 1060TIP3   OH2 3185   2.755   4.708   4.439  0.3234 -0.1152 -0.1919
 1060TIP3    H1 3186   2.677   4.752   4.475 -0.0250 -0.6166 -0.3244
 1060TIP3    H2 3187   2.798   4.669   4.515  0.3197 -0.0337 -0.1474
 1061TIP3   OH2 3188   1.678   1.845   4.888 -0.2854  0.0219  0.2665
 1061TIP3    H1 3189   1.727   1.860   4.807 -0.5166  0.9069  0.2824
 1061TIP3    H2 3190   1.738   1.873   4.958 -0.6383  0.6794  0.3116
 1062TIP3   OH2 3191   4.099   0.224   3.353  0.7291 -0.5264  0.0499
 1062TIP3    H1 3192   4.172   0.255   3.407  1.0379 -0.5345 -0.3564
 1062TIP3    H2 3193   4.124   0.247   3.263 -0.1521  0.2331 -0.0176
 1063TIP3   OH2 3194   0.263   2.113   0.162  0.2151 -0.6250  0.0295
 1063TIP3    H1 3195   0.356   2.137   0.160  0.6025 -1.9674  0.7698
 1063TIP3    H2 3196   0.233   2.126   0.072  1.7161 -2.3325 -0.7862
 1064TIP3   OH2 3197   6.251   0.414   2.175 -0.1214 -0.9961  0.4713
 1064TIP3    H1 3198   6.194   0.362   2.118  0.1956 -0.2663 -0.5357
 1064TIP3    H2 3199   6.232   0.505   2.151  1.6459 -0.7389 -0.0945
 1065TIP3   OH2 3200   6.252   2.559   3.997  0.4150  0.1979 -0.3820
 1065TIP3    H1 3201   6.323   2.610   4.035 -0.3821  2.1140 -1.3832
 1065TIP3    H2 3202   6.295   2.502   3.933  1.1012  1.1308 -0.7775
 1066TIP3   OH2 3203   3.919   5.745   2.025 -0.4097 -0.9985 -0.7069
 1066TIP3    H1 3204   3.889   5.822   1.976 -2.2505 -1.4436 -0.3252
 1066TIP3    H2 3205   4.013   5.740   2.005 -0.5528  0.4461 -1.9549
 1067TIP3   OH2 3206   0.338   3.656   2.809 -0.1347 -0.1884 -0.3539
 1067TIP3    H1 3207   0.308   3.601   2.736  0.8437  0.4816 -1.2768
 1067TIP3    H2 3208   0.359   3.594   2.879  0.0044 -0.9157 -1.0340
 1068TIP3   OH2 3209   4.535   3.500   4.039 -0.7030 -0.6701 -0.2386
 1068TIP3    H1 3210   4.572   3.413   4.026  2.0714  0.4405 -0.4778
 1068TIP3    H2 3211   4.578   3.554   3.973 -2.4035  0.9010 -0.1440
 1069TIP3   OH2 3212   0.416   3.293   2.220  0.0578 -0.4522 -0.3985
 1069TIP3    H1 3213   0.447   3.234   2.150 -0.5188 -1.3610  0.0821
 1069TIP3    H2 3214   0.472   3.273   2.294 -0.9780 -1.3902  0.1724
 1070TIP3   OH2 3215   1.864   1.558   3.046 -0.3734  0.0559 -0.0993
 1070TIP3    H1 3216   1.835   1.535   3.134  0.7871 -1.5665 -0.1116
 1070TIP3    H2 3217   1.806   1.509   2.988  3.2110 -4.8723 -0.1312
 1071TIP3   OH2 3218   6.048   1.000   5.195  0.7596  0.4298 -0.3219
 1071TIP3    H1 3219   6.113   0.989   5.126  1.4683  0.0646  0.3775
 1071TIP3    H2 3220   5.987   1.066   5.161  0.4437 -0.5680 -1.7405
 1072TIP3   OH2 3221   4.578   0.141   0.205 -0.0154  0.0424  0.2936
 1072TIP3    H1 3222   4.593   0.225   0.249 -0.8515  0.7716 -0.7461
 1072TIP3    H2 3223   4.665   0.101   0.199  0.9112  2.0895 -1.6130
 1073TIP3   OH2 3224   3.051   1.771   3.515 -0.4901 -0.2115  0.4115
 1073TIP3    H1 3225   3.090   1.789   3.430 -2.6659 -1.8474 -1.0479
 1073TIP3    H2 3226   3.065   1.851   3.566  2.0974  0.3017 -0.9341
 1074TIP3   OH2 3227   0.875   5.545   2.096 -0.7823  0.0441  0.6291
 1074TIP3    H1 3228   0.842   5.507   2.014 -0.2742 -1.5843  1.1301
 1074TIP3    H2 3229   0.860   5.476   2.161  1.0951  0.3041  1.3975
 1075TIP3   OH2 3230   4.141   4.555   2.298 -0.3015 -0.2228  0.0236
 1075TIP3    H1 3231   4.093   4.631   2.330 -0.3865 -0.1639 -0.2478
 1075TIP3    H2 3232   4.085   4.480   2.318  0.2052 -0.3206  1.1766
 1076TIP3   OH2 3233   5.697   4.473   4.351  0.4118 -0.5749 -0.0835
 1076TIP3    H1 3234   5.694   4.566   4.373  1.1183 -0.6446  0.3492
 1076TIP3    H2 3235   5.759   4.467   4.278  0.4218 -0.7093 -0.0652
 1077TIP3   OH2 3236   2.322   3.326   4.331 -0.2375  0.0675  0.0839
 1077TIP3    H1 3237   2.256   3.279   4.280 -1.3237  1.1808  0.4190
 1077TIP3    H2 3238   2.392   3.346   4.269 -0.1749 -1.1732 -0.2619
 1078TIP3   OH2 3239   6.188   1.760   2.394  0.0155 -0.1609 -0.0469
 1078TIP3    H1 3240   6.142   1.730   2.473  0.2235  1.5588  0.7742
 1078TIP3    H2 3241   6.145   1.714   2.322 -0.6782 -1.1997  0.9956
 1079TIP3   OH2 3242   0.782   3.098   1.133  0.5078  0.5471 -0.1133
 1079TIP3    H1 3243   0.850   3.030   1.131 -1.2142 -1.3410  1.0177
 1079TIP3    H2 3244   0.749   3.102   1.044  1.5424  0.9114 -0.4942
 1080TIP3   OH2 3245   6.008   0.494   4.425 -0.3915 -0.0406 -0.1629
 1080TIP3    H1 3246   5.936   0.457   4.376 -0.7287  0.7826 -0.3139
 1080TIP3    H2 3247   5.986   0.478   4.517  0.8273 -2.6600 -0.2384
 1081TIP3   OH2 3248   4.209   3.651   0.830 -0.0476  0.0447  0.3276
 1081TIP3    H1 3249   4.153   3.648   0.908  0.2384  2.0754  0.6791
 1081TIP3    H2 3250   4.251   3.737   0.835  2.4862 -1.0582 -0.3526
 1082TIP3   OH2 3251   0.774   3.873   1.527 -0.3082  0.3531  0.9763
 1082TIP3    H1 3252   0.789   3.918   1.610 -1.5316 -0.4276  1.6446
 1082TIP3    H2 3253   0.753   3.944   1.465 -0.8478  0.8181  1.6778
 1083TIP3   OH2 3254   4.670   2.160   0.756 -0.1240  0.4594  0.1114
 1083TIP3    H1 3255   4.579   2.182   0.775 -0.0820  1.1600 -0.4933
 1083TIP3    H2 3256   4.665   2.076   0.710 -0.3880 -0.0075  0.9724
 1084TIP3   OH2 3257   1.847   2.836   0.283 -0.8155  0.4083 -0.4510
 1084TIP3    H1 3258   1.758   2.817   0.254 -1.3010  0.2605  1.0609
 1084TIP3    H2 3259   1.850   2.809   0.375  0.7342  0.5904 -0.4073
 1085TIP3   OH2 3260   0.944   5.494   3.599  0.1983  1.0397 -0.1011
 1085TIP3    H1 3261   0.859   5.450   3.593 -0.9104  3.0625 -0.0148
 1085TIP3    H2 3262   1.008   5.425   3.581 -1.4505 -0.5402 -0.1570
 1086TIP3   OH2 3263   3.704   4.598   3.371 -0.2893 -0.5020  0.2555
 1086TIP3    H1 3264   3.615   4.628   3.351  0.1206  0.4915 -0.1131
 1086TIP3    H2 3265   3.723   4.533   3.303 -0.0121  0.7086 -0.8545
 1087TIP3   OH2 3266   3.523   2.140   5.114  0.4930 -0.1633 -0.0933
 1087TIP3    H1 3267   3.501   2.232   5.099  1.5157  0.0344 -0.4561
 1087TIP3    H2 3268   3.564   2.112   5.032 -2.5401 -1.8566 -1.2072
 1088TIP3   OH2 3269   1.325   1.949   2.603  0.3218  0.1816  0.3916
 1088TIP3    H1 3270   1.394   1.936   2.668  0.6912  2.0332  0.4247
 1088TIP3    H2 3271   1.372   1.950   2.519  0.3835  1.6011  0.4264
 1089TIP3   OH2 3272   3.988   0.266   4.770 -1.1062  0.4319 -0.4868
 1089TIP3    H1 3273   3.922   0.280   4.838 -0.3766  0.0609  0.3205
 1089TIP3    H2 3274   3.963   0.184   4.728 -1.3742  0.4909 -0.4396
 1090TIP3   OH2 3275   5.653   0.775   5.185 -0.3367 -0.1586  0.2953
 1090TIP3    H1 3276   5.593   0.843   5.216 -0.2580  0.8388 -1.6023
 1090TIP3    H2 3277   5.597   0.715   5.136 -0.4850 -1.7990  2.3027
 1091TIP3   OH2 3278   3.839   5.846   3.268 -0.3927  0.3656 -0.0592
 1091TIP3    H1 3279   3.904   5.881   3.329 -0.5874 -0.3667  0.5767
 1091TIP3    H2 3280   3.845   5.751   3.279 -1.3451  0.2804 -0.2323
 1092TIP3   OH2 3281   0.595   0.668   3.410  0.4398 -0.4820 -0.2738
 1092TIP3    H1 3282   0.606   0.603   3.340 -0.0431  0.1837 -0.9782
 1092TIP3    H2 3283   0.508   0.650   3.446  0.3786 -0.3377 -0.3502
 1093TIP3   OH2 3284   5.937   1.496   0.473 -0.0490  0.9167 -0.1511
 1093TIP3    H1 3285   5.887   1.438   0.415  2.0554 -1.3859  0.1319
 1093TIP3    H2 3286   5.886   1.499   0.554 -0.5554  0.0025 -0.4194
 1094TIP3   OH2 3287   5.190   2.271   3.924 -0.4231 -0.0191 -0.8945
 1094TIP3    H1 3288   5.191   2.185   3.966 -1.2311  0.3859 -0.0018
 1094TIP3    H2 3289   5.203   2.253   3.831  2.0999 -0.8975 -0.4393
 1095TIP3   OH2 3290   0.248   1.883   0.771  0.3151  0.2284  0.4259
 1095TIP3    H1 3291   0.290   1.843   0.694 -2.1644 -3.8372  0.8714
 1095TIP3    H2 3292   0.156   1.893   0.746 -0.0457  1.2695  2.0484
 1096TIP3   OH2 3293   0.106   2.041   4.380  0.6859  0.7364  0.2612
 1096TIP3    H1 3294   0.065   1.956   4.397  1.8494  0.5047  2.1572
 1096TIP3    H2 3295   0.070   2.068   4.295  0.4577 -1.7225 -0.4957
 1097TIP3   OH2 3296   1.856   3.426   4.271  0.6118 -0.9480 -0.1080
 1097TIP3    H1 3297   1.857   3.380   4.188 -0.4681 -0.6442 -0.2960
 1097TIP3    H2 3298   1.927   3.386   4.322  2.0287 -0.3873 -1.5532
 1098TIP3   OH2 3299   4.300   0.982   4.464 -0.0365 -0.1316 -0.1035
 1098TIP3    H1 3300   4.328   1.010   4.376 -2.1379  1.3118 -0.3868
 1098TIP3    H2 3301   4.367   0.920   4.492  0.5742 -0.8151 -2.8202
 1099TIP3   OH2 3302   0.714   4.613   2.200  0.2904  0.3809  0.0656
 1099TIP3    H1 3303   0.691   4.695   2.245  0.5785 -0.2204  1.3442
 1099TIP3    H2 3304   0.630   4.580   2.167  0.1124  0.9690 -0.0980
 1100TIP3   OH2 3305   3.414   3.133   3.934 -0.0223  0.5085 -0.4099
 1100TIP3    H1 3306   3.503   3.108   3.908  0.5645  1.8047  0.2606
 1100TIP3    H2 3307   3.416   3.133   4.029 -1.1463 -0.7283 -0.3446
 1101TIP3   OH2 3308   1.268   5.756   4.917  0.5649 -0.1134 -0.2843
 1101TIP3    H1 3309   1.362   5.762   4.898  0.7135  1.0043  0.7079
 1101TIP3    H2 3310   1.261   5.774   5.010 -0.7929  1.5848 -0.6728
 1102TIP3   OH2 3311   5.282   1.861   1.926  0.0227  0.2474 -0.4428
 1102TIP3    H1 3312   5.357   1.892   1.876 -0.8693  0.7125 -1.5358
 1102TIP3    H2 3313   5.277   1.920   2.001  0.8239  0.1242 -0.2881
 1103TIP3   OH2 3314   2.123   3.144   2.483  0.3647 -0.2256  0.3342
 1103TIP3    H1 3315   2.157   3.057   2.464  0.5255  0.1597 -1.3208
 1103TIP3    H2 3316   2.028   3.134   2.481  0.3297 -0.0620 -1.7864
 1104TIP3   OH2 3317   3.322   4.128   4.793  0.1801  0.1250  0.2030
 1104TIP3    H1 3318   3.231   4.117   4.820 -0.6917  2.2129 -1.6249
 1104TIP3    H2 3319   3.344   4.045   4.752 -1.0712 -0.2461  0.2273
 1105TIP3   OH2 3320   5.324   1.337   4.531 -0.5129  0.4281 -0.1575
 1105TIP3    H1 3321   5.248   1.391   4.509  1.7216  3.3939 -1.3025
 1105TIP3    H2 3322   5.338   1.283   4.454 -0.2970  1.4170 -0.8371
 1106TIP3   OH2 3323   3.082   1.103   1.947 -0.4403  0.1769 -0.0062
 1106TIP3    H1 3324   3.111   1.023   1.990 -1.8404 -1.3894 -1.8432
 1106TIP3    H2 3325   3.093   1.086   1.854 -0.8215  2.1107 -0.4469
 1107TIP3   OH2 3326   2.305   3.504   1.952  0.0651  0.1521  0.3674
 1107TIP3    H1 3327   2.346   3.570   1.895  1.4409  0.3949  1.5820
 1107TIP3    H2 3328   2.378   3.451   1.984 -0.8878 -1.1738  0.4341
 1108TIP3   OH2 3329   2.095   1.521   2.127 -0.3254  0.0044  0.7068
 1108TIP3    H1 3330   2.054   1.434   2.128 -0.7393  0.2007  0.8298
 1108TIP3    H2 3331   2.189   1.503   2.135 -0.2462 -0.5130 -1.0279
 1109TIP3   OH2 3332   0.472   0.194   3.710 -0.5322 -0.5057 -0.3923
 1109TIP3    H1 3333   0.492   0.198   3.804 -0.6427 -1.2742 -0.3270
 1109TIP3    H2 3334   0.555   0.215   3.667 -0.3365 -0.7138 -0.1192
 1110TIP3   OH2 3335   6.118   1.468   4.108  0.4980  0.3437 -1.2737
 1110TIP3    H1 3336   6.034   1.424   4.114  1.1784 -0.8486  0.2707
 1110TIP3    H2 3337   6.176   1.405   4.066  0.6392  1.1825 -2.3919
 1111TIP3   OH2 3338   3.549   2.579   4.459  0.0755 -0.0593 -0.5851
 1111TIP3    H1 3339   3.617   2.589   4.525 -0.2733 -0.4650 -0.1621
 1111TIP3    H2 3340   3.562   2.654   4.400  0.1522  0.5189  0.1492
 1112TIP3   OH2 3341   3.360   1.462   1.417 -0.0292  0.7504  0.5950
 1112TIP3    H1 3342   3.319   1.478   1.502  0.0717  0.1886  0.7525
 1112TIP3    H2 3343   3.420   1.389   1.432 -1.0404 -0.2801 -0.2812
 1113TIP3   OH2 3344   3.415   3.978   2.380  0.0806  0.1988 -0.2284
 1113TIP3    H1 3345   3.332   4.024   2.396 -0.3090 -0.2362 -0.9357
 1113TIP3    H2 3346   3.397   3.887   2.405  0.2202  0.0218 -0.7643
 1114TIP3   OH2 3347   1.762   1.098   1.242  0.1691 -0.0490 -0.5484
 1114TIP3    H1 3348   1.757   1.056   1.156  0.1594  0.6132 -0.8765
 1114TIP3    H2 3349   1.763   1.192   1.223 -2.3971  0.2182  0.2812
 1115TIP3   OH2 3350   5.269   1.159   0.809 -0.0545 -0.0230 -0.0048
 1115TIP3    H1 3351   5.178   1.149   0.780  0.2022 -0.0435 -0.8579
 1115TIP3    H2 3352   5.321   1.120   0.738  0.6297  0.2077  0.3533
 1116TIP3   OH2 3353   3.550   2.004   2.715 -0.0743 -0.3132  0.5751
 1116TIP3    H1 3354   3.597   1.967   2.640  0.4181  0.0236  0.7130
 1116TIP3    H2 3355   3.613   2.000   2.787 -0.6309 -0.8718  1.0354
 1117TIP3   OH2 3356   1.312   1.528   1.803 -0.6374 -0.3520  0.6252
 1117TIP3    H1 3357   1.248   1.585   1.845  1.1317  0.5770  2.1436
 1117TIP3    H2 3358   1.355   1.583   1.738 -0.5975 -0.6524  0.3942
 1118TIP3   OH2 3359   3.716   4.838   0.055  0.2901  0.1733  0.3721
 1118TIP3    H1 3360   3.801   4.838   0.099  0.1564 -0.7008  0.6573
 1118TIP3    H2 3361   3.653   4.857   0.124  0.0955 -1.0203  0.5433
 1119TIP3   OH2 3362   3.295   2.157   3.515  0.2368  0.4009 -0.2456
 1119TIP3    H1 3363   3.351   2.210   3.459  0.3434 -1.1134 -1.6548
 1119TIP3    H2 3364   3.223   2.215   3.540  0.3778  1.2332 -1.6715
 1120TIP3   OH2 3365   2.938   0.108   0.833 -0.5751  0.4642  0.0565
 1120TIP3    H1 3366   3.019   0.159   0.835  0.7690 -1.5752  0.1348
 1120TIP3    H2 3367   2.909   0.104   0.924  2.4973 -3.5973  1.0908
 1121TIP3   OH2 3368   0.026   5.248   0.552 -0.5729  0.2574 -0.0047
 1121TIP3    H1 3369   0.069   5.291   0.626 -1.9713  0.4443  0.7309
 1121TIP3    H2 3370   0.067   5.162   0.547  0.2833  0.6388  0.3042
 1122TIP3   OH2 3371   3.579   4.385   0.741 -0.1475 -0.3353 -0.3856
 1122TIP3    H1 3372   3.639   4.449   0.702 -1.6969  1.6787  0.3027
 1122TIP3    H2 3373   3.613   4.371   0.829 -0.4625  0.5390 -0.1112
 1123TIP3   OH2 3374   5.821   4.743   2.790 -0.1556  0.0008 -0.1352
 1123TIP3    H1 3375   5.754   4.675   2.790 -0.4504  0.2936 -0.2319
 1123TIP3    H2 3376   5.866   4.731   2.706  1.0441 -1.2995  0.6459
 1124TIP3   OH2 3377   4.808   3.627   4.623  0.1248  0.3738 -0.1594
 1124TIP3    H1 3378   4.845   3.571   4.554  0.8338 -0.4560  0.8662
 1124TIP3    H2 3379   4.714   3.610   4.620  0.3064 -0.6794 -0.0342
 1125TIP3   OH2 3380   3.270   0.422   3.223 -0.5762 -0.2748  0.1403
 1125TIP3    H1 3381   3.236   0.479   3.154  0.4025 -0.1738 -0.2722
 1125TIP3    H2 3382   3.201   0.422   3.289 -0.5455  1.5200  0.2271
 1126TIP3   OH2 3383   4.332   1.410   4.807  0.3909  0.4772 -0.0539
 1126TIP3    H1 3384   4.324   1.487   4.863  0.3875  0.5182 -0.1114
 1126TIP3    H2 3385   4.406   1.361   4.845  0.2243  0.3748  0.1412
 1127TIP3   OH2 3386   5.078   0.194   3.521  0.3804  0.0950  0.1971
 1127TIP3    H1 3387   5.075   0.228   3.431 -0.5829 -1.2095 -0.2959
 1127TIP3    H2 3388   5.000   0.139   3.529  1.0153 -0.6828  1.4789
 1128TIP3   OH2 3389   2.789   5.388   3.292  0.5950 -0.2034 -0.2604
 1128TIP3    H1 3390   2.808   5.297   3.315  0.0637 -0.0171  1.0141
 1128TIP3    H2 3391   2.875   5.427   3.277  0.8538 -0.8050 -0.3849
 1129TIP3   OH2 3392   0.582   0.642   0.403  0.1971  0.1293 -0.1439
 1129TIP3    H1 3393   0.601   0.624   0.495 -2.9776 -1.6444  0.2901
 1129TIP3    H2 3394   0.536   0.564   0.372 -0.1713  1.3061 -2.8227
 1130TIP3   OH2 3395   3.234   2.545   3.067 -0.4927 -0.1988 -0.0838
 1130TIP3    H1 3396   3.240   2.640   3.058 -1.9212 -0.1792 -1.2384
 1130TIP3    H2 3397   3.321   2.518   3.096 -0.3215  1.5385  1.1607
 1131TIP3   OH2 3398   0.046   1.232   3.455  0.0710  0.5807  0.6799
 1131TIP3    H1 3399   0.092   1.293   3.397 -1.3528  0.8163 -0.2702
 1131TIP3    H2 3400   0.069   1.145   3.422  0.4034  0.6724  0.6703
 1132TIP3   OH2 3401   2.288   4.149   0.559 -0.0967  0.3972 -0.0631
 1132TIP3    H1 3402   2.308   4.204   0.635  1.9588 -2.0860  1.3728
 1132TIP3    H2 3403   2.362   4.163   0.499  0.4249 -0.7111  0.2980
 1133TIP3   OH2 3404   2.763   5.790   4.238 -0.1683  0.6627 -1.0230
 1133TIP3    H1 3405   2.781   5.709   4.284  1.1444  1.7641  0.5224
 1133TIP3    H2 3406   2.669   5.804   4.249 -0.6243 -1.1103 -2.2090
 1134TIP3   OH2 3407   6.162   1.415   1.999 -0.6215 -0.4816  0.2249
 1134TIP3    H1 3408   6.149   1.431   1.906  1.6876 -1.1932 -0.2911
 1134TIP3    H2 3409   6.152   1.320   2.009 -1.1691 -0.3743  0.7794
 1135TIP3   OH2 3410   6.260   4.439   0.472 -0.3484  0.0076 -0.4509
 1135TIP3    H1 3411   6.284   4.356   0.513  0.6038  1.6075  2.5445
 1135TIP3    H2 3412   6.344   4.478   0.447 -0.7780  0.1905 -1.6870
 1136TIP3   OH2 3413   0.595   2.619   1.673 -0.3515  0.1057  0.5129
 1136TIP3    H1 3414   0.568   2.562   1.745 -0.5303  0.4227  0.6953
 1136TIP3    H2 3415   0.524   2.683   1.664 -1.4595 -1.2737 -1.4366
 1137TIP3   OH2 3416   5.090   1.646   1.244  0.0776 -0.2191  0.9302
 1137TIP3    H1 3417   5.036   1.598   1.181 -0.2951 -1.0458  1.8449
 1137TIP3    H2 3418   5.108   1.730   1.202  0.5272 -1.0526 -0.6248
 1138TIP3   OH2 3419   4.118   5.627   3.366  0.5751 -0.0946  0.1091
 1138TIP3    H1 3420   4.024   5.609   3.362  0.7139 -0.5648 -2.1717
 1138TIP3    H2 3421   4.134   5.648   3.458 -1.8298  0.4610  0.4702
 1139TIP3   OH2 3422   3.304   4.018   4.383  0.1167  0.0865 -0.5692
 1139TIP3    H1 3423   3.310   3.934   4.337  1.1495  1.2084 -2.5826
 1139TIP3    H2 3424   3.389   4.027   4.427 -0.7472 -0.8299  1.4693
 1140TIP3   OH2 3425   1.926   2.879   5.046  0.2363 -0.0775 -0.8947
 1140TIP3    H1 3426   1.933   2.854   5.138  1.3467  0.5987 -0.7732
 1140TIP3    H2 3427   1.992   2.826   5.001  1.2598  1.1746 -0.9307
 1141TIP3   OH2 3428   6.143   4.681   2.348 -0.1671 -0.0614 -0.0761
 1141TIP3    H1 3429   6.168   4.764   2.307 -0.9469 -0.3381 -1.1661
 1141TIP3    H2 3430   6.202   4.617   2.309  0.0702 -0.1075  0.3550
 1142TIP3   OH2 3431   3.403   2.283   4.036  0.3123  0.6752  0.3180
 1142TIP3    H1 3432   3.353   2.282   3.955  0.3551  0.0725  0.2990
 1142TIP3    H2 3433   3.401   2.375   4.064  1.3682  1.1451 -1.0108
 1143TIP3   OH2 3434   3.662   0.067   3.456  0.0214  0.4144  0.2049
 1143TIP3    H1 3435   3.596  -0.002   3.445  0.1042  0.4705 -0.7130
 1143TIP3    H2 3436   3.667   0.110   3.370 -0.1426  1.6722  0.7990
 1144TIP3   OH2 3437   2.895   4.068   0.782  0.0934  0.5466 -0.6384
 1144TIP3    H1 3438   2.962   4.131   0.757 -0.2934  2.2013  2.0613
 1144TIP3    H2 3439   2.923   4.037   0.868 -1.1634 -0.9011 -0.7116
 1145TIP3   OH2 3440   4.626   2.064   2.272 -0.0517 -0.4514 -0.1713
 1145TIP3    H1 3441   4.713   2.095   2.247 -0.0900  0.0042  0.2675
 1145TIP3    H2 3442   4.568   2.097   2.203 -0.0005 -0.0845 -0.0364
 1146TIP3   OH2 3443   0.839   0.428   0.565 -0.3563  0.2701 -0.1235
 1146TIP3    H1 3444   0.921   0.475   0.548 -1.2165  1.4574 -1.1446
 1146TIP3    H2 3445   0.775   0.496   0.584 -1.7016 -0.4100 -1.8504
 1147TIP3   OH2 3446   1.899   1.953   3.282 -0.4955  0.1679 -0.7010
 1147TIP3    H1 3447   1.862   1.925   3.198 -1.1250 -2.7184  0.4072
 1147TIP3    H2 3448   1.982   1.905   3.288 -0.7580 -0.1681  0.5509
 1148TIP3   OH2 3449   2.391   1.431   0.495 -0.0141  0.0043  0.6570
 1148TIP3    H1 3450   2.315   1.379   0.523 -0.2431  0.2171  0.4439
 1148TIP3    H2 3451   2.407   1.403   0.405 -0.2531  0.4263  0.4775
 1149TIP3   OH2 3452   0.579   3.010   0.014 -0.4093 -0.0127 -0.4497
 1149TIP3    H1 3453   0.635   2.933   0.024  0.0623  0.6700  4.1975
 1149TIP3    H2 3454   0.491   2.974   0.004 -0.2166 -1.2879  1.7058
 1150TIP3   OH2 3455   4.409   0.360   2.075  0.6127 -0.1083  0.4020
 1150TIP3    H1 3456   4.495   0.320   2.089 -0.0200 -1.8569 -0.4332
 1150TIP3    H2 3457   4.422   0.421   2.002  1.3507  0.4640  0.9904
 1151TIP3   OH2 3458   5.447   3.428   4.092  0.0679 -0.1640  0.1753
 1151TIP3    H1 3459   5.368   3.448   4.041 -0.7008  0.3237  1.5138
 1151TIP3    H2 3460   5.430   3.341   4.129  0.6826 -0.5786 -0.4907
 1152TIP3   OH2 3461   1.480   1.718   3.810  0.0240 -0.7637 -0.0083
 1152TIP3    H1 3462   1.392   1.704   3.776 -0.5283  1.8839  0.1164
 1152TIP3    H2 3463   1.504   1.805   3.778  1.8087 -0.6296  1.5612
 1153TIP3   OH2 3464   5.982   5.452   3.954  0.3563  0.4771  0.6781
 1153TIP3    H1 3465   6.028   5.368   3.950  0.7264  0.7366 -0.6065
 1153TIP3    H2 3466   5.898   5.435   3.911  0.8553  1.0217 -0.5471
 1154TIP3   OH2 3467   2.417   2.773   4.634 -0.0710 -0.3327 -0.1427
 1154TIP3    H1 3468   2.489   2.836   4.629 -0.5506  0.3239  0.7966
 1154TIP3    H2 3469   2.381   2.786   4.722 -0.5435 -1.5283 -0.1467
 1155TIP3   OH2 3470   0.932   0.713   3.577  0.1886 -0.1463 -0.8163
 1155TIP3    H1 3471   1.001   0.757   3.628 -0.2009  0.0210 -0.4256
 1155TIP3    H2 3472   0.966   0.711   3.488  0.6148  0.1226 -0.6647
 1156TIP3   OH2 3473   6.211   5.692   1.870 -0.9129 -0.0927 -0.1377
 1156TIP3    H1 3474   6.278   5.754   1.900 -0.5529 -1.1195  1.2764
 1156TIP3    H2 3475   6.245   5.659   1.787 -0.6034  0.7943 -0.3831
 1157TIP3   OH2 3476   0.926   2.931   4.314  0.2191 -0.7538  0.0044
 1157TIP3    H1 3477   1.019   2.908   4.312  0.6994  1.0332 -0.8092
 1157TIP3    H2 3478   0.886   2.864   4.369  1.5748 -2.9599 -1.5138
 1158TIP3   OH2 3479   3.710   0.592   0.902 -0.2506  0.4047  0.2018
 1158TIP3    H1 3480   3.716   0.558   0.991 -0.3642  1.5179  0.6487
 1158TIP3    H2 3481   3.620   0.622   0.893 -0.1191  0.7105 -0.1309
 1159TIP3   OH2 3482   6.174   2.296   3.175  0.2394 -0.4328 -0.3862
 1159TIP3    H1 3483   6.208   2.275   3.262  0.8466 -1.2998 -0.8206
 1159TIP3    H2 3484   6.079   2.289   3.184  0.2197  0.7132  0.5096
 1160TIP3   OH2 3485   1.113   5.915   2.447 -0.2608  0.1310  0.3007
 1160TIP3    H1 3486   1.085   5.827   2.474 -0.9937  0.5136  0.8127
 1160TIP3    H2 3487   1.036   5.970   2.460  0.2972  0.9222  0.3243
 1161TIP3   OH2 3488   2.171   2.307   0.416  0.2139  0.6097  0.8432
 1161TIP3    H1 3489   2.156   2.224   0.371  1.1545  0.1652  1.2983
 1161TIP3    H2 3490   2.126   2.297   0.500  0.8799  0.2800  1.1717
 1162TIP3   OH2 3491   1.501   4.194   1.723  0.1673 -0.2712 -0.1777
 1162TIP3    H1 3492   1.482   4.237   1.640 -1.9055  0.5047  0.6303
 1162TIP3    H2 3493   1.551   4.258   1.773 -0.1465 -0.0355 -0.1644
 1163TIP3   OH2 3494   4.661   5.611   2.547 -0.1545 -0.6307  0.1130
 1163TIP3    H1 3495   4.610   5.687   2.574 -0.8189 -0.6636 -1.0075
 1163TIP3    H2 3496   4.601   5.559   2.493  0.8767 -0.9500 -0.7665
 1164TIP3   OH2 3497   4.526   4.814   3.641  0.0578 -0.1771  0.7467
 1164TIP3    H1 3498   4.516   4.751   3.570 -0.5114  0.9559 -0.2165
 1164TIP3    H2 3499   4.621   4.816   3.658  0.2259 -0.2948 -0.1289
 1165TIP3   OH2 3500   4.998   0.516   1.052  0.0587  0.6696 -0.3954
 1165TIP3    H1 3501   5.021   0.588   1.110  0.0316  1.1204 -0.9308
 1165TIP3    H2 3502   5.081   0.471   1.035 -0.1638 -0.4634  1.2693
 1166TIP3   OH2 3503   4.119   3.810   1.092 -0.6143 -0.1394  0.0335
 1166TIP3    H1 3504   4.105   3.883   1.152 -2.2145  1.6741 -2.3104
 1166TIP3    H2 3505   4.213   3.793   1.097 -0.4151  1.1232  1.7052
 1167TIP3   OH2 3506   0.088   1.466   2.076 -0.2415 -0.1690  0.1739
 1167TIP3    H1 3507   0.004   1.434   2.044 -0.2077 -2.2082  1.9062
 1167TIP3    H2 3508   0.080   1.562   2.074 -1.5769 -0.2546 -2.1647
 1168TIP3   OH2 3509   5.781   4.228   1.350 -0.0170 -0.2405 -0.0256
 1168TIP3    H1 3510   5.756   4.143   1.312 -0.3370  0.0451 -0.4528
 1168TIP3    H2 3511   5.702   4.258   1.395 -0.1169  0.1610 -0.4675
 1169TIP3   OH2 3512   1.625   0.496   3.635 -0.3495  0.2347  0.0248
 1169TIP3    H1 3513   1.629   0.402   3.618  1.3161  0.4673 -1.1501
 1169TIP3    H2 3514   1.645   0.537   3.551 -1.6249  1.6666  0.3753
 1170TIP3   OH2 3515   5.789   5.643   4.468 -0.5955 -0.7733 -0.0106
 1170TIP3    H1 3516   5.850   5.570   4.457 -1.0333 -1.0361 -0.7716
 1170TIP3    H2 3517   5.729   5.614   4.537 -0.3192 -0.8224  0.2117
 1171TIP3   OH2 3518   1.845   0.484   0.304  0.2809 -0.1840 -0.5736
 1171TIP3    H1 3519   1.844   0.474   0.399  2.0131  0.7772 -0.4328
 1171TIP3    H2 3520   1.934   0.511   0.283 -0.8483  2.7441 -2.1351
 1172TIP3   OH2 3521   6.011   5.520   3.634  0.3932  0.2790 -0.4096
 1172TIP3    H1 3522   6.028   5.533   3.728 -0.0796  0.4702 -0.3514
 1172TIP3    H2 3523   6.085   5.563   3.591 -0.2740  1.7300 -0.1734
 1173TIP3   OH2 3524   4.587   0.068   1.158 -0.0491 -0.4081 -0.2409
 1173TIP3    H1 3525   4.639   0.053   1.237 -0.7100 -1.9687 -0.0582
 1173TIP3    H2 3526   4.646   0.045   1.086 -0.0869 -0.9923 -0.0906
 1174TIP3   OH2 3527   3.506   4.351   1.399 -0.0873  0.7105  0.2000
 1174TIP3    H1 3528   3.452   4.407   1.344 -0.0027  1.0052  0.4146
 1174TIP3    H2 3529   3.596   4.373   1.376 -0.0523  0.1687 -0.2086
 1175TIP3   OH2 3530   0.355   3.675   1.919 -0.0476  0.0721  0.0360
 1175TIP3    H1 3531   0.417   3.627   1.973 -1.0297 -1.4943 -0.1398
 1175TIP3    H2 3532   0.309   3.606   1.870 -0.6943  1.2991 -1.1357
 1176TIP3   OH2 3533   1.703   0.875   4.699 -0.0017  0.2185 -0.4174
 1176TIP3    H1 3534   1.733   0.890   4.609  1.0883  2.0442  0.2079
 1176TIP3    H2 3535   1.709   0.961   4.741 -1.8840 -0.2976  1.0185
 1177TIP3   OH2 3536   5.794   4.625   1.814 -0.1542  0.1111 -0.4256
 1177TIP3    H1 3537   5.822   4.708   1.853 -0.0189  0.8908 -2.1157
 1177TIP3    H2 3538   5.705   4.612   1.847 -0.3716  1.1909 -0.5472
 1178TIP3   OH2 3539   2.332   4.234   4.498 -0.3466 -0.7907 -0.7809
 1178TIP3    H1 3540   2.305   4.297   4.432  0.7740  2.2362  1.4454
 1178TIP3    H2 3541   2.413   4.196   4.465 -0.1191  0.2248 -1.4054
 1179TIP3   OH2 3542   1.923   5.719   1.395  0.1649  0.7256  0.2809
 1179TIP3    H1 3543   1.935   5.776   1.472 -0.9427  0.1253  0.9134
 1179TIP3    H2 3544   2.000   5.737   1.341  0.3444  2.0900  0.9359
 1180TIP3   OH2 3545   5.542   4.319   0.709  0.3292  0.1834 -0.1087
 1180TIP3    H1 3546   5.597   4.266   0.652 -0.5156 -1.9281  0.9505
 1180TIP3    H2 3547   5.461   4.331   0.659 -0.7408 -2.3757  0.8341
 1181TIP3   OH2 3548   4.626   3.732   0.928  0.1267 -0.0901  0.3667
 1181TIP3    H1 3549   4.679   3.791   0.981  0.7090  1.5792 -1.9180
 1181TIP3    H2 3550   4.548   3.782   0.905  0.1587 -0.5324 -0.7885
 1182TIP3   OH2 3551   3.793   0.872   2.727 -0.0383  0.1282  0.4596
 1182TIP3    H1 3552   3.881   0.879   2.689 -0.1392 -0.7627  0.0271
 1182TIP3    H2 3553   3.770   0.780   2.717 -0.6264  0.1492  1.4754
 1183TIP3   OH2 3554   4.730   4.540   1.773  0.0985  0.1465  0.0615
 1183TIP3    H1 3555   4.684   4.477   1.828 -0.1372 -1.4016 -1.8106
 1183TIP3    H2 3556   4.784   4.590   1.834 -0.4846 -1.1750  1.7375
 1184TIP3   OH2 3557   1.227   1.716   3.683  0.0152  0.3679 -0.4444
 1184TIP3    H1 3558   1.144   1.711   3.730  1.0284 -0.8375  1.3412
 1184TIP3    H2 3559   1.221   1.797   3.632 -1.1090  1.8687  1.9114
 1185TIP3   OH2 3560   5.521   2.249   4.790  0.3338 -0.2606 -0.4217
 1185TIP3    H1 3561   5.465   2.321   4.819  0.7217 -0.8336  1.9425
 1185TIP3    H2 3562   5.599   2.255   4.845  1.2970 -1.2617 -1.6063
 1186TIP3   OH2 3563   5.704   4.234   5.105  0.7980  0.3299  0.3822
 1186TIP3    H1 3564   5.620   4.277   5.117  0.9180  0.8403 -0.4863
 1186TIP3    H2 3565   5.683   4.141   5.095  0.4747  0.2697  1.5683
 1187TIP3   OH2 3566   2.731   1.151   1.315  0.0288 -0.1605 -0.2572
 1187TIP3    H1 3567   2.736   1.067   1.271 -0.7297  0.1867 -1.0502
 1187TIP3    H2 3568   2.755   1.133   1.406 -0.3356 -1.2674 -0.3700
 1188TIP3   OH2 3569   1.122   1.950   3.450 -0.2752 -0.2467  0.1116
 1188TIP3    H1 3570   1.039   1.990   3.476  0.5751  1.0547  0.9290
 1188TIP3    H2 3571   1.188   2.018   3.466  0.8001 -0.7475 -1.8282
 1189TIP3   OH2 3572   5.916   3.865   0.774 -0.2947  0.0587 -0.7682
 1189TIP3    H1 3573   5.821   3.864   0.761 -0.3529  1.0630 -0.4871
 1189TIP3    H2 3574   5.939   3.958   0.775  0.5824 -0.1583 -0.0380
 1190TIP3   OH2 3575   3.555   0.118   4.370  0.3172 -0.3965  0.0262
 1190TIP3    H1 3576   3.583   0.040   4.324  1.3510  0.3315 -0.6224
 1190TIP3    H2 3577   3.591   0.108   4.458  0.8785 -0.4169 -0.2045
 1191TIP3   OH2 3578   5.831   4.223   1.932 -0.1799  0.4653 -0.2358
 1191TIP3    H1 3579   5.925   4.211   1.921 -0.0853 -0.8425  1.6274
 1191TIP3    H2 3580   5.805   4.280   1.860  1.8774  0.1201 -1.2922
 1192TIP3   OH2 3581   6.349   3.832   4.420  0.6920 -0.2564  0.6469
 1192TIP3    H1 3582   6.336   3.773   4.495 -0.5157 -0.3335  0.4004
 1192TIP3    H2 3583   6.260   3.851   4.390  1.0044  2.1707  1.0695
 1193TIP3   OH2 3584   4.093   4.453   4.515  0.1101 -0.3710 -0.4520
 1193TIP3    H1 3585   4.028   4.523   4.518 -0.9602 -1.2974 -1.3225
 1193TIP3    H2 3586   4.129   4.458   4.427 -0.4256 -1.2989 -0.7324
 1194TIP3   OH2 3587   3.909   2.917   4.292 -0.6655 -0.5555 -0.1358
 1194TIP3    H1 3588   3.832   2.880   4.247 -0.4562 -2.3862  0.8683
 1194TIP3    H2 3589   3.945   2.981   4.231 -4.6011  2.5846  0.4501
 1195TIP3   OH2 3590   4.593   2.464   4.011  0.2311  0.1111 -0.3807
 1195TIP3    H1 3591   4.504   2.469   4.047  0.0979  0.3657 -0.7330
 1195TIP3    H2 3592   4.596   2.379   3.968  1.0969 -1.1552  2.0058
 1196TIP3   OH2 3593   3.200   0.872   2.016 -0.1009  0.0041  0.1463
 1196TIP3    H1 3594   3.146   0.801   1.981 -0.7237  0.3187  0.4488
 1196TIP3    H2 3595   3.283   0.830   2.039  0.1912 -0.2802 -1.3221
 1197TIP3   OH2 3596   0.228   5.850   0.380  0.0033 -0.2422  0.0478
 1197TIP3    H1 3597   0.144   5.897   0.380  0.0239 -0.1474  1.4784
 1197TIP3    H2 3598   0.280   5.895   0.446  1.0445 -0.5576 -0.5467
 1198TIP3   OH2 3599   5.482   0.140   4.437 -0.2661 -0.1058  0.4032
 1198TIP3    H1 3600   5.561   0.185   4.406  0.1026 -1.0249 -0.0210
 1198TIP3    H2 3601   5.410   0.190   4.399  0.0918  0.9507  1.0807
 1199TIP3   OH2 3602   5.106   3.178   3.937  0.0385 -0.9189  0.1330
 1199TIP3    H1 3603   5.154   3.239   3.993  1.6528 -0.4547 -1.6540
 1199TIP3    H2 3604   5.073   3.231   3.865 -0.5148 -1.7832 -0.2674
 1200TIP3   OH2 3605   2.451   2.353   0.045 -0.0752  0.0957  0.2139
 1200TIP3    H1 3606   2.516   2.383  -0.018  1.7470 -1.4971  1.2262
 1200TIP3    H2 3607   2.474   2.262   0.063 -2.6085 -0.5474  0.6621
 1201TIP3   OH2 3608   3.716   5.504   3.993 -0.0230  0.3806  0.0158
 1201TIP3    H1 3609   3.650   5.545   3.938 -0.1955  1.4617  0.9931
 1201TIP3    H2 3610   3.695   5.410   3.989  0.3213  0.3559 -2.1597
 1202TIP3   OH2 3611   4.140   5.794   5.185 -0.6003 -0.3792 -0.1610
 1202TIP3    H1 3612   4.068   5.783   5.122 -0.3308 -3.0623 -0.1255
 1202TIP3    H2 3613   4.214   5.750   5.144  0.1618 -0.3377  1.1360
 1203TIP3   OH2 3614   6.247   0.327   0.751 -0.5897  0.0922 -0.2114
 1203TIP3    H1 3615   6.336   0.349   0.781 -0.6519  0.5363 -0.3488
 1203TIP3    H2 3616   6.255   0.320   0.656 -1.0067  1.6755 -0.4037
 1204TIP3   OH2 3617   0.574   5.555   2.092 -0.5361  0.1792 -0.0847
 1204TIP3    H1 3618   0.654   5.508   2.119 -0.6947  0.1307  0.2974
 1204TIP3    H2 3619   0.513   5.485   2.069 -1.7436  0.0238  3.0834
 1205TIP3   OH2 3620   0.949   3.654   4.700  0.8106 -0.5721  0.0054
 1205TIP3    H1 3621   1.014   3.591   4.732  2.5004  1.6215  1.2370
 1205TIP3    H2 3622   0.941   3.718   4.771 -0.9302  0.5332 -1.1110
 1206TIP3   OH2 3623   1.064   5.534   4.740  0.5105 -0.4767  0.0469
 1206TIP3    H1 3624   1.084   5.603   4.803  0.3552 -0.8632  0.5273
 1206TIP3    H2 3625   1.055   5.455   4.793 -0.6092 -0.6266 -0.3433
 1207TIP3   OH2 3626   1.081   4.761   2.318  0.1029  0.1508  0.5970
 1207TIP3    H1 3627   1.106   4.689   2.260  2.2196  0.6998  0.7514
 1207TIP3    H2 3628   1.083   4.724   2.406 -0.3492  0.0240  0.5574
 1208TIP3   OH2 3629   1.549   5.662   2.131 -0.2413  0.6025  0.3159
 1208TIP3    H1 3630   1.644   5.663   2.141 -0.2484 -1.5902  0.9966
 1208TIP3    H2 3631   1.524   5.570   2.138 -2.4014  1.0843 -0.1507
 1209TIP3   OH2 3632   3.660   4.060   0.661 -0.1525  0.1811  0.0967
 1209TIP3    H1 3633   3.694   4.093   0.578  0.6830 -0.3117  0.2315
 1209TIP3    H2 3634   3.578   4.016   0.638  0.0528  0.0896 -0.4612
 1210TIP3   OH2 3635   2.214   1.130   3.826  0.2253  0.0755  0.2127
 1210TIP3    H1 3636   2.174   1.208   3.863  1.2273 -0.0607  1.6813
 1210TIP3    H2 3637   2.307   1.138   3.847  0.1213 -2.3702  2.1188
 1211TIP3   OH2 3638   4.398   3.693   3.369 -0.3218  0.0339  0.3381
 1211TIP3    H1 3639   4.447   3.750   3.429  1.7220 -0.2627 -0.9487
 1211TIP3    H2 3640   4.425   3.604   3.394 -0.2640 -0.1408 -0.3333
 1212TIP3   OH2 3641   3.974   3.965   3.670  0.4182  0.0236 -0.2069
 1212TIP3    H1 3642   4.027   3.886   3.661 -0.1094 -0.3458 -0.0578
 1212TIP3    H2 3643   3.930   3.975   3.586 -2.0546 -1.6770  0.7756
 1213TIP3   OH2 3644   0.730   5.543   0.831  0.2278 -0.3268 -0.4463
 1213TIP3    H1 3645   0.673   5.573   0.760  0.5061  0.0193 -0.5309
 1213TIP3    H2 3646   0.816   5.535   0.790  0.8157  1.7156  0.2576
 1214TIP3   OH2 3647   5.689   3.217   3.708  0.5997  0.2860  0.2218
 1214TIP3    H1 3648   5.647   3.143   3.753 -2.1513 -0.1529 -2.6221
 1214TIP3    H2 3649   5.773   3.182   3.678 -1.1370 -2.3763 -2.1424
 1215TIP3   OH2 3650   4.296   2.921   0.040 -0.3254 -0.3574 -0.0665
 1215TIP3    H1 3651   4.203   2.932   0.021 -0.2623  0.2660 -0.0493
 1215TIP3    H2 3652   4.310   2.969   0.121 -0.0938 -0.9140  0.2308
 1216TIP3   OH2 3653   6.273   2.580   3.355  0.2007 -0.4376 -0.9557
 1216TIP3    H1 3654   6.203   2.643   3.336 -0.2392 -0.5943  0.0877
 1216TIP3    H2 3655   6.302   2.550   3.269  0.3384  1.0972 -1.4719
 1217TIP3   OH2 3656   2.144   1.654   4.924 -0.2987  0.1468  0.0402
 1217TIP3    H1 3657   2.182   1.732   4.884  2.4981 -0.6769  0.9119
 1217TIP3    H2 3658   2.165   1.662   5.017  0.1041 -1.6353  0.1386
 1218TIP3   OH2 3659   1.129   5.630   2.009 -0.3170 -0.0850 -0.5168
 1218TIP3    H1 3660   1.044   5.590   2.025 -0.3239 -0.5202 -1.5414
 1218TIP3    H2 3661   1.120   5.719   2.044 -0.5781 -0.6835  1.0001
 1219TIP3   OH2 3662   3.938   0.113   2.438 -0.3719 -0.3208 -0.2285
 1219TIP3    H1 3663   3.939   0.127   2.533  0.5023  2.2851 -0.5471
 1219TIP3    H2 3664   4.024   0.075   2.419 -0.2330 -0.1032 -0.0496
 1220TIP3   OH2 3665   5.362   4.219   0.537  0.7157  0.2585  0.2812
 1220TIP3    H1 3666   5.328   4.167   0.610 -1.1046 -0.0186 -0.7160
 1220TIP3    H2 3667   5.399   4.154   0.477  2.2485  0.4892  0.9140
 1221TIP3   OH2 3668   2.698   1.697   3.017  0.3672  0.1297  0.4980
 1221TIP3    H1 3669   2.645   1.726   2.942 -0.8125  0.1948  1.3290
 1221TIP3    H2 3670   2.724   1.778   3.060  0.9100  0.0864  0.2592
 1222TIP3   OH2 3671   2.648   4.162   1.254 -0.2059  0.5386  0.3152
 1222TIP3    H1 3672   2.618   4.107   1.181 -1.4971 -0.7472  1.7351
 1222TIP3    H2 3673   2.708   4.106   1.303 -0.7033  0.7414  1.1861
 1223TIP3   OH2 3674   3.258   5.636   3.252 -0.3770  0.0465 -0.0458
 1223TIP3    H1 3675   3.322   5.575   3.217 -0.3828 -0.0283  0.0733
 1223TIP3    H2 3676   3.277   5.719   3.208 -1.0025 -0.2729 -0.9538
 1224TIP3   OH2 3677   0.591   2.219   1.099 -0.2127 -0.3308  0.1559
 1224TIP3    H1 3678   0.610   2.257   1.013 -1.8325 -0.0709 -0.1290
 1224TIP3    H2 3679   0.554   2.292   1.149 -2.7589 -1.2837 -0.1766
 1225TIP3   OH2 3680   1.447   2.937   2.765 -0.0133  0.1375 -0.4812
 1225TIP3    H1 3681   1.537   2.917   2.740 -0.3739  0.8937 -2.5756
 1225TIP3    H2 3682   1.436   3.030   2.745 -1.4311 -0.0792 -0.8529
 1226TIP3   OH2 3683   3.298   5.535   5.177 -0.1259  0.4357  0.0452
 1226TIP3    H1 3684   3.385   5.575   5.182 -0.1182  0.4509 -0.1968
 1226TIP3    H2 3685   3.315   5.443   5.155 -0.1285  0.2247  0.8989
 1227TIP3   OH2 3686   2.438   2.284   1.302  0.9188  0.2219 -0.6678
 1227TIP3    H1 3687   2.367   2.305   1.362  0.5719 -0.0065 -0.9987
 1227TIP3    H2 3688   2.518   2.299   1.354  0.6249 -1.6246  0.4462
 1228TIP3   OH2 3689   0.998   2.329   3.961  0.5236  0.9149  0.5370
 1228TIP3    H1 3690   1.022   2.348   4.051  0.6113 -0.8176  0.9245
 1228TIP3    H2 3691   1.022   2.237   3.949 -1.3714  0.5163 -0.6125
 1229TIP3   OH2 3692   1.160   0.526   1.780  0.0161  0.1868  0.2275
 1229TIP3    H1 3693   1.165   0.585   1.855 -2.0942  0.0524  0.5418
 1229TIP3    H2 3694   1.151   0.584   1.705  0.2529  0.2954  0.2828
 1230TIP3   OH2 3695   0.515   2.100   3.265 -0.1914  0.2051  1.2488
 1230TIP3    H1 3696   0.433   2.137   3.234 -0.6097 -0.1114  1.9545
 1230TIP3    H2 3697   0.488   2.032   3.327  0.5504 -1.0495  0.2471
 1231TIP3   OH2 3698   5.159   3.670   3.633 -0.2073 -0.7141 -0.4077
 1231TIP3    H1 3699   5.143   3.592   3.579 -1.6577 -0.9516  0.3182
 1231TIP3    H2 3700   5.225   3.641   3.696  0.4312 -0.8626 -1.1187
 1232TIP3   OH2 3701   0.694   3.588   4.314 -0.1977 -0.2279 -0.5575
 1232TIP3    H1 3702   0.687   3.678   4.284 -2.3086 -0.2828 -0.4308
 1232TIP3    H2 3703   0.603   3.561   4.330  0.4563 -1.9938  0.5438
 1233TIP3   OH2 3704   0.929   1.797   0.485  0.1873 -0.3371  0.7251
 1233TIP3    H1 3705   0.855   1.736   0.488  0.0741 -0.2925 -0.5386
 1233TIP3    H2 3706   1.003   1.746   0.518 -0.1827 -0.7177  0.9840
 1234TIP3   OH2 3707   6.319   4.471   2.215 -0.1655  0.5879 -0.4226
 1234TIP3    H1 3708   6.313   4.381   2.182  0.0990  0.7267 -0.8636
 1234TIP3    H2 3709   6.396   4.507   2.172  1.5121  0.1093  1.9959
 1235TIP3   OH2 3710   0.275   3.869   0.781 -0.2415 -0.3315 -0.2400
 1235TIP3    H1 3711   0.323   3.950   0.799 -0.2792 -0.3188 -0.1975
 1235TIP3    H2 3712   0.270   3.824   0.865  0.0778 -0.5406 -0.3264
 1236TIP3   OH2 3713   3.381   3.473   0.865 -0.2263  0.1467  0.1144
 1236TIP3    H1 3714   3.335   3.396   0.832 -0.6093  0.4418 -0.0444
 1236TIP3    H2 3715   3.454   3.437   0.915  0.3643 -0.3158 -1.0420
 1237TIP3   OH2 3716   4.080   1.254   1.201  0.3445 -0.3142 -0.2270
 1237TIP3    H1 3717   3.997   1.265   1.153  0.4377 -0.2813 -0.3813
 1237TIP3    H2 3718   4.068   1.304   1.282  0.2429 -0.2436 -0.2853
 1238TIP3   OH2 3719   2.708   0.807   3.050  0.2292  0.4088  0.7096
 1238TIP3    H1 3720   2.693   0.898   3.024  2.0515  1.4976  3.0561
 1238TIP3    H2 3721   2.790   0.783   3.006 -1.0997 -0.7700 -1.2630
 1239TIP3   OH2 3722   0.457   1.934   3.491  0.0127 -0.2699 -0.3173
 1239TIP3    H1 3723   0.499   1.851   3.512 -0.5781  0.0624  2.7335
 1239TIP3    H2 3724   0.367   1.910   3.469 -0.0789 -0.4730  0.2625
 1240TIP3   OH2 3725   2.684   0.905   1.143  0.4104  0.1400  0.0937
 1240TIP3    H1 3726   2.731   0.822   1.137 -0.1279 -0.1223 -0.4787
 1240TIP3    H2 3727   2.735   0.965   1.088  0.6398  0.1184  0.2812
 1241TIP3   OH2 3728   3.947   2.622   4.840  0.0568 -0.0495 -0.3726
 1241TIP3    H1 3729   3.946   2.597   4.933  0.5592 -1.0660 -0.6177
 1241TIP3    H2 3730   4.021   2.682   4.832  1.0719 -1.2492 -0.3911
 1242TIP3   OH2 3731   2.403   0.919   4.805  0.4043 -0.0712  0.5397
 1242TIP3    H1 3732   2.474   0.970   4.845  0.7113  0.5879 -0.8191
 1242TIP3    H2 3733   2.323   0.955   4.845  0.8330 -2.4812  4.0037
 1243TIP3   OH2 3734   3.142   2.729   0.175 -0.0724  0.4063  0.0832
 1243TIP3    H1 3735   3.063   2.755   0.128 -1.3609  1.7015  2.7458
 1243TIP3    H2 3736   3.212   2.777   0.131 -1.3183  2.1514 -0.1027
 1244TIP3   OH2 3737   3.487   1.011   5.143  0.1457 -0.0196  0.6656
 1244TIP3    H1 3738   3.438   1.013   5.061  1.3857  1.5563 -0.0947
 1244TIP3    H2 3739   3.421   0.991   5.210 -1.6962  2.5058 -0.2356
 1245TIP3   OH2 3740   1.310   4.994   1.559  0.1011  0.1610 -0.2885
 1245TIP3    H1 3741   1.324   5.080   1.520 -0.4827  0.7957  0.8433
 1245TIP3    H2 3742   1.276   4.941   1.488  1.4307  0.5616 -1.2702
 1246TIP3   OH2 3743   4.833   4.803   4.570 -0.1124 -0.8897 -0.5525
 1246TIP3    H1 3744   4.825   4.709   4.556 -0.3221 -0.5697 -2.8845
 1246TIP3    H2 3745   4.867   4.838   4.488 -0.2617  1.1221  0.1644
 1247TIP3   OH2 3746   5.974   4.669   1.213 -0.6098 -0.1907 -0.3702
 1247TIP3    H1 3747   6.038   4.662   1.284 -0.6253 -0.5208 -0.3881
 1247TIP3    H2 3748   5.960   4.579   1.184 -2.6316 -0.3970  1.0305
 1248TIP3   OH2 3749   1.074   4.358   1.910 -0.2720 -0.2893  0.4229
 1248TIP3    H1 3750   1.023   4.341   1.989 -0.3685  1.4076  0.7697
 1248TIP3    H2 3751   1.165   4.350   1.939 -0.3053 -1.5496  0.2285
 1249TIP3   OH2 3752   0.544   4.975   2.584 -0.1557 -0.4397 -0.3431
 1249TIP3    H1 3753   0.577   5.024   2.659 -0.8411  0.0051 -0.3213
 1249TIP3    H2 3754   0.460   5.016   2.564 -0.9870 -1.9120 -0.0321
 1250TIP3   OH2 3755   3.760   3.561   1.260 -0.2537 -0.3090 -0.0652
 1250TIP3    H1 3756   3.732   3.620   1.330  0.3453 -0.5719  0.3958
 1250TIP3    H2 3757   3.752   3.474   1.297 -0.2235 -0.4654 -0.4250
 1251TIP3   OH2 3758   4.928   4.800   5.097  0.2106  0.4345  0.4834
 1251TIP3    H1 3759   4.999   4.757   5.048 -0.4269  0.9111 -0.9128
 1251TIP3    H2 3760   4.897   4.732   5.157  1.8024  0.2044  1.1051
 1252TIP3   OH2 3761   1.208   0.143   1.592  0.2648  0.2016  0.2300
 1252TIP3    H1 3762   1.114   0.140   1.610  0.1273  1.4267 -0.1819
 1252TIP3    H2 3763   1.249   0.153   1.678  0.0549 -0.8305  0.4542
 1253TIP3   OH2 3764   4.409   4.092   4.053  0.0733 -0.6823 -0.2174
 1253TIP3    H1 3765   4.325   4.126   4.086  0.7166  0.6525  0.1288
 1253TIP3    H2 3766   4.437   4.028   4.118 -1.4455 -2.4150 -1.1622
 1254TIP3   OH2 3767   5.035   0.825   1.720  0.0056  0.4100 -0.3408
 1254TIP3    H1 3768   5.066   0.765   1.653  1.6543  0.3955  0.3785
 1254TIP3    H2 3769   4.986   0.770   1.781 -3.1136  0.7000 -2.3712
 1255TIP3   OH2 3770   2.300   4.415   2.422  0.1204 -0.1489  0.1356
 1255TIP3    H1 3771   2.335   4.339   2.375 -1.4968 -0.6976 -0.2181
 1255TIP3    H2 3772   2.210   4.424   2.391  0.2318  1.8507  0.2659
 1256TIP3   OH2 3773   3.829   0.999   0.476 -0.3672 -0.3131 -0.0173
 1256TIP3    H1 3774   3.809   0.909   0.452  0.3468 -0.8194  1.1806
 1256TIP3    H2 3775   3.777   1.015   0.554 -0.3468  0.2467 -0.1186
 1257TIP3   OH2 3776   1.804   5.963   4.704  0.1032  0.0494  0.3075
 1257TIP3    H1 3777   1.754   5.894   4.746 -0.1345 -0.2306 -0.4268
 1257TIP3    H2 3778   1.895   5.944   4.727 -0.1098  0.6291  1.7448
 1258TIP3   OH2 3779   1.360   5.334   4.854  0.5820  0.2008 -0.5216
 1258TIP3    H1 3780   1.443   5.369   4.886  0.1740 -0.0392  0.8967
 1258TIP3    H2 3781   1.294   5.374   4.911 -0.3155  0.6244 -1.8168
 1259TIP3   OH2 3782   1.435   4.818   3.826 -0.0210  0.1666  0.2006
 1259TIP3    H1 3783   1.382   4.790   3.901  0.8241 -3.0823 -0.2687
 1259TIP3    H2 3784   1.400   4.769   3.752 -0.1130  2.4796 -1.4100
 1260TIP3   OH2 3785   3.542   3.891   3.327 -0.2473  0.0216  0.1630
 1260TIP3    H1 3786   3.476   3.828   3.357  0.2453  0.1952  1.6789
 1260TIP3    H2 3787   3.625   3.855   3.357  0.1574  0.7876 -0.0131
 1261TIP3   OH2 3788   3.254   4.479   4.369 -0.0684  0.2320  0.2116
 1261TIP3    H1 3789   3.320   4.477   4.300 -1.6539  0.0084 -1.3640
 1261TIP3    H2 3790   3.254   4.569   4.400  0.4990  0.3897 -0.2262
 1262TIP3   OH2 3791   0.825   2.997   3.955 -0.6582 -0.1958  0.1913
 1262TIP3    H1 3792   0.782   3.039   4.030 -0.4344 -1.0714  0.8366
 1262TIP3    H2 3793   0.834   2.905   3.982  2.1960  0.0547  0.3718
 1263TIP3   OH2 3794   2.781   0.889   4.379 -0.4860 -0.0250 -1.3776
 1263TIP3    H1 3795   2.870   0.913   4.404 -0.8910  0.8879 -0.7234
 1263TIP3    H2 3796   2.791   0.835   4.301  0.7657 -1.7251 -0.1147
 1264TIP3   OH2 3797   6.011   3.222   1.924 -0.1023  0.3044  0.4056
 1264TIP3    H1 3798   6.098   3.258   1.912 -0.6545  1.4912 -0.2534
 1264TIP3    H2 3799   5.975   3.271   1.999 -0.1689 -0.2469  0.7367
 1265TIP3   OH2 3800   3.847   4.843   3.070 -0.0268 -0.2927 -0.0915
 1265TIP3    H1 3801   3.777   4.907   3.082  1.3427  1.2523  0.0020
 1265TIP3    H2 3802   3.916   4.870   3.131 -0.0795 -2.9573  1.3025
 1266TIP3   OH2 3803   3.803   4.898   4.977  0.6468  0.2585 -0.3440
 1266TIP3    H1 3804   3.758   4.875   4.896  0.7325 -0.9341 -0.0714
 1266TIP3    H2 3805   3.782   4.826   5.037  0.3075  1.2881  0.8010
 1267TIP3   OH2 3806   1.973   4.682   0.119  0.0295  0.2041 -0.0173
 1267TIP3    H1 3807   1.951   4.716   0.032  1.3418  2.9416  0.5905
 1267TIP3    H2 3808   1.892   4.690   0.169  0.1570  2.1645 -0.0488
 1268TIP3   OH2 3809   1.838   3.500   3.822  0.2478  0.4592 -0.2463
 1268TIP3    H1 3810   1.773   3.432   3.836  2.4407 -2.8519 -3.8340
 1268TIP3    H2 3811   1.870   3.522   3.909 -1.9163 -1.7505  1.2172
 1269TIP3   OH2 3812   2.621   0.288   0.018 -0.1387 -0.1522  0.4511
 1269TIP3    H1 3813   2.643   0.246   0.101 -0.9972  0.2317  0.8880
 1269TIP3    H2 3814   2.529   0.267   0.004 -0.7642  1.9721  0.9620
 1270TIP3   OH2 3815   0.146   5.647   3.234 -0.0170  0.1275  0.8308
 1270TIP3    H1 3816   0.195   5.570   3.203 -0.7385 -0.1280  0.3082
 1270TIP3    H2 3817   0.206   5.721   3.218 -0.2532 -0.0182 -0.9877
 1271TIP3   OH2 3818   1.109   4.236   0.195 -0.1027 -0.0519  0.4885
 1271TIP3    H1 3819   1.034   4.287   0.225  0.5598  1.1483  0.1896
 1271TIP3    H2 3820   1.180   4.263   0.254  1.3888  2.7834 -2.2865
 1272TIP3   OH2 3821   2.411   4.138   2.748 -0.1246  0.5548 -0.2997
 1272TIP3    H1 3822   2.395   4.103   2.836  0.9730  0.1645 -0.2324
 1272TIP3    H2 3823   2.408   4.233   2.759 -0.9579  0.5012 -0.0390
 1273TIP3   OH2 3824   1.792   5.235   0.409  0.2399  0.0288 -0.6280
 1273TIP3    H1 3825   1.792   5.162   0.472  0.3915 -0.1997 -0.8921
 1273TIP3    H2 3826   1.728   5.209   0.343 -0.8166  0.8113  0.0472
 1274TIP3   OH2 3827   4.598   1.530   4.994  0.4635 -0.2189 -0.3253
 1274TIP3    H1 3828   4.540   1.454   5.004  0.0648  0.1700  0.4829
 1274TIP3    H2 3829   4.647   1.533   5.076 -1.4834  1.9596  0.8910
 1275TIP3   OH2 3830   2.817   3.502   1.762  0.3177 -0.5495  0.2130
 1275TIP3    H1 3831   2.878   3.454   1.817 -1.5025 -1.0920  1.8752
 1275TIP3    H2 3832   2.777   3.436   1.706  0.6533 -0.3200 -0.3096
 1276TIP3   OH2 3833   5.393   3.303   0.851 -0.2356  0.2382 -0.0700
 1276TIP3    H1 3834   5.389   3.249   0.930 -0.4918  1.7688  0.9904
 1276TIP3    H2 3835   5.483   3.336   0.849  0.0114 -0.4331 -0.8881
 1277TIP3   OH2 3836   0.439   1.857   0.543  0.3705 -0.2487  0.6358
 1277TIP3    H1 3837   0.464   1.856   0.451 -0.5621 -0.3015  0.3770
 1277TIP3    H2 3838   0.490   1.787   0.583  2.8222  1.4499  0.7327
 1278TIP3   OH2 3839   5.802   3.229   1.400 -0.8858 -0.6647 -0.3173
 1278TIP3    H1 3840   5.707   3.221   1.413 -0.7796 -3.5677 -0.6471
 1278TIP3    H2 3841   5.839   3.213   1.487 -0.6585  0.7476 -0.1300
 1279TIP3   OH2 3842   2.682   1.985   1.066  0.5774  0.4089  0.2222
 1279TIP3    H1 3843   2.628   1.906   1.072  0.0384  0.7781  0.3052
 1279TIP3    H2 3844   2.706   1.991   0.973  0.2164  0.4074  0.1267
 1280TIP3   OH2 3845   3.887   5.332   0.527 -0.2251  0.4298 -0.2887
 1280TIP3    H1 3846   3.887   5.422   0.494 -1.7195  0.8467  0.7121
 1280TIP3    H2 3847   3.804   5.296   0.495 -0.5472  0.0668  0.9101
 1281TIP3   OH2 3848   5.965   0.214   4.033 -0.2093  0.2284  0.3926
 1281TIP3    H1 3849   5.872   0.236   4.033 -0.8718 -2.3150  0.1778
 1281TIP3    H2 3850   6.007   0.286   4.081 -1.9943  2.3821 -1.0762
 1282TIP3   OH2 3851   3.211   3.726   3.662  0.3436 -0.1245  0.3493
 1282TIP3    H1 3852   3.302   3.701   3.650  0.2269 -0.4511  0.1361
 1282TIP3    H2 3853   3.162   3.644   3.661 -0.1144  0.1431 -1.0112
 1283TIP3   OH2 3854   1.266   3.691   1.355 -0.7628 -0.1388 -0.5363
 1283TIP3    H1 3855   1.224   3.714   1.438 -1.3459 -0.4461 -0.7404
 1283TIP3    H2 3856   1.223   3.609   1.328  0.2694 -0.6984 -0.5395
 1284TIP3   OH2 3857   2.897   4.710   0.876  0.3693  0.0464  0.0099
 1284TIP3    H1 3858   2.831   4.676   0.815 -0.8196 -1.8331  2.1833
 1284TIP3    H2 3859   2.980   4.676   0.843 -0.2682 -1.1706 -0.4108
 1285TIP3   OH2 3860   0.752   2.727   2.808 -0.0526  0.1298  0.3140
 1285TIP3    H1 3861   0.784   2.674   2.735  0.0236  0.1292  0.3476
 1285TIP3    H2 3862   0.663   2.696   2.823  0.1301 -0.2700  0.5973
 1286TIP3   OH2 3863  -0.026   3.463   4.351 -0.3928  0.4321  0.7642
 1286TIP3    H1 3864  -0.003   3.506   4.269  0.7511 -1.2855  0.1177
 1286TIP3    H2 3865   0.044   3.486   4.411  1.1770 -1.7662 -0.0889
 1287TIP3   OH2 3866   5.479   5.711   2.133  0.4562 -0.5689  0.7986
 1287TIP3    H1 3867   5.483   5.692   2.226  0.3164 -1.1731  0.6846
 1287TIP3    H2 3868   5.567   5.692   2.100  0.9744  1.1558  1.0732
 1288TIP3   OH2 3869   5.491   2.340   2.528  0.0036 -0.2209  0.0412
 1288TIP3    H1 3870   5.503   2.416   2.584 -2.7703  2.2462 -2.3849
 1288TIP3    H2 3871   5.560   2.346   2.463 -0.1672  0.1605 -0.1019
 1289TIP3   OH2 3872   4.813   5.681   1.368  0.3875 -0.2501  0.4157
 1289TIP3    H1 3873   4.769   5.654   1.288  0.8872  1.2750 -0.4021
 1289TIP3    H2 3874   4.890   5.624   1.373  1.0435  0.4924 -0.8958
 1290TIP3   OH2 3875   1.968   4.032   1.673  0.4377  0.2682  0.4750
 1290TIP3    H1 3876   2.010   3.950   1.699  3.6586  1.0565 -1.6664
 1290TIP3    H2 3877   1.888   4.004   1.627  1.0686 -1.6329  0.4467
 1291TIP3   OH2 3878   1.167   2.984   1.231  0.1135 -0.5322  0.4016
 1291TIP3    H1 3879   1.089   2.940   1.197  0.5558 -0.9996 -0.0237
 1291TIP3    H2 3880   1.222   2.999   1.154  1.5617 -2.4801  0.9767
 1292TIP3   OH2 3881   0.244   4.101   0.593 -0.2163 -0.1396 -0.0272
 1292TIP3    H1 3882   0.267   4.108   0.686 -0.8877 -1.4806  0.2702
 1292TIP3    H2 3883   0.299   4.029   0.560  1.4862  1.5858 -1.2059
 1293TIP3   OH2 3884   0.450   3.692   4.912 -0.5736 -0.1105  0.1636
 1293TIP3    H1 3885   0.455   3.604   4.875  0.2231 -1.1866  2.5696
 1293TIP3    H2 3886   0.477   3.750   4.842 -2.5512 -1.5874 -1.9792
 1294TIP3   OH2 3887   5.734   0.170   1.968 -0.5260 -0.2278  0.0370
 1294TIP3    H1 3888   5.653   0.184   1.917  0.7044  1.6966 -1.5750
 1294TIP3    H2 3889   5.715   0.210   2.053 -1.2251  0.3419 -0.3682
 1295TIP3   OH2 3890   4.320   1.573   0.865  0.0031 -0.2444  0.0813
 1295TIP3    H1 3891   4.393   1.594   0.806 -0.3454 -0.6642 -0.5090
 1295TIP3    H2 3892   4.359   1.515   0.931 -0.3329 -2.7824 -1.7883
 1296TIP3   OH2 3893   3.054   2.316   3.540  0.0825 -0.4156  0.0599
 1296TIP3    H1 3894   3.039   2.350   3.452  2.2926 -0.7520 -0.5141
 1296TIP3    H2 3895   3.002   2.372   3.597  0.8673  1.7067 -1.1966
 1297TIP3   OH2 3896   1.234   4.787   0.354 -0.2804 -0.0183 -0.1219
 1297TIP3    H1 3897   1.146   4.766   0.386 -0.1803  0.0229  0.1828
 1297TIP3    H2 3898   1.248   4.726   0.282 -0.3935 -0.3084  0.0972
 1298TIP3   OH2 3899   1.829   2.240   4.433 -0.2936 -0.6301  0.1799
 1298TIP3    H1 3900   1.739   2.208   4.432 -1.6089  2.5127  1.5135
 1298TIP3    H2 3901   1.855   2.245   4.341 -2.8085  1.4865 -0.5221
 1299TIP3   OH2 3902   3.187   4.936   1.901  0.2274  0.1792  0.2817
 1299TIP3    H1 3903   3.235   4.941   1.983  0.4778  0.0934  0.1413
 1299TIP3    H2 3904   3.150   4.847   1.901  0.2532  0.1685  0.2868
 1300TIP3   OH2 3905   2.440   3.161   1.388  0.1040  0.1491 -0.0783
 1300TIP3    H1 3906   2.524   3.137   1.348 -0.3206 -0.8540 -0.3838
 1300TIP3    H2 3907   2.374   3.115   1.336 -0.6699  1.1689 -0.0326
 1301TIP3   OH2 3908   0.183   4.660   1.041  0.0643  0.0512  0.2360
 1301TIP3    H1 3909   0.199   4.693   0.953  1.5465 -0.0143  0.4659
 1301TIP3    H2 3910   0.269   4.656   1.082 -0.4310 -1.2910  1.2143
 1302TIP3   OH2 3911   0.895   1.240   1.861  0.0522  0.0676  0.1427
 1302TIP3    H1 3912   0.881   1.196   1.945 -0.2081  0.0288  0.0786
 1302TIP3    H2 3913   0.968   1.299   1.877  1.0883 -1.1116 -0.0329
 1303TIP3   OH2 3914   0.540   0.230   0.559  0.2732 -0.1474  0.5329
 1303TIP3    H1 3915   0.517   0.264   0.473 -2.0857 -0.0406  1.1411
 1303TIP3    H2 3916   0.539   0.306   0.617 -1.0045 -0.5779  1.1363
 1304TIP3   OH2 3917   0.241   2.765   3.843  0.4650  0.0340 -0.0979
 1304TIP3    H1 3918   0.178   2.834   3.864  0.8840  0.0710  1.1451
 1304TIP3    H2 3919   0.216   2.692   3.901  0.4870 -0.5884 -0.8582
 1305TIP3   OH2 3920   5.965   2.547   2.218  0.4314  0.1723  0.1907
 1305TIP3    H1 3921   5.898   2.565   2.284 -0.3447  1.4892 -0.9202
 1305TIP3    H2 3922   5.997   2.459   2.240 -0.9461 -0.0720  1.3379
 1306TIP3   OH2 3923   1.087   1.651   2.784  0.0310 -0.2145  0.0496
 1306TIP3    H1 3924   1.109   1.682   2.696  0.9244  1.3356  0.7660
 1306TIP3    H2 3925   1.161   1.595   2.809  0.7255  0.8662  0.5012
 1307TIP3   OH2 3926   4.039   2.803   0.579 -0.1797 -0.2249 -0.0024
 1307TIP3    H1 3927   4.110   2.763   0.528 -2.6741 -3.2103 -1.4596
 1307TIP3    H2 3928   3.978   2.835   0.513 -1.6649 -0.6095  1.1404
 1308TIP3   OH2 3929   5.775   3.086   5.057  0.0584  0.2323  0.1587
 1308TIP3    H1 3930   5.780   3.056   4.966  0.2478  0.2000  0.1793
 1308TIP3    H2 3931   5.733   3.173   5.051 -1.2369 -0.3663  0.1728
 1309TIP3   OH2 3932   0.798   3.176   3.455  0.2222 -0.6382 -0.1783
 1309TIP3    H1 3933   0.783   3.214   3.368  0.0528 -0.3200 -0.0101
 1309TIP3    H2 3934   0.776   3.246   3.516 -3.0146 -1.8873  0.2700
 1310TIP3   OH2 3935   2.690   5.472   5.167 -0.0037 -0.0024 -0.0049
 1310TIP3    H1 3936   2.689   5.545   5.105 -2.4562  0.3305  0.3477
 1310TIP3    H2 3937   2.724   5.398   5.116 -0.3024  0.6760 -1.2343
 1311TIP3   OH2 3938   5.541   2.926   0.672 -0.3590  0.1449 -0.0811
 1311TIP3    H1 3939   5.631   2.906   0.696  0.8189  2.2177 -2.3977
 1311TIP3    H2 3940   5.548   2.985   0.597 -3.6599  0.2490 -0.4609
 1312TIP3   OH2 3941   3.563   2.399   2.088 -0.2955 -0.1010 -0.0827
 1312TIP3    H1 3942   3.595   2.484   2.060 -0.6642  0.1614  0.2753
 1312TIP3    H2 3943   3.537   2.355   2.007  0.3132 -0.0475 -0.3077
 1313TIP3   OH2 3944   5.116   0.670   2.753 -0.1112 -0.3983 -0.6696
 1313TIP3    H1 3945   5.177   0.738   2.782 -1.0944  0.9202 -1.6046
 1313TIP3    H2 3946   5.084   0.630   2.834  0.0543  0.6342 -0.0850
 1314TIP3   OH2 3947   6.074   4.319   4.293 -0.5176 -0.2286  0.0323
 1314TIP3    H1 3948   6.055   4.367   4.373 -2.1264 -0.8048  0.0256
 1314TIP3    H2 3949   6.092   4.230   4.322  1.4030  0.0919 -0.0515
 1315TIP3   OH2 3950   5.299   2.861   2.199 -0.2472  0.1874  0.4338
 1315TIP3    H1 3951   5.346   2.926   2.147 -0.5282 -1.3869 -1.9821
 1315TIP3    H2 3952   5.216   2.848   2.152 -0.4237 -1.4851  1.1117
 1316TIP3   OH2 3953   3.053   2.145   4.814  0.5105 -0.4800 -0.1286
 1316TIP3    H1 3954   3.116   2.125   4.883 -0.9161  0.1238  1.4002
 1316TIP3    H2 3955   3.091   2.220   4.768  0.3471  0.7057  1.5851
 1317TIP3   OH2 3956   4.288   0.665   0.552  0.4751  0.2306 -0.0223
 1317TIP3    H1 3957   4.203   0.705   0.572  0.0899 -0.4167 -0.3158
 1317TIP3    H2 3958   4.352   0.721   0.595 -0.1021  0.7603  0.1562
 1318TIP3   OH2 3959   3.306   4.021   2.968  0.2742  0.3723 -0.3195
 1318TIP3    H1 3960   3.262   3.943   2.934 -1.4716  0.8013  0.8223
 1318TIP3    H2 3961   3.303   4.084   2.896  0.0422 -0.0026 -0.6408
 1319TIP3   OH2 3962   1.226   0.055   1.122 -0.2587 -0.2225 -0.1871
 1319TIP3    H1 3963   1.147   0.058   1.176 -1.0753 -0.0807 -1.3629
 1319TIP3    H2 3964   1.212  -0.017   1.061  0.6525 -0.3760 -0.2371
 1320TIP3   OH2 3965   0.576   1.635   0.609  0.2488 -0.2812  0.6973
 1320TIP3    H1 3966   0.594   1.562   0.551 -0.0077  0.0345  0.2169
 1320TIP3    H2 3967   0.632   1.619   0.686 -1.6167 -2.3136  1.7442
 1321TIP3   OH2 3968   2.976   1.824   1.745 -0.0041  0.1994 -0.1454
 1321TIP3    H1 3969   3.036   1.773   1.799 -1.3026 -1.7765 -0.4359
 1321TIP3    H2 3970   2.916   1.865   1.808 -0.6782 -0.9901  0.0248
 1322TIP3   OH2 3971   3.671   0.517   3.419 -0.5823 -0.1716 -0.0694
 1322TIP3    H1 3972   3.674   0.608   3.391  0.7355  0.7709  2.7691
 1322TIP3    H2 3973   3.743   0.475   3.372 -0.5267  0.5025 -0.6028
 1323TIP3   OH2 3974   0.989   3.008   0.533  0.1138 -0.4119  0.1659
 1323TIP3    H1 3975   1.050   2.979   0.601 -0.0346  0.3871  0.6591
 1323TIP3    H2 3976   1.015   2.960   0.455  3.1740  1.8213 -0.4082
 1324TIP3   OH2 3977   4.093   0.587   1.502  0.0199 -0.1412 -0.1727
 1324TIP3    H1 3978   4.100   0.663   1.444 -0.1642 -0.3917 -0.5293
 1324TIP3    H2 3979   4.183   0.569   1.529  0.1505 -0.2422 -0.6697
 1325TIP3   OH2 3980   3.623   1.178   1.747 -0.1622  0.0328  0.0391
 1325TIP3    H1 3981   3.649   1.086   1.755  1.5435  0.4825  0.0311
 1325TIP3    H2 3982   3.589   1.201   1.833 -0.1707 -0.4640  0.1724
 1326TIP3   OH2 3983   6.261   4.371   1.541 -0.0125 -0.6495 -0.1377
 1326TIP3    H1 3984   6.176   4.328   1.535 -0.4320 -0.2573  2.1294
 1326TIP3    H2 3985   6.266   4.403   1.631  1.9477  0.5945 -0.6192
 1327TIP3   OH2 3986   0.570   3.477   1.239  0.5989 -0.2477 -0.2942
 1327TIP3    H1 3987   0.589   3.396   1.287  0.1940  0.2285  0.7075
 1327TIP3    H2 3988   0.575   3.546   1.306 -0.3872  0.3968 -0.8565
 1328TIP3   OH2 3989   4.279   2.230   4.176  0.2399  0.4122  0.1458
 1328TIP3    H1 3990   4.328   2.158   4.136  1.3868  0.2541  1.7360
 1328TIP3    H2 3991   4.296   2.305   4.119  0.7507 -0.0951 -0.3841
 1329TIP3   OH2 3992   3.398   1.861   1.715 -0.6466 -0.5973 -0.0202
 1329TIP3    H1 3993   3.432   1.949   1.699  0.2123 -0.9709 -0.3206
 1329TIP3    H2 3994   3.454   1.826   1.785 -0.4445 -1.2003 -0.4742
 1330TIP3   OH2 3995   0.254   1.803   4.115  0.5630 -0.4831  0.2053
 1330TIP3    H1 3996   0.217   1.751   4.186 -0.3667 -1.1445 -0.7280
 1330TIP3    H2 3997   0.181   1.816   4.055  1.3218  0.0721 -0.6214
 1331TIP3   OH2 3998   2.959   0.196   3.137  0.0476  0.1996 -0.5372
 1331TIP3    H1 3999   3.054   0.197   3.123  0.2709  1.1464  0.8182
 1331TIP3    H2 4000   2.945   0.126   3.201 -0.1078  0.2665 -0.4963
 1332TIP3   OH2 4001   1.612   2.731   0.184  0.2898 -0.0451  0.2022
 1332TIP3    H1 4002   1.648   2.649   0.151  1.4483  0.9398 -1.1069
 1332TIP3    H2 4003   1.525   2.738   0.144  0.3270 -0.4593  0.0492
 1333TIP3   OH2 4004   6.193   0.111   1.512 -0.5066  0.4811 -0.0289
 1333TIP3    H1 4005   6.162   0.147   1.429 -3.0839  0.9973  1.0603
 1333TIP3    H2 4006   6.247   0.037   1.487 -2.1543 -0.1069 -2.1767
 1334TIP3   OH2 4007   1.557   5.916   2.543 -0.8386 -0.1893  0.2974
 1334TIP3    H1 4008   1.504   5.889   2.468 -1.2614 -1.0835  0.9049
 1334TIP3    H2 4009   1.639   5.868   2.533 -1.3914 -1.3488  1.0929
 1335TIP3   OH2 4010   2.403   4.571   4.902  0.2174  0.4026 -0.1652
 1335TIP3    H1 4011   2.466   4.555   4.972 -1.3232 -1.5544  0.8794
 1335TIP3    H2 4012   2.356   4.488   4.893 -1.3014  1.3740 -1.8307
 1336TIP3   OH2 4013   2.590   1.201   4.408 -0.4330  0.0185 -0.2164
 1336TIP3    H1 4014   2.556   1.267   4.469 -1.7383  0.7126 -1.6171
 1336TIP3    H2 4015   2.683   1.220   4.401 -0.0876 -0.5282  2.0667
 1337TIP3   OH2 4016   3.734   4.113   3.319  0.0088  0.3944 -0.1655
 1337TIP3    H1 4017   3.662   4.100   3.257  0.5863 -1.1500 -0.5647
 1337TIP3    H2 4018   3.782   4.188   3.286  0.5066 -0.5975 -1.8314
 1338TIP3   OH2 4019   0.575   5.932   2.212 -0.1621  0.2267 -0.1785
 1338TIP3    H1 4020   0.530   5.875   2.151 -1.0226  0.4189  0.2680
 1338TIP3    H2 4021   0.664   5.938   2.177  1.2254 -4.4780  1.7222
 1339TIP3   OH2 4022   0.288   0.264   3.498  0.2737  0.0229  0.0700
 1339TIP3    H1 4023   0.360   0.242   3.557  1.1136 -0.0651 -0.9655
 1339TIP3    H2 4024   0.285   0.192   3.436 -0.5274  0.1745 -0.0756
 1340TIP3   OH2 4025   2.434   1.985   3.267 -0.3489 -0.4631 -0.6025
 1340TIP3    H1 4026   2.405   2.069   3.232  1.4260 -0.2739 -1.7822
 1340TIP3    H2 4027   2.401   1.920   3.204  0.3370 -0.4019 -1.0349
 1341TIP3   OH2 4028   0.348   1.351   0.518 -0.3627  0.6285 -0.1333
 1341TIP3    H1 4029   0.280   1.373   0.455 -0.5746  4.6314  1.1911
 1341TIP3    H2 4030   0.422   1.405   0.494  1.1974 -1.1189  0.4760
 1342TIP3   OH2 4031   0.183   5.786   0.117 -0.2197 -0.0804 -0.0712
 1342TIP3    H1 4032   0.121   5.716   0.138  1.2039 -1.5397 -0.5037
 1342TIP3    H2 4033   0.219   5.811   0.202  0.0143 -0.6116 -0.0087
 1343TIP3   OH2 4034   5.722   5.596   3.646 -0.5697  0.7307  0.3612
 1343TIP3    H1 4035   5.729   5.690   3.630 -0.9565  1.1013  2.2075
 1343TIP3    H2 4036   5.810   5.569   3.675 -0.5114  0.5509  0.0269
 1344TIP3   OH2 4037   4.841   4.089   1.634  0.6643  0.5575 -0.1803
 1344TIP3    H1 4038   4.916   4.097   1.574 -0.2383 -0.2583 -1.4739
 1344TIP3    H2 4039   4.878   4.106   1.720  2.7777 -1.7120 -0.5004
 1345TIP3   OH2 4040   4.701   4.898   4.083 -0.1746  0.8509  0.6631
 1345TIP3    H1 4041   4.627   4.957   4.102 -2.2254 -1.0351 -0.9145
 1345TIP3    H2 4042   4.666   4.835   4.021  2.5762 -0.7012  0.5269
 1346TIP3   OH2 4043   4.078   3.951   0.493 -0.7236  0.4735 -0.1135
 1346TIP3    H1 4044   4.106   4.036   0.458 -2.0443  0.9940  0.0245
 1346TIP3    H2 4045   4.066   3.897   0.416  2.6467 -0.4983 -0.1214
 1347TIP3   OH2 4046   2.538   2.077   5.038 -0.0113 -0.3363 -0.3837
 1347TIP3    H1 4047   2.490   2.145   4.989  0.3092  0.0678 -0.1441
 1347TIP3    H2 4048   2.629   2.107   5.038  0.1633 -0.8635 -0.4319
 1348TIP3   OH2 4049   0.123   4.189   4.523  0.0167 -0.0595  0.1021
 1348TIP3    H1 4050   0.051   4.140   4.483  0.2347 -0.5689  0.3237
 1348TIP3    H2 4051   0.081   4.256   4.576 -0.3181 -1.0042  1.0481
 1349TIP3   OH2 4052   3.703   0.592   4.416  0.1325 -0.6194  0.3762
 1349TIP3    H1 4053   3.634   0.618   4.477 -0.4998 -0.9273 -0.2020
 1349TIP3    H2 4054   3.723   0.501   4.439  0.5860 -0.4270  0.7601
 1350TIP3   OH2 4055   4.342   1.411   1.089 -0.5270 -0.0895 -0.7421
 1350TIP3    H1 4056   4.296   1.403   1.173 -0.2089  0.0182 -0.5536
 1350TIP3    H2 4057   4.433   1.390   1.109 -0.0248  1.9324 -0.6033
 1351TIP3   OH2 4058   1.945   2.333   3.907  0.3667  0.1433 -0.4671
 1351TIP3    H1 4059   1.933   2.407   3.848  1.7221 -1.1930 -2.5385
 1351TIP3    H2 4060   2.017   2.282   3.869 -0.3383 -2.1249  0.9775
 1352TIP3   OH2 4061   3.715   3.184   5.000 -0.7781 -0.1046  0.0956
 1352TIP3    H1 4062   3.651   3.167   5.069 -1.0617  1.5888  0.3077
 1352TIP3    H2 4063   3.799   3.193   5.046 -1.1605  2.3350  0.4867
 1353TIP3   OH2 4064   5.475   4.058   0.345 -0.3239  0.3471  0.2953
 1353TIP3    H1 4065   5.422   3.979   0.338  0.9571 -0.7207  1.9200
 1353TIP3    H2 4066   5.435   4.120   0.283 -3.2814 -0.4331  1.2923
 1354TIP3   OH2 4067   2.602   5.370   3.519 -0.4596 -0.2668  0.3362
 1354TIP3    H1 4068   2.661   5.319   3.465  1.4598  1.9662  0.1848
 1354TIP3    H2 4069   2.581   5.447   3.466  0.1056  1.1411  2.0538
 1355TIP3   OH2 4070   5.468   2.194   2.997 -0.3774  0.5306  0.1727
 1355TIP3    H1 4071   5.528   2.120   2.991 -0.1716  0.8147 -1.5835
 1355TIP3    H2 4072   5.500   2.257   2.933 -0.8209  1.9717  1.3166
 1356TIP3   OH2 4073   4.327   1.395   1.377 -0.0424  0.2690 -0.5162
 1356TIP3    H1 4074   4.329   1.305   1.410 -0.1768 -0.2767 -1.9614
 1356TIP3    H2 4075   4.264   1.439   1.435 -0.1603 -0.6119  0.0557
 1357TIP3   OH2 4076   2.006   0.792   3.293 -0.5232 -0.1944 -0.0860
 1357TIP3    H1 4077   1.990   0.763   3.203  1.6567  0.6448 -0.8134
 1357TIP3    H2 4078   2.101   0.785   3.304 -0.6547  0.4744  1.8927
 1358TIP3   OH2 4079   1.250   3.429   3.101  0.0030 -0.6768  0.0066
 1358TIP3    H1 4080   1.338   3.457   3.128 -1.2559  1.7413  2.1046
 1358TIP3    H2 4081   1.248   3.336   3.121  2.5641 -1.1976 -1.6613
 1359TIP3   OH2 4082   5.225   5.535   3.555 -0.4800 -0.2407  0.2267
 1359TIP3    H1 4083   5.256   5.496   3.473  2.7144  1.8520  0.2656
 1359TIP3    H2 4084   5.202   5.625   3.532 -0.9643 -0.0614  1.3556
 1360TIP3   OH2 4085   0.441   3.145   2.885 -0.2013  0.0532  0.7004
 1360TIP3    H1 4086   0.526   3.138   2.842 -1.0933 -2.6771 -0.7916
 1360TIP3    H2 4087   0.458   3.117   2.975  0.6711  0.6629  0.7419
 1361TIP3   OH2 4088   5.033   2.239   5.127 -0.5796  0.0879 -0.4222
 1361TIP3    H1 4089   5.095   2.245   5.200 -0.3862  2.9440 -0.7054
 1361TIP3    H2 4090   4.947   2.230   5.169 -0.2066 -2.1887 -0.0024
 1362TIP3   OH2 4091   5.129   0.022   4.927 -0.3934 -0.0960  0.2690
 1362TIP3    H1 4092   5.171  -0.055   4.964  0.8802  0.1577 -0.5750
 1362TIP3    H2 4093   5.145   0.091   4.991  0.2529 -0.0773  0.1038
 1363TIP3   OH2 4094   3.022   3.823   3.474 -0.5811  0.8161  0.1418
 1363TIP3    H1 4095   3.103   3.798   3.518  0.4123 -0.7134 -2.3817
 1363TIP3    H2 4096   2.958   3.757   3.503  0.7201 -1.8053 -2.4782
 1364TIP3   OH2 4097   3.833   5.319   5.105  0.1037  0.1455  0.3796
 1364TIP3    H1 4098   3.829   5.243   5.163  0.8048  0.1705  0.4695
 1364TIP3    H2 4099   3.792   5.289   5.024 -0.8541  0.1086  0.8765
 1365TIP3   OH2 4100   1.742   0.766   4.321 -0.2142  0.1595 -0.2035
 1365TIP3    H1 4101   1.691   0.725   4.391 -0.4533 -1.3346 -1.2137
 1365TIP3    H2 4102   1.813   0.704   4.304  0.2078  0.8094 -0.8475
 1366TIP3   OH2 4103   3.328   1.211   1.165 -0.0603 -0.3652  0.5710
 1366TIP3    H1 4104   3.267   1.179   1.098 -0.0380  0.8078 -0.0425
 1366TIP3    H2 4105   3.273   1.232   1.240 -0.6845  2.0242 -0.4558
 1367TIP3   OH2 4106   2.302   5.444   0.853 -0.1198 -0.4143 -0.4965
 1367TIP3    H1 4107   2.365   5.516   0.858  0.0190 -0.5201 -0.7003
 1367TIP3    H2 4108   2.330   5.392   0.777  0.4605 -1.3240  0.3105
 1368TIP3   OH2 4109   1.567   4.556   0.120  0.1858  0.4337  0.0617
 1368TIP3    H1 4110   1.602   4.575   0.033  2.2417  1.0813  0.9579
 1368TIP3    H2 4111   1.584   4.636   0.171 -1.3555  0.2301  0.9650
 1369TIP3   OH2 4112   0.346   5.824   3.182  0.0484  0.2134 -0.3511
 1369TIP3    H1 4113   0.405   5.873   3.239  1.3519  2.4300 -3.3133
 1369TIP3    H2 4114   0.398   5.750   3.152 -0.5935 -0.8795  1.1627
 1370TIP3   OH2 4115   1.690   0.860   0.617  0.0452  0.1711  0.3311
 1370TIP3    H1 4116   1.780   0.890   0.601 -0.1436  1.6274  1.7070
 1370TIP3    H2 4117   1.688   0.844   0.712 -0.4005 -2.5746 -0.0616
 1371TIP3   OH2 4118   5.728   2.045   0.711 -0.2787 -0.0102 -0.5542
 1371TIP3    H1 4119   5.662   2.098   0.756 -0.0418 -0.2894  0.1459
 1371TIP3    H2 4120   5.803   2.103   0.703  0.0639 -0.2865  0.4269
 1372TIP3   OH2 4121   2.744   2.016   0.302 -0.0993  0.2529  0.7405
 1372TIP3    H1 4122   2.719   2.026   0.210 -1.2234  0.2985  1.0313
 1372TIP3    H2 4123   2.835   2.045   0.305 -0.6427  2.2166  0.0025
 1373TIP3   OH2 4124   4.217   2.997   1.271 -0.0144  0.0903  0.2161
 1373TIP3    H1 4125   4.136   2.987   1.222 -0.3955 -1.5585  1.1110
 1373TIP3    H2 4126   4.253   3.081   1.241 -1.3741  0.2319 -1.1442
 1374TIP3   OH2 4127   5.168   5.325   1.878  0.1464  0.4272  0.5754
 1374TIP3    H1 4128   5.191   5.416   1.894  0.0044  0.2964  1.5895
 1374TIP3    H2 4129   5.086   5.328   1.828  0.1155  0.8499  0.6528
 1375TIP3   OH2 4130   5.010   0.263   0.090  0.0778 -0.2215  0.4523
 1375TIP3    H1 4131   4.941   0.327   0.106  1.1097  1.7206 -2.0860
 1375TIP3    H2 4132   4.964   0.184   0.063 -1.1747  0.2883  1.0105
 1376TIP3   OH2 4133   5.651   3.622   3.370  0.3524 -0.3475  0.0533
 1376TIP3    H1 4134   5.562   3.641   3.401  1.1270  0.9873  1.5833
 1376TIP3    H2 4135   5.651   3.652   3.279 -0.8522 -0.7194 -0.0942
 1377TIP3   OH2 4136   1.514   5.942   3.058 -0.0564 -0.0536  0.4923
 1377TIP3    H1 4137   1.419   5.928   3.066 -0.6381  2.3903 -0.9393
 1377TIP3    H2 4138   1.532   6.010   3.124  0.3699  0.5991 -0.2865
 1378TIP3   OH2 4139   1.771   1.325   5.027  0.0046 -0.3309  0.6653
 1378TIP3    H1 4140   1.822   1.405   5.040 -0.2710  0.0594 -0.5354
 1378TIP3    H2 4141   1.721   1.341   4.948 -0.5700 -1.4432  0.7850
 1379TIP3   OH2 4142   5.845   5.738   2.802 -0.1103  0.0534  0.0192
 1379TIP3    H1 4143   5.914   5.734   2.868 -0.9976 -0.6595  0.9323
 1379TIP3    H2 4144   5.774   5.685   2.838 -0.8491  0.1465 -1.2423
 1380TIP3   OH2 4145   5.657   3.798   4.432 -0.6646 -0.0416  0.1138
 1380TIP3    H1 4146   5.615   3.716   4.405  2.1480 -1.5112 -0.2206
 1380TIP3    H2 4147   5.675   3.844   4.350  0.1417 -0.3997  0.0771
 1381TIP3   OH2 4148   2.974   2.266   2.960  0.4882  0.2887  0.1408
 1381TIP3    H1 4149   2.890   2.244   3.000  0.3618  1.7457  0.7515
 1381TIP3    H2 4150   2.991   2.356   2.989  2.2943 -0.0119  0.0749
 1382TIP3   OH2 4151   1.764   0.800   1.480  0.2909 -0.5441 -0.2686
 1382TIP3    H1 4152   1.696   0.815   1.414  0.5269 -0.9005 -0.6006
 1382TIP3    H2 4153   1.726   0.831   1.562  0.3235  0.7704 -0.7146
 1383TIP3   OH2 4154   4.663   0.272   2.124  0.0522  0.2125 -0.6870
 1383TIP3    H1 4155   4.714   0.215   2.181 -1.5809 -1.8334 -1.1568
 1383TIP3    H2 4156   4.684   0.361   2.153  3.5558 -0.4991 -0.6507
 1384TIP3   OH2 4157   0.059   5.157   4.757 -0.1719 -0.4657  0.0821
 1384TIP3    H1 4158   0.029   5.246   4.743  0.2220 -0.2264  0.7001
 1384TIP3    H2 4159   0.038   5.138   4.849  1.1045 -0.4553  0.3964
 1385TIP3   OH2 4160   0.444   0.141   1.727 -0.4770 -0.2745  0.2167
 1385TIP3    H1 4161   0.482   0.229   1.729 -1.8764  0.3599  0.1060
 1385TIP3    H2 4162   0.391   0.140   1.647  0.4422 -1.6453 -0.4249
 1386TIP3   OH2 4163   4.917   0.730  -0.035  0.0423 -0.3841  0.1328
 1386TIP3    H1 4164   4.966   0.694   0.039  0.4310  1.1541  0.6696
 1386TIP3    H2 4165   4.853   0.788   0.005 -0.9559 -0.9047 -0.6711
 1387TIP3   OH2 4166   0.593   4.923   1.068 -0.0480  0.4455  0.0075
 1387TIP3    H1 4167   0.504   4.889   1.067  0.5387 -1.1791 -1.2581
 1387TIP3    H2 4168   0.583   5.016   1.047 -1.3949  0.1353 -0.8387
 1388TIP3   OH2 4169   0.850   2.323   0.184  0.2856 -0.5525  0.0087
 1388TIP3    H1 4170   0.817   2.376   0.257 -0.0107 -0.9356  0.1515
 1388TIP3    H2 4171   0.867   2.387   0.115 -1.0118 -0.3825 -0.1664
 1389TIP3   OH2 4172   2.396   4.033   2.459  0.0350 -0.0354 -0.7958
 1389TIP3    H1 4173   2.300   4.035   2.459  0.0405  0.3604 -1.5057
 1389TIP3    H2 4174   2.421   4.082   2.538 -0.3456 -0.1801 -0.5837
 1390TIP3   OH2 4175   3.344   4.983   1.088  0.0734  0.4751  0.1636
 1390TIP3    H1 4176   3.258   4.991   1.129 -0.0823  1.0963 -0.2671
 1390TIP3    H2 4177   3.357   5.066   1.043  0.5556  0.0812 -0.4474
 1391TIP3   OH2 4178   3.286   0.520   4.413  0.3218 -0.4429 -0.0528
 1391TIP3    H1 4179   3.293   0.529   4.508 -1.7807  0.5552  0.0545
 1391TIP3    H2 4180   3.285   0.426   4.398  0.9764 -0.6159  0.8662
 1392TIP3   OH2 4181   4.213   4.526   5.085 -0.0345  0.9097  0.2369
 1392TIP3    H1 4182   4.170   4.534   5.000 -0.7764 -2.1975  0.1988
 1392TIP3    H2 4183   4.141   4.533   5.148 -0.1599 -0.8314  0.3416
 1393TIP3   OH2 4184   4.938   2.018   3.485  0.3217  0.3033 -0.1857
 1393TIP3    H1 4185   5.014   2.000   3.431  0.8142  0.3381  0.4858
 1393TIP3    H2 4186   4.960   1.981   3.571 -0.1544  0.8790  0.1893
 1394TIP3   OH2 4187   4.487   4.918   3.209  0.6902 -0.0190 -0.3216
 1394TIP3    H1 4188   4.420   4.878   3.154 -0.3289  0.9064  0.1981
 1394TIP3    H2 4189   4.476   5.012   3.196  1.6642  0.1596  0.0481
 1395TIP3   OH2 4190   0.461   3.248   4.551  0.0806  0.1832  0.1258
 1395TIP3    H1 4191   0.461   3.250   4.455 -1.1360 -1.3198  0.0476
 1395TIP3    H2 4192   0.552   3.232   4.576  0.4354  0.7620 -0.7643
 1396TIP3   OH2 4193   2.295   5.129   2.405  0.0369 -0.1449  0.2420
 1396TIP3    H1 4194   2.310   5.168   2.319  1.3694  0.7749  0.8480
 1396TIP3    H2 4195   2.306   5.202   2.467  0.2204 -1.0034  1.2574
 1397TIP3   OH2 4196   3.584   2.044   4.537  0.2553  0.1275  0.4621
 1397TIP3    H1 4197   3.492   2.021   4.524  0.1809  0.2042  0.8295
 1397TIP3    H2 4198   3.618   1.975   4.594  0.7157 -0.5105 -0.5775
 1398TIP3   OH2 4199   4.862   3.599   1.555 -0.5839  0.2616  0.5204
 1398TIP3    H1 4200   4.822   3.672   1.602  0.4069  0.7203  0.6591
 1398TIP3    H2 4201   4.848   3.523   1.612 -1.0441  0.4621  0.6768
 1399TIP3   OH2 4202   1.201   5.615   2.676 -0.2502 -0.1200 -0.4053
 1399TIP3    H1 4203   1.260   5.662   2.734  0.0300 -1.5329  0.5020
 1399TIP3    H2 4204   1.113   5.634   2.711 -0.1133 -0.5534  0.1998
 1400TIP3   OH2 4205   1.012   2.193   2.270  0.0286  0.2363 -0.5499
 1400TIP3    H1 4206   1.066   2.264   2.236  1.1472 -0.4650 -0.2713
 1400TIP3    H2 4207   1.031   2.193   2.364  0.5556 -0.8605 -0.6505
 1401TIP3   OH2 4208   1.513   3.861   2.201  0.1164  0.2327  0.2349
 1401TIP3    H1 4209   1.512   3.928   2.270  1.3501  1.5554 -0.9604
 1401TIP3    H2 4210   1.515   3.911   2.119  2.7654 -1.2092 -0.6805
 1402TIP3   OH2 4211   2.144   0.197   2.754  0.7176  0.8618 -0.6198
 1402TIP3    H1 4212   2.084   0.243   2.813  1.4482 -0.1600  1.0069
 1402TIP3    H2 4213   2.228   0.240   2.767  0.9318  0.4921 -0.7708
 1403TIP3   OH2 4214   5.603   0.357   0.416  0.2037  0.0590  0.3852
 1403TIP3    H1 4215   5.558   0.370   0.332 -1.7045  0.3746  1.4050
 1403TIP3    H2 4216   5.590   0.264   0.436 -1.1203  0.3992  1.2519
 1404TIP3   OH2 4217   4.315   0.136   0.252 -0.6726 -0.0874  0.0607
 1404TIP3    H1 4218   4.408   0.122   0.232 -0.6797  0.1775 -0.1673
 1404TIP3    H2 4219   4.308   0.230   0.269 -0.7418 -0.2430  0.9406
 1405TIP3   OH2 4220   1.343   4.142   4.315  0.1720  0.1377 -0.2488
 1405TIP3    H1 4221   1.360   4.161   4.407  2.7255  0.0473 -0.6241
 1405TIP3    H2 4222   1.326   4.048   4.311  1.6193 -0.1630  0.0002
 1406TIP3   OH2 4223   5.554   0.559   1.573  0.3706  0.0258  0.0563
 1406TIP3    H1 4224   5.567   0.527   1.483  2.1692  1.8241 -0.4016
 1406TIP3    H2 4225   5.609   0.502   1.626  1.5617  0.7023 -0.4072
 1407TIP3   OH2 4226   4.468   3.186   0.772 -0.3198 -0.0594 -0.1742
 1407TIP3    H1 4227   4.464   3.257   0.835 -2.8445 -0.0666 -0.2362
 1407TIP3    H2 4228   4.515   3.223   0.697  0.4862  0.7412  0.6894
 1408TIP3   OH2 4229   1.745   4.019   2.738 -0.3422 -0.0323  0.0116
 1408TIP3    H1 4230   1.752   4.091   2.802 -0.0088  0.9495 -1.0940
 1408TIP3    H2 4231   1.822   3.964   2.755 -1.3107 -0.9251  1.7706
 1409TIP3   OH2 4232   1.621   4.487   2.324  0.0767 -0.3579  0.1076
 1409TIP3    H1 4233   1.607   4.404   2.278  2.7462 -0.8982  0.1218
 1409TIP3    H2 4234   1.647   4.548   2.255  0.7270 -0.2560  0.4378
 1410TIP3   OH2 4235   4.090   0.759   4.200  0.1742 -0.3334  0.3257
 1410TIP3    H1 4236   4.168   0.815   4.201 -0.9604  1.3228  0.9831
 1410TIP3    H2 4237   4.106   0.692   4.266  0.9495  0.1143  0.5974
 1411TIP3   OH2 4238   4.575   0.234   4.921  0.2656  0.2289  0.6661
 1411TIP3    H1 4239   4.670   0.236   4.913  0.1907  2.3778 -0.4915
 1411TIP3    H2 4240   4.545   0.196   4.838  0.1142 -0.0793  0.8633
 1412TIP3   OH2 4241   2.431   4.735   4.063 -0.3294  0.0294 -0.0381
 1412TIP3    H1 4242   2.523   4.757   4.080 -0.6356  1.7304 -0.4364
 1412TIP3    H2 4243   2.396   4.811   4.017 -2.0184 -0.4757  0.3357
 1413TIP3   OH2 4244   2.063   2.558   2.089  0.0403  0.1334 -0.3754
 1413TIP3    H1 4245   2.122   2.632   2.101  1.7624 -0.5701 -3.4807
 1413TIP3    H2 4246   1.989   2.593   2.040 -0.0032  0.1569 -0.2926
 1414TIP3   OH2 4247   4.614   1.662   3.259 -0.4794  0.7242  0.1789
 1414TIP3    H1 4248   4.597   1.743   3.308  0.7346  0.2454  1.4258
 1414TIP3    H2 4249   4.564   1.595   3.305 -1.2099  0.6753 -0.6527
 1415TIP3   OH2 4250   4.339   1.365   2.367 -0.0502 -0.4226  0.1261
 1415TIP3    H1 4251   4.253   1.385   2.405  0.2471 -0.0367  0.6076
 1415TIP3    H2 4252   4.370   1.448   2.331 -0.9150 -1.0536 -2.2159
 1416TIP3   OH2 4253   2.838   0.319   2.210  0.0786  0.0055  0.4036
 1416TIP3    H1 4254   2.765   0.282   2.161 -0.5063  0.5646  0.8259
 1416TIP3    H2 4255   2.852   0.405   2.170  0.2956  0.0297  0.5324
 1417TIP3   OH2 4256   0.770   5.309   0.972  0.6309 -0.2742 -0.2859
 1417TIP3    H1 4257   0.719   5.264   1.040  0.9896 -1.1047 -0.5609
 1417TIP3    H2 4258   0.731   5.396   0.967 -0.0576 -0.5411  0.2740
 1418TIP3   OH2 4259   0.595   2.491   3.506  0.4840  0.4076 -0.1456
 1418TIP3    H1 4260   0.583   2.585   3.498 -0.8000  0.4197  1.5219
 1418TIP3    H2 4261   0.608   2.461   3.416  1.5193  2.2192 -0.6538
 1419TIP3   OH2 4262   3.841   0.549   2.754  0.4746 -0.0582 -0.1032
 1419TIP3    H1 4263   3.763   0.500   2.779  1.0962  0.0607  2.3327
 1419TIP3    H2 4264   3.902   0.482   2.723  0.0460 -0.3574 -0.3179
 1420TIP3   OH2 4265   1.480   1.142   4.956  0.1125 -0.0760  0.1346
 1420TIP3    H1 4266   1.441   1.093   5.028  1.1020 -0.9429  0.1029
 1420TIP3    H2 4267   1.471   1.233   4.982 -1.8477 -0.2149  0.1558
 1421TIP3   OH2 4268   2.388   4.602   3.256  0.2915  0.5022  0.5893
 1421TIP3    H1 4269   2.332   4.569   3.186  2.1891  0.3327 -0.9266
 1421TIP3    H2 4270   2.380   4.538   3.326 -0.9204  0.1761  0.1589
 1422TIP3   OH2 4271   3.651   1.338   2.711 -0.5290 -0.2938  0.3727
 1422TIP3    H1 4272   3.740   1.372   2.707 -0.5221 -0.2332 -3.5409
 1422TIP3    H2 4273   3.612   1.380   2.787  1.9457  1.9954  0.5079
 1423TIP3   OH2 4274   6.027   2.636   1.474  0.2395 -0.1416 -0.2837
 1423TIP3    H1 4275   6.024   2.651   1.568 -1.5800 -1.8008 -0.0105
 1423TIP3    H2 4276   5.997   2.719   1.436  1.5656  0.7385  0.5416
 1424TIP3   OH2 4277   5.957   1.185   3.170  0.1071 -0.7794 -0.0064
 1424TIP3    H1 4278   5.866   1.157   3.183 -0.0128 -0.4293 -0.0718
 1424TIP3    H2 4279   5.952   1.245   3.095  0.3520 -0.5473  0.1651
 1425TIP3   OH2 4280   4.691   2.225   1.221  0.5543 -0.5063 -0.4113
 1425TIP3    H1 4281   4.621   2.247   1.160  1.1562  1.1702 -0.5542
 1425TIP3    H2 4282   4.747   2.164   1.174 -0.6026 -1.6027 -0.4130
 1426TIP3   OH2 4283   2.598   1.529   1.268 -0.5497 -0.2831  0.2352
 1426TIP3    H1 4284   2.660   1.564   1.205 -0.1465 -0.9213  0.2640
 1426TIP3    H2 4285   2.577   1.603   1.325 -0.2248  0.0693 -0.0974
 1427TIP3   OH2 4286   1.623   5.509   4.302 -0.0036 -0.2280 -0.4104
 1427TIP3    H1 4287   1.571   5.489   4.224 -0.2000  1.2714 -0.6992
 1427TIP3    H2 4288   1.559   5.527   4.370  0.1247  0.9133 -0.5743
 1428TIP3   OH2 4289   4.336   5.280   2.048  0.1836  0.1266 -0.3112
 1428TIP3    H1 4290   4.430   5.270   2.034  0.5253  1.5137  0.6818
 1428TIP3    H2 4291   4.295   5.233   1.975  1.5739 -2.3236  0.3691
 1429TIP3   OH2 4292   3.985   5.757   0.156 -0.1543 -0.4242 -0.8342
 1429TIP3    H1 4293   3.894   5.773   0.179 -0.2251 -1.8900  0.0117
 1429TIP3    H2 4294   4.032   5.832   0.193 -0.9398  0.0659 -0.8077
 1430TIP3   OH2 4295   0.147   0.364   4.165  0.0048  0.0848  0.0794
 1430TIP3    H1 4296   0.189   0.445   4.136 -2.7994  2.5964  2.3585
 1430TIP3    H2 4297   0.195   0.338   4.244  0.9605 -0.5624 -0.7030
 1431TIP3   OH2 4298   2.849   0.851   2.625  0.2501 -1.1893 -0.3205
 1431TIP3    H1 4299   2.942   0.869   2.639 -0.4150  2.9632 -0.0237
 1431TIP3    H2 4300   2.807   0.877   2.707 -1.3731 -0.9121 -1.2125
 1432TIP3   OH2 4301   4.774   2.682   1.301 -0.4835  0.1005 -0.3583
 1432TIP3    H1 4302   4.817   2.755   1.258 -1.2571  0.3956 -0.6378
 1432TIP3    H2 4303   4.761   2.711   1.391 -0.6645  0.2479 -0.4333
 1433TIP3   OH2 4304   5.105   2.780   1.373 -0.0025 -0.7889 -0.6627
 1433TIP3    H1 4305   5.036   2.822   1.424  0.5513  1.6025 -1.7700
 1433TIP3    H2 4306   5.077   2.790   1.282  1.7614  0.2560 -1.1405
 1434TIP3   OH2 4307   4.734   0.607   0.834  0.4051  0.3318 -0.3076
 1434TIP3    H1 4308   4.821   0.592   0.797  0.0207 -0.8955 -0.7515
 1434TIP3    H2 4309   4.748   0.675   0.900  1.9148 -0.5842  0.3810
 1435TIP3   OH2 4310   3.910   1.470   1.989 -0.3803 -0.3827  0.1705
 1435TIP3    H1 4311   3.972   1.413   1.944  1.2648 -0.2258  2.0874
 1435TIP3    H2 4312   3.870   1.414   2.055 -2.5860 -0.5556 -1.2256
 1436TIP3   OH2 4313   5.805   5.332   4.810 -0.1348  0.0964  0.1284
 1436TIP3    H1 4314   5.804   5.331   4.905  0.0494  1.0614  0.1507
 1436TIP3    H2 4315   5.820   5.241   4.785  0.3159 -0.0897  1.0330
 1437TIP3   OH2 4316   0.418   2.879   2.157 -0.1380 -0.0351  0.6090
 1437TIP3    H1 4317   0.443   2.819   2.086  0.8790  0.1169  0.8149
 1437TIP3    H2 4318   0.464   2.960   2.136  1.2556 -0.3861  2.1089
 1438TIP3   OH2 4319   4.742   0.446   1.154 -0.1289  0.0407 -0.5858
 1438TIP3    H1 4320   4.822   0.484   1.117  0.8795 -0.0141  1.4184
 1438TIP3    H2 4321   4.728   0.366   1.103  2.9802 -1.7089  0.9987
 1439TIP3   OH2 4322   1.950   1.855   2.529  0.0215  0.3908  0.2770
 1439TIP3    H1 4323   1.995   1.808   2.600  1.0063  1.7147  0.5643
 1439TIP3    H2 4324   1.884   1.793   2.497 -0.4487 -0.2426  2.3336
 1440TIP3   OH2 4325   2.522   0.674   3.637  0.1133  0.1979 -0.2143
 1440TIP3    H1 4326   2.442   0.639   3.598  0.8692  0.5802 -2.2592
 1440TIP3    H2 4327   2.564   0.598   3.677 -0.4688 -0.3347 -0.5834
 1441TIP3   OH2 4328   3.402   0.304   3.794 -0.0731 -0.5825 -0.3165
 1441TIP3    H1 4329   3.416   0.392   3.830  0.7569 -1.3620  1.4378
 1441TIP3    H2 4330   3.449   0.304   3.711 -0.7259  0.8455 -0.7134
 1442TIP3   OH2 4331   6.002   0.177   1.689  0.3660 -0.3516 -0.1159
 1442TIP3    H1 4332   5.937   0.207   1.626  0.2380 -1.7680 -0.6948
 1442TIP3    H2 4333   6.079   0.157   1.636  1.5712  1.9467  0.6341
 1443TIP3   OH2 4334   4.277   1.959   0.739 -0.2906 -0.1435  0.2416
 1443TIP3    H1 4335   4.362   1.917   0.725  0.3247  0.8444  0.8753
 1443TIP3    H2 4336   4.244   1.975   0.651  0.1316 -0.6333 -0.0137
 1444TIP3   OH2 4337   5.575   2.174   1.072 -0.1640 -0.6199  0.3379
 1444TIP3    H1 4338   5.479   2.179   1.075 -0.1779 -1.1942  1.1308
 1444TIP3    H2 4339   5.597   2.195   0.982 -0.9682  0.6722  0.4153
 1445TIP3   OH2 4340   6.290   0.589   1.183  0.0604  0.1641 -0.0769
 1445TIP3    H1 4341   6.282   0.611   1.275 -2.6399  0.3129 -0.2724
 1445TIP3    H2 4342   6.233   0.651   1.138  1.0615 -0.1149 -1.8232
 1446TIP3   OH2 4343   2.164   0.263   0.820 -0.5799 -0.5167 -0.2340
 1446TIP3    H1 4344   2.134   0.180   0.857 -1.3033 -0.0824  0.1748
 1446TIP3    H2 4345   2.091   0.323   0.833  0.6113  0.6993  1.1586
 1447TIP3   OH2 4346   0.285   1.392   1.879 -0.3742  0.2527  0.2666
 1447TIP3    H1 4347   0.329   1.343   1.949 -1.4655  1.0142  1.5269
 1447TIP3    H2 4348   0.217   1.442   1.924  0.3873  2.5897 -1.0068
 1448TIP3   OH2 4349   0.225   2.686   3.571 -0.1290  0.3963  0.1376
 1448TIP3    H1 4350   0.165   2.690   3.646  0.5665  1.3990  0.6687
 1448TIP3    H2 4351   0.300   2.739   3.598 -0.2201  1.4978 -1.5961
 1449TIP3   OH2 4352   5.461   2.519   1.712 -0.3527  0.0223 -0.3465
 1449TIP3    H1 4353   5.531   2.483   1.658 -0.9263  0.7685 -1.6420
 1449TIP3    H2 4354   5.396   2.552   1.649  0.1552  3.3444  0.6597
 1450TIP3   OH2 4355   6.104   2.009   1.044  0.8837 -0.7591 -0.0706
 1450TIP3    H1 4356   6.075   1.920   1.068  0.5744 -1.0292 -1.3495
 1450TIP3    H2 4357   6.114   2.005   0.949 -0.6574  1.0045 -0.3579
 1451TIP3   OH2 4358   1.945   1.636   0.539 -0.8713 -0.3546  0.1533
 1451TIP3    H1 4359   1.907   1.706   0.593  2.5985  0.2071  2.2009
 1451TIP3    H2 4360   2.012   1.680   0.487 -0.6374 -1.7538 -0.7885
 1452TIP3   OH2 4361   1.489   1.189   1.576 -0.4452  0.1124  0.1418
 1452TIP3    H1 4362   1.575   1.223   1.599  0.3633 -1.1484 -0.9224
 1452TIP3    H2 4363   1.430   1.229   1.641  1.2004 -0.4811  2.1191
 1453TIP3   OH2 4364   0.696   4.084   4.406  0.4664  0.2168  0.1279
 1453TIP3    H1 4365   0.648   4.144   4.462  0.1962  0.1844 -0.0669
 1453TIP3    H2 4366   0.648   4.085   4.323  1.3348  0.9051 -0.3826
 1454TIP3   OH2 4367   2.289   3.690   4.380 -0.0144 -0.7017  0.4457
 1454TIP3    H1 4368   2.322   3.615   4.428  0.9686 -1.3602 -1.1604
 1454TIP3    H2 4369   2.358   3.756   4.387  0.1852 -0.8442 -0.1508
 1455TIP3   OH2 4370   5.110   0.596   3.212 -0.3661 -0.5677  0.4898
 1455TIP3    H1 4371   5.076   0.577   3.125 -0.2050  0.8663  0.0964
 1455TIP3    H2 4372   5.083   0.686   3.230  1.5199 -0.0397  0.9677
 1456TIP3   OH2 4373   3.909   3.647   1.556  0.3564  0.1929  0.3552
 1456TIP3    H1 4374   3.936   3.720   1.500 -1.6176 -1.4030 -2.9495
 1456TIP3    H2 4375   3.888   3.688   1.640  5.7201  2.4374  1.0331
 1457TIP3   OH2 4376   1.625   4.935   2.561 -0.3496  0.3357  0.6965
 1457TIP3    H1 4377   1.644   4.891   2.643 -2.0896 -1.3400  0.2926
 1457TIP3    H2 4378   1.547   4.890   2.527  0.4184  0.8206 -1.9700
 1458TIP3   OH2 4379   3.953   1.388   5.092  0.3825 -0.1314  0.1600
 1458TIP3    H1 4380   3.954   1.422   5.002  1.0881  1.5953  0.7811
 1458TIP3    H2 4381   3.864   1.355   5.104  0.0054  0.4543 -0.8832
 1459TIP3   OH2 4382   5.705   0.212   1.148  0.5260  0.3278  0.2060
 1459TIP3    H1 4383   5.776   0.260   1.107 -1.0963  1.9137 -0.8918
 1459TIP3    H2 4384   5.714   0.229   1.242  0.7755  1.6980 -0.0503
 1460TIP3   OH2 4385   5.200   4.412   1.378  0.4647  0.6236 -0.2741
 1460TIP3    H1 4386   5.158   4.475   1.320 -1.5806 -0.3492  0.0349
 1460TIP3    H2 4387   5.225   4.339   1.321 -0.4847  0.1786 -0.1519
 1461TIP3   OH2 4388   3.978   0.323   4.021 -0.4308  0.1303 -0.1492
 1461TIP3    H1 4389   3.916   0.253   4.006 -1.0971  0.7530 -0.3612
 1461TIP3    H2 4390   3.976   0.337   4.116 -0.1109 -0.3021 -0.0785
 1462TIP3   OH2 4391   4.483   3.532   3.110  0.4214  0.1510 -0.7228
 1462TIP3    H1 4392   4.429   3.576   3.176  0.1248 -2.2187  0.7232
 1462TIP3    H2 4393   4.455   3.569   3.027 -1.6244  0.8230  0.2114
 1463TIP3   OH2 4394   3.988   0.023   5.115  0.7085  0.0374  0.0580
 1463TIP3    H1 4395   4.069   0.042   5.067  0.3783  0.9120 -0.1658
 1463TIP3    H2 4396   4.003   0.058   5.203  0.1603  1.2365 -0.3083
 1464TIP3   OH2 4397   0.839   0.175   4.282  0.2647 -0.2982 -0.3315
 1464TIP3    H1 4398   0.776   0.241   4.255  2.0862  3.4616  3.4727
 1464TIP3    H2 4399   0.788   0.113   4.334 -0.9373  0.0623 -1.0402
 1465TIP3   OH2 4400   3.651   4.087   3.617 -0.3880  0.2614  0.4759
 1465TIP3    H1 4401   3.687   4.113   3.532 -0.8521 -1.5217 -0.3145
 1465TIP3    H2 4402   3.686   4.151   3.679  0.1309  1.4766 -1.0198
 1466TIP3   OH2 4403   3.074   4.679   3.474  0.7975 -0.3157 -0.2945
 1466TIP3    H1 4404   3.098   4.587   3.483  1.4728 -0.0636  0.6385
 1466TIP3    H2 4405   3.053   4.689   3.381 -3.3717 -2.3393  0.2331
 1467TIP3   OH2 4406   0.138   1.225   4.503  0.2936 -0.2893 -0.4504
 1467TIP3    H1 4407   0.103   1.163   4.439  2.4597 -1.2343 -0.8316
 1467TIP3    H2 4408   0.230   1.236   4.478  0.8535  0.4117  1.6591
 1468TIP3   OH2 4409   0.973   5.234   0.675  0.2887  0.4790 -0.3825
 1468TIP3    H1 4410   0.937   5.248   0.587  0.6241 -0.3882 -0.6708
 1468TIP3    H2 4411   1.019   5.150   0.669  2.9745  1.8169 -0.2490
 1469TIP3   OH2 4412   4.144   2.984   1.957 -0.5529  0.1067 -0.0443
 1469TIP3    H1 4413   4.093   3.050   2.003 -1.9605 -1.7082  1.1374
 1469TIP3    H2 4414   4.104   2.901   1.982 -0.9774 -1.0963 -3.9896
 1470TIP3   OH2 4415   5.224   1.597   1.892  0.1397  0.0833 -0.0659
 1470TIP3    H1 4416   5.195   1.573   1.980 -0.2920 -1.4120 -0.5840
 1470TIP3    H2 4417   5.255   1.687   1.901 -2.5233  1.0079  1.0055
 1471TIP3   OH2 4418   2.877   0.524   2.016 -0.1695  0.5847  0.5916
 1471TIP3    H1 4419   2.849   0.449   1.964  1.0149  0.6792 -0.2453
 1471TIP3    H2 4420   2.948   0.563   1.964 -0.7893  2.3061  0.9735
 1472TIP3   OH2 4421   3.116   5.024   0.822 -0.1148 -0.0470  0.2133
 1472TIP3    H1 4422   3.200   5.067   0.805  0.2970 -1.0916 -0.5640
 1472TIP3    H2 4423   3.064   5.041   0.744 -0.5082  0.3172  0.5518
 1473TIP3   OH2 4424   3.208   0.359   2.513  0.3387  0.6029  0.1691
 1473TIP3    H1 4425   3.183   0.451   2.503  1.1872  0.6243 -2.7902
 1473TIP3    H2 4426   3.266   0.358   2.588  1.0057  2.6864 -0.2493
 1474TIP3   OH2 4427   1.753   1.094   0.943 -0.1715 -0.0795  0.0908
 1474TIP3    H1 4428   1.785   1.141   0.866 -0.5360 -0.2837 -0.1934
 1474TIP3    H2 4429   1.660   1.117   0.948 -0.0051  0.4462  0.8568
 1475TIP3   OH2 4430   0.152   4.808   0.107  0.5218 -0.2878  0.6895
 1475TIP3    H1 4431   0.099   4.735   0.076  0.5787 -0.0705  0.0752
 1475TIP3    H2 4432   0.136   4.810   0.202 -0.7549 -0.0782  0.4931
 1476TIP3   OH2 4433   1.586   5.711   2.799 -0.0066  0.7899 -0.2334
 1476TIP3    H1 4434   1.630   5.704   2.714  0.7772 -0.7385  0.2519
 1476TIP3    H2 4435   1.657   5.724   2.862 -0.4460  0.5253  0.3324
 1477TIP3   OH2 4436   3.380   1.506   5.029  0.3623  0.1133 -0.5900
 1477TIP3    H1 4437   3.470   1.472   5.029  0.8286  1.2128  1.0080
 1477TIP3    H2 4438   3.385   1.586   4.978  0.6210  0.8942  0.6296
 1478TIP3   OH2 4439   4.259   0.173   2.443 -0.6474 -0.1157 -0.3664
 1478TIP3    H1 4440   4.262   0.170   2.539 -2.1726 -0.0352 -0.2920
 1478TIP3    H2 4441   4.234   0.084   2.417  0.0890 -0.2284 -0.7272
 1479TIP3   OH2 4442   0.841   0.385   3.456  0.7601 -0.4545  0.5776
 1479TIP3    H1 4443   0.850   0.460   3.397  0.0446 -0.8408 -0.0474
 1479TIP3    H2 4444   0.754   0.350   3.437 -0.0654  0.1806  2.7859
 1480TIP3   OH2 4445   0.367   5.489   3.398  0.0952 -0.2671 -0.1732
 1480TIP3    H1 4446   0.458   5.514   3.411  0.4474 -1.7356  0.4244
 1480TIP3    H2 4447   0.358   5.478   3.303  0.0529  1.5369 -0.3987
 1481TIP3   OH2 4448   5.786   4.862   1.341  0.0643 -0.5068 -0.0239
 1481TIP3    H1 4449   5.775   4.852   1.435  0.0817 -0.0443  0.0306
 1481TIP3    H2 4450   5.823   4.779   1.312  0.4290 -0.5103  0.4405
 1482TIP3   OH2 4451   0.773   5.929   4.561 -0.0719  0.5646 -0.2139
 1482TIP3    H1 4452   0.728   5.919   4.645 -1.4712 -1.8608 -1.1586
 1482TIP3    H2 4453   0.706   5.964   4.502  0.1460 -0.2329 -0.9417
 1483TIP3   OH2 4454   0.571   2.742   1.112  0.5235  0.1022  0.0341
 1483TIP3    H1 4455   0.487   2.786   1.127  0.1278 -1.1408  1.8526
 1483TIP3    H2 4456   0.575   2.731   1.017 -1.1649  0.6091 -0.1416
 1484TIP3   OH2 4457   6.168   1.008   4.957  0.3538 -0.0630 -0.2860
 1484TIP3    H1 4458   6.131   1.093   4.982 -0.1133 -0.3913  0.1709
 1484TIP3    H2 4459   6.215   1.025   4.876 -0.9996  0.3498 -1.0256
 1485TIP3   OH2 4460   5.875   5.935   0.609  0.2079 -0.0682  0.0870
 1485TIP3    H1 4461   5.794   5.979   0.633 -1.0577 -1.6131 -1.1638
 1485TIP3    H2 4462   5.878   5.940   0.513  1.5684 -0.1234  0.1012
 1486TIP3   OH2 4463   4.333   0.159   1.172  0.6326 -0.1939  0.2834
 1486TIP3    H1 4464   4.422   0.127   1.157  1.4405  1.2556  1.5731
 1486TIP3    H2 4465   4.346   0.250   1.202 -1.4340  1.0917 -2.3319
 1487TIP3   OH2 4466   4.079   5.200   1.332  0.2526 -0.2656  0.4650
 1487TIP3    H1 4467   3.994   5.173   1.366 -0.7234 -0.2730 -1.8485
 1487TIP3    H2 4468   4.064   5.286   1.293  1.3973 -0.0840  0.3788
 1488TIP3   OH2 4469   5.922   1.380   1.675 -0.6762 -0.1741 -0.4126
 1488TIP3    H1 4470   5.991   1.334   1.723 -1.7336  0.6475  2.0606
 1488TIP3    H2 4471   5.963   1.460   1.645 -0.8613  1.1838  2.5959
 1489TIP3   OH2 4472   2.289   5.552   0.039 -0.0600  0.0965  0.2820
 1489TIP3    H1 4473   2.223   5.488   0.015 -0.3527  0.0841  1.1227
 1489TIP3    H2 4474   2.241   5.635   0.046 -0.1251 -0.0401  1.5936
 1490TIP3   OH2 4475   0.113   5.612   0.645 -0.2064  0.4628 -0.1457
 1490TIP3    H1 4476   0.070   5.682   0.694  0.1316  1.3166 -1.0287
 1490TIP3    H2 4477   0.146   5.552   0.713  1.0386  2.0630  0.7429
 1491TIP3   OH2 4478   1.973   2.732   1.374  0.1497  0.7825 -0.2754
 1491TIP3    H1 4479   1.886   2.715   1.338  0.8447 -0.7768 -1.3412
 1491TIP3    H2 4480   1.978   2.827   1.379 -1.2602  0.9385 -1.1289
 1492TIP3   OH2 4481   3.317   3.934   1.711  0.3086  0.2971  0.0980
 1492TIP3    H1 4482   3.345   3.891   1.792  2.5857 -1.0332 -1.3095
 1492TIP3    H2 4483   3.373   4.012   1.704 -0.5618  0.9575  0.2522
 1493TIP3   OH2 4484   5.892   2.899   1.452  0.3310  0.0419  0.4443
 1493TIP3    H1 4485   5.920   2.977   1.500  3.8255 -0.9438  0.3147
 1493TIP3    H2 4486   5.901   2.923   1.360  0.3572 -0.1555  0.3935
 1494TIP3   OH2 4487   0.280   1.635   2.769  0.3266  0.7433  0.5812
 1494TIP3    H1 4488   0.347   1.614   2.704  0.1850 -1.0340  0.9611
 1494TIP3    H2 4489   0.197   1.620   2.723  0.2048 -1.8890  1.4685
 1495TIP3   OH2 4490   1.526   4.466   4.178 -0.0443 -0.1386  0.0852
 1495TIP3    H1 4491   1.443   4.470   4.224  0.1139  0.3267  0.3409
 1495TIP3    H2 4492   1.576   4.541   4.212  1.1137 -1.3266  1.1665
 1496TIP3   OH2 4493   0.897   1.773   1.936  0.0303 -0.0226 -0.7560
 1496TIP3    H1 4494   0.919   1.824   2.013 -0.8026 -0.9464  0.1241
 1496TIP3    H2 4495   0.840   1.830   1.884  1.3253  0.9404 -1.1698
 1497TIP3   OH2 4496   0.122   0.513   0.231  0.2396  0.0829 -0.3301
 1497TIP3    H1 4497   0.051   0.570   0.201 -0.6636 -1.3092 -0.9668
 1497TIP3    H2 4498   0.190   0.572   0.262 -0.8396  1.4783 -0.5505
 1498TIP3   OH2 4499   0.495   4.618   0.491 -0.1494  0.0576  0.0999
 1498TIP3    H1 4500   0.510   4.708   0.521  0.2697  0.4273 -1.1712
 1498TIP3    H2 4501   0.403   4.601   0.512 -0.6635  1.3314 -0.9914
 1499TIP3   OH2 4502   0.871   5.040   1.730 -0.0318 -0.1085  0.1685
 1499TIP3    H1 4503   0.865   5.088   1.648  2.7914  0.5815  0.2682
 1499TIP3    H2 4504   0.908   4.955   1.707  0.7394  0.0727  0.6963
 1500TIP3   OH2 4505   1.808   5.511   0.458  0.2609  0.0975 -0.3965
 1500TIP3    H1 4506   1.778   5.420   0.454  1.7533 -0.3872 -1.0283
 1500TIP3    H2 4507   1.730   5.560   0.484 -1.0880 -1.0942 -2.0089
 1501TIP3   OH2 4508   1.636   0.378   4.687 -0.4274  0.7268 -0.4454
 1501TIP3    H1 4509   1.661   0.357   4.597 -1.7959  0.3881 -0.7724
 1501TIP3    H2 4510   1.664   0.468   4.700 -1.2440  1.1649 -1.6129
 1502TIP3   OH2 4511   0.262   3.956   1.599 -0.2375 -0.2101 -0.2572
 1502TIP3    H1 4512   0.274   4.038   1.551 -0.5433 -0.5623 -0.9450
 1502TIP3    H2 4513   0.250   3.984   1.690  2.1616  0.3612 -0.0524
 1503TIP3   OH2 4514   2.440   4.370   3.408  0.2634  0.8994 -0.2132
 1503TIP3    H1 4515   2.440   4.276   3.427 -0.0850  0.6730 -1.2579
 1503TIP3    H2 4516   2.505   4.381   3.339 -0.9015  1.1388 -1.3129
 1504TIP3   OH2 4517   1.170   0.756   4.215  0.2535  0.1156  0.3905
 1504TIP3    H1 4518   1.228   0.819   4.173 -1.6050  1.3274 -0.4941
 1504TIP3    H2 4519   1.146   0.695   4.144  0.4821 -0.4003  0.7534
 1505TIP3   OH2 4520   6.266   3.296   1.849  0.2183 -0.2239 -0.1347
 1505TIP3    H1 4521   6.323   3.219   1.845  0.4289 -0.0218 -1.6247
 1505TIP3    H2 4522   6.309   3.354   1.911  0.4908 -0.9631  0.3806
 1506TIP3   OH2 4523   0.955   0.218   3.242  0.0223  0.0840 -0.0356
 1506TIP3    H1 4524   1.043   0.241   3.273 -0.3605  1.9840 -0.2215
 1506TIP3    H2 4525   0.896   0.249   3.310 -0.5067 -2.9750  1.0699
 1507TIP3   OH2 4526   3.978   2.473   2.004  0.6268  0.4025  0.0991
 1507TIP3    H1 4527   3.943   2.444   2.089  1.3558 -2.1550 -0.4011
 1507TIP3    H2 4528   4.050   2.531   2.027  2.3725 -2.1023  1.3782
 1508TIP3   OH2 4529   4.612   1.400   1.891 -0.0170  0.2528 -0.0772
 1508TIP3    H1 4530   4.656   1.484   1.898  0.8058 -0.1929  0.1715
 1508TIP3    H2 4531   4.529   1.413   1.938 -0.5791  1.3558 -1.2976
 1509TIP3   OH2 4532   3.290   4.295   3.793 -0.2140  0.6118  0.1910
 1509TIP3    H1 4533   3.245   4.301   3.877  0.6962 -1.9447  0.9848
 1509TIP3    H2 4534   3.349   4.370   3.791 -0.7745  1.1131  1.5027
 1510TIP3   OH2 4535   1.651   3.071   0.015 -0.0255  0.1330 -0.0026
 1510TIP3    H1 4536   1.714   3.104   0.080  1.6521 -0.3298 -1.3157
 1510TIP3    H2 4537   1.625   2.985   0.049 -0.8128  0.7646  1.0791
 1511TIP3   OH2 4538   5.945   0.614   1.906 -0.7207  0.3173 -0.7364
 1511TIP3    H1 4539   5.997   0.536   1.924  1.2606  1.2070 -2.2727
 1511TIP3    H2 4540   5.994   0.661   1.839 -2.7665  2.0048 -1.1596
 1512TIP3   OH2 4541   4.267   0.299   4.803 -0.0984  0.0920  0.1553
 1512TIP3    H1 4542   4.318   0.288   4.724 -0.9425  0.5747 -0.4741
 1512TIP3    H2 4543   4.176   0.293   4.774 -0.5466  3.0719  0.5581
 1513TIP3   OH2 4544   0.397   1.319   3.906  0.0196 -0.2743  0.1299
 1513TIP3    H1 4545   0.489   1.312   3.932 -0.3992 -0.2635  1.7550
 1513TIP3    H2 4546   0.349   1.294   3.984 -1.3671  0.2962 -0.5161
 1514TIP3   OH2 4547   4.956   4.680   0.818 -0.3419 -0.1466  0.0769
 1514TIP3    H1 4548   4.959   4.754   0.758 -0.5477  0.5919  0.9613
 1514TIP3    H2 4549   4.889   4.622   0.781  0.1253 -0.1162 -0.8493
 1515TIP3   OH2 4550   2.508   4.993   2.082 -0.7120 -0.2225 -0.4746
 1515TIP3    H1 4551   2.491   4.941   2.160 -3.2638  0.5569 -0.4233
 1515TIP3    H2 4552   2.462   5.076   2.097  1.8628  1.4981 -1.2322
 1516TIP3   OH2 4553   4.497   2.686   1.957  0.2182  0.2194  0.3265
 1516TIP3    H1 4554   4.404   2.700   1.941  0.2904  1.3203  0.8234
 1516TIP3    H2 4555   4.506   2.684   2.052  0.9718  2.2175  0.3424
 1517TIP3   OH2 4556   3.339   1.196   3.234 -0.5657  0.0135 -0.2558
 1517TIP3    H1 4557   3.373   1.285   3.245 -1.0857  0.3287 -1.0996
 1517TIP3    H2 4558   3.244   1.206   3.240 -0.6116 -0.5467  0.0074
 1518TIP3   OH2 4559   4.571   3.969   0.373  0.2364 -0.8975 -0.1785
 1518TIP3    H1 4560   4.546   3.888   0.328  1.5701 -1.7541  0.5335
 1518TIP3    H2 4561   4.539   4.039   0.317 -1.6544 -1.9031 -0.4180
 1519TIP3   OH2 4562   1.171   0.247   4.028 -0.0574 -0.3854  0.2684
 1519TIP3    H1 4563   1.262   0.217   4.038 -0.3473 -0.8116  2.0681
 1519TIP3    H2 4564   1.121   0.188   4.085 -1.2419  0.8345  0.5302
 1520TIP3   OH2 4565   4.252   5.712   4.746  0.2348  0.0960 -0.1931
 1520TIP3    H1 4566   4.251   5.626   4.788 -0.0530  0.5421  0.7420
 1520TIP3    H2 4567   4.317   5.762   4.796 -1.0221  1.0367  0.5525
 1521TIP3   OH2 4568   3.269   5.900   3.132  0.1863 -0.0456  0.5121
 1521TIP3    H1 4569   3.217   5.910   3.052 -1.0318 -0.0250  1.2765
 1521TIP3    H2 4570   3.232   5.965   3.192  2.8756  1.9107  0.2483
 1522TIP3   OH2 4571   5.676   5.721   4.184 -0.3419 -0.3559 -0.3704
 1522TIP3    H1 4572   5.734   5.646   4.175 -1.5140 -1.2764 -0.5100
 1522TIP3    H2 4573   5.664   5.731   4.279  1.0900  0.7042 -0.2632
 1523TIP3   OH2 4574   1.658   1.887   0.475 -0.2710 -0.4515  0.1791
 1523TIP3    H1 4575   1.695   1.975   0.479  1.4262 -1.0283 -1.4456
 1523TIP3    H2 4576   1.564   1.901   0.464  0.0536  1.1995 -0.8714
 1524TIP3   OH2 4577   2.098   3.041   1.765 -0.2258 -0.0123 -0.2315
 1524TIP3    H1 4578   2.055   3.101   1.827  0.1114  0.6213 -0.6019
 1524TIP3    H2 4579   2.185   3.026   1.802  1.0915  2.6974 -1.9629
 1525TIP3   OH2 4580   1.265   4.488   4.323 -0.2555  0.0743  0.5258
 1525TIP3    H1 4581   1.190   4.513   4.377 -0.9577 -0.3858 -0.2184
 1525TIP3    H2 4582   1.328   4.450   4.384 -1.2691 -0.9628  0.9556
 1526TIP3   OH2 4583   3.032   0.362   3.422 -0.9622 -0.1076  0.2196
 1526TIP3    H1 4584   3.033   0.269   3.401  2.7549 -0.0312 -0.5500
 1526TIP3    H2 4585   3.038   0.366   3.517  0.9235 -0.7580  0.1680
 1527TIP3   OH2 4586   2.370   1.074   0.482  0.0275 -0.7429 -0.0512
 1527TIP3    H1 4587   2.408   1.133   0.417 -0.4438 -0.5940 -0.1903
 1527TIP3    H2 4588   2.362   0.990   0.437 -0.8957 -0.4781 -0.3890
 1528TIP3   OH2 4589   2.293   3.077   4.832  0.6453  0.2746  0.0929
 1528TIP3    H1 4590   2.321   2.988   4.853  1.6585  0.3945 -0.6740
 1528TIP3    H2 4591   2.289   3.122   4.917  0.9060 -0.2824  0.4033
 1529TIP3   OH2 4592   6.118   3.317   4.455 -0.1958  0.6719 -0.6345
 1529TIP3    H1 4593   6.046   3.288   4.400 -0.4034  0.4382 -0.2449
 1529TIP3    H2 4594   6.179   3.361   4.395 -0.3380  0.2743 -1.0709
 1530TIP3   OH2 4595   0.546   5.575   0.628  0.3206  0.2642  0.1186
 1530TIP3    H1 4596   0.606   5.572   0.554  0.7677  0.3246  0.4725
 1530TIP3    H2 4597   0.476   5.635   0.601 -1.3790 -2.2747 -1.6078
 1531TIP3   OH2 4598   2.833   2.422   3.957  0.2423  0.1598  0.0153
 1531TIP3    H1 4599   2.832   2.375   4.040  0.8494  0.6927  0.3293
 1531TIP3    H2 4600   2.924   2.450   3.946  0.2368 -0.1552 -0.9749
 1532TIP3   OH2 4601   1.307   1.524   0.880  0.4683  0.0458 -0.3025
 1532TIP3    H1 4602   1.254   1.534   0.959 -0.0042 -0.5985 -0.5234
 1532TIP3    H2 4603   1.327   1.614   0.853  0.4957  0.2734  0.4519
 1533TIP3   OH2 4604   3.085   0.645   4.247  0.1718  0.2347  0.2270
 1533TIP3    H1 4605   3.145   0.604   4.309  0.4644 -0.3359 -0.4062
 1533TIP3    H2 4606   3.084   0.584   4.172  0.2517  1.1632 -0.5473
 1534TIP3   OH2 4607   0.982   4.357   0.741 -0.1564  0.3684 -0.0096
 1534TIP3    H1 4608   0.919   4.425   0.718 -0.4349  0.2268  0.3247
 1534TIP3    H2 4609   0.931   4.276   0.739  0.2489  0.1275 -0.7291
 1535TIP3   OH2 4610   0.876   1.497   2.886  0.3311 -0.2251 -0.4607
 1535TIP3    H1 4611   0.861   1.542   2.969 -1.0923  0.4562 -1.0579
 1535TIP3    H2 4612   0.944   1.549   2.843  1.9180 -1.2275  0.7081
 1536TIP3   OH2 4613   4.845   2.077   0.433  0.2121  0.4609  0.2858
 1536TIP3    H1 4614   4.906   2.144   0.466  1.2743  0.2128 -1.0877
 1536TIP3    H2 4615   4.896   1.996   0.436  0.1792  0.3531 -1.4492
 1537TIP3   OH2 4616   5.736   0.379   2.542 -0.4910 -0.2157 -0.2151
 1537TIP3    H1 4617   5.791   0.304   2.566 -1.3914 -0.2139  2.0637
 1537TIP3    H2 4618   5.648   0.354   2.571 -0.9588  1.4006 -0.1550
 1538TIP3   OH2 4619   5.334   4.204   4.298  0.5645  0.2410 -0.2824
 1538TIP3    H1 4620   5.327   4.272   4.231 -1.8222  0.1818 -0.1709
 1538TIP3    H2 4621   5.267   4.140   4.275  0.6515 -0.4966  1.3681
 1539TIP3   OH2 4622   0.635   2.484   0.275  0.2245 -0.2001 -0.0246
 1539TIP3    H1 4623   0.556   2.476   0.329  0.1890  1.7166  0.2633
 1539TIP3    H2 4624   0.606   2.530   0.196  0.4841 -2.1222 -1.3019
 1540TIP3   OH2 4625   5.466   3.093   2.581 -0.0244 -0.7768  0.5582
 1540TIP3    H1 4626   5.400   3.055   2.523  0.2768  0.2689 -0.4850
 1540TIP3    H2 4627   5.423   3.094   2.667 -1.8279  0.8574 -0.2816
 1541TIP3   OH2 4628   3.627   2.833   2.340  0.5459  0.2081  0.0941
 1541TIP3    H1 4629   3.583   2.916   2.319 -0.5933 -0.8638 -2.0430
 1541TIP3    H2 4630   3.560   2.781   2.384  0.2194 -0.7008 -1.4094
 1542TIP3   OH2 4631   4.673   5.782   2.799 -0.9259  0.5472  0.1575
 1542TIP3    H1 4632   4.650   5.874   2.808  0.4965  0.9079  0.3563
 1542TIP3    H2 4633   4.589   5.736   2.806 -1.6276  1.7958  0.3351
 1543TIP3   OH2 4634   0.841   2.323   3.526 -0.4556  0.6677 -0.0494
 1543TIP3    H1 4635   0.762   2.366   3.558 -3.0389 -1.2206 -3.2063
 1543TIP3    H2 4636   0.877   2.382   3.460 -0.3316  0.7123  0.0577
 1544TIP3   OH2 4637   4.478   1.634   4.584 -0.5792 -0.4195  0.0270
 1544TIP3    H1 4638   4.556   1.633   4.639 -0.6486  1.3221  0.2206
 1544TIP3    H2 4639   4.452   1.726   4.581 -1.9603 -0.8053 -0.9824
 1545TIP3   OH2 4640   3.208   3.107   0.978  0.2861 -0.1625  0.2892
 1545TIP3    H1 4641   3.281   3.051   1.002  0.9807  0.1629 -0.9603
 1545TIP3    H2 4642   3.192   3.161   1.055 -0.6573 -2.2783  1.6647
 1546TIP3   OH2 4643   4.279   2.732   0.827 -0.1871 -0.2694  0.1307
 1546TIP3    H1 4644   4.355   2.674   0.822  0.3866  0.1971  2.5162
 1546TIP3    H2 4645   4.309   2.816   0.793  0.4171 -0.0699  1.1258
 1547TIP3   OH2 4646   0.294   2.821   4.851  0.1090  0.0555  0.4314
 1547TIP3    H1 4647   0.323   2.904   4.889 -0.0045  0.9838 -1.3672
 1547TIP3    H2 4648   0.375   2.776   4.827  0.1904 -0.6712  1.9601
 1548TIP3   OH2 4649   0.976   4.271   1.526  0.1850  0.4172 -0.4800
 1548TIP3    H1 4650   0.966   4.184   1.563  2.0777  0.4465  0.2411
 1548TIP3    H2 4651   0.940   4.265   1.438  2.2434 -1.7666 -1.2905
 1549TIP3   OH2 4652   5.024   5.052   2.757 -0.4398 -0.3648 -0.2216
 1549TIP3    H1 4653   5.029   5.013   2.669 -0.8095  0.4131 -0.5967
 1549TIP3    H2 4654   5.115   5.057   2.785 -0.3693 -1.3543 -0.2172
 1550TIP3   OH2 4655   2.592   1.094   4.879  0.0542  0.0027  0.5275
 1550TIP3    H1 4656   2.650   1.145   4.822 -0.6742 -0.3982 -0.5943
 1550TIP3    H2 4657   2.585   1.147   4.959  1.0126  0.6203  0.2218
 1551TIP3   OH2 4658   4.874   1.967   3.175  0.0290 -0.0225 -0.3002
 1551TIP3    H1 4659   4.924   1.954   3.256 -1.9044 -2.1878  0.6199
 1551TIP3    H2 4660   4.826   2.048   3.190 -1.0148 -0.8739  1.1391
 1552TIP3   OH2 4661   5.255   4.325   3.746 -0.2855  0.3978 -0.1230
 1552TIP3    H1 4662   5.340   4.349   3.783 -0.8687 -1.0442  2.3834
 1552TIP3    H2 4663   5.197   4.397   3.771 -0.2874  0.2998  0.1519
 1553TIP3   OH2 4664   1.895   2.125   0.231  0.3085 -0.2124  0.2679
 1553TIP3    H1 4665   1.925   2.212   0.203  0.5834 -0.3775  0.0453
 1553TIP3    H2 4666   1.808   2.117   0.194  1.0279 -0.8120 -1.3732
 1554TIP3   OH2 4667   0.445   0.312   4.881 -0.2363  0.5673  0.2372
 1554TIP3    H1 4668   0.378   0.248   4.855  0.6484 -0.3517  0.1581
 1554TIP3    H2 4669   0.475   0.283   4.967  0.1248  0.9195  0.2360
 1555TIP3   OH2 4670   2.236   0.650   2.220  0.1720  0.4585  0.0824
 1555TIP3    H1 4671   2.212   0.712   2.151  0.6529 -1.2205 -1.6583
 1555TIP3    H2 4672   2.311   0.602   2.184 -0.6622 -1.6722  1.0250
 1556TIP3   OH2 4673   0.415   1.271   1.649 -0.6633  0.1337 -0.4594
 1556TIP3    H1 4674   0.466   1.204   1.604 -1.5731 -1.6432  0.9974
 1556TIP3    H2 4675   0.464   1.289   1.729 -0.8888  0.5412 -0.4098
 1557TIP3   OH2 4676   5.619   2.274   4.523 -0.0739  0.0287  0.1807
 1557TIP3    H1 4677   5.578   2.271   4.609 -0.8720  0.2552 -0.1840
 1557TIP3    H2 4678   5.687   2.340   4.531 -1.6186  1.7233  0.0339
 1558TIP3   OH2 4679   0.179   1.208   3.220 -0.1568  0.4041  0.7246
 1558TIP3    H1 4680   0.173   1.113   3.225  1.3950  0.3440  4.5959
 1558TIP3    H2 4681   0.273   1.227   3.230 -0.6209  2.3450  2.0827
 1559TIP3   OH2 4682   5.823   5.951   1.016 -0.1193 -0.1412  0.1812
 1559TIP3    H1 4683   5.734   5.961   0.982 -1.5192  0.0741  3.5262
 1559TIP3    H2 4684   5.839   5.856   1.017 -0.9035 -0.2709  0.8818
 1560TIP3   OH2 4685   6.111   5.610   1.468  0.6819  0.3074  0.4527
 1560TIP3    H1 4686   6.045   5.554   1.509  1.7554 -0.4670  1.1886
 1560TIP3    H2 4687   6.187   5.605   1.527  1.5414  0.8492 -0.5602
 1561TIP3   OH2 4688   4.980   5.524   2.873 -0.2525  0.1381 -0.6060
 1561TIP3    H1 4689   5.074   5.538   2.888  0.0279 -0.4234 -1.7280
 1561TIP3    H2 4690   4.954   5.596   2.815 -0.7775  0.9009  0.5265
 1562TIP3   OH2 4691   3.515   2.991   4.765  0.3706  0.7406  0.1649
 1562TIP3    H1 4692   3.470   3.001   4.849 -2.2315  0.6457 -1.1110
 1562TIP3    H2 4693   3.606   2.974   4.789 -0.3574  0.1591  2.9696
 1563TIP3   OH2 4694   2.657   2.268   1.130 -0.1329  0.1625  0.4047
 1563TIP3    H1 4695   2.578   2.291   1.179 -0.8855  0.4314 -0.8742
 1563TIP3    H2 4696   2.648   2.175   1.110 -0.7268  0.4354 -0.7202
 1564TIP3   OH2 4697   6.256   0.895   3.543 -0.3557 -0.0460  0.4469
 1564TIP3    H1 4698   6.212   0.978   3.529  0.8420  0.5202 -0.1734
 1564TIP3    H2 4699   6.236   0.844   3.464  0.3146  0.3249  0.0247
 1565TIP3   OH2 4700   3.855   0.631   1.641  0.4630 -0.7076 -0.4505
 1565TIP3    H1 4701   3.911   0.587   1.577 -1.2681 -2.9198 -0.5694
 1565TIP3    H2 4702   3.888   0.602   1.726  0.6357 -0.5286 -0.4563
 1566TIP3   OH2 4703   1.572   3.461   5.089  0.1280 -0.1041  0.3417
 1566TIP3    H1 4704   1.622   3.396   5.039 -0.8358 -0.3729 -0.2974
 1566TIP3    H2 4705   1.520   3.508   5.024 -0.8539 -0.1963  1.0295
 1567TIP3   OH2 4706   4.760   4.521   4.083  0.2580 -0.1394  0.6152
 1567TIP3    H1 4707   4.738   4.560   4.167  0.9528 -2.5665  2.0348
 1567TIP3    H2 4708   4.788   4.432   4.105 -1.1455 -1.4289 -2.3546
 1568TIP3   OH2 4709   3.021   1.675   4.570 -0.2556  0.3161 -0.3213
 1568TIP3    H1 4710   3.036   1.769   4.579  2.8504 -0.1987  1.0480
 1568TIP3    H2 4711   3.077   1.649   4.497  0.8596 -0.7951  0.8744
 1569TIP3   OH2 4712   2.736   0.236   5.064 -0.1109 -0.0950 -0.0069
 1569TIP3    H1 4713   2.813   0.191   5.098  0.1982  1.2747  1.1760
 1569TIP3    H2 4714   2.769   0.321   5.034 -1.3183  0.9835  1.6126
 1570TIP3   OH2 4715   4.172   1.223   4.520  0.3097 -0.5615 -0.4592
 1570TIP3    H1 4716   4.205   1.135   4.503 -2.1110 -1.5134 -0.5428
 1570TIP3    H2 4717   4.183   1.235   4.614 -0.0527 -1.2838 -0.3151
 1571TIP3   OH2 4718   2.096   5.346  -0.002  0.5579 -0.2823 -0.3363
 1571TIP3    H1 4719   2.074   5.357   0.091 -1.2680  0.5413 -0.8188
 1571TIP3    H2 4720   2.077   5.255  -0.021 -1.0213  0.0238 -0.3426
 1572TIP3   OH2 4721   3.034   1.002   2.349  0.0626 -0.2140 -0.4198
 1572TIP3    H1 4722   3.019   1.094   2.370  0.5999 -0.3251  0.5130
 1572TIP3    H2 4723   2.951   0.972   2.313 -1.3608 -0.2654  2.5528
 1573TIP3   OH2 4724   3.149   5.191   4.298  0.8136  0.1656 -0.2764
 1573TIP3    H1 4725   3.245   5.186   4.297  0.8422  0.6388 -0.0129
 1573TIP3    H2 4726   3.128   5.265   4.241  0.5927 -0.0433 -0.4705
 1574TIP3   OH2 4727   4.929   1.947   2.348  0.0306 -0.6375  0.3605
 1574TIP3    H1 4728   4.898   2.034   2.373 -0.9960 -1.5240  2.3555
 1574TIP3    H2 4729   5.011   1.936   2.396 -0.3318 -1.1469  0.8570
 1575TIP3   OH2 4730   0.421   4.888   3.112  0.1146 -0.2449 -0.0751
 1575TIP3    H1 4731   0.341   4.836   3.111  0.5869 -1.0219  0.9056
 1575TIP3    H2 4732   0.484   4.834   3.160  0.8247  0.9310  0.3480
 1576TIP3   OH2 4733   3.250   6.007   0.333  0.2013  0.5656  0.2940
 1576TIP3    H1 4734   3.339   6.020   0.301 -0.7367 -0.2324 -2.9663
 1576TIP3    H2 4735   3.247   5.915   0.360 -0.2681 -0.2523 -2.2645
 1577TIP3   OH2 4736   1.185   5.740   4.521 -0.2787  0.2152  0.1845
 1577TIP3    H1 4737   1.109   5.781   4.479 -0.4025  0.6056  0.7582
 1577TIP3    H2 4738   1.148   5.666   4.569 -0.4729  0.9767  1.2632
 1578TIP3   OH2 4739   2.317   1.036   3.176  0.1650 -0.4932  0.3643
 1578TIP3    H1 4740   2.235   1.082   3.193  0.5785  0.5915 -0.4245
 1578TIP3    H2 4741   2.292   0.963   3.120 -0.1259  0.6064 -1.0145
 1579TIP3   OH2 4742   0.429   1.905   2.188  0.2721  0.9820 -0.0222
 1579TIP3    H1 4743   0.473   1.861   2.115 -0.4815 -0.5131  0.3906
 1579TIP3    H2 4744   0.500   1.937   2.243  0.9232 -1.5370  0.7268
 1580TIP3   OH2 4745   4.350   0.863   4.159  0.4436 -0.0956 -0.3796
 1580TIP3    H1 4746   4.426   0.828   4.110  0.3487 -0.5861 -0.1872
 1580TIP3    H2 4747   4.363   0.957   4.159  0.6237 -0.1097 -1.0708
 1581TIP3   OH2 4748   1.768   3.301   4.944 -0.2186 -0.0015  0.0177
 1581TIP3    H1 4749   1.799   3.218   4.909 -0.1070  0.2577 -0.4972
 1581TIP3    H2 4750   1.768   3.361   4.870 -0.4546  0.4189  0.3495
 1582TIP3   OH2 4751   2.061   1.040   2.557  0.0504  0.0504  0.4880
 1582TIP3    H1 4752   2.147   1.080   2.545 -0.1870  0.3935 -0.1134
 1582TIP3    H2 4753   2.073   0.978   2.630  0.5765  0.7322  0.9902
 1583TIP3   OH2 4754   1.143   3.431   2.152  0.3590  0.0644  0.0502
 1583TIP3    H1 4755   1.236   3.428   2.175  0.0098 -0.7533  1.4902
 1583TIP3    H2 4756   1.117   3.522   2.168  0.4732 -0.1520  1.5685
 1584TIP3   OH2 4757   5.169   4.343   3.211  0.2810  0.3590  0.2404
 1584TIP3    H1 4758   5.139   4.311   3.296  2.8467  0.4282  1.2619
 1584TIP3    H2 4759   5.181   4.263   3.159 -2.7263  0.3882 -0.6884
 1585TIP3   OH2 4760   0.287   2.532   3.334 -0.0057 -0.3115  0.8712
 1585TIP3    H1 4761   0.292   2.595   3.405  0.0515 -0.6609  1.1799
 1585TIP3    H2 4762   0.240   2.578   3.264  0.9348  0.4275  0.6988
 1586TIP3   OH2 4763   6.170   0.434   4.215 -0.1330 -0.6535 -0.3908
 1586TIP3    H1 4764   6.142   0.451   4.305 -1.9311 -0.3634 -0.9599
 1586TIP3    H2 4765   6.197   0.343   4.214 -2.6268 -1.4750 -0.0849
 1587TIP3   OH2 4766   3.626   1.888   0.551 -0.0899  0.4652 -0.7844
 1587TIP3    H1 4767   3.660   1.808   0.591 -1.2464 -0.4809 -1.6254
 1587TIP3    H2 4768   3.651   1.881   0.459  1.3520  1.9613 -0.5527
 1588TIP3   OH2 4769   2.804   2.814   1.549  0.2243  0.5555 -0.1122
 1588TIP3    H1 4770   2.837   2.724   1.561 -0.1097  0.3466 -0.7260
 1588TIP3    H2 4771   2.785   2.820   1.455 -1.9961  0.4938  0.2918
 1589TIP3   OH2 4772   5.314   3.066   4.512 -0.6805 -0.2232 -0.4391
 1589TIP3    H1 4773   5.326   2.995   4.448 -1.8226 -0.5123 -0.3487
 1589TIP3    H2 4774   5.224   3.055   4.543 -0.2460  0.1012  0.9953
 1590TIP3   OH2 4775   2.717   3.595   4.977 -0.7444  0.2363 -0.6779
 1590TIP3    H1 4776   2.697   3.527   5.041  0.5422  0.4104 -0.0624
 1590TIP3    H2 4777   2.783   3.555   4.920  2.1970  1.8006  1.3814
 1591TIP3   OH2 4778   0.129   3.099   1.892  0.3512 -0.7707  0.1890
 1591TIP3    H1 4779   0.082   3.094   1.976 -0.0278 -1.1094 -0.0458
 1591TIP3    H2 4780   0.157   3.009   1.874  0.5211 -0.6808 -0.0047
 1592TIP3   OH2 4781   6.299   1.986   0.507 -0.0940  0.5967 -0.4831
 1592TIP3    H1 4782   6.284   1.930   0.431  2.0962 -2.6557  1.2566
 1592TIP3    H2 4783   6.383   2.027   0.490  0.2391  0.1254 -0.0133
 1593TIP3   OH2 4784   2.298   1.783   3.120 -0.1786  0.2219 -0.6928
 1593TIP3    H1 4785   2.298   1.873   3.086 -1.9676 -0.0235 -1.4391
 1593TIP3    H2 4786   2.213   1.774   3.164  0.5619 -0.6742  0.6242
 1594TIP3   OH2 4787   0.592   2.217   4.732 -0.3854 -0.3250  0.1284
 1594TIP3    H1 4788   0.583   2.285   4.666  0.4099  0.3991  0.7304
 1594TIP3    H2 4789   0.607   2.265   4.814  2.1978 -1.1936  0.2684
 1595TIP3   OH2 4790   5.695   3.787   0.620 -0.1384 -0.0489 -0.4403
 1595TIP3    H1 4791   5.755   3.714   0.605  2.1204  1.5467  0.3087
 1595TIP3    H2 4792   5.707   3.844   0.543 -1.5625 -0.2305 -0.8246
 1596TIP3   OH2 4793   0.105   2.374   4.571  0.1865 -0.3589  0.0777
 1596TIP3    H1 4794   0.056   2.338   4.497  0.3286 -2.1919  0.8215
 1596TIP3    H2 4795   0.106   2.303   4.635  1.7062  0.5199  1.0682
 1597TIP3   OH2 4796   0.924   4.712   0.312 -0.3105  0.2520  0.3797
 1597TIP3    H1 4797   0.943   4.675   0.226 -2.8278  1.0049 -0.6088
 1597TIP3    H2 4798   0.934   4.807   0.300 -2.6133  0.5394  0.2618
 1598TIP3   OH2 4799   4.296   5.749   1.056  0.4587 -0.1525  0.0687
 1598TIP3    H1 4800   4.202   5.738   1.074  0.1949 -1.3680 -1.7618
 1598TIP3    H2 4801   4.331   5.788   1.136 -1.6661  0.7185  0.6608
 1599TIP3   OH2 4802   3.950   2.242   5.081 -0.4152  0.3724  0.4701
 1599TIP3    H1 4803   3.929   2.152   5.055  0.8873 -0.3140  1.6493
 1599TIP3    H2 4804   3.966   2.237   5.175  0.3883  1.6910  0.4318
 1600TIP3   OH2 4805   0.710   1.153   3.573 -0.3390  0.2680 -0.0881
 1600TIP3    H1 4806   0.690   1.061   3.557 -0.7038 -0.0793  2.0293
 1600TIP3    H2 4807   0.671   1.171   3.658  0.6762  2.0750  0.0399
 1601TIP3   OH2 4808   3.932   3.814   1.818 -0.1778 -0.1841  0.2089
 1601TIP3    H1 4809   3.862   3.854   1.869  0.0695  0.3750  0.1147
 1601TIP3    H2 4810   4.002   3.880   1.817  0.5535 -0.9348  0.7463
 1602TIP3   OH2 4811   5.566   5.118   3.128  0.3130 -0.5374  0.5842
 1602TIP3    H1 4812   5.600   5.110   3.217 -0.2347  0.3775  0.8925
 1602TIP3    H2 4813   5.593   5.038   3.084  1.8540 -0.3625  1.1519
 1603TIP3   OH2 4814   4.515   3.863   5.086  0.7819 -0.2927 -0.4372
 1603TIP3    H1 4815   4.465   3.938   5.116 -0.5591 -0.0603 -2.9475
 1603TIP3    H2 4816   4.605   3.893   5.082  0.3220  1.0854 -0.9775
 1604TIP3   OH2 4817   1.250   1.556   3.452  0.0636  0.1492 -0.4142
 1604TIP3    H1 4818   1.211   1.594   3.373 -2.2840 -0.7179  0.2450
 1604TIP3    H2 4819   1.205   1.600   3.524  1.3466  0.1088  0.4319
 1605TIP3   OH2 4820   5.317   1.746   4.143  0.3247  0.9203  0.3910
 1605TIP3    H1 4821   5.363   1.747   4.226  1.8679  1.1458 -0.4355
 1605TIP3    H2 4822   5.293   1.654   4.129  0.9582  0.7239  0.5980
 1606TIP3   OH2 4823   0.476   2.198   3.603  0.0654 -0.2927 -0.1054
 1606TIP3    H1 4824   0.510   2.255   3.534 -0.5155  0.5997  0.3282
 1606TIP3    H2 4825   0.468   2.112   3.561  2.2445 -0.4076 -0.3870
 1607TIP3   OH2 4826   0.902   4.139   3.516 -0.1300  0.5354  0.0773
 1607TIP3    H1 4827   0.871   4.063   3.467  1.1447 -0.1067  0.2207
 1607TIP3    H2 4828   0.843   4.210   3.490  0.1795  0.1023 -2.0091
 1608TIP3   OH2 4829   1.434   5.310   1.201  0.7709  0.0852 -0.1407
 1608TIP3    H1 4830   1.446   5.222   1.165 -0.7678 -0.0303 -0.4470
 1608TIP3    H2 4831   1.428   5.367   1.124  1.2789  0.3866  0.0435
 1609TIP3   OH2 4832   6.101   2.971   4.236 -0.4966  0.2558  0.0180
 1609TIP3    H1 4833   6.135   3.020   4.162 -0.2593 -0.1708 -0.1581
 1609TIP3    H2 4834   6.018   3.015   4.258 -0.4593  0.5175 -0.3561
 1610TIP3   OH2 4835   0.999   2.155   0.345  0.5797 -0.3873 -0.3871
 1610TIP3    H1 4836   0.935   2.200   0.291 -1.9076  0.7217  3.1235
 1610TIP3    H2 4837   1.071   2.217   0.354 -0.0123  0.3427 -0.5992
 1611TIP3   OH2 4838   0.578   4.825   2.354 -0.0650 -0.5987 -0.0605
 1611TIP3    H1 4839   0.550   4.878   2.280 -1.2588  0.8075  1.3405
 1611TIP3    H2 4840   0.571   4.883   2.430  1.3420 -1.9156  1.1532
 1612TIP3   OH2 4841   3.362   1.630   1.173  0.0970 -0.5002  0.1329
 1612TIP3    H1 4842   3.439   1.677   1.204 -0.2838 -0.7545  1.5573
 1612TIP3    H2 4843   3.352   1.556   1.235 -0.3199 -1.4348 -1.0075
 1613TIP3   OH2 4844   4.903   3.725   3.566 -0.1306  0.3337 -0.2956
 1613TIP3    H1 4845   4.992   3.710   3.600 -0.4642  1.5623  1.2619
 1613TIP3    H2 4846   4.851   3.655   3.606  0.4816 -1.9781 -3.2089
 1614TIP3   OH2 4847   5.115   3.783   4.056  0.6436  0.3235  0.1806
 1614TIP3    H1 4848   5.112   3.734   4.138  0.2967  1.4229  0.8513
 1614TIP3    H2 4849   5.024   3.809   4.040  0.5436 -0.6668 -1.0767
 1615TIP3   OH2 4850   3.365   5.427   0.685 -0.9491  0.0255 -0.0135
 1615TIP3    H1 4851   3.291   5.483   0.708  1.0432  2.1818  1.6184
 1615TIP3    H2 4852   3.416   5.479   0.623  0.0810 -0.7115  0.2033
 1616TIP3   OH2 4853   3.497   5.807   1.986  0.1406 -0.0868  0.6536
 1616TIP3    H1 4854   3.536   5.851   1.911  0.0342 -1.6567 -0.3652
 1616TIP3    H2 4855   3.403   5.827   1.981 -0.1192 -1.4466 -0.5836
 1617TIP3   OH2 4856   1.965   4.364   4.848  0.4310  0.0177  0.7802
 1617TIP3    H1 4857   2.000   4.345   4.761 -1.6287 -1.0932  0.1229
 1617TIP3    H2 4858   2.020   4.314   4.908  0.6375 -0.8499 -0.1068
 1618TIP3   OH2 4859   4.165   5.741   3.633  0.2466  0.1419  0.2297
 1618TIP3    H1 4860   4.239   5.800   3.644 -1.8611  3.1775 -0.5787
 1618TIP3    H2 4861   4.118   5.746   3.717  0.5882 -1.2788  0.5257
 1619TIP3   OH2 4862   5.349   4.228   0.162  0.1476  0.6361  0.1212
 1619TIP3    H1 4863   5.349   4.255   0.070  0.5916  0.9980  0.2219
 1619TIP3    H2 4864   5.260   4.246   0.192 -0.3612 -0.5990 -0.5419
 1620TIP3   OH2 4865   4.058   2.703   3.632  0.4641 -0.1910 -0.4458
 1620TIP3    H1 4866   4.041   2.609   3.623 -0.0349 -0.1152 -0.3303
 1620TIP3    H2 4867   4.008   2.744   3.561 -1.2772  0.1735  0.9068
 1621TIP3   OH2 4868   6.025   3.506   2.009  0.7532  0.3117  0.3335
 1621TIP3    H1 4869   5.937   3.543   1.996  0.7392  0.8118  1.6518
 1621TIP3    H2 4870   6.074   3.532   1.931  0.4815  2.4120  0.7856
 1622TIP3   OH2 4871   6.282   1.502   1.709 -0.3781  0.0831 -0.4753
 1622TIP3    H1 4872   6.239   1.417   1.703  0.3810 -0.2465 -1.7236
 1622TIP3    H2 4873   6.373   1.484   1.687  0.0279  1.0499  0.3594
 1623TIP3   OH2 4874   3.220   1.999   1.961 -0.0111 -0.1041 -0.1487
 1623TIP3    H1 4875   3.169   2.001   1.880 -1.0638  0.2986  0.5041
 1623TIP3    H2 4876   3.164   2.042   2.026  0.3883 -1.2888  1.0287
 1624TIP3   OH2 4877   4.653   0.001   4.041  0.1079  0.1851 -0.2666
 1624TIP3    H1 4878   4.597   0.077   4.024  2.0376  1.5247 -1.0538
 1624TIP3    H2 4879   4.716   0.032   4.106  0.7247 -0.8692 -0.3439
 1625TIP3   OH2 4880   4.082   1.765   1.613 -0.2158 -0.4939 -0.2893
 1625TIP3    H1 4881   4.067   1.857   1.592 -1.4276 -0.2474  1.3758
 1625TIP3    H2 4882   4.010   1.743   1.673  1.8575 -1.5539  2.0000
 1626TIP3   OH2 4883   4.197   3.448   5.102 -0.6940 -0.3590 -0.1219
 1626TIP3    H1 4884   4.286   3.480   5.116 -1.1593  0.6678  0.5617
 1626TIP3    H2 4885   4.144   3.527   5.092 -1.6275 -0.9462  0.0697
 1627TIP3   OH2 4886   5.393   3.913   2.085  0.2382 -0.0075  0.1985
 1627TIP3    H1 4887   5.480   3.955   2.088  0.1898  0.0858  0.2769
 1627TIP3    H2 4888   5.396   3.860   2.005  0.5174 -0.3389  0.4312
 1628TIP3   OH2 4889   0.936   3.676   1.968  0.3581 -0.2848  0.4796
 1628TIP3    H1 4890   1.027   3.694   1.943  0.2316  0.0902  0.2897
 1628TIP3    H2 4891   0.884   3.709   1.894  0.0342 -0.0005  0.8329
 1629TIP3   OH2 4892   1.826   1.631   0.880 -0.2796  0.1416 -0.2831
 1629TIP3    H1 4893   1.742   1.586   0.880 -1.5282  2.3303  0.8312
 1629TIP3    H2 4894   1.815   1.702   0.816  0.6097  0.6427  0.1000
 1630TIP3   OH2 4895   0.890   4.347   2.118  0.0560  0.0470  0.0159
 1630TIP3    H1 4896   0.913   4.410   2.186  0.5088  0.1031 -0.1851
 1630TIP3    H2 4897   0.797   4.329   2.132 -0.2792  1.3358 -0.3896
 1631TIP3   OH2 4898   1.596   4.775   4.879  0.6071  0.2330 -0.1513
 1631TIP3    H1 4899   1.566   4.741   4.964  0.8304 -1.5095 -0.7305
 1631TIP3    H2 4900   1.617   4.867   4.896  0.2183  0.0391  1.5730
 1632TIP3   OH2 4901   3.917   1.058   3.673  0.1953  0.0024 -0.7328
 1632TIP3    H1 4902   3.982   0.989   3.682 -0.1398 -0.2390 -0.0894
 1632TIP3    H2 4903   3.850   1.020   3.615  0.1124 -0.1429 -0.5440
 1633TIP3   OH2 4904   4.043   1.173   4.884 -0.0678 -0.5882 -0.6079
 1633TIP3    H1 4905   4.098   1.142   4.955 -0.8098  2.2445  1.3514
 1633TIP3    H2 4906   4.034   1.267   4.899 -2.6878 -0.3690 -2.7580
 1634TIP3   OH2 4907   0.197   1.121   0.870  0.0471 -0.0439 -0.3324
 1634TIP3    H1 4908   0.127   1.146   0.809 -1.4550  0.8803  1.6541
 1634TIP3    H2 4909   0.268   1.181   0.849 -1.1455  1.5672  0.0353
 1635TIP3   OH2 4910   1.556   0.979   1.388 -0.0342  0.3469  0.4698
 1635TIP3    H1 4911   1.563   1.039   1.462  0.1150  0.1449  0.6214
 1635TIP3    H2 4912   1.612   1.017   1.321 -0.5711  0.8023  0.2752
 1636TIP3   OH2 4913   4.180   0.128   0.008 -0.3558  0.0435  0.2224
 1636TIP3    H1 4914   4.206   0.134   0.100  0.5560  0.1064 -0.0241
 1636TIP3    H2 4915   4.101   0.181   0.001 -0.9926 -0.7605  1.1690
 1637TIP3   OH2 4916   4.930   2.251   2.849  0.8186 -0.4016  0.0195
 1637TIP3    H1 4917   4.961   2.278   2.935  0.8937 -1.2197  0.2547
 1637TIP3    H2 4918   4.839   2.283   2.845 -0.3304 -3.1433  1.7281
 1638TIP3   OH2 4919   5.471   5.398   2.825  0.1418  1.0642  0.2359
 1638TIP3    H1 4920   5.465   5.314   2.781 -2.4641  1.1487  0.3145
 1638TIP3    H2 4921   5.497   5.459   2.756  0.9301  0.4107 -0.0609
 1639TIP3   OH2 4922   2.465   1.628   2.618 -0.1946 -0.6602  0.6603
 1639TIP3    H1 4923   2.444   1.644   2.527  1.9086  0.0387  0.2306
 1639TIP3    H2 4924   2.495   1.537   2.621 -2.3290 -1.3927  1.1154
 1640TIP3   OH2 4925   5.348   2.448   0.523 -0.0590  1.1146 -0.0932
 1640TIP3    H1 4926   5.289   2.508   0.479 -0.8804  1.4132  1.3579
 1640TIP3    H2 4927   5.301   2.422   0.602  0.4349 -1.1290 -0.4624
 1641TIP3   OH2 4928   6.281   0.188   4.174 -0.0275 -0.6062 -0.4637
 1641TIP3    H1 4929   6.346   0.255   4.149 -0.0040 -0.8346 -1.0221
 1641TIP3    H2 4930   6.331   0.127   4.229 -0.6903  1.3698  2.6406
 1642TIP3   OH2 4931   4.568   3.095   2.360 -0.5320 -0.5307 -0.3571
 1642TIP3    H1 4932   4.491   3.038   2.366 -0.7154 -0.4714 -1.7563
 1642TIP3    H2 4933   4.608   3.091   2.447  0.0041 -3.5541 -0.6377
 1643TIP3   OH2 4934   6.290   5.354   2.770  0.4806 -0.8991  0.1360
 1643TIP3    H1 4935   6.325   5.409   2.840  1.7809 -1.5489  0.0222
 1643TIP3    H2 4936   6.357   5.288   2.755 -0.7061 -2.0848 -0.2376
 1644TIP3   OH2 4937   1.768   1.304   3.642  0.0178  0.2140 -0.0555
 1644TIP3    H1 4938   1.679   1.268   3.636 -0.0404  0.3423  0.0518
 1644TIP3    H2 4939   1.769   1.353   3.724  0.2745 -0.0246  0.0878
 1645TIP3   OH2 4940   1.145   4.047   1.855  0.6567 -0.1688  0.0211
 1645TIP3    H1 4941   1.148   4.140   1.835  2.4105 -0.3198 -0.6013
 1645TIP3    H2 4942   1.153   4.042   1.951 -0.6331  0.3359  0.1672
 1646TIP3   OH2 4943   5.004   3.445   2.158 -0.5708 -0.3611  0.1904
 1646TIP3    H1 4944   4.980   3.371   2.103  0.0653 -2.5867  2.6703
 1646TIP3    H2 4945   5.097   3.460   2.139 -1.1880  1.2474 -1.8001
 1647TIP3   OH2 4946   3.390   1.768   0.182 -0.0896  0.0298  0.1580
 1647TIP3    H1 4947   3.419   1.690   0.229 -0.0146  0.8553  1.5459
 1647TIP3    H2 4948   3.302   1.785   0.215  0.1217  0.8678  0.3134
 1648TIP3   OH2 4949   4.434   5.637   2.865  0.7415 -0.3541 -0.5625
 1648TIP3    H1 4950   4.391   5.635   2.779 -0.2615  0.0399 -0.0806
 1648TIP3    H2 4951   4.379   5.694   2.918  1.9533  0.2871  0.0413
 1649TIP3   OH2 4952   2.905   0.074   2.564  0.0313  0.0263  0.5003
 1649TIP3    H1 4953   2.910   0.111   2.652 -0.6825  1.8872 -0.1766
 1649TIP3    H2 4954   2.977   0.116   2.516  0.3912 -0.9370  0.1663
 1650TIP3   OH2 4955   3.522   4.264   4.936  0.0323  0.5535  0.0369
 1650TIP3    H1 4956   3.471   4.195   4.893  0.6637 -0.2633  0.5885
 1650TIP3    H2 4957   3.571   4.305   4.865 -1.4003  1.3976 -0.5226
 1651TIP3   OH2 4958   6.099   2.860   4.596 -0.1089 -0.3432 -0.1958
 1651TIP3    H1 4959   6.177   2.898   4.556 -0.7510  1.2372 -0.0418
 1651TIP3    H2 4960   6.125   2.772   4.621  1.3526 -0.1552 -0.9387
 1652TIP3   OH2 4961   4.120   0.781   3.918  0.4580  0.2392 -0.0126
 1652TIP3    H1 4962   4.190   0.846   3.921  0.1465  0.5722  0.0951
 1652TIP3    H2 4963   4.098   0.767   4.010  0.5117 -0.0064 -0.0374
 1653TIP3   OH2 4964   4.985   3.477   4.784 -0.2873 -0.1172 -0.1917
 1653TIP3    H1 4965   5.028   3.446   4.705  0.8904 -0.8056  0.6790
 1653TIP3    H2 4966   4.911   3.530   4.753 -1.1360 -2.0855 -1.7435
 1654TIP3   OH2 4967   1.289   5.650   3.871 -0.4246 -0.0869 -0.0920
 1654TIP3    H1 4968   1.210   5.703   3.864 -1.0995 -0.8439  1.3500
 1654TIP3    H2 4969   1.261   5.570   3.915  0.9660 -0.7949 -0.4132
 1655TIP3   OH2 4970   2.664   3.295   4.927 -0.2687  0.0645 -0.3068
 1655TIP3    H1 4971   2.604   3.281   4.854 -0.4791  1.3049 -0.4007
 1655TIP3    H2 4972   2.745   3.327   4.887  0.7476 -2.2757 -0.2400
 1656TIP3   OH2 4973   5.029   3.954   0.084  0.6079 -0.0489 -0.2278
 1656TIP3    H1 4974   4.992   3.873   0.050  0.5505  0.7203 -2.1561
 1656TIP3    H2 4975   4.955   4.014   0.091  0.4883 -0.3683  2.0613
 1657TIP3   OH2 4976   6.078   3.086   0.754  0.2027 -0.5229 -0.4149
 1657TIP3    H1 4977   6.050   3.140   0.680 -0.1680 -0.4502 -0.2267
 1657TIP3    H2 4978   6.039   3.129   0.830 -0.4710 -1.3060 -0.3070
 1658TIP3   OH2 4979   3.074   0.758   3.856 -0.1014  0.3872  1.0180
 1658TIP3    H1 4980   3.081   0.664   3.872 -0.9611  0.5245  2.3664
 1658TIP3    H2 4981   2.993   0.768   3.805  0.7808  0.2788 -0.4473
 1659TIP3   OH2 4982   2.466   0.408   2.507  0.2383 -0.2259 -0.1642
 1659TIP3    H1 4983   2.494   0.416   2.415 -1.2420  0.4009 -0.5872
 1659TIP3    H2 4984   2.524   0.341   2.543 -1.0402 -2.7059 -2.3574
 1660TIP3   OH2 4985   0.807   4.370   1.757 -0.1744  0.2484 -0.1916
 1660TIP3    H1 4986   0.877   4.339   1.815 -0.3461  1.4273  0.6930
 1660TIP3    H2 4987   0.836   4.345   1.669  3.0746  3.5250 -0.2887
 1661TIP3   OH2 4988   2.448   2.374   4.755  0.4527 -0.6981  0.5030
 1661TIP3    H1 4989   2.451   2.430   4.678  2.1805 -1.5545 -0.1098
 1661TIP3    H2 4990   2.522   2.313   4.744 -0.3319 -2.0002  1.9574
 1662TIP3   OH2 4991   2.058   1.398   3.510 -1.3178 -0.0204 -0.4938
 1662TIP3    H1 4992   2.043   1.461   3.581 -2.0735 -1.1171  0.3586
 1662TIP3    H2 4993   2.029   1.314   3.546 -0.8949 -0.7609 -1.8105
 1663TIP3   OH2 4994   3.023   1.625   3.243  0.3507  0.1165  0.4357
 1663TIP3    H1 4995   3.115   1.620   3.269  0.5477  1.0622 -0.0640
 1663TIP3    H2 4996   2.987   1.540   3.270  1.4777 -0.4715  0.1928
 1664TIP3   OH2 4997   2.541   4.890   1.148 -0.2626 -0.1265  0.3174
 1664TIP3    H1 4998   2.580   4.803   1.139  0.5954  0.4104 -1.7501
 1664TIP3    H2 4999   2.451   4.879   1.116 -0.2757 -0.3295  0.4188
 1665TIP3   OH2 5000   5.627   0.063   0.243 -0.1104  0.0189 -0.2228
 1665TIP3    H1 5001   5.622   0.027   0.155 -0.7813  0.5258 -0.4052
 1665TIP3    H2 5002   5.721   0.069   0.262  0.0174 -1.3193 -0.3752
 1666TIP3   OH2 5003   4.297   0.338   4.326 -1.1495 -0.3409  0.2728
 1666TIP3    H1 5004   4.208   0.365   4.304 -0.8533 -0.2863 -0.9335
 1666TIP3    H2 5005   4.353   0.398   4.277 -0.4478 -0.5965  0.7463
 1667TIP3   OH2 5006   1.398   1.951   0.422  0.5700  0.0457  0.0457
 1667TIP3    H1 5007   1.403   2.030   0.368 -1.4787  0.0589 -0.2160
 1667TIP3    H2 5008   1.330   1.971   0.486  3.1311  0.1674  2.9604
 1668TIP3   OH2 5009   4.934   2.445   1.226  0.4625  0.0525  0.3020
 1668TIP3    H1 5010   4.935   2.405   1.313 -1.2311 -0.7371 -0.0090
 1668TIP3    H2 5011   4.900   2.533   1.241  2.0033  0.6297  0.6629
 1669TIP3   OH2 5012   4.609   1.027   3.092  0.7453  0.1921  0.8573
 1669TIP3    H1 5013   4.606   0.938   3.128  0.3356 -1.3905 -2.7180
 1669TIP3    H2 5014   4.655   1.018   3.009 -1.2218  2.9097 -0.6813
 1670TIP3   OH2 5015   2.339   4.008   2.976  0.0153 -0.7731  0.2934
 1670TIP3    H1 5016   2.385   4.068   3.035  0.4422 -0.2179 -0.5920
 1670TIP3    H2 5017   2.284   3.955   3.034  1.8970 -1.6082  1.4152
 1671TIP3   OH2 5018   4.056   3.484   3.756  0.3162 -0.4822  0.1829
 1671TIP3    H1 5019   4.086   3.452   3.841 -2.5823 -2.1267  0.6950
 1671TIP3    H2 5020   4.037   3.405   3.706 -0.5535  0.4625 -1.0417
 1672TIP3   OH2 5021   3.085   3.350   2.731 -0.4310  0.4025 -0.3801
 1672TIP3    H1 5022   3.145   3.279   2.708 -0.3284 -0.1068  1.3092
 1672TIP3    H2 5023   3.070   3.396   2.649  0.0599 -1.1448 -1.3892
 1673TIP3   OH2 5024   0.888   4.234   4.691  0.6055 -0.5361 -0.0951
 1673TIP3    H1 5025   0.811   4.228   4.634  3.0785  1.7465 -4.1691
 1673TIP3    H2 5026   0.868   4.305   4.751 -0.6009 -0.2027 -0.8662
 1674TIP3   OH2 5027   5.258   3.330   3.071  0.0116  0.0989 -0.5684
 1674TIP3    H1 5028   5.167   3.317   3.098  0.1333 -1.5398 -0.8471
 1674TIP3    H2 5029   5.299   3.374   3.144 -0.4318 -1.3625  0.6081
 1675TIP3   OH2 5030   2.417   5.445   0.281  0.3206 -0.2001 -0.2763
 1675TIP3    H1 5031   2.361   5.491   0.219 -1.5312  1.3497  2.3425
 1675TIP3    H2 5032   2.379   5.357   0.289  1.2457 -0.8020 -2.0613
 1676TIP3   OH2 5033   2.598   1.500   3.172 -0.1213  0.0054  0.1933
 1676TIP3    H1 5034   2.636   1.567   3.116  2.0713 -1.3914 -0.1425
 1676TIP3    H2 5035   2.541   1.449   3.115  0.1406  0.1048 -0.1596
 1677TIP3   OH2 5036   3.051   0.501   3.939 -0.0863 -0.2428 -0.3447
 1677TIP3    H1 5037   3.084   0.425   3.891 -0.9232 -0.4517 -0.5951
 1677TIP3    H2 5038   2.993   0.465   4.005  2.4885 -0.1382  2.1751
 1678TIP3   OH2 5039   5.536   4.355   4.710 -0.3832 -0.4629  0.6686
 1678TIP3    H1 5040   5.549   4.449   4.720 -3.5508 -0.0101  1.3369
 1678TIP3    H2 5041   5.453   4.346   4.663  0.8409 -2.9604 -1.2880
 1679TIP3   OH2 5042   1.998   2.995   0.857 -0.1284 -0.3541  0.1546
 1679TIP3    H1 5043   1.931   3.056   0.889  0.7631  0.9744 -0.4210
 1679TIP3    H2 5044   1.956   2.950   0.783 -1.4834 -1.9503  1.8227
 1680TIP3   OH2 5045   1.622   3.198   4.160  0.1774 -0.2005 -0.4794
 1680TIP3    H1 5046   1.703   3.149   4.147  0.3433 -0.0022 -0.2171
 1680TIP3    H2 5047   1.594   3.176   4.249 -0.3835 -0.7370 -0.7820
 1681TIP3   OH2 5048   3.840   3.822   0.070 -0.2900 -0.5027  0.4977
 1681TIP3    H1 5049   3.841   3.907   0.028 -1.5543 -1.5543 -1.8107
 1681TIP3    H2 5050   3.759   3.821   0.121  0.1565 -0.0313  1.2327
 1682TIP3   OH2 5051   6.265   1.758   1.581  0.0626 -0.1366 -0.3292
 1682TIP3    H1 5052   6.340   1.734   1.526  0.7093 -1.5392  1.0981
 1682TIP3    H2 5053   6.227   1.675   1.609 -0.7428  0.5364  0.6595
 1683TIP3   OH2 5054   4.199   4.367   1.831 -0.4019  0.3412 -0.5851
 1683TIP3    H1 5055   4.249   4.415   1.896 -1.8496  1.3190 -0.1414
 1683TIP3    H2 5056   4.241   4.281   1.826 -0.8798 -0.1856  2.4593
 1684TIP3   OH2 5057   0.606   2.160   2.163  0.3551 -0.0081  0.0708
 1684TIP3    H1 5058   0.660   2.097   2.210  2.6484 -0.3737 -2.7624
 1684TIP3    H2 5059   0.667   2.203   2.103 -2.2339  0.7442 -2.2087
 1685TIP3   OH2 5060   4.420   2.916   0.716  0.1253 -0.1207  0.1879
 1685TIP3    H1 5061   4.434   3.009   0.734 -1.0500  0.0805  0.1670
 1685TIP3    H2 5062   4.503   2.886   0.680  1.0260  0.5618  1.6088
 1686TIP3   OH2 5063   0.612   0.519   2.583  0.1616  0.3590 -0.0822
 1686TIP3    H1 5064   0.619   0.426   2.565  0.4345  0.2814  0.4038
 1686TIP3    H2 5065   0.693   0.541   2.628  0.7215  1.1262 -1.3996
 1687TIP3   OH2 5066   3.077   4.273   1.333  0.3511  0.6632  0.2866
 1687TIP3    H1 5067   3.105   4.287   1.423  0.5888 -1.9844  0.7120
 1687TIP3    H2 5068   3.158   4.271   1.282  0.3634  0.4160  0.3132
 1688TIP3   OH2 5069   3.463   1.247   3.948 -0.0925 -0.1628 -0.3391
 1688TIP3    H1 5070   3.392   1.200   3.903  0.1898 -2.2325  1.2536
 1688TIP3    H2 5071   3.498   1.184   4.011  0.9199  1.9317  1.3183
 1689TIP3   OH2 5072   3.783   2.324   4.483 -0.5660 -0.0817  0.1943
 1689TIP3    H1 5073   3.703   2.304   4.531 -1.5582  1.2007 -0.8472
 1689TIP3    H2 5074   3.844   2.357   4.549 -1.4958  0.5692  0.7294
 1690TIP3   OH2 5075   5.324   4.478   2.958 -0.0827 -0.9486  0.3080
 1690TIP3    H1 5076   5.247   4.525   2.991  0.3966 -0.6504  1.0273
 1690TIP3    H2 5077   5.309   4.387   2.985 -0.1613 -0.8856  0.4803
 1691TIP3   OH2 5078   3.940   3.227   3.687 -0.2037 -0.1929  0.0313
 1691TIP3    H1 5079   3.880   3.220   3.761 -0.5990 -0.5253 -0.3149
 1691TIP3    H2 5080   3.989   3.145   3.687 -0.1471 -0.1596 -0.0282
 1692TIP3   OH2 5081   5.747   0.865   4.454  0.3666  0.5177 -0.3460
 1692TIP3    H1 5082   5.691   0.798   4.495  2.4981 -1.4126 -0.3639
 1692TIP3    H2 5083   5.776   0.824   4.373 -2.7039  3.7535 -3.3814
 1693TIP3   OH2 5084   0.644   3.881   1.121 -0.0556  0.6497  0.1210
 1693TIP3    H1 5085   0.571   3.884   1.183 -0.9275  2.9757 -0.8875
 1693TIP3    H2 5086   0.655   3.972   1.093  2.8723  0.2696 -0.2216
 1694TIP3   OH2 5087   0.842   2.585   1.815 -0.1844  0.0028 -0.1537
 1694TIP3    H1 5088   0.765   2.603   1.761 -0.7949 -1.6586  0.1267
 1694TIP3    H2 5089   0.855   2.666   1.864  0.2990  1.5351 -2.5978
 1695TIP3   OH2 5090   6.330   3.126   2.434 -0.6603  0.1709 -0.6741
 1695TIP3    H1 5091   6.369   3.053   2.385  1.5916  0.2598  0.8712
 1695TIP3    H2 5092   6.255   3.087   2.478 -1.9645 -0.2119 -3.0476
 1696TIP3   OH2 5093   3.351   3.558   0.017  0.7631 -0.2751 -0.1385
 1696TIP3    H1 5094   3.348   3.496   0.090 -0.8623  0.0307  0.1027
 1696TIP3    H2 5095   3.444   3.572  -0.000  1.1615 -2.3370  0.1700
 1697TIP3   OH2 5096   0.892   1.799   4.223 -0.1151 -0.3280 -0.3577
 1697TIP3    H1 5097   0.975   1.835   4.192 -0.2140 -0.0957 -0.3518
 1697TIP3    H2 5098   0.881   1.837   4.310  0.2410 -1.1023  0.0373
 1698TIP3   OH2 5099   5.262   1.554   1.455 -0.1841  0.2484  0.0442
 1698TIP3    H1 5100   5.228   1.610   1.385 -0.6802  0.8963  0.7930
 1698TIP3    H2 5101   5.226   1.590   1.535  2.0971  0.8445  0.8881
 1699TIP3   OH2 5102   3.187   5.408   2.050 -0.3697 -0.7856  0.3827
 1699TIP3    H1 5103   3.230   5.356   1.982  0.3110 -0.4070  0.5106
 1699TIP3    H2 5104   3.152   5.484   2.004 -0.5335 -0.8863  0.3423
 1700TIP3   OH2 5105   2.931   5.152   3.933 -0.0456 -0.0699 -0.0723
 1700TIP3    H1 5106   2.851   5.193   3.965  0.0159 -0.7069  0.9586
 1700TIP3    H2 5107   2.948   5.082   3.996  1.5440  0.3153 -0.0470
 1701TIP3   OH2 5108   1.538   4.101   4.099  0.0863  0.3281 -0.1466
 1701TIP3    H1 5109   1.620   4.076   4.142 -0.5964 -3.0704 -0.5159
 1701TIP3    H2 5110   1.481   4.130   4.170  0.2543 -1.4853  0.7968
 1702TIP3   OH2 5111   0.352   3.857   1.224  0.2191  0.2892 -0.2303
 1702TIP3    H1 5112   0.272   3.904   1.247 -0.1951 -1.2960  1.8524
 1702TIP3    H2 5113   0.323   3.784   1.170  0.5294  0.7804 -1.0885
 1703TIP3   OH2 5114   6.304   5.034   1.410 -0.2630  0.2904  0.4362
 1703TIP3    H1 5115   6.339   5.107   1.358 -0.1396 -0.7627 -1.0169
 1703TIP3    H2 5116   6.315   4.957   1.354  0.6370 -1.0573  2.3708
 1704TIP3   OH2 5117   2.646   0.933   5.183 -1.0207 -0.4053 -0.2843
 1704TIP3    H1 5118   2.666   0.840   5.176 -0.1938 -0.2336 -0.2989
 1704TIP3    H2 5119   2.553   0.939   5.163 -1.1057 -1.2409 -0.1792
 1705TIP3   OH2 5120   3.181   2.031   5.063 -0.5678 -0.4186 -0.3651
 1705TIP3    H1 5121   3.193   2.110   5.115 -0.6424  1.7780 -3.4114
 1705TIP3    H2 5122   3.103   1.989   5.100  0.7266 -0.3917  2.7095
 1706TIP3   OH2 5123   3.747   2.652   2.705 -0.7444 -0.0970 -0.1361
 1706TIP3    H1 5124   3.679   2.676   2.641 -1.1474  1.1652  0.7181
 1706TIP3    H2 5125   3.698   2.629   2.784 -0.2089  2.5775  1.0732
 1707TIP3   OH2 5126   3.001   1.087   2.992 -0.7139 -0.0409  0.3268
 1707TIP3    H1 5127   2.989   1.066   3.084  0.9381  0.8252  0.7804
 1707TIP3    H2 5128   3.091   1.059   2.972 -0.2330  1.8488 -0.3716
 1708TIP3   OH2 5129   4.868   5.176   0.132 -0.0458  0.1282 -0.6062
 1708TIP3    H1 5130   4.889   5.214   0.217  1.2372 -1.4794 -0.1677
 1708TIP3    H2 5131   4.802   5.236   0.095 -0.9159  0.6661  1.6462
 1709TIP3   OH2 5132   1.030   0.120   4.893 -0.0699  0.4879 -0.0996
 1709TIP3    H1 5133   1.015   0.203   4.938 -1.1247  0.3216 -0.1071
 1709TIP3    H2 5134   1.001   0.053   4.955 -0.7476  0.2134 -0.6874
 1710TIP3   OH2 5135   1.342   3.894   3.912 -0.1279 -0.0203  0.1408
 1710TIP3    H1 5136   1.427   3.850   3.904 -0.0377  0.1953 -0.0814
 1710TIP3    H2 5137   1.287   3.831   3.959  0.4601  0.2579  1.2310
 1711TIP3   OH2 5138   3.172   3.929   2.756  0.5964  0.0908  0.3301
 1711TIP3    H1 5139   3.151   3.837   2.775  0.0359  0.0237 -0.5515
 1711TIP3    H2 5140   3.183   3.932   2.661  0.4654  0.9657  0.3338
 1712TIP3   OH2 5141   2.741   2.429   0.079 -0.2598 -0.1372 -0.3824
 1712TIP3    H1 5142   2.702   2.488   0.143 -0.2747 -1.1450  0.5670
 1712TIP3    H2 5143   2.694   2.448  -0.003 -1.2342  0.1788  0.2328
 1713TIP3   OH2 5144   0.393   2.013   4.680  0.2342 -0.0355 -0.5287
 1713TIP3    H1 5145   0.478   2.056   4.685 -0.0095  0.4619 -0.6803
 1713TIP3    H2 5146   0.366   2.003   4.771 -0.3071  1.3134 -0.5355
 1714TIP3   OH2 5147   1.826   5.074   2.711 -0.0382  0.1715 -0.4084
 1714TIP3    H1 5148   1.787   5.113   2.790 -1.1129  1.5496 -1.5556
 1714TIP3    H2 5149   1.750   5.051   2.657  0.6581 -1.6681 -0.6382
 1715TIP3   OH2 5150   1.199   0.668   2.558 -0.2182  0.4619 -0.4801
 1715TIP3    H1 5151   1.201   0.575   2.537  1.5773 -0.0003  1.3531
 1715TIP3    H2 5152   1.150   0.673   2.640  2.4830  0.5439  1.2917
 1716TIP3   OH2 5153   1.055   1.455   0.348  0.4840  0.3408  0.6393
 1716TIP3    H1 5154   1.114   1.529   0.333  0.5326  0.0485 -0.7393
 1716TIP3    H2 5155   1.045   1.415   0.262 -0.1888 -0.7778  1.2223
 1717TIP3   OH2 5156   4.887   5.299   2.096 -0.6411  0.7267  0.0237
 1717TIP3    H1 5157   4.866   5.313   2.189  1.1549 -2.0075  0.9780
 1717TIP3    H2 5158   4.971   5.344   2.084 -1.0280  1.3479 -0.3896
 1718TIP3   OH2 5159   5.618   0.632   4.530 -0.1925  0.3257  0.0208
 1718TIP3    H1 5160   5.679   0.578   4.481  0.8082  1.4100  0.0244
 1718TIP3    H2 5161   5.532   0.614   4.491  0.0679 -1.4230  0.2035
 1719TIP3   OH2 5162   6.067   3.385   2.249 -0.2034 -0.4731 -0.2643
 1719TIP3    H1 5163   6.041   3.415   2.162  1.8490  1.7050 -0.2195
 1719TIP3    H2 5164   6.000   3.421   2.308 -0.5368 -0.2864 -0.7548
 1720TIP3   OH2 5165   3.731   2.329   3.997 -0.2914  0.5607 -0.2305
 1720TIP3    H1 5166   3.649   2.288   4.024  0.8990 -1.4104  0.5726
 1720TIP3    H2 5167   3.781   2.339   4.078  1.9460 -2.2583 -1.0833
 1721TIP3   OH2 5168   3.177   3.211   1.241 -0.0854  0.1351  0.1223
 1721TIP3    H1 5169   3.119   3.248   1.307  0.4861 -0.0867  0.7518
 1721TIP3    H2 5170   3.265   3.237   1.268  0.2873 -1.2278  0.2877
 1722TIP3   OH2 5171   5.970   4.341   1.512  0.5446  0.3018 -0.1885
 1722TIP3    H1 5172   5.930   4.427   1.504  1.1495  0.8431  2.0421
 1722TIP3    H2 5173   5.907   4.281   1.472 -2.6329  1.0972  3.0732
 1723TIP3   OH2 5174   4.402   5.739   0.725  0.1465 -0.0176  0.1657
 1723TIP3    H1 5175   4.389   5.736   0.820  0.1366 -1.2360  0.1416
 1723TIP3    H2 5176   4.364   5.823   0.699 -0.2455  0.1407  1.1780
 1724TIP3   OH2 5177   4.843   4.812   0.259  0.3995 -0.6374  0.3060
 1724TIP3    H1 5178   4.811   4.823   0.169 -0.0559 -3.2741  0.0774
 1724TIP3    H2 5179   4.937   4.798   0.249  0.7159  1.1788  0.4661
 1725TIP3   OH2 5180   5.542   1.632   0.795  0.3785 -0.2027  0.0745
 1725TIP3    H1 5181   5.577   1.661   0.879  1.0802  2.7619 -1.1092
 1725TIP3    H2 5182   5.485   1.558   0.817 -0.2554  1.0743  3.2708
 1726TIP3   OH2 5183   4.008   2.010   1.541 -0.1934 -0.3768 -0.3288
 1726TIP3    H1 5184   4.030   2.003   1.448 -1.2507 -2.0380 -0.4990
 1726TIP3    H2 5185   3.921   2.049   1.543  1.0445  2.6105  0.1708
 1727TIP3   OH2 5186   0.157   3.929   4.235  0.4907 -0.5438  0.1700
 1727TIP3    H1 5187   0.088   3.890   4.289  0.1129 -0.7964 -0.4796
 1727TIP3    H2 5188   0.192   3.856   4.184  0.7307 -0.2803 -0.0473
 1728TIP3   OH2 5189   4.081   0.871   2.950 -0.9101 -0.8841 -0.4932
 1728TIP3    H1 5190   4.068   0.889   2.857  1.4446 -2.0613 -1.1289
 1728TIP3    H2 5191   4.011   0.810   2.973 -3.9949  2.4237 -0.3542
 1729TIP3   OH2 5192   0.998   0.950   0.277  0.5122 -0.2791  0.5133
 1729TIP3    H1 5193   0.983   0.977   0.187 -0.5027  0.0849  0.7780
 1729TIP3    H2 5194   1.041   1.025   0.318 -0.1674  0.0409  0.6484
 1730TIP3   OH2 5195   5.786   1.504   0.764  0.4356  0.1665  0.3178
 1730TIP3    H1 5196   5.700   1.532   0.796 -0.3516 -1.3628 -0.3844
 1730TIP3    H2 5197   5.810   1.432   0.822 -0.1969 -1.4622 -1.3820
 1731TIP3   OH2 5198   0.415   2.931   1.810 -0.1256  0.0820  0.0707
 1731TIP3    H1 5199   0.326   2.908   1.784 -0.2916 -0.1592  0.8275
 1731TIP3    H2 5200   0.441   2.862   1.871  0.0020  0.9637  1.0493
 1732TIP3   OH2 5201   1.969   0.748   2.967  0.2897 -0.2779 -0.1270
 1732TIP3    H1 5202   2.027   0.673   2.981  0.8707  0.1569 -0.1514
 1732TIP3    H2 5203   2.001   0.788   2.886 -0.4733 -0.4193 -0.5014
 1733TIP3   OH2 5204   1.530   4.850   0.537  0.0616 -0.0849 -0.3665
 1733TIP3    H1 5205   1.585   4.876   0.610  1.7810 -1.0548 -1.2516
 1733TIP3    H2 5206   1.500   4.932   0.498  1.0106  0.4702  0.0548
 1734TIP3   OH2 5207   0.569   0.045   4.312  0.6306  0.3949 -0.1328
 1734TIP3    H1 5208   0.555   0.099   4.389 -0.3389  1.1799 -0.8149
 1734TIP3    H2 5209   0.508  -0.028   4.323 -0.6953  1.3298 -0.8521
 1735TIP3   OH2 5210   4.676   4.778   0.795  0.1627 -0.0378  0.2302
 1735TIP3    H1 5211   4.592   4.735   0.812 -1.3532  2.6293  0.0312
 1735TIP3    H2 5212   4.703   4.811   0.881  0.9628 -0.7702  0.2678
 1736TIP3   OH2 5213   3.641   1.797   1.217  0.0386 -0.0037  0.1911
 1736TIP3    H1 5214   3.726   1.767   1.184  0.2125  0.3504  0.3123
 1736TIP3    H2 5215   3.608   1.855   1.148 -0.5464 -0.9017 -0.2905
 1737TIP3   OH2 5216   3.312   1.152   0.553  0.5761  0.7906  0.0427
 1737TIP3    H1 5217   3.329   1.140   0.647  2.5072  1.0942 -0.2143
 1737TIP3    H2 5218   3.399   1.163   0.515 -0.1066 -0.2943 -1.9485
 1738TIP3   OH2 5219   4.090   4.676   0.962  0.2054 -0.2252 -0.1991
 1738TIP3    H1 5220   4.104   4.689   1.056 -0.1203 -1.0268 -0.0309
 1738TIP3    H2 5221   4.046   4.756   0.932 -0.7733 -0.4596  0.5738
 1739TIP3   OH2 5222   5.811   0.672   3.925 -0.0171 -0.1015 -0.4480
 1739TIP3    H1 5223   5.892   0.674   3.976  1.3596  0.7488 -2.5572
 1739TIP3    H2 5224   5.789   0.579   3.920 -0.4033 -0.2022  1.9071
 1740TIP3   OH2 5225   2.859   1.711   2.663 -0.1249  0.2704 -0.1171
 1740TIP3    H1 5226   2.796   1.668   2.605  1.0697 -0.1963 -1.0916
 1740TIP3    H2 5227   2.852   1.804   2.642  0.6943  0.0546 -1.4334
 1741TIP3   OH2 5228   5.481   2.596   3.338 -0.1153 -0.1319 -0.9212
 1741TIP3    H1 5229   5.459   2.561   3.252 -1.3820  2.0589 -1.5615
 1741TIP3    H2 5230   5.558   2.545   3.365  0.2387 -0.9795 -3.2645
 1742TIP3   OH2 5231   6.306   5.515   0.944  0.5472  0.5627  0.7203
 1742TIP3    H1 5232   6.302   5.590   1.002 -1.1017  0.6751  0.5073
 1742TIP3    H2 5233   6.215   5.491   0.929  1.0245 -1.2591  0.4895
 1743TIP3   OH2 5234   5.707   4.565   3.418 -0.2732  0.3097 -0.3698
 1743TIP3    H1 5235   5.625   4.526   3.388 -0.5961  0.5665  0.1657
 1743TIP3    H2 5236   5.712   4.649   3.373 -0.9749  0.8899  0.6001
 1744TIP3   OH2 5237   2.370   0.996   5.117 -0.3558  0.0935  0.4523
 1744TIP3    H1 5238   2.319   0.917   5.099 -1.7599  1.2894 -1.2082
 1744TIP3    H2 5239   2.320   1.041   5.186 -2.5322  1.9440 -2.1159
 1745TIP3   OH2 5240   3.418   3.601   1.836 -0.0568 -0.0027 -0.6624
 1745TIP3    H1 5241   3.355   3.586   1.765  1.9067 -1.4952 -2.2151
 1745TIP3    H2 5242   3.379   3.558   1.912 -1.8391  0.9063 -1.0125
 1746TIP3   OH2 5243   1.851   5.252   1.111 -0.6094  0.0873 -0.2106
 1746TIP3    H1 5244   1.924   5.295   1.068  0.4939 -1.7100 -0.2369
 1746TIP3    H2 5245   1.870   5.159   1.102 -2.6085 -0.4090  0.3212
 1747TIP3   OH2 5246   5.861   0.691   4.286  0.4086 -0.2423  0.1538
 1747TIP3    H1 5247   5.785   0.632   4.286  0.9471 -0.9908  1.7362
 1747TIP3    H2 5248   5.925   0.647   4.342  0.5277  2.1888  2.1006
 1748TIP3   OH2 5249   4.305   2.317   0.112  0.4565  0.0889 -0.1027
 1748TIP3    H1 5250   4.235   2.375   0.143  0.0265  0.0072 -0.8886
 1748TIP3    H2 5251   4.385   2.353   0.150  0.0281  0.3587  0.5690
 1749TIP3   OH2 5252   4.596   0.615   4.852  0.2514  0.1685 -0.5191
 1749TIP3    H1 5253   4.567   0.706   4.854 -0.4249 -0.0466  0.9078
 1749TIP3    H2 5254   4.524   0.565   4.891  0.6080 -0.9913 -1.2705
 1750TIP3   OH2 5255   1.093   5.035   2.579  0.3761 -0.5906  0.2607
 1750TIP3    H1 5256   1.095   5.127   2.603 -1.0963 -0.8108  1.3445
 1750TIP3    H2 5257   1.183   5.005   2.590  1.0350  0.8660 -0.8217
 1751TIP3   OH2 5258   0.523   1.913   0.880 -0.5626 -0.1304  0.0198
 1751TIP3    H1 5259   0.559   1.971   0.813  0.0323  0.6722  1.0100
 1751TIP3    H2 5260   0.431   1.902   0.856 -0.0673 -0.9455 -1.6652
 1752TIP3   OH2 5261   0.558   4.054   3.787 -0.1478  0.2360  0.2294
 1752TIP3    H1 5262   0.644   4.070   3.827 -0.9715  0.6991  1.9421
 1752TIP3    H2 5263   0.514   4.139   3.792 -1.6301 -0.5576  1.8495
 1753TIP3   OH2 5264   2.726   3.461   0.772 -0.3941  0.3372 -0.4617
 1753TIP3    H1 5265   2.809   3.484   0.814 -0.3751 -1.1916  0.3683
 1753TIP3    H2 5266   2.659   3.502   0.826 -0.2462  0.7649 -0.5921
 1754TIP3   OH2 5267   2.118   0.836   0.354  0.0507 -0.4238  0.2587
 1754TIP3    H1 5268   2.193   0.832   0.295 -0.3920  0.4037 -0.3683
 1754TIP3    H2 5269   2.106   0.745   0.382  0.5675 -0.7566 -0.5449
 1755TIP3   OH2 5270   6.035   5.928   1.912 -0.2617  0.4210 -0.1184
 1755TIP3    H1 5271   6.090   5.879   1.851 -0.1361 -0.9068  1.0004
 1755TIP3    H2 5272   6.065   6.019   1.905  1.5990 -0.1569 -0.0674
 1756TIP3   OH2 5273   5.147   2.858   2.651  0.2985 -0.4131 -0.4959
 1756TIP3    H1 5274   5.169   2.904   2.732 -2.1140  0.7444 -0.3915
 1756TIP3    H2 5275   5.157   2.765   2.672  4.0503 -0.1191 -0.3151
 1757TIP3   OH2 5276   1.879   4.210   4.020  0.0587 -0.3316  0.2580
 1757TIP3    H1 5277   1.819   4.156   4.073 -0.2557  0.1635  0.4160
 1757TIP3    H2 5278   1.960   4.160   4.019  0.3432  0.0213  1.9231
 1758TIP3   OH2 5279   3.681   3.087   4.274 -0.1543 -0.3174  0.1401
 1758TIP3    H1 5280   3.713   3.084   4.364  0.1090  0.9384  0.1166
 1758TIP3    H2 5281   3.725   3.163   4.236 -1.9552  0.5390 -0.3637
 1759TIP3   OH2 5282   4.963   3.071   2.987  0.4126  0.0957  0.1986
 1759TIP3    H1 5283   4.986   3.128   2.914 -0.3773 -0.7278 -0.7308
 1759TIP3    H2 5284   4.990   3.119   3.066  0.0219  1.6149 -0.5648
 1760TIP3   OH2 5285   4.173   1.772   2.921 -0.0309 -0.0263 -0.4091
 1760TIP3    H1 5286   4.217   1.843   2.874 -1.2349  1.1030  0.0927
 1760TIP3    H2 5287   4.128   1.722   2.853 -1.5775  1.4583 -0.5609
 1761TIP3   OH2 5288   3.775   5.286   4.542 -0.4631 -0.0082 -0.0135
 1761TIP3    H1 5289   3.734   5.281   4.628  0.1539 -1.7770  0.2377
 1761TIP3    H2 5290   3.850   5.344   4.554 -1.4821  1.3209  0.1192
 1762TIP3   OH2 5291   0.359   4.571   3.221 -0.5430 -0.1983  0.2412
 1762TIP3    H1 5292   0.294   4.641   3.214  0.4734  0.7660  0.1366
 1762TIP3    H2 5293   0.392   4.578   3.311  1.1685  0.9467 -0.4485
 1763TIP3   OH2 5294   6.330   2.911   4.448 -0.3619 -0.1538  0.6453
 1763TIP3    H1 5295   6.360   2.999   4.473  1.0057 -0.4294  0.0910
 1763TIP3    H2 5296   6.263   2.927   4.381  1.0114  0.4942 -0.6456
 1764TIP3   OH2 5297   3.419   3.674   3.061 -0.6487 -0.0365 -0.6448
 1764TIP3    H1 5298   3.510   3.688   3.036 -0.5040 -1.3745 -0.9338
 1764TIP3    H2 5299   3.423   3.628   3.144 -0.9705 -2.4249 -1.8766
 1765TIP3   OH2 5300   3.494   5.873   2.951 -0.4552  0.1393 -0.4222
 1765TIP3    H1 5301   3.563   5.814   2.982  1.7562  2.2759 -1.0460
 1765TIP3    H2 5302   3.445   5.896   3.030  0.2551 -0.5154  0.2242
 1766TIP3   OH2 5303   2.292   0.219   3.897  0.5784  0.2093  1.4783
 1766TIP3    H1 5304   2.335   0.211   3.982 -1.0635 -0.0944  2.3183
 1766TIP3    H2 5305   2.199   0.202   3.915 -0.2899  2.9867  0.1187
 1767TIP3   OH2 5306   0.852   0.176   0.471 -0.0859  0.3410 -0.2829
 1767TIP3    H1 5307   0.833   0.262   0.508  1.5034  0.3984  0.4597
 1767TIP3    H2 5308   0.867   0.120   0.547 -0.8511 -0.5576 -0.7648
 1768TIP3   OH2 5309   5.383   3.921   4.202  0.0063  0.2182  0.3917
 1768TIP3    H1 5310   5.458   3.872   4.170  0.1614 -0.3736  1.5802
 1768TIP3    H2 5311   5.421   3.985   4.263 -0.2786  1.2683 -0.5016
 1769TIP3   OH2 5312   6.090   4.194   1.883 -0.3626 -0.2572  0.1472
 1769TIP3    H1 5313   6.151   4.152   1.822  1.6664  0.2875  1.6753
 1769TIP3    H2 5314   6.075   4.280   1.845  1.6441  0.4394  0.7708
 1770TIP3   OH2 5315   2.041   5.969   4.032  0.0435  0.1645 -0.7343
 1770TIP3    H1 5316   2.108   5.903   4.049  1.0975  1.0301 -1.3859
 1770TIP3    H2 5317   2.045   6.027   4.107 -0.4104 -0.1165 -0.4868
 1771TIP3   OH2 5318   5.627   1.517   1.052 -0.1491 -0.2260  0.1194
 1771TIP3    H1 5319   5.551   1.460   1.063 -0.3306  0.1755  1.0266
 1771TIP3    H2 5320   5.702   1.459   1.064 -0.3193 -0.4405  0.1656
 1772TIP3   OH2 5321   5.405   3.753   1.832  0.4080  0.0986 -0.0448
 1772TIP3    H1 5322   5.374   3.674   1.787 -0.4730  2.0952 -3.2559
 1772TIP3    H2 5323   5.488   3.774   1.790  0.3512  1.2107  0.3713
 1773TIP3   OH2 5324   5.544   3.164   3.233  0.3911 -0.1849 -0.0154
 1773TIP3    H1 5325   5.573   3.073   3.243 -2.2538 -0.9156  2.5017
 1773TIP3    H2 5326   5.493   3.182   3.313 -3.5747  1.7595 -2.6399
 1774TIP3   OH2 5327   4.200   4.612   0.364  0.0413  0.9381 -0.0547
 1774TIP3    H1 5328   4.113   4.639   0.392 -0.2337  0.6173 -0.5797
 1774TIP3    H2 5329   4.251   4.693   0.363 -0.3421  1.1813 -0.0806
 1775TIP3   OH2 5330   0.105   5.502   4.147  0.3831 -0.1678 -0.3655
 1775TIP3    H1 5331   0.031   5.537   4.196  0.9472  3.2875 -1.6891
 1775TIP3    H2 5332   0.091   5.408   4.146 -2.9554  0.1811  1.0188
 1776TIP3   OH2 5333   3.777   1.583   0.320  0.1525  0.0432 -0.6265
 1776TIP3    H1 5334   3.868   1.593   0.349  0.2800 -0.0427 -0.9807
 1776TIP3    H2 5335   3.773   1.493   0.287 -0.7071 -0.7893  1.6095
 1777TIP3   OH2 5336   1.748   1.304   0.167  0.3802 -0.7563  0.4799
 1777TIP3    H1 5337   1.689   1.362   0.215 -0.5400  1.7545 -3.2683
 1777TIP3    H2 5338   1.689   1.240   0.126  0.5518 -0.0894 -0.8557
 1778TIP3   OH2 5339   1.001   4.776   1.286 -0.5322  0.3093 -0.0633
 1778TIP3    H1 5340   0.923   4.750   1.238  0.3007 -0.8533 -0.8340
 1778TIP3    H2 5341   1.073   4.735   1.239  0.3016 -1.3242  2.4284
 1779TIP3   OH2 5342   6.192   2.346   2.284 -0.3713  0.5676 -0.3323
 1779TIP3    H1 5343   6.210   2.371   2.193  0.5142  0.6191 -0.1484
 1779TIP3    H2 5344   6.275   2.311   2.316  0.1198  2.9073  1.2500
 1780TIP3   OH2 5345   0.818   3.386   4.159 -0.6932  0.0695  0.4352
 1780TIP3    H1 5346   0.768   3.458   4.197  0.6911  3.7099 -3.7691
 1780TIP3    H2 5347   0.909   3.414   4.165 -0.0844 -1.3420 -1.3537
 1781TIP3   OH2 5348   2.267   3.278   1.795  0.2823  0.1193  0.0682
 1781TIP3    H1 5349   2.277   3.349   1.858  1.7518  0.0093 -0.0016
 1781TIP3    H2 5350   2.241   3.321   1.714 -3.0420  0.1420  1.0003
 1782TIP3   OH2 5351   0.230   5.340   3.815 -0.1937 -0.1340 -0.4170
 1782TIP3    H1 5352   0.306   5.287   3.836 -0.0364  0.0535 -0.5103
 1782TIP3    H2 5353   0.238   5.358   3.721  0.6219  1.4055 -0.0902
 1783TIP3   OH2 5354   4.383   2.674   3.440  0.6948 -0.1498 -0.1923
 1783TIP3    H1 5355   4.385   2.766   3.416  1.1499 -0.2031 -0.3710
 1783TIP3    H2 5356   4.293   2.646   3.421  0.1549  0.5946  1.1873
 1784TIP3   OH2 5357   2.451   0.664   3.079  0.1305  0.1461 -0.0878
 1784TIP3    H1 5358   2.538   0.705   3.076  0.0983  0.1620 -2.1054
 1784TIP3    H2 5359   2.465   0.576   3.041 -0.8620  0.4745 -1.3019
 1785TIP3   OH2 5360   3.093   5.057   3.188  0.0217 -0.1827  0.9296
 1785TIP3    H1 5361   3.016   5.056   3.245 -1.1343 -2.4140 -0.5502
 1785TIP3    H2 5362   3.162   5.096   3.242 -1.8313  0.9016  2.6669
 1786TIP3   OH2 5363   0.627   4.128   2.198 -0.0200 -0.0916 -0.0955
 1786TIP3    H1 5364   0.592   4.137   2.109  0.6897  0.6408 -0.3104
 1786TIP3    H2 5365   0.670   4.042   2.198 -0.6792 -0.4273 -0.2238
 1787TIP3   OH2 5366   4.304   2.607   4.879  0.2431  0.1471  0.0362
 1787TIP3    H1 5367   4.230   2.626   4.937 -0.4422 -0.8565 -0.4733
 1787TIP3    H2 5368   4.358   2.686   4.883  0.1423  0.1617  1.8861
 1788TIP3   OH2 5369   3.585   4.376   3.199  0.0154 -0.2123 -0.1143
 1788TIP3    H1 5370   3.587   4.288   3.161  0.2206 -0.5892  0.7273
 1788TIP3    H2 5371   3.494   4.404   3.190  0.2587  0.1381 -1.7822
 1789TIP3   OH2 5372   3.670   5.946   2.492 -0.1986  0.4040 -0.4077
 1789TIP3    H1 5373   3.649   5.950   2.399 -0.8979 -0.5291 -0.3064
 1789TIP3    H2 5374   3.591   5.909   2.532 -0.1934  1.4722  0.6555
 1790TIP3   OH2 5375   2.145   0.121   4.992  0.0725  0.0853 -0.2665
 1790TIP3    H1 5376   2.210   0.100   5.060  1.0492 -0.9073 -1.4570
 1790TIP3    H2 5377   2.124   0.036   4.953  0.3334  0.7526 -1.9032
 1791TIP3   OH2 5378   5.961   0.041   4.379 -0.1114  0.3418  0.2616
 1791TIP3    H1 5379   5.890   0.042   4.315  0.0313  3.1091  0.0574
 1791TIP3    H2 5380   6.016   0.115   4.356  2.8480 -1.5916  0.4937
 1792TIP3   OH2 5381   4.475   1.455   0.495 -0.5614 -0.1567 -0.1670
 1792TIP3    H1 5382   4.505   1.369   0.465 -0.4253  0.2832 -1.3829
 1792TIP3    H2 5383   4.401   1.475   0.437 -0.6642  0.4908  0.1803
 1793TIP3   OH2 5384   2.715   2.357   3.283 -0.4725 -0.3046  0.0664
 1793TIP3    H1 5385   2.640   2.416   3.290 -0.8219 -0.4753 -1.6757
 1793TIP3    H2 5386   2.791   2.414   3.289 -0.7718  0.0396  0.5918
 1794TIP3   OH2 5387   6.093   0.685   2.998 -0.5192 -0.4892 -0.1866
 1794TIP3    H1 5388   6.030   0.645   2.939 -0.8334  2.1094 -1.7464
 1794TIP3    H2 5389   6.125   0.762   2.951  2.4069 -0.6362  1.3395
 1795TIP3   OH2 5390   4.374   3.684   1.148 -0.2059  0.0299  0.0686
 1795TIP3    H1 5391   4.431   3.670   1.072 -0.7848 -0.4172 -0.2853
 1795TIP3    H2 5392   4.421   3.749   1.201  0.0231  0.6350 -0.8587
 1796TIP3   OH2 5393   1.521   4.031   1.975  0.2482  0.3145 -0.5346
 1796TIP3    H1 5394   1.464   4.061   1.904 -1.5672  1.5443  1.3183
 1796TIP3    H2 5395   1.606   4.018   1.934 -1.3270 -1.7258 -3.4824
 1797TIP3   OH2 5396   2.728   5.083   1.000  0.1517 -0.6797 -0.0868
 1797TIP3    H1 5397   2.706   5.173   1.027  0.7889 -0.5058 -0.1515
 1797TIP3    H2 5398   2.660   5.029   1.042  0.3537 -0.2726  0.7826
 1798TIP3   OH2 5399   1.330   2.109   4.803  0.0496  0.5234 -0.8836
 1798TIP3    H1 5400   1.356   2.070   4.886 -2.9169  2.3111  1.0924
 1798TIP3    H2 5401   1.275   2.044   4.762  0.0085  0.3372 -0.5381
 1799TIP3   OH2 5402   3.944   3.383   1.669 -0.8060  0.2849 -0.4743
 1799TIP3    H1 5403   4.009   3.367   1.601  0.2808 -0.7971  0.7562
 1799TIP3    H2 5404   3.894   3.458   1.637  1.1623  1.2844 -1.3831
 1800TIP3   OH2 5405   3.253   0.645   2.555  0.5921  0.3865  0.4313
 1800TIP3    H1 5406   3.346   0.649   2.577  0.8564 -0.1877 -0.5118
 1800TIP3    H2 5407   3.217   0.727   2.586  1.0718 -0.0635  2.2980
 1801TIP3   OH2 5408   1.564   2.960   0.699 -0.2085  0.2952  0.1755
 1801TIP3    H1 5409   1.645   2.940   0.652 -0.0359 -1.3944  1.1160
 1801TIP3    H2 5410   1.581   3.044   0.742  0.4649  0.7241 -0.8802
 1802TIP3   OH2 5411   5.705   0.018   2.239 -0.4818 -0.7863  0.2457
 1802TIP3    H1 5412   5.796  -0.014   2.237 -0.3788 -0.6861  2.0357
 1802TIP3    H2 5413   5.708   0.102   2.195  0.1899 -1.0379 -0.2058
 1803TIP3   OH2 5414   4.650   1.913   0.268 -0.4274  0.0480 -0.1946
 1803TIP3    H1 5415   4.579   1.850   0.255  0.0358 -0.7713  0.9997
 1803TIP3    H2 5416   4.725   1.874   0.223 -0.5329  0.5440 -0.8138
 1804TIP3   OH2 5417   2.767   5.466   3.751  0.3782 -0.2495  0.3212
 1804TIP3    H1 5418   2.716   5.444   3.673  0.1624  0.8033  0.1438
 1804TIP3    H2 5419   2.708   5.448   3.824 -0.1772  0.7068  0.1290
 1805TIP3   OH2 5420   1.743   3.396   2.297  0.6059  0.4190 -0.3305
 1805TIP3    H1 5421   1.680   3.326   2.310  0.8891  0.2446  0.1381
 1805TIP3    H2 5422   1.697   3.475   2.329  1.1753  0.0453  1.5647
 1806TIP3   OH2 5423   6.171   0.018   0.679  0.0757 -0.0975 -0.1475
 1806TIP3    H1 5424   6.257   0.043   0.713 -0.0414 -1.3719  1.1527
 1806TIP3    H2 5425   6.190  -0.034   0.601  0.3663  2.0252 -1.5896
 1807TIP3   OH2 5426   5.345   0.650   0.383 -0.4284 -0.2669  0.1560
 1807TIP3    H1 5427   5.342   0.577   0.444 -1.4604 -0.6796 -0.3647
 1807TIP3    H2 5428   5.437   0.676   0.381 -0.0190 -1.6335  0.2482
 1808TIP3   OH2 5429   4.025   3.331   0.863  0.5574 -0.1192  0.5687
 1808TIP3    H1 5430   4.110   3.295   0.889  0.5656  0.0593  0.8016
 1808TIP3    H2 5431   4.025   3.420   0.901  0.2654 -0.1224  0.5769
 1809TIP3   OH2 5432   0.759   0.474   4.469 -0.2647 -0.4962  0.3023
 1809TIP3    H1 5433   0.821   0.546   4.457 -0.8081 -0.2194 -1.0231
 1809TIP3    H2 5434   0.812   0.395   4.460 -0.2410 -0.2747 -1.8590
 1810TIP3   OH2 5435   4.765   0.677   2.850 -0.5651  0.3520  0.3316
 1810TIP3    H1 5436   4.816   0.739   2.798 -1.0937 -1.0618 -2.0178
 1810TIP3    H2 5437   4.707   0.634   2.787 -1.9194 -0.8356  2.2652
 1811TIP3   OH2 5438   0.217   4.075   3.455  0.5569  0.5068  0.2286
 1811TIP3    H1 5439   0.208   4.165   3.487  1.8476  1.6899 -2.4502
 1811TIP3    H2 5440   0.311   4.057   3.461  0.3831 -0.4697  0.1982
 1812TIP3   OH2 5441   2.235   1.247   2.424  0.0250 -0.2780 -0.4111
 1812TIP3    H1 5442   2.297   1.188   2.381 -0.5402 -0.6143 -0.7780
 1812TIP3    H2 5443   2.273   1.334   2.413  0.3738 -0.4665 -0.7301
 1813TIP3   OH2 5444   0.892   5.875   0.678 -0.1348  0.2187  0.5255
 1813TIP3    H1 5445   0.816   5.920   0.716 -0.0055 -0.9133  2.2072
 1813TIP3    H2 5446   0.922   5.815   0.746  0.0514 -2.0390 -1.4134
 1814TIP3   OH2 5447   3.525   1.011   4.185 -0.1874 -0.2804  0.6413
 1814TIP3    H1 5448   3.569   0.955   4.249 -0.6751 -1.4198  0.0086
 1814TIP3    H2 5449   3.433   1.007   4.209 -0.4837 -1.3666 -0.5820
 1815TIP3   OH2 5450   3.435   0.750   1.255  0.4675 -0.1655 -0.9020
 1815TIP3    H1 5451   3.386   0.677   1.293 -1.2219  1.3289 -0.0385
 1815TIP3    H2 5452   3.520   0.748   1.299 -0.1202 -0.6828  0.2420
 1816TIP3   OH2 5453   4.196   5.530   3.062  0.2684 -0.4616 -0.3125
 1816TIP3    H1 5454   4.129   5.523   2.995  1.0357  1.3510 -1.3111
 1816TIP3    H2 5455   4.214   5.439   3.087  0.0441 -1.2182 -2.6485
 1817TIP3   OH2 5456   2.639   2.238   1.502  0.5113  0.0753 -0.1233
 1817TIP3    H1 5457   2.674   2.158   1.463 -1.2672 -0.2734 -1.1529
 1817TIP3    H2 5458   2.682   2.309   1.455  2.0728 -0.2576  0.7689
 1818TIP3   OH2 5459   2.502   0.144   4.968 -0.5084  0.5779 -0.2791
 1818TIP3    H1 5460   2.582   0.162   5.017 -1.1346 -0.0420  1.0410
 1818TIP3    H2 5461   2.491   0.049   4.974 -1.3565  0.6619 -0.4121
 1819TIP3   OH2 5462   4.773   1.991   1.087 -0.3640 -0.3938  0.4967
 1819TIP3    H1 5463   4.740   1.934   1.156  1.1293  0.7463  2.2612
 1819TIP3    H2 5464   4.866   2.002   1.108 -0.0668  0.6968 -1.2135
 1820TIP3   OH2 5465   1.206   5.212   3.024 -0.7597 -0.1090  0.0769
 1820TIP3    H1 5466   1.174   5.240   3.110 -0.6486 -1.2258  0.4971
 1820TIP3    H2 5467   1.278   5.152   3.043 -0.8272 -0.4843 -0.7888
 1821TIP3   OH2 5468   3.397   5.852   4.328  0.0264 -0.0207  0.7087
 1821TIP3    H1 5469   3.378   5.938   4.366  0.2112  1.0594 -1.4369
 1821TIP3    H2 5470   3.311   5.818   4.303 -0.0974 -0.7395  2.0527
 1822TIP3   OH2 5471   1.743   0.239   4.148 -0.0948 -0.2087 -0.2290
 1822TIP3    H1 5472   1.660   0.285   4.155  1.1294  2.0617  0.3406
 1822TIP3    H2 5473   1.784   0.274   4.070  0.8151 -0.4606  0.1231
 1823TIP3   OH2 5474   3.711   4.054   4.778  0.4256  0.2035 -0.5791
 1823TIP3    H1 5475   3.737   4.145   4.764 -0.2993  0.2692 -1.6209
 1823TIP3    H2 5476   3.793   4.008   4.796  0.8726  0.9463 -0.6827
 1824TIP3   OH2 5477   2.581   5.078   0.141 -0.2894  0.2944  0.3534
 1824TIP3    H1 5478   2.630   5.100   0.220  2.4901 -0.4477 -1.0324
 1824TIP3    H2 5479   2.599   5.150   0.081  0.3642 -0.7143 -0.6939
 1825TIP3   OH2 5480   6.155   0.127   2.769 -0.0209 -0.2491  0.3419
 1825TIP3    H1 5481   6.165   0.151   2.861 -0.0135  0.8964  0.0540
 1825TIP3    H2 5482   6.180   0.035   2.766 -0.1406 -0.3393  1.5040
 1826TIP3   OH2 5483   4.981   1.274   1.493  0.3681  0.1613 -0.6264
 1826TIP3    H1 5484   5.012   1.336   1.559  1.5872 -0.3788 -0.6719
 1826TIP3    H2 5485   5.030   1.194   1.510  0.5590 -0.0523 -2.0708
 1827TIP3   OH2 5486   6.195   4.237   0.711  0.2877  0.3450  0.7348
 1827TIP3    H1 5487   6.149   4.185   0.645  1.5307 -0.3434  0.3846
 1827TIP3    H2 5488   6.131   4.248   0.781 -0.5921 -0.1055  0.0210
 1828TIP3   OH2 5489   5.728   1.419   1.501  0.3878  0.0689  0.3456
 1828TIP3    H1 5490   5.668   1.346   1.516  0.7442 -0.0766  1.0831
 1828TIP3    H2 5491   5.795   1.410   1.569  1.2112  0.2699 -0.4199
 1829TIP3   OH2 5492   0.947   4.003   4.451 -0.0486  0.1064 -0.4634
 1829TIP3    H1 5493   0.858   4.029   4.429  0.7302  1.4814 -2.1940
 1829TIP3    H2 5494   0.998   4.084   4.443  1.3328 -0.6080  0.6992
 1830TIP3   OH2 5495   4.775   4.298   2.412  0.5631  0.9430 -0.1038
 1830TIP3    H1 5496   4.772   4.237   2.338  1.0488  1.1140 -0.2684
 1830TIP3    H2 5497   4.865   4.331   2.413  0.0041  2.6343 -0.8197
 1831TIP3   OH2 5498   2.967   1.238   2.498 -0.2792  0.0075  0.4818
 1831TIP3    H1 5499   2.923   1.321   2.481 -1.1263 -0.2299  1.3704
 1831TIP3    H2 5500   2.933   1.211   2.584  1.7812 -0.0937  1.3050
 1832TIP3   OH2 5501   5.422   4.526   4.227 -0.0031  0.2765  0.3842
 1832TIP3    H1 5502   5.502   4.491   4.266 -0.6169 -0.8321  0.6951
 1832TIP3    H2 5503   5.407   4.608   4.274  0.9413  0.5104  0.3134
 1833TIP3   OH2 5504   2.441   3.857   2.243  0.3653  0.1626 -0.8248
 1833TIP3    H1 5505   2.451   3.918   2.316 -0.3644  1.3906 -1.7145
 1833TIP3    H2 5506   2.499   3.784   2.265  2.0197  1.5918 -0.1877
 1834TIP3   OH2 5507   5.077   3.175   0.030  0.0205  0.1950  0.6328
 1834TIP3    H1 5508   5.151   3.230   0.004  0.3393 -1.4263 -2.2491
 1834TIP3    H2 5509   5.027   3.230   0.092  0.9424  3.2655 -1.1240
 1835TIP3   OH2 5510   1.213   1.094   0.924  0.3605  0.0379  0.0341
 1835TIP3    H1 5511   1.168   1.021   0.883 -0.9637  0.4180  0.7550
 1835TIP3    H2 5512   1.219   1.160   0.854  0.4186 -0.2728 -0.2592
 1836TIP3   OH2 5513   4.123   0.877   1.095 -0.5208  0.2238  0.5356
 1836TIP3    H1 5514   4.218   0.876   1.108 -0.3649 -1.9189 -0.2048
 1836TIP3    H2 5515   4.108   0.807   1.030 -2.5983  0.5481  0.6096
 1837TIP3   OH2 5516   2.182   2.789   3.057 -0.0420  0.4821 -0.4089
 1837TIP3    H1 5517   2.112   2.798   2.992 -1.5367  1.8627  1.2998
 1837TIP3    H2 5518   2.251   2.848   3.027 -0.4090  0.5700 -1.0929
 1838TIP3   OH2 5519   5.588   3.543   5.129  0.0368 -0.1767 -0.5070
 1838TIP3    H1 5520   5.566   3.601   5.055  1.2241  1.4259  0.3499
 1838TIP3    H2 5521   5.672   3.505   5.105 -0.4721 -1.1654 -0.8037
 1839TIP3   OH2 5522   4.911   4.287   0.907 -0.4603 -0.4741 -0.7234
 1839TIP3    H1 5523   4.860   4.207   0.915 -3.1180  1.2205  0.6894
 1839TIP3    H2 5524   4.846   4.358   0.909  1.8213  1.7819 -0.7670
 1840TIP3   OH2 5525   4.362   0.940   1.672  0.5255  0.3004 -0.0015
 1840TIP3    H1 5526   4.310   1.016   1.698 -0.4310  0.0270 -1.0389
 1840TIP3    H2 5527   4.420   0.972   1.603  0.3002  0.1532 -0.2618
 1841TIP3   OH2 5528   3.976   0.541   2.276  0.3154  0.4764 -0.8630
 1841TIP3    H1 5529   4.058   0.515   2.233  0.1509  1.3296 -1.6973
 1841TIP3    H2 5530   3.929   0.592   2.211  0.1989  2.0629  0.4099
 1842TIP3   OH2 5531   2.898   5.383   1.759 -0.5869  0.0045 -0.1058
 1842TIP3    H1 5532   2.934   5.361   1.673 -1.7236  0.7408 -0.7981
 1842TIP3    H2 5533   2.845   5.461   1.744 -3.2692 -1.5484  0.6142
 1843TIP3   OH2 5534   4.843   4.862   2.853  0.3555  0.1710  0.2122
 1843TIP3    H1 5535   4.799   4.825   2.776 -1.3957  0.7091  0.9105
 1843TIP3    H2 5536   4.908   4.922   2.817  0.0600 -0.1294 -0.8591
 1844TIP3   OH2 5537   5.287   0.065   0.809  0.1735 -0.5486 -0.2378
 1844TIP3    H1 5538   5.360   0.084   0.868  0.1940  0.8141 -0.6810
 1844TIP3    H2 5539   5.261  -0.024   0.832  0.7711 -0.3809  1.1987
 1845TIP3   OH2 5540   3.672   1.376   4.532 -0.0185 -0.2405  0.3282
 1845TIP3    H1 5541   3.742   1.312   4.516 -0.6150 -0.8638  0.1990
 1845TIP3    H2 5542   3.611   1.364   4.460 -0.8420 -0.5034  1.0539
 1846TIP3   OH2 5543   5.970   1.697   0.803 -0.3176  0.3247 -0.4241
 1846TIP3    H1 5544   5.930   1.615   0.774  2.5708 -1.9362  1.4977
 1846TIP3    H2 5545   6.037   1.716   0.737  0.2570  0.1193  0.0996
 1847TIP3   OH2 5546   1.183   2.380   2.490  0.1188  0.1725 -0.1585
 1847TIP3    H1 5547   1.252   2.409   2.549  1.5949 -0.3918 -1.5287
 1847TIP3    H2 5548   1.104   2.377   2.544  1.5775 -1.3631  2.0435
 1848TIP3   OH2 5549   0.525   2.557   2.504 -0.0411  0.3484 -0.1467
 1848TIP3    H1 5550   0.614   2.545   2.470 -0.0228  0.0967 -0.0139
 1848TIP3    H2 5551   0.509   2.478   2.557  0.3285  1.1880  1.2802
 1849TIP3   OH2 5552   4.803   5.066   3.397  0.0235 -0.3655  0.5392
 1849TIP3    H1 5553   4.894   5.079   3.425 -0.1223 -0.3893  1.0289
 1849TIP3    H2 5554   4.808   4.994   3.334  0.4420  0.1272 -0.0047
 1850TIP3   OH2 5555   1.785   2.899   4.350  0.3710 -0.5015 -0.2606
 1850TIP3    H1 5556   1.694   2.877   4.369  0.6769 -2.0548 -0.3933
 1850TIP3    H2 5557   1.834   2.821   4.378  1.7554  0.6344  0.5991
 1851TIP3   OH2 5558   1.597   3.531   3.497 -0.3757 -0.0854 -0.1640
 1851TIP3    H1 5559   1.674   3.587   3.500  0.7845 -1.4076 -2.4343
 1851TIP3    H2 5560   1.587   3.499   3.587  2.6887 -1.0837 -0.0687
 1852TIP3   OH2 5561   2.749   3.180   2.105  0.1091  0.1283 -0.0934
 1852TIP3    H1 5562   2.666   3.218   2.134  0.1126  0.2834 -0.2796
 1852TIP3    H2 5563   2.815   3.244   2.132  0.2014 -0.1402  0.3279
 1853TIP3   OH2 5564   0.593   5.971   1.650  0.7783  0.0372  0.0228
 1853TIP3    H1 5565   0.531   6.026   1.697 -1.2914 -2.6071  0.6384
 1853TIP3    H2 5566   0.648   5.933   1.718  0.6131 -0.4742 -0.1207
 1854TIP3   OH2 5567   4.273   5.704   3.923 -0.5956  0.0537  0.4604
 1854TIP3    H1 5568   4.362   5.680   3.895 -0.4253  1.1668 -0.0318
 1854TIP3    H2 5569   4.285   5.739   4.011 -0.5843 -0.0824  0.5122
 1855TIP3   OH2 5570   5.752   0.010   4.194  0.4374  0.4833 -0.2026
 1855TIP3    H1 5571   5.676  -0.041   4.221  0.1722  1.9361  2.0607
 1855TIP3    H2 5572   5.715   0.085   4.147  0.7760 -0.7971 -2.6941
 1856TIP3   OH2 5573   4.898   0.238   4.063  0.3975  0.3252 -0.5963
 1856TIP3    H1 5574   4.949   0.206   3.989  0.2682  0.2095 -0.6372
 1856TIP3    H2 5575   4.897   0.333   4.052  1.9290  0.4763  0.2751
 1857TIP3   OH2 5576   2.898   5.082   4.358  0.2024  0.6836 -0.0247
 1857TIP3    H1 5577   2.984   5.122   4.348 -0.1115  0.9722 -1.8700
 1857TIP3    H2 5578   2.836   5.155   4.353 -0.2424  0.2686 -0.6769
 1858TIP3   OH2 5579   5.835   0.791   2.885 -0.3914 -0.4446  0.1513
 1858TIP3    H1 5580   5.752   0.833   2.908  0.4747  2.4688 -1.4690
 1858TIP3    H2 5581   5.878   0.854   2.827  1.6870 -3.1289 -1.4542
 1859TIP3   OH2 5582   5.022   0.878   2.477  0.1775  0.1856 -0.6235
 1859TIP3    H1 5583   5.101   0.896   2.528 -0.1313  1.4548 -0.5657
 1859TIP3    H2 5584   5.038   0.922   2.393 -0.4729  0.4921 -0.5936
 1860TIP3   OH2 5585   5.016   2.437   2.094 -0.2633  0.2717  0.4269
 1860TIP3    H1 5586   5.094   2.391   2.125 -0.5856 -0.1920  0.5635
 1860TIP3    H2 5587   5.047   2.492   2.022  0.3561  0.7693  1.0580
 1861TIP3   OH2 5588   2.149   5.776   2.811 -0.3649 -0.1726  0.2329
 1861TIP3    H1 5589   2.222   5.813   2.861  1.1240 -1.4705 -0.8701
 1861TIP3    H2 5590   2.121   5.848   2.754  0.9286  0.0002 -0.2356
 1862TIP3   OH2 5591   5.798   5.431   4.179 -0.3260 -0.0016 -0.3372
 1862TIP3    H1 5592   5.816   5.372   4.252 -1.2209 -0.2394 -0.3048
 1862TIP3    H2 5593   5.878   5.427   4.126 -0.7171 -2.0299 -0.8706
 1863TIP3   OH2 5594   4.083   4.390   0.200 -0.1578  0.3731 -0.2627
 1863TIP3    H1 5595   4.118   4.457   0.259 -0.9982 -0.6784  1.5183
 1863TIP3    H2 5596   4.073   4.435   0.117 -0.0329  2.2720  0.6878
 1864TIP3   OH2 5597   4.490   2.737   4.603  0.2998 -0.1539 -0.2649
 1864TIP3    H1 5598   4.564   2.676   4.605  0.2043 -0.2595  1.3325
 1864TIP3    H2 5599   4.477   2.762   4.695  0.9127  3.0359 -0.9490
 1865TIP3   OH2 5600   4.091   5.332   0.784 -0.8238 -0.0788 -0.1682
 1865TIP3    H1 5601   4.074   5.424   0.806 -1.1471 -0.1808  0.0229
 1865TIP3    H2 5602   4.006   5.299   0.755 -0.7985 -0.4217  0.1381
 1866TIP3   OH2 5603   5.800   1.365   3.425 -0.3030  0.1554 -0.2111
 1866TIP3    H1 5604   5.882   1.360   3.374 -0.4239  0.7091 -0.4685
 1866TIP3    H2 5605   5.782   1.275   3.450  0.5184  0.0542  0.0477
 1867TIP3   OH2 5606   3.236   4.323   4.968 -0.2532  0.2898 -0.1368
 1867TIP3    H1 5607   3.309   4.297   5.025  0.5054 -1.1823 -1.6735
 1867TIP3    H2 5608   3.261   4.290   4.882 -1.2812  2.5982 -1.3864
 1868TIP3   OH2 5609   2.860   4.420   0.066 -0.2270  0.2745  0.0953
 1868TIP3    H1 5610   2.936   4.477   0.059  0.4089 -0.5767 -0.2079
 1868TIP3    H2 5611   2.793   4.461   0.013 -0.0498  1.1416  0.5279
 1869TIP3   OH2 5612   6.232   5.823   2.690 -0.2563 -0.1124 -0.2263
 1869TIP3    H1 5613   6.184   5.884   2.746 -0.3575 -1.8737  1.7396
 1869TIP3    H2 5614   6.177   5.744   2.688  1.4350 -1.3539  0.1853
 1870TIP3   OH2 5615   1.172   4.334   2.250 -0.3305 -0.0982 -0.1801
 1870TIP3    H1 5616   1.211   4.396   2.312 -0.5338  0.2260 -0.3786
 1870TIP3    H2 5617   1.244   4.310   2.192 -0.8174  1.8990 -1.6935
 1871TIP3   OH2 5618   1.873   2.893   1.680  0.2302  0.3827  0.1885
 1871TIP3    H1 5619   1.888   2.944   1.601  1.3584 -0.1347  0.0511
 1871TIP3    H2 5620   1.951   2.906   1.733 -0.2390  0.2118  0.9425
 1872TIP3   OH2 5621   2.908   2.354   4.555  0.4035  0.2148 -0.3153
 1872TIP3    H1 5622   2.930   2.288   4.490  0.6188 -0.3600  0.3264
 1872TIP3    H2 5623   2.980   2.350   4.618 -0.2742  0.0972  0.4668
 1873TIP3   OH2 5624   1.503   5.403   0.403 -0.2029 -0.7386  0.4095
 1873TIP3    H1 5625   1.552   5.468   0.353 -0.0549 -1.6880 -0.7208
 1873TIP3    H2 5626   1.567   5.337   0.426 -0.4677 -0.7779  1.0621
 1874TIP3   OH2 5627   0.625   4.212   3.422  0.2422 -0.3919  0.0982
 1874TIP3    H1 5628   0.600   4.147   3.356  2.2191 -0.1460 -0.9498
 1874TIP3    H2 5629   0.549   4.216   3.481 -1.1280 -1.4636 -1.4874
 1875TIP3   OH2 5630   4.653   4.574   2.213 -0.0227  0.0214 -0.9368
 1875TIP3    H1 5631   4.580   4.606   2.267 -0.3134 -0.5025 -1.0095
 1875TIP3    H2 5632   4.712   4.533   2.275 -0.2686 -0.4204 -0.9924
 1876TIP3   OH2 5633   5.458   4.311   0.971  0.1214 -0.4419  0.1747
 1876TIP3    H1 5634   5.365   4.318   0.951 -0.0435 -0.6717  0.8305
 1876TIP3    H2 5635   5.501   4.310   0.885 -0.6088 -2.1054 -0.2144
 1877TIP3   OH2 5636   1.884   5.704   2.942  0.8418  0.0400 -0.6460
 1877TIP3    H1 5637   1.976   5.717   2.920  0.9575 -0.4701 -0.4727
 1877TIP3    H2 5638   1.865   5.773   3.006  1.4756 -0.6706  0.3409
 1878TIP3   OH2 5639   0.172   1.567   3.712 -0.0027  0.1802  0.5152
 1878TIP3    H1 5640   0.190   1.585   3.804  1.1196 -0.5912  0.4594
 1878TIP3    H2 5641   0.154   1.473   3.709 -0.5496  0.2917  0.0129
 1879TIP3   OH2 5642   4.052   5.216   1.852 -0.1006  0.2728  0.7382
 1879TIP3    H1 5643   4.098   5.300   1.844 -0.7625  0.6176  0.5535
 1879TIP3    H2 5644   3.960   5.239   1.860 -0.3774 -0.4595 -0.1170
 1880TIP3   OH2 5645   0.780   0.572   0.951 -0.1500 -0.7226  0.2158
 1880TIP3    H1 5646   0.838   0.640   0.985  0.0673 -0.5061 -0.5513
 1880TIP3    H2 5647   0.692   0.599   0.978 -0.0224 -0.3585  0.2675
 1881TIP3   OH2 5648   3.803   1.084   3.910  0.7275  0.0275  0.3817
 1881TIP3    H1 5649   3.756   1.166   3.922 -1.1632 -0.9819  0.2945
 1881TIP3    H2 5650   3.840   1.089   3.822  0.9536  0.9250  0.5258
 1882TIP3   OH2 5651   1.637   5.021   3.778 -0.4104 -0.7710 -0.0667
 1882TIP3    H1 5652   1.574   4.949   3.767  0.6624 -1.7870  0.2284
 1882TIP3    H2 5653   1.723   4.979   3.771  0.2606  0.2238  1.6772
 1883TIP3   OH2 5654   4.993   0.804   2.085 -0.1873 -0.2020 -0.9901
 1883TIP3    H1 5655   4.919   0.836   2.034  0.4531  0.1072 -1.7421
 1883TIP3    H2 5656   5.015   0.876   2.143 -0.4403 -0.2758 -0.8011
 1884TIP3   OH2 5657   3.850   5.914   2.239  0.3391  0.2122  0.1728
 1884TIP3    H1 5658   3.911   5.856   2.194 -1.9131 -1.9183 -0.3296
 1884TIP3    H2 5659   3.869   5.904   2.332  1.2297  0.1795 -0.0099
 1885TIP3   OH2 5660   1.693   4.451   1.655 -0.2791  1.1260  0.0887
 1885TIP3    H1 5661   1.783   4.478   1.637 -0.0938  0.3792 -0.1390
 1885TIP3    H2 5662   1.692   4.433   1.749 -0.3162  1.5875  0.1793
 1886TIP3   OH2 5663   5.470   4.313   1.728  0.1044  0.1255 -0.1942
 1886TIP3    H1 5664   5.374   4.320   1.724  0.1922  2.5466  0.5117
 1886TIP3    H2 5665   5.489   4.291   1.819  0.2628  1.2190  0.0450
 1887TIP3   OH2 5666   5.000   0.426   2.399  0.9354  0.1322 -0.3694
 1887TIP3    H1 5667   5.002   0.336   2.431  1.7997  0.2509 -0.0537
 1887TIP3    H2 5668   4.949   0.474   2.464  1.7104  0.1486  0.2420
 1888TIP3   OH2 5669   2.858   1.524   4.717  0.4348  0.2638  0.2030
 1888TIP3    H1 5670   2.908   1.570   4.649 -0.4390  0.1474 -0.5466
 1888TIP3    H2 5671   2.774   1.570   4.719 -1.0018 -2.0484 -1.5448
 1889TIP3   OH2 5672   5.395   1.346   1.354  0.3904  0.0515  0.1272
 1889TIP3    H1 5673   5.331   1.316   1.289  1.3128 -1.0943 -0.2969
 1889TIP3    H2 5674   5.348   1.410   1.406 -0.6064  0.4504 -1.2012
 1890TIP3   OH2 5675   2.860   0.537   3.283  0.2740 -0.6822  0.1386
 1890TIP3    H1 5676   2.921   0.468   3.310 -0.5528 -0.7085  2.0792
 1890TIP3    H2 5677   2.811   0.499   3.210 -1.0019 -2.6920  1.9137
 1891TIP3   OH2 5678   5.543   2.091   3.553  0.5239  0.1158  0.1866
 1891TIP3    H1 5679   5.494   2.102   3.634  0.3253 -0.0889  0.0947
 1891TIP3    H2 5680   5.611   2.027   3.574  1.1784  0.8913  0.4989
 1892TIP3   OH2 5681   5.802   1.829   0.574  0.3429 -0.2976 -0.0726
 1892TIP3    H1 5682   5.873   1.867   0.522 -0.5697  0.7976 -0.5629
 1892TIP3    H2 5683   5.759   1.904   0.615 -1.0094 -0.8578 -0.4088
 1893TIP3   OH2 5684   3.646   2.966   3.859 -0.1126 -0.4252  0.0952
 1893TIP3    H1 5685   3.580   2.917   3.809  0.0522 -0.2315 -0.3190
 1893TIP3    H2 5686   3.669   2.908   3.932 -2.5047  0.4632  1.6761
 1894TIP3   OH2 5687   4.128   0.797   1.357  0.1187  0.0400  0.1378
 1894TIP3    H1 5688   4.214   0.773   1.322  0.3535  1.1849 -0.1253
 1894TIP3    H2 5689   4.089   0.850   1.287 -0.2170  0.7055  0.8165
 1895TIP3   OH2 5690   5.019   3.317   0.278 -0.1112  0.6053  0.0635
 1895TIP3    H1 5691   4.993   3.256   0.346 -1.3632  0.3066 -0.6448
 1895TIP3    H2 5692   4.944   3.376   0.269  0.7002  1.6764  0.0850
 1896TIP3   OH2 5693   4.636   5.464   2.184 -0.3182  0.3390 -0.1746
 1896TIP3    H1 5694   4.672   5.395   2.240 -2.0904  0.5378  1.2979
 1896TIP3    H2 5695   4.614   5.419   2.102  1.7330 -0.0807 -0.5491
 1897TIP3   OH2 5696   5.106   4.714   0.327  0.0265 -0.0663  0.1143
 1897TIP3    H1 5697   5.153   4.761   0.397  1.0862 -0.3879 -0.3513
 1897TIP3    H2 5698   5.156   4.633   0.315  0.1396  0.1909 -1.3233
 1898TIP3   OH2 5699   4.779   0.184   1.846  0.9545 -0.2002 -0.0034
 1898TIP3    H1 5700   4.733   0.236   1.912  1.8566  0.2802  0.2696
 1898TIP3    H2 5701   4.722   0.109   1.830  0.2439  0.2073  0.5642
 1899TIP3   OH2 5702   5.562   5.419   4.312 -0.2251 -0.1622 -0.0518
 1899TIP3    H1 5703   5.523   5.341   4.272 -0.8572  0.7024 -1.1705
 1899TIP3    H2 5704   5.631   5.446   4.251  0.7980 -0.5125  0.9194
 1900TIP3   OH2 5705   3.822   1.297   1.060 -0.5001  0.2622 -0.2316
 1900TIP3    H1 5706   3.810   1.228   0.995  1.6521  0.3457 -0.7911
 1900TIP3    H2 5707   3.738   1.302   1.106 -1.1777 -1.6837 -1.1696
 1901TIP3   OH2 5708   5.195   4.821   4.343  0.7808  0.1307  0.0660
 1901TIP3    H1 5709   5.198   4.886   4.274 -0.3318 -0.2470 -0.3574
 1901TIP3    H2 5710   5.278   4.831   4.389  1.3464  0.6911 -1.0395
 1902TIP3   OH2 5711   4.549   1.142   0.647 -0.0393 -0.4456 -0.2511
 1902TIP3    H1 5712   4.578   1.157   0.737  0.1149 -0.8646 -0.2275
 1902TIP3    H2 5713   4.630   1.128   0.598 -0.0610  0.6813 -0.6368
 1903TIP3   OH2 5714   4.423   4.669   4.161  0.3485 -0.1594  0.1649
 1903TIP3    H1 5715   4.331   4.695   4.160 -0.0707 -1.5130  1.2368
 1903TIP3    H2 5716   4.459   4.704   4.079 -1.6085 -1.4169 -1.2996
 1904TIP3   OH2 5717   3.008   5.832   0.905 -0.3542  0.2936 -0.6320
 1904TIP3    H1 5718   2.991   5.738   0.909  0.7820  0.1031  0.2132
 1904TIP3    H2 5719   3.007   5.861   0.996  1.5386  0.6505 -0.6797
 1905TIP3   OH2 5720   1.565   5.245   1.601  0.3397 -0.2362 -0.0548
 1905TIP3    H1 5721   1.626   5.188   1.556 -0.7513 -0.7574 -0.9122
 1905TIP3    H2 5722   1.602   5.256   1.689  2.2965  0.4861 -0.9190
 1906TIP3   OH2 5723   2.468   5.293   4.893 -0.7769  0.4922 -0.1365
 1906TIP3    H1 5724   2.548   5.345   4.897 -1.3018  1.5712 -2.3701
 1906TIP3    H2 5725   2.496   5.208   4.858 -0.0395 -0.6201  2.8480
 1907TIP3   OH2 5726   6.291   4.015   3.998  0.6629  0.5029  0.2027
 1907TIP3    H1 5727   6.354   4.045   4.062  0.3864  0.9717  0.2652
 1907TIP3    H2 5728   6.208   4.055   4.025  0.8690  2.1476 -1.4095
 1908TIP3   OH2 5729   5.151   0.282   5.120  0.2611 -0.1345  0.4453
 1908TIP3    H1 5730   5.144   0.237   5.204 -0.3305  0.9809  1.0170
 1908TIP3    H2 5731   5.244   0.298   5.109  0.2679  0.6508  1.4325
 1909TIP3   OH2 5732   2.435   5.325   4.342  0.3623  0.4334  0.3481
 1909TIP3    H1 5733   2.434   5.339   4.247 -1.2439  1.1832  0.4443
 1909TIP3    H2 5734   2.438   5.413   4.380  0.0965  0.1748  0.9873
 1910TIP3   OH2 5735   3.830   1.364   4.136  0.3707 -0.1779 -0.6221
 1910TIP3    H1 5736   3.825   1.434   4.071 -0.7370  1.3779  1.0629
 1910TIP3    H2 5737   3.899   1.392   4.196  0.1809 -0.7273 -0.1436
 1911TIP3   OH2 5738   6.305   1.951   2.878 -0.1920 -0.2185  0.0198
 1911TIP3    H1 5739   6.236   1.980   2.939 -2.4665 -1.1725 -1.9239
 1911TIP3    H2 5740   6.258   1.929   2.797  2.7116  1.5446 -2.3605
 1912TIP3   OH2 5741   4.457   5.209   4.442 -0.4724 -0.2365 -0.0244
 1912TIP3    H1 5742   4.500   5.147   4.501  1.1293  0.9852  0.1540
 1912TIP3    H2 5743   4.490   5.186   4.355 -0.9361 -0.4724 -0.1450
 1913TIP3   OH2 5744   5.598   2.308   1.305 -0.0174 -0.2909  0.3533
 1913TIP3    H1 5745   5.599   2.260   1.222  0.2066 -1.1453  0.8420
 1913TIP3    H2 5746   5.675   2.276   1.352 -2.0050 -2.4327  2.3562
 1914TIP3   OH2 5747   5.820   3.821   5.103  0.4613  0.5561  0.0542
 1914TIP3    H1 5748   5.898   3.869   5.075  0.5662  0.5701  0.3695
 1914TIP3    H2 5749   5.853   3.757   5.166  0.2078  0.6123  0.2437
 1915TIP3   OH2 5750   5.990   4.967   4.761  0.2427  0.1458  0.1333
 1915TIP3    H1 5751   5.901   4.977   4.794  0.2691 -0.3854  0.3694
 1915TIP3    H2 5752   6.044   4.961   4.840  0.6061  1.3822  0.0077
 1916TIP3   OH2 5753   5.771   1.795   3.213 -0.1535 -0.3166 -0.7618
 1916TIP3    H1 5754   5.788   1.721   3.271 -0.8045 -1.4542 -1.9829
 1916TIP3    H2 5755   5.802   1.766   3.127 -0.3017  0.8850 -1.2376
 1917TIP3   OH2 5756   1.058   3.893   3.126 -0.2390 -0.4463 -0.2495
 1917TIP3    H1 5757   1.123   3.879   3.057  1.7065  2.4262  0.8278
 1917TIP3    H2 5758   1.090   3.842   3.200 -1.5541 -2.3716 -0.9422
 1918TIP3   OH2 5759   0.701   5.019   0.199 -0.4653 -0.4693 -0.3454
 1918TIP3    H1 5760   0.670   4.969   0.123  0.9214 -1.1225 -0.5159
 1918TIP3    H2 5761   0.652   5.102   0.195  0.0834 -0.1829 -2.3819
 1919TIP3   OH2 5762   5.510   1.806   1.103  0.1747  0.3290 -0.1288
 1919TIP3    H1 5763   5.581   1.743   1.109  0.3193  0.4401 -0.6498
 1919TIP3    H2 5764   5.553   1.892   1.109 -0.0770  0.3851  1.1805
 1920TIP3   OH2 5765   1.596   2.747   2.259 -0.2188 -0.1077 -0.0430
 1920TIP3    H1 5766   1.545   2.828   2.249 -0.4192 -0.2347 -0.0497
 1920TIP3    H2 5767   1.574   2.695   2.182  0.8374  0.3346 -0.6794
 1921TIP3   OH2 5768   5.398   3.964   2.834  0.1607 -0.0774  0.0023
 1921TIP3    H1 5769   5.310   3.994   2.859 -0.5622 -0.1306 -2.2700
 1921TIP3    H2 5770   5.456   4.036   2.856 -0.7142  0.6426 -0.0259
 1922TIP3   OH2 5771   5.950   5.451   1.631  0.1370  0.6267 -0.4388
 1922TIP3    H1 5772   5.990   5.368   1.657 -1.5284 -0.4802 -1.2331
 1922TIP3    H2 5773   5.922   5.491   1.714  0.6345  0.2397 -0.0746
 1923TIP3   OH2 5774   2.307   0.111   3.319 -0.5111 -0.0902  0.3468
 1923TIP3    H1 5775   2.213   0.112   3.304 -0.5594 -0.4563  0.6097
 1923TIP3    H2 5776   2.345   0.124   3.232 -0.8024 -0.0262  0.2287
 1924TIP3   OH2 5777   1.135   4.062   2.130  0.2199  0.3403  0.1686
 1924TIP3    H1 5778   1.093   4.132   2.181  1.9249  1.5130  0.0376
 1924TIP3    H2 5779   1.097   3.981   2.165 -0.0587  1.1941  1.9759
 1925TIP3   OH2 5780   3.478   2.791   4.258  0.0840 -0.2958 -0.8473
 1925TIP3    H1 5781   3.386   2.803   4.283  0.2321 -3.1403  1.6929
 1925TIP3    H2 5782   3.526   2.851   4.314 -0.1487  0.1786 -1.1555
 1926TIP3   OH2 5783   1.476   0.758   3.371  0.1294 -0.3127 -0.0781
 1926TIP3    H1 5784   1.425   0.827   3.327 -2.9561 -1.7808  0.8752
 1926TIP3    H2 5785   1.484   0.689   3.305  0.0107 -0.4671  0.0679
 1927TIP3   OH2 5786   4.907   0.975   4.169 -0.3182 -0.0402 -0.2267
 1927TIP3    H1 5787   4.913   0.934   4.255 -0.1916  1.1141  0.3375
 1927TIP3    H2 5788   4.939   1.064   4.183 -0.3877  0.1952 -1.4535
 1928TIP3   OH2 5789   4.107   4.853   1.214  0.0429  0.4449 -0.7428
 1928TIP3    H1 5790   4.037   4.907   1.176  1.4215  2.5334 -0.5011
 1928TIP3    H2 5791   4.090   4.855   1.308 -0.4419 -0.3698 -0.8078
 1929TIP3   OH2 5792   5.375   2.446   1.314 -0.2131  0.5968  0.0638
 1929TIP3    H1 5793   5.470   2.435   1.304  0.1925  3.9694 -0.9347
 1929TIP3    H2 5794   5.354   2.397   1.394  2.7248  1.2363  1.3719
 1930TIP3   OH2 5795   1.780   1.616   3.688  0.5850 -0.2378  0.2902
 1930TIP3    H1 5796   1.751   1.698   3.649 -0.0849  0.3227  1.8709
 1930TIP3    H2 5797   1.700   1.565   3.700  0.2459  0.8193  3.5543
 1931TIP3   OH2 5798   5.347   2.814   3.190  0.1740  0.0894 -0.2083
 1931TIP3    H1 5799   5.385   2.745   3.245  2.5109  0.0378 -1.7239
 1931TIP3    H2 5800   5.276   2.850   3.242  1.3953 -0.8416  2.2720
 1932TIP3   OH2 5801   1.618   4.381   3.578  0.5739  0.1565 -0.4490
 1932TIP3    H1 5802   1.628   4.302   3.631  1.3188 -0.7816 -1.9490
 1932TIP3    H2 5803   1.528   4.380   3.548  0.3754  0.2804  0.1250
 1933TIP3   OH2 5804   0.533   4.340   1.776  0.5351 -0.1539  0.6421
 1933TIP3    H1 5805   0.625   4.343   1.750 -0.0316 -2.1979 -1.9940
 1933TIP3    H2 5806   0.499   4.427   1.755  1.7672  0.5500  1.4280
 1934TIP3   OH2 5807   4.507   3.495   0.289 -0.0996 -0.3755  0.3361
 1934TIP3    H1 5808   4.459   3.561   0.238 -0.5777 -2.0136 -1.4749
 1934TIP3    H2 5809   4.443   3.425   0.304  0.6423 -0.8486  1.4102
 1935TIP3   OH2 5810   2.884   2.727   3.161 -0.2186  0.2988 -0.1642
 1935TIP3    H1 5811   2.805   2.730   3.214  1.3330 -1.6354  2.5030
 1935TIP3    H2 5812   2.927   2.811   3.177 -0.3985  0.2387  0.6811
 1936TIP3   OH2 5813   5.565   5.885   3.988  0.4474 -0.1953  0.4251
 1936TIP3    H1 5814   5.469   5.877   3.988  0.3173  0.8533 -1.0243
 1936TIP3    H2 5815   5.596   5.810   4.038 -1.0600 -1.9480 -1.1156
 1937TIP3   OH2 5816   5.688   1.980   4.589 -0.1531 -0.1640 -0.5436
 1937TIP3    H1 5817   5.672   2.062   4.543 -0.1633 -1.2941 -2.6961
 1937TIP3    H2 5818   5.604   1.961   4.631 -0.5980  0.2553 -1.1991
 1938TIP3   OH2 5819   3.651   1.561   1.350  0.7024 -0.5017  0.3602
 1938TIP3    H1 5820   3.629   1.648   1.317 -1.6608 -0.8183  0.9154
 1938TIP3    H2 5821   3.747   1.561   1.356  0.9173  1.1753 -1.9549
 1939TIP3   OH2 5822   6.133   1.313   3.364 -0.0054  0.1986  0.0733
 1939TIP3    H1 5823   6.137   1.261   3.284  0.4386 -1.7602  1.2902
 1939TIP3    H2 5824   6.222   1.308   3.400  0.1203  2.0372  0.1471
 1940TIP3   OH2 5825   1.899   4.626   0.871  0.1686 -0.1106 -0.2015
 1940TIP3    H1 5826   1.931   4.716   0.867  3.2151 -1.1402 -1.8191
 1940TIP3    H2 5827   1.810   4.631   0.837 -0.3080  2.4546  1.1706
 1941TIP3   OH2 5828   5.023   5.721   2.428 -0.0675  0.2508 -0.3420
 1941TIP3    H1 5829   5.044   5.718   2.334  2.2968 -0.7221  0.1685
 1941TIP3    H2 5830   5.106   5.736   2.471 -1.0550  0.2675  1.6660
 1942TIP3   OH2 5831   1.427   0.944   0.069  0.3835  0.4343 -0.2210
 1942TIP3    H1 5832   1.355   0.892   0.032  0.4866  0.8148 -0.9717
 1942TIP3    H2 5833   1.478   0.881   0.120 -0.5080  0.1663  0.3677
 1943TIP3   OH2 5834   6.218   0.475   3.211 -0.9414  0.2143  0.3244
 1943TIP3    H1 5835   6.245   0.385   3.193 -0.6030  0.4801 -0.5324
 1943TIP3    H2 5836   6.157   0.497   3.142  0.6249  1.3541 -0.7774
 1944TIP3   OH2 5837   4.130   1.673   1.233  0.0771 -0.4781 -0.3178
 1944TIP3    H1 5838   4.121   1.608   1.163 -0.7676 -0.9844  0.2509
 1944TIP3    H2 5839   4.224   1.675   1.252  0.3235 -0.3430 -1.4400
 1945TIP3   OH2 5840   4.916   5.723   2.681  0.3293 -0.1377 -0.1924
 1945TIP3    H1 5841   4.926   5.713   2.586  1.0832 -0.2336 -0.1023
 1945TIP3    H2 5842   4.821   5.734   2.693  0.2915  0.5455 -1.0138
 1946TIP3   OH2 5843   1.531   3.627   4.143  0.2983 -0.0213 -0.1495
 1946TIP3    H1 5844   1.603   3.672   4.187  0.6673 -0.1683 -0.6080
 1946TIP3    H2 5845   1.454   3.647   4.197  0.9673 -1.3179  1.3623
 1947TIP3   OH2 5846   5.407   2.009   4.753  0.2294  0.3298  0.0847
 1947TIP3    H1 5847   5.450   1.968   4.828 -0.0979  1.6755  1.0431
 1947TIP3    H2 5848   5.439   2.099   4.753 -0.8847  0.7498 -0.5060
 1948TIP3   OH2 5849   1.444   2.113   4.346  0.2017  0.2241  0.1831
 1948TIP3    H1 5850   1.424   2.193   4.298  0.5458  0.4603  0.4311
 1948TIP3    H2 5851   1.478   2.143   4.430  2.2490 -0.1360 -0.4638
 1949TIP3   OH2 5852   0.460   2.703   1.939  0.5182 -0.2406 -0.7915
 1949TIP3    H1 5853   0.539   2.659   1.972  0.6310  0.5024 -0.0425
 1949TIP3    H2 5854   0.393   2.635   1.940  0.4845 -0.2433  1.1385
 1950TIP3   OH2 5855   4.763   0.265   3.261 -0.4609 -0.2752 -0.2196
 1950TIP3    H1 5856   4.799   0.264   3.349  0.4620  0.1473 -0.5876
 1950TIP3    H2 5857   4.715   0.348   3.255 -2.1647 -1.1446  0.5067
 1951TIP3   OH2 5858   1.857   4.988   1.194 -0.8322 -0.4683 -0.1260
 1951TIP3    H1 5859   1.807   4.934   1.255  0.4334  0.2693  1.6456
 1951TIP3    H2 5860   1.934   5.016   1.244 -1.2791  2.7768 -1.0320
 1952TIP3   OH2 5861   4.405   5.103   4.866 -0.2580  0.2828 -0.0223
 1952TIP3    H1 5862   4.412   5.015   4.903 -0.9496  0.2343  0.0161
 1952TIP3    H2 5863   4.341   5.094   4.795  0.6489  0.4879 -0.8782
 1953TIP3   OH2 5864   1.543   5.003   4.148 -0.0103  0.6646  0.5239
 1953TIP3    H1 5865   1.607   4.947   4.104  0.3714  1.2867  0.2725
 1953TIP3    H2 5866   1.483   4.942   4.190 -0.7705  0.0076 -1.3866
 1954TIP3   OH2 5867   0.920   2.539   0.053  0.4938  0.3075 -0.5285
 1954TIP3    H1 5868   1.015   2.547   0.040  1.2673 -0.8663  3.1366
 1954TIP3    H2 5869   0.897   2.616   0.106 -0.5791  0.4491 -1.1878
 1955TIP3   OH2 5870   4.538   2.275   3.804  0.2541 -0.2638  0.5851
 1955TIP3    H1 5871   4.605   2.215   3.771  1.3735  0.1171  2.0684
 1955TIP3    H2 5872   4.476   2.284   3.732 -0.5025 -3.9316  0.5898
 1956TIP3   OH2 5873   3.756   5.265   1.856 -0.1334  0.3332 -0.0951
 1956TIP3    H1 5874   3.722   5.302   1.775 -1.1005  0.5954  0.4218
 1956TIP3    H2 5875   3.717   5.318   1.926  0.2313 -0.2432  0.5656
 1957TIP3   OH2 5876   1.707   5.837   0.954 -0.0932 -0.1459  0.3352
 1957TIP3    H1 5877   1.780   5.881   0.912 -1.0870  0.5723 -0.6826
 1957TIP3    H2 5878   1.720   5.853   1.048  1.6080 -0.9339  0.2586
 1958TIP3   OH2 5879   1.559   2.596   5.105  0.1936  0.1654  0.4201
 1958TIP3    H1 5880   1.633   2.562   5.156 -0.7052 -0.2397  1.4869
 1958TIP3    H2 5881   1.569   2.691   5.108 -0.1083  0.1739  1.7843
 1959TIP3   OH2 5882   3.826   4.426   0.581 -0.0467  0.0284  0.2885
 1959TIP3    H1 5883   3.840   4.513   0.544  0.4652 -0.9102 -1.8455
 1959TIP3    H2 5884   3.906   4.408   0.630  1.0189 -0.2500 -1.4587
 1960TIP3   OH2 5885   4.603   3.969   1.692 -0.5052 -0.0495  0.3050
 1960TIP3    H1 5886   4.606   3.884   1.648 -4.1462  1.4369 -3.5110
 1960TIP3    H2 5887   4.665   4.024   1.644 -0.3474  0.2091  0.7965
 1961TIP3   OH2 5888   3.999   1.922   3.102  0.1767  0.3961  0.0290
 1961TIP3    H1 5889   4.069   1.859   3.084 -0.4779 -0.0827 -0.9714
 1961TIP3    H2 5890   3.938   1.874   3.159 -0.6389 -0.1324 -1.2435
 1962TIP3   OH2 5891   0.822   2.167   4.274 -0.2199 -0.4993 -0.2772
 1962TIP3    H1 5892   0.891   2.232   4.268 -0.6933 -0.1513 -2.7067
 1962TIP3    H2 5893   0.858   2.100   4.332  0.2724  1.8342  2.3241
 1963TIP3   OH2 5894   3.214   5.527   4.725 -0.3656 -0.5385 -0.4799
 1963TIP3    H1 5895   3.150   5.547   4.656  0.0846 -0.3296 -0.8467
 1963TIP3    H2 5896   3.161   5.511   4.803 -0.9191 -1.3099 -0.9954
 1964TIP3   OH2 5897   0.286   4.631   2.412  0.4879 -0.0458 -0.5076
 1964TIP3    H1 5898   0.333   4.704   2.373  0.2846  0.7823  0.7369
 1964TIP3    H2 5899   0.238   4.591   2.339  2.6383 -0.5728 -1.6968
 1965TIP3   OH2 5900   2.854   0.633   0.624  0.1490 -0.2997  0.9560
 1965TIP3    H1 5901   2.786   0.571   0.651 -1.0219 -0.3433 -1.7401
 1965TIP3    H2 5902   2.848   0.634   0.528  1.6569  2.2867  0.8094
 1966TIP3   OH2 5903   4.286   5.468   0.402 -0.3318  0.2871  0.2371
 1966TIP3    H1 5904   4.270   5.380   0.367  0.2512 -0.1173  0.9429
 1966TIP3    H2 5905   4.258   5.463   0.494 -1.1213  1.1018  0.0498
 1967TIP3   OH2 5906   3.513   2.888   5.021  0.0062 -0.5482 -0.8112
 1967TIP3    H1 5907   3.589   2.829   5.014 -1.5594 -2.5367 -2.1629
 1967TIP3    H2 5908   3.530   2.939   5.100  1.0816 -3.4194  0.9588
 1968TIP3   OH2 5909   2.107   2.679   4.437  0.5371  0.4450 -0.1430
 1968TIP3    H1 5910   2.050   2.711   4.506  0.8929 -0.3507  0.5509
 1968TIP3    H2 5911   2.048   2.651   4.368  0.0612 -0.4229  0.5867
 1969TIP3   OH2 5912   5.876   2.697   0.254  0.0725 -0.3904  0.1112
 1969TIP3    H1 5913   5.902   2.787   0.275 -0.7230 -0.5461  2.0213
 1969TIP3    H2 5914   5.958   2.653   0.231  0.5769  0.6199 -0.0825
 1970TIP3   OH2 5915   4.588   5.394   1.462  0.1164 -0.2537 -0.2499
 1970TIP3    H1 5916   4.661   5.339   1.433  0.7925  0.3893  0.1985
 1970TIP3    H2 5917   4.522   5.384   1.393 -0.5182 -3.0014  0.6529
 1971TIP3   OH2 5918   1.518   2.910   1.871 -0.0321  0.3889 -0.1493
 1971TIP3    H1 5919   1.443   2.923   1.929  0.4031  0.0595  0.5005
 1971TIP3    H2 5920   1.594   2.919   1.928  0.3818 -0.6968 -0.5095
 1972TIP3   OH2 5921   4.776   3.324   3.985 -0.1313  0.3785 -0.2209
 1972TIP3    H1 5922   4.806   3.358   3.900  0.6668  3.2918  1.0833
 1972TIP3    H2 5923   4.839   3.256   4.008  0.2911  0.3350 -1.4488
 1973TIP3   OH2 5924   5.606   4.006   3.540 -0.2567  0.3021  0.2000
 1973TIP3    H1 5925   5.686   4.054   3.517  0.3436 -0.1953  1.2256
 1973TIP3    H2 5926   5.566   3.986   3.455  2.2404 -2.0896 -0.5696
 1974TIP3   OH2 5927   5.220   4.539   0.827  0.4165  0.0488 -0.2531
 1974TIP3    H1 5928   5.138   4.590   0.828  0.4962  0.1784 -0.2786
 1974TIP3    H2 5929   5.204   4.467   0.888  0.2491  0.0221 -0.3292
 1975TIP3   OH2 5930   4.012   2.975   1.058  0.3589  0.0482 -0.0126
 1975TIP3    H1 5931   4.017   2.882   1.037 -0.9748 -0.1433  0.4415
 1975TIP3    H2 5932   4.016   3.019   0.973  1.1151 -0.4041 -0.2187
 1976TIP3   OH2 5933   3.177   3.656   0.805  0.5213  0.1394 -0.5371
 1976TIP3    H1 5934   3.229   3.579   0.829  0.4933 -0.5604 -2.5783
 1976TIP3    H2 5935   3.143   3.689   0.889  2.1359 -0.8917  0.5791
 1977TIP3   OH2 5936   2.565   0.313   1.352 -0.1015 -0.2849  0.1773
 1977TIP3    H1 5937   2.485   0.325   1.300  0.1869  1.5275  0.1091
 1977TIP3    H2 5938   2.623   0.262   1.295 -0.7861 -0.6570 -0.2026
 1978TIP3   OH2 5939   2.488   2.606   1.741  0.0134 -0.1062 -0.3857
 1978TIP3    H1 5940   2.517   2.688   1.702  0.4485  1.0065  2.0666
 1978TIP3    H2 5941   2.417   2.631   1.801  0.6065 -1.3776  0.9348
 1979TIP3   OH2 5942   5.964   5.452   0.470  0.1723 -0.3192 -0.2419
 1979TIP3    H1 5943   6.031   5.499   0.519 -0.9683 -0.0449  1.1363
 1979TIP3    H2 5944   6.000   5.364   0.457  0.2670 -0.6105  1.7176
 1980TIP3   OH2 5945   4.442   4.526   2.723  0.5026  0.3923 -0.1533
 1980TIP3    H1 5946   4.498   4.507   2.798 -1.0753  0.7015  1.1582
 1980TIP3    H2 5947   4.496   4.506   2.647  1.9704 -0.4609  1.0622
 1981TIP3   OH2 5948   5.973   3.689   4.579 -0.5475 -0.3637  0.4553
 1981TIP3    H1 5949   6.012   3.630   4.645  1.8150  1.0084  0.3690
 1981TIP3    H2 5950   5.995   3.649   4.495 -0.7068 -0.3965  0.4286
 1982TIP3   OH2 5951   3.743   1.847   0.287 -0.2103 -0.1813 -0.5100
 1982TIP3    H1 5952   3.756   1.752   0.293  0.6059 -0.1092 -0.9200
 1982TIP3    H2 5953   3.714   1.861   0.196 -0.6743 -0.0720 -0.3466
 1983TIP3   OH2 5954   6.279   0.068   4.574  0.4862 -0.0666 -0.0864
 1983TIP3    H1 5955   6.311   0.058   4.664  0.7091 -0.0889 -0.1661
 1983TIP3    H2 5956   6.221  -0.006   4.561 -0.2504  0.4209  0.3369
 1984TIP3   OH2 5957   3.163   4.509   1.108  0.3343 -0.4987  0.0121
 1984TIP3    H1 5958   3.184   4.584   1.051  2.1705 -1.1456 -0.2398
 1984TIP3    H2 5959   3.071   4.489   1.089  1.0374 -1.1671 -3.3461
 1985TIP3   OH2 5960   2.514   0.994   0.734  0.2557 -0.2879 -0.5100
 1985TIP3    H1 5961   2.494   1.005   0.641  1.2806 -2.2793 -1.0087
 1985TIP3    H2 5962   2.512   0.900   0.749  1.8215 -0.1392  1.0758
 1986TIP3   OH2 5963   3.864   5.439   3.778 -0.8545  0.2007  0.2400
 1986TIP3    H1 5964   3.949   5.474   3.806  0.0121 -2.1982  0.9315
 1986TIP3    H2 5965   3.802   5.474   3.841 -0.1555  1.0039  0.4974
 1987TIP3   OH2 5966   0.830   4.046   2.497  0.4353  0.3550 -0.1113
 1987TIP3    H1 5967   0.777   4.037   2.576 -2.0855 -0.6075 -1.8082
 1987TIP3    H2 5968   0.829   4.140   2.478  0.8949  0.5655  0.8408
 1988TIP3   OH2 5969   4.962   0.418   0.496  0.5941  0.3532  0.0565
 1988TIP3    H1 5970   5.016   0.405   0.418  0.4340 -1.7021  0.2419
 1988TIP3    H2 5971   4.993   0.352   0.558 -0.9322  0.3231  0.8244
 1989TIP3   OH2 5972   4.928   5.730   3.239  0.5008 -0.3181  0.4613
 1989TIP3    H1 5973   4.981   5.805   3.264 -0.6351  0.4903  0.4823
 1989TIP3    H2 5974   4.904   5.746   3.148 -0.3863 -0.2650  0.6962
 1990TIP3   OH2 5975   3.452   5.831   3.860 -0.0500 -0.2866 -0.0306
 1990TIP3    H1 5976   3.511   5.786   3.921  1.1180  0.3459 -0.6545
 1990TIP3    H2 5977   3.372   5.778   3.861  0.8314 -1.6739  0.1932
 1991TIP3   OH2 5978   2.105   4.635   1.238  0.1214 -0.0923 -0.2017
 1991TIP3    H1 5979   2.093   4.573   1.165  1.0689  0.0585 -0.4940
 1991TIP3    H2 5980   2.101   4.580   1.316  1.7126 -0.6717 -0.4879
 1992TIP3   OH2 5981   4.416   3.628   5.131 -0.5833 -0.0334  0.4642
 1992TIP3    H1 5982   4.328   3.665   5.131 -0.3087  0.6710 -0.2500
 1992TIP3    H2 5983   4.472   3.700   5.099 -0.0163 -1.0359 -0.8919
 1993TIP3   OH2 5984   6.019   4.590   3.888 -0.2514 -0.5470 -0.3549
 1993TIP3    H1 5985   5.984   4.634   3.811  0.2758 -1.2394 -1.0008
 1993TIP3    H2 5986   6.093   4.539   3.856 -0.2681 -1.1613  0.5355
 1994TIP3   OH2 5987   6.212   4.927   2.224 -0.7251 -0.0765  0.2777
 1994TIP3    H1 5988   6.302   4.947   2.197 -0.9997 -0.2927 -0.8273
 1994TIP3    H2 5989   6.173   5.012   2.242 -0.5375  0.0700 -0.0035
 1995TIP3   OH2 5990   4.649   3.126   2.606 -0.0826  0.4294  0.6773
 1995TIP3    H1 5991   4.655   3.218   2.582 -0.5055  0.2009 -0.3357
 1995TIP3    H2 5992   4.739   3.094   2.601 -0.1393  0.4190 -0.5207
 1996TIP3   OH2 5993   5.471   5.120   2.494 -0.5878 -0.5905  0.1014
 1996TIP3    H1 5994   5.538   5.052   2.503  1.2093  1.0872  0.0746
 1996TIP3    H2 5995   5.501   5.174   2.421  0.2601  2.5001  2.5186
 1997TIP3   OH2 5996   2.742   4.044   2.241  0.2950 -0.0273 -0.0929
 1997TIP3    H1 5997   2.697   3.992   2.308  1.7994 -0.7355  0.4208
 1997TIP3    H2 5998   2.770   4.123   2.286 -1.4901  1.0075 -0.7314
 1998TIP3   OH2 5999   1.655   0.903   4.103 -0.1227 -0.1836 -0.5972
 1998TIP3    H1 6000   1.697   0.833   4.153 -0.8683 -0.2977 -0.1180
 1998TIP3    H2 6001   1.715   0.921   4.031  1.2261  0.3321  0.6198
 1999TIP3   OH2 6002   0.066   4.856   2.457  0.7723 -0.6366 -0.2390
 1999TIP3    H1 6003   0.095   4.893   2.373  1.3373 -1.7550 -0.5613
 1999TIP3    H2 6004   0.098   4.766   2.455 -1.2029 -1.4056  0.1843
 2000TIP3   OH2 6005   0.418   5.181   3.938  0.8324 -0.0222  0.4999
 2000TIP3    H1 6006   0.503   5.174   3.894  0.4488 -0.6270 -0.1483
 2000TIP3    H2 6007   0.433   5.141   4.024  0.7548 -1.7288 -0.2501
 2001TIP3   OH2 6008   1.188   4.535   2.482  0.2755 -0.0943  0.2869
 2001TIP3    H1 6009   1.265   4.529   2.539  0.5681 -1.6026 -0.2192
 2001TIP3    H2 6010   1.115   4.546   2.542  0.8038  0.6593  0.8140
 2002TIP3   OH2 6011   3.806   3.684   3.305  0.8636 -0.8821 -0.8753
 2002TIP3    H1 6012   3.828   3.628   3.380  0.7270 -0.7378 -0.7233
 2002TIP3    H2 6013   3.842   3.770   3.329  0.7047 -0.8046 -0.9162
 2003TIP3   OH2 6014   1.134   0.029   2.367 -0.2386  0.4376  0.0574
 2003TIP3    H1 6015   1.091   0.115   2.366 -0.5497  0.3161  1.2364
 2003TIP3    H2 6016   1.201   0.037   2.436  0.4734  0.0718 -0.5766
 2004TIP3   OH2 6017   4.551   4.894   2.629 -0.6010 -0.0335  0.3034
 2004TIP3    H1 6018   4.600   4.825   2.674 -0.8862 -2.6866 -3.0258
 2004TIP3    H2 6019   4.602   4.912   2.550 -1.5140  2.3149  0.1627
 2005TIP3   OH2 6020   0.296   0.320   4.416  0.3655  0.0822  0.0507
 2005TIP3    H1 6021   0.375   0.267   4.426 -0.3273 -1.1802 -0.9363
 2005TIP3    H2 6022   0.291   0.370   4.497  2.6965  0.9314 -0.2381
 2006TIP3   OH2 6023   3.282   4.860   4.200  0.1107  0.0970  0.1656
 2006TIP3    H1 6024   3.302   4.953   4.209  0.0340  0.0002  1.4696
 2006TIP3    H2 6025   3.204   4.847   4.253  0.3803 -0.8006  0.3595
 2007TIP3   OH2 6026   2.044   1.477   1.448 -0.0917  0.5599  0.2068
 2007TIP3    H1 6027   1.953   1.502   1.434 -0.1400 -0.0432 -0.6607
 2007TIP3    H2 6028   2.045   1.382   1.435  0.9523  0.7637 -1.5465
 2008TIP3   OH2 6029   1.276   2.634   5.069 -0.3446  0.5704 -0.2237
 2008TIP3    H1 6030   1.357   2.600   5.107 -0.5279 -0.7047 -0.9123
 2008TIP3    H2 6031   1.246   2.700   5.131  0.1968 -0.3197  1.0215
 2009TIP3   OH2 6032   3.124   5.812   5.121 -0.1196  0.1636 -0.2084
 2009TIP3    H1 6033   3.207   5.821   5.074  1.3687 -2.6322  1.5564
 2009TIP3    H2 6034   3.150   5.806   5.213 -2.3486 -0.2406  0.4612
 2010TIP3   OH2 6035   1.490   4.469   4.868  0.2661 -0.4117  0.1563
 2010TIP3    H1 6036   1.422   4.435   4.810  0.5526 -0.6084 -0.0600
 2010TIP3    H2 6037   1.468   4.562   4.878  0.2711 -0.3599 -0.3306
 2011TIP3   OH2 6038   3.881   0.696   2.981 -0.0631 -0.2505 -0.3603
 2011TIP3    H1 6039   3.830   0.644   2.918 -2.4896  1.9713 -0.4037
 2011TIP3    H2 6040   3.817   0.757   3.019  1.9625  0.5543  2.0324
 2012TIP3   OH2 6041   5.926   4.299   4.073 -0.2804 -0.1125 -1.1190
 2012TIP3    H1 6042   5.979   4.288   4.152 -1.7778 -1.5533 -0.2400
 2012TIP3    H2 6043   5.884   4.384   4.083 -2.5643 -1.3500  1.0907
 2013TIP3   OH2 6044   1.358   1.817   2.001 -0.0382  0.0719 -0.1225
 2013TIP3    H1 6045   1.422   1.813   1.930 -0.1404  0.1605 -0.2208
 2013TIP3    H2 6046   1.284   1.764   1.971 -0.5118  0.9357 -0.5300
 2014TIP3   OH2 6047   6.181   0.669   1.447 -0.2867  0.1986 -0.1517
 2014TIP3    H1 6048   6.088   0.672   1.428 -0.0450  2.1012 -1.2741
 2014TIP3    H2 6049   6.214   0.756   1.425  1.5009  0.0658  1.7026
 2015TIP3   OH2 6050   5.928   2.695   1.124 -0.0716 -0.6130 -0.6619
 2015TIP3    H1 6051   6.013   2.660   1.150  0.9632  1.6129 -0.7926
 2015TIP3    H2 6052   5.943   2.789   1.115 -1.8551 -0.5079 -3.5590
 2016TIP3   OH2 6053   5.243   0.384   1.015  0.4515  0.0961  1.1658
 2016TIP3    H1 6054   5.283   0.334   1.087  1.7008 -0.3659  0.1787
 2016TIP3    H2 6055   5.233   0.320   0.944 -2.9929 -0.0833  1.6364
 2017TIP3   OH2 6056   0.830   0.604   1.746 -0.2894 -0.6213 -0.0662
 2017TIP3    H1 6057   0.863   0.545   1.678  0.3864 -0.7354  0.3596
 2017TIP3    H2 6058   0.861   0.690   1.720 -0.0511 -0.6614  0.0879
 2018TIP3   OH2 6059   6.035   5.834   4.851 -0.2764  0.4453  0.0595
 2018TIP3    H1 6060   5.989   5.821   4.934 -0.6980  0.4481 -0.1714
 2018TIP3    H2 6061   6.022   5.927   4.830 -1.7590  0.0537 -0.9302
 2019TIP3   OH2 6062   1.399   4.714   1.854  0.5936 -0.2234  0.0324
 2019TIP3    H1 6063   1.335   4.770   1.899  0.1269 -0.0164 -0.8635
 2019TIP3    H2 6064   1.434   4.769   1.784  0.2727 -0.9755 -0.7371
 2020TIP3   OH2 6065   2.845   0.739   4.146 -0.3988  0.3466  0.2568
 2020TIP3    H1 6066   2.940   0.725   4.141 -0.1292  0.9105  2.4880
 2020TIP3    H2 6067   2.808   0.651   4.143  0.4408 -0.1276  2.0552
 2021TIP3   OH2 6068   4.682   3.359   2.476  0.1936  0.0669 -0.2318
 2021TIP3    H1 6069   4.736   3.437   2.465  0.0898  0.1108 -0.4191
 2021TIP3    H2 6070   4.630   3.353   2.396 -0.0857  0.0285 -0.0507
 2022TIP3   OH2 6071   0.373   1.953   2.570  0.0629  0.1289  0.1160
 2022TIP3    H1 6072   0.394   1.978   2.660 -1.7140  3.5179 -0.2440
 2022TIP3    H2 6073   0.287   1.913   2.575 -0.2070  0.6692 -0.0747
 2023TIP3   OH2 6074   0.078   1.946   1.046  0.4138 -0.2396  0.0703
 2023TIP3    H1 6075   0.034   1.933   1.130 -1.2606  0.2837 -0.6643
 2023TIP3    H2 6076   0.044   1.875   0.991  0.4910  0.1697 -0.5126
 2024TIP3   OH2 6077   0.192   5.660   3.531  0.6851  0.5026  0.1418
 2024TIP3    H1 6078   0.280   5.653   3.567  1.2863  0.4874 -1.2542
 2024TIP3    H2 6079   0.199   5.621   3.443 -1.1517 -1.2235  0.7002
 2025TIP3   OH2 6080   5.752   3.932   2.918 -0.3526  0.0134  0.1219
 2025TIP3    H1 6081   5.745   3.922   3.013  1.0011  0.3526  0.2734
 2025TIP3    H2 6082   5.803   3.855   2.891 -0.0296  0.3455 -0.2143
 2026TIP3   OH2 6083   6.209   0.450   4.708 -0.3287 -0.2905  0.4490
 2026TIP3    H1 6084   6.172   0.377   4.757 -1.6867 -1.0255 -1.5335
 2026TIP3    H2 6085   6.199   0.526   4.766 -2.3964 -1.0018  1.1114
 2027TIP3   OH2 6086   5.892   0.803   0.129 -0.3912 -0.0932 -0.2935
 2027TIP3    H1 6087   5.942   0.798   0.048  0.3938  2.0528 -0.0079
 2027TIP3    H2 6088   5.803   0.823   0.101 -0.6353 -1.6558 -0.7001
 2028TIP3   OH2 6089   0.550   3.263   0.994 -0.0034  0.0140  0.5056
 2028TIP3    H1 6090   0.464   3.229   1.020 -0.2854  0.0352 -0.3660
 2028TIP3    H2 6091   0.576   3.320   1.066 -1.4724  1.3247  0.0519
 2029TIP3   OH2 6092   2.330   2.753   3.835 -0.3532 -0.0499 -0.3011
 2029TIP3    H1 6093   2.417   2.783   3.808  0.4010 -0.7758  1.2128
 2029TIP3    H2 6094   2.322   2.780   3.926 -1.5731 -0.3310 -0.2973
 2030TIP3   OH2 6095   5.920   3.258   4.267  0.0101 -0.0095  0.2865
 2030TIP3    H1 6096   5.892   3.223   4.182  2.0865  1.4970 -1.1252
 2030TIP3    H2 6097   5.873   3.341   4.275  0.4785  0.2725  0.1621
 2031TIP3   OH2 6098   3.607   0.266   5.173  0.4699 -0.3306 -0.3813
 2031TIP3    H1 6099   3.554   0.335   5.134  1.0781  0.2243 -0.2364
 2031TIP3    H2 6100   3.631   0.209   5.100 -1.2957 -1.2702 -0.2904
 2032TIP3   OH2 6101   2.665   3.904   0.375 -0.0536 -0.2243  0.6161
 2032TIP3    H1 6102   2.572   3.881   0.367  0.3369 -1.8332  0.3135
 2032TIP3    H2 6103   2.695   3.916   0.285 -0.0813  0.8671  0.7393
 2033TIP3   OH2 6104   2.452   1.288   0.270 -0.4886  0.0728 -0.2309
 2033TIP3    H1 6105   2.372   1.254   0.231 -0.1733 -1.0150  0.0274
 2033TIP3    H2 6106   2.514   1.293   0.198 -0.4536 -0.1723 -0.2182
 2034TIP3   OH2 6107   0.194   0.298   1.862 -0.4533  0.0187 -0.3886
 2034TIP3    H1 6108   0.199   0.202   1.860 -1.1710 -0.0928  1.4467
 2034TIP3    H2 6109   0.103   0.318   1.838 -0.7672  0.1343  0.8489
 2035TIP3   OH2 6110   5.507   5.618   0.488 -0.0557  0.2795  0.0159
 2035TIP3    H1 6111   5.422   5.575   0.497 -0.3128  0.9599  1.2003
 2035TIP3    H2 6112   5.566   5.551   0.453 -1.4113  0.2339 -2.3429
 2036TIP3   OH2 6113   3.132   0.922   0.487 -0.4812 -0.0802  0.3407
 2036TIP3    H1 6114   3.185   0.995   0.455 -0.6087 -0.1809 -0.1157
 2036TIP3    H2 6115   3.119   0.866   0.409 -0.1126 -0.7552  0.7498
 2037TIP3   OH2 6116   3.989   4.665   4.963  0.4252  0.3853 -0.3576
 2037TIP3    H1 6117   3.926   4.606   5.005 -0.6112  1.5461 -0.2213
 2037TIP3    H2 6118   3.975   4.749   5.005  1.0297  1.0194 -1.3811
 2038TIP3   OH2 6119   5.211   3.367   1.158 -0.1576 -0.5224 -0.5825
 2038TIP3    H1 6120   5.213   3.412   1.073  1.1814 -0.2650 -0.4445
 2038TIP3    H2 6121   5.121   3.378   1.188 -0.3460  0.4579 -1.4090
 2039TIP3   OH2 6122   3.223   5.682   3.806 -0.1263 -0.6365  0.1452
 2039TIP3    H1 6123   3.170   5.604   3.824  0.0952 -1.0855 -1.0476
 2039TIP3    H2 6124   3.233   5.682   3.711  1.7692 -0.4041  0.3017
 2040TIP3   OH2 6125   1.177   4.651   1.112  0.1274 -0.6063  0.2815
 2040TIP3    H1 6126   1.219   4.666   1.027 -0.5878  1.2142  0.2082
 2040TIP3    H2 6127   1.188   4.557   1.128  5.3545 -0.1913  0.8853
 2041TIP3   OH2 6128   1.754   4.073   2.411  0.2718  0.8045  1.0404
 2041TIP3    H1 6129   1.770   4.104   2.322 -0.9346  1.2455  0.9653
 2041TIP3    H2 6130   1.815   4.123   2.465 -0.8120  2.4733  0.7719
 2042TIP3   OH2 6131   6.278   1.015   3.958  0.6321  0.4873  0.4800
 2042TIP3    H1 6132   6.195   1.006   3.912  0.9575  1.3439 -0.2939
 2042TIP3    H2 6133   6.301   0.926   3.985 -0.0640  0.1211 -0.1246
 2043TIP3   OH2 6134   4.109   2.332   2.954  0.3622 -0.2150 -0.0085
 2043TIP3    H1 6135   4.065   2.262   3.002  0.3662 -1.6190 -1.9700
 2043TIP3    H2 6136   4.178   2.362   3.014 -0.4762 -0.9604  1.3798
 2044TIP3   OH2 6137   2.238   2.920   2.364  0.2672  0.0136 -0.1613
 2044TIP3    H1 6138   2.203   2.833   2.347  1.6291 -0.5405 -0.1905
 2044TIP3    H2 6139   2.323   2.922   2.320 -0.2490  1.7790 -1.2002
 2045TIP3   OH2 6140   1.599   5.121   0.646 -0.4548 -0.3470 -0.0957
 2045TIP3    H1 6141   1.656   5.188   0.686 -0.7413  0.2392 -0.6551
 2045TIP3    H2 6142   1.510   5.156   0.658 -0.6715 -1.0285  0.3443
 2046TIP3   OH2 6143   4.346   4.212   2.205  0.0559 -0.1450  0.0012
 2046TIP3    H1 6144   4.283   4.158   2.157  0.5843 -0.3234 -0.5063
 2046TIP3    H2 6145   4.338   4.183   2.296  0.3829 -1.1420 -0.2707
 2047TIP3   OH2 6146   4.011   1.799   5.040  0.2581 -0.7974 -0.2050
 2047TIP3    H1 6147   3.975   1.880   5.075  3.4992 -0.4650  2.9803
 2047TIP3    H2 6148   3.975   1.730   5.096  3.0168 -0.6035  2.0472
 2048TIP3   OH2 6149   1.759   0.181   2.447 -0.1743  0.2508  0.4109
 2048TIP3    H1 6150   1.809   0.213   2.372 -1.0321  0.1813 -0.1946
 2048TIP3    H2 6151   1.822   0.183   2.520 -0.0653  2.9019  0.3280
 2049TIP3   OH2 6152   0.167   5.596   3.885 -0.2800  0.2607 -0.9812
 2049TIP3    H1 6153   0.155   5.574   3.977 -1.1627 -0.4514 -1.2539
 2049TIP3    H2 6154   0.188   5.513   3.842  0.0915  0.5789 -1.4248
 2050TIP3   OH2 6155   5.800   0.839   1.402  0.2041  0.0925 -0.6561
 2050TIP3    H1 6156   5.840   0.756   1.428  1.3069  0.1963 -1.9102
 2050TIP3    H2 6157   5.709   0.831   1.430  0.7495 -0.7239  1.0332
 2051TIP3   OH2 6158   1.956   1.966   3.901 -0.2474  0.1844 -0.1833
 2051TIP3    H1 6159   1.865   1.976   3.875 -0.1311  1.0631 -0.2947
 2051TIP3    H2 6160   1.958   1.993   3.993 -0.2084 -0.4282 -0.0032
 2052TIP3   OH2 6161   2.944   2.179   1.090 -0.4283 -0.3391  0.2654
 2052TIP3    H1 6162   2.861   2.219   1.115 -1.0443 -0.2837 -1.7398
 2052TIP3    H2 6163   2.978   2.142   1.172 -0.5591  2.8300  1.9191
 2053TIP3   OH2 6164   4.669   4.683   4.296 -0.0820  0.0779  0.5912
 2053TIP3    H1 6165   4.729   4.746   4.256  0.9142 -1.7443 -0.9298
 2053TIP3    H2 6166   4.587   4.695   4.249  0.6080 -0.9033 -0.9337
 2054TIP3   OH2 6167   5.025   2.776   3.951 -0.0650 -0.0751  0.6336
 2054TIP3    H1 6168   5.116   2.772   3.980 -0.1050  0.2440  0.8010
 2054TIP3    H2 6169   4.986   2.696   3.986  0.1794 -0.2731  0.4618
 2055TIP3   OH2 6170   3.755   0.737   0.397  0.8133  0.0922 -0.1542
 2055TIP3    H1 6171   3.666   0.748   0.363  1.5516 -0.7081 -2.5263
 2055TIP3    H2 6172   3.743   0.724   0.491 -1.5824 -0.1231 -0.4202
 2056TIP3   OH2 6173   2.985   2.035   0.055  0.1491  0.5907  0.3333
 2056TIP3    H1 6174   2.928   1.965   0.086 -0.5599  0.7233 -0.6275
 2056TIP3    H2 6175   3.062   1.990   0.021 -0.0201  0.3156  0.3142
 2057TIP3   OH2 6176   6.059   3.898   4.966 -0.1205  0.1150  0.0574
 2057TIP3    H1 6177   6.042   3.911   4.873 -3.0540  5.0668  0.8976
 2057TIP3    H2 6178   6.113   3.973   4.991  0.0972 -0.7485  2.4451
 2058TIP3   OH2 6179   0.462   2.085   3.840 -0.6096 -0.1552 -0.2494
 2058TIP3    H1 6180   0.505   2.128   3.765  1.5507  0.9684  1.5066
 2058TIP3    H2 6181   0.495   1.995   3.838  2.1285  0.7089  1.1186
 2059TIP3   OH2 6182   2.797   5.213   4.655  0.2178 -0.6448  0.0405
 2059TIP3    H1 6183   2.780   5.119   4.659 -0.8152 -0.4498  0.8752
 2059TIP3    H2 6184   2.793   5.234   4.561 -3.2660 -0.8624  0.0016
 2060TIP3   OH2 6185   0.969   0.244   2.321  1.2988 -0.1445  0.2764
 2060TIP3    H1 6186   1.002   0.334   2.317  2.8712 -0.7283 -1.6449
 2060TIP3    H2 6187   0.967   0.215   2.229  2.6442 -2.6589  0.9501
 2061TIP3   OH2 6188   4.548   4.957   0.137  0.2805  0.1857 -0.3351
 2061TIP3    H1 6189   4.533   4.889   0.203  1.7976  2.0190  2.0750
 2061TIP3    H2 6190   4.632   4.933   0.097  0.7966  0.5610  0.4849
 2062TIP3   OH2 6191   5.031   4.671   1.100  0.3312 -0.5795  0.0344
 2062TIP3    H1 6192   4.983   4.655   1.018  0.3322 -0.0267 -0.0754
 2062TIP3    H2 6193   5.065   4.760   1.091 -0.7285 -0.0269  1.1753
 2063TIP3   OH2 6194   2.450   1.199   0.893 -0.2226 -0.7273  0.8328
 2063TIP3    H1 6195   2.471   1.167   0.980  3.7548 -2.3425 -0.4876
 2063TIP3    H2 6196   2.489   1.135   0.833 -1.3211  1.1294 -2.1313
 2064TIP3   OH2 6197   0.006   2.784   4.920  0.7265 -0.1722 -0.0010
 2064TIP3    H1 6198   0.004   2.695   4.886 -0.2477  0.2076 -0.9682
 2064TIP3    H2 6199   0.093   2.816   4.896  0.4022 -0.2318 -1.3239
 2065TIP3   OH2 6200   4.464   4.179   1.369  0.0351 -0.2098 -0.0242
 2065TIP3    H1 6201   4.383   4.165   1.417  0.7078 -0.6698  1.0129
 2065TIP3    H2 6202   4.524   4.218   1.433  0.1863  1.5332 -1.1665
 2066TIP3   OH2 6203   5.476   5.521   3.934  0.1347  0.3152 -0.4159
 2066TIP3    H1 6204   5.407   5.543   3.997 -0.5885 -0.4486 -0.9175
 2066TIP3    H2 6205   5.469   5.589   3.866 -0.3828  0.0275 -0.6559
 2067TIP3   OH2 6206   3.372   3.808   4.250  0.5390 -0.0035 -0.2234
 2067TIP3    H1 6207   3.457   3.778   4.284 -0.1797 -0.2952  1.4181
 2067TIP3    H2 6208   3.351   3.746   4.180  0.8185 -1.0704  0.6140
 2068TIP3   OH2 6209   5.902   3.923   1.482 -0.4359 -0.0877  0.4154
 2068TIP3    H1 6210   5.993   3.897   1.472 -0.5166  0.1367 -1.0768
 2068TIP3    H2 6211   5.882   3.905   1.574  0.8385 -0.9996  0.5382
 2069TIP3   OH2 6212   2.682   1.802   0.448  0.5224  0.7290 -0.3296
 2069TIP3    H1 6213   2.693   1.858   0.372  0.6768 -0.0250 -0.8813
 2069TIP3    H2 6214   2.759   1.819   0.503 -0.3213  2.3833  0.4186
 2070TIP3   OH2 6215   2.973   0.498   4.489  0.4588 -0.4050 -0.1587
 2070TIP3    H1 6216   2.960   0.408   4.459  2.6716 -0.8195 -0.0474
 2070TIP3    H2 6217   2.962   0.552   4.411  2.7333 -1.1499 -1.0398
 2071TIP3   OH2 6218   1.697   2.224   3.645 -0.1147  0.1195  0.1648
 2071TIP3    H1 6219   1.768   2.232   3.582  0.2462 -0.0964  0.5345
 2071TIP3    H2 6220   1.620   2.206   3.592  0.3873 -1.2312 -0.1491
 2072TIP3   OH2 6221   5.164   0.671   4.133  0.0527 -0.5874 -0.1335
 2072TIP3    H1 6222   5.202   0.715   4.057 -0.1240  0.1432  0.1953
 2072TIP3    H2 6223   5.199   0.719   4.208  0.2718 -1.3411  0.2512
 2073TIP3   OH2 6224   4.226   4.597   3.886 -0.5875  0.1630  0.7359
 2073TIP3    H1 6225   4.244   4.615   3.794  0.1152 -0.5008  0.7327
 2073TIP3    H2 6226   4.153   4.655   3.908 -1.0727 -0.0163 -0.3577
 2074TIP3   OH2 6227   0.529   3.310   0.601  1.0422 -0.0937 -0.1884
 2074TIP3    H1 6228   0.561   3.316   0.691 -0.3985 -1.6925  0.4794
 2074TIP3    H2 6229   0.457   3.373   0.597  0.8356 -0.3231 -0.0931
 2075TIP3   OH2 6230   3.872   5.531   2.427 -0.0232 -0.6124  0.4692
 2075TIP3    H1 6231   3.963   5.544   2.401 -0.2403  0.8265  0.3462
 2075TIP3    H2 6232   3.822   5.544   2.347 -0.2739 -3.1366  0.1317
 2076TIP3   OH2 6233   3.729   2.961   0.853 -0.2129 -0.0644 -0.5820
 2076TIP3    H1 6234   3.821   2.952   0.828  0.4516  0.0479  1.6116
 2076TIP3    H2 6235   3.694   2.872   0.850  0.5467 -0.4114  0.5548
 2077TIP3   OH2 6236   4.884   1.431   2.234  0.0029  0.0215 -0.1186
 2077TIP3    H1 6237   4.821   1.439   2.306  0.2070  0.0497  0.0606
 2077TIP3    H2 6238   4.953   1.375   2.270 -0.0757 -0.2743 -0.4208
 2078TIP3   OH2 6239   2.297   1.508   4.231 -0.7811  0.0648  0.0429
 2078TIP3    H1 6240   2.256   1.442   4.287 -2.0320  0.4180 -0.4053
 2078TIP3    H2 6241   2.282   1.591   4.277  3.0856 -0.0751  1.9659
 2079TIP3   OH2 6242   0.753   2.961   2.955  0.2886 -0.3955  0.0644
 2079TIP3    H1 6243   0.753   3.036   2.896  0.7539 -0.4251  0.0188
 2079TIP3    H2 6244   0.750   2.885   2.896  1.8257 -0.4506  0.0159
 2080TIP3   OH2 6245   0.400   0.516   2.757  0.3609 -0.0771 -0.1671
 2080TIP3    H1 6246   0.474   0.511   2.697  0.8675  1.9684  0.2055
 2080TIP3    H2 6247   0.343   0.584   2.720 -0.3063 -0.1849  0.6244
 2081TIP3   OH2 6248   2.150   4.905   2.120  0.1337  0.3128 -0.4091
 2081TIP3    H1 6249   2.155   4.914   2.216  1.2460 -1.2990 -0.2628
 2081TIP3    H2 6250   2.183   4.817   2.103 -0.2248  0.4989 -2.2859
 2082TIP3   OH2 6251   2.452   1.051   1.130 -0.0613 -0.8568 -0.1222
 2082TIP3    H1 6252   2.432   1.123   1.190 -1.0090  0.8664 -2.3707
 2082TIP3    H2 6253   2.544   1.031   1.149  0.7177  1.9914 -0.3858
 2083TIP3   OH2 6254   0.757   2.278   0.848  0.5991 -0.2335 -0.2510
 2083TIP3    H1 6255   0.750   2.307   0.757 -0.0351  1.3361  0.2663
 2083TIP3    H2 6256   0.786   2.355   0.896  0.2390 -0.8458  0.9985
 2084TIP3   OH2 6257   5.259   5.072   4.556 -0.2448 -0.2065 -0.3018
 2084TIP3    H1 6258   5.213   5.006   4.609 -1.0767  0.2799 -0.4014
 2084TIP3    H2 6259   5.319   5.114   4.618 -1.2049  0.3535  0.2784
 2085TIP3   OH2 6260   0.566   0.520   3.030 -0.0099  0.3776 -0.2183
 2085TIP3    H1 6261   0.493   0.502   3.088 -0.2629  1.3981 -0.1973
 2085TIP3    H2 6262   0.560   0.454   2.962 -1.2711  0.7604 -0.5077
 2086TIP3   OH2 6263   5.474   2.817   3.506 -0.1454 -0.4172  0.0629
 2086TIP3    H1 6264   5.471   2.742   3.446  0.6187 -0.3650 -0.0579
 2086TIP3    H2 6265   5.564   2.818   3.538 -0.6226 -0.6512  1.4881
 2087TIP3   OH2 6266   6.122   5.229   1.848  0.9225 -0.1591 -0.1895
 2087TIP3    H1 6267   6.184   5.268   1.909  1.7916 -0.3934 -0.9018
 2087TIP3    H2 6268   6.176   5.202   1.773 -0.1160  0.1000 -1.0454
 2088TIP3   OH2 6269   0.221   0.938   4.800  0.0716 -0.4129 -0.7343
 2088TIP3    H1 6270   0.178   0.878   4.739 -0.3151 -0.8430 -0.0394
 2088TIP3    H2 6271   0.269   0.882   4.860 -0.1068 -0.0198 -0.2191
 2089TIP3   OH2 6272   4.068   5.145   3.017 -0.3832 -0.0457  0.0290
 2089TIP3    H1 6273   4.058   5.107   3.104  0.6242  1.1570  0.7049
 2089TIP3    H2 6274   3.994   5.111   2.967 -0.7180 -1.1335  1.2104
 2090TIP3   OH2 6275   0.985   2.638   0.883 -0.3995 -0.1213  0.1592
 2090TIP3    H1 6276   0.910   2.593   0.923  0.9258 -1.0747  1.6388
 2090TIP3    H2 6277   0.944   2.699   0.821 -2.4929  0.5452  2.0411
 2091TIP3   OH2 6278   3.499   4.230   0.434 -0.4028 -0.3662 -0.5069
 2091TIP3    H1 6279   3.581   4.195   0.400 -0.3929 -1.3658  0.4843
 2091TIP3    H2 6280   3.431   4.180   0.389 -0.3824 -2.6024  1.6966
 2092TIP3   OH2 6281   4.790   4.269   4.975  0.3801 -0.4153 -0.6400
 2092TIP3    H1 6282   4.882   4.295   4.980  0.0010  1.1547 -1.3787
 2092TIP3    H2 6283   4.753   4.294   5.060 -0.0308  1.8503 -1.4085
 2093TIP3   OH2 6284   4.151   3.386   4.002 -0.1784 -0.7598 -0.3493
 2093TIP3    H1 6285   4.188   3.449   4.064 -3.2697  0.9532 -0.0570
 2093TIP3    H2 6286   4.187   3.302   4.030 -0.6833  0.0494  3.2240
 2094TIP3   OH2 6287   1.763   5.747   4.374 -0.0830 -0.5184  0.4473
 2094TIP3    H1 6288   1.723   5.681   4.318  1.0658 -0.9049  0.0653
 2094TIP3    H2 6289   1.856   5.744   4.353 -0.0295  1.4598  0.1648
 2095TIP3   OH2 6290   0.294   0.389   1.037  0.4254 -0.6715 -0.1864
 2095TIP3    H1 6291   0.283   0.398   1.131  0.2350 -2.2221 -0.0301
 2095TIP3    H2 6292   0.388   0.398   1.022  0.2920  1.2126 -0.0799
 2096TIP3   OH2 6293   5.931   3.228   0.537 -0.1413 -0.5499 -0.0797
 2096TIP3    H1 6294   5.956   3.292   0.469 -0.6221 -1.3490 -1.0413
 2096TIP3    H2 6295   5.885   3.280   0.603  0.7719  0.3290 -0.1114
 2097TIP3   OH2 6296   4.692   4.062   0.628  0.1621  0.3301 -0.1421
 2097TIP3    H1 6297   4.723   3.991   0.685  1.9183  1.4829  0.4312
 2097TIP3    H2 6298   4.653   4.018   0.553  0.4663 -1.2352  0.5798
 2098TIP3   OH2 6299   4.993   4.965   1.178 -0.0001 -0.7359 -0.0509
 2098TIP3    H1 6300   5.055   4.925   1.239 -1.1371 -0.6469  1.2329
 2098TIP3    H2 6301   5.041   5.036   1.137  0.7142 -0.5885  0.9983
 2099TIP3   OH2 6302   3.438   2.716   2.562  1.2604 -0.2817  0.4500
 2099TIP3    H1 6303   3.394   2.661   2.627 -1.1554  1.0831  0.0877
 2099TIP3    H2 6304   3.480   2.785   2.614  0.0034  0.3618  0.6329
 2100TIP3   OH2 6305   2.608   3.544   1.940  0.0550  0.2918 -0.0954
 2100TIP3    H1 6306   2.696   3.533   1.903  0.5937 -0.8091  1.4176
 2100TIP3    H2 6307   2.563   3.600   1.877  2.0634  1.5012 -0.5757
 2101TIP3   OH2 6308   2.168   4.222   2.189  0.8397 -0.3918  0.3899
 2101TIP3    H1 6309   2.126   4.137   2.203  1.2892 -1.0804 -2.0310
 2101TIP3    H2 6310   2.111   4.267   2.127  1.9709 -0.0599 -0.4450
 2102TIP3   OH2 6311   5.780   5.764   5.124  0.2409 -0.0544 -0.1245
 2102TIP3    H1 6312   5.862   5.722   5.149  0.9649  0.6121 -1.2614
 2102TIP3    H2 6313   5.769   5.740   5.031 -1.4677 -1.0971  0.2990
 2103TIP3   OH2 6314   4.017   1.342   3.073 -0.1205  0.1516  0.6831
 2103TIP3    H1 6315   4.013   1.247   3.083  0.9858  0.1113  0.8544
 2103TIP3    H2 6316   4.111   1.363   3.072 -0.1454  0.8271 -3.3337
 2104TIP3   OH2 6317   1.295   2.975   3.902  0.2417 -0.5930  0.0254
 2104TIP3    H1 6318   1.363   3.007   3.961  1.8182 -0.9336 -1.5196
 2104TIP3    H2 6319   1.266   2.892   3.941 -0.8844  0.5738  1.8233
 2105TIP3   OH2 6320   5.308   5.410   3.328  0.3257  0.8887 -0.4704
 2105TIP3    H1 6321   5.246   5.340   3.351  1.4542 -0.1432 -0.4555
 2105TIP3    H2 6322   5.338   5.387   3.240  1.3102  0.8932 -0.1512
 2106TIP3   OH2 6323   6.120   4.353   3.534  0.8493 -0.0069  0.2803
 2106TIP3    H1 6324   6.162   4.396   3.460  1.8251 -0.1011  0.7603
 2106TIP3    H2 6325   6.091   4.268   3.500 -0.8905  0.8975 -0.6118
 2107TIP3   OH2 6326   3.498   1.411   0.935 -0.2299 -0.1147  0.2391
 2107TIP3    H1 6327   3.584   1.442   0.963  0.5464 -0.8849 -1.1677
 2107TIP3    H2 6328   3.460   1.372   1.014  0.1583  1.3770  1.1941
 2108TIP3   OH2 6329   5.682   3.565   4.012  0.5774 -0.7218 -0.0565
 2108TIP3    H1 6330   5.713   3.545   3.923  0.9307  1.6431 -0.5265
 2108TIP3    H2 6331   5.614   3.500   4.029  1.0970 -1.7578 -1.7120
 2109TIP3   OH2 6332   3.224   5.318   1.333 -0.1514  0.2958  0.1929
 2109TIP3    H1 6333   3.289   5.248   1.341  0.1907  0.6406  0.4767
 2109TIP3    H2 6334   3.269   5.387   1.285 -0.1874  0.6773  0.6988
 2110TIP3   OH2 6335   2.519   5.583   3.369  0.7939  0.0497  0.2699
 2110TIP3    H1 6336   2.559   5.670   3.379 -0.2766  0.7806 -1.4109
 2110TIP3    H2 6337   2.535   5.560   3.278  0.8549 -1.4528  0.6396
 2111TIP3   OH2 6338   4.200   2.613   4.621  0.0190  0.3163 -0.0949
 2111TIP3    H1 6339   4.235   2.606   4.710 -0.3643 -0.7476 -0.0090
 2111TIP3    H2 6340   4.278   2.621   4.565  0.2631  0.9160  0.3201
 2112TIP3   OH2 6341   2.530   0.895   2.756  0.2681  0.0287 -0.1284
 2112TIP3    H1 6342   2.545   0.805   2.726 -0.6812 -0.5825  1.1398
 2112TIP3    H2 6343   2.609   0.916   2.807  1.0712  0.4188 -1.4728
 2113TIP3   OH2 6344   2.140   4.545   0.971  0.1871 -0.2502  0.3595
 2113TIP3    H1 6345   2.162   4.472   0.912 -2.1388 -1.6881  1.1307
 2113TIP3    H2 6346   2.055   4.575   0.941  0.4328  1.1644  1.0221
 2114TIP3   OH2 6347   2.675   3.679   1.304  0.7816  0.9109 -0.6996
 2114TIP3    H1 6348   2.605   3.655   1.365  1.2035  1.1057 -0.1324
 2114TIP3    H2 6349   2.631   3.687   1.219 -0.2682  3.0465 -0.0042
 2115TIP3   OH2 6350   0.428   0.926   3.933 -0.1187 -0.6803  0.2447
 2115TIP3    H1 6351   0.517   0.960   3.923  0.3937 -2.0282 -0.0945
 2115TIP3    H2 6352   0.436   0.832   3.913 -1.5974 -0.8493  0.3141
 2116TIP3   OH2 6353   3.856   0.888   1.031 -0.5129  0.1813  0.4081
 2116TIP3    H1 6354   3.948   0.893   1.055 -0.6236  1.2258  0.6752
 2116TIP3    H2 6355   3.854   0.916   0.939 -0.5133 -0.3635  0.2347
 2117TIP3   OH2 6356   4.403   5.404   1.260 -0.8344 -0.3193 -0.1998
 2117TIP3    H1 6357   4.366   5.320   1.230 -0.6471  0.1686 -1.9296
 2117TIP3    H2 6358   4.356   5.470   1.210 -1.2309  0.6690  1.4086
 2118TIP3   OH2 6359   2.895   5.268   2.024 -0.2711 -0.1188 -0.0068
 2118TIP3    H1 6360   2.920   5.295   1.936 -0.9501  0.9153  0.1038
 2118TIP3    H2 6361   2.978   5.253   2.069  0.0765 -0.8790 -0.8790
 2119TIP3   OH2 6362   5.331   2.633   3.710  0.1576 -0.2984 -0.5157
 2119TIP3    H1 6363   5.243   2.669   3.708  0.3913  0.3425  0.3659
 2119TIP3    H2 6364   5.385   2.698   3.666  0.5986  0.5502  1.1808
 2120TIP3   OH2 6365   2.900   2.758   4.542  0.2014 -0.8299 -0.0530
 2120TIP3    H1 6366   2.975   2.770   4.483 -0.5133 -1.2429 -1.0825
 2120TIP3    H2 6367   2.938   2.721   4.622  1.2539  0.1621 -0.0754
 2121TIP3   OH2 6368   5.972   3.083   2.308 -0.4802 -0.8625  0.4380
 2121TIP3    H1 6369   5.949   3.124   2.391 -1.2615 -0.6443  0.1213
 2121TIP3    H2 6370   5.918   3.128   2.243  1.0165 -0.1740 -0.3773
 2122TIP3   OH2 6371   5.875   0.178   2.693 -0.2496 -0.3406 -0.1835
 2122TIP3    H1 6372   5.965   0.162   2.720 -0.6101 -0.1935  1.1526
 2122TIP3    H2 6373   5.854   0.104   2.635  0.1911 -1.2768  0.8251
 2123TIP3   OH2 6374   1.204   5.557   3.231 -0.2128  0.6745 -1.1102
 2123TIP3    H1 6375   1.224   5.525   3.319 -1.8234 -0.6500 -1.1815
 2123TIP3    H2 6376   1.241   5.646   3.229  1.3006  0.1373  0.3066
 2124TIP3   OH2 6377   1.528   5.994   4.948 -0.1887  0.0998  0.1922
 2124TIP3    H1 6378   1.554   5.903   4.964  2.9197  0.7212 -0.6748
 2124TIP3    H2 6379   1.436   5.997   4.972  0.3352 -2.5470  3.1478
 2125TIP3   OH2 6380   3.034   3.092   1.849 -0.4020 -0.2112  0.0004
 2125TIP3    H1 6381   3.000   3.008   1.880 -2.1427  0.4253 -0.0263
 2125TIP3    H2 6382   2.978   3.114   1.775  1.7850 -0.2855 -1.7674
 2126TIP3   OH2 6383   0.142   3.262   4.683 -0.1119 -0.1463 -0.2368
 2126TIP3    H1 6384   0.056   3.224   4.669 -0.5694  0.8830 -0.3228
 2126TIP3    H2 6385   0.199   3.215   4.622 -0.2119 -2.0929  1.0891
 2127TIP3   OH2 6386   1.039   0.701   2.797 -0.6024 -0.2181  0.0203
 2127TIP3    H1 6387   1.105   0.659   2.852  1.1823  0.7056 -1.2994
 2127TIP3    H2 6388   1.028   0.788   2.834 -1.7972 -0.6575  0.7627
 2128TIP3   OH2 6389   5.314   2.810   4.037  0.4358 -0.4329  0.1040
 2128TIP3    H1 6390   5.327   2.718   4.061  1.7356  0.0967  1.5862
 2128TIP3    H2 6391   5.362   2.859   4.104 -0.8102  1.3554 -0.2507
 2129TIP3   OH2 6392   4.157   3.761   2.214 -0.2638  0.0314  0.2300
 2129TIP3    H1 6393   4.231   3.704   2.191 -0.2659 -0.3225  1.0610
 2129TIP3    H2 6394   4.084   3.701   2.227 -0.5615  0.3333 -0.0387
 2130TIP3   OH2 6395   5.429   5.893   0.521  0.2466  0.1743 -0.2935
 2130TIP3    H1 6396   5.497   5.828   0.506  1.1294  0.6999  1.2697
 2130TIP3    H2 6397   5.422   5.941   0.438  1.0702 -0.5297 -0.7785
 2131TIP3   OH2 6398   3.918   1.159   4.657 -0.2935  0.3728 -0.0718
 2131TIP3    H1 6399   3.940   1.163   4.564  0.3219  1.2652  0.0960
 2131TIP3    H2 6400   4.000   1.139   4.701 -0.5592  0.0703  0.2921
 2132TIP3   OH2 6401   1.527   3.561   3.074 -0.0481  0.4701  0.0346
 2132TIP3    H1 6402   1.509   3.578   3.167  0.7261  0.1814  0.2499
 2132TIP3    H2 6403   1.493   3.637   3.029  2.8891  2.5090  0.9217
 2133TIP3   OH2 6404   5.143   4.637   2.238  0.1051 -0.1893 -0.3779
 2133TIP3    H1 6405   5.110   4.727   2.247  0.6433 -0.0046 -0.1771
 2133TIP3    H2 6406   5.238   4.646   2.247  0.0937 -0.9009  0.6095
 2134TIP3   OH2 6407   4.309   4.505   0.578 -0.1666 -0.2283 -0.1559
 2134TIP3    H1 6408   4.263   4.540   0.501 -0.3106  0.5231  0.2551
 2134TIP3    H2 6409   4.401   4.505   0.553 -0.0438  1.4569  0.1817
 2135TIP3   OH2 6410   4.658   2.114   4.137  0.2818  0.1507 -0.1083
 2135TIP3    H1 6411   4.672   2.073   4.052  0.7584 -1.3826  0.6810
 2135TIP3    H2 6412   4.565   2.101   4.155  0.6571 -1.7880  0.6901
 2136TIP3   OH2 6413   1.546   1.157   1.975 -0.7399 -0.3383 -0.8549
 2136TIP3    H1 6414   1.561   1.243   1.936  0.2709 -0.4445 -0.7232
 2136TIP3    H2 6415   1.450   1.148   1.976 -0.8316  0.1642 -2.2017
 2137TIP3   OH2 6416   4.131   4.358   2.639  0.7793 -0.7129 -0.2171
 2137TIP3    H1 6417   4.079   4.281   2.663 -0.4019  0.1081 -0.0576
 2137TIP3    H2 6418   4.210   4.351   2.692  0.8641 -2.0165 -0.4946
 2138TIP3   OH2 6419   1.740   5.542   3.398  0.0423  0.3148  0.2105
 2138TIP3    H1 6420   1.756   5.448   3.392  1.2906  0.4746  0.6958
 2138TIP3    H2 6421   1.682   5.552   3.474  0.4764 -0.0042  0.5877
 2139TIP3   OH2 6422   5.560   4.857   4.026 -0.2053 -0.0426  0.1511
 2139TIP3    H1 6423   5.635   4.904   3.988 -1.1117  1.6942  0.4065
 2139TIP3    H2 6424   5.562   4.771   3.983 -0.4882  1.4052 -3.0331
 2140TIP3   OH2 6425   5.553   4.150   1.940 -0.4173  0.4849 -0.4485
 2140TIP3    H1 6426   5.641   4.183   1.920 -0.2092  1.7016  2.0432
 2140TIP3    H2 6427   5.546   4.158   2.036 -2.8683 -0.5839 -0.4645
 2141TIP3   OH2 6428   5.586   0.479   1.307 -0.3053  0.9075  0.0659
 2141TIP3    H1 6429   5.663   0.478   1.250  0.1013  1.6250  0.5824
 2141TIP3    H2 6430   5.531   0.549   1.273 -0.1526  1.2093  0.4311
 2142TIP3   OH2 6431   3.135   2.634   5.136 -0.1465 -0.0530  0.0016
 2142TIP3    H1 6432   3.126   2.548   5.094 -0.6801 -0.1710  0.3470
 2142TIP3    H2 6433   3.208   2.676   5.090  0.3271 -0.8123  0.0483
 2143TIP3   OH2 6434   5.376   0.287   1.244 -0.5156  1.2885  0.3768
 2143TIP3    H1 6435   5.467   0.312   1.257 -0.3631  0.5778  0.7719
 2143TIP3    H2 6436   5.331   0.317   1.323 -0.5071  1.1341  0.4421
 2144TIP3   OH2 6437   2.814   2.173   4.968  0.0805  0.7366 -0.2504
 2144TIP3    H1 6438   2.892   2.161   4.914  1.3377 -1.1896  1.8182
 2144TIP3    H2 6439   2.847   2.180   5.058 -2.1119 -1.2075  0.8226
 2145TIP3   OH2 6440   1.880   3.438   4.645  0.1437 -0.2097  0.0892
 2145TIP3    H1 6441   1.941   3.368   4.622  0.4274  0.1566 -0.2838
 2145TIP3    H2 6442   1.918   3.478   4.723  1.9591  1.8731 -1.7355
 2146TIP3   OH2 6443   6.198   0.798   4.603 -0.2434 -0.2813  0.0904
 2146TIP3    H1 6444   6.124   0.765   4.654 -1.9432  4.1083  0.8798
 2146TIP3    H2 6445   6.164   0.804   4.514 -0.3415  0.2793  0.1615
 2147TIP3   OH2 6446   5.530   4.032   1.094  0.3471  0.0116 -0.2550
 2147TIP3    H1 6447   5.511   4.122   1.070 -2.5248 -0.0833  1.2488
 2147TIP3    H2 6448   5.542   4.034   1.189 -0.6919 -1.2897 -0.0644
 2148TIP3   OH2 6449   3.716   0.228   2.299 -0.4217 -0.4108 -0.3713
 2148TIP3    H1 6450   3.740   0.184   2.381 -0.4739 -0.5777 -0.4445
 2148TIP3    H2 6451   3.793   0.218   2.243 -0.4397 -0.4237 -0.3940
 2149TIP3   OH2 6452   6.189   0.031   0.249 -0.1863  0.3066  0.7802
 2149TIP3    H1 6453   6.240   0.004   0.325  0.0448  1.3328  0.9983
 2149TIP3    H2 6454   6.229   0.113   0.220 -0.5127  0.1391 -0.2160
 2150TIP3   OH2 6455   2.725   2.392   2.996  0.4396  0.7806  0.1690
 2150TIP3    H1 6456   2.654   2.404   2.933  0.9708  0.9055 -0.4170
 2150TIP3    H2 6457   2.682   2.390   3.082 -0.3476  0.0279 -0.2368
 2151TIP3   OH2 6458   5.828   0.355   1.520 -0.1763 -0.2974  0.7286
 2151TIP3    H1 6459   5.803   0.374   1.610 -1.5829 -0.6250  0.4377
 2151TIP3    H2 6460   5.758   0.299   1.487 -0.4056  0.8996 -0.9783
 2152TIP3   OH2 6461   3.667   3.104   0.135  0.0291 -0.4389  0.5607
 2152TIP3    H1 6462   3.696   3.096   0.044 -0.7705 -2.7717  0.4543
 2152TIP3    H2 6463   3.747   3.097   0.187  0.2747 -1.0761  0.0993
 2153TIP3   OH2 6464   5.003   3.621   1.907  0.9066  0.2794  0.3242
 2153TIP3    H1 6465   5.056   3.557   1.955  0.3362  0.0388  0.6498
 2153TIP3    H2 6466   4.980   3.687   1.973  3.1403  1.9217 -0.4426
 2154TIP3   OH2 6467   3.316   2.534   1.393  0.3203  0.1393  0.7962
 2154TIP3    H1 6468   3.263   2.516   1.471 -1.3169 -0.1366 -0.3381
 2154TIP3    H2 6469   3.257   2.518   1.320  2.1336 -0.6944 -0.5563
 2155TIP3   OH2 6470   2.128   4.193   4.995 -0.4673  0.2983  0.3819
 2155TIP3    H1 6471   2.217   4.227   5.003 -0.0723 -0.7276  0.5072
 2155TIP3    H2 6472   2.128   4.112   5.047 -1.2865 -0.0655 -0.1592
 2156TIP3   OH2 6473   2.568   5.946   0.899  0.4102  0.2537 -0.5658
 2156TIP3    H1 6474   2.530   5.861   0.880  2.1323 -1.3344  2.4163
 2156TIP3    H2 6475   2.656   5.943   0.862  0.6761  0.4994  0.0295
 2157TIP3   OH2 6476   4.317   1.874   4.588  0.6100 -0.0650  0.3142
 2157TIP3    H1 6477   4.266   1.795   4.575  1.0750 -0.3571  0.2272
 2157TIP3    H2 6478   4.279   1.938   4.528  0.7418 -0.4612 -0.1974
 2158TIP3   OH2 6479   5.896   2.219   3.263 -0.1285 -0.1877 -0.8041
 2158TIP3    H1 6480   5.906   2.264   3.348 -0.6576 -0.3069 -0.6723
 2158TIP3    H2 6481   5.912   2.127   3.283 -0.7132 -0.2788 -0.7364
 2159TIP3   OH2 6482   1.547   2.424   4.861 -0.1048 -0.1865  0.2814
 2159TIP3    H1 6483   1.574   2.473   4.938  0.1552 -1.8780  1.3171
 2159TIP3    H2 6484   1.569   2.333   4.881 -2.2125 -1.0120 -0.8037
 2160TIP3   OH2 6485   0.620   2.866   5.109  0.1777  0.0384 -0.0772
 2160TIP3    H1 6486   0.591   2.956   5.091 -1.5999 -0.3465  0.6049
 2160TIP3    H2 6487   0.601   2.819   5.028  1.2259  0.2896 -0.4777
 2161TIP3   OH2 6488   4.109   0.680   2.704  0.1934  0.3165 -0.0818
 2161TIP3    H1 6489   4.091   0.606   2.647 -1.0769  0.5233  0.0285
 2161TIP3    H2 6490   4.085   0.650   2.792  2.0827  0.0186  0.3932
 2162TIP3   OH2 6491   5.261   3.734   0.916 -0.3589 -0.0390 -0.4251
 2162TIP3    H1 6492   5.347   3.766   0.888 -0.0806 -0.2053  0.2261
 2162TIP3    H2 6493   5.210   3.729   0.835  0.9327 -2.0993 -1.1818
 2163TIP3   OH2 6494   4.510   2.445   4.788  0.6087  0.2956 -0.3923
 2163TIP3    H1 6495   4.458   2.514   4.828 -0.0608 -0.6519  0.4196
 2163TIP3    H2 6496   4.452   2.404   4.724  0.3825 -0.6564  0.3966
 2164TIP3   OH2 6497   5.144   3.928   3.513 -0.2720  0.2643 -0.2136
 2164TIP3    H1 6498   5.202   3.970   3.577  0.0615 -1.3354  0.5911
 2164TIP3    H2 6499   5.098   3.860   3.563 -0.3310 -0.7493 -1.5705
 2165TIP3   OH2 6500   0.392   0.858   2.093  0.8916 -0.5392 -0.1446
 2165TIP3    H1 6501   0.340   0.834   2.016 -1.9832  1.9701  0.8242
 2165TIP3    H2 6502   0.344   0.821   2.167  1.9375 -0.3218  0.6725
 2166TIP3   OH2 6503   0.142   1.746   2.112 -0.5685 -0.1115  0.0190
 2166TIP3    H1 6504   0.069   1.805   2.098 -0.2895  0.6884  1.7236
 2166TIP3    H2 6505   0.217   1.803   2.131 -0.0832 -0.9614  0.7896
 2167TIP3   OH2 6506   3.034   0.046   4.214  0.1057 -0.0506  0.2050
 2167TIP3    H1 6507   2.999  -0.028   4.165  1.3026 -1.1229  0.9401
 2167TIP3    H2 6508   3.067   0.009   4.295 -0.8155  1.5419  1.3768
 2168TIP3   OH2 6509   2.810   1.660   1.100  0.8377 -0.3031 -0.1989
 2168TIP3    H1 6510   2.817   1.686   1.008  0.3224 -0.5990 -0.3223
 2168TIP3    H2 6511   2.900   1.637   1.125  0.7341 -1.7882 -1.0920
 2169TIP3   OH2 6512   1.660   3.433   1.782  0.3302 -0.0023  0.3969
 2169TIP3    H1 6513   1.653   3.527   1.798  1.4941  0.3135 -0.7966
 2169TIP3    H2 6514   1.633   3.393   1.864  0.5180  1.3938  1.1688
 2170TIP3   OH2 6515   0.994   2.520   3.756  0.3460  0.7024  0.2553
 2170TIP3    H1 6516   0.905   2.555   3.747  0.5127  0.8563 -0.9522
 2170TIP3    H2 6517   0.988   2.455   3.826 -0.9213  0.0469 -0.4322
 2171TIP3   OH2 6518   3.402   5.033   3.710 -0.1666 -0.8041  0.2009
 2171TIP3    H1 6519   3.334   5.050   3.775  0.1957 -1.0401  0.6468
 2171TIP3    H2 6520   3.366   4.963   3.655 -2.2198  2.0796 -2.4556
 2172TIP3   OH2 6521   5.625   5.550   1.943 -0.3594  0.2676 -0.0246
 2172TIP3    H1 6522   5.715   5.581   1.935 -0.8445  1.8480  0.2755
 2172TIP3    H2 6523   5.582   5.575   1.861 -0.8532  0.7261  0.3618
 2173TIP3   OH2 6524   5.958   1.791   0.087 -0.6620  0.2037  0.8116
 2173TIP3    H1 6525   5.881   1.775   0.032 -1.1134 -1.7219  1.9097
 2173TIP3    H2 6526   6.018   1.720   0.065  0.2389  0.8979  0.9737
 2174TIP3   OH2 6527   2.536   4.807   0.009 -0.8888 -0.3086 -0.0480
 2174TIP3    H1 6528   2.549   4.901   0.018  0.2684 -0.4670  0.0959
 2174TIP3    H2 6529   2.442   4.794   0.026 -1.2286  0.9007 -0.8899
 2175TIP3   OH2 6530   5.317   4.292   4.563  0.6085  0.2651  0.3420
 2175TIP3    H1 6531   5.328   4.265   4.472 -2.0132  2.8307 -0.8841
 2175TIP3    H2 6532   5.262   4.225   4.602  1.9452 -0.9767  0.1762
 2176TIP3   OH2 6533   2.214   4.712   0.454 -0.4506 -0.0692  0.6147
 2176TIP3    H1 6534   2.231   4.618   0.456 -1.3878 -0.2728  0.0540
 2176TIP3    H2 6535   2.280   4.750   0.511 -0.5380 -1.1479  1.4735
 2177TIP3   OH2 6536   5.836   4.140   3.423  0.0938 -0.3106 -0.1961
 2177TIP3    H1 6537   5.921   4.105   3.449 -0.0980 -0.2866  0.4820
 2177TIP3    H2 6538   5.857   4.212   3.363  0.5682 -0.1152  0.1906
 2178TIP3   OH2 6539   3.141   3.812   2.486 -0.0877  0.0939  0.3712
 2178TIP3    H1 6540   3.191   3.763   2.421  1.3801  0.9391  0.8249
 2178TIP3    H2 6541   3.061   3.838   2.440 -0.0457 -1.1157 -0.4288
 2179TIP3   OH2 6542   4.817   5.943   3.492  0.1284  0.1437 -0.2833
 2179TIP3    H1 6543   4.770   5.926   3.574 -1.8863  1.7478 -1.0433
 2179TIP3    H2 6544   4.851   6.032   3.502  1.0226 -0.1414 -0.6871
 2180TIP3   OH2 6545   5.235   2.028   4.990  0.2462  0.2724 -0.0920
 2180TIP3    H1 6546   5.160   2.063   5.038  0.8263 -1.2549  2.0841
 2180TIP3    H2 6547   5.198   1.995   4.909 -1.5513 -0.7584  1.0718
 2181TIP3   OH2 6548   3.543   2.606   2.908  0.5742 -0.1069  0.3263
 2181TIP3    H1 6549   3.461   2.653   2.894  1.5154  1.7047  0.5014
 2181TIP3    H2 6550   3.538   2.530   2.850 -0.9234  0.3502 -0.1840
 2182TIP3   OH2 6551   5.559   4.680   3.699 -0.6909  0.0609 -0.8647
 2182TIP3    H1 6552   5.593   4.600   3.661 -2.4058 -0.1691 -2.0711
 2182TIP3    H2 6553   5.562   4.666   3.793 -0.1848 -1.0673 -1.0393
 2183TIP3   OH2 6554   6.295   1.897   1.285  0.5490  0.0460 -0.7453
 2183TIP3    H1 6555   6.200   1.890   1.287  0.5841 -0.3274  0.0769
 2183TIP3    H2 6556   6.326   1.810   1.309  1.0692  0.7591  1.3900
 2184TIP3   OH2 6557   4.044   5.842   4.885 -0.0266  0.0855  0.0111
 2184TIP3    H1 6558   3.964   5.806   4.847  0.1446  1.2793 -1.5944
 2184TIP3    H2 6559   4.114   5.810   4.828  0.1693  2.4929 -1.2378
 2185TIP3   OH2 6560   0.765   0.988   1.102  0.1988 -0.1322 -0.1478
 2185TIP3    H1 6561   0.678   1.007   1.138  0.3477 -0.8440  0.6240
 2185TIP3    H2 6562   0.824   1.041   1.156  0.3817 -0.8652  0.3848
 2186TIP3   OH2 6563   0.519   3.088   0.471 -0.0618 -0.0123 -0.2318
 2186TIP3    H1 6564   0.482   3.118   0.388  0.5037 -0.0395 -0.5056
 2186TIP3    H2 6565   0.545   3.168   0.517  2.2793 -0.0259 -1.3536
 2187TIP3   OH2 6566   1.550   5.476   3.880 -0.0408  0.4879  0.3103
 2187TIP3    H1 6567   1.487   5.455   3.949  0.1593  1.2090  0.7203
 2187TIP3    H2 6568   1.610   5.401   3.880 -0.5921  0.0431  0.2721
 2188TIP3   OH2 6569   0.235   0.774   4.399  0.2540 -0.2126 -0.0775
 2188TIP3    H1 6570   0.215   0.681   4.389 -3.0277  0.3480  0.2301
 2188TIP3    H2 6571   0.213   0.813   4.314  0.6746  0.4229  0.0968
 2189TIP3   OH2 6572   5.443   0.298   3.981 -0.0068 -0.2763 -0.0880
 2189TIP3    H1 6573   5.441   0.207   3.951  1.2689  0.3475 -2.2787
 2189TIP3    H2 6574   5.351   0.319   3.997 -0.4368 -1.6194 -0.6242
 2190TIP3   OH2 6575   1.583   1.979   0.913 -0.3029  0.1363 -0.0601
 2190TIP3    H1 6576   1.637   1.926   0.971 -0.6917 -0.1084  0.0813
 2190TIP3    H2 6577   1.642   2.046   0.880 -0.0613  0.2569  0.5906
 2191TIP3   OH2 6578   5.848   2.455   4.595 -0.4359  1.1063  0.3317
 2191TIP3    H1 6579   5.830   2.541   4.558 -1.5882  0.7716  0.0814
 2191TIP3    H2 6580   5.825   2.464   4.688  0.2706  1.3034  0.4925
 2192TIP3   OH2 6581   0.890   3.399   2.356  0.1364  0.3771  0.0951
 2192TIP3    H1 6582   0.972   3.367   2.319 -0.0395 -0.5915  0.5323
 2192TIP3    H2 6583   0.917   3.447   2.435  0.3867  1.2237 -0.4901
 2193TIP3   OH2 6584   2.585   5.402   0.032  0.1899 -0.0799  0.5769
 2193TIP3    H1 6585   2.506   5.457   0.033  1.4026  1.8604 -1.4800
 2193TIP3    H2 6586   2.648   5.450   0.086  0.7645 -0.2509  0.0718
 2194TIP3   OH2 6587   2.440   2.509   3.115 -0.4281  0.0016  0.6331
 2194TIP3    H1 6588   2.444   2.541   3.025  1.5087 -1.2106  0.2223
 2194TIP3    H2 6589   2.414   2.585   3.167  0.3203  1.2340 -0.7181
 2195TIP3   OH2 6590   4.514   5.600   3.534  0.2178  0.4502 -0.0460
 2195TIP3    H1 6591   4.542   5.639   3.451  1.6419 -0.2282  0.0967
 2195TIP3    H2 6592   4.454   5.530   3.508  1.8579 -0.7903 -0.6299
 2196TIP3   OH2 6593   4.617   1.695   2.126  0.6508  0.3431 -0.0641
 2196TIP3    H1 6594   4.595   1.743   2.046  2.7743 -0.5971 -1.2943
 2196TIP3    H2 6595   4.662   1.616   2.095  0.9118 -0.4013  2.0576
 2197TIP3   OH2 6596   1.686   1.346   3.926  0.0661  0.1386 -0.1294
 2197TIP3    H1 6597   1.669   1.307   4.012 -0.7032 -0.4390 -0.5272
 2197TIP3    H2 6598   1.599   1.356   3.887  0.3168  1.4769 -0.3819
 2198TIP3   OH2 6599   5.223   1.546   2.690 -0.0931 -0.3064  0.0357
 2198TIP3    H1 6600   5.180   1.588   2.765 -0.0982 -0.4352  0.1054
 2198TIP3    H2 6601   5.168   1.569   2.615 -1.2477 -1.8560  0.3516
 2199TIP3   OH2 6602   2.797   3.400   3.454  0.1035  0.1844  0.0763
 2199TIP3    H1 6603   2.861   3.401   3.383  0.0766  0.4014  0.0533
 2199TIP3    H2 6604   2.826   3.329   3.511 -0.1625 -0.3277 -0.4098
 2200TIP3   OH2 6605   0.307   1.010   1.778  0.5850  0.3623  0.4813
 2200TIP3    H1 6606   0.359   1.084   1.748 -1.3768  1.6925  0.1301
 2200TIP3    H2 6607   0.340   0.935   1.729  1.8256  1.2229 -0.0490
 2201TIP3   OH2 6608   1.461   3.351   1.205 -0.2987  0.2310 -0.5004
 2201TIP3    H1 6609   1.464   3.440   1.170  2.9057  0.4952  0.0611
 2201TIP3    H2 6610   1.448   3.362   1.299 -0.1920  0.0898 -0.4682
 2202TIP3   OH2 6611   3.588   3.326   0.979 -0.2405  0.2344  0.1095
 2202TIP3    H1 6612   3.622   3.260   1.039 -0.4354  0.6951  0.7439
 2202TIP3    H2 6613   3.653   3.330   0.909 -0.6008 -1.1452 -0.3264
 2203TIP3   OH2 6614   2.143   3.878   1.089  0.0998  0.6089 -0.4019
 2203TIP3    H1 6615   2.158   3.937   1.162 -0.3290  1.4915 -1.0166
 2203TIP3    H2 6616   2.106   3.933   1.020  0.6346 -0.1783 -1.3402
 2204TIP3   OH2 6617   5.243   2.027   4.032 -0.0873  0.2294  0.4171
 2204TIP3    H1 6618   5.296   2.084   4.087  0.0154  1.4204 -0.8461
 2204TIP3    H2 6619   5.283   1.941   4.039  0.4070  0.5393  1.5358
 2205TIP3   OH2 6620   1.921   0.465   3.530 -0.0703  0.1447 -0.8387
 2205TIP3    H1 6621   1.885   0.380   3.553  0.0189  0.0310 -1.1198
 2205TIP3    H2 6622   2.015   0.451   3.524 -0.1586 -0.0406 -2.1506
 2206TIP3   OH2 6623   6.307   2.672   0.583  0.3060  0.7156  0.0594
 2206TIP3    H1 6624   6.340   2.660   0.494 -0.7527 -0.0673 -0.2393
 2206TIP3    H2 6625   6.305   2.767   0.595 -0.9385  0.9010 -1.2974
 2207TIP3   OH2 6626   5.073   5.180   0.627 -0.5056 -0.2035  0.0830
 2207TIP3    H1 6627   5.029   5.264   0.640 -0.1590 -0.1187  0.7617
 2207TIP3    H2 6628   5.013   5.115   0.664  0.1216 -0.0407  1.4592
 2208TIP3   OH2 6629   1.768   5.894   2.249 -0.4304 -0.5258 -0.1574
 2208TIP3    H1 6630   1.778   5.987   2.269 -0.9479 -0.5281  0.1187
 2208TIP3    H2 6631   1.749   5.853   2.333  0.2585 -0.9597 -0.2000
 2209TIP3   OH2 6632   5.170   0.461   0.273  0.1896 -0.0336  0.0711
 2209TIP3    H1 6633   5.229   0.536   0.271 -1.0644  1.1372  2.4194
 2209TIP3    H2 6634   5.228   0.385   0.278  1.6357  1.0890  2.6419
 2210TIP3   OH2 6635   1.861   2.513   4.577  0.2001 -0.5469 -0.4283
 2210TIP3    H1 6636   1.820   2.522   4.491  0.9190  1.4401 -0.6088
 2210TIP3    H2 6637   1.831   2.428   4.609 -1.9102 -0.3340 -1.6641
 2211TIP3   OH2 6638   3.640   0.773   3.340  0.5677 -0.0777 -0.1220
 2211TIP3    H1 6639   3.568   0.833   3.358  0.3160 -0.2620 -0.5135
 2211TIP3    H2 6640   3.667   0.793   3.250  0.0897 -0.9477 -0.4732
 2212TIP3   OH2 6641   6.092   0.025   1.177  0.3568  0.0818  0.1757
 2212TIP3    H1 6642   6.067   0.081   1.251 -0.3718 -0.7076  0.5507
 2212TIP3    H2 6643   6.111   0.086   1.106 -0.9612  0.8080  0.4015
 2213TIP3   OH2 6644   5.506   3.841   0.832  0.6111 -0.6415 -0.5438
 2213TIP3    H1 6645   5.528   3.932   0.852  1.0819 -0.7242 -0.6751
 2213TIP3    H2 6646   5.568   3.816   0.763  0.1747 -0.9143 -0.8434
 2214TIP3   OH2 6647   3.255   5.793   4.833  0.3931  0.2852  0.0511
 2214TIP3    H1 6648   3.219   5.705   4.839  1.6200 -0.3108 -0.8460
 2214TIP3    H2 6649   3.250   5.815   4.739  1.5250  0.5204  0.0289
 2215TIP3   OH2 6650   0.300   4.981   1.083 -0.0503 -0.0834 -0.8518
 2215TIP3    H1 6651   0.228   4.950   1.028 -0.0963 -0.8455 -0.3854
 2215TIP3    H2 6652   0.262   5.049   1.138  0.0573  0.8631 -1.9239
 2216TIP3   OH2 6653   0.646   1.198   4.524  0.2693  0.1276  0.2849
 2216TIP3    H1 6654   0.699   1.119   4.515 -0.4938 -0.3371 -0.3264
 2216TIP3    H2 6655   0.709   1.270   4.523  0.9725 -0.4694  0.7910
 2217TIP3   OH2 6656   4.346   0.513   4.978 -0.5697  0.0150 -0.0247
 2217TIP3    H1 6657   4.257   0.518   5.012 -0.1140  0.9639  1.0728
 2217TIP3    H2 6658   4.340   0.452   4.905 -1.8590 -0.9905  0.8784
 2218TIP3   OH2 6659   0.203   2.948   3.118  0.2935 -0.0839 -0.2568
 2218TIP3    H1 6660   0.289   2.914   3.143 -1.0502 -2.3323  1.7487
 2218TIP3    H2 6661   0.187   3.020   3.179  0.8916  0.6282 -0.9191
 2219TIP3   OH2 6662   1.910   3.517   3.111 -0.3054 -0.6848 -0.3912
 2219TIP3    H1 6663   1.874   3.441   3.064 -2.7813  0.0639  0.1935
 2219TIP3    H2 6664   1.910   3.587   3.046 -0.3266 -0.5556 -0.2511
 2220TIP3   OH2 6665   1.292   1.368   2.020 -0.4938 -0.2161 -0.2460
 2220TIP3    H1 6666   1.215   1.410   2.058 -0.0880 -0.9241  1.4637
 2220TIP3    H2 6667   1.310   1.418   1.941 -2.9050 -0.2776 -0.8935
 2221TIP3   OH2 6668   5.025   4.543   2.767 -0.1712 -0.2048 -0.4316
 2221TIP3    H1 6669   5.051   4.607   2.833  0.5539 -0.9006 -0.0221
 2221TIP3    H2 6670   4.935   4.565   2.745 -0.8636 -0.7073  1.6996
 2222TIP3   OH2 6671   1.762   0.958   3.828  0.5565  0.4250  0.0492
 2222TIP3    H1 6672   1.677   0.930   3.794  0.1000  2.3703 -0.5432
 2222TIP3    H2 6673   1.790   1.027   3.768  1.4708  1.3915  1.5327
 2223TIP3   OH2 6674   0.064   0.556   4.386 -0.2651  0.1223  0.1693
 2223TIP3    H1 6675   0.039   0.464   4.396  0.7389 -0.4703 -2.0378
 2223TIP3    H2 6676  -0.003   0.593   4.329 -0.2065  0.5430  0.3725
 2224TIP3   OH2 6677   3.742   2.704   0.944 -0.2879  0.0667 -0.1241
 2224TIP3    H1 6678   3.831   2.705   0.908 -0.5242  0.1070 -0.7166
 2224TIP3    H2 6679   3.688   2.669   0.874 -0.5410 -1.3370  0.7333
 2225TIP3   OH2 6680   4.091   4.194   0.391 -0.4564 -0.5902 -0.3976
 2225TIP3    H1 6681   4.178   4.204   0.429 -1.5114  1.5774  1.7225
 2225TIP3    H2 6682   4.088   4.259   0.320  0.4044 -2.4055 -2.2146
 2226TIP3   OH2 6683   6.085   0.211   2.476 -0.0571  0.0830  0.2211
 2226TIP3    H1 6684   6.090   0.165   2.560 -0.8486 -0.7909 -0.1928
 2226TIP3    H2 6685   6.153   0.278   2.482  0.1957 -0.2456  1.3868
 2227TIP3   OH2 6686   0.670   1.363   3.215  0.2351 -0.2641 -0.2801
 2227TIP3    H1 6687   0.755   1.394   3.184 -0.2808  2.5966  0.8325
 2227TIP3    H2 6688   0.634   1.314   3.141  1.8241  0.5873 -1.7047
 2228TIP3   OH2 6689   0.557   5.583   0.201 -0.0867 -0.2607  0.4975
 2228TIP3    H1 6690   0.541   5.513   0.265  0.7267  0.1939  1.2189
 2228TIP3    H2 6691   0.584   5.658   0.254 -0.1986  0.3723 -0.3264
 2229TIP3   OH2 6692   3.280   1.923   3.345  0.1181 -0.5490  0.1744
 2229TIP3    H1 6693   3.347   1.905   3.412  0.0917 -0.5433  0.2025
 2229TIP3    H2 6694   3.272   2.018   3.345  1.0898 -0.4438 -0.7900
 2230TIP3   OH2 6695   5.203   0.856   0.751 -1.0304  0.0298  0.3440
 2230TIP3    H1 6696   5.152   0.785   0.713 -1.2144 -0.9360  2.2821
 2230TIP3    H2 6697   5.255   0.814   0.820 -0.8310  1.6940  1.2613
 2231TIP3   OH2 6698   0.537   4.504   3.792 -0.1321  0.2102 -0.3028
 2231TIP3    H1 6699   0.612   4.469   3.840 -0.4814 -1.5512 -0.9696
 2231TIP3    H2 6700   0.557   4.597   3.782  0.6038  0.3714  1.9849
 2232TIP3   OH2 6701   0.119   4.370   0.243 -0.2534 -0.1620  0.1875
 2232TIP3    H1 6702   0.140   4.350   0.334  0.6125  0.3684  0.1134
 2232TIP3    H2 6703   0.026   4.347   0.234 -0.6067  0.6819  1.4646
 2233TIP3   OH2 6704   3.965   5.747   1.085 -0.0089 -0.4422 -0.3881
 2233TIP3    H1 6705   3.894   5.699   1.127 -0.0280  0.8485  1.1501
 2233TIP3    H2 6706   3.976   5.825   1.139  0.0514  1.2873 -2.7223
 2234TIP3   OH2 6707   3.644   1.879   1.993  0.7718 -0.3979 -0.4211
 2234TIP3    H1 6708   3.690   1.958   1.964  1.3044 -0.4710  0.2014
 2234TIP3    H2 6709   3.583   1.910   2.060 -0.1480 -0.2932 -1.2823
 2235TIP3   OH2 6710   5.510   2.769   1.413  0.0944  0.4452 -0.1465
 2235TIP3    H1 6711   5.556   2.723   1.344  0.9632  1.8028 -0.5010
 2235TIP3    H2 6712   5.576   2.785   1.480 -0.4556  0.2124  0.4676
 2236TIP3   OH2 6713   5.709   4.776   4.312 -0.5514 -0.5620  0.2885
 2236TIP3    H1 6714   5.749   4.783   4.398  0.7854 -1.5596 -0.2219
 2236TIP3    H2 6715   5.739   4.854   4.266 -0.9302 -0.2412  0.5730
 2237TIP3   OH2 6716   4.701   0.663   4.232  0.0490  0.4495 -0.2505
 2237TIP3    H1 6717   4.652   0.635   4.155 -1.3574 -0.0027  0.7820
 2237TIP3    H2 6718   4.721   0.756   4.216 -0.6394  0.4813 -0.9513
 2238TIP3   OH2 6719   4.289   1.897   2.095  0.3860 -0.1558 -0.0275
 2238TIP3    H1 6720   4.215   1.930   2.146 -0.9672 -0.3463 -1.7595
 2238TIP3    H2 6721   4.248   1.850   2.022  2.2407 -0.8509 -0.6712
 2239TIP3   OH2 6722   3.810   3.113   1.545 -0.4076 -0.9783 -0.6988
 2239TIP3    H1 6723   3.855   3.087   1.626 -0.5309 -0.3244 -0.4121
 2239TIP3    H2 6724   3.806   3.033   1.493 -1.0208 -1.5953  0.2738
 2240TIP3   OH2 6725   4.723   2.139   1.925  0.1038 -0.4905  0.2024
 2240TIP3    H1 6726   4.634   2.147   1.962  0.4032  0.8142  0.6940
 2240TIP3    H2 6727   4.740   2.224   1.885  0.4539 -1.3343 -1.5312
 2241TIP3   OH2 6728   2.475   2.923   0.581  0.1020 -0.2483 -0.2278
 2241TIP3    H1 6729   2.411   2.852   0.582  0.8754 -0.9810 -0.9174
 2241TIP3    H2 6730   2.425   2.999   0.552 -0.3772 -0.9199 -1.2570
 2242TIP3   OH2 6731   1.934   0.660   1.073 -0.1354  0.5401  0.1088
 2242TIP3    H1 6732   1.899   0.571   1.077 -2.3335  1.2256 -1.6103
 2242TIP3    H2 6733   1.871   0.708   1.019  1.4740  2.9230  0.1907
 2243TIP3   OH2 6734   6.172   5.856   0.418 -0.0162  0.1588  0.1925
 2243TIP3    H1 6735   6.263   5.848   0.390 -0.3285 -0.6407 -0.6415
 2243TIP3    H2 6736   6.143   5.939   0.382  0.3609  0.3938  0.4172
 2244TIP3   OH2 6737   1.389   0.931   4.184  0.4478 -0.4119  0.3860
 2244TIP3    H1 6738   1.405   0.963   4.273  1.3855 -2.1332  0.8753
 2244TIP3    H2 6739   1.476   0.919   4.146  0.0648  0.5286 -0.8917
 2245TIP3   OH2 6740   6.199   5.467   3.182  0.0540  0.0348 -0.0981
 2245TIP3    H1 6741   6.127   5.440   3.125 -0.9097 -0.7551  1.3941
 2245TIP3    H2 6742   6.186   5.561   3.194 -1.0993 -0.1803  0.5638
 2246TIP3   OH2 6743   1.207   5.122   1.787 -0.1872  0.3162  0.1641
 2246TIP3    H1 6744   1.154   5.056   1.832  0.4241  1.1822  2.2644
 2246TIP3    H2 6745   1.236   5.078   1.707 -1.7896 -1.1013  0.2929
 2247TIP3   OH2 6746   4.369   1.543   1.906  0.0600 -0.1893 -0.6634
 2247TIP3    H1 6747   4.295   1.569   1.961 -1.0189 -1.4903 -1.4308
 2247TIP3    H2 6748   4.416   1.624   1.889 -0.7700  0.5555  0.4520
 2248TIP3   OH2 6749   2.593   3.771   3.308  0.5645 -0.3983  0.2734
 2248TIP3    H1 6750   2.618   3.729   3.390  0.1542 -0.4618  0.3716
 2248TIP3    H2 6751   2.506   3.734   3.289  1.8715 -2.6955 -1.7629
 2249TIP3   OH2 6752   1.130   1.664   1.941  0.2876  0.7288 -0.3137
 2249TIP3    H1 6753   1.135   1.624   2.028 -0.1879 -0.2563 -0.7285
 2249TIP3    H2 6754   1.043   1.703   1.937  0.0526  0.1900 -0.5840
 2250TIP3   OH2 6755   6.050   5.944   3.382 -0.0727  0.3912  0.0916
 2250TIP3    H1 6756   6.031   5.946   3.476  1.3864 -0.0694  0.4227
 2250TIP3    H2 6757   6.098   5.862   3.369 -0.0031  0.5896 -1.0081
 2251TIP3   OH2 6758   3.670   4.073   2.258  0.4572  0.2701  0.1116
 2251TIP3    H1 6759   3.594   4.050   2.311 -1.0341  3.0193 -0.6633
 2251TIP3    H2 6760   3.634   4.101   2.174  2.5627 -1.0726 -1.3584
 2252TIP3   OH2 6761   5.750   2.764   3.586  0.4400  0.3776  0.5070
 2252TIP3    H1 6762   5.777   2.815   3.662 -0.5229  0.5932  0.7229
 2252TIP3    H2 6763   5.757   2.673   3.614  0.2554  0.4523  0.8018
 2253TIP3   OH2 6764   6.118   0.575   0.772 -0.6810  0.4858 -0.0982
 2253TIP3    H1 6765   6.093   0.560   0.681  1.8632  1.0662 -0.9725
 2253TIP3    H2 6766   6.164   0.495   0.798 -0.3366  0.7989  0.2644
 2254TIP3   OH2 6767   1.451   4.456   1.532 -0.2254 -0.1931  0.0494
 2254TIP3    H1 6768   1.406   4.537   1.505  1.2781  0.7229  0.1506
 2254TIP3    H2 6769   1.532   4.487   1.573  1.8014 -1.7705 -2.4334
 2255TIP3   OH2 6770   5.902   2.388   1.698 -0.1025 -0.0022 -0.1546
 2255TIP3    H1 6771   5.951   2.391   1.616  2.2423  0.3650  1.1704
 2255TIP3    H2 6772   5.846   2.465   1.696  1.5902  1.2884 -0.5066
 2256TIP3   OH2 6773   3.618   4.588   2.159 -0.4442 -0.1239 -0.6470
 2256TIP3    H1 6774   3.686   4.524   2.177  0.0291  0.1339 -1.4704
 2256TIP3    H2 6775   3.632   4.613   2.067  0.2741  2.1881  0.0166
 2257TIP3   OH2 6776   1.547   3.230   2.735  0.1572  0.2515 -0.1544
 2257TIP3    H1 6777   1.572   3.241   2.827 -1.1302  0.9195  0.1376
 2257TIP3    H2 6778   1.630   3.227   2.688  0.8325  0.0487  1.0104
 2258TIP3   OH2 6779   3.217   4.000   1.140  0.3516  0.2941  0.7565
 2258TIP3    H1 6780   3.305   3.992   1.104  1.1122 -0.3420  2.6316
 2258TIP3    H2 6781   3.209   4.092   1.165  0.1156  0.5597 -0.2648
 2259TIP3   OH2 6782   3.526   2.558   1.681 -0.2529 -0.4145 -0.2230
 2259TIP3    H1 6783   3.522   2.482   1.623 -1.5374  0.1158 -0.8827
 2259TIP3    H2 6784   3.449   2.549   1.737 -1.9995  1.7007 -2.0723
 2260TIP3   OH2 6785   1.595   5.494   3.614  0.4904  0.7778 -0.2533
 2260TIP3    H1 6786   1.622   5.494   3.706  0.7582  0.6364 -0.3283
 2260TIP3    H2 6787   1.515   5.546   3.612 -0.0197  0.0413  0.2075
 2261TIP3   OH2 6788   5.160   2.899   4.776  0.2152  0.4701  0.3038
 2261TIP3    H1 6789   5.153   2.987   4.811 -2.1537 -0.5149  2.5818
 2261TIP3    H2 6790   5.230   2.858   4.828  1.7291  1.0736 -1.1461
 2262TIP3   OH2 6791   1.648   0.412   2.046  0.2926  0.6182 -0.2714
 2262TIP3    H1 6792   1.648   0.437   1.953 -0.6139 -0.9184 -0.7276
 2262TIP3    H2 6793   1.691   0.326   2.047 -0.7718  0.0829  0.5635
 2263TIP3   OH2 6794   1.041   2.930   4.969 -0.3776 -0.4421  0.0172
 2263TIP3    H1 6795   1.022   2.922   5.062  0.2034  0.2080  0.1990
 2263TIP3    H2 6796   1.055   2.840   4.939 -0.2670 -0.6280  0.6250
 2264TIP3   OH2 6797   1.256   5.298   0.918  0.7051 -0.2584 -0.4087
 2264TIP3    H1 6798   1.178   5.353   0.924  1.0990  0.2205  0.7678
 2264TIP3    H2 6799   1.329   5.360   0.915  1.0584 -0.6976 -1.5501
 2265TIP3   OH2 6800   4.061   1.923   1.294  0.5026  0.6310  0.0517
 2265TIP3    H1 6801   4.107   1.975   1.227  0.5555  0.0347 -0.3816
 2265TIP3    H2 6802   4.086   1.833   1.275 -0.1356  0.3817  0.3771
 2266TIP3   OH2 6803   3.451   0.373   1.619 -0.4451  0.0567  0.1157
 2266TIP3    H1 6804   3.534   0.364   1.571 -0.0897  1.3352  0.4544
 2266TIP3    H2 6805   3.450   0.297   1.678  2.3538  1.8346  2.7905
 2267TIP3   OH2 6806   5.139   0.746   4.832  0.0238 -0.0986 -0.9395
 2267TIP3    H1 6807   5.228   0.771   4.857 -0.8089  1.7450  0.3663
 2267TIP3    H2 6808   5.125   0.662   4.875  0.5368  0.4284  0.2928
 2268TIP3   OH2 6809   3.081   5.089   2.927  0.0523  0.8192 -0.1230
 2268TIP3    H1 6810   3.088   5.093   3.022  1.4430  0.2973 -0.1878
 2268TIP3    H2 6811   2.988   5.072   2.910 -0.2097  0.9371  1.1249
 2269TIP3   OH2 6812   1.532   4.508   1.058 -0.3082 -0.5007 -0.2343
 2269TIP3    H1 6813   1.442   4.514   1.088  0.0892  0.9812  0.7497
 2269TIP3    H2 6814   1.558   4.417   1.076 -0.8615 -0.3107  1.6854
 2270TIP3   OH2 6815   3.001   4.519   0.489  0.5037  0.7820  0.1895
 2270TIP3    H1 6816   2.947   4.470   0.551 -0.0773  0.7430 -0.3252
 2270TIP3    H2 6817   3.045   4.585   0.541  1.5540 -0.4867  0.9554
 2271TIP3   OH2 6818   5.143   3.693   2.179  0.3804  0.3501  0.1809
 2271TIP3    H1 6819   5.186   3.630   2.120 -0.6598  0.0924 -0.3298
 2271TIP3    H2 6820   5.057   3.707   2.140  0.2178  1.3182  0.8530
 2272TIP3   OH2 6821   2.392   4.665   2.447 -0.3449 -0.3808 -0.3482
 2272TIP3    H1 6822   2.350   4.590   2.404  1.2129 -1.4845 -0.0195
 2272TIP3    H2 6823   2.458   4.626   2.504 -0.8663  1.1511  1.4073
 2273TIP3   OH2 6824   2.736   4.522   0.696  0.0628  0.4269 -0.4004
 2273TIP3    H1 6825   2.715   4.441   0.648 -0.0837 -0.6559  1.3937
 2273TIP3    H2 6826   2.730   4.591   0.630 -0.7295 -0.9119 -1.8029
 2274TIP3   OH2 6827   5.141   5.188   3.341  0.3962 -0.0007  0.5033
 2274TIP3    H1 6828   5.198   5.153   3.410 -2.2147 -1.1153  2.2261
 2274TIP3    H2 6829   5.103   5.111   3.299 -0.7897  0.7092  0.2345
 2275TIP3   OH2 6830   0.118   0.557   0.866  0.3345  0.1461  0.2096
 2275TIP3    H1 6831   0.146   0.636   0.913  1.9179  0.1151 -0.5914
 2275TIP3    H2 6832   0.142   0.485   0.925 -1.8805  0.2259  1.3191
 2276TIP3   OH2 6833   0.194   3.993   3.178 -0.9453 -0.5423  0.2195
 2276TIP3    H1 6834   0.107   3.995   3.219 -1.1530 -1.5773 -0.1308
 2276TIP3    H2 6835   0.242   3.926   3.227 -0.5669 -0.4427 -0.0097
 2277TIP3   OH2 6836   4.109   4.165   0.880  0.2539  0.0123 -0.2389
 2277TIP3    H1 6837   4.082   4.155   0.971 -2.2040  1.0300 -0.7797
 2277TIP3    H2 6838   4.075   4.087   0.836 -1.3994  1.0132 -0.8150
 2278TIP3   OH2 6839   4.242   3.147   0.940 -0.1510  0.4711 -0.4229
 2278TIP3    H1 6840   4.312   3.166   1.003 -1.2018 -1.6194  1.5054
 2278TIP3    H2 6841   4.289   3.119   0.861  1.1823  0.6752  0.2582
 2279TIP3   OH2 6842   6.327   5.198   5.055 -0.1257 -0.0539  0.4555
 2279TIP3    H1 6843   6.337   5.200   5.151 -0.2706 -0.0635  0.4708
 2279TIP3    H2 6844   6.292   5.285   5.034  2.0550  0.8429  0.1702
 2280TIP3   OH2 6845   0.750   5.517   0.429 -0.3543  0.4920 -0.5336
 2280TIP3    H1 6846   0.770   5.424   0.435 -0.4803  0.3316 -2.1026
 2280TIP3    H2 6847   0.835   5.560   0.418 -0.4309  0.2459 -2.6300
 2281TIP3   OH2 6848   3.152   3.536   3.080  0.5810  0.1030 -0.4753
 2281TIP3    H1 6849   3.232   3.484   3.072  0.1273 -1.0257  1.6948
 2281TIP3    H2 6850   3.086   3.475   3.111 -0.2454  1.7436  1.2040
 2282TIP3   OH2 6851   6.100   3.466   0.492  0.2254  0.0455 -0.4238
 2282TIP3    H1 6852   6.157   3.413   0.437  0.2607 -1.4657  1.0102
 2282TIP3    H2 6853   6.143   3.552   0.495  0.3060  0.1284 -2.5620
 2283TIP3   OH2 6854   3.937   0.211   2.141  0.0359 -0.1809 -0.4722
 2283TIP3    H1 6855   3.931   0.246   2.052 -1.5251  0.5095 -0.1441
 2283TIP3    H2 6856   4.015   0.252   2.177 -1.1441  2.3051 -0.4572
 2284TIP3   OH2 6857   4.008   3.524   2.252  0.1724 -0.1097  1.0843
 2284TIP3    H1 6858   3.976   3.495   2.337  1.3602 -0.5809  1.3878
 2284TIP3    H2 6859   3.973   3.459   2.190  1.5452 -1.3761  1.5732
 2285TIP3   OH2 6860   3.463   4.932   1.324  0.3096 -0.4281  0.0812
 2285TIP3    H1 6861   3.483   5.025   1.324 -3.2718  0.4653  0.6783
 2285TIP3    H2 6862   3.435   4.913   1.235 -0.7202 -0.4651  0.4023
 2286TIP3   OH2 6863   4.808   2.799   0.218 -0.1396  0.4003 -0.0906
 2286TIP3    H1 6864   4.902   2.813   0.223  0.1283 -1.0469 -0.5671
 2286TIP3    H2 6865   4.787   2.751   0.298 -0.8165  2.2876  0.9191
 2287TIP3   OH2 6866   1.315   1.511   2.842 -0.4977  1.0452 -0.1783
 2287TIP3    H1 6867   1.400   1.513   2.797 -0.4542  0.0071 -0.1612
 2287TIP3    H2 6868   1.321   1.582   2.906  0.8414  0.2477  0.6512
 2288TIP3   OH2 6869   5.709   4.746   1.023 -0.2978 -0.0697 -0.5853
 2288TIP3    H1 6870   5.653   4.743   0.945  1.8786 -1.9620 -2.1940
 2288TIP3    H2 6871   5.781   4.687   1.003  1.2954  0.7820  2.1813
 2289TIP3   OH2 6872   3.903   2.809   0.339  0.6005 -0.4506 -0.4767
 2289TIP3    H1 6873   3.921   2.755   0.261  3.0112 -2.2578  1.1816
 2289TIP3    H2 6874   3.826   2.768   0.378  0.7114 -0.9399 -0.7495
 2290TIP3   OH2 6875   0.080   0.429   5.152  0.1166 -0.0438  0.7335
 2290TIP3    H1 6876   0.029   0.486   5.210  0.7683  0.8509  0.4542
 2290TIP3    H2 6877   0.035   0.435   5.067  0.0993 -0.0680  0.7407
 2291TIP3   OH2 6878   1.728   0.158   5.064  1.1625 -0.0750  0.1169
 2291TIP3    H1 6879   1.699   0.141   4.974  0.5560 -0.0620  0.3067
 2291TIP3    H2 6880   1.721   0.252   5.075 -2.2728 -0.3393  1.3143
 2292TIP3   OH2 6881   1.427   1.438   4.999  0.0191 -0.3937  0.3205
 2292TIP3    H1 6882   1.433   1.402   5.087 -1.0476  1.1579  1.0838
 2292TIP3    H2 6883   1.515   1.473   4.981  0.2936 -0.8934  0.6837
 2293TIP3   OH2 6884   0.496   1.352   4.921 -0.1679 -0.6389  0.0098
 2293TIP3    H1 6885   0.546   1.399   4.854  1.6692 -1.5975  0.6533
 2293TIP3    H2 6886   0.450   1.421   4.969  0.2738  0.2425 -0.7897
 2294TIP3   OH2 6887   3.226   2.611   3.618 -0.3278 -0.0156 -0.3824
 2294TIP3    H1 6888   3.153   2.635   3.561 -0.8150 -1.2817 -0.3374
 2294TIP3    H2 6889   3.186   2.558   3.687  0.6617 -0.9637 -0.5097
 2295TIP3   OH2 6890   0.484   5.759   3.612  0.2643  0.0766 -0.2215
 2295TIP3    H1 6891   0.449   5.791   3.695 -0.0253  0.2061 -0.3910
 2295TIP3    H2 6892   0.569   5.721   3.634  1.5282  2.6289 -0.2532
 2296TIP3   OH2 6893   1.358   3.009   4.803  0.1903 -0.3586 -0.1434
 2296TIP3    H1 6894   1.422   3.066   4.759 -1.2627  1.0841 -0.4728
 2296TIP3    H2 6895   1.314   3.067   4.865 -0.3488 -1.4927  0.5566
 2297TIP3   OH2 6896   1.315   5.055   2.810  0.2955  0.3525 -0.0574
 2297TIP3    H1 6897   1.270   5.101   2.881  1.6452  0.9597  0.4579
 2297TIP3    H2 6898   1.388   5.113   2.787 -1.0196  0.9608 -3.1256
 2298TIP3   OH2 6899   5.161   4.864   3.394 -0.6850 -0.1154 -0.1430
 2298TIP3    H1 6900   5.129   4.781   3.428  1.2482 -1.1817 -0.7345
 2298TIP3    H2 6901   5.114   4.876   3.311 -2.1602  0.2481  0.7190
 2299TIP3   OH2 6902   3.850   3.711   3.912  0.3302 -0.3599 -0.2494
 2299TIP3    H1 6903   3.916   3.741   3.975 -0.0005 -3.5100  1.8783
 2299TIP3    H2 6904   3.771   3.761   3.933  1.1938  1.2578 -0.7397
 2300TIP3   OH2 6905   2.916   3.894   0.548  0.1802  0.4526  0.0358
 2300TIP3    H1 6906   2.918   3.957   0.620  0.8255  0.1776  0.2659
 2300TIP3    H2 6907   2.828   3.903   0.511 -0.4579  0.0310  1.3608
 2301TIP3   OH2 6908   4.334   3.766   3.057 -0.2783 -0.0717  0.2245
 2301TIP3    H1 6909   4.265   3.738   3.116 -1.5198  0.9279 -0.7133
 2301TIP3    H2 6910   4.296   3.760   2.970  0.7188  0.7617 -0.2989
 2302TIP3   OH2 6911   4.208   0.794   4.791 -0.6814  0.2867 -0.2974
 2302TIP3    H1 6912   4.211   0.699   4.778 -1.1827  0.4192 -1.5646
 2302TIP3    H2 6913   4.116   0.817   4.782 -0.3596  1.1002 -1.8856
 2303TIP3   OH2 6914   0.167   2.871   1.746  0.0834  0.7895 -0.0292
 2303TIP3    H1 6915   0.090   2.911   1.707 -2.2942 -0.3026  3.1467
 2303TIP3    H2 6916   0.134   2.793   1.791  3.0744  0.1191  1.2533
 2304TIP3   OH2 6917   1.093   5.493   0.331  0.4345 -0.7774  0.3388
 2304TIP3    H1 6918   1.058   5.572   0.373 -1.7766 -1.3602 -0.2845
 2304TIP3    H2 6919   1.130   5.443   0.404 -1.5283 -0.8522  1.3465
 2305TIP3   OH2 6920   5.123   1.721   2.461  0.4091  0.0712 -0.0245
 2305TIP3    H1 6921   5.077   1.652   2.509 -1.3930  0.8031 -0.6207
 2305TIP3    H2 6922   5.189   1.752   2.523  0.6912 -1.5620  0.5701
 2306TIP3   OH2 6923   1.731   0.230   0.935 -0.6766  0.3219  0.3521
 2306TIP3    H1 6924   1.699   0.229   0.845  0.0817  1.4204  0.0570
 2306TIP3    H2 6925   1.712   0.142   0.968 -1.1562 -0.0244 -0.8026
 2307TIP3   OH2 6926   2.372   3.710   1.803  0.3247 -0.1275  0.4217
 2307TIP3    H1 6927   2.313   3.782   1.780  0.4281 -0.3311 -0.5174
 2307TIP3    H2 6928   2.458   3.740   1.777  0.2094 -1.0796 -1.2287
 2308TIP3   OH2 6929   2.726   2.674   2.200  0.0881 -0.2268 -0.5433
 2308TIP3    H1 6930   2.748   2.756   2.156  2.2222  0.5049  1.6546
 2308TIP3    H2 6931   2.698   2.701   2.288  1.4795 -1.8283  0.4538
 2309TIP3   OH2 6932   2.262   3.189   0.116 -0.3024 -0.4342  0.3717
 2309TIP3    H1 6933   2.251   3.245   0.193  3.1633  0.3541  0.4729
 2309TIP3    H2 6934   2.239   3.245   0.042 -0.6335 -0.1664  0.6741
 2310TIP3   OH2 6935   5.493   5.079   4.979 -0.3464  0.0836 -0.5778
 2310TIP3    H1 6936   5.522   5.082   5.070 -1.1112  3.1475 -0.3372
 2310TIP3    H2 6937   5.405   5.041   4.983 -0.5088  0.5086  0.0345
 2311TIP3   OH2 6938   3.421   0.153   1.828 -0.2946 -0.4467 -0.0618
 2311TIP3    H1 6939   3.356   0.089   1.798 -0.9403 -0.1650  0.6785
 2311TIP3    H2 6940   3.499   0.101   1.847 -0.9481 -1.0889  0.9364
 2312TIP3   OH2 6941   0.853   3.879   0.652 -0.3124  0.4135 -0.5976
 2312TIP3    H1 6942   0.863   3.787   0.674  1.5321  1.0449  1.6147
 2312TIP3    H2 6943   0.937   3.904   0.613 -0.0321  1.5651  0.6655
 2313TIP3   OH2 6944   1.078   4.715   3.639  0.0571 -0.2586 -0.1747
 2313TIP3    H1 6945   1.058   4.630   3.601  0.7390  0.3664 -2.0405
 2313TIP3    H2 6946   1.170   4.709   3.665  0.1978 -0.0060 -0.6024
 2314TIP3   OH2 6947   5.220   1.766   3.741 -0.0109 -0.0964  0.2668
 2314TIP3    H1 6948   5.147   1.801   3.791  0.8311  0.1059  1.3957
 2314TIP3    H2 6949   5.183   1.745   3.656 -0.7631  2.7679 -0.2176
 2315TIP3   OH2 6950   5.104   5.654   0.361 -0.6607  0.3042  0.4023
 2315TIP3    H1 6951   5.013   5.645   0.389 -0.9683 -4.7942 -1.1212
 2315TIP3    H2 6952   5.100   5.653   0.266  0.8912 -2.3814  0.2561
 2316TIP3   OH2 6953   5.333   4.922   1.938 -0.0259  0.0582  0.4113
 2316TIP3    H1 6954   5.239   4.937   1.932 -0.3051 -1.3905  0.6303
 2316TIP3    H2 6955   5.373   4.997   1.894 -1.3032  0.3067 -0.3632
 2317TIP3   OH2 6956   4.309   3.045   1.714 -0.0456 -0.1965  1.0240
 2317TIP3    H1 6957   4.263   3.043   1.798  0.8847 -1.2780  1.5414
 2317TIP3    H2 6958   4.247   3.010   1.651 -1.3775  2.2152  0.8925
 2318TIP3   OH2 6959   5.004   1.142   1.969 -0.0445  0.3894 -0.3507
 2318TIP3    H1 6960   4.950   1.182   1.901  0.0767 -0.1863 -0.7963
 2318TIP3    H2 6961   4.948   1.141   2.046  0.4310  2.7171  0.0999
 2319TIP3   OH2 6962   2.016   5.770   4.307 -0.0340 -0.1936  0.0961
 2319TIP3    H1 6963   2.069   5.840   4.268  0.1729 -0.7790 -0.7013
 2319TIP3    H2 6964   2.044   5.690   4.261 -0.3965 -0.7761  0.8602
 2320TIP3   OH2 6965   1.818   5.811   1.993 -0.4571  1.0388  0.1716
 2320TIP3    H1 6966   1.801   5.837   2.084  0.5116  0.4306  0.5470
 2320TIP3    H2 6967   1.912   5.788   1.992 -0.8933 -0.9393 -0.4744
 2321TIP3   OH2 6968   3.522   1.882   3.452 -0.0763  0.3082 -0.2629
 2321TIP3    H1 6969   3.502   1.815   3.517 -0.1010  1.0880  0.5459
 2321TIP3    H2 6970   3.613   1.906   3.468  0.3759 -0.5218 -1.4688
 2322TIP3   OH2 6971   0.081   2.244   2.384  0.1007  0.2805  0.1757
 2322TIP3    H1 6972   0.145   2.279   2.447 -0.0179  0.4253  0.2170
 2322TIP3    H2 6973   0.134   2.207   2.314  0.2337  1.5777 -0.4473
 2323TIP3   OH2 6974   1.021   5.141   4.554 -0.7462 -0.2421  0.0597
 2323TIP3    H1 6975   1.094   5.185   4.511 -2.1700  1.3997 -0.7892
 2323TIP3    H2 6976   0.944   5.168   4.504 -1.9176 -2.2823  0.6313
 2324TIP3   OH2 6977   4.390   1.619   2.279  0.1376 -0.2073  0.0246
 2324TIP3    H1 6978   4.454   1.681   2.243 -1.0896  3.3735  3.2772
 2324TIP3    H2 6979   4.320   1.617   2.214  0.8883  0.6352 -0.8411
 2325TIP3   OH2 6980   4.818   1.173   2.144 -0.8370 -0.8492  0.1690
 2325TIP3    H1 6981   4.726   1.147   2.150 -1.5091  1.1560 -0.4745
 2325TIP3    H2 6982   4.821   1.258   2.186  0.8621 -1.1245  0.6655
 2326TIP3   OH2 6983   0.523   1.728   4.477  0.4504 -0.3207  0.2459
 2326TIP3    H1 6984   0.543   1.774   4.396 -1.5564 -1.2191 -0.8458
 2326TIP3    H2 6985   0.430   1.742   4.491  0.7803 -0.0168  2.5545
 2327TIP3   OH2 6986   0.556   2.066   1.305  0.3626 -0.2080 -0.1095
 2327TIP3    H1 6987   0.592   2.112   1.381 -0.0238  0.2077 -0.1673
 2327TIP3    H2 6988   0.556   2.132   1.235 -0.5203 -0.1777 -0.1030
 2328TIP3   OH2 6989   5.153   5.900   3.769 -0.0069 -0.2007 -0.1669
 2328TIP3    H1 6990   5.065   5.870   3.794  0.9019 -1.9085  1.2129
 2328TIP3    H2 6991   5.205   5.889   3.849  0.9496  3.1776 -0.1574
 2329TIP3   OH2 6992   4.628   4.277   4.007 -0.1449 -0.1089 -0.3471
 2329TIP3    H1 6993   4.649   4.318   3.923 -0.5535  0.3129 -0.2520
 2329TIP3    H2 6994   4.575   4.201   3.984  0.7634 -0.6995 -0.5371
 2330TIP3   OH2 6995   1.164   0.320   1.005 -0.0368 -0.5677  0.2682
 2330TIP3    H1 6996   1.211   0.263   1.066 -1.0018  1.0573  2.6768
 2330TIP3    H2 6997   1.075   0.326   1.041 -0.3347  1.3447 -0.6377
 2331TIP3   OH2 6998   5.990   4.199   5.178  0.1309  0.1380  0.3024
 2331TIP3    H1 6999   6.044   4.179   5.102 -0.2845  1.0324 -0.2448
 2331TIP3    H2 7000   5.902   4.209   5.143 -0.4759 -1.6452  1.2321
 2332TIP3   OH2 7001   0.288   4.138   2.375 -0.2659  0.0271 -0.1160
 2332TIP3    H1 7002   0.326   4.184   2.300  1.3468 -1.3918 -0.2343
 2332TIP3    H2 7003   0.361   4.126   2.435 -0.8497 -1.4793  0.3330
 2333TIP3   OH2 7004   0.916   0.775   1.064  0.0873  0.1848  0.4803
 2333TIP3    H1 7005   0.992   0.816   1.023 -0.1128  1.7233  1.5681
 2333TIP3    H2 7006   0.857   0.848   1.084 -0.8542 -0.7768  1.3300
 2334TIP3   OH2 7007   2.006   1.505   1.112 -0.3965  0.6051 -0.0523
 2334TIP3    H1 7008   1.941   1.532   1.047  0.3437  0.3450 -0.9238
 2334TIP3    H2 7009   2.014   1.410   1.100  0.1605  0.6382  0.0202
 2335TIP3   OH2 7010   0.988   3.701   1.428 -0.2357 -0.1084 -0.3168
 2335TIP3    H1 7011   0.967   3.647   1.505  0.1098  0.7852  0.4249
 2335TIP3    H2 7012   0.918   3.767   1.426 -0.7786 -0.6859 -1.3444
 2336TIP3   OH2 7013   3.050   5.326   3.448  0.2874 -0.1960  0.5977
 2336TIP3    H1 7014   2.971   5.276   3.427  0.1198 -0.0322  0.8297
 2336TIP3    H2 7015   3.055   5.392   3.379  1.8341 -1.9931 -1.0976
 2337TIP3   OH2 7016   5.839   3.192   4.655  0.2590  0.2429  0.1284
 2337TIP3    H1 7017   5.912   3.242   4.692 -1.4954  0.9315  3.0386
 2337TIP3    H2 7018   5.787   3.166   4.731 -3.2973  1.0100 -1.8090
 2338TIP3   OH2 7019   4.438   0.790   3.769  0.1056 -0.0660  0.1922
 2338TIP3    H1 7020   4.481   0.874   3.785 -1.2167  0.9499 -1.2707
 2338TIP3    H2 7021   4.428   0.787   3.674 -0.1251 -1.7821  0.2443
 2339TIP3   OH2 7022   1.134   3.692   2.185  0.2550  0.3892  0.0880
 2339TIP3    H1 7023   1.075   3.767   2.196  0.2028  0.3539  0.0464
 2339TIP3    H2 7024   1.163   3.698   2.094 -0.6033 -0.2726 -0.2425
 2340TIP3   OH2 7025   5.898   5.450   2.239 -0.0020  0.0779 -0.2914
 2340TIP3    H1 7026   5.942   5.507   2.177 -0.7524  1.4853  0.4195
 2340TIP3    H2 7027   5.957   5.445   2.314 -0.8313  1.6490  0.5018
 2341TIP3   OH2 7028   1.036   5.455   0.983  0.2637 -0.7440  0.3808
 2341TIP3    H1 7029   0.964   5.394   0.995 -0.3401 -0.4636 -1.5105
 2341TIP3    H2 7030   1.030   5.515   1.057 -0.5336 -1.5881  1.0232
 2342TIP3   OH2 7031   2.999   2.890   0.360  0.2206  0.1299 -0.3073
 2342TIP3    H1 7032   2.998   2.867   0.453  3.0986  1.3293  0.1075
 2342TIP3    H2 7033   3.046   2.817   0.318  0.7671  0.5809 -0.4866
 2343TIP3   OH2 7034   1.526   1.212   0.756  0.1730  0.3904 -0.7302
 2343TIP3    H1 7035   1.438   1.223   0.792 -0.0095 -0.5092 -0.8742
 2343TIP3    H2 7036   1.514   1.216   0.662  0.2126 -0.2041 -0.7634
 2344TIP3   OH2 7037   5.049   2.223   0.554 -0.2084  0.1125  0.1841
 2344TIP3    H1 7038   5.005   2.260   0.630 -0.1779  1.8424 -0.5965
 2344TIP3    H2 7039   5.102   2.151   0.589  0.4771  1.4072  1.9476
 2345TIP3   OH2 7040   2.438   0.845   0.312 -0.4561 -0.2147  0.0875
 2345TIP3    H1 7041   2.451   0.754   0.285 -0.7512 -0.9061  2.1644
 2345TIP3    H2 7042   2.523   0.873   0.345 -0.7785 -0.2925  1.0048
 2346TIP3   OH2 7043   4.155   2.925   5.166  0.2650  0.7392  0.4385
 2346TIP3    H1 7044   4.243   2.951   5.194  0.0959  0.3664  1.3706
 2346TIP3    H2 7045   4.102   3.002   5.181  0.0309  0.3341  1.9220
 2347TIP3   OH2 7046   2.877   5.047   1.765  0.4278 -0.3207  0.3965
 2347TIP3    H1 7047   2.933   5.022   1.838  1.6124 -1.6073 -0.8812
 2347TIP3    H2 7048   2.910   4.995   1.691 -2.2474 -0.8967 -0.4953
 2348TIP3   OH2 7049   0.231   5.164   3.178  0.6517 -0.1339 -0.0574
 2348TIP3    H1 7050   0.235   5.068   3.174  1.2976 -0.4553  3.8490
 2348TIP3    H2 7051   0.139   5.183   3.199  0.8581 -0.0668  0.8194
 2349TIP3   OH2 7052   1.130   1.638   3.211 -0.2537 -0.0023 -0.1635
 2349TIP3    H1 7053   1.116   1.733   3.214 -0.6015  0.0463 -2.3719
 2349TIP3    H2 7054   1.045   1.600   3.231 -0.6097  0.1825 -1.2925
 2350TIP3   OH2 7055   5.716   0.068   3.794 -0.0104  0.2149  0.6816
 2350TIP3    H1 7056   5.657  -0.006   3.810  0.0334  0.2103  0.8262
 2350TIP3    H2 7057   5.788   0.055   3.856 -0.0319  0.4095  0.7499
 2351TIP3   OH2 7058   0.791   5.541   5.066 -0.4049 -0.0600 -0.0919
 2351TIP3    H1 7059   0.698   5.563   5.068 -0.4787 -0.3361 -0.4001
 2351TIP3    H2 7060   0.836   5.624   5.080 -0.6863  0.1936 -0.6604
 2352TIP3   OH2 7061   5.485   0.772   0.804 -0.5172  0.1390  0.6871
 2352TIP3    H1 7062   5.578   0.777   0.780 -0.8258 -0.2535 -0.6323
 2352TIP3    H2 7063   5.462   0.680   0.792 -1.7055  0.6571 -1.5336
 2353TIP3   OH2 7064   0.177   4.511   1.844 -0.5676 -0.2988 -0.0630
 2353TIP3    H1 7065   0.089   4.491   1.812 -1.1220  0.4102  0.9789
 2353TIP3    H2 7066   0.193   4.447   1.913 -0.0139 -0.7982 -0.6364
 2354TIP3   OH2 7067   5.680   0.222   4.718 -0.2004 -0.0303  0.3188
 2354TIP3    H1 7068   5.636   0.203   4.801 -0.8321 -0.1218 -0.0304
 2354TIP3    H2 7069   5.609   0.227   4.654  0.1429  1.4000  0.0178
 2355TIP3   OH2 7070   0.621   1.352   4.165 -0.1731 -0.3334  0.1366
 2355TIP3    H1 7071   0.568   1.289   4.213 -0.4076 -0.6483 -0.5209
 2355TIP3    H2 7072   0.560   1.424   4.146 -0.5090 -0.9014 -1.0208
 2356TIP3   OH2 7073   2.305   4.406   4.313 -0.3433  0.6539  0.2785
 2356TIP3    H1 7074   2.290   4.500   4.322  0.9573  0.9883 -0.7954
 2356TIP3    H2 7075   2.360   4.398   4.235 -0.4267 -1.0035  0.3615
 2357TIP3   OH2 7076   2.086   3.182   3.122 -0.0464  0.6945 -0.0644
 2357TIP3    H1 7077   2.023   3.187   3.050  0.9434  1.0661 -0.9371
 2357TIP3    H2 7078   2.036   3.207   3.200 -0.9523  1.0340 -0.7353
 2358TIP3   OH2 7079   3.881   5.621   1.334  0.4429  0.2830  0.0429
 2358TIP3    H1 7080   3.963   5.640   1.381  0.3793 -1.5066  0.9791
 2358TIP3    H2 7081   3.813   5.627   1.401  0.2610 -1.5915  0.0889
 2359TIP3   OH2 7082   0.267   3.386   3.723 -0.8579  0.5735  0.4556
 2359TIP3    H1 7083   0.325   3.462   3.728  0.2701 -0.2684  0.6430
 2359TIP3    H2 7084   0.239   3.372   3.813 -1.1650  0.8296  0.4027
 2360TIP3   OH2 7085   2.730   4.473   2.365 -0.0932  0.0641 -0.1993
 2360TIP3    H1 7086   2.761   4.383   2.375 -0.6749 -0.3211 -1.6127
 2360TIP3    H2 7087   2.650   4.478   2.417 -0.5129 -0.4802 -0.7932
 2361TIP3   OH2 7088   0.408   1.274   1.102 -0.5294 -0.5835  0.4707
 2361TIP3    H1 7089   0.448   1.355   1.071 -0.2153 -1.1460 -0.6838
 2361TIP3    H2 7090   0.314   1.287   1.090 -0.3941 -1.0414 -1.5397
 2362TIP3   OH2 7091   1.558   1.100   2.909  0.6405  0.2089  0.0177
 2362TIP3    H1 7092   1.635   1.154   2.888  0.3656  0.8539  0.6633
 2362TIP3    H2 7093   1.552   1.103   3.004 -1.6415  2.2234 -0.1071
 2363TIP3   OH2 7094   2.706   4.426   4.920  0.0178  0.3636  0.3243
 2363TIP3    H1 7095   2.788   4.390   4.886  0.1685  1.6627 -0.7463
 2363TIP3    H2 7096   2.652   4.349   4.939  1.0360 -0.4713 -0.0862
 2364TIP3   OH2 7097   3.381   3.019   1.143  0.7749  0.3555  0.0715
 2364TIP3    H1 7098   3.459   2.965   1.152  1.7057  1.7377  0.6028
 2364TIP3    H2 7099   3.399   3.098   1.194 -1.0281  0.6635  0.3210
 2365TIP3   OH2 7100   2.496   2.895   2.622  0.2205 -0.2627  0.1635
 2365TIP3    H1 7101   2.413   2.900   2.670 -0.0238  0.4189 -0.3215
 2365TIP3    H2 7102   2.563   2.897   2.691 -0.1530 -0.5919  0.5438
 2366TIP3   OH2 7103   1.967   3.286   2.199  0.3326  0.1489  0.4290
 2366TIP3    H1 7104   2.027   3.360   2.205 -0.1218  0.6153 -0.4774
 2366TIP3    H2 7105   1.890   3.313   2.248  0.6991 -0.3048  1.2852
 2367TIP3   OH2 7106   0.659   4.202   5.040 -0.0833  0.2057  0.7001
 2367TIP3    H1 7107   0.655   4.205   5.136  2.3180  0.7117  0.8300
 2367TIP3    H2 7108   0.649   4.110   5.019 -0.5217  0.0728  1.4419
 2368TIP3   OH2 7109   3.374   0.047   5.046 -0.4349  0.6636  0.3390
 2368TIP3    H1 7110   3.369   0.012   5.135  0.1836  0.0319  0.1364
 2368TIP3    H2 7111   3.283   0.063   5.021 -0.7540 -0.7383  0.4813
 2369TIP3   OH2 7112   3.887   0.242   2.682  0.4401 -0.1688 -0.5614
 2369TIP3    H1 7113   3.796   0.251   2.653  0.5696  0.1676 -0.8711
 2369TIP3    H2 7114   3.882   0.186   2.759 -0.3248  1.8450  0.9576
 2370TIP3   OH2 7115   2.045   4.022   2.841  0.0811 -0.4320  0.2385
 2370TIP3    H1 7116   2.004   4.109   2.840 -1.1420 -0.9698 -0.9889
 2370TIP3    H2 7117   2.127   4.033   2.794 -0.8704 -0.2431 -1.4775
 2371TIP3   OH2 7118   4.448   4.364   4.225 -0.0158 -0.2304 -0.9025
 2371TIP3    H1 7119   4.484   4.328   4.145 -0.5315 -0.4529 -1.0418
 2371TIP3    H2 7120   4.513   4.428   4.255  0.7408 -1.0123 -0.8444
 2372TIP3   OH2 7121   5.358   3.933   3.669 -0.0548  0.0609 -0.3506
 2372TIP3    H1 7122   5.376   3.914   3.761  1.4137  1.0891 -0.3839
 2372TIP3    H2 7123   5.445   3.946   3.630 -0.6048 -1.0545 -2.0588
 2373TIP3   OH2 7124   5.846   3.101   4.034 -0.4563 -0.3899 -0.9228
 2373TIP3    H1 7125   5.940   3.104   4.015  0.1368 -0.2122  1.6816
 2373TIP3    H2 7126   5.804   3.123   3.951  1.8809  2.1396 -1.5659
 2374TIP3   OH2 7127   1.647   0.389   1.370  0.0604  0.3358  0.3974
 2374TIP3    H1 7128   1.668   0.296   1.381 -1.9601 -0.0024  2.0995
 2374TIP3    H2 7129   1.551   0.393   1.378 -0.0549  2.4040 -1.1801
 2375TIP3   OH2 7130   1.335   4.156   3.941  0.2546  0.1902  0.4624
 2375TIP3    H1 7131   1.384   4.154   4.023  0.6346 -3.6579  0.2945
 2375TIP3    H2 7132   1.322   4.065   3.918 -2.9726  1.0609 -1.9752
 2376TIP3   OH2 7133   1.175   1.697   4.324 -0.2036  0.6890 -0.2892
 2376TIP3    H1 7134   1.261   1.739   4.325 -0.1624  0.6102 -0.3805
 2376TIP3    H2 7135   1.174   1.648   4.241  0.1802 -0.3754  0.3144
 2377TIP3   OH2 7136   3.345   5.188   4.798  0.3304  0.2270  0.4325
 2377TIP3    H1 7137   3.351   5.095   4.775  0.9869  0.1228  0.9830
 2377TIP3    H2 7138   3.376   5.234   4.721 -0.8368  0.0324 -0.1711
 2378TIP3   OH2 7139   5.936   3.527   3.093  0.0474 -0.3551  0.1229
 2378TIP3    H1 7140   5.861   3.490   3.141  1.4263 -0.9312  1.9297
 2378TIP3    H2 7141   5.904   3.611   3.060 -1.2617 -0.3511  1.2935
 2379TIP3   OH2 7142   2.661   0.672   4.542  0.3719  0.0711 -0.2406
 2379TIP3    H1 7143   2.628   0.582   4.551  0.5661 -0.0813 -0.9784
 2379TIP3    H2 7144   2.706   0.689   4.625 -0.2245 -0.2777  0.1605
 2380TIP3   OH2 7145   4.878   2.908   0.615  0.3748  0.6606  0.5731
 2380TIP3    H1 7146   4.923   2.835   0.658  0.9117  0.7438  0.1558
 2380TIP3    H2 7147   4.846   2.962   0.688 -2.0177 -1.1359  0.9801
 2381TIP3   OH2 7148   2.023   1.240   1.094 -1.1441  0.2013  0.4582
 2381TIP3    H1 7149   2.075   1.217   1.017  0.0847 -0.3495  1.4361
 2381TIP3    H2 7150   1.956   1.172   1.099 -0.2062 -0.7036  0.8275
 2382TIP3   OH2 7151   4.399   5.096   2.424  0.2016 -0.5297  0.7144
 2382TIP3    H1 7152   4.374   5.006   2.446  0.2615 -0.2352  2.0367
 2382TIP3    H2 7153   4.458   5.123   2.494  0.8281  0.2779 -0.1007
 2383TIP3   OH2 7154   0.232   2.132   0.936  0.1730 -0.6076 -0.2672
 2383TIP3    H1 7155   0.281   2.052   0.915  0.4139 -0.7040  0.6053
 2383TIP3    H2 7156   0.156   2.101   0.987 -0.2730 -0.3675 -0.7723
 2384TIP3   OH2 7157   2.122   5.123   0.831  0.3523 -0.2675  0.4776
 2384TIP3    H1 7158   2.133   5.125   0.736  0.7302 -0.9363  0.4972
 2384TIP3    H2 7159   2.058   5.191   0.850 -0.0591 -0.4260 -0.3059
 2385TIP3   OH2 7160   6.293   1.314   3.951  0.1956 -0.0823 -0.4694
 2385TIP3    H1 7161   6.321   1.306   3.859  0.9216  0.0400 -0.2668
 2385TIP3    H2 7162   6.283   1.224   3.981  1.2675 -0.1566 -0.2897
 2386TIP3   OH2 7163   1.684   1.014   4.427 -0.0470 -0.2012 -0.4414
 2386TIP3    H1 7164   1.594   1.021   4.460  0.8841  1.7568  2.0167
 2386TIP3    H2 7165   1.689   0.926   4.390 -1.8208 -2.1129  3.2679
 2387TIP3   OH2 7166   2.878   3.474   0.297  0.0232 -0.6394  0.6319
 2387TIP3    H1 7167   2.813   3.414   0.260  1.9698 -1.9032 -0.8686
 2387TIP3    H2 7168   2.959   3.424   0.302  0.9129  0.8378  2.6428
 2388TIP3   OH2 7169   5.735   3.274   2.849  0.1886  0.2170  0.2218
 2388TIP3    H1 7170   5.644   3.297   2.869 -0.0945  0.2425 -0.9658
 2388TIP3    H2 7171   5.740   3.180   2.865  0.3873  0.4697  1.7499
 2389TIP3   OH2 7172   6.296   4.568   4.885  0.3345 -0.2162 -0.3908
 2389TIP3    H1 7173   6.284   4.515   4.964 -0.2257  1.2538  0.5445
 2389TIP3    H2 7174   6.224   4.630   4.886  0.7671  0.3489 -1.6517
 2390TIP3   OH2 7175   1.868   2.159   2.138 -0.3170  0.1343 -0.4306
 2390TIP3    H1 7176   1.941   2.106   2.103 -0.0985  0.4906 -0.5196
 2390TIP3    H2 7177   1.910   2.239   2.169 -0.6892  0.3903 -0.5896
 2391TIP3   OH2 7178   5.115   1.783   0.963 -0.4023  0.8116  0.0369
 2391TIP3    H1 7179   5.047   1.806   0.900 -0.0308 -0.1759 -0.7528
 2391TIP3    H2 7180   5.170   1.861   0.969 -0.6741  1.0539 -0.5623
 2392TIP3   OH2 7181   3.862   5.570   3.308  0.2956 -0.7506 -0.1294
 2392TIP3    H1 7182   3.891   5.533   3.224 -0.4798 -2.1212  0.1890
 2392TIP3    H2 7183   3.797   5.508   3.340  1.3162 -0.8056  1.9915
 2393TIP3   OH2 7184   1.290   0.485   2.859 -0.2332 -0.0701  0.2424
 2393TIP3    H1 7185   1.337   0.565   2.836 -0.1828 -0.5545 -1.4789
 2393TIP3    H2 7186   1.359   0.424   2.884 -0.1620  0.0087  0.2411
 2394TIP3   OH2 7187   1.532   4.564   2.044 -0.0901 -0.0497 -0.3245
 2394TIP3    H1 7188   1.487   4.606   2.118  0.6853 -0.1933  0.2387
 2394TIP3    H2 7189   1.527   4.628   1.973 -2.1677 -0.4982 -0.6582
 2395TIP3   OH2 7190   2.486   2.914   1.033  0.1208  0.2897 -0.9709
 2395TIP3    H1 7191   2.401   2.951   1.059  0.2300 -0.3728  0.4687
 2395TIP3    H2 7192   2.464   2.846   0.969 -0.5650 -0.5686  0.1305
 2396TIP3   OH2 7193   2.315   5.443   1.516 -0.0454  0.1859 -0.3423
 2396TIP3    H1 7194   2.233   5.397   1.493  0.0927 -0.3723  0.2561
 2396TIP3    H2 7195   2.381   5.373   1.519  0.4780  0.6461 -0.8996
 2397TIP3   OH2 7196   5.952   2.875   0.893  0.4818  0.3654 -0.0964
 2397TIP3    H1 7197   5.981   2.966   0.885  1.9909 -0.1509 -1.0766
 2397TIP3    H2 7198   6.030   2.824   0.874 -0.0949 -1.1622  1.4171
 2398TIP3   OH2 7199   1.972   0.525   0.770 -0.1288 -0.0165 -0.2026
 2398TIP3    H1 7200   1.921   0.570   0.837  0.7253  0.3279  0.2260
 2398TIP3    H2 7201   1.910   0.510   0.698 -1.6904 -2.3544  1.4715
 2399TIP3   OH2 7202   2.465   5.787   5.005 -0.1724  0.2785  0.0995
 2399TIP3    H1 7203   2.451   5.833   5.088  0.0591  0.9165 -0.2069
 2399TIP3    H2 7204   2.390   5.811   4.951 -1.0110 -1.1863  0.5592
 2400TIP3   OH2 7205   4.930   0.007   0.815 -0.6879 -0.2087  0.8879
 2400TIP3    H1 7206   5.013  -0.036   0.838 -0.4513 -0.2956 -0.0720
 2400TIP3    H2 7207   4.938   0.095   0.853  0.3456  0.1731 -0.1494
 2401TIP3   OH2 7208   1.216   2.324   0.403  0.0055 -0.6588  0.5292
 2401TIP3    H1 7209   1.224   2.346   0.495 -0.1172  1.5489  0.0657
 2401TIP3    H2 7210   1.226   2.408   0.357 -0.2468 -1.6441 -1.4429
 2402TIP3   OH2 7211   4.143   0.176   0.680 -0.6477  0.0261 -0.0421
 2402TIP3    H1 7212   4.163   0.261   0.718 -0.8865  0.0798 -0.0323
 2402TIP3    H2 7213   4.078   0.195   0.612 -0.1775 -0.0597 -0.5241
 2403TIP3   OH2 7214   0.109   1.622   4.279  0.2546 -0.8266  0.2058
 2403TIP3    H1 7215   0.023   1.631   4.320  1.0061  0.5464  1.6094
 2403TIP3    H2 7216   0.171   1.649   4.348  1.6575  0.5492 -1.5097
 2404TIP3   OH2 7217   5.089   0.258   0.683  0.0611  0.4824  0.3020
 2404TIP3    H1 7218   5.167   0.244   0.629 -0.2838  0.7680 -0.2850
 2404TIP3    H2 7219   5.088   0.184   0.743 -0.1364 -0.4430 -0.8006
 2405TIP3   OH2 7220   0.524   3.104   2.022  0.2633 -0.2461  0.1753
 2405TIP3    H1 7221   0.571   3.162   1.961  0.8344  0.0228  0.8589
 2405TIP3    H2 7222   0.457   3.063   1.968  0.4301  0.3718 -0.5297
 2406TIP3   OH2 7223   4.373   4.896   5.027  0.4406 -0.1973 -0.2097
 2406TIP3    H1 7224   4.370   4.870   5.120 -1.1412 -2.3909 -0.7963
 2406TIP3    H2 7225   4.282   4.894   4.999  1.0928 -3.0488 -2.6386
 2407TIP3   OH2 7226   2.050   5.457   0.710 -0.0714 -0.1606 -0.2646
 2407TIP3    H1 7227   2.135   5.461   0.753 -0.1156 -0.8226 -0.0949
 2407TIP3    H2 7228   2.064   5.497   0.624  0.2708  0.2266 -0.0308
 2408TIP3   OH2 7229   5.499   1.171   2.056 -0.6616 -0.4158 -0.2614
 2408TIP3    H1 7230   5.574   1.222   2.026 -0.8360  0.2742  0.4256
 2408TIP3    H2 7231   5.514   1.083   2.022 -0.9286  0.3332 -2.4466
 2409TIP3   OH2 7232   1.649   2.087   1.973  0.1306 -0.2614  0.3124
 2409TIP3    H1 7233   1.717   2.098   2.040  0.6152 -1.2461  0.0145
 2409TIP3    H2 7234   1.694   2.107   1.891 -0.7748  2.1776  0.3185
 2410TIP3   OH2 7235   3.212   1.626   3.741 -0.4282  0.2996  0.1791
 2410TIP3    H1 7236   3.226   1.553   3.682  0.4722  1.6331 -1.3435
 2410TIP3    H2 7237   3.127   1.662   3.715  0.0878  1.0477 -0.5341
 2411TIP3   OH2 7238   6.128   1.628   3.849  0.1442 -0.1112  0.1746
 2411TIP3    H1 7239   6.180   1.599   3.924  1.3746  0.3733 -0.4723
 2411TIP3    H2 7240   6.079   1.703   3.882 -0.4078 -0.7577  0.8767
 2412TIP3   OH2 7241   4.951   0.920   4.443  0.2688  0.3629 -0.1216
 2412TIP3    H1 7242   5.042   0.927   4.474  1.0082 -1.8677 -1.5313
 2412TIP3    H2 7243   4.904   0.881   4.517  0.4784  1.3819  0.5637
 2413TIP3   OH2 7244   4.018   0.154   3.045 -0.4651  0.1360 -0.2637
 2413TIP3    H1 7245   3.974   0.129   2.964 -0.4191  0.8161 -0.5027
 2413TIP3    H2 7246   4.025   0.072   3.094  1.3098 -0.6939 -1.7899
 2414TIP3   OH2 7247   1.762   5.267   1.370 -0.3555  0.0290  0.1091
 2414TIP3    H1 7248   1.786   5.347   1.417 -2.3789  0.3883  0.6287
 2414TIP3    H2 7249   1.791   5.282   1.280  1.0291  0.5076  0.6117
 2415TIP3   OH2 7250   0.030   3.305   2.871  0.1595 -0.1059 -1.1356
 2415TIP3    H1 7251   0.117   3.292   2.832 -0.7645 -0.8099 -3.0865
 2415TIP3    H2 7252   0.046   3.300   2.965  2.2900  0.1785 -1.4166
 2416TIP3   OH2 7253   6.100   3.896   4.342  0.1544  0.0862 -0.2306
 2416TIP3    H1 7254   6.048   3.913   4.263 -1.2360 -0.0005  0.6341
 2416TIP3    H2 7255   6.038   3.858   4.404  0.8696  1.4046  1.3955
 2417TIP3   OH2 7256   1.424   5.489   0.989 -0.1319 -0.1753  0.1364
 2417TIP3    H1 7257   1.497   5.513   0.932  0.9666 -1.3432  1.0114
 2417TIP3    H2 7258   1.387   5.573   1.017  0.6448  0.4230 -0.5798
 2418TIP3   OH2 7259   4.176   1.660   4.451 -0.2845 -0.6706  0.4159
 2418TIP3    H1 7260   4.177   1.697   4.362 -0.0603 -0.4264  0.5197
 2418TIP3    H2 7261   4.086   1.630   4.463 -0.2433 -0.9793 -0.0080
 2419TIP3   OH2 7262   0.757   2.528   3.037 -0.2684 -0.0048  0.0706
 2419TIP3    H1 7263   0.691   2.597   3.031  2.2884  2.5253 -1.5034
 2419TIP3    H2 7264   0.723   2.458   2.981 -3.1358 -0.3676  2.0229
 2420TIP3   OH2 7265   3.643   1.015   4.718 -0.0649 -0.1912 -0.0161
 2420TIP3    H1 7266   3.603   0.981   4.798 -0.2903  0.5958  0.2161
 2420TIP3    H2 7267   3.703   1.083   4.748  1.5304 -1.3832 -0.3486
 2421TIP3   OH2 7268   3.992   3.849   1.386  0.3715  0.1627 -0.2243
 2421TIP3    H1 7269   3.988   3.935   1.429  0.3452  0.0968 -0.0949
 2421TIP3    H2 7270   3.913   3.846   1.332 -0.2238 -0.2390  0.6399
 2422TIP3   OH2 7271   5.908   0.226   3.421 -0.0042 -0.0010 -0.5286
 2422TIP3    H1 7272   5.981   0.165   3.411 -0.8098 -1.4467  1.6648
 2422TIP3    H2 7273   5.945   0.298   3.472 -0.1748 -1.0064  1.0916
 2423TIP3   OH2 7274   3.615   5.330   0.436 -0.0744  0.0447  0.5432
 2423TIP3    H1 7275   3.578   5.367   0.356  0.5376  0.6750  0.5336
 2423TIP3    H2 7276   3.564   5.369   0.507 -1.5214 -1.5550  0.4487
 2424TIP3   OH2 7277   4.916   5.341   4.157  0.2697  0.4169 -0.0849
 2424TIP3    H1 7278   5.000   5.357   4.115  0.3442  1.2638  0.3563
 2424TIP3    H2 7279   4.859   5.312   4.086  1.0185 -0.5072 -0.3229
 2425TIP3   OH2 7280   0.129   5.472   1.868  0.4886  0.3131  0.4354
 2425TIP3    H1 7281   0.176   5.504   1.792 -0.5762 -0.9669 -0.8247
 2425TIP3    H2 7282   0.167   5.386   1.885  2.2739  1.4600  2.8178
 2426TIP3   OH2 7283   3.539   0.317   0.792 -0.0402 -0.3602 -0.4036
 2426TIP3    H1 7284   3.478   0.390   0.800  1.1754  0.6801 -0.4260
 2426TIP3    H2 7285   3.606   0.348   0.732  2.1854 -0.2799  1.9386
 2427TIP3   OH2 7286   0.647   1.459   2.753 -0.4764 -0.0940 -0.8326
 2427TIP3    H1 7287   0.733   1.489   2.783  0.0290 -0.7122 -1.6186
 2427TIP3    H2 7288   0.642   1.367   2.781 -1.4957  0.3326  0.4760
 2428TIP3   OH2 7289   0.306   0.587   4.097  0.3715 -0.2925  0.5458
 2428TIP3    H1 7290   0.359   0.659   4.130  0.4428 -0.3871  0.6348
 2428TIP3    H2 7291   0.349   0.560   4.016 -0.1247  0.3235  0.0589
 2429TIP3   OH2 7292   5.888   1.286   0.904 -0.2822  0.3532  0.3191
 2429TIP3    H1 7293   5.875   1.249   0.992  1.5584  0.8010  0.8264
 2429TIP3    H2 7294   5.922   1.213   0.852 -2.4229 -0.2163 -0.3844
 2430TIP3   OH2 7295   1.054   5.336   3.211 -0.1725 -0.4564  0.2688
 2430TIP3    H1 7296   0.986   5.349   3.145 -1.6342 -0.1456  1.7656
 2430TIP3    H2 7297   1.109   5.414   3.205 -1.8488  0.8584  1.1469
 2431TIP3   OH2 7298   1.990   0.950   0.608  0.0874 -0.2605  0.0086
 2431TIP3    H1 7299   2.003   0.946   0.513 -0.6967  0.7096 -0.1607
 2431TIP3    H2 7300   1.977   1.043   0.626 -0.6572 -0.5325  0.9380
 2432TIP3   OH2 7301   2.765   6.018   2.149 -0.0092  0.8194  0.6599
 2432TIP3    H1 7302   2.759   5.969   2.067 -0.5013  0.6931  0.7671
 2432TIP3    H2 7303   2.774   5.950   2.216 -1.4830  0.8083  0.8913
 2433TIP3   OH2 7304   2.541   3.525   3.469  0.0776 -0.6398  0.1116
 2433TIP3    H1 7305   2.634   3.509   3.489  0.1800 -0.6153 -0.3447
 2433TIP3    H2 7306   2.523   3.472   3.392  0.0578  0.3379 -0.5824
 2434TIP3   OH2 7307   1.283   3.309   1.815 -0.2284 -1.0247 -0.2022
 2434TIP3    H1 7308   1.202   3.257   1.814 -0.4259 -0.7654 -2.0976
 2434TIP3    H2 7309   1.260   3.389   1.768  0.6568 -0.1477  0.8345
 2435TIP3   OH2 7310   6.319   1.813   0.074 -0.1034  0.4281 -0.0562
 2435TIP3    H1 7311   6.317   1.848  -0.015 -1.8776 -0.4696 -0.4166
 2435TIP3    H2 7312   6.265   1.734   0.070  0.1874  0.0980  1.7104
 2436TIP3   OH2 7313   4.284   3.663   2.777 -0.3516 -0.2285  0.0566
 2436TIP3    H1 7314   4.312   3.580   2.738 -2.2397 -1.7213  1.6693
 2436TIP3    H2 7315   4.195   3.676   2.744 -0.7158  0.2453  1.1906
 2437TIP3   OH2 7316   5.908   0.074   0.287 -0.3615 -0.0118 -0.1489
 2437TIP3    H1 7317   5.907   0.105   0.378 -1.4778 -3.5497  1.2180
 2437TIP3    H2 7318   6.001   0.064   0.266 -0.0905  0.4395  0.7945
 2438TIP3   OH2 7319   1.321   2.075   0.094 -0.2709 -0.1727 -0.2522
 2438TIP3    H1 7320   1.243   2.123   0.066 -1.3410 -1.1565  0.8803
 2438TIP3    H2 7321   1.349   2.118   0.174  0.1666 -0.0114 -0.4907
 2439TIP3   OH2 7322   5.792   2.681   4.435 -0.4316 -0.4621  0.4809
 2439TIP3    H1 7323   5.834   2.765   4.454  1.5655 -1.5867  1.4123
 2439TIP3    H2 7324   5.836   2.650   4.355  0.2199 -1.4381  1.1921
 2440TIP3   OH2 7325   6.312   0.440   0.493 -0.5058  0.2552  0.0063
 2440TIP3    H1 7326   6.325   0.525   0.535 -3.1783  0.0528  1.5025
 2440TIP3    H2 7327   6.377   0.436   0.424  1.5132  2.3309  1.6575
 2441TIP3   OH2 7328   0.940   0.375   5.040  0.0513 -0.1489  0.0403
 2441TIP3    H1 7329   0.863   0.368   4.984 -0.8912 -0.2336  1.3022
 2441TIP3    H2 7330   0.951   0.469   5.055 -0.0264 -0.1570  0.1497
 2442TIP3   OH2 7331   2.331   1.950   2.501 -1.0465 -0.3234 -0.2098
 2442TIP3    H1 7332   2.313   1.975   2.591  0.4574  0.3804 -0.0677
 2442TIP3    H2 7333   2.284   1.868   2.489  0.1274 -1.3779  1.8101
 2443TIP3   OH2 7334   1.893   3.448   5.132 -0.8132 -0.3451  0.0989
 2443TIP3    H1 7335   1.848   3.395   5.065 -1.5071 -0.0481  0.3206
 2443TIP3    H2 7336   1.849   3.533   5.128 -0.0172  0.0728  0.0689
 2444TIP3   OH2 7337   4.825   0.851   0.656 -0.1287 -0.1196  0.4420
 2444TIP3    H1 7338   4.793   0.776   0.607 -1.2460  0.8571 -0.4052
 2444TIP3    H2 7339   4.812   0.926   0.597  0.5545  0.7919  1.4010
 2445TIP3   OH2 7340   3.670   0.189   3.875 -0.2364 -0.6026 -0.3234
 2445TIP3    H1 7341   3.594   0.244   3.858 -1.2605 -1.4756  1.2218
 2445TIP3    H2 7342   3.687   0.200   3.969  2.3827  0.5866 -0.8371
 2446TIP3   OH2 7343   0.840   5.424   1.844 -0.3819  0.3734  0.3676
 2446TIP3    H1 7344   0.754   5.427   1.802 -0.1329 -1.4671 -0.3641
 2446TIP3    H2 7345   0.902   5.418   1.771  0.0753 -2.5829  0.8752
 2447TIP3   OH2 7346   4.527   2.222   3.064  0.4233  0.2915 -0.0299
 2447TIP3    H1 7347   4.448   2.269   3.090  0.3932  1.0689 -1.4089
 2447TIP3    H2 7348   4.548   2.257   2.977  0.5418 -2.0922 -1.0509
 2448TIP3   OH2 7349   2.688   1.782   3.865 -0.7969 -0.3836  0.3706
 2448TIP3    H1 7350   2.629   1.783   3.789 -0.1371 -0.8605 -0.1590
 2448TIP3    H2 7351   2.774   1.764   3.828 -0.5829 -1.3998  1.3252
 2449TIP3   OH2 7352   3.058   1.575   1.198  0.5469  0.3762  0.0174
 2449TIP3    H1 7353   3.153   1.591   1.198  0.3940  1.3478  0.5032
 2449TIP3    H2 7354   3.036   1.559   1.289  0.3533 -0.6090 -0.1953
 2450TIP3   OH2 7355   2.434   2.408   0.486 -0.0540 -0.4397 -0.0042
 2450TIP3    H1 7356   2.503   2.364   0.438 -0.4113 -0.7124 -0.2696
 2450TIP3    H2 7357   2.354   2.389   0.437 -0.1774  0.7221 -0.2806
 2451TIP3   OH2 7358   3.312   0.243   1.318  0.4012 -0.2056  0.0694
 2451TIP3    H1 7359   3.360   0.296   1.254  0.8378 -0.5147  0.1394
 2451TIP3    H2 7360   3.227   0.286   1.325  0.7861  0.5600  0.2140
 2452TIP3   OH2 7361   2.803   1.590   0.102  0.4704 -0.5955 -0.2283
 2452TIP3    H1 7362   2.823   1.579   0.195 -1.0465  0.2336  0.2210
 2452TIP3    H2 7363   2.875   1.545   0.057  0.6650 -1.9733  1.3462
 2453TIP3   OH2 7364   0.178   4.841   0.386 -0.1178  0.9667 -0.3885
 2453TIP3    H1 7365   0.231   4.903   0.437 -0.4052  1.4834 -0.7118
 2453TIP3    H2 7366   0.087   4.865   0.407 -0.2555  1.7710 -1.8346
 2454TIP3   OH2 7367   1.802   4.295   0.401  0.0414 -0.2674  0.2954
 2454TIP3    H1 7368   1.743   4.320   0.472 -1.1933 -1.6699 -0.1944
 2454TIP3    H2 7369   1.878   4.258   0.444 -0.1532  0.0281  0.8981
 2455TIP3   OH2 7370   2.524   3.043   2.362  0.6240  0.1278 -0.4912
 2455TIP3    H1 7371   2.501   2.998   2.444  1.2877 -0.5059 -0.6398
 2455TIP3    H2 7372   2.608   3.005   2.337  2.1426  2.7014  0.3065
 2456TIP3   OH2 7373   1.221   1.326   3.798  0.2039  0.3666 -0.1893
 2456TIP3    H1 7374   1.259   1.308   3.712  0.0854 -0.1104 -0.1467
 2456TIP3    H2 7375   1.140   1.276   3.799  0.1932  0.3867  0.1955
 2457TIP3   OH2 7376   0.841   1.257   3.028  0.2970  0.6641 -0.0298
 2457TIP3    H1 7377   0.779   1.207   2.974  1.1132  1.1830 -1.5040
 2457TIP3    H2 7378   0.885   1.315   2.966 -0.3608  2.9974  1.5520
 2458TIP3   OH2 7379   1.489   0.583   3.869  0.2710  0.3658  0.5431
 2458TIP3    H1 7380   1.394   0.577   3.859  0.2740  0.7382  0.2544
 2458TIP3    H2 7381   1.523   0.559   3.783  0.4481  0.0024  0.7149
 2459TIP3   OH2 7382   2.150   1.358   3.968 -0.1393 -0.0340  0.6483
 2459TIP3    H1 7383   2.086   1.391   4.032 -0.4640  0.9484 -0.1631
 2459TIP3    H2 7384   2.231   1.350   4.018 -0.5385  0.1032  1.3388
 2460TIP3   OH2 7385   3.285   1.453   3.957  0.3868 -0.2905 -0.4615
 2460TIP3    H1 7386   3.270   1.479   3.866  0.9444 -1.0767 -0.7905
 2460TIP3    H2 7387   3.361   1.394   3.953  0.6145 -0.0884  0.5527
 2461TIP3   OH2 7388   2.322   3.026   1.966 -0.0342 -0.0802  0.2108
 2461TIP3    H1 7389   2.251   2.991   2.019  0.4900 -0.9340  0.3860
 2461TIP3    H2 7390   2.318   3.120   1.977 -0.1127 -0.2310  1.5393
 2462TIP3   OH2 7391   5.100   4.664   3.589  0.5347  0.1126 -0.0784
 2462TIP3    H1 7392   5.073   4.742   3.637 -0.4478 -1.2255  1.6832
 2462TIP3    H2 7393   5.162   4.620   3.647  0.7694 -0.6292 -0.8661
 2463TIP3   OH2 7394   0.902   2.489   3.307  0.3757  0.1664 -0.2748
 2463TIP3    H1 7395   0.962   2.563   3.297  0.7334 -0.1753 -0.7271
 2463TIP3    H2 7396   0.839   2.499   3.236  0.3528  0.1092 -0.2627
 2464TIP3   OH2 7397   4.872   5.804   4.551 -0.1915  0.3121 -0.4736
 2464TIP3    H1 7398   4.817   5.740   4.506  0.8867 -1.0344  0.0492
 2464TIP3    H2 7399   4.823   5.827   4.631 -0.1815 -0.5755 -0.2050
 2465TIP3   OH2 7400   2.710   4.734   4.817 -0.1726 -0.2213  0.1410
 2465TIP3    H1 7401   2.655   4.662   4.848 -2.0590 -0.2017 -2.7985
 2465TIP3    H2 7402   2.800   4.702   4.827 -0.9290 -3.5023 -2.0056
 2466TIP3   OH2 7403   4.173   1.419   4.039  0.1974  0.1950 -0.1966
 2466TIP3    H1 7404   4.209   1.434   4.126 -1.0306  0.9247  0.2077
 2466TIP3    H2 7405   4.250   1.417   3.982  0.9033  2.1871  0.5757
 2467TIP3   OH2 7406   3.396   3.258   4.505  0.1240 -0.1432  0.0753
 2467TIP3    H1 7407   3.321   3.240   4.561  0.4255 -2.0939 -0.0556
 2467TIP3    H2 7408   3.433   3.171   4.487  1.3069  0.6193 -1.3702
 2468TIP3   OH2 7409   2.194   3.235   5.037  0.2394  0.3234 -0.5949
 2468TIP3    H1 7410   2.283   3.267   5.051  0.7084 -1.3009  0.5172
 2468TIP3    H2 7411   2.152   3.243   5.122 -1.2971  2.6330 -1.4668
 2469TIP3   OH2 7412   1.920   0.340   2.813 -0.4188 -0.0466 -0.0315
 2469TIP3    H1 7413   1.854   0.369   2.877  0.2584 -1.1235  1.2163
 2469TIP3    H2 7414   1.903   0.392   2.735 -2.5550 -0.0692  0.3597
 2470TIP3   OH2 7415   3.438   3.885   0.593  0.6305 -0.5766 -0.0138
 2470TIP3    H1 7416   3.448   3.818   0.659  0.1516 -0.9395 -0.3053
 2470TIP3    H2 7417   3.343   3.896   0.583  0.6538  1.2685  1.1612
 2471TIP3   OH2 7418   2.343   2.340   2.402  0.0685 -0.0983 -0.3303
 2471TIP3    H1 7419   2.311   2.274   2.340  1.4736  0.4433 -1.7148
 2471TIP3    H2 7420   2.388   2.405   2.347  0.5661  0.9122  1.1847
 2472TIP3   OH2 7421   0.466   0.033   5.034 -0.7145  0.1361  0.2790
 2472TIP3    H1 7422   0.538   0.093   5.054  1.9391 -2.7511  0.1264
 2472TIP3    H2 7423   0.448  -0.011   5.117 -0.2143 -1.2154 -0.3030
 2473TIP3   OH2 7424   1.735   1.183   3.406 -0.6067 -0.1743 -0.0785
 2473TIP3    H1 7425   1.745   1.092   3.433 -0.2886 -0.5437 -1.3820
 2473TIP3    H2 7426   1.773   1.234   3.478 -0.5425 -1.0763  0.5353
 2474TIP3   OH2 7427   1.620   5.596   0.840 -0.2548  0.0726 -0.3948
 2474TIP3    H1 7428   1.700   5.547   0.858 -0.9526 -0.4904  1.3238
 2474TIP3    H2 7429   1.629   5.677   0.890 -2.5857 -1.8758  3.6565
 2475TIP3   OH2 7430   3.721   5.243   2.618  0.4132 -0.2249 -0.1598
 2475TIP3    H1 7431   3.686   5.331   2.607  2.1811  0.7157  1.1413
 2475TIP3    H2 7432   3.646   5.185   2.607 -1.4010  1.5983  1.7920
 2476TIP3   OH2 7433   0.209   1.811   2.995 -0.0866 -0.1210 -0.0559
 2476TIP3    H1 7434   0.124   1.773   3.015 -0.4400  0.1677 -0.9326
 2476TIP3    H2 7435   0.243   1.757   2.923  0.6787 -0.5128  0.5796
 2477TIP3   OH2 7436   2.469   3.546   3.037  0.1729 -0.0584  0.1244
 2477TIP3    H1 7437   2.435   3.584   3.118  0.0356  0.5147 -0.2015
 2477TIP3    H2 7438   2.442   3.606   2.968 -0.6646 -1.1086 -0.4974
 2478TIP3   OH2 7439   3.536   2.698   1.375  0.2591 -0.0589 -0.3200
 2478TIP3    H1 7440   3.467   2.634   1.357  0.9851 -1.3815  1.3406
 2478TIP3    H2 7441   3.500   2.754   1.443  0.5037 -0.2043 -0.0707
 2479TIP3   OH2 7442   5.679   2.389   3.126 -0.3659  0.0728  0.1192
 2479TIP3    H1 7443   5.595   2.434   3.118  0.2635  1.2334 -0.4002
 2479TIP3    H2 7444   5.658   2.296   3.124 -1.8301  0.2837  2.2007
 2480TIP3   OH2 7445   5.543   3.035   0.126 -0.1717  0.3781 -0.1497
 2480TIP3    H1 7446   5.481   3.052   0.197 -1.1855  0.9460 -1.1271
 2480TIP3    H2 7447   5.595   3.114   0.120 -0.2271  0.4129 -0.1749
 2481TIP3   OH2 7448   6.088   5.685   2.985 -0.5216 -0.1937  0.0056
 2481TIP3    H1 7449   6.162   5.744   2.991 -0.8974  0.1991  4.8856
 2481TIP3    H2 7450   6.109   5.626   2.912  1.7742  3.2684 -2.4168
 2482TIP3   OH2 7451   2.457   0.390   1.626  0.3265 -0.0701 -0.0033
 2482TIP3    H1 7452   2.490   0.339   1.700  0.0287  1.4304  1.2145
 2482TIP3    H2 7453   2.481   0.339   1.549  0.7511 -1.6255  1.1169
 2483TIP3   OH2 7454   4.876   1.145   3.591 -0.2028 -0.5386 -0.1228
 2483TIP3    H1 7455   4.940   1.074   3.592  0.3903 -0.0147  0.1508
 2483TIP3    H2 7456   4.866   1.168   3.499 -2.0083 -2.3763 -0.4372
 2484TIP3   OH2 7457   1.943   3.582   4.079  0.0289  0.1514 -0.4662
 2484TIP3    H1 7458   1.972   3.490   4.075  2.5917  0.8515 -0.1260
 2484TIP3    H2 7459   1.940   3.601   4.173  3.3877  1.3843 -0.4605
 2485TIP3   OH2 7460   3.541   4.865   1.717 -0.0874  0.2433 -0.2697
 2485TIP3    H1 7461   3.590   4.909   1.786 -0.3723  1.0510 -0.5756
 2485TIP3    H2 7462   3.575   4.775   1.717  1.3073  0.7558 -0.4088
 2486TIP3   OH2 7463   5.656   0.788   2.316 -0.2507  0.8980  0.3759
 2486TIP3    H1 7464   5.597   0.778   2.391  0.4830 -1.1864  0.7696
 2486TIP3    H2 7465   5.661   0.882   2.301 -0.4520  1.3941  2.9375
 2487TIP3   OH2 7466   4.799   3.992   4.825  0.2764 -0.2575  0.2417
 2487TIP3    H1 7467   4.781   3.952   4.910 -0.8092  0.7712  0.5266
 2487TIP3    H2 7468   4.866   3.937   4.786  0.2767 -1.1602  1.4662
 2488TIP3   OH2 7469   0.347   2.172   4.431 -0.2978  0.1868  0.3574
 2488TIP3    H1 7470   0.263   2.138   4.400 -0.5119  0.2106  0.9135
 2488TIP3    H2 7471   0.371   2.115   4.504  0.5378 -0.2878 -0.2745
 2489TIP3   OH2 7472   1.344   3.121   3.408  0.5370  0.5707  0.7164
 2489TIP3    H1 7473   1.423   3.075   3.379 -0.0516  0.3666 -0.6867
 2489TIP3    H2 7474   1.372   3.171   3.485  1.9836  0.3570  0.3693
 2490TIP3   OH2 7475   6.282   4.010   1.663 -0.0271  0.1999 -0.2863
 2490TIP3    H1 7476   6.242   3.960   1.592 -0.6445  0.4446 -0.1207
 2490TIP3    H2 7477   6.368   4.036   1.630 -0.3944  0.4982 -1.0252
 2491TIP3   OH2 7478   3.594   2.332   4.689  0.2999  0.3817 -0.0089
 2491TIP3    H1 7479   3.608   2.328   4.783 -0.1953  0.8875  0.0916
 2491TIP3    H2 7480   3.544   2.253   4.669  0.9815 -0.0690  0.0428
 2492TIP3   OH2 7481   4.615   5.280   1.983 -0.3230  0.4806 -0.1375
 2492TIP3    H1 7482   4.648   5.283   1.894 -0.6885  1.6079 -0.2499
 2492TIP3    H2 7483   4.690   5.251   2.036 -0.1777 -0.4338 -0.8265
 2493TIP3   OH2 7484   1.778   3.167   0.917 -0.1388  0.6327  0.2801
 2493TIP3    H1 7485   1.689   3.201   0.922  0.1989  1.3947  1.7865
 2493TIP3    H2 7486   1.834   3.244   0.908  0.3560  0.1272 -1.3081
 2494TIP3   OH2 7487   4.636   5.124   0.978  0.0798 -0.6991  0.0502
 2494TIP3    H1 7488   4.621   5.106   1.071  0.1779 -2.3713 -0.2281
 2494TIP3    H2 7489   4.668   5.214   0.976 -0.2594 -0.5105  1.5995
 2495TIP3   OH2 7490   3.673   3.711   4.746 -0.1132  0.4643 -0.1828
 2495TIP3    H1 7491   3.615   3.739   4.817 -2.4126  1.8473 -2.4175
 2495TIP3    H2 7492   3.636   3.627   4.717  0.7296 -0.0256  0.1353
 2496TIP3   OH2 7493   1.187   2.770   0.526  0.2112 -0.2378  0.2410
 2496TIP3    H1 7494   1.275   2.733   0.517 -0.1512 -1.6853  2.0394
 2496TIP3    H2 7495   1.157   2.783   0.436  2.2123  0.2479 -0.4176
 2497TIP3   OH2 7496   3.134   3.794   4.808 -0.4182 -0.3813  0.2704
 2497TIP3    H1 7497   3.088   3.860   4.756 -1.9396 -0.5929  1.2741
 2497TIP3    H2 7498   3.094   3.801   4.895  1.0639 -1.0084  1.0245
 2498TIP3   OH2 7499   3.034   5.498   3.196 -0.2677 -0.3118 -0.0331
 2498TIP3    H1 7500   3.113   5.552   3.203  0.7064 -1.5248 -1.1079
 2498TIP3    H2 7501   2.976   5.547   3.138  0.5059 -0.3046 -0.8195
 2499TIP3   OH2 7502   0.848   4.392   4.181 -0.7206 -0.0724  0.0776
 2499TIP3    H1 7503   0.908   4.320   4.162  0.1833  1.0301 -1.4332
 2499TIP3    H2 7504   0.825   4.380   4.273  1.2762 -0.9115  0.5109
 2500TIP3   OH2 7505   4.780   5.585   0.978 -0.1079  0.0334  0.1814
 2500TIP3    H1 7506   4.706   5.597   1.038  0.1303  0.0985  0.4614
 2500TIP3    H2 7507   4.772   5.494   0.948 -1.9702  0.8091 -2.0018
 2501TIP3   OH2 7508   0.920   1.436   4.999 -0.2715  0.8831 -0.0462
 2501TIP3    H1 7509   0.911   1.506   4.934  2.8883  0.8762 -0.6768
 2501TIP3    H2 7510   0.875   1.361   4.960  0.0250  1.3912 -1.4244
 2502TIP3   OH2 7511   4.554   2.552   1.101  0.3754  0.0444 -0.0714
 2502TIP3    H1 7512   4.585   2.511   1.021 -0.1466  0.9672 -0.7570
 2502TIP3    H2 7513   4.633   2.586   1.143  0.9524 -2.3528  0.9602
 2503TIP3   OH2 7514   1.559   5.065   4.939 -0.2972 -0.5009  0.4779
 2503TIP3    H1 7515   1.589   5.122   5.010 -0.4375  0.3434 -0.1131
 2503TIP3    H2 7516   1.464   5.075   4.938 -0.1821  1.0225 -1.0161
 2504TIP3   OH2 7517   5.711   0.832   1.843  0.2272  0.0806 -0.5579
 2504TIP3    H1 7518   5.705   0.742   1.876  2.0239  0.6648  1.6724
 2504TIP3    H2 7519   5.646   0.880   1.894 -0.6424  0.1004 -1.6585
 2505TIP3   OH2 7520   4.840   5.698   0.400 -0.2850  0.1264 -0.4739
 2505TIP3    H1 7521   4.814   5.695   0.492  1.1567  2.4442  0.1056
 2505TIP3    H2 7522   4.847   5.792   0.381  1.0596 -0.3302 -2.4556
 2506TIP3   OH2 7523   2.100   2.646   3.918  0.0418  0.7537 -0.4261
 2506TIP3    H1 7524   2.179   2.686   3.882 -0.7494  0.5057 -2.5737
 2506TIP3    H2 7525   2.076   2.579   3.854 -1.3594  0.1507  0.6806
 2507TIP3   OH2 7526   0.126   0.934   3.226  0.3866 -0.1399 -0.2522
 2507TIP3    H1 7527   0.089   0.852   3.257 -0.1177  0.1754 -0.0141
 2507TIP3    H2 7528   0.112   0.932   3.131 -2.0425  0.8395  0.0316
 2508TIP3   OH2 7529   1.504   4.241   2.222  0.1123 -0.2366  0.0393
 2508TIP3    H1 7530   1.560   4.172   2.184  0.8467  0.0001  0.6653
 2508TIP3    H2 7531   1.513   4.229   2.316  0.5814  0.9662  0.1625
 2509TIP3   OH2 7532   3.713   3.908   1.542 -0.1878 -0.3962  0.1019
 2509TIP3    H1 7533   3.684   3.826   1.502  2.3063 -1.1546 -0.3143
 2509TIP3    H2 7534   3.731   3.966   1.469 -0.0932 -0.1484  0.3202
 2510TIP3   OH2 7535   5.248   2.634   0.046  0.0603  0.3792 -0.2323
 2510TIP3    H1 7536   5.292   2.720   0.044  0.0537  0.4008  0.4014
 2510TIP3    H2 7537   5.292   2.583  -0.022 -0.0979  0.9626 -0.7823
 2511TIP3   OH2 7538   3.650   4.170   5.169  0.3530 -0.1449 -0.0853
 2511TIP3    H1 7539   3.614   4.190   5.082  0.4290  1.0038  0.1288
 2511TIP3    H2 7540   3.604   4.091   5.196 -1.5788  0.9281 -0.0916
 2512TIP3   OH2 7541   5.173   2.441   1.800 -0.0662  0.4085  0.1846
 2512TIP3    H1 7542   5.202   2.356   1.833 -2.1404  0.1082  1.3783
 2512TIP3    H2 7543   5.176   2.433   1.705  0.9155 -0.5535  0.2769
 2513TIP3   OH2 7544   0.987   5.514   0.716  0.6365  0.2594  0.1699
 2513TIP3    H1 7545   1.013   5.426   0.687  0.2319  0.0652  0.3901
 2513TIP3    H2 7546   1.005   5.514   0.810 -1.9775 -0.5744  0.7530
 2514TIP3   OH2 7547   3.955   3.686   0.712 -0.2225 -0.3567 -0.0667
 2514TIP3    H1 7548   4.048   3.675   0.733 -0.1458  0.5996  0.1399
 2514TIP3    H2 7549   3.944   3.640   0.629  0.2231 -1.2983  0.3822
 2515TIP3   OH2 7550   0.280   5.549   1.657 -0.1292  0.9520 -0.7422
 2515TIP3    H1 7551   0.351   5.613   1.661 -0.2953  1.0913  0.1144
 2515TIP3    H2 7552   0.325   5.466   1.641  0.8406  0.1903  4.2475
 2516TIP3   OH2 7553   2.598   3.371   1.473 -0.1054 -0.1493  0.2990
 2516TIP3    H1 7554   2.647   3.394   1.394  1.5075  2.8894  1.9799
 2516TIP3    H2 7555   2.558   3.287   1.453  1.2237 -0.1090 -3.2672
 2517TIP3   OH2 7556   6.092   4.736   4.950 -0.0279 -0.4767 -0.0530
 2517TIP3    H1 7557   6.047   4.724   5.034 -2.0652  1.5378 -0.7615
 2517TIP3    H2 7558   6.135   4.821   4.957  1.8020 -1.3474 -0.2438
 2518TIP3   OH2 7559   5.322   4.699   3.192  0.0702 -0.5498 -0.3574
 2518TIP3    H1 7560   5.364   4.699   3.106 -1.5426 -0.3139 -1.1883
 2518TIP3    H2 7561   5.381   4.749   3.248  0.3621  0.7554 -1.7554
 2519TIP3   OH2 7562   0.734   0.324   4.816 -0.0366  0.1467  0.0887
 2519TIP3    H1 7563   0.756   0.407   4.776  0.6018  0.5606  1.2516
 2519TIP3    H2 7564   0.664   0.345   4.878  0.1786 -0.1648  0.4404
 2520TIP3   OH2 7565   1.775   3.691   0.042 -0.5797 -0.0631  0.6447
 2520TIP3    H1 7566   1.777   3.785   0.027 -0.7922 -0.1010  0.3755
 2520TIP3    H2 7567   1.691   3.662   0.006 -0.4815 -0.3681  0.6537
 2521TIP3   OH2 7568   4.980   0.043   1.419  0.1542 -0.1971 -0.1202
 2521TIP3    H1 7569   4.940  -0.037   1.386 -0.8740  0.1403  0.2716
 2521TIP3    H2 7570   4.938   0.057   1.504  1.3975 -0.0386  0.4865
 2522TIP3   OH2 7571   2.266   5.351   3.304 -0.3422  0.6634  0.0178
 2522TIP3    H1 7572   2.347   5.375   3.260  0.2518  1.5102  1.5089
 2522TIP3    H2 7573   2.282   5.263   3.338  0.1451  0.9998  0.6932
 2523TIP3   OH2 7574   2.627   1.990   2.256  0.1052 -0.0919 -0.0443
 2523TIP3    H1 7575   2.578   1.991   2.338 -0.3677  1.5643 -0.3102
 2523TIP3    H2 7576   2.634   1.897   2.234  1.9703 -0.7764  2.8444
 2524TIP3   OH2 7577   5.348   2.016   3.754  0.0744  0.3739  0.2032
 2524TIP3    H1 7578   5.302   2.031   3.837 -0.4585 -1.2262  0.2413
 2524TIP3    H2 7579   5.311   1.934   3.721  1.2947  0.2376 -0.9097
 2525TIP3   OH2 7580   5.591   0.556   0.130 -0.1288  0.2438  0.3794
 2525TIP3    H1 7581   5.571   0.462   0.138 -2.3844  0.6183 -0.0275
 2525TIP3    H2 7582   5.686   0.561   0.130  0.0839 -2.1840 -0.9146
 2526TIP3   OH2 7583   2.758   4.262   0.251 -0.3504 -0.0476 -0.2152
 2526TIP3    H1 7584   2.705   4.204   0.196  1.3313 -1.1556 -0.7409
 2526TIP3    H2 7585   2.783   4.334   0.193 -0.4964 -0.0026 -0.2238
 2527TIP3   OH2 7586   1.845   0.699   3.729  0.2055  0.5329  0.2347
 2527TIP3    H1 7587   1.794   0.780   3.722  0.3373  0.6053  0.0965
 2527TIP3    H2 7588   1.792   0.633   3.683  1.5753  1.2442 -2.6024
 2528TIP3   OH2 7589   2.793   1.841   1.541  0.1045  0.9510  0.2452
 2528TIP3    H1 7590   2.715   1.864   1.591 -1.1741  1.2395 -1.7677
 2528TIP3    H2 7591   2.859   1.821   1.607 -1.4190  1.5147  2.0159
 2529TIP3   OH2 7592   0.230   1.793   4.470 -0.0226  0.0507  0.0310
 2529TIP3    H1 7593   0.147   1.769   4.510  0.7846 -3.0133  0.0695
 2529TIP3    H2 7594   0.218   1.885   4.444 -2.6851  0.2942  1.7590
 2530TIP3   OH2 7595   4.737   0.970   5.179 -0.5418 -0.0261 -0.7430
 2530TIP3    H1 7596   4.789   0.895   5.150  0.4982  0.1424  0.6174
 2530TIP3    H2 7597   4.648   0.936   5.186  0.2282 -1.7629  1.8985
 2531TIP3   OH2 7598   2.796   0.611   1.285 -0.0941  0.2350 -0.2193
 2531TIP3    H1 7599   2.869   0.673   1.282 -1.3396  2.0361  2.1435
 2531TIP3    H2 7600   2.837   0.525   1.286  2.1132  1.1823  1.8504
 2532TIP3   OH2 7601   1.645   2.672   0.730 -0.2759  0.1028  0.1843
 2532TIP3    H1 7602   1.567   2.699   0.681 -0.4387 -1.6030 -0.5860
 2532TIP3    H2 7603   1.717   2.721   0.691 -0.7353  0.4706 -0.2102
 2533TIP3   OH2 7604   0.415   4.985   0.288 -0.2797  0.4883 -0.4046
 2533TIP3    H1 7605   0.348   4.931   0.247 -1.6612  2.9579 -1.6696
 2533TIP3    H2 7606   0.445   5.043   0.218  1.8284  0.7239  0.6205
 2534TIP3   OH2 7607   0.941   1.590   1.698 -0.1665  0.3615  0.4824
 2534TIP3    H1 7608   0.911   1.611   1.786 -1.7176  1.5215 -0.2678
 2534TIP3    H2 7609   1.017   1.647   1.684 -0.8145  1.2789  0.5711
 2535TIP3   OH2 7610   1.848   2.225   3.243 -0.0259 -0.2784 -0.4726
 2535TIP3    H1 7611   1.878   2.134   3.246  1.7105  0.2898  0.3200
 2535TIP3    H2 7612   1.865   2.252   3.153 -1.3446 -0.9638 -0.9550
 2536TIP3   OH2 7613   0.909   4.103   0.768 -0.7837 -0.2489 -0.3645
 2536TIP3    H1 7614   0.872   4.027   0.724 -2.5890  0.0682  0.5326
 2536TIP3    H2 7615   0.987   4.070   0.812 -1.0243 -1.3659 -0.7567
 2537TIP3   OH2 7616   4.517   2.768   4.866 -0.2950  0.1876 -0.4012
 2537TIP3    H1 7617   4.537   2.720   4.946 -1.7709 -0.8051 -0.5831
 2537TIP3    H2 7618   4.557   2.854   4.878 -0.7124  0.1531  1.5129
 2538TIP3   OH2 7619   2.436   2.643   2.828  0.2346  0.2873  0.1283
 2538TIP3    H1 7620   2.381   2.665   2.753  0.5524  1.4519  0.2238
 2538TIP3    H2 7621   2.444   2.548   2.824  0.6379  0.3629 -1.5840
 2539TIP3   OH2 7622   2.811   4.868   2.817 -0.0499 -0.6080 -0.8871
 2539TIP3    H1 7623   2.815   4.938   2.881 -0.3111 -0.7965 -0.6653
 2539TIP3    H2 7624   2.719   4.863   2.791 -0.2249 -1.5630 -0.1218
 2540TIP3   OH2 7625   4.048   3.887   4.033 -0.4706  0.2509 -0.3608
 2540TIP3    H1 7626   4.056   3.919   4.123 -1.8818  1.5145 -0.6376
 2540TIP3    H2 7627   4.012   3.961   3.985 -0.6472 -0.7225 -1.7777
 2541TIP3   OH2 7628   6.227   3.428   1.110  0.6968  0.4316  0.4256
 2541TIP3    H1 7629   6.142   3.411   1.151  0.6231 -0.8306 -0.2265
 2541TIP3    H2 7630   6.286   3.443   1.184 -0.4292  3.3557  0.8802
 2542TIP3   OH2 7631   4.923   0.415   1.367  0.7140 -0.2551 -0.0619
 2542TIP3    H1 7632   4.902   0.324   1.388  0.5825 -0.4268 -0.8849
 2542TIP3    H2 7633   4.847   0.446   1.317  0.9839  0.1474 -0.2262
 2543TIP3   OH2 7634   0.499   1.875   1.540 -0.4350  0.0181 -0.7980
 2543TIP3    H1 7635   0.501   1.933   1.464 -1.0330  0.0628 -0.7832
 2543TIP3    H2 7636   0.565   1.808   1.520 -0.2781  0.2734 -1.1540
 2544TIP3   OH2 7637   1.113   2.694   3.236  0.1668  0.0320  0.4726
 2544TIP3    H1 7638   1.062   2.763   3.193  0.1661 -1.1703 -1.6141
 2544TIP3    H2 7639   1.118   2.720   3.328 -3.6286  0.5633  0.6796
 2545TIP3   OH2 7640   4.346   3.836   1.773 -0.5741 -0.2793  0.2137
 2545TIP3    H1 7641   4.417   3.823   1.709 -0.9481  0.7875 -0.4389
 2545TIP3    H2 7642   4.294   3.756   1.766 -1.7086  0.5607 -2.2842
 2546TIP3   OH2 7643   3.023   1.677   0.914 -0.7809 -0.3369  0.2739
 2546TIP3    H1 7644   3.113   1.654   0.888 -1.2393 -2.2254  0.2020
 2546TIP3    H2 7645   3.017   1.771   0.898  1.7564  0.2357  2.0100
 2547TIP3   OH2 7646   0.300   0.025   2.796  0.5905 -0.3895 -0.8055
 2547TIP3    H1 7647   0.306   0.120   2.805  2.3956 -0.4554 -0.9801
 2547TIP3    H2 7648   0.227   0.000   2.853  0.4351  1.0342 -0.3426
 2548TIP3   OH2 7649   1.185   1.935   4.661  0.1465  0.1505 -0.0430
 2548TIP3    H1 7650   1.162   1.869   4.727  1.7641 -0.2543  0.1570
 2548TIP3    H2 7651   1.268   1.904   4.624 -0.7691  0.2850 -2.3977
 2549TIP3   OH2 7652   4.090   1.434   2.464  0.1864 -0.4953  0.4777
 2549TIP3    H1 7653   4.062   1.523   2.441 -2.3081 -1.7941 -2.0676
 2549TIP3    H2 7654   4.103   1.437   2.559  0.5680  2.6492  0.4241
 2550TIP3   OH2 7655   5.206   0.472   1.694  0.4122  0.1815  0.0991
 2550TIP3    H1 7656   5.245   0.455   1.779  1.2691 -1.1049 -0.5081
 2550TIP3    H2 7657   5.116   0.443   1.702  0.8665 -1.3026  0.1933
 2551TIP3   OH2 7658   3.030   3.950   1.649  0.0593 -0.0443  0.0062
 2551TIP3    H1 7659   2.986   3.865   1.640  2.5608 -1.3460 -0.9464
 2551TIP3    H2 7660   3.047   3.958   1.743  0.3257 -0.9259  0.0486
 2552TIP3   OH2 7661   3.141   5.354   4.037 -0.0761  0.2400 -0.0168
 2552TIP3    H1 7662   3.078   5.417   4.003 -0.1957  1.0647  1.6200
 2552TIP3    H2 7663   3.132   5.277   3.981 -1.1089  1.0747 -1.0262
 2553TIP3   OH2 7664   2.486   3.882   4.412  0.3453 -0.0710 -0.4040
 2553TIP3    H1 7665   2.544   3.937   4.465  2.9087 -2.1841 -0.8284
 2553TIP3    H2 7666   2.487   3.922   4.325 -0.4398  0.9824  0.0494
 2554TIP3   OH2 7667   0.422   4.748   0.086  0.5640  0.0418 -0.2339
 2554TIP3    H1 7668   0.433   4.657   0.114 -0.2644 -0.1590 -0.5213
 2554TIP3    H2 7669   0.328   4.756   0.068  0.5558  1.0640  0.1676
 2555TIP3   OH2 7670   0.323   5.102   2.458  0.0630  0.0304 -0.4280
 2555TIP3    H1 7671   0.385   5.168   2.428  0.3983 -0.1623 -0.1726
 2555TIP3    H2 7672   0.279   5.072   2.378 -0.3775  0.8376 -0.5022
 2556TIP3   OH2 7673   1.286   4.890   3.437 -0.3616 -0.0932  0.2808
 2556TIP3    H1 7674   1.210   4.833   3.422 -0.4531 -0.1460  0.8892
 2556TIP3    H2 7675   1.266   4.970   3.387 -0.4189 -0.4363 -0.2515
 2557TIP3   OH2 7676   1.970   0.111   4.469 -0.6195  0.3344  0.2902
 2557TIP3    H1 7677   1.966   0.172   4.543 -1.9201  0.9024 -0.2000
 2557TIP3    H2 7678   2.021   0.157   4.403  0.6829 -0.2403  0.8645
 2558TIP3   OH2 7679   1.044   1.602   1.084 -0.2560  0.0250 -0.1166
 2558TIP3    H1 7680   1.110   1.633   1.146 -1.2056 -0.2212  1.0622
 2558TIP3    H2 7681   0.962   1.641   1.115 -0.4814  1.6189 -2.4660
 2559TIP3   OH2 7682   1.996   2.701   4.169 -0.0311 -0.2416  0.0784
 2559TIP3    H1 7683   2.041   2.667   4.092  0.0454 -0.5787  0.2669
 2559TIP3    H2 7684   2.007   2.796   4.164 -0.2266 -0.2479 -0.4443
 2560TIP3   OH2 7685   1.621   2.896   5.086  0.0341  0.0834  0.1428
 2560TIP3    H1 7686   1.577   2.934   5.011 -0.0886 -0.8123 -0.2586
 2560TIP3    H2 7687   1.715   2.907   5.068  0.0302 -0.8867 -0.5768
 2561TIP3   OH2 7688   3.181   1.365   1.645  0.2141  0.2708  0.0993
 2561TIP3    H1 7689   3.176   1.401   1.733 -2.2099 -2.0277  1.0346
 2561TIP3    H2 7690   3.238   1.288   1.654 -0.5578 -0.3448 -0.1471
 2562TIP3   OH2 7691   0.669   1.940   2.323 -0.4659 -0.1342  0.1348
 2562TIP3    H1 7692   0.693   2.002   2.392 -1.0050  0.8844 -0.5595
 2562TIP3    H2 7693   0.739   1.875   2.324 -0.1375  0.2115  1.2100
 2563TIP3   OH2 7694   5.864   1.546   4.402 -0.3891  0.0098  0.2134
 2563TIP3    H1 7695   5.778   1.554   4.442 -0.1759 -1.1686  0.9787
 2563TIP3    H2 7696   5.860   1.465   4.351 -0.9425  1.9091 -3.0264
 2564TIP3   OH2 7697   3.914   1.423   2.731 -0.0705  0.1902 -0.6410
 2564TIP3    H1 7698   4.000   1.436   2.770  0.6555 -0.9479 -1.7959
 2564TIP3    H2 7699   3.915   1.332   2.700 -2.0420 -0.1801  0.1769
 2565TIP3   OH2 7700   4.885   2.972   5.117  0.4127 -0.4632  0.3022
 2565TIP3    H1 7701   4.965   3.020   5.139  0.8360 -0.8565 -0.3193
 2565TIP3    H2 7702   4.916   2.887   5.087 -0.2929 -0.9071  0.8021
 2566TIP3   OH2 7703   1.296   0.923   3.258  0.2695 -0.1689 -0.3892
 2566TIP3    H1 7704   1.214   0.893   3.299  0.4207 -1.5958 -1.0560
 2566TIP3    H2 7705   1.296   1.018   3.270 -1.1822 -0.2171  0.1784
 2567TIP3   OH2 7706   6.203   1.300   0.127 -0.4029 -0.5004  0.1380
 2567TIP3    H1 7707   6.258   1.223   0.142 -0.6394 -0.8485 -0.7261
 2567TIP3    H2 7708   6.117   1.263   0.107 -1.0620  0.0340  1.7675
 2568TIP3   OH2 7709   3.196   0.949   4.677  0.2022 -0.0982  0.1616
 2568TIP3    H1 7710   3.192   1.039   4.644  1.0149  0.1228  0.6564
 2568TIP3    H2 7711   3.275   0.912   4.638  1.2102  0.1837  1.8623
 2569TIP3   OH2 7712   3.895   4.070   3.912 -0.2820 -0.4500  0.5369
 2569TIP3    H1 7713   3.958   4.058   3.841  0.3083  1.0308  0.7657
 2569TIP3    H2 7714   3.833   4.134   3.878 -0.0464  0.1990  1.3001
 2570TIP3   OH2 7715   1.675   5.195   2.195 -0.0119  0.3955  0.6781
 2570TIP3    H1 7716   1.610   5.175   2.128  0.3025  0.3484  0.3782
 2570TIP3    H2 7717   1.724   5.113   2.205  1.0503  0.8865 -0.2885
 2571TIP3   OH2 7718   4.862   0.209   4.991  0.3122  0.1064  0.0132
 2571TIP3    H1 7719   4.819   0.127   5.015  1.1512 -0.3150  0.1188
 2571TIP3    H2 7720   4.945   0.207   5.039  0.8334  0.4995 -0.8548
 2572TIP3   OH2 7721   5.519   1.050   2.440  0.0104 -0.1281 -0.4370
 2572TIP3    H1 7722   5.575   1.087   2.371 -0.3594 -0.5371 -0.9607
 2572TIP3    H2 7723   5.580   1.029   2.511  0.5005 -0.4248 -0.9371
 2573TIP3   OH2 7724   2.480   3.500   3.939 -0.1401  0.1191  0.4462
 2573TIP3    H1 7725   2.468   3.474   3.848 -0.0800 -0.8664  0.7036
 2573TIP3    H2 7726   2.571   3.527   3.945 -0.4581  1.3860 -0.0514
 2574TIP3   OH2 7727   0.835   3.077   0.107  0.2918  0.0358  0.7572
 2574TIP3    H1 7728   0.742   3.062   0.088  0.0890  2.1383 -0.2377
 2574TIP3    H2 7729   0.835   3.113   0.195  0.1399  0.2291  0.6791
 2575TIP3   OH2 7730   5.574   1.298   4.135 -0.5032 -0.1481  0.0785
 2575TIP3    H1 7731   5.560   1.203   4.142 -2.0997 -0.0983 -1.7119
 2575TIP3    H2 7732   5.526   1.334   4.209 -0.7200 -0.6720  0.2019
 2576TIP3   OH2 7733   1.797   0.327   3.887  0.2385 -0.2489  0.0565
 2576TIP3    H1 7734   1.729   0.261   3.871  0.9838 -1.0309 -0.0013
 2576TIP3    H2 7735   1.767   0.405   3.842 -0.7738 -0.4815  0.3015
 2577TIP3   OH2 7736   4.747   5.470   3.628  0.3269 -0.3637  0.2378
 2577TIP3    H1 7737   4.664   5.511   3.608  0.0905 -0.5289  0.8597
 2577TIP3    H2 7738   4.813   5.532   3.597  0.0139 -1.2216 -2.3652
 2578TIP3   OH2 7739   0.248   0.115   1.010  0.2149 -0.4175 -0.2372
 2578TIP3    H1 7740   0.338   0.093   0.985  0.2050 -0.2875 -0.3933
 2578TIP3    H2 7741   0.246   0.211   1.007  0.2928 -0.3841  0.5485
 2579TIP3   OH2 7742   0.999   0.035   1.286  0.0653  0.5606 -0.0351
 2579TIP3    H1 7743   0.966  -0.004   1.366  0.5503  0.1538 -0.0281
 2579TIP3    H2 7744   0.929   0.024   1.222  0.0074  0.1274  0.1036
 2580TIP3   OH2 7745   4.594   1.925   3.386 -0.0400 -0.0276 -0.3145
 2580TIP3    H1 7746   4.656   1.920   3.459  1.2199 -0.6916 -1.3707
 2580TIP3    H2 7747   4.609   2.012   3.348 -0.6912  0.3156  0.2071
 2581TIP3   OH2 7748   2.185   2.199   3.496 -0.1916 -0.1609  0.5695
 2581TIP3    H1 7749   2.223   2.218   3.410  0.0514 -0.4052  0.6222
 2581TIP3    H2 7750   2.255   2.218   3.558 -0.1296 -0.6914  0.6605
 2582TIP3   OH2 7751   5.479   1.171   1.026 -0.3829  0.2043 -0.6873
 2582TIP3    H1 7752   5.392   1.177   0.984 -1.1664 -1.1504  0.6212
 2582TIP3    H2 7753   5.488   1.078   1.047  0.1119  0.7450  1.7960
 2583TIP3   OH2 7754   1.121   1.489   4.509 -0.5598 -0.2663  0.9300
 2583TIP3    H1 7755   1.125   1.555   4.439 -0.3521 -1.0155  0.2159
 2583TIP3    H2 7756   1.195   1.509   4.565 -0.8542  0.4803  1.0704
 2584TIP3   OH2 7757   3.989   3.577   1.053  0.3936  0.1737  0.2580
 2584TIP3    H1 7758   4.003   3.669   1.074 -1.8100  0.8391 -0.8133
 2584TIP3    H2 7759   3.929   3.546   1.121 -0.0302 -0.0159 -0.1908
 2585TIP3   OH2 7760   1.680   1.189   4.153 -0.0787  0.0339 -0.1551
 2585TIP3    H1 7761   1.592   1.200   4.189 -0.1408 -0.7955 -0.0468
 2585TIP3    H2 7762   1.695   1.094   4.152  1.9748  0.2135  2.6551
 2586TIP3   OH2 7763   2.125   3.556   2.259  0.2897 -0.0838  0.0668
 2586TIP3    H1 7764   2.187   3.612   2.214 -0.8003 -0.4085 -1.9492
 2586TIP3    H2 7765   2.053   3.614   2.284  0.5199 -0.0541  0.6721
 2587TIP3   OH2 7766   0.359   0.921   1.347 -0.0192  0.1800 -0.1555
 2587TIP3    H1 7767   0.368   1.011   1.377 -0.7490  0.2075 -0.0023
 2587TIP3    H2 7768   0.406   0.920   1.263 -0.0186  0.7060 -0.1686
 2588TIP3   OH2 7769   2.663   4.013   3.132  0.0917  0.1312 -0.3058
 2588TIP3    H1 7770   2.635   3.924   3.154  0.3783  0.0875 -0.1132
 2588TIP3    H2 7771   2.748   4.022   3.174  0.2761  0.3331 -0.7241
 2589TIP3   OH2 7772   3.149   4.727   4.584  0.0915 -0.3303 -0.1322
 2589TIP3    H1 7773   3.209   4.702   4.654 -0.6026  1.3227  1.1001
 2589TIP3    H2 7774   3.146   4.822   4.587 -1.3587 -0.3032 -1.2299
 2590TIP3   OH2 7775   3.832   4.879   1.250 -0.0419 -0.7706 -0.1680
 2590TIP3    H1 7776   3.821   4.940   1.177  0.4501  0.1536  0.5191
 2590TIP3    H2 7777   3.779   4.803   1.226 -0.4433 -0.1917 -1.1569
 2591TIP3   OH2 7778   0.508   1.535   1.136 -0.1277 -0.2894  0.0479
 2591TIP3    H1 7779   0.521   1.630   1.130 -0.0950 -0.3002 -0.0532
 2591TIP3    H2 7780   0.582   1.504   1.188  0.8170 -0.4811 -1.3824
 2592TIP3   OH2 7781   3.048   2.348   0.895 -0.1727 -0.9004  0.4485
 2592TIP3    H1 7782   3.037   2.280   0.961  1.2581 -1.1327  0.4854
 2592TIP3    H2 7783   3.117   2.405   0.930 -1.3141  0.5761  0.4034
 2593TIP3   OH2 7784   1.283   4.395   1.134  0.3665  0.1321  0.3237
 2593TIP3    H1 7785   1.216   4.358   1.076 -0.8774  3.1665 -0.3453
 2593TIP3    H2 7786   1.274   4.346   1.215 -1.8556 -0.3753 -0.1537
 2594TIP3   OH2 7787   2.129   2.336   3.064  0.3283 -0.0721  0.2580
 2594TIP3    H1 7788   2.092   2.417   3.099 -0.6120 -0.5669  0.4603
 2594TIP3    H2 7789   2.070   2.268   3.097  0.2553 -0.7008 -1.1081
 2595TIP3   OH2 7790   3.580   5.455   1.149  0.6396 -0.2498 -0.0207
 2595TIP3    H1 7791   3.654   5.396   1.165 -0.3780 -1.1092  1.9047
 2595TIP3    H2 7792   3.593   5.487   1.060  1.6589 -2.7928 -0.8634
 2596TIP3   OH2 7793   4.983   4.659   1.408  0.1348 -0.1361 -0.0207
 2596TIP3    H1 7794   5.030   4.684   1.329 -1.8103  0.4878 -1.0529
 2596TIP3    H2 7795   4.994   4.733   1.468  2.6982 -1.1332  0.9132
 2597TIP3   OH2 7796   5.715   4.348   3.874 -0.1576  0.4509  0.2895
 2597TIP3    H1 7797   5.753   4.356   3.786 -0.3462 -2.3519 -0.1481
 2597TIP3    H2 7798   5.787   4.314   3.928 -0.5153  0.5003  0.8056
 2598TIP3   OH2 7799   0.611   2.453   4.068  0.1730  0.2943 -0.1808
 2598TIP3    H1 7800   0.532   2.452   4.014  1.1087  0.4586 -1.6249
 2598TIP3    H2 7801   0.670   2.392   4.024  1.9091  2.3552 -0.8981
 2599TIP3   OH2 7802   0.607   1.776   4.202  0.5843 -0.2438 -0.0786
 2599TIP3    H1 7803   0.694   1.761   4.164  0.3649 -1.2302 -0.2223
 2599TIP3    H2 7804   0.595   1.871   4.198  1.3034 -0.1722 -0.8447
 2600TIP3   OH2 7805   0.726   4.365   1.401  0.9913  0.1973 -0.0382
 2600TIP3    H1 7806   0.777   4.343   1.323 -0.4042  0.2067 -0.9854
 2600TIP3    H2 7807   0.750   4.455   1.421 -0.4461  1.0806 -1.9750
 2601TIP3   OH2 7808   3.404   0.093   0.911 -0.2522 -0.3950  0.2371
 2601TIP3    H1 7809   3.401   0.188   0.925  2.0471 -0.0481 -1.1167
 2601TIP3    H2 7810   3.424   0.083   0.818 -1.9115 -2.2853  0.0125
 2602TIP3   OH2 7811   0.181   3.383   5.073  0.4108  0.2184  0.0462
 2602TIP3    H1 7812   0.222   3.314   5.126  0.8506  0.5417  0.1349
 2602TIP3    H2 7813   0.235   3.460   5.089 -1.2273  1.1478  1.5796
 2603TIP3   OH2 7814   4.810   2.375   1.833 -0.0436  0.2914  0.0621
 2603TIP3    H1 7815   4.898   2.407   1.851 -0.5639  1.2820  1.0182
 2603TIP3    H2 7816   4.755   2.454   1.837 -1.0969 -0.4386  0.4081
 2604TIP3   OH2 7817   0.799   5.898   3.572 -0.0440 -0.6373 -0.3612
 2604TIP3    H1 7818   0.817   5.846   3.650  2.1883 -0.6925 -0.8507
 2604TIP3    H2 7819   0.748   5.972   3.604  1.0546 -0.5073  1.2292
 2605TIP3   OH2 7820   4.967   2.397   1.552 -0.0925  0.7257  0.0259
 2605TIP3    H1 7821   4.967   2.488   1.583 -0.0339  0.5268  0.6329
 2605TIP3    H2 7822   4.895   2.356   1.600  0.1265  0.3594  0.0447
 2606TIP3   OH2 7823   1.285   0.911   2.803  0.2515  0.7544  0.1530
 2606TIP3    H1 7824   1.258   1.002   2.811 -1.0720  0.9161 -3.9006
 2606TIP3    H2 7825   1.358   0.912   2.742  1.4310 -0.8088  1.4342
 2607TIP3   OH2 7826   0.631   3.640   0.993  0.0626 -0.1259 -0.0624
 2607TIP3    H1 7827   0.596   3.579   1.057  0.1975  0.9000  1.0274
 2607TIP3    H2 7828   0.617   3.727   1.032  0.5771  0.5033 -1.2106
 2608TIP3   OH2 7829   4.001   5.279   3.552 -0.4603 -0.0805  0.1968
 2608TIP3    H1 7830   3.925   5.226   3.528 -0.5299  1.0320 -2.4023
 2608TIP3    H2 7831   3.967   5.369   3.557  0.3602  0.2090  0.7973
 2609TIP3   OH2 7832   2.623   0.370   4.323 -0.1569  0.2540  0.0056
 2609TIP3    H1 7833   2.547   0.406   4.369 -0.6939 -0.7028 -0.1019
 2609TIP3    H2 7834   2.684   0.345   4.393 -1.8929 -3.3122  0.4842
 2610TIP3   OH2 7835   5.563   1.181   1.486  0.7039  0.2741 -0.0047
 2610TIP3    H1 7836   5.514   1.238   1.427  2.0707  2.9403  1.2650
 2610TIP3    H2 7837   5.498   1.152   1.551  0.0739  0.7354 -0.4215
 2611TIP3   OH2 7838   2.755   2.041   3.961  0.0205 -0.0401 -0.0713
 2611TIP3    H1 7839   2.777   1.957   3.920 -1.0953  0.1621 -1.1397
 2611TIP3    H2 7840   2.778   2.107   3.896  0.9271  0.5170  0.7795
 2612TIP3   OH2 7841   2.458   2.524   4.153 -0.4823  0.5820 -0.2660
 2612TIP3    H1 7842   2.391   2.591   4.147 -1.1354  0.2126  1.9259
 2612TIP3    H2 7843   2.533   2.569   4.192 -0.5746  0.2841  0.2654
 2613TIP3   OH2 7844   2.887   3.608   3.609  0.2061 -0.1849  0.3899
 2613TIP3    H1 7845   2.954   3.562   3.659 -0.1261 -0.7847  0.3006
 2613TIP3    H2 7846   2.837   3.538   3.567 -0.8750  0.2159  0.9641
 2614TIP3   OH2 7847   1.310   4.375   0.343  0.0270 -0.5001  0.5282
 2614TIP3    H1 7848   1.311   4.418   0.428  1.3595  0.6871 -0.0446
 2614TIP3    H2 7849   1.402   4.349   0.329  0.1616  0.7707 -1.2254
 2615TIP3   OH2 7850   5.239   2.433   2.440  0.4388  0.0778  0.1070
 2615TIP3    H1 7851   5.304   2.379   2.484 -0.1282 -2.8494 -2.3508
 2615TIP3    H2 7852   5.162   2.429   2.497  0.5580 -1.3615  0.1905
 2616TIP3   OH2 7853   6.339   2.191   0.735  0.7413 -0.3000 -0.1951
 2616TIP3    H1 7854   6.266   2.220   0.681 -0.4022  0.4712  1.6555
 2616TIP3    H2 7855   6.409   2.254   0.715 -0.4715  1.5270  0.9421
 2617TIP3   OH2 7856   1.706   4.884   0.759 -0.0727 -0.3297  0.1483
 2617TIP3    H1 7857   1.658   4.962   0.785  0.5070 -0.1452  0.6953
 2617TIP3    H2 7858   1.786   4.886   0.812 -0.2533 -1.5272  0.5010
 2618TIP3   OH2 7859   1.387   2.549   4.274  0.2702  0.2339  0.5393
 2618TIP3    H1 7860   1.367   2.473   4.329 -1.7339  1.0989  1.1173
 2618TIP3    H2 7861   1.302   2.579   4.242  1.0191  2.0365  0.0782
 2619TIP3   OH2 7862   4.620   4.922   1.959  0.6472  0.2065 -0.3962
 2619TIP3    H1 7863   4.535   4.879   1.943  1.8390 -3.0720  1.0608
 2619TIP3    H2 7864   4.601   4.990   2.023 -1.0419  0.2866 -0.9332
 2620TIP3   OH2 7865   5.961   4.718   2.553  0.2981 -0.0535 -0.1337
 2620TIP3    H1 7866   6.018   4.726   2.477  0.7081  0.0457  0.1816
 2620TIP3    H2 7867   5.930   4.627   2.550  0.1613  0.0030 -0.5194
 2621TIP3   OH2 7868   2.877   1.799   4.218  0.2296 -0.2569 -0.4621
 2621TIP3    H1 7869   2.922   1.761   4.143 -0.0005 -3.1551  0.7394
 2621TIP3    H2 7870   2.784   1.782   4.201  0.1284 -0.3296  0.1458
 2622TIP3   OH2 7871   5.327   1.830   1.305 -0.2939 -0.3460  0.0596
 2622TIP3    H1 7872   5.383   1.886   1.359  0.9516 -1.1341 -0.3637
 2622TIP3    H2 7873   5.383   1.804   1.231 -2.0661  1.0335 -1.8771
 2623TIP3   OH2 7874   3.483   4.535   1.610  0.4064  0.6578  0.5401
 2623TIP3    H1 7875   3.550   4.590   1.570 -1.1137  1.0984 -1.5660
 2623TIP3    H2 7876   3.481   4.457   1.555 -0.1463  0.2293  1.1570
 2624TIP3   OH2 7877   4.082   1.758   0.189  0.2262 -0.4053 -0.3976
 2624TIP3    H1 7878   4.176   1.744   0.174 -0.0091 -3.2222  0.1302
 2624TIP3    H2 7879   4.064   1.709   0.269 -1.5710  0.7463 -0.0601
 2625TIP3   OH2 7880   6.289   1.047   4.691 -0.2189  0.0888  0.2029
 2625TIP3    H1 7881   6.247   0.963   4.670 -0.9884 -0.0478  2.0934
 2625TIP3    H2 7882   6.343   1.067   4.615 -0.5088 -1.8192 -0.5475
 2626TIP3   OH2 7883   5.854   3.187   3.126  0.3135 -0.1375 -0.1638
 2626TIP3    H1 7884   5.916   3.224   3.063 -0.3057  1.0753 -0.1056
 2626TIP3    H2 7885   5.815   3.264   3.167 -1.1873 -0.8790 -0.1669
 2627TIP3   OH2 7886   0.258   0.761   2.314 -0.4475  0.2276 -0.1085
 2627TIP3    H1 7887   0.241   0.843   2.361  1.7293 -0.0025  1.2216
 2627TIP3    H2 7888   0.188   0.702   2.342 -1.2300  1.2004  0.0232
 2628TIP3   OH2 7889   5.347   0.849   3.617 -0.9041 -0.1547  0.5577
 2628TIP3    H1 7890   5.441   0.859   3.631 -0.6755 -0.0837 -0.8736
 2628TIP3    H2 7891   5.337   0.762   3.579 -1.4480 -0.2653  0.9486
 2629TIP3   OH2 7892   0.866   3.788   3.492  0.2184 -0.1546  0.3643
 2629TIP3    H1 7893   0.900   3.821   3.575  0.4806 -1.9116  1.0053
 2629TIP3    H2 7894   0.876   3.693   3.499  1.0509 -0.3098 -2.0211
 2630TIP3   OH2 7895   1.375   4.697   2.229 -0.3602  0.4612  0.6254
 2630TIP3    H1 7896   1.386   4.790   2.247 -1.8195  0.7907 -0.0844
 2630TIP3    H2 7897   1.383   4.655   2.315 -1.4139  1.4358  1.2310
 2631TIP3   OH2 7898   4.546   1.620   0.727  0.2296 -0.0642 -0.0356
 2631TIP3    H1 7899   4.573   1.708   0.700 -0.3913  0.0351 -0.3497
 2631TIP3    H2 7900   4.554   1.567   0.648 -0.1029 -0.1210 -0.0340
 2632TIP3   OH2 7901   3.992   5.317   2.713 -0.0248  0.0814 -0.0293
 2632TIP3    H1 7902   4.062   5.253   2.699 -0.0561  0.2889 -1.3006
 2632TIP3    H2 7903   3.931   5.301   2.642 -0.4195  1.0178  0.0805
 2633TIP3   OH2 7904   3.538   1.586   3.569 -0.3017 -0.2334 -0.4016
 2633TIP3    H1 7905   3.458   1.548   3.535 -0.6006  0.6892 -0.7705
 2633TIP3    H2 7906   3.562   1.531   3.643  0.3201 -2.2445 -2.0190
 2634TIP3   OH2 7907   2.384   3.156   4.577  0.3968 -0.0741 -0.4887
 2634TIP3    H1 7908   2.314   3.152   4.511  0.1395  0.9653 -0.3027
 2634TIP3    H2 7909   2.343   3.128   4.658  0.0327  1.0397 -0.2697
 2635TIP3   OH2 7910   2.490   4.563   3.610 -0.1582 -0.5120  0.1549
 2635TIP3    H1 7911   2.492   4.516   3.527 -0.6913 -1.8286  0.8668
 2635TIP3    H2 7912   2.399   4.590   3.622 -0.3824 -1.5680  0.9689
 2636TIP3   OH2 7913   4.949   1.208   4.475 -0.0341 -0.3223  0.7292
 2636TIP3    H1 7914   4.958   1.273   4.545 -0.4973 -0.2161  0.6885
 2636TIP3    H2 7915   4.965   1.124   4.518 -3.4112 -0.6031  1.6709
 2637TIP3   OH2 7916   5.483   0.062   2.383 -0.6100 -0.2747  0.3018
 2637TIP3    H1 7917   5.419   0.121   2.343 -1.0153  0.5305  2.0603
 2637TIP3    H2 7918   5.549   0.049   2.315 -1.5840  0.5179 -0.8390
 2638TIP3   OH2 7919   5.817   4.160   1.037  0.5451  0.1632 -0.2028
 2638TIP3    H1 7920   5.780   4.086   1.086  0.2162  1.9800  2.5631
 2638TIP3    H2 7921   5.832   4.227   1.104  0.6728  2.6796 -2.5794
 2639TIP3   OH2 7922   4.127   3.125   4.359  0.5421  0.2205  0.3784
 2639TIP3    H1 7923   4.076   3.052   4.324  0.7839  0.9639 -1.7067
 2639TIP3    H2 7924   4.207   3.084   4.392  0.9711 -0.4544 -1.3582
 2640TIP3   OH2 7925   4.329   4.434   2.062  0.5875  0.0163  0.6222
 2640TIP3    H1 7926   4.285   4.487   2.128 -1.5539 -0.6081 -0.2190
 2640TIP3    H2 7927   4.354   4.354   2.108  1.2912  0.5702  1.2233
 2641TIP3   OH2 7928   1.653   4.356   1.916  0.0016  0.6927 -0.1081
 2641TIP3    H1 7929   1.606   4.421   1.968 -0.9977  1.3509 -1.7580
 2641TIP3    H2 7930   1.735   4.343   1.963  0.1697  3.0327  0.4021
 2642TIP3   OH2 7931   3.011   4.510   2.324  0.1698 -0.5886  0.4530
 2642TIP3    H1 7932   3.058   4.521   2.407 -1.4077  0.0264  1.3046
 2642TIP3    H2 7933   2.932   4.564   2.334 -0.2838 -0.8925 -1.2637
 2643TIP3   OH2 7934   3.447   1.776   4.378 -0.1964  0.1347 -0.0736
 2643TIP3    H1 7935   3.384   1.847   4.393 -0.2754 -0.3154  1.9860
 2643TIP3    H2 7936   3.431   1.750   4.287 -0.6893  2.2083 -0.6477
 2644TIP3   OH2 7937   1.135   3.852   4.595  0.0475 -0.2790 -0.5371
 2644TIP3    H1 7938   1.096   3.765   4.597  1.0724 -0.8575 -2.5977
 2644TIP3    H2 7939   1.082   3.900   4.532 -0.2141  0.4469  0.2266
 2645TIP3   OH2 7940   2.093   3.964   2.229 -0.4827  0.1969 -0.2312
 2645TIP3    H1 7941   2.152   3.905   2.182 -0.3489 -0.4526  0.7279
 2645TIP3    H2 7942   2.006   3.945   2.193 -0.3613 -0.1634 -0.3387
 2646TIP3   OH2 7943   2.117   5.148   0.560 -0.2725 -0.2253  0.6208
 2646TIP3    H1 7944   2.172   5.189   0.494 -0.1545 -1.5026 -0.0996
 2646TIP3    H2 7945   2.038   5.121   0.513 -0.7476  0.0025  1.2735
 2647TIP3   OH2 7946   5.603   2.219   3.900 -0.2738  0.7431  0.5244
 2647TIP3    H1 7947   5.552   2.283   3.851 -2.2073 -0.4337  0.8789
 2647TIP3    H2 7948   5.558   2.210   3.984 -0.7669 -1.7930  0.0969
 2648TIP3   OH2 7949   3.574   3.486   4.590  0.5309 -0.1984 -0.2249
 2648TIP3    H1 7950   3.494   3.433   4.586  0.0896  0.4223  0.0686
 2648TIP3    H2 7951   3.636   3.433   4.640 -0.5567  0.3543  1.8164
 2649TIP3   OH2 7952   6.093   2.876   4.875 -0.1551 -0.4854  0.4566
 2649TIP3    H1 7953   6.177   2.834   4.889  0.0336  0.2079  1.5473
 2649TIP3    H2 7954   6.087   2.888   4.780  0.8383 -0.7972  0.3502
 2650TIP3   OH2 7955   4.241   5.185   0.610  0.2714 -0.1747 -0.3403
 2650TIP3    H1 7956   4.184   5.233   0.669  1.2582 -0.2837  0.7407
 2650TIP3    H2 7957   4.321   5.169   0.661  0.8885 -0.8697 -1.4736
 2651TIP3   OH2 7958   2.049   4.652   4.165 -0.2920  0.3189  0.1610
 2651TIP3    H1 7959   2.060   4.646   4.260 -0.5193  1.8090  0.3073
 2651TIP3    H2 7960   1.955   4.641   4.152 -0.0991 -1.3736 -0.0613
 2652TIP3   OH2 7961   5.286   5.119   3.555 -0.0741  0.4166 -0.1214
 2652TIP3    H1 7962   5.367   5.080   3.585  0.3968  1.2676 -0.2506
 2652TIP3    H2 7963   5.234   5.131   3.634 -1.5937 -3.3088 -0.3350
 2653TIP3   OH2 7964   4.922   5.656   3.520  0.1662  0.4914  0.2517
 2653TIP3    H1 7965   4.935   5.743   3.558  2.2223  0.0675  0.6378
 2653TIP3    H2 7966   4.919   5.671   3.426 -0.6346  1.0798  0.3579
 2654TIP3   OH2 7967   6.260   1.143   1.020 -0.3722  0.3401  0.2379
 2654TIP3    H1 7968   6.178   1.145   1.068 -0.3314 -2.1438  0.5598
 2654TIP3    H2 7969   6.321   1.096   1.077  0.6448  0.2600 -0.8567
 2655TIP3   OH2 7970   3.738   1.650   0.709  0.0757 -0.1967  0.8877
 2655TIP3    H1 7971   3.783   1.585   0.763 -0.7244 -0.3079  1.4406
 2655TIP3    H2 7972   3.787   1.731   0.723  0.6464 -0.5123  0.7624
 2656TIP3   OH2 7973   1.059   2.507   1.687  0.2079  0.1672  0.1763
 2656TIP3    H1 7974   1.079   2.599   1.666 -0.3105  0.7195  1.9444
 2656TIP3    H2 7975   0.982   2.512   1.744  1.7257 -1.1675  2.4563
 2657TIP3   OH2 7976   2.393   4.874   3.207 -0.1787  0.5264 -0.2220
 2657TIP3    H1 7977   2.472   4.913   3.171  0.1715 -0.7908 -0.9579
 2657TIP3    H2 7978   2.420   4.785   3.233 -1.0379  0.5870  0.9835
 2658TIP3   OH2 7979   0.445   5.989   0.129  0.5482 -0.1564 -0.0510
 2658TIP3    H1 7980   0.498   5.976   0.050  0.8402 -3.0799  0.5190
 2658TIP3    H2 7981   0.486   5.934   0.195 -2.5874 -1.8462  0.6788
 2659TIP3   OH2 7982   0.356   3.274   1.521 -0.4117  0.9479  0.0161
 2659TIP3    H1 7983   0.345   3.324   1.440 -0.2447  1.7105  0.4533
 2659TIP3    H2 7984   0.281   3.215   1.523 -0.0681  0.4552 -1.0173
 2660TIP3   OH2 7985   2.958   2.530   3.686  0.8058  0.0360 -0.2055
 2660TIP3    H1 7986   2.983   2.555   3.775  0.5249 -3.0590  0.8363
 2660TIP3    H2 7987   2.862   2.529   3.687  0.7750 -2.2652  0.2534
 2661TIP3   OH2 7988   2.993   1.375   0.626 -0.4280  0.0172  0.7343
 2661TIP3    H1 7989   2.912   1.336   0.593 -0.9359  2.1766 -0.7841
 2661TIP3    H2 7990   2.978   1.384   0.720 -1.9187  0.2546  0.5052
 2662TIP3   OH2 7991   3.655   0.929   4.448 -0.0344 -0.5856 -0.2100
 2662TIP3    H1 7992   3.717   0.860   4.423  2.4374  1.7332 -0.8579
 2662TIP3    H2 7993   3.671   0.944   4.541  1.4911  0.9696 -0.6755
 2663TIP3   OH2 7994   3.258   0.724   3.187 -0.5966 -0.1391 -0.4190
 2663TIP3    H1 7995   3.288   0.803   3.143  0.2247 -0.7180 -0.9118
 2663TIP3    H2 7996   3.201   0.756   3.257  2.0921  1.1045  1.3616
 2664TIP3   OH2 7997   2.909   2.342   2.707  0.1451  0.1208  0.7606
 2664TIP3    H1 7998   2.931   2.255   2.672  2.8151  1.1403 -0.4164
 2664TIP3    H2 7999   2.897   2.327   2.800  0.0140 -1.6019  0.5128
 2665TIP3   OH2 8000   5.128   5.936   3.287  0.1964  0.2422 -0.0213
 2665TIP3    H1 8001   5.202   5.892   3.245 -0.1833 -0.3715 -0.0507
 2665TIP3    H2 8002   5.139   6.029   3.264  1.0281  0.1720  0.0922
 2666TIP3   OH2 8003   2.461   3.051   4.106  0.8559  0.2256 -0.3699
 2666TIP3    H1 8004   2.503   3.136   4.117  0.6354  0.5736 -2.0424
 2666TIP3    H2 8005   2.533   2.991   4.083  0.6859  0.4799 -1.6037
 2667TIP3   OH2 8006   1.004   2.544   2.887  0.4052  0.4573 -0.2836
 2667TIP3    H1 8007   0.928   2.571   2.938  0.7616  0.5776  0.1933
 2667TIP3    H2 8008   1.079   2.577   2.936  0.7128  2.3773 -1.9231
 2668TIP3   OH2 8009   2.023   4.338   1.953 -0.2549  0.4782  0.1990
 2668TIP3    H1 8010   2.060   4.313   1.868  2.3349 -0.2093  1.4143
 2668TIP3    H2 8011   1.995   4.429   1.941 -3.7660 -0.7456 -2.4481
 2669TIP3   OH2 8012   0.304   3.356   1.241  0.6761  0.3921 -0.2918
 2669TIP3    H1 8013   0.328   3.434   1.192  2.4663  0.5437  0.7450
 2669TIP3    H2 8014   0.308   3.285   1.177  1.7865  0.7601 -0.6569
 2670TIP3   OH2 8015   3.635   4.016   0.326  0.5211  0.1232  0.3583
 2670TIP3    H1 8016   3.580   3.939   0.312 -0.2203  0.1612  2.6806
 2670TIP3    H2 8017   3.723   3.979   0.339  0.7855 -0.0563 -1.6924
 2671TIP3   OH2 8018   1.017   0.915   1.862  0.0783  0.1026  0.1706
 2671TIP3    H1 8019   0.946   0.941   1.921 -2.0756 -1.0665 -1.7484
 2671TIP3    H2 8020   1.038   0.825   1.889  0.7150  0.3700  0.5915
 2672TIP3   OH2 8021   6.037   5.136   1.478  0.1980 -0.0925  0.2991
 2672TIP3    H1 8022   6.107   5.151   1.542  1.1972  2.8783 -1.2950
 2672TIP3    H2 8023   5.956   5.142   1.529  1.0189 -0.9626  1.7650
 2673TIP3   OH2 8024   0.866   2.737   4.030 -0.0321  0.1465  0.1514
 2673TIP3    H1 8025   0.834   2.660   3.983  1.8246 -1.6161  1.5828
 2673TIP3    H2 8026   0.878   2.706   4.120  3.4178  1.2510  0.2137
 2674TIP3   OH2 8027   1.927   1.173   0.377 -0.2729  0.1874  0.1967
 2674TIP3    H1 8028   1.980   1.228   0.434 -0.0413  0.9760 -0.7470
 2674TIP3    H2 8029   1.846   1.222   0.364  0.0716  0.4894 -0.9203
 2675TIP3   OH2 8030   2.882   0.659   3.546  0.1702  0.3856  0.2287
 2675TIP3    H1 8031   2.902   0.646   3.453 -0.6021  0.8656 -0.0141
 2675TIP3    H2 8032   2.845   0.575   3.574  0.7063  0.1319  0.1899
 2676TIP3   OH2 8033   5.386   1.830   0.156 -0.7210 -0.0222  0.4453
 2676TIP3    H1 8034   5.367   1.835   0.062  3.1236  0.0849 -0.4825
 2676TIP3    H2 8035   5.350   1.745   0.183 -0.1667 -0.9744 -1.6206
 2677TIP3   OH2 8036   5.555   3.512   0.644 -0.1146 -0.2027  0.7006
 2677TIP3    H1 8037   5.577   3.494   0.553  2.8691 -1.8412  1.5981
 2677TIP3    H2 8038   5.602   3.445   0.694  2.9821  3.7713  3.7929
 2678TIP3   OH2 8039   2.629   4.941   3.905 -0.1404  0.5675  0.2316
 2678TIP3    H1 8040   2.665   4.904   3.986 -1.8758 -1.0060  0.3315
 2678TIP3    H2 8041   2.541   4.971   3.929 -0.2946  1.0373 -0.8435
 2679TIP3   OH2 8042   2.458   0.547   3.991  0.4623  0.4483 -0.3413
 2679TIP3    H1 8043   2.447   0.516   3.901  1.1029  0.3132 -0.3789
 2679TIP3    H2 8044   2.388   0.610   4.004  0.3510  0.4464 -0.9297
 2680TIP3   OH2 8045   5.035   3.955   1.897 -0.7002  1.2174  0.1446
 2680TIP3    H1 8046   5.088   4.009   1.956  0.3499  0.3084  0.0646
 2680TIP3    H2 8047   5.080   3.961   1.812  0.1278 -0.6827  0.4047
 2681TIP3   OH2 8048   2.739   5.636   1.694  0.3318  0.1911  0.5400
 2681TIP3    H1 8049   2.706   5.634   1.604  1.5607 -0.9783  0.0850
 2681TIP3    H2 8050   2.670   5.594   1.745 -0.3981  0.9069  0.1810
 2682TIP3   OH2 8051   3.603   4.997   3.067  0.5806 -0.0574 -0.0454
 2682TIP3    H1 8052   3.562   5.083   3.073 -0.3743 -0.5125  0.0953
 2682TIP3    H2 8053   3.604   4.977   2.973 -1.0292 -0.7411  0.0575
 2683TIP3   OH2 8054   1.095   5.491   2.298  0.2577  0.4268 -0.2466
 2683TIP3    H1 8055   1.068   5.535   2.217 -1.2840  0.6489  0.3473
 2683TIP3    H2 8056   1.012   5.472   2.343  1.0499 -0.4458  0.8827
 2684TIP3   OH2 8057   4.209   0.078   4.996 -0.7360  0.6474 -0.4679
 2684TIP3    H1 8058   4.271   0.007   4.977 -2.9567 -1.3556 -0.6195
 2684TIP3    H2 8059   4.233   0.147   4.935  1.7248  0.2230 -0.0925
 2685TIP3   OH2 8060   1.331   3.591   4.335  0.0513 -0.1215  0.1702
 2685TIP3    H1 8061   1.267   3.523   4.313  0.3328 -0.7016  1.0616
 2685TIP3    H2 8062   1.366   3.564   4.420 -0.6823  1.7491  1.1266
 2686TIP3   OH2 8063   0.820   5.254   4.382  0.0240 -0.9025 -0.2848
 2686TIP3    H1 8064   0.869   5.304   4.316  1.1909  0.0351  1.2224
 2686TIP3    H2 8065   0.747   5.312   4.405 -0.1847 -1.0826 -0.4865
 2687TIP3   OH2 8066   1.930   5.700   4.783  0.2045  0.1526  0.1358
 2687TIP3    H1 8067   1.885   5.640   4.724  0.4213  0.4947 -0.3750
 2687TIP3    H2 8068   1.864   5.726   4.847 -0.1603  0.1833 -0.2567
 2688TIP3   OH2 8069   5.276   5.855   3.053 -0.1530 -0.5983 -0.5924
 2688TIP3    H1 8070   5.359   5.884   3.014  0.2752  1.8986  1.8874
 2688TIP3    H2 8071   5.212   5.869   2.984  0.8480  1.8984 -1.1467
 2689TIP3   OH2 8072   3.625   4.861   0.947 -0.7746 -0.2520 -0.7611
 2689TIP3    H1 8073   3.635   4.812   0.865 -1.2513 -0.2132 -0.8497
 2689TIP3    H2 8074   3.569   4.805   1.001  0.5072 -0.8244  0.0081
 2690TIP3   OH2 8075   1.504   2.718   0.470  0.8960  0.2979 -0.2726
 2690TIP3    H1 8076   1.582   2.678   0.509  1.3560  1.0442 -0.3941
 2690TIP3    H2 8077   1.495   2.674   0.385 -0.1589 -1.3832  0.6564
 2691TIP3   OH2 8078   3.885   3.824   4.594  0.0959  0.3046 -0.1420
 2691TIP3    H1 8079   3.818   3.793   4.654  1.0263 -0.8241  0.3437
 2691TIP3    H2 8080   3.843   3.897   4.547 -0.8902  0.7356  1.3358
 2692TIP3   OH2 8081   3.868   2.920   1.350  0.2659 -0.7697 -0.1065
 2692TIP3    H1 8082   3.867   2.830   1.318 -0.9945 -0.6105 -0.5954
 2692TIP3    H2 8083   3.876   2.973   1.271  1.8066 -0.4472  0.2402
 2693TIP3   OH2 8084   6.330   3.791   1.817 -0.0310 -0.2410 -0.0942
 2693TIP3    H1 8085   6.320   3.877   1.777 -0.5365 -0.1369  0.2430
 2693TIP3    H2 8086   6.379   3.807   1.898  1.8178 -0.5765 -1.1013
 2694TIP3   OH2 8087   1.397   5.476   4.113  0.4920 -0.0026  0.2138
 2694TIP3    H1 8088   1.417   5.396   4.162  2.2275 -1.0941 -2.0515
 2694TIP3    H2 8089   1.330   5.520   4.165 -1.6467 -3.6128  0.9001
 2695TIP3   OH2 8090   0.804   1.515   2.215 -0.1495 -0.4749 -0.1217
 2695TIP3    H1 8091   0.734   1.543   2.155  0.5094  0.8723 -0.2933
 2695TIP3    H2 8092   0.757   1.484   2.293 -1.0693 -3.0445 -1.5607
 2696TIP3   OH2 8093   5.583   1.767   2.807  0.2046 -0.9075 -0.6205
 2696TIP3    H1 8094   5.583   1.761   2.712 -1.0970 -0.5479 -0.6508
 2696TIP3    H2 8095   5.491   1.776   2.831  0.4996 -1.1920  0.6873
 2697TIP3   OH2 8096   4.524   0.945   0.386 -0.4722 -0.2563  0.1991
 2697TIP3    H1 8097   4.619   0.947   0.372 -0.3904  1.1750  0.7640
 2697TIP3    H2 8098   4.513   0.901   0.470 -0.2951 -0.1959  0.2544
 2698TIP3   OH2 8099   5.218   2.001   0.698 -0.3996  0.0391  0.2308
 2698TIP3    H1 8100   5.299   1.958   0.672 -0.4216 -0.8534  1.5224
 2698TIP3    H2 8101   5.221   2.002   0.794 -1.9035 -0.0140  0.3026
 2699TIP3   OH2 8102   0.364   5.860   2.017 -0.6808  0.5685  0.1777
 2699TIP3    H1 8103   0.303   5.787   2.033 -0.7447  0.9069  1.6264
 2699TIP3    H2 8104   0.421   5.828   1.947 -1.2583 -0.5467  0.1880
 2700TIP3   OH2 8105   3.230   2.287   5.151  0.0751  0.0997 -0.6464
 2700TIP3    H1 8106   3.275   2.323   5.075 -1.2593  1.4020 -0.8788
 2700TIP3    H2 8107   3.283   2.317   5.226  0.3891  0.3788 -0.9751
 2701TIP3   OH2 8108   4.943   0.392   1.730 -0.7968 -0.0385 -0.3944
 2701TIP3    H1 8109   4.874   0.334   1.760 -1.2296  0.3347 -0.6493
 2701TIP3    H2 8110   4.915   0.479   1.758  0.4866 -0.0797  1.1582
 2702TIP3   OH2 8111   0.917   2.382   1.458  0.3042 -0.7317 -0.2725
 2702TIP3    H1 8112   0.858   2.452   1.431 -0.1560 -0.5553  1.0834
 2702TIP3    H2 8113   0.957   2.415   1.539  1.3364 -1.3600 -0.5131
 2703TIP3   OH2 8114   3.374   3.486   4.304  0.3742 -0.1879  0.4879
 2703TIP3    H1 8115   3.364   3.400   4.345  0.9760 -0.6412 -0.2735
 2703TIP3    H2 8116   3.468   3.492   4.286  0.0188 -0.4702 -1.7541
 2704TIP3   OH2 8117   3.439   0.907   1.555  0.0594 -0.3529  0.1075
 2704TIP3    H1 8118   3.498   0.833   1.564 -0.2540 -0.5466  0.6035
 2704TIP3    H2 8119   3.352   0.868   1.548 -0.1600 -0.0200  0.9068
 2705TIP3   OH2 8120   1.651   2.298   0.913 -0.2436  0.3466 -0.5160
 2705TIP3    H1 8121   1.615   2.244   0.983  2.7366 -0.4070  0.5661
 2705TIP3    H2 8122   1.653   2.386   0.950  0.1045  0.1881 -0.1556
 2706TIP3   OH2 8123   0.184   0.363   1.283 -0.2752 -1.0466 -0.1371
 2706TIP3    H1 8124   0.159   0.323   1.367 -0.2086  1.2313  1.0361
 2706TIP3    H2 8125   0.132   0.443   1.279  1.6674  0.2280 -1.0013
 2707TIP3   OH2 8126   1.569   2.105   3.013 -0.1804  0.7651 -0.5061
 2707TIP3    H1 8127   1.497   2.135   3.068 -2.8848 -2.6233 -1.8179
 2707TIP3    H2 8128   1.599   2.024   3.056 -0.0009 -0.0766 -2.1478
 2708TIP3   OH2 8129   4.200   4.372   1.117  0.2070 -0.7229 -0.0002
 2708TIP3    H1 8130   4.219   4.366   1.023 -0.2918 -0.5797 -0.1140
 2708TIP3    H2 8131   4.252   4.446   1.147 -1.0791  0.4715 -0.5636
 2709TIP3   OH2 8132   0.792   0.207   0.833  0.0342  0.6285  0.2661
 2709TIP3    H1 8133   0.776   0.278   0.771 -0.1758 -0.0785 -0.5120
 2709TIP3    H2 8134   0.813   0.131   0.778 -0.8048 -0.1817  1.0245
 2710TIP3   OH2 8135   0.889   4.319   5.138 -0.3732 -0.3083 -0.3977
 2710TIP3    H1 8136   0.854   4.249   5.083  0.9731 -0.1410 -1.4985
 2710TIP3    H2 8137   0.903   4.392   5.078 -0.1765  0.3481  0.4284
 2711TIP3   OH2 8138   0.548   5.116   4.241 -0.6317 -0.3230  0.4639
 2711TIP3    H1 8139   0.640   5.130   4.264 -1.3338  1.2833  2.6952
 2711TIP3    H2 8140   0.518   5.049   4.302 -1.2146  0.0236  0.5645
 2712TIP3   OH2 8141   4.446   4.472   1.621  0.2217 -0.0818 -0.3194
 2712TIP3    H1 8142   4.526   4.436   1.584 -0.1421 -0.6534 -0.5656
 2712TIP3    H2 8143   4.423   4.412   1.692 -0.7813 -0.7872 -1.1946
 2713TIP3   OH2 8144   3.684   3.636   0.791 -0.4726 -0.1101 -0.4124
 2713TIP3    H1 8145   3.668   3.637   0.886  0.0527  2.7372 -0.2556
 2713TIP3    H2 8146   3.778   3.655   0.783 -0.4402 -0.7046 -1.4983
 2714TIP3   OH2 8147   0.101   0.048   0.767 -0.4245  0.1155  0.3563
 2714TIP3    H1 8148   0.119   0.128   0.719  0.0773 -0.9959 -1.3806
 2714TIP3    H2 8149   0.143   0.061   0.852  0.9511  1.1024 -0.4310
 2715TIP3   OH2 8150   2.678   3.321   0.544  0.3920 -0.0982  0.3181
 2715TIP3    H1 8151   2.688   3.383   0.616 -0.2019 -0.6925  0.9228
 2715TIP3    H2 8152   2.761   3.272   0.543  1.4172  1.5503 -1.0167
 2716TIP3   OH2 8153   4.148   3.882   4.839 -0.6898  0.4182 -0.0037
 2716TIP3    H1 8154   4.090   3.812   4.811 -0.5213 -0.5455  1.9208
 2716TIP3    H2 8155   4.235   3.855   4.811 -1.0262  1.6851 -2.5522
 2717TIP3   OH2 8156   3.426   2.776   3.953  0.0029 -0.2663  0.2523
 2717TIP3    H1 8157   3.416   2.683   3.973  1.9047 -0.5721 -0.0171
 2717TIP3    H2 8158   3.475   2.812   4.027 -1.4515  0.7352  0.7710
 2718TIP3   OH2 8159   1.103   4.729   3.259  0.1358  0.0490 -0.2522
 2718TIP3    H1 8160   1.048   4.802   3.231  0.6798  0.7224  0.3737
 2718TIP3    H2 8161   1.052   4.651   3.238 -0.1844  0.5784 -1.5221
 2719TIP3   OH2 8162   0.944   3.561   4.451  0.2399  0.0494  0.4550
 2719TIP3    H1 8163   0.937   3.594   4.540  0.4099 -1.0257  0.8740
 2719TIP3    H2 8164   0.854   3.540   4.426  0.4425 -2.0254  1.3123
 2720TIP3   OH2 8165   6.036   2.370   1.462  0.0050  0.2644  0.2449
 2720TIP3    H1 8166   6.086   2.328   1.392 -0.7324  0.9180 -0.6953
 2720TIP3    H2 8167   6.053   2.463   1.452  1.0356  0.2922  1.8638
 2721TIP3   OH2 8168   4.979   3.215   0.821  0.1564 -0.7889  0.2219
 2721TIP3    H1 8169   4.960   3.194   0.912  0.3481 -0.8835  0.2402
 2721TIP3    H2 8170   4.920   3.288   0.800  2.7281  1.9292  1.6057
 2722TIP3   OH2 8171   4.871   1.869   2.918 -0.2922  0.3926 -0.1221
 2722TIP3    H1 8172   4.785   1.864   2.878  0.2878  1.4531 -1.5725
 2722TIP3    H2 8173   4.857   1.921   2.998 -1.4131 -1.5711  1.0472
 2723TIP3   OH2 8174   6.242   0.087   3.750 -0.1104  0.0578  0.9929
 2723TIP3    H1 8175   6.205   0.094   3.838  1.5926 -0.6639  1.7970
 2723TIP3    H2 8176   6.336   0.083   3.763  0.2566  0.9836 -0.9443
 2724TIP3   OH2 8177   1.349   4.085   0.599 -0.2838 -0.1560  0.2734
 2724TIP3    H1 8178   1.315   4.174   0.589 -0.2750 -0.2409 -0.5496
 2724TIP3    H2 8179   1.433   4.097   0.643 -1.2286  0.0742  2.0989
 2725TIP3   OH2 8180   4.897   1.619   1.448  0.1245 -0.0509  0.2777
 2725TIP3    H1 8181   4.852   1.700   1.424 -0.3151 -0.2366  0.4625
 2725TIP3    H2 8182   4.966   1.609   1.382 -0.1740  0.1831 -0.0735
 2726TIP3   OH2 8183   3.220   1.319   2.611 -0.3107  0.0085  0.2854
 2726TIP3    H1 8184   3.130   1.311   2.580  0.5286 -0.1015 -2.4042
 2726TIP3    H2 8185   3.262   1.236   2.586  1.0166  0.8413 -0.3605
 2727TIP3   OH2 8186   3.929   0.367   1.462  0.0931 -0.3359 -0.2157
 2727TIP3    H1 8187   3.952   0.346   1.371  1.3456 -2.0826  0.4566
 2727TIP3    H2 8188   3.972   0.451   1.478 -0.1615  0.0033 -1.2291
 2728TIP3   OH2 8189   1.786   3.073   4.590 -0.6842  0.2548 -0.0475
 2728TIP3    H1 8190   1.826   3.121   4.517  0.3044 -0.1199  0.2289
 2728TIP3    H2 8191   1.831   2.989   4.591 -1.1128  0.0246  0.6123
 2729TIP3   OH2 8192   2.782   2.283   2.479 -0.0251 -0.2905  0.8043
 2729TIP3    H1 8193   2.817   2.310   2.564  2.2299  0.2851 -0.2167
 2729TIP3    H2 8194   2.708   2.227   2.500 -0.4862  1.0464  3.1102
 2730TIP3   OH2 8195   4.064   1.145   3.424  0.0082  0.8943  0.0668
 2730TIP3    H1 8196   3.978   1.115   3.394 -0.9476  2.1163  1.4861
 2730TIP3    H2 8197   4.060   1.139   3.520  1.8294  0.1576  0.1497
 2731TIP3   OH2 8198   5.002   1.601   4.814 -0.0982 -0.6933  0.2138
 2731TIP3    H1 8199   5.080   1.651   4.790 -0.5139 -0.6446 -1.0951
 2731TIP3    H2 8200   4.994   1.615   4.909  0.0881  1.3313 -0.0171
 2732TIP3   OH2 8201   2.595   3.094   2.951  0.1568  0.4331 -0.5968
 2732TIP3    H1 8202   2.639   3.023   2.903 -0.7362 -0.0025 -0.7985
 2732TIP3    H2 8203   2.535   3.132   2.886  1.6110  2.3140 -0.9190
 2733TIP3   OH2 8204   0.235   2.289   5.030  0.0494  0.1989  0.1169
 2733TIP3    H1 8205   0.277   2.374   5.013 -0.8952  0.9779  1.4436
 2733TIP3    H2 8206   0.169   2.308   5.097 -0.4428 -1.5300  0.1749
 2734TIP3   OH2 8207   0.126   1.312   1.069 -0.0646 -0.2255 -0.1132
 2734TIP3    H1 8208   0.097   1.307   1.160 -5.6875  3.3592 -1.1776
 2734TIP3    H2 8209   0.075   1.245   1.023 -0.4044  0.6482 -1.0697
 2735TIP3   OH2 8210   0.099   1.473   0.857 -0.7684  0.5531 -0.5852
 2735TIP3    H1 8211   0.126   1.424   0.934 -0.4685  0.9748 -0.4173
 2735TIP3    H2 8212   0.040   1.414   0.810 -0.4180  0.0382 -0.3860
 2736TIP3   OH2 8213   2.335   5.579   2.971  0.1404  0.2580  0.1752
 2736TIP3    H1 8214   2.245   5.609   2.959 -0.1247 -0.6359 -0.1382
 2736TIP3    H2 8215   2.371   5.572   2.883  0.2596 -0.1361  0.2513
 2737TIP3   OH2 8216   2.008   0.943   2.060 -0.1191  0.1531 -0.0435
 2737TIP3    H1 8217   2.036   0.870   2.004 -0.6362  0.3086 -0.5159
 2737TIP3    H2 8218   1.991   1.014   1.999  2.1219  1.2779  0.5394
 2738TIP3   OH2 8219   0.481   0.674   3.811  0.3355  0.4706  0.0888
 2738TIP3    H1 8220   0.429   0.654   3.733 -1.1578  2.1305  0.5900
 2738TIP3    H2 8221   0.565   0.631   3.796  0.0955  0.7440 -2.4291
 2739TIP3   OH2 8222   1.473   1.477   4.428 -0.2729 -0.2125 -0.0393
 2739TIP3    H1 8223   1.484   1.384   4.446 -1.0209 -0.1166  0.9533
 2739TIP3    H2 8224   1.485   1.484   4.333  0.6320 -1.1844 -0.0195
 2740TIP3   OH2 8225   2.116   4.788   1.797 -0.3781 -0.0645 -0.3893
 2740TIP3    H1 8226   2.167   4.708   1.810 -0.0114  0.2015 -0.1294
 2740TIP3    H2 8227   2.036   4.775   1.848 -0.9927 -0.8522 -1.5171
 2741TIP3   OH2 8228   1.967   3.499   0.426  0.0473  0.1683 -0.0636
 2741TIP3    H1 8229   2.040   3.553   0.397  0.9186 -0.5169  0.7754
 2741TIP3    H2 8230   1.894   3.523   0.369  1.0172  0.6256 -1.1366
 2742TIP3   OH2 8231   0.601   4.256   4.594  0.4909  0.1392 -0.0206
 2742TIP3    H1 8232   0.509   4.271   4.573 -0.6260 -0.1913  3.9654
 2742TIP3    H2 8233   0.629   4.336   4.639  1.3475 -0.7936  1.1660
 2743TIP3   OH2 8234   1.012   2.818   1.917 -0.0612 -0.0588 -0.2098
 2743TIP3    H1 8235   1.091   2.764   1.914 -0.7826 -1.0878 -2.0983
 2743TIP3    H2 8236   0.975   2.801   2.004  2.1502  1.0642  1.0321
 2744TIP3   OH2 8237   4.203   5.055   3.389  0.7173 -0.3295 -0.2590
 2744TIP3    H1 8238   4.254   5.122   3.344  1.2395  0.3093  1.2482
 2744TIP3    H2 8239   4.243   5.047   3.475  0.0685 -1.9146 -0.0699
 2745TIP3   OH2 8240   2.541   3.269   3.375  0.2754 -0.0332  0.3825
 2745TIP3    H1 8241   2.624   3.240   3.338 -0.1368  0.1756 -0.7259
 2745TIP3    H2 8242   2.478   3.262   3.303 -0.9050 -1.1944  1.4710
 2746TIP3   OH2 8243   5.681   4.508   2.766  0.2429 -0.3518  0.1936
 2746TIP3    H1 8244   5.607   4.448   2.764  0.5122 -0.6908  0.3252
 2746TIP3    H2 8245   5.736   4.480   2.692  0.8123 -0.8444  0.7882
 2747TIP3   OH2 8246   1.605   4.633   0.794  0.9481 -0.0872 -0.1521
 2747TIP3    H1 8247   1.610   4.728   0.800 -0.8254  0.1408 -1.5664
 2747TIP3    H2 8248   1.570   4.605   0.879 -0.0179  0.6808 -0.2844
 2748TIP3   OH2 8249   2.085   4.756   3.299  0.0579 -0.1975  0.5901
 2748TIP3    H1 8250   2.040   4.714   3.372  2.1377 -1.3465  1.2900
 2748TIP3    H2 8251   2.128   4.832   3.338 -1.6820  1.2625 -0.1955
 2749TIP3   OH2 8252   3.533   5.168   2.202  0.1354 -0.2900  0.0596
 2749TIP3    H1 8253   3.611   5.116   2.221  0.1028 -0.0962  0.7764
 2749TIP3    H2 8254   3.566   5.246   2.158  0.3290 -0.3015  0.1814
 2750TIP3   OH2 8255   0.653   0.940   3.273 -0.3856  0.3730  0.0086
 2750TIP3    H1 8256   0.658   0.845   3.268  2.2907  0.2987  1.8896
 2750TIP3    H2 8257   0.583   0.957   3.335 -1.8405 -0.2546 -1.3977
 2751TIP3   OH2 8258   4.875   1.104   4.801  0.0936  0.2060  0.4135
 2751TIP3    H1 8259   4.910   1.189   4.773 -0.8774  0.8146  1.0000
 2751TIP3    H2 8260   4.855   1.116   4.894 -1.6302 -0.1092  0.1099
 2752TIP3   OH2 8261   2.429   4.252   4.759  0.2469 -0.1488 -0.0667
 2752TIP3    H1 8262   2.366   4.218   4.696 -0.3845  1.7499 -0.5163
 2752TIP3    H2 8263   2.470   4.173   4.797 -1.4981 -1.3888 -0.6430
 2753TIP3   OH2 8264   4.443   2.415   3.559 -0.1579  0.3227  0.2325
 2753TIP3    H1 8265   4.429   2.495   3.508 -1.3683 -0.3490 -0.5077
 2753TIP3    H2 8266   4.374   2.417   3.626 -0.2020 -0.1104  0.2025
 2754TIP3   OH2 8267   3.267   4.486   0.784 -0.2915  0.1222  0.3014
 2754TIP3    H1 8268   3.229   4.398   0.786 -0.0669 -0.0109 -0.4841
 2754TIP3    H2 8269   3.294   4.497   0.692  0.2210  0.7751  0.5241
 2755TIP3   OH2 8270   3.154   4.570   1.692  0.3264  0.9356  0.0508
 2755TIP3    H1 8271   3.080   4.512   1.673  0.0628  1.6584 -1.2007
 2755TIP3    H2 8272   3.221   4.545   1.628  1.5623 -0.3208  1.7236
 2756TIP3   OH2 8273   1.309   0.688   3.598  0.2946 -0.1431  0.5432
 2756TIP3    H1 8274   1.233   0.741   3.573  0.4109 -0.3977 -0.3991
 2756TIP3    H2 8275   1.383   0.733   3.557  0.1426 -2.3808 -2.6204
 2757TIP3   OH2 8276   2.236   1.158   4.880 -0.5153 -0.0835  0.1974
 2757TIP3    H1 8277   2.206   1.238   4.924  0.3485 -0.9457  2.5096
 2757TIP3    H2 8278   2.193   1.087   4.928 -0.1893 -1.0670 -0.9292
 2758TIP3   OH2 8279   3.643   0.320   2.626  0.2839  0.0965 -0.4822
 2758TIP3    H1 8280   3.588   0.383   2.673  0.9934  0.7933 -0.5613
 2758TIP3    H2 8281   3.581   0.266   2.577 -0.3837  0.2425  0.1810
 2759TIP3   OH2 8282   1.073   1.297   0.108  0.2665  0.1336 -0.0950
 2759TIP3    H1 8283   1.060   1.350   0.029  0.0688 -0.3061 -0.3610
 2759TIP3    H2 8284   1.062   1.207   0.078 -0.2451 -0.0160  0.5212
 2760TIP3   OH2 8285   3.160   4.070   3.497 -0.5973  0.2485  0.1049
 2760TIP3    H1 8286   3.221   4.016   3.546  0.1090 -0.9323 -1.9671
 2760TIP3    H2 8287   3.211   4.147   3.472  0.3443 -1.0090 -2.1379
 2761TIP3   OH2 8288   0.110   5.386   0.336 -0.1518  0.3167 -0.2707
 2761TIP3    H1 8289   0.202   5.379   0.362  0.1680 -2.0364 -1.7216
 2761TIP3    H2 8290   0.062   5.340   0.405 -0.1284  0.4846 -0.1402
 2762TIP3   OH2 8291   1.774   3.867   3.322 -0.0828  0.1839 -0.1111
 2762TIP3    H1 8292   1.822   3.793   3.359 -0.4460  0.1184  0.2395
 2762TIP3    H2 8293   1.719   3.899   3.394 -0.1441  0.6139 -0.3409
 2763TIP3   OH2 8294   3.493   1.306   2.954 -0.4176  0.1751 -0.0468
 2763TIP3    H1 8295   3.470   1.350   3.036  0.8875 -0.3969  0.6579
 2763TIP3    H2 8296   3.564   1.247   2.978 -1.8976 -2.1102 -1.0345
 2764TIP3   OH2 8297   1.834   4.601   2.480  0.4785 -0.1586 -0.1316
 2764TIP3    H1 8298   1.771   4.612   2.551  0.3601  2.4322 -0.5559
 2764TIP3    H2 8299   1.783   4.564   2.408 -0.6414  1.9966 -0.5000
 2765TIP3   OH2 8300   5.664   5.871   3.540  0.0112  0.1996  0.0111
 2765TIP3    H1 8301   5.631   5.959   3.519 -1.6603 -0.2492  0.5481
 2765TIP3    H2 8302   5.668   5.826   3.456  0.1624  0.5650 -0.1785
 2766TIP3   OH2 8303   0.748   5.291   2.169  0.0813 -0.7079 -0.5052
 2766TIP3    H1 8304   0.752   5.229   2.242 -3.0670 -1.3069 -0.7357
 2766TIP3    H2 8305   0.799   5.248   2.099  1.8733 -0.7954  0.7815
 2767TIP3   OH2 8306   1.470   5.204   3.464  0.1724  0.4695  0.5382
 2767TIP3    H1 8307   1.430   5.199   3.378 -0.3302  2.4929  0.6065
 2767TIP3    H2 8308   1.564   5.193   3.447 -0.1061 -2.0143  0.1302
 2768TIP3   OH2 8309   0.077   3.764   3.987 -0.2028 -0.4037  0.0770
 2768TIP3    H1 8310  -0.001   3.743   3.937  0.4521  1.2048 -1.7673
 2768TIP3    H2 8311   0.074   3.859   3.998  1.4996 -0.2886 -0.0968
 2769TIP3   OH2 8312   1.582   0.762   2.122 -0.0014 -0.3787 -0.0680
 2769TIP3    H1 8313   1.619   0.702   2.187  0.3635 -0.1472 -0.0624
 2769TIP3    H2 8314   1.616   0.731   2.038 -1.3747 -1.3830 -0.2996
 2770TIP3   OH2 8315   5.406   2.067   3.333 -0.0201  0.1531  0.0933
 2770TIP3    H1 8316   5.475   2.059   3.399 -0.1604 -1.8945  0.0643
 2770TIP3    H2 8317   5.349   2.137   3.366  0.8504  0.3434  1.2535
 2771TIP3   OH2 8318   0.853   2.560   2.570 -0.1922 -0.5366 -0.2567
 2771TIP3    H1 8319   0.805   2.478   2.556  0.1922 -0.4981 -2.0326
 2771TIP3    H2 8320   0.855   2.601   2.484 -1.0435  1.7402  0.7389
 2772TIP3   OH2 8321   3.310   3.365   4.797 -0.0991 -0.3569  0.0181
 2772TIP3    H1 8322   3.240   3.419   4.760  0.3281 -0.1128 -0.4460
 2772TIP3    H2 8323   3.283   3.275   4.780 -0.6861 -0.2883  0.5588
 2773TIP3   OH2 8324   1.310   2.334   1.701 -0.2907 -0.3770 -0.5059
 2773TIP3    H1 8325   1.311   2.430   1.697  1.1566 -0.3594 -0.4336
 2773TIP3    H2 8326   1.222   2.311   1.731 -0.2551  0.9818  0.7241
 2774TIP3   OH2 8327   0.378   1.611   1.743  0.2716  0.5268 -0.8209
 2774TIP3    H1 8328   0.295   1.653   1.722  0.1348  0.9665  0.5342
 2774TIP3    H2 8329   0.355   1.537   1.799  0.5247 -1.3434 -3.0530
 2775TIP3   OH2 8330   6.055   0.473   0.539 -0.0141  0.1284  0.3004
 2775TIP3    H1 8331   6.145   0.452   0.512 -0.4131  0.9548 -1.9002
 2775TIP3    H2 8332   6.013   0.505   0.459 -2.8298 -1.9185  0.8026
 2776TIP3   OH2 8333   5.698   2.197   1.625  0.8075 -0.2241  0.5141
 2776TIP3    H1 8334   5.742   2.281   1.623 -0.2285  0.3167 -0.6988
 2776TIP3    H2 8335   5.727   2.152   1.545  0.3079 -0.4631  0.4643
 2777TIP3   OH2 8336   4.312   1.965   3.406  0.0263 -0.0301 -0.4631
 2777TIP3    H1 8337   4.289   1.885   3.359  0.0979 -0.0090 -0.5353
 2777TIP3    H2 8338   4.407   1.958   3.419 -0.0128 -0.0971 -0.2083
 2778TIP3   OH2 8339   0.080   1.143   4.947 -0.5804 -0.0616 -0.0012
 2778TIP3    H1 8340   0.076   1.219   4.888 -0.2784  0.7084  0.9465
 2778TIP3    H2 8341   0.121   1.074   4.895 -2.2932 -0.0823 -1.4007
 2779TIP3   OH2 8342   4.880   3.582   2.377 -0.1921 -0.9266 -0.0084
 2779TIP3    H1 8343   4.899   3.561   2.286  0.0133  2.3402 -0.8484
 2779TIP3    H2 8344   4.788   3.609   2.376  0.5047  1.6562  0.1422
 2780TIP3   OH2 8345   4.020   4.331   4.955  0.2692 -0.2958  0.0738
 2780TIP3    H1 8346   4.086   4.391   4.921 -0.5600  1.2035  0.9836
 2780TIP3    H2 8347   4.054   4.302   5.040  0.8059 -1.3769 -0.4979
 2781TIP3   OH2 8348   2.286   1.575   0.918 -0.6170  0.1354 -0.4993
 2781TIP3    H1 8349   2.255   1.661   0.888 -0.6789  0.6667  0.9808
 2781TIP3    H2 8350   2.215   1.515   0.894 -1.1435  0.7178 -0.4465
 2782TIP3   OH2 8351   2.283   2.327   1.537 -0.1835  0.1801  0.1282
 2782TIP3    H1 8352   2.210   2.385   1.563 -0.3803 -0.2696  0.6160
 2782TIP3    H2 8353   2.332   2.314   1.618  0.0526 -0.0622 -0.0533
 2783TIP3   OH2 8354   3.864   4.864   4.516 -0.2490  0.1917 -0.5134
 2783TIP3    H1 8355   3.816   4.822   4.444  1.2837 -1.1268 -0.8426
 2783TIP3    H2 8356   3.940   4.807   4.530  0.0369  0.9772  1.4830
 2784TIP3   OH2 8357   3.614   0.778   0.696  0.6372 -0.3992 -0.1327
 2784TIP3    H1 8358   3.580   0.709   0.753  1.4269 -1.1349 -0.5222
 2784TIP3    H2 8359   3.538   0.810   0.648  0.2896 -1.1476 -0.0969
 2785TIP3   OH2 8360   3.588   2.350   0.587  0.5313  0.2939  0.2027
 2785TIP3    H1 8361   3.620   2.263   0.610 -0.7230 -0.0847  0.5997
 2785TIP3    H2 8362   3.494   2.340   0.578  0.3491  1.6289  0.3178
 2786TIP3   OH2 8363   5.881   1.654   5.046  0.3798  0.3826 -0.5926
 2786TIP3    H1 8364   5.824   1.691   4.978  0.6071 -0.7756 -1.4306
 2786TIP3    H2 8365   5.951   1.610   4.998  0.9389  0.1576  0.4071
 2787TIP3   OH2 8366   1.475   4.290   0.111 -0.2333 -0.3398  0.8150
 2787TIP3    H1 8367   1.541   4.224   0.128  1.6784  1.0430 -0.7833
 2787TIP3    H2 8368   1.518   4.373   0.130 -1.9590  0.5585  1.0159
 2788TIP3   OH2 8369   3.487   3.091   3.010 -0.1448  0.2423 -0.1076
 2788TIP3    H1 8370   3.469   3.048   3.093  1.3273 -0.7281 -0.2617
 2788TIP3    H2 8371   3.405   3.135   2.988 -0.2100  1.6059  2.4644
 2789TIP3   OH2 8372   4.593   3.870   1.948 -0.4600 -0.4786 -0.0385
 2789TIP3    H1 8373   4.597   3.913   1.862 -0.8257  1.2821  0.7909
 2789TIP3    H2 8374   4.582   3.777   1.927 -1.7252  0.0339 -1.9008
 2790TIP3   OH2 8375   3.965   0.913   4.797 -0.0248  0.4809  0.0089
 2790TIP3    H1 8376   3.944   0.995   4.842 -0.1843 -0.2031  1.2200
 2790TIP3    H2 8377   3.952   0.933   4.704  0.0690  1.8603  0.2630
 2791TIP3   OH2 8378   0.355   3.118   4.872  0.0074  0.7063  0.1891
 2791TIP3    H1 8379   0.279   3.164   4.837 -2.4017 -1.5789  2.0464
 2791TIP3    H2 8380   0.338   3.111   4.966  1.2966 -1.9614  0.3195
 2792TIP3   OH2 8381   1.696   4.617   4.337 -0.5490 -0.0684  0.2762
 2792TIP3    H1 8382   1.687   4.657   4.424 -1.9345  0.0665  0.0859
 2792TIP3    H2 8383   1.734   4.531   4.355  1.0612  0.6970  0.8198
 2793TIP3   OH2 8384   1.466   3.925   1.690 -0.5040 -0.3985 -0.2583
 2793TIP3    H1 8385   1.478   4.016   1.719  0.3655 -0.8696  0.9475
 2793TIP3    H2 8386   1.379   3.924   1.651  0.0012  1.2607 -1.5664
 2794TIP3   OH2 8387   0.670   1.052   3.901  0.0108 -0.6614  1.2327
 2794TIP3    H1 8388   0.742   0.991   3.917  2.7908  1.4911 -1.8507
 2794TIP3    H2 8389   0.707   1.138   3.920 -1.7603  0.5337 -0.4041
 2795TIP3   OH2 8390   2.716   0.229   3.916 -0.1900  0.2050  0.4862
 2795TIP3    H1 8391   2.712   0.320   3.947 -0.1820  0.2944  0.2302
 2795TIP3    H2 8392   2.626   0.209   3.890  0.4090  1.4551 -3.1349
 2796TIP3   OH2 8393   2.778   4.858   5.128  0.0316 -0.2198  0.5248
 2796TIP3    H1 8394   2.837   4.870   5.054 -0.0089 -0.2284  0.4910
 2796TIP3    H2 8395   2.815   4.912   5.197  0.6612 -1.0530  0.8484
 2797TIP3   OH2 8396   1.063   2.079   0.840  0.7737 -0.1864  0.1418
 2797TIP3    H1 8397   1.002   2.066   0.767  1.2263  0.7671 -0.4291
 2797TIP3    H2 8398   1.011   2.059   0.918 -0.5754  1.4891 -0.2627
 2798TIP3   OH2 8399   0.505   4.510   2.550 -0.1882 -0.1699  0.4821
 2798TIP3    H1 8400   0.427   4.544   2.507 -1.8031  1.2871  4.0845
 2798TIP3    H2 8401   0.501   4.416   2.539 -1.8860 -0.0271 -0.3016
 2799TIP3   OH2 8402   4.991   3.235   3.205 -0.1047 -0.0627  0.4331
 2799TIP3    H1 8403   5.017   3.178   3.278 -2.0059  0.4173  1.5766
 2799TIP3    H2 8404   4.931   3.298   3.245  0.3852  1.5017 -1.1865
 2800TIP3   OH2 8405   0.623   4.246   2.836 -0.0557 -0.5414 -0.1008
 2800TIP3    H1 8406   0.700   4.277   2.789 -0.7378  0.3389 -0.6921
 2800TIP3    H2 8407   0.597   4.320   2.891 -1.4223 -0.1932 -1.1502
 2801TIP3   OH2 8408   3.816   5.729   4.791 -0.4183  0.5262 -0.0510
 2801TIP3    H1 8409   3.841   5.638   4.806  1.8970  0.5211 -3.0398
 2801TIP3    H2 8410   3.720   5.727   4.786 -0.6238 -1.1989  2.4282
 2802TIP3   OH2 8411   5.540   3.621   4.865  0.5132  0.5427  0.0801
 2802TIP3    H1 8412   5.452   3.635   4.831  0.6957 -0.1739 -0.7124
 2802TIP3    H2 8413   5.593   3.599   4.788  1.3442  0.7607  0.5719
 2803TIP3   OH2 8414   5.274   5.583   1.929 -0.0764  0.1793 -0.2098
 2803TIP3    H1 8415   5.339   5.588   1.999 -0.0127 -0.9682 -0.1689
 2803TIP3    H2 8416   5.250   5.674   1.912  0.1186  0.4921  1.0942
 2804TIP3   OH2 8417   1.266   4.056   2.414  0.1843  0.3380  0.2218
 2804TIP3    H1 8418   1.288   4.137   2.458 -0.6521  0.6138  0.1505
 2804TIP3    H2 8419   1.214   4.083   2.338  2.9297  0.0115 -1.9201
 2805TIP3   OH2 8420   1.092   5.328   2.632 -0.0069  0.3067 -0.8069
 2805TIP3    H1 8421   1.107   5.399   2.694 -0.9864  0.4099 -0.6790
 2805TIP3    H2 8422   1.067   5.372   2.551 -1.0007  0.1042 -0.6177
 2806TIP3   OH2 8423   1.125   3.469   1.292 -0.4627 -0.7191 -0.7585
 2806TIP3    H1 8424   1.131   3.401   1.225 -1.3631  1.2154 -2.9381
 2806TIP3    H2 8425   1.033   3.496   1.292 -0.3552 -0.2050  0.8390
 2807TIP3   OH2 8426   4.927   5.073   3.951 -0.5127  0.4752 -0.2850
 2807TIP3    H1 8427   4.868   5.002   3.977  1.4074 -0.3613  2.1438
 2807TIP3    H2 8428   4.871   5.151   3.952 -1.8751 -0.4452  0.7059
 2808TIP3   OH2 8429   3.003   1.147   3.706 -0.6272 -0.0568  0.1223
 2808TIP3    H1 8430   2.942   1.210   3.668 -0.1521  0.0647 -0.4479
 2808TIP3    H2 8431   2.952   1.066   3.712 -0.4464 -0.3496 -1.6757
 2809TIP3   OH2 8432   3.079   2.976   4.236  0.2379 -0.2986 -0.2956
 2809TIP3    H1 8433   3.102   2.917   4.308  1.4811  1.1472  0.5356
 2809TIP3    H2 8434   3.118   2.935   4.159  0.5820 -0.8601  0.1632
 2810TIP3   OH2 8435   2.498   3.523   2.460 -0.5014  0.4441 -0.2489
 2810TIP3    H1 8436   2.448   3.444   2.438 -1.2304  0.8675 -0.1326
 2810TIP3    H2 8437   2.510   3.567   2.376  0.2568  0.0199 -0.3754
 2811TIP3   OH2 8438   5.669   2.538   0.064 -0.2189 -0.2108 -0.8392
 2811TIP3    H1 8439   5.722   2.561   0.141 -0.1716 -0.1450 -0.8911
 2811TIP3    H2 8440   5.666   2.442   0.065  1.4719 -0.3169 -1.8818
 2812TIP3   OH2 8441   0.502   0.128   4.041  0.0587  0.0670  0.0380
 2812TIP3    H1 8442   0.459   0.054   3.999 -1.9092  1.5267 -0.7025
 2812TIP3    H2 8443   0.524   0.097   4.129  1.3950 -2.0567 -0.9481
 2813TIP3   OH2 8444   3.911   1.252   1.696  0.7197  0.2573  0.1091
 2813TIP3    H1 8445   3.822   1.249   1.731  0.7687  3.1821  0.7630
 2813TIP3    H2 8446   3.905   1.206   1.612 -0.8555 -1.4604  1.0840
 2814TIP3   OH2 8447   0.063   4.399   4.689  0.4241  0.3508 -0.2617
 2814TIP3    H1 8448   0.089   4.473   4.634  0.0337  1.2273  0.7068
 2814TIP3    H2 8449   0.011   4.438   4.759 -0.8119 -0.9926 -0.3901
 2815TIP3   OH2 8450   5.904   4.674   3.649  0.7483  0.3816  0.5318
 2815TIP3    H1 8451   5.840   4.617   3.607 -1.1176  0.5312  2.9692
 2815TIP3    H2 8452   5.913   4.749   3.589  0.0079 -0.4762 -0.6838
 2816TIP3   OH2 8453   5.394   5.524   2.407 -0.2613 -0.3413 -0.5916
 2816TIP3    H1 8454   5.326   5.460   2.389 -0.1784 -0.4537 -0.5141
 2816TIP3    H2 8455   5.349   5.608   2.410 -0.3199 -0.3608 -1.0062
 2817TIP3   OH2 8456   4.153   1.727   4.821 -0.6516 -0.2668 -0.2105
 2817TIP3    H1 8457   4.097   1.746   4.896  0.3637 -2.3019  1.1521
 2817TIP3    H2 8458   4.236   1.700   4.860  0.3552 -0.0623 -2.1205
 2818TIP3   OH2 8459   3.657   4.242   4.514 -0.2135  0.1087  0.5790
 2818TIP3    H1 8460   3.636   4.155   4.549 -2.4251  0.8935  1.3959
 2818TIP3    H2 8461   3.588   4.259   4.450  0.8023  0.8562 -0.3446
 2819TIP3   OH2 8462   1.274   0.235   0.251 -0.2420 -0.7864  0.3016
 2819TIP3    H1 8463   1.220   0.174   0.200 -0.3729  0.7117 -1.4251
 2819TIP3    H2 8464   1.236   0.232   0.339 -2.6783 -0.3697 -0.6635
 2820TIP3   OH2 8465   5.558   1.581   1.985  0.1907 -0.1281 -0.3072
 2820TIP3    H1 8466   5.545   1.547   1.897 -1.9159  1.7910 -0.8320
 2820TIP3    H2 8467   5.635   1.638   1.978 -0.2106  0.3440 -1.0559
 2821TIP3   OH2 8468   5.777   1.639   3.438 -0.1310 -0.9307 -0.0762
 2821TIP3    H1 8469   5.777   1.543   3.446  0.7238 -0.8547  1.2357
 2821TIP3    H2 8470   5.854   1.666   3.488 -0.0045  0.4159 -0.9638
 2822TIP3   OH2 8471   4.468   0.808   3.299  0.0162  0.1592 -1.1558
 2822TIP3    H1 8472   4.378   0.791   3.269  0.4289  0.0990 -2.4145
 2822TIP3    H2 8473   4.523   0.775   3.228  1.0140  0.9947 -0.7878
 2823TIP3   OH2 8474   3.817   2.165   2.468 -0.5906 -0.1820  0.1612
 2823TIP3    H1 8475   3.742   2.121   2.427 -0.3487 -0.0802 -0.4071
 2823TIP3    H2 8476   3.779   2.243   2.510 -1.2504 -1.5962  2.3817
 2824TIP3   OH2 8477   4.919   4.270   4.115 -0.2015  0.3148  0.3780
 2824TIP3    H1 8478   4.965   4.211   4.055  0.7251  0.0427  1.3272
 2824TIP3    H2 8479   4.989   4.316   4.162 -0.9158  1.0920  0.6960
 2825TIP3   OH2 8480   1.246   2.679   1.877  0.8580  0.0227 -0.0143
 2825TIP3    H1 8481   1.223   2.684   1.785  1.7197 -2.5909 -0.4590
 2825TIP3    H2 8482   1.333   2.718   1.883  0.8988 -0.0152 -0.3744
 2826TIP3   OH2 8483   0.360   3.974   5.085 -0.0562  0.2997  0.3657
 2826TIP3    H1 8484   0.321   3.927   5.011  0.3899 -2.2935  1.6987
 2826TIP3    H2 8485   0.383   4.060   5.048 -1.1299 -0.3784 -2.1141
 2827TIP3   OH2 8486   2.392   4.318   5.041  0.4921  0.5977  0.2217
 2827TIP3    H1 8487   2.390   4.291   4.949 -0.6828  0.3189  0.3204
 2827TIP3    H2 8488   2.485   4.324   5.061  0.8196  2.4313 -1.4912
 2828TIP3   OH2 8489   2.112   3.001   0.267  0.8833 -0.1988  0.1772
 2828TIP3    H1 8490   2.086   3.022   0.356  1.8763 -0.8524  0.6467
 2828TIP3    H2 8491   2.151   3.081   0.233  0.5716  0.0303  0.3581
 2829TIP3   OH2 8492   2.013   4.395   0.629  0.5298  0.3491 -0.3621
 2829TIP3    H1 8493   1.952   4.352   0.689  0.0499  0.6326 -0.6493
 2829TIP3    H2 8494   2.098   4.385   0.672  0.2758  0.0227  0.0772
 2830TIP3   OH2 8495   0.136   2.441   0.676  1.0414 -0.1980  0.1923
 2830TIP3    H1 8496   0.132   2.446   0.772  0.9799  2.1444  0.1190
 2830TIP3    H2 8497   0.100   2.524   0.646 -1.1271 -1.7717 -1.9791
 2831TIP3   OH2 8498   4.678   2.368   2.865  0.2898 -0.2467  0.3323
 2831TIP3    H1 8499   4.693   2.463   2.869  0.8156 -0.3707  2.5143
 2831TIP3    H2 8500   4.604   2.358   2.806  0.3976  1.4958 -0.1517
 2832TIP3   OH2 8501   2.175   1.745   0.463  0.1230  0.2909  0.4077
 2832TIP3    H1 8502   2.238   1.703   0.522  0.4884  1.0999  0.5997
 2832TIP3    H2 8503   2.214   1.735   0.376 -0.6277 -1.2998  0.2069
 2833TIP3   OH2 8504   2.177   4.960   3.622  0.2242  0.0275  0.1322
 2833TIP3    H1 8505   2.185   5.033   3.560 -0.4624  0.6607  0.7744
 2833TIP3    H2 8506   2.253   4.904   3.602  0.3263  0.4984 -0.8973
 2834TIP3   OH2 8507   1.049   4.980   3.855 -0.3402 -0.4017  0.0719
 2834TIP3    H1 8508   1.024   4.889   3.839 -0.3886 -0.1315 -1.5953
 2834TIP3    H2 8509   1.128   4.993   3.803 -0.0471  0.3742  0.6874
 2835TIP3   OH2 8510   1.055   0.237   0.741 -0.2477  0.2724 -0.1451
 2835TIP3    H1 8511   0.994   0.213   0.811 -0.0583 -1.6141 -0.5660
 2835TIP3    H2 8512   1.130   0.275   0.786 -0.0549 -1.0724  0.7193
 2836TIP3   OH2 8513   2.171   3.585   5.077 -0.0015  0.2670  0.4728
 2836TIP3    H1 8514   2.239   3.547   5.133 -0.5187  0.3308  1.1481
 2836TIP3    H2 8515   2.107   3.622   5.138 -0.6838  0.1437 -0.1565
 2837TIP3   OH2 8516   2.359   3.290   3.176  0.4118 -0.2729 -0.4414
 2837TIP3    H1 8517   2.273   3.250   3.160 -0.5757  1.1291  1.1187
 2837TIP3    H2 8518   2.375   3.344   3.098 -0.2876 -0.2379 -0.5622
 2838TIP3   OH2 8519   1.036   2.644   4.912  0.5756  0.5248  0.0585
 2838TIP3    H1 8520   1.094   2.595   4.970 -0.7524 -0.1707  0.8540
 2838TIP3    H2 8521   0.961   2.586   4.899  0.9042  0.5438 -2.5809
 2839TIP3   OH2 8522   0.976   5.358   0.102  0.2984  0.4014  0.3671
 2839TIP3    H1 8523   0.973   5.426   0.170 -0.2636 -0.8787  1.6681
 2839TIP3    H2 8524   1.043   5.297   0.132  2.0352  1.2192 -1.6685
 2840TIP3   OH2 8525   5.074   5.166   1.014 -0.0485  0.1583  0.0936
 2840TIP3    H1 8526   5.124   5.122   0.945  2.1013 -0.6502  2.0375
 2840TIP3    H2 8527   5.124   5.244   1.035 -1.9746  1.7242 -0.8600
 2841TIP3   OH2 8528   5.549   0.465   0.938  0.3289  0.0804 -0.0374
 2841TIP3    H1 8529   5.633   0.430   0.967  0.7815  2.5033  1.9352
 2841TIP3    H2 8530   5.559   0.474   0.843  0.7255 -3.3300 -0.4494
 2842TIP3   OH2 8531   0.694   1.674   0.243  0.3860 -0.8787 -0.4583
 2842TIP3    H1 8532   0.651   1.759   0.237  0.8813 -0.6736 -1.2004
 2842TIP3    H2 8533   0.629   1.612   0.209 -0.6936 -1.0777  1.8052
 2843TIP3   OH2 8534   1.616   4.148   4.459 -0.9748 -0.2702  0.0368
 2843TIP3    H1 8535   1.657   4.078   4.511  0.7939  0.0002 -0.8998
 2843TIP3    H2 8536   1.638   4.126   4.369 -2.8846 -0.0339 -0.5332
 2844TIP3   OH2 8537   2.929   2.576   2.934 -0.0767 -0.6994  0.2501
 2844TIP3    H1 8538   2.920   2.634   3.010  0.2623  1.8626 -1.5576
 2844TIP3    H2 8539   2.868   2.504   2.952 -1.1209  0.6015  2.2410
 2845TIP3   OH2 8540   0.587   0.362   3.369 -0.4247 -0.2228  0.1007
 2845TIP3    H1 8541   0.492   0.375   3.367 -0.3260  0.7082  0.8689
 2845TIP3    H2 8542   0.608   0.321   3.285 -1.5550 -0.8278  0.0946
 2846TIP3   OH2 8543   2.338   2.324   2.033 -0.7070 -0.4373 -0.0966
 2846TIP3    H1 8544   2.393   2.402   2.034 -1.5307  0.1639  1.0852
 2846TIP3    H2 8545   2.328   2.301   2.125 -0.6798 -1.7960 -0.4249
 2847TIP3   OH2 8546   3.508   1.670   1.864  0.6705 -0.1436 -0.0925
 2847TIP3    H1 8547   3.575   1.706   1.921 -0.0217 -2.7459  2.6222
 2847TIP3    H2 8548   3.459   1.609   1.919 -1.9876 -0.6835 -2.7441
 2848TIP3   OH2 8549   6.159   1.935   3.674  0.2364  0.4187 -0.5977
 2848TIP3    H1 8550   6.172   2.007   3.613  1.4035  1.6138  0.9777
 2848TIP3    H2 8551   6.217   1.865   3.643  0.1989  0.7013 -1.3059
 2849TIP3   OH2 8552   2.157   0.551   5.107  0.3872 -0.3304  0.2347
 2849TIP3    H1 8553   2.120   0.464   5.115 -0.4763 -0.2795 -2.4114
 2849TIP3    H2 8554   2.246   0.537   5.073 -0.1312 -0.1915 -1.2470
 2850TIP3   OH2 8555   0.854   4.455   4.453  0.1186 -0.3310  0.3594
 2850TIP3    H1 8556   0.915   4.410   4.511  0.2576 -0.8174 -0.1589
 2850TIP3    H2 8557   0.891   4.543   4.444  1.2268 -0.8744 -0.6349
 2851TIP3   OH2 8558   2.293   0.529   3.509 -0.1819 -0.0379  0.2338
 2851TIP3    H1 8559   2.258   0.444   3.535 -0.1353  0.1448  0.9024
 2851TIP3    H2 8560   2.259   0.590   3.574 -0.4270  0.5013 -0.3881
 2852TIP3   OH2 8561   2.450   1.298   1.225  0.4318  0.1355 -0.5619
 2852TIP3    H1 8562   2.360   1.312   1.255  0.5358  0.2458 -0.3071
 2852TIP3    H2 8563   2.493   1.382   1.238  1.0049 -0.3534  0.7999
 2853TIP3   OH2 8564   0.352   1.103   0.049  0.2432  0.2640  0.1290
 2853TIP3    H1 8565   0.294   1.049  -0.004 -1.3487  1.2819  0.7487
 2853TIP3    H2 8566   0.300   1.126   0.126  1.6748  0.7773  0.9845
 2854TIP3   OH2 8567   2.691   0.603   1.750  0.2388  0.0787  0.0510
 2854TIP3    H1 8568   2.680   0.509   1.759  0.1267  0.0420 -0.4037
 2854TIP3    H2 8569   2.760   0.613   1.685 -0.7391  0.2960 -1.0005
 2855TIP3   OH2 8570   6.234   3.111   3.359  0.0769 -0.5661 -0.0646
 2855TIP3    H1 8571   6.326   3.110   3.335  0.3303 -0.2331  0.8328
 2855TIP3    H2 8572   6.200   3.193   3.323 -0.3582 -1.5572 -2.0399
 2856TIP3   OH2 8573   2.177   5.791   0.802  0.4429  0.1628 -0.3462
 2856TIP3    H1 8574   2.086   5.821   0.802  1.1568  2.5746  0.0427
 2856TIP3    H2 8575   2.190   5.753   0.715 -1.1398 -0.9854 -0.1141
 2857TIP3   OH2 8576   4.568   0.533   3.576  0.3188  0.0249  0.2367
 2857TIP3    H1 8577   4.590   0.580   3.657 -0.0640 -0.6643  0.7511
 2857TIP3    H2 8578   4.620   0.453   3.580  1.7082  0.7984 -1.0961
 2858TIP3   OH2 8579   0.124   4.285   2.599 -0.1139 -0.1115 -0.2487
 2858TIP3    H1 8580   0.194   4.244   2.549  0.4683  1.8006 -1.1149
 2858TIP3    H2 8581   0.165   4.313   2.680 -0.4427 -0.9866  0.2263
 2859TIP3   OH2 8582   3.441   0.152   2.927  0.4832 -0.0072 -0.0513
 2859TIP3    H1 8583   3.443   0.087   2.858  0.9365  0.2484 -0.2885
 2859TIP3    H2 8584   3.533   0.180   2.935  0.7654 -1.2749  1.8283
 2860TIP3   OH2 8585   3.050   2.673   2.521  0.4226 -0.0855 -0.5232
 2860TIP3    H1 8586   3.070   2.589   2.480 -0.0506 -0.9599  0.9337
 2860TIP3    H2 8587   3.131   2.699   2.565  0.4107 -0.0698 -0.5101
 2861TIP3   OH2 8588   5.181   1.367   3.092  0.6746 -0.2615 -0.1199
 2861TIP3    H1 8589   5.148   1.364   3.002  1.0292  2.4645 -0.4244
 2861TIP3    H2 8590   5.211   1.457   3.104  3.2884 -1.2389  1.8171
 2862TIP3   OH2 8591   5.480   1.311   3.255  0.0040 -0.5240  0.3447
 2862TIP3    H1 8592   5.516   1.328   3.342  0.9413  0.2745 -0.1848
 2862TIP3    H2 8593   5.385   1.311   3.269  0.0475  1.6973  1.0393
 2863TIP3   OH2 8594   0.530  -0.021   0.680  0.0826 -0.4856 -0.5496
 2863TIP3    H1 8595   0.486   0.009   0.759 -0.5382 -0.3755 -0.9292
 2863TIP3    H2 8596   0.544   0.058   0.628 -1.1552 -0.7622 -1.3487
 2864TIP3   OH2 8597   0.302   5.426   3.143  0.5233  0.1935 -0.4291
 2864TIP3    H1 8598   0.273   5.342   3.178 -3.6756  1.5129 -0.1949
 2864TIP3    H2 8599   0.374   5.404   3.084 -0.1482 -3.5000 -0.1129
 2865TIP3   OH2 8600   3.502   1.046   1.274  0.0241 -0.3905 -0.3834
 2865TIP3    H1 8601   3.446   0.971   1.291 -0.4502 -0.2283 -1.2175
 2865TIP3    H2 8602   3.445   1.111   1.234  0.5547  0.2104 -0.1850
 2866TIP3   OH2 8603   6.260   2.636   4.370 -0.4921 -0.4538 -0.3085
 2866TIP3    H1 8604   6.315   2.560   4.352  1.6545  0.7585  0.7577
 2866TIP3    H2 8605   6.308   2.686   4.437 -2.8149  0.7943  0.5704
 2867TIP3   OH2 8606   1.827   0.409   1.137  0.6194 -0.7387  0.2689
 2867TIP3    H1 8607   1.757   0.418   1.202  0.8321  0.6677  0.3245
 2867TIP3    H2 8608   1.790   0.353   1.069 -0.0081 -1.2853  1.0345
 2868TIP3   OH2 8609   0.489   0.817   4.315  0.3520 -0.3811  0.4873
 2868TIP3    H1 8610   0.517   0.728   4.293 -0.1093  0.0765 -2.3266
 2868TIP3    H2 8611   0.399   0.806   4.346 -0.0573 -0.8390 -0.7918
 2869TIP3   OH2 8612   4.203   0.568   2.035  0.0628  0.1831  0.2182
 2869TIP3    H1 8613   4.227   0.508   2.105  1.5816  1.8397  1.1987
 2869TIP3    H2 8614   4.280   0.625   2.025 -0.1580  0.0990 -2.7049
 2870TIP3   OH2 8615   4.793   4.606   4.831 -0.1677 -0.2953 -0.5161
 2870TIP3    H1 8616   4.772   4.589   4.740  0.1438 -0.1081 -0.6252
 2870TIP3    H2 8617   4.769   4.698   4.845  0.7833 -0.0077 -0.7095
 2871TIP3   OH2 8618   3.727   1.984   4.930  0.3139 -0.3577 -0.0081
 2871TIP3    H1 8619   3.686   1.901   4.908 -2.3005  0.6310  0.7552
 2871TIP3    H2 8620   3.762   1.971   5.018 -0.3530 -0.5907  0.2328
 2872TIP3   OH2 8621   0.987   5.674   1.168 -0.0602  0.5676 -0.3585
 2872TIP3    H1 8622   1.003   5.744   1.232  2.0154  0.8396 -1.1141
 2872TIP3    H2 8623   0.949   5.603   1.220  1.5272  0.7943  1.2346
 2873TIP3   OH2 8624   3.302   2.830   2.990 -0.1711  0.1401  0.1100
 2873TIP3    H1 8625   3.346   2.820   3.074  2.1877 -3.3963 -1.2801
 2873TIP3    H2 8626   3.345   2.905   2.949  0.3409  0.4291  1.1576
 2874TIP3   OH2 8627   1.033   3.503   3.293  0.1156 -0.3515 -0.1470
 2874TIP3    H1 8628   1.119   3.490   3.254  0.6948  0.6224  0.7470
 2874TIP3    H2 8629   0.980   3.431   3.258  0.6910  0.2273 -2.3682
 2875TIP3   OH2 8630   0.949   1.426   1.457  0.0404 -0.1024  0.4083
 2875TIP3    H1 8631   1.040   1.399   1.468  0.7867  2.1907  0.5604
 2875TIP3    H2 8632   0.930   1.480   1.534 -1.1962  0.0603  0.0196
 2876TIP3   OH2 8633   6.011   1.078   4.467 -0.0701  0.4764 -0.3075
 2876TIP3    H1 8634   5.970   1.003   4.510  0.7193  1.7737  3.0428
 2876TIP3    H2 8635   6.097   1.045   4.440  0.1966  0.0485  0.9646
 2877TIP3   OH2 8636   1.608   0.132   3.247  0.0151 -0.0507 -0.1889
 2877TIP3    H1 8637   1.619   0.221   3.282 -1.5526  0.1757 -0.2061
 2877TIP3    H2 8638   1.655   0.076   3.308 -1.3110  0.5188  1.4198
 2878TIP3   OH2 8639   1.243   1.912   3.183  0.1615 -0.1036 -0.4692
 2878TIP3    H1 8640   1.189   1.933   3.260  0.2056  0.1883 -0.5186
 2878TIP3    H2 8641   1.256   1.996   3.139 -0.3322 -0.3522 -1.1056
 2879TIP3   OH2 8642   5.671   1.256   0.508  0.0451  0.0841 -0.7576
 2879TIP3    H1 8643   5.583   1.220   0.492  0.5951 -1.3180 -0.8160
 2879TIP3    H2 8644   5.679   1.256   0.603  0.0631 -0.0239 -0.7583
 2880TIP3   OH2 8645   2.378   5.618   2.141 -0.0814  0.4576 -0.7910
 2880TIP3    H1 8646   2.316   5.558   2.183 -0.1741 -0.7278 -2.5337
 2880TIP3    H2 8647   2.326   5.695   2.120 -0.1835  0.8056  0.6153
 2881TIP3   OH2 8648   2.830   4.043   3.566  0.3070  0.2746  0.0013
 2881TIP3    H1 8649   2.736   4.036   3.578  0.0483  1.7069 -0.9182
 2881TIP3    H2 8650   2.850   4.135   3.583  1.4925  0.0717 -0.1490
 2882TIP3   OH2 8651   1.992   1.210   4.440 -0.1513 -0.4823 -0.2451
 2882TIP3    H1 8652   1.909   1.253   4.462 -0.0588 -0.1000 -0.6465
 2882TIP3    H2 8653   2.045   1.278   4.399  0.2593 -0.7983 -0.2452
 2883TIP3   OH2 8654   2.617   2.404   1.859  0.0825 -0.0218 -0.0117
 2883TIP3    H1 8655   2.563   2.465   1.810 -0.3397 -1.0582 -0.8642
 2883TIP3    H2 8656   2.655   2.457   1.929  1.2005  1.6493 -1.7935
 2884TIP3   OH2 8657   5.565   3.536   4.380  0.6391  0.1818 -0.2112
 2884TIP3    H1 8658   5.600   3.457   4.421  1.5578 -0.1502 -1.5884
 2884TIP3    H2 8659   5.537   3.507   4.293  2.0395  1.5989 -1.1665
 2885TIP3   OH2 8660   4.004   4.370   1.593  0.7753  0.6664 -0.3280
 2885TIP3    H1 8661   4.084   4.393   1.640  0.5930  1.4402 -0.3792
 2885TIP3    H2 8662   3.994   4.439   1.527  1.0664 -0.4333 -1.5657
 2886TIP3   OH2 8663   5.891   2.183   2.996 -0.2967 -0.0365 -0.0177
 2886TIP3    H1 8664   5.873   2.213   3.085 -0.0227  0.5241 -0.1485
 2886TIP3    H2 8665   5.810   2.140   2.969 -0.9160  1.1178 -0.0480
 2887TIP3   OH2 8666   4.343   4.577   1.204  0.4488 -0.1588 -0.4996
 2887TIP3    H1 8667   4.398   4.655   1.199 -0.2783  0.4592  0.7885
 2887TIP3    H2 8668   4.329   4.562   1.297  1.5623 -2.5744 -0.6290
 2888TIP3   OH2 8669   5.301   4.074   0.811  0.0831 -0.6341 -0.6388
 2888TIP3    H1 8670   5.278   4.073   0.904  1.9358 -0.7337 -0.1525
 2888TIP3    H2 8671   5.318   3.983   0.788  0.9963 -0.4598 -0.6979
 2889TIP3   OH2 8672   5.027   4.995   3.197 -0.4585 -0.2439  0.7150
 2889TIP3    H1 8673   4.938   4.993   3.161 -0.3442 -0.4548  0.4384
 2889TIP3    H2 8674   5.084   4.986   3.120 -0.2163 -1.0291  0.9760
 2890TIP3   OH2 8675   5.014   0.178   2.512 -0.0307  0.0632 -0.0741
 2890TIP3    H1 8676   5.079   0.109   2.519 -1.2254 -1.0652  0.3458
 2890TIP3    H2 8677   4.943   0.140   2.459 -0.2505  1.3512 -0.7786
 2891TIP3   OH2 8678   4.095   3.647   3.124  0.4786 -0.5932  0.2005
 2891TIP3    H1 8679   4.036   3.719   3.104  0.3954 -1.0424 -1.3147
 2891TIP3    H2 8680   4.090   3.637   3.220  0.0957  1.0389  0.3737
 2892TIP3   OH2 8681   0.337   5.371   4.616  0.1878 -0.6461 -0.0290
 2892TIP3    H1 8682   0.341   5.277   4.633 -1.5742 -0.3937  2.4408
 2892TIP3    H2 8683   0.274   5.380   4.545  1.6914 -1.3808 -1.5071
 2893TIP3   OH2 8684   0.683   5.317   2.503  0.5696  0.2831 -0.7229
 2893TIP3    H1 8685   0.650   5.286   2.419 -0.1264  1.0759 -0.7584
 2893TIP3    H2 8686   0.736   5.245   2.537  1.7442  0.3451 -2.3196
 2894TIP3   OH2 8687   4.783   1.008   2.890 -0.3368  0.5232  0.6127
 2894TIP3    H1 8688   4.809   1.049   2.807 -1.7285 -1.5747 -0.9415
 2894TIP3    H2 8689   4.866   0.978   2.928  0.1333 -0.8216 -1.3365
 2895TIP3   OH2 8690   0.863   4.595   0.735 -0.0359 -0.2914 -0.1951
 2895TIP3    H1 8691   0.884   4.611   0.643 -0.2410  1.1887 -0.0106
 2895TIP3    H2 8692   0.877   4.679   0.778 -2.5119 -0.1990  0.6355
 2896TIP3   OH2 8693   0.692   1.726   5.183 -0.1471 -0.4445 -0.2956
 2896TIP3    H1 8694   0.604   1.728   5.220  0.6778  0.8361  1.7757
 2896TIP3    H2 8695   0.679   1.718   5.089 -2.4431 -0.6397 -0.0133
 2897TIP3   OH2 8696   0.060   2.404   3.823 -0.6527 -0.8690  0.3108
 2897TIP3    H1 8697   0.143   2.392   3.869 -0.2647  2.0744  0.5728
 2897TIP3    H2 8698   0.083   2.399   3.730  0.3830  2.2033  0.2914
 2898TIP3   OH2 8699   4.019   2.995   2.491  0.6417  0.2856  0.3149
 2898TIP3    H1 8700   3.947   2.936   2.467  1.1573 -0.0765 -0.3383
 2898TIP3    H2 8701   3.977   3.062   2.545 -0.4466  0.8321 -1.1456
 2899TIP3   OH2 8702   5.020   5.146   1.488 -0.2947  0.1217  0.1930
 2899TIP3    H1 8703   5.109   5.167   1.459 -0.2372  0.7016  0.7677
 2899TIP3    H2 8704   5.025   5.055   1.516 -0.3417 -0.4680 -1.5495
 2900TIP3   OH2 8705   1.786   5.460   2.346 -0.1223 -0.4187  0.3530
 2900TIP3    H1 8706   1.803   5.541   2.393  0.4429 -0.5512  0.3767
 2900TIP3    H2 8707   1.864   5.407   2.360 -0.3861 -0.8681  0.1292
 2901TIP3   OH2 8708   4.185   3.160   0.566  0.3551  0.4863  0.4020
 2901TIP3    H1 8709   4.239   3.087   0.596 -0.7452  0.4846  2.5351
 2901TIP3    H2 8710   4.128   3.122   0.499  0.1784 -0.4778  1.0883
 2902TIP3   OH2 8711   1.479   3.759   0.378 -0.3501  0.4856  0.7623
 2902TIP3    H1 8712   1.469   3.854   0.388  3.7029  1.0861  0.9073
 2902TIP3    H2 8713   1.492   3.727   0.467 -0.7274 -0.0978  0.6157
 2903TIP3   OH2 8714   4.369   4.244   0.787  0.3841 -0.2405 -0.4848
 2903TIP3    H1 8715   4.288   4.196   0.770  0.2701 -0.3970  0.4566
 2903TIP3    H2 8716   4.407   4.201   0.864 -0.3617  1.9282  1.1768
 2904TIP3   OH2 8717   1.755   5.943   1.752  0.6837 -0.2664 -0.3822
 2904TIP3    H1 8718   1.717   6.026   1.780  0.1087 -0.2938 -1.0441
 2904TIP3    H2 8719   1.778   5.898   1.833  0.0886  0.1222  0.0081
 2905TIP3   OH2 8720   1.936   2.326   3.496 -0.1074  0.0222  0.4350
 2905TIP3    H1 8721   1.903   2.318   3.406  1.3655 -0.5732 -0.0901
 2905TIP3    H2 8722   2.018   2.277   3.495  0.4342  0.8566  1.8525
 2906TIP3   OH2 8723   1.143   1.158   0.413 -0.0946 -0.4997  0.1542
 2906TIP3    H1 8724   1.094   1.217   0.470  0.7650 -2.0108  2.6155
 2906TIP3    H2 8725   1.197   1.216   0.359 -0.3262  1.0129  1.4744
 2907TIP3   OH2 8726   5.632   3.316   1.016  0.4658  0.3534 -0.3050
 2907TIP3    H1 8727   5.696   3.367   1.068  0.1334 -0.8745  1.3821
 2907TIP3    H2 8728   5.587   3.261   1.080 -1.5332  0.3565 -1.6179
 2908TIP3   OH2 8729   1.462   4.006   3.269 -0.0386 -0.1372 -0.7978
 2908TIP3    H1 8730   1.386   3.988   3.323 -0.3373 -1.2893 -1.5654
 2908TIP3    H2 8731   1.536   3.970   3.318  0.0350  0.9616 -0.0645
 2909TIP3   OH2 8732   0.980   5.782   3.171 -0.4969 -0.1175 -0.0220
 2909TIP3    H1 8733   0.977   5.753   3.262 -2.0830 -4.7225 -1.2356
 2909TIP3    H2 8734   0.890   5.807   3.150  0.0631  1.9747 -0.1403
 2910TIP3   OH2 8735   5.884   4.647  -0.025 -0.4936  0.6086 -0.1476
 2910TIP3    H1 8736   5.865   4.589   0.049  3.1258 -0.0828  0.4643
 2910TIP3    H2 8737   5.861   4.734   0.006 -0.9732  0.0866  1.0326
 2911TIP3   OH2 8738   0.600   3.303   0.123  0.0849  0.1476 -0.1076
 2911TIP3    H1 8739   0.612   3.252   0.043  1.9371 -0.8222  0.7234
 2911TIP3    H2 8740   0.670   3.273   0.181  0.7640  3.0417  0.7541
 2912TIP3   OH2 8741   4.530   4.354   1.876 -0.2749  0.3936  0.2688
 2912TIP3    H1 8742   4.586   4.308   1.939  0.8525  0.6367 -0.5465
 2912TIP3    H2 8743   4.457   4.386   1.929  1.0689  1.3266  1.6474
 2913TIP3   OH2 8744   2.293   3.762   4.896  0.2783 -0.1121 -0.5911
 2913TIP3    H1 8745   2.382   3.738   4.871  0.5850 -0.3106  0.6608
 2913TIP3    H2 8746   2.263   3.690   4.951 -0.2958  0.4177 -0.2035
 2914TIP3   OH2 8747   0.581   0.191   2.047  0.2515 -0.2331  0.8890
 2914TIP3    H1 8748   0.523   0.231   1.982  1.0135 -0.6553 -0.0625
 2914TIP3    H2 8749   0.595   0.260   2.112 -1.2678 -0.1016  1.1288
 2915TIP3   OH2 8750   1.844   0.171   0.674  0.1324 -0.4119 -0.1437
 2915TIP3    H1 8751   1.774   0.118   0.635  0.5008 -0.1659 -1.1902
 2915TIP3    H2 8752   1.916   0.166   0.610 -0.0531  1.8774 -0.6405
 2916TIP3   OH2 8753   2.750   4.327   4.627 -0.9515  0.0293  0.4286
 2916TIP3    H1 8754   2.706   4.397   4.579  0.9086  1.5216  0.7570
 2916TIP3    H2 8755   2.683   4.294   4.687 -3.0746 -1.2675 -2.3803
 2917TIP3   OH2 8756   6.295   1.693   3.580 -0.0517 -0.1981  0.2658
 2917TIP3    H1 8757   6.378   1.660   3.614  0.2906  1.5653  1.2278
 2917TIP3    H2 8758   6.313   1.711   3.488  0.9655  1.1196  0.6911
 2918TIP3   OH2 8759   3.029   5.446   4.525 -0.1368  0.0058  0.6560
 2918TIP3    H1 8760   3.055   5.354   4.535 -0.5551 -0.2220 -0.2406
 2918TIP3    H2 8761   3.081   5.478   4.451  0.6012  0.7297  1.4740
 2919TIP3   OH2 8762   0.029   4.563   0.066 -0.0612  0.3011 -0.2503
 2919TIP3    H1 8763  -0.056   4.564   0.110  0.4274  1.6122  0.7372
 2919TIP3    H2 8764   0.078   4.493   0.110 -1.0792 -1.5209 -1.8443
 2920TIP3   OH2 8765   0.200   4.325   2.036  0.2036 -0.2102  0.5055
 2920TIP3    H1 8766   0.272   4.321   2.098 -0.0297  0.2153  0.8147
 2920TIP3    H2 8767   0.137   4.260   2.067 -0.1852  0.4192  1.0850
 2921TIP3   OH2 8768   3.625   1.635   2.715 -1.0942 -0.2557  0.2066
 2921TIP3    H1 8769   3.700   1.581   2.741 -0.1937  0.6191 -0.4885
 2921TIP3    H2 8770   3.601   1.682   2.795  1.7345  2.5059 -0.3416
 2922TIP3   OH2 8771   4.532   4.696   0.282  0.7787  0.7901 -0.3054
 2922TIP3    H1 8772   4.526   4.605   0.310 -1.4174  0.7487 -0.7451
 2922TIP3    H2 8773   4.526   4.747   0.363 -0.5565  0.5638 -0.2396
 2923TIP3   OH2 8774   1.225   3.672   2.980 -0.1134  0.5986  0.3863
 2923TIP3    H1 8775   1.319   3.689   2.971  0.2534 -1.9016 -1.7982
 2923TIP3    H2 8776   1.220   3.580   3.008 -1.9035  0.2126 -1.0241
 2924TIP3   OH2 8777   5.460   4.409   3.271  0.0650  0.0003 -0.7465
 2924TIP3    H1 8778   5.440   4.348   3.342 -0.5715  0.5697 -0.4197
 2924TIP3    H2 8779   5.377   4.455   3.256  0.7359  1.3404 -0.4331
 2925TIP3   OH2 8780   2.023   3.795   0.459 -0.3728  0.1716  0.1914
 2925TIP3    H1 8781   2.015   3.777   0.553  0.1177  1.6104  0.5472
 2925TIP3    H2 8782   2.114   3.820   0.447 -0.2658 -0.6513 -0.8108
 2926TIP3   OH2 8783   3.491   5.085   2.592 -0.0736 -0.3956 -0.2305
 2926TIP3    H1 8784   3.465   5.017   2.530 -0.0138  0.0983 -0.8048
 2926TIP3    H2 8785   3.422   5.084   2.658 -0.6888 -0.2339 -0.8538
 2927TIP3   OH2 8786   1.383   4.942   0.875  0.1633 -0.2595  0.2040
 2927TIP3    H1 8787   1.427   4.982   0.950  1.2510  1.3550 -1.2129
 2927TIP3    H2 8788   1.294   4.926   0.905  0.8592 -0.6681  2.1581
 2928TIP3   OH2 8789   3.815   1.883   3.535 -0.5736 -0.6684  0.0845
 2928TIP3    H1 8790   3.906   1.907   3.519 -1.2979  1.7415 -0.9967
 2928TIP3    H2 8791   3.805   1.890   3.630  0.0221  0.6191  0.0759
 2929TIP3   OH2 8792   1.750   3.551   1.468  0.1651 -0.3505  0.2115
 2929TIP3    H1 8793   1.673   3.495   1.477 -0.5255  0.7968  2.0454
 2929TIP3    H2 8794   1.762   3.589   1.555  0.6470  2.2360 -0.9001
 2930TIP3   OH2 8795   3.860   4.103   2.010  0.6528  0.5205 -0.3391
 2930TIP3    H1 8796   3.869   4.198   2.010 -0.5598  0.7330  1.9338
 2930TIP3    H2 8797   3.767   4.088   2.031  0.1630 -1.2201 -3.2028
 2931TIP3   OH2 8798   0.366   0.611   0.011  0.5570  0.3429 -0.0135
 2931TIP3    H1 8799   0.371   0.701   0.045 -1.0727 -0.2684  2.0398
 2931TIP3    H2 8800   0.455   0.578   0.018  0.6203  0.8349  2.1668
 2932TIP3   OH2 8801   4.168   3.312   2.696  0.7405 -0.0491  0.1026
 2932TIP3    H1 8802   4.179   3.331   2.603  1.3571 -1.5263 -0.1554
 2932TIP3    H2 8803   4.228   3.239   2.713 -0.2414 -0.6063  1.3868
 2933TIP3   OH2 8804   0.577   2.408   3.230 -0.0247 -0.6201 -0.5160
 2933TIP3    H1 8805   0.483   2.393   3.239 -0.4045  1.2260 -0.8831
 2933TIP3    H2 8806   0.593   2.399   3.136 -0.0159 -0.0828 -0.5687
 2934TIP3   OH2 8807   6.119   2.627   2.004  0.4470  0.6597 -0.0134
 2934TIP3    H1 8808   6.063   2.623   2.081  0.6740  0.6954  0.1570
 2934TIP3    H2 8809   6.154   2.539   1.995  0.5617  0.7003  0.0321
 2935TIP3   OH2 8810   2.793   1.225   4.727  0.4916  0.2093  0.4198
 2935TIP3    H1 8811   2.849   1.299   4.701  1.4820  0.5956  3.3102
 2935TIP3    H2 8812   2.842   1.148   4.698  0.3507  0.6235 -0.9798
 2936TIP3   OH2 8813   6.187   4.719   2.801 -0.0487  0.0960  0.2250
 2936TIP3    H1 8814   6.140   4.772   2.866 -1.8211  0.3667 -1.2049
 2936TIP3    H2 8815   6.213   4.782   2.734  2.1926 -0.1029  0.8330
 2937TIP3   OH2 8816   3.423   4.160   1.568 -0.0419 -0.2680  0.1336
 2937TIP3    H1 8817   3.330   4.178   1.582 -0.2268 -0.6894 -0.5193
 2937TIP3    H2 8818   3.449   4.222   1.500 -0.1903 -1.0498 -0.6640
 2938TIP3   OH2 8819   1.187   1.865   1.374  0.5981  0.2382 -0.1954
 2938TIP3    H1 8820   1.159   1.847   1.464  0.1688 -0.0654 -0.3871
 2938TIP3    H2 8821   1.117   1.920   1.338  0.9980  0.7612 -0.2005
 2939TIP3   OH2 8822   3.582   5.557   2.832  0.5169 -0.7545 -0.2085
 2939TIP3    H1 8823   3.490   5.549   2.810  0.5977 -0.6628 -0.5822
 2939TIP3    H2 8824   3.622   5.600   2.756  1.2862 -2.8941 -1.1043
 2940TIP3   OH2 8825   0.821   5.284   3.034  0.1992  0.0718  1.5240
 2940TIP3    H1 8826   0.751   5.223   3.013  0.7746 -0.2711  0.5510
 2940TIP3    H2 8827   0.798   5.364   2.987 -0.1693  0.3731  2.2017
 2941TIP3   OH2 8828   5.715   3.579   1.969 -0.0104 -0.1228  0.1958
 2941TIP3    H1 8829   5.664   3.641   2.022 -1.7342 -0.6561 -0.7972
 2941TIP3    H2 8830   5.702   3.607   1.879  2.4256  0.4143 -0.0754
 2942TIP3   OH2 8831   2.546   4.910   2.750  0.0717 -0.3682 -0.6035
 2942TIP3    H1 8832   2.553   4.974   2.679  0.3559 -0.2823 -0.4990
 2942TIP3    H2 8833   2.468   4.858   2.728  0.5417 -0.7727 -1.3281
 2943TIP3   OH2 8834   4.721   3.960   4.443 -0.4638 -0.0216  0.2733
 2943TIP3    H1 8835   4.691   4.031   4.386 -2.9617 -1.5606 -0.4630
 2943TIP3    H2 8836   4.807   3.936   4.408 -0.7363  0.9070 -1.1160
 2944TIP3   OH2 8837   3.823   0.942   0.759 -0.5855  0.4521 -0.0192
 2944TIP3    H1 8838   3.747   0.888   0.737 -1.3095  1.4827 -0.1665
 2944TIP3    H2 8839   3.792   1.032   0.748 -0.2329  1.0129  2.7216
 2945TIP3   OH2 8840   0.594   5.826   0.322 -0.0930  0.4448 -0.1938
 2945TIP3    H1 8841   0.557   5.850   0.407  2.8014 -2.3995  2.1236
 2945TIP3    H2 8842   0.677   5.874   0.317  0.1892 -0.1038 -0.9979
 2946TIP3   OH2 8843   2.703   3.160   3.206 -0.0415  0.1542 -0.6100
 2946TIP3    H1 8844   2.664   3.120   3.128  0.0749  2.3980 -1.8891
 2946TIP3    H2 8845   2.789   3.117   3.214 -0.0664 -0.1389 -1.6995
 2947TIP3   OH2 8846   5.213   5.336   2.717 -0.2344 -0.6513 -0.5854
 2947TIP3    H1 8847   5.271   5.300   2.783 -2.7823 -2.4493  0.8181
 2947TIP3    H2 8848   5.171   5.411   2.760 -0.8078 -0.9077 -0.6944
 2948TIP3   OH2 8849   5.306   3.570   4.489 -0.6969  0.2094 -0.2947
 2948TIP3    H1 8850   5.313   3.640   4.554 -0.6106  1.2532 -1.4054
 2948TIP3    H2 8851   5.397   3.550   4.465 -0.7174 -0.3335  0.0445
 2949TIP3   OH2 8852   4.851   3.546   4.142 -0.2585  0.0176  0.1160
 2949TIP3    H1 8853   4.831   3.639   4.132 -1.5286 -0.1409  0.9809
 2949TIP3    H2 8854   4.798   3.503   4.075 -0.4753 -0.1625  0.4018
 2950TIP3   OH2 8855   2.433   5.263   2.864 -0.2482  0.3458 -0.7744
 2950TIP3    H1 8856   2.518   5.276   2.907 -0.2197 -1.1618 -0.3135
 2950TIP3    H2 8857   2.435   5.322   2.789  1.5262 -0.2009 -1.2038
 2951TIP3   OH2 8858   2.021   1.971   3.576 -0.0737 -0.6723  0.3130
 2951TIP3    H1 8859   2.063   2.048   3.538  1.0937 -2.0999 -1.3844
 2951TIP3    H2 8860   2.048   1.973   3.668  0.1634  0.7717  0.2414
 2952TIP3   OH2 8861   5.511   2.779   0.011 -0.6743 -1.1660  0.8820
 2952TIP3    H1 8862   5.533   2.855   0.064 -0.3670 -0.0535 -0.7671
 2952TIP3    H2 8863   5.570   2.710   0.041 -1.8282 -1.1983  3.2888
 2953TIP3   OH2 8864   3.120   3.750   5.086  0.2374 -0.5284  0.4754
 2953TIP3    H1 8865   3.112   3.660   5.055  0.1973 -0.5159  0.4499
 2953TIP3    H2 8866   3.211   3.758   5.115  0.3090 -0.5033  0.2492
 2954TIP3   OH2 8867   0.675   2.068   0.710  0.3854 -0.1931  0.8605
 2954TIP3    H1 8868   0.748   2.027   0.665 -0.1379 -0.5597  0.3254
 2954TIP3    H2 8869   0.713   2.144   0.754  1.0077 -0.1288  0.2303
 2955TIP3   OH2 8870   4.054   0.040   3.701 -0.0559 -0.3387  0.4697
 2955TIP3    H1 8871   4.067   0.135   3.710 -1.4101 -0.2304  1.7764
 2955TIP3    H2 8872   4.125   0.011   3.645  0.2477  1.4959 -0.1626
 2956TIP3   OH2 8873  -0.017   5.412   2.463  0.5238  0.4505 -0.0063
 2956TIP3    H1 8874   0.076   5.418   2.440  0.9154  1.3254  1.6354
 2956TIP3    H2 8875  -0.017   5.398   2.558 -1.0019  1.8642  0.2518
 2957TIP3   OH2 8876   2.474   2.053   4.012 -0.7295 -0.2584 -0.0614
 2957TIP3    H1 8877   2.471   2.148   3.998  1.8551 -0.2201 -0.8250
 2957TIP3    H2 8878   2.564   2.029   3.993 -1.6868 -3.1434 -1.5001
 2958TIP3   OH2 8879   0.498   3.830   3.231  0.3756  0.1425 -0.4342
 2958TIP3    H1 8880   0.488   3.869   3.317 -0.3897  0.9096 -0.8535
 2958TIP3    H2 8881   0.449   3.748   3.236  1.0332 -0.2241  0.1035
 2959TIP3   OH2 8882   3.661   3.353   3.304 -0.0399 -0.3783  0.6812
 2959TIP3    H1 8883   3.704   3.433   3.337  0.4287 -0.1121 -0.5373
 2959TIP3    H2 8884   3.704   3.282   3.352  0.9069 -0.0228  0.4002
 2960TIP3   OH2 8885   3.698   1.215   2.041  0.1820  0.1876  0.1440
 2960TIP3    H1 8886   3.614   1.171   2.034  0.9102 -1.2910  0.2674
 2960TIP3    H2 8887   3.677   1.303   2.071 -1.3779  0.1379 -0.7143
 2961TIP3   OH2 8888   3.391   3.731   5.126  0.2349  0.0944  0.0198
 2961TIP3    H1 8889   3.460   3.721   5.060  0.3799 -0.4195  0.2476
 2961TIP3    H2 8890   3.401   3.655   5.184 -0.5081  0.0193  0.0655
 2962TIP3   OH2 8891   3.908   0.660   4.897 -0.6028  0.1160 -0.4739
 2962TIP3    H1 8892   3.927   0.746   4.859  1.6197  0.1054  0.4855
 2962TIP3    H2 8893   3.860   0.680   4.977  1.0638  0.6121  0.4550
 2963TIP3   OH2 8894   2.074   1.732   4.448 -0.0195 -0.2685 -0.1406
 2963TIP3    H1 8895   2.007   1.704   4.385 -0.3426  0.7506 -0.2687
 2963TIP3    H2 8896   2.156   1.723   4.400 -0.0266 -1.7932  0.1123
 2964TIP3   OH2 8897   5.814   4.999   1.116  0.4140  0.2774 -0.0372
 2964TIP3    H1 8898   5.784   4.924   1.065 -0.6458  1.1430 -0.7215
 2964TIP3    H2 8899   5.809   4.969   1.207 -0.9468 -0.1605 -0.2430
 2965TIP3   OH2 8900   4.745   4.998   1.290  0.0700  0.2839  0.1473
 2965TIP3    H1 8901   4.748   4.929   1.356  0.9082 -1.1600 -1.3357
 2965TIP3    H2 8902   4.835   5.003   1.257 -0.2595  1.2191 -0.6501
 2966TIP3   OH2 8903   3.704   5.203   4.303  0.2360  0.5151 -0.3739
 2966TIP3    H1 8904   3.728   5.229   4.392  1.7125  0.7011 -0.7947
 2966TIP3    H2 8905   3.741   5.271   4.247  2.0201 -1.1324 -1.3255
 2967TIP3   OH2 8906   3.141   1.868   4.308  0.1965  0.0463  0.0120
 2967TIP3    H1 8907   3.068   1.806   4.311 -1.3490  1.7791  1.6567
 2967TIP3    H2 8908   3.177   1.859   4.220 -1.4254 -1.5207 -0.5617
 2968TIP3   OH2 8909   6.171   5.218   2.264 -0.1452  0.1263 -0.1328
 2968TIP3    H1 8910   6.105   5.217   2.194  0.0134 -0.0003 -0.2815
 2968TIP3    H2 8911   6.125   5.254   2.340 -0.3495  0.1606 -0.2718
 2969TIP3   OH2 8912   4.122   3.650   3.395  0.0046 -0.2207 -0.3015
 2969TIP3    H1 8913   4.102   3.673   3.485 -2.0805  3.2115 -1.4550
 2969TIP3    H2 8914   4.215   3.670   3.386 -0.2574  1.6188  0.5724
 2970TIP3   OH2 8915   4.685   5.944   4.728 -0.4640  0.2560 -0.5367
 2970TIP3    H1 8916   4.598   5.977   4.709 -0.6094  1.5007  1.9014
 2970TIP3    H2 8917   4.677   5.903   4.815  1.5097  1.0679  0.0927
 2971TIP3   OH2 8918   0.737   4.139   3.060  0.0758 -0.2063  0.0875
 2971TIP3    H1 8919   0.699   4.140   2.972  1.1067  0.0470 -0.3719
 2971TIP3    H2 8920   0.663   4.153   3.119 -0.6147 -0.2931 -0.7420
 2972TIP3   OH2 8921   5.974   1.065   0.813  0.2259  0.0203 -0.1651
 2972TIP3    H1 8922   5.893   1.039   0.769  0.3211 -0.3396 -0.1236
 2972TIP3    H2 8923   6.020   0.983   0.831 -0.0413  0.1193  1.0593
 2973TIP3   OH2 8924   1.087   0.238   2.047 -0.5815 -0.7587  0.0383
 2973TIP3    H1 8925   1.168   0.253   2.096 -0.8168 -0.0901  0.2262
 2973TIP3    H2 8926   1.114   0.183   1.974  0.0325 -0.5970  0.1352
 2974TIP3   OH2 8927   3.924   1.248   0.337 -0.2583  0.0846 -0.4627
 2974TIP3    H1 8928   3.871   1.205   0.404 -0.4464 -0.2351 -0.8102
 2974TIP3    H2 8929   3.986   1.302   0.385  0.1236 -0.7445 -0.0075
 2975TIP3   OH2 8930   1.541   5.075   1.066  0.0081  0.2108 -0.0887
 2975TIP3    H1 8931   1.562   4.994   1.112 -0.2506  0.9165  1.3094
 2975TIP3    H2 8932   1.611   5.136   1.090  0.2101  0.4134 -1.1410
 2976TIP3   OH2 8933   0.067   3.642   3.033  0.1313  0.2762 -0.5649
 2976TIP3    H1 8934   0.124   3.565   3.033 -0.2757 -0.0430  0.4652
 2976TIP3    H2 8935   0.121   3.711   2.996  1.2229 -0.0141  0.3934
 2977TIP3   OH2 8936   4.534   5.049   1.667  0.5714  0.6874 -0.1050
 2977TIP3    H1 8937   4.557   5.135   1.703 -0.4190  1.1566 -0.5781
 2977TIP3    H2 8938   4.549   4.989   1.740 -0.5438  1.5048  0.8349
 2978TIP3   OH2 8939   3.962   3.399   4.546  0.1244 -0.3049 -0.2617
 2978TIP3    H1 8940   4.023   3.332   4.577  0.5285  0.7819  1.4371
 2978TIP3    H2 8941   3.988   3.478   4.594 -1.5766  0.5898 -0.7508
 2979TIP3   OH2 8942   4.234   4.934   3.962  0.0193 -0.5947 -0.4155
 2979TIP3    H1 8943   4.205   5.022   3.937 -0.0749 -0.5053 -0.0057
 2979TIP3    H2 8944   4.327   4.932   3.941 -0.3128 -0.9590 -1.9627
 2980TIP3   OH2 8945   3.118   5.662   1.917 -0.3008 -0.2593  0.4285
 2980TIP3    H1 8946   3.184   5.731   1.919 -0.6612  0.1403 -0.8712
 2980TIP3    H2 8947   3.063   5.682   1.841 -0.8521 -1.5686  0.4455
 2981TIP3   OH2 8948   5.181   5.362   4.032  0.4733 -0.6822  0.1387
 2981TIP3    H1 8949   5.152   5.381   3.943  1.8178  2.2999  0.2132
 2981TIP3    H2 8950   5.241   5.287   4.023  1.3356  0.1694 -1.6478
 2982TIP3   OH2 8951   1.257   4.799   0.622 -0.3927  0.3609 -0.5796
 2982TIP3    H1 8952   1.268   4.783   0.529 -0.9681 -0.5347 -0.5082
 2982TIP3    H2 8953   1.342   4.833   0.651  0.1320 -0.3657 -1.2264
 2983TIP3   OH2 8954   5.772   0.456   1.761 -0.3705 -0.7956 -0.3362
 2983TIP3    H1 8955   5.712   0.418   1.825 -1.2174  1.2503  0.1362
 2983TIP3    H2 8956   5.815   0.528   1.807  1.9364 -1.7061 -0.8905
 2984TIP3   OH2 8957   6.275   1.286   1.308  0.1458 -0.3923  0.2499
 2984TIP3    H1 8958   6.238   1.325   1.387 -0.2871  0.0396 -0.1587
 2984TIP3    H2 8959   6.199   1.262   1.255  0.4203  0.9428 -0.8085
 2985TIP3   OH2 8960   4.226   5.885   1.403 -0.0083  0.1122 -0.3577
 2985TIP3    H1 8961   4.228   5.799   1.444  0.6593 -0.3507 -1.3323
 2985TIP3    H2 8962   4.302   5.886   1.344 -0.5636  0.9958 -1.0940
 2986TIP3   OH2 8963   4.451   2.110   2.019 -0.3381  0.2338 -0.0546
 2986TIP3    H1 8964   4.419   2.021   2.038 -1.6440  0.6398 -0.2803
 2986TIP3    H2 8965   4.372   2.161   2.004  0.4430  1.2571 -0.7687
 2987TIP3   OH2 8966   0.818   1.617   3.118 -0.3774  0.1890  0.3184
 2987TIP3    H1 8967   0.798   1.563   3.194 -0.4664 -0.6943 -0.3203
 2987TIP3    H2 8968   0.774   1.700   3.135 -1.1722 -0.3237  0.8006
 2988TIP3   OH2 8969   0.100   5.317   1.511 -0.3816 -0.2659  0.3647
 2988TIP3    H1 8970   0.192   5.339   1.530 -0.6381  1.4331 -0.1951
 2988TIP3    H2 8971   0.105   5.263   1.432  0.2218 -1.4691  1.2007
 2989TIP3   OH2 8972   5.429   3.336   2.147  0.4016  0.2055  0.0095
 2989TIP3    H1 8973   5.489   3.305   2.078  0.7493  1.8372 -0.4528
 2989TIP3    H2 8974   5.482   3.336   2.226  0.5721  0.1946 -0.1029
 2990TIP3   OH2 8975   1.561   1.452   3.135  0.5397  0.4253 -0.1623
 2990TIP3    H1 8976   1.498   1.524   3.130  0.6983  0.5269 -0.7561
 2990TIP3    H2 8977   1.620   1.466   3.062  0.8014 -0.0976 -0.0591
 2991TIP3   OH2 8978   6.017   4.426   4.558  0.0089  0.3075 -0.4335
 2991TIP3    H1 8979   5.966   4.502   4.587 -0.8607 -0.2796 -0.4247
 2991TIP3    H2 8980   6.108   4.450   4.579  0.1192  2.5382 -2.9191
 2992TIP3   OH2 8981   2.842   1.056   1.575  0.4398 -0.1411 -0.1309
 2992TIP3    H1 8982   2.834   0.998   1.651 -1.2971  1.4032  0.9511
 2992TIP3    H2 8983   2.851   1.143   1.612  1.3746  0.4867 -1.7319
 2993TIP3   OH2 8984   2.778   1.741   2.332  0.7774  0.3135 -0.6682
 2993TIP3    H1 8985   2.824   1.659   2.354 -1.5243 -0.7869  0.3535
 2993TIP3    H2 8986   2.820   1.807   2.388  0.4544 -0.8682  1.0613
 2994TIP3   OH2 8987   1.994   0.697   1.373 -0.1573  0.4923 -0.1004
 2994TIP3    H1 8988   1.983   0.726   1.282 -1.3326  1.8197  0.4316
 2994TIP3    H2 8989   1.924   0.740   1.421  1.2198  0.8648  1.6871
 2995TIP3   OH2 8990   2.081   4.516   3.750  0.3272 -0.6762 -0.0946
 2995TIP3    H1 8991   2.139   4.502   3.676  0.0942  2.5860 -1.0416
 2995TIP3    H2 8992   2.140   4.535   3.823  0.5067 -0.8618 -0.1907
 2996TIP3   OH2 8993   3.382   1.456   2.020  0.7566  0.1133 -0.5048
 2996TIP3    H1 8994   3.381   1.365   1.991  1.1315  0.9928 -3.6289
 2996TIP3    H2 8995   3.305   1.464   2.075 -0.1083 -1.7559 -1.3558
 2997TIP3   OH2 8996   0.815   2.108   3.721 -0.0631 -0.2631  0.1428
 2997TIP3    H1 8997   0.798   2.194   3.682  0.0028  0.6866  2.0904
 2997TIP3    H2 8998   0.819   2.125   3.815  0.5342 -2.3212  0.5311
 2998TIP3   OH2 8999   0.323   4.228   5.017  0.3594 -0.5100  0.1322
 2998TIP3    H1 9000   0.387   4.269   4.959 -0.1744  0.4286  0.1768
 2998TIP3    H2 9001   0.331   4.276   5.099  0.7573 -1.4999  0.6845
 2999TIP3   OH2 9002   3.624   5.380   0.826  0.1515 -0.0904 -0.4130
 2999TIP3    H1 9003   3.636   5.285   0.835 -0.7842 -0.1830  0.0189
 2999TIP3    H2 9004   3.534   5.389   0.795 -1.3414  0.7515  3.5863
 3000TIP3   OH2 9005   1.872   0.949   3.485  0.2822  0.6454 -0.6507
 3000TIP3    H1 9006   1.925   0.888   3.434 -1.1109  0.8685 -2.4612
 3000TIP3    H2 9007   1.936   0.996   3.539  1.5956 -0.9554 -0.7261
 3001TIP3   OH2 9008   5.536   0.283   1.819 -0.3826  0.3962  0.5790
 3001TIP3    H1 9009   5.468   0.314   1.879 -0.4743 -1.6622  1.6189
 3001TIP3    H2 9010   5.488   0.243   1.747 -0.2539  1.4994 -0.1467
 3002TIP3   OH2 9011   5.595   2.581   2.211  0.1079  0.0245  0.0544
 3002TIP3    H1 9012   5.616   2.503   2.262 -0.4618 -1.0627 -1.2964
 3002TIP3    H2 9013   5.542   2.548   2.138 -0.1680  1.6855 -0.5364
 3003TIP3   OH2 9014   5.663   4.653   2.373 -0.1931  0.2433  0.4071
 3003TIP3    H1 9015   5.708   4.587   2.424 -0.0124  0.1636  0.1478
 3003TIP3    H2 9016   5.703   4.648   2.286 -1.0133 -0.1485  0.0396
 3004TIP3   OH2 9017   1.965   2.115   2.492  0.1007 -0.0558 -0.5657
 3004TIP3    H1 9018   1.946   2.022   2.501 -1.7957  0.2408 -1.0698
 3004TIP3    H2 9019   1.902   2.146   2.427  1.5789  1.3229 -1.4148
 3005TIP3   OH2 9020   0.235   5.255   0.759 -0.5326  0.5023 -0.3503
 3005TIP3    H1 9021   0.328   5.235   0.768 -0.9405 -1.5461 -0.3107
 3005TIP3    H2 9022   0.190   5.174   0.782 -2.4277  1.9391  1.3940
 3006TIP3   OH2 9023   3.215   1.669   2.300  0.0491  0.1462  0.3905
 3006TIP3    H1 9024   3.192   1.588   2.256  0.2715 -0.1610  0.8318
 3006TIP3    H2 9025   3.310   1.665   2.309  0.0414  0.3725  0.5769
 3007TIP3   OH2 9026   3.945   4.946   1.497  0.4896  0.7045  0.4296
 3007TIP3    H1 9027   3.893   4.933   1.417  2.2219  0.3830 -0.7052
 3007TIP3    H2 9028   3.953   4.859   1.535  1.6548  0.4152 -0.3963
 3008TIP3   OH2 9029   4.141   2.605   3.330  0.0796 -0.2210 -0.0344
 3008TIP3    H1 9030   4.127   2.588   3.237  0.6030 -2.5221  0.2517
 3008TIP3    H2 9031   4.107   2.527   3.375  3.5608 -1.1262  1.3838
 3009TIP3   OH2 9032   2.751   4.778   1.338 -0.1526 -0.5481  0.3131
 3009TIP3    H1 9033   2.825   4.731   1.377  0.5094 -0.7089 -1.0578
 3009TIP3    H2 9034   2.771   4.778   1.244 -1.3426  0.4035  0.0494
 3010TIP3   OH2 9035   6.124   3.637   5.043 -0.1400 -0.3525 -0.2234
 3010TIP3    H1 9036   6.122   3.725   5.006 -1.5022 -0.7155 -1.1069
 3010TIP3    H2 9037   6.209   3.602   5.018 -0.1488  0.2183 -1.0965
 3011TIP3   OH2 9038   2.240   3.202   3.789 -0.2329 -0.1348 -0.4250
 3011TIP3    H1 9039   2.209   3.245   3.709  1.4528 -0.5654 -1.3633
 3011TIP3    H2 9040   2.333   3.186   3.773  0.2651  0.1593  1.8156
 3012TIP3   OH2 9041   2.208   3.493   0.659  0.0662 -0.3049 -0.1584
 3012TIP3    H1 9042   2.125   3.460   0.624 -1.3530  2.0448  0.7823
 3012TIP3    H2 9043   2.261   3.510   0.581 -0.4726 -1.3920 -0.7972
 3013TIP3   OH2 9044   3.945   4.662   3.465 -0.4392  0.3048  0.1043
 3013TIP3    H1 9045   3.854   4.658   3.434 -0.3093 -0.3417 -0.2013
 3013TIP3    H2 9046   3.997   4.680   3.387 -0.1799 -0.6335  0.0496
 3014TIP3   OH2 9047   0.536   4.352   0.391  0.0613  0.1850  0.1314
 3014TIP3    H1 9048   0.570   4.363   0.302 -1.2330 -0.8587 -0.5260
 3014TIP3    H2 9049   0.513   4.440   0.419  1.2187  0.6335 -0.2408
 3015TIP3   OH2 9050   5.071   5.091   1.945 -0.1624  0.0102 -0.1940
 3015TIP3    H1 9051   5.137   5.157   1.924 -1.4057  0.6071 -2.6050
 3015TIP3    H2 9052   5.013   5.134   2.008  0.1753  0.4733 -0.1933
 3016TIP3   OH2 9053   3.609   3.023   3.576  0.3975  0.0689 -0.2423
 3016TIP3    H1 9054   3.544   2.956   3.556  1.1257 -0.2819 -1.5082
 3016TIP3    H2 9055   3.582   3.058   3.661 -2.6823  1.4593 -1.6672
 3017TIP3   OH2 9056   1.332   4.352   2.020  0.0714 -0.3397 -0.3120
 3017TIP3    H1 9057   1.376   4.429   1.985 -1.1668  1.0981  1.1652
 3017TIP3    H2 9058   1.401   4.305   2.067  0.3590  1.1415  0.7994
 3018TIP3   OH2 9059   2.528   1.833   3.500 -0.7778 -0.2022  0.5560
 3018TIP3    H1 9060   2.490   1.880   3.426 -0.7856 -1.1297 -0.0446
 3018TIP3    H2 9061   2.590   1.772   3.461  1.6898  1.5300  1.5248
 3019TIP3   OH2 9062   3.794   1.692   4.339 -0.4958  0.3500 -0.2516
 3019TIP3    H1 9063   3.730   1.706   4.269 -0.5230  0.4902 -0.1983
 3019TIP3    H2 9064   3.820   1.600   4.329 -1.1817  0.1061  0.1272
 3020TIP3   OH2 9065   5.296   3.510   1.750 -0.0601 -0.1548  0.8093
 3020TIP3    H1 9066   5.286   3.421   1.717 -0.5563  0.1454  0.1009
 3020TIP3    H2 9067   5.235   3.562   1.696 -0.0907  0.5370  1.4927
 3021TIP3   OH2 9068   1.034   4.120   2.722  0.1981 -0.3515  0.1270
 3021TIP3    H1 9069   1.117   4.165   2.706 -0.2883  0.5529  0.0887
 3021TIP3    H2 9070   1.021   4.066   2.644 -0.4900  1.4566 -1.0593
 3022TIP3   OH2 9071   5.860   2.179   4.391 -0.1829  0.0511  0.3188
 3022TIP3    H1 9072   5.839   2.260   4.437 -2.5556  1.0951 -2.3335
 3022TIP3    H2 9073   5.892   2.207   4.305 -0.5426 -1.7977 -0.4865
 3023TIP3   OH2 9074   4.668   2.796   1.537 -0.2509 -0.2034 -0.7520
 3023TIP3    H1 9075   4.755   2.834   1.523  0.1613 -0.6827  0.3377
 3023TIP3    H2 9076   4.612   2.840   1.474  1.0014 -0.7072 -2.2996
 3024TIP3   OH2 9077   5.097   2.624   2.780  0.3435  0.3902  0.2862
 3024TIP3    H1 9078   5.179   2.624   2.830 -1.1492 -1.4463  3.0316
 3024TIP3    H2 9079   5.103   2.545   2.726  0.8168  0.8596 -0.3575
 3025TIP3   OH2 9080   0.542   2.974   4.269  0.3070 -0.2580 -0.0837
 3025TIP3    H1 9081   0.616   3.035   4.262  0.5521 -0.6703 -1.1745
 3025TIP3    H2 9082   0.576   2.902   4.323  0.9512 -0.7753 -1.1382
 3026TIP3   OH2 9083   4.388   3.941   2.338 -0.4248  0.5270 -0.1266
 3026TIP3    H1 9084   4.354   3.883   2.405 -0.9645  0.4218 -0.4807
 3026TIP3    H2 9085   4.332   3.924   2.261  0.3336  0.4596 -0.6788
 3027TIP3   OH2 9086   0.315   5.940   4.122  0.0027 -0.0301  0.2448
 3027TIP3    H1 9087   0.223   5.950   4.149  0.1742  0.3007  0.7209
 3027TIP3    H2 9088   0.346   6.030   4.110 -0.4919 -0.1453 -2.5936
 3028TIP3   OH2 9089   3.629   4.955   2.786 -0.1191  0.5395  0.3580
 3028TIP3    H1 9090   3.582   5.012   2.726 -0.5562  0.2198  0.3969
 3028TIP3    H2 9091   3.662   4.884   2.731 -1.1979 -0.1810  0.6106
 3029TIP3   OH2 9092   1.590   0.035   2.872 -0.5281  0.1122 -0.0101
 3029TIP3    H1 9093   1.533   0.020   2.947  0.7250 -1.2040  0.7196
 3029TIP3    H2 9094   1.572  -0.038   2.813 -0.3681  0.2860 -0.2758
 3030TIP3   OH2 9095   3.361   1.662   0.657 -0.0441 -0.1086  0.3136
 3030TIP3    H1 9096   3.423   1.589   0.652 -0.6698 -0.5619 -2.6336
 3030TIP3    H2 9097   3.323   1.656   0.744  1.1318 -2.2765  0.7397
 3031TIP3   OH2 9098   6.089   4.292   2.999  0.0491 -0.7175  0.5429
 3031TIP3    H1 9099   6.001   4.323   2.977  0.3048  0.4497  1.0763
 3031TIP3    H2 9100   6.077   4.202   3.028 -1.0677 -0.3618  1.2299
 3032TIP3   OH2 9101   5.242   3.398   2.366 -0.2564  0.7840 -0.1555
 3032TIP3    H1 9102   5.300   3.351   2.305 -1.1120  1.4194 -1.5212
 3032TIP3    H2 9103   5.156   3.361   2.349 -0.5092  0.9810  0.6956
 3033TIP3   OH2 9104   3.834   5.222   1.477  0.1827  0.0995  0.2142
 3033TIP3    H1 9105   3.871   5.165   1.544  3.0926  0.9401 -0.5254
 3033TIP3    H2 9106   3.804   5.299   1.525  0.8406  0.0531  0.7143
 3034TIP3   OH2 9107   2.430   5.633   4.355 -0.4764 -0.1871  0.1861
 3034TIP3    H1 9108   2.340   5.656   4.378 -0.2321  0.5402  0.4131
 3034TIP3    H2 9109   2.474   5.622   4.439 -0.2884 -0.2953  0.0733
 3035TIP3   OH2 9110   4.081   5.663   1.503  0.1061  0.1531 -0.3881
 3035TIP3    H1 9111   4.071   5.707   1.587  0.9134 -1.3156  0.5163
 3035TIP3    H2 9112   4.164   5.616   1.510  0.3936  0.3315 -2.1790
 3036TIP3   OH2 9113   5.670   5.795   4.689 -0.2472 -0.5973  0.4430
 3036TIP3    H1 9114   5.680   5.837   4.603  0.7062 -2.1634 -0.2419
 3036TIP3    H2 9115   5.581   5.818   4.716 -0.5658 -0.0621 -0.9520
 3037TIP3   OH2 9116   4.731   1.568   4.736  0.3640 -0.0904 -0.1301
 3037TIP3    H1 9117   4.702   1.538   4.822  1.8519 -1.8835 -0.1862
 3037TIP3    H2 9118   4.825   1.584   4.747 -0.0945  3.9059 -0.3762
 3038TIP3   OH2 9119   6.172   3.749   3.085 -0.2105  0.5037  0.0720
 3038TIP3    H1 9120   6.253   3.711   3.050  0.3892  1.9346 -0.1603
 3038TIP3    H2 9121   6.142   3.685   3.150  0.0247 -0.9999 -1.2189
 3039TIP3   OH2 9122   2.827   2.767   1.266  0.0948 -0.3197 -0.3760
 3039TIP3    H1 9123   2.871   2.698   1.216 -1.5034 -0.1640 -2.0973
 3039TIP3    H2 9124   2.867   2.848   1.236  0.7035 -0.3498  0.3124
 3040TIP3   OH2 9125   3.660   5.885   1.192 -0.6448 -0.1427 -0.2299
 3040TIP3    H1 9126   3.665   5.974   1.157  0.3069  0.0064  0.2621
 3040TIP3    H2 9127   3.640   5.897   1.285  2.2893 -0.2688  0.5186
 3041TIP3   OH2 9128   2.128   2.839   1.045  0.0312  0.6660  0.0209
 3041TIP3    H1 9129   2.114   2.761   0.991  0.1021  0.7634 -0.1410
 3041TIP3    H2 9130   2.071   2.905   1.005 -1.1725  0.2913  1.0609
 3042TIP3   OH2 9131   4.797   3.118   0.391  0.0555  0.4382  0.1717
 3042TIP3    H1 9132   4.863   3.051   0.374  0.3532  0.8082 -0.1638
 3042TIP3    H2 9133   4.753   3.130   0.307 -0.9826 -0.3759  0.5869
 3043TIP3   OH2 9134   0.249   3.516   2.577  0.0383 -0.2542 -0.6553
 3043TIP3    H1 9135   0.308   3.546   2.508  1.4142 -1.0503  0.1209
 3043TIP3    H2 9136   0.282   3.430   2.602 -1.0079 -0.4026  0.3285
 3044TIP3   OH2 9137   6.196   3.022   3.654  0.2447  0.0454  0.2339
 3044TIP3    H1 9138   6.232   2.962   3.589 -0.3166 -0.2485  0.1977
 3044TIP3    H2 9139   6.198   3.108   3.611 -0.4409 -0.2012 -0.2964
 3045TIP3   OH2 9140   2.474   1.193   1.666 -0.7266  0.2384 -0.1217
 3045TIP3    H1 9141   2.504   1.266   1.610 -1.5037  0.8406  0.2250
 3045TIP3    H2 9142   2.405   1.232   1.720 -1.2309 -0.7900 -0.0051
 3046TIP3   OH2 9143   0.356   2.277   0.715  0.2250  0.3838  0.1328
 3046TIP3    H1 9144   0.294   2.345   0.688 -1.3156 -0.5844  1.0945
 3046TIP3    H2 9145   0.329   2.253   0.803  0.4822 -1.7312 -0.3070
 3047TIP3   OH2 9146   3.969   5.304   4.115 -0.2399 -0.2287 -0.3238
 3047TIP3    H1 9147   3.884   5.295   4.071 -0.6738  1.9973 -0.0269
 3047TIP3    H2 9148   4.026   5.342   4.049 -0.2218  0.8008  0.2698
 3048TIP3   OH2 9149   3.004   3.350   1.931 -0.1950  0.0845  0.0829
 3048TIP3    H1 9150   3.011   3.354   2.027  0.9641 -0.3543  0.0321
 3048TIP3    H2 9151   3.046   3.267   1.907  0.2356  0.5647 -0.8690
 3049TIP3   OH2 9152   2.788   1.952   4.499  0.1125 -0.4577 -0.5701
 3049TIP3    H1 9153   2.714   2.002   4.462  0.0159 -1.6947 -2.1266
 3049TIP3    H2 9154   2.815   1.893   4.429  1.4446 -1.2870  0.5902
 3050TIP3   OH2 9155   4.623   2.072   5.082  0.4124 -1.0735 -0.2463
 3050TIP3    H1 9156   4.534   2.062   5.051 -0.5487  0.7280  1.6739
 3050TIP3    H2 9157   4.666   2.126   5.015 -0.4967 -0.4033 -0.3095
 3051TIP3   OH2 9158   2.488   1.756   1.400 -0.5853 -0.0111 -0.3430
 3051TIP3    H1 9159   2.473   1.846   1.373 -0.0277  0.2547  0.1891
 3051TIP3    H2 9160   2.500   1.762   1.495 -0.3090 -0.6091 -0.3374
 3052TIP3   OH2 9161   5.642   4.589   0.687 -0.1676 -0.3868 -0.2114
 3052TIP3    H1 9162   5.639   4.496   0.712 -0.8723 -0.3876 -0.2960
 3052TIP3    H2 9163   5.583   4.632   0.749  0.3868  0.0546  0.0178
 3053TIP3   OH2 9164   3.436   1.811   3.760  0.0327 -0.2261 -0.2651
 3053TIP3    H1 9165   3.497   1.740   3.741  0.6986 -1.0425  3.9411
 3053TIP3    H2 9166   3.351   1.768   3.770 -0.3370  0.1987 -1.4611
 3054TIP3   OH2 9167   4.459   4.730   1.700  0.3179 -0.1531 -0.3047
 3054TIP3    H1 9168   4.443   4.722   1.794 -2.6255 -1.3016 -0.8007
 3054TIP3    H2 9169   4.462   4.640   1.668 -1.7126  0.1871 -1.6651
 3055TIP3   OH2 9170   5.175   3.778   4.333  0.0282  0.0240  1.0705
 3055TIP3    H1 9171   5.257   3.798   4.290 -1.0408 -0.0518 -1.1699
 3055TIP3    H2 9172   5.194   3.701   4.388  1.1732 -0.8104 -0.4294
 3056TIP3   OH2 9173   6.012   2.529   2.664 -0.2410 -0.6707  0.2240
 3056TIP3    H1 9174   5.945   2.574   2.715  1.6099  0.9478  1.3920
 3056TIP3    H2 9175   6.094   2.548   2.710  1.3135 -0.6461 -2.3533
 3057TIP3   OH2 9176   4.793   5.651   1.669 -0.0559  0.0907  0.6913
 3057TIP3    H1 9177   4.798   5.643   1.574 -1.4320 -0.3621  0.6429
 3057TIP3    H2 9178   4.798   5.562   1.701 -1.5673  0.0632  0.9149
 3058TIP3   OH2 9179   5.020   2.995   4.557 -0.3127  0.3644 -0.0427
 3058TIP3    H1 9180   4.931   2.959   4.564 -0.4984  0.9057  0.4556
 3058TIP3    H2 9181   5.071   2.945   4.620  1.2840 -4.3160 -4.3895
 3059TIP3   OH2 9182   2.265   2.735   0.555  0.1681 -0.3662  0.1399
 3059TIP3    H1 9183   2.172   2.754   0.542 -0.0276  0.3365  2.1764
 3059TIP3    H2 9184   2.267   2.671   0.626  1.2574  0.6612  1.0838
 3060TIP3   OH2 9185   1.055   2.328   1.916 -0.1213  0.4039 -0.1338
 3060TIP3    H1 9186   1.122   2.324   1.984  0.7998  0.7533 -0.9916
 3060TIP3    H2 9187   1.055   2.419   1.887 -2.1434  0.8115  0.9594
 3061TIP3   OH2 9188   1.966   0.472   1.773 -0.3185  0.2527  0.2970
 3061TIP3    H1 9189   1.889   0.477   1.829  0.1570  3.2878  0.8805
 3061TIP3    H2 9190   1.933   0.487   1.685 -0.5862 -0.1873  0.3216
 3062TIP3   OH2 9191   0.244   0.716   2.641  0.8199  0.3438 -0.0660
 3062TIP3    H1 9192   0.261   0.811   2.640 -0.1468  0.5699  1.2693
 3062TIP3    H2 9193   0.151   0.709   2.666  1.1013 -0.9599  0.7137
 3063TIP3   OH2 9194   0.029   5.783   2.460 -0.2892 -0.3614  0.1181
 3063TIP3    H1 9195   0.102   5.731   2.495  1.4879  2.4969  1.0170
 3063TIP3    H2 9196  -0.023   5.805   2.537  0.2565  0.9980  0.1224
 3064TIP3   OH2 9197   5.460   0.298   0.155 -0.4045 -0.0098  0.0298
 3064TIP3    H1 9198   5.462   0.206   0.180  2.3823  0.0137  0.1527
 3064TIP3    H2 9199   5.406   0.299   0.076  0.1066 -1.8786 -0.4045
 3065TIP3   OH2 9200   2.733   0.496   4.075  0.2080  0.4969 -0.0333
 3065TIP3    H1 9201   2.659   0.551   4.050  0.9546  2.1694  1.2235
 3065TIP3    H2 9202   2.704   0.451   4.154 -0.3598 -0.8998 -0.9956
 3066TIP3   OH2 9203   5.059   0.240   2.018  0.0146 -0.2444  0.1369
 3066TIP3    H1 9204   4.994   0.199   2.075 -1.5086 -0.7001 -1.7966
 3066TIP3    H2 9205   5.010   0.310   1.974  0.7455 -0.7065 -1.4961
 3067TIP3   OH2 9206   4.587   1.061   3.537  0.2091 -0.0492  0.3091
 3067TIP3    H1 9207   4.646   1.122   3.494 -0.8564  1.2371  0.6071
 3067TIP3    H2 9208   4.626   1.049   3.624  1.1569 -0.9124 -0.2027
 3068TIP3   OH2 9209   4.255   3.709   1.400  0.1572  0.3471  0.4521
 3068TIP3    H1 9210   4.297   3.782   1.446 -1.2822  1.6616 -0.2124
 3068TIP3    H2 9211   4.162   3.733   1.398 -0.1616 -0.8915 -0.9243
 3069TIP3   OH2 9212   4.037   2.093   4.468  0.0094 -0.5442  0.5120
 3069TIP3    H1 9213   4.014   2.040   4.545  1.3691  0.2561  1.5229
 3069TIP3    H2 9214   3.965   2.155   4.459 -0.1178 -0.5815  1.2161
 3070TIP3   OH2 9215   2.873   0.858   1.765 -0.2840  0.2244 -0.5010
 3070TIP3    H1 9216   2.952   0.816   1.798 -0.9354  0.4918  1.5224
 3070TIP3    H2 9217   2.803   0.796   1.782 -0.7151  0.5620 -0.9956
 3071TIP3   OH2 9218   4.241   2.404   3.782  0.1542  0.0728 -0.4514
 3071TIP3    H1 9219   4.218   2.324   3.829  1.9442 -0.1287  0.1668
 3071TIP3    H2 9220   4.166   2.420   3.724  0.6346 -3.3264 -2.3007
 3072TIP3   OH2 9221  -0.013   2.083   0.203  0.0496 -0.1305 -0.0630
 3072TIP3    H1 9222  -0.029   1.997   0.164  0.7043  0.0217 -0.6941
 3072TIP3    H2 9223   0.082   2.085   0.217 -0.0663  0.1785  0.6962
 3073TIP3   OH2 9224   3.662   4.682   5.101 -0.2441  0.2392 -0.0448
 3073TIP3    H1 9225   3.581   4.649   5.062 -0.3937  1.1009 -0.4753
 3073TIP3    H2 9226   3.721   4.607   5.100 -0.1592  0.2883 -2.1439
 3074TIP3   OH2 9227   4.812   2.816   4.513 -0.5379  0.1556  0.2117
 3074TIP3    H1 9228   4.766   2.783   4.589  1.0849  0.2081  1.2669
 3074TIP3    H2 9229   4.852   2.739   4.473 -1.1505  0.1648 -0.4286
 3075TIP3   OH2 9230   1.401   3.286   3.623  0.2019 -0.4039 -0.4380
 3075TIP3    H1 9231   1.375   3.287   3.715  0.2558 -0.0145 -0.4243
 3075TIP3    H2 9232   1.439   3.373   3.608  1.3427 -0.9026 -0.5035
 3076TIP3   OH2 9233   4.337   3.946   0.586  0.1731 -0.3713  0.4495
 3076TIP3    H1 9234   4.380   3.865   0.558 -2.3574 -2.2762  1.6493
 3076TIP3    H2 9235   4.244   3.928   0.574 -0.5421  1.8454  2.1415
 3077TIP3   OH2 9236   4.163   3.617   1.701 -0.0492  0.1044  0.3261
 3077TIP3    H1 9237   4.077   3.654   1.718 -0.3012 -1.1876  2.3059
 3077TIP3    H2 9238   4.164   3.599   1.607 -1.7867  0.5117  0.1992
 3078TIP3   OH2 9239   5.623   2.775   3.980 -0.2013  0.1505 -0.2639
 3078TIP3    H1 9240   5.663   2.820   4.054 -1.0053  2.6585 -1.2402
 3078TIP3    H2 9241   5.555   2.719   4.018 -1.0450  1.8845  0.8712
 3079TIP3   OH2 9242   1.170   2.499   3.547 -0.7181 -0.7045 -0.3458
 3079TIP3    H1 9243   1.110   2.495   3.621  0.7358  1.1799  1.0540
 3079TIP3    H2 9244   1.153   2.585   3.508 -0.9197 -1.3615 -1.7367
 3080TIP3   OH2 9245   5.982   0.501   2.412 -0.4049 -0.1403 -0.4016
 3080TIP3    H1 9246   5.944   0.416   2.430 -0.0010 -0.2245  0.0700
 3080TIP3    H2 9247   5.941   0.529   2.330  0.4763 -1.4115 -1.3305
 3081TIP3   OH2 9248   0.656   5.187   1.199  0.3270 -0.3798 -0.0638
 3081TIP3    H1 9249   0.597   5.246   1.246  0.1554 -1.2087  0.7955
 3081TIP3    H2 9250   0.651   5.105   1.247  1.3007 -0.8115 -0.6640
 3082TIP3   OH2 9251   0.434   4.618   3.483 -0.3768 -0.3137 -0.0446
 3082TIP3    H1 9252   0.491   4.548   3.516 -0.6943  0.3782  2.1091
 3082TIP3    H2 9253   0.365   4.625   3.549 -2.0473  0.0058 -1.7549
 3083TIP3   OH2 9254   3.116   0.542   0.580  0.0394  0.3626 -0.6795
 3083TIP3    H1 9255   3.125   0.446   0.578 -0.9012  0.2737 -2.3265
 3083TIP3    H2 9256   3.028   0.557   0.615 -0.4391  0.5482 -1.9204
 3084TIP3   OH2 9257   3.024   4.297   4.612  0.7291 -0.2851  0.4109
 3084TIP3    H1 9258   3.067   4.277   4.528 -0.0344  1.6109 -0.4782
 3084TIP3    H2 9259   2.931   4.285   4.594  0.6226 -0.8751  1.3101
 3085TIP3   OH2 9260   2.600   4.244   2.974  0.1574 -0.0091  0.1225
 3085TIP3    H1 9261   2.509   4.273   2.962  0.1731 -0.9570 -3.5114
 3085TIP3    H2 9262   2.594   4.169   3.033 -1.1846  0.8947  1.1865
 3086TIP3   OH2 9263   2.903   3.156   0.571 -0.7106  0.0705  0.0395
 3086TIP3    H1 9264   2.967   3.127   0.636 -0.9837  0.2264  0.3844
 3086TIP3    H2 9265   2.845   3.081   0.558 -0.2114 -0.2181 -0.5951
 3087TIP3   OH2 9266   3.495   4.470   4.224 -0.2539 -0.7624 -0.0422
 3087TIP3    H1 9267   3.513   4.376   4.224 -0.3601 -0.8072 -1.6955
 3087TIP3    H2 9268   3.482   4.492   4.132 -0.9458  0.7437  0.3853
 3088TIP3   OH2 9269   2.094   5.538   3.885  0.1270 -0.3968 -0.0287
 3088TIP3    H1 9270   2.118   5.505   3.799  2.6202  0.3308  0.2887
 3088TIP3    H2 9271   2.026   5.603   3.868  0.6869 -0.1546 -1.4868
 3089TIP3   OH2 9272   5.056   2.937   0.912  0.3988  0.0825 -0.9063
 3089TIP3    H1 9273   5.052   3.021   0.867  0.6062  0.0423 -0.9997
 3089TIP3    H2 9274   5.149   2.919   0.922  0.3635 -0.6149 -1.7709
 3090TIP3   OH2 9275   4.104   3.286   2.433 -0.0962 -0.0677  0.1436
 3090TIP3    H1 9276   4.075   3.205   2.390 -0.9111 -0.5216  1.4622
 3090TIP3    H2 9277   4.022   3.329   2.459  0.3551  0.2733  1.0401
 3091TIP3   OH2 9278   5.170   3.235   1.709 -0.2000  0.3605  0.0478
 3091TIP3    H1 9279   5.132   3.227   1.796 -1.5728  0.3702 -0.5293
 3091TIP3    H2 9280   5.207   3.149   1.691  0.4120  0.4635  0.7715
 3092TIP3   OH2 9281   5.869   2.781   3.829  0.1320 -0.3768 -0.1339
 3092TIP3    H1 9282   5.937   2.800   3.894  0.2077  1.8145 -0.7646
 3092TIP3    H2 9283   5.788   2.779   3.879  0.2138  1.0981  0.1135
 3093TIP3   OH2 9284   1.989   4.201   3.137  0.0680 -0.0777  0.3833
 3093TIP3    H1 9285   2.019   4.286   3.169  0.4824 -0.1802  0.2770
 3093TIP3    H2 9286   2.062   4.142   3.155  0.7724  0.0664 -1.7042
 3094TIP3   OH2 9287   2.437   0.151   2.955  0.5808  0.1991 -0.3733
 3094TIP3    H1 9288   2.483   0.077   2.996  1.5323  0.5954 -0.6873
 3094TIP3    H2 9289   2.456   0.141   2.861  0.4745  0.6813 -0.4445
 3095TIP3   OH2 9290   2.657   3.642   4.531 -0.2705  0.1092 -0.1205
 3095TIP3    H1 9291   2.643   3.711   4.466 -0.9671  0.8658  0.8024
 3095TIP3    H2 9292   2.569   3.606   4.547 -0.1437  0.0996  0.5769
 3096TIP3   OH2 9293   6.030   1.420   2.948  0.3905 -0.3297 -0.1369
 3096TIP3    H1 9294   5.983   1.442   2.868  1.2643  1.8249 -0.1240
 3096TIP3    H2 9295   6.121   1.406   2.920  0.7517  0.6793  0.4765
 3097TIP3   OH2 9296   4.151   4.013   2.797  0.0439 -0.5584  0.1954
 3097TIP3    H1 9297   4.081   4.042   2.739  0.7422 -0.5598 -0.6814
 3097TIP3    H2 9298   4.133   3.920   2.812 -0.2829 -0.4969  0.1911
 3098TIP3   OH2 9299   2.827   5.391   2.613  0.0725  0.1813  0.5590
 3098TIP3    H1 9300   2.837   5.407   2.520  0.8984  0.5864  0.7066
 3098TIP3    H2 9301   2.748   5.439   2.638 -0.9229 -1.0290 -0.1724
 3099TIP3   OH2 9302   1.028   5.917   2.125  0.1982  0.3394 -0.0917
 3099TIP3    H1 9303   1.109   5.955   2.158  0.3201  0.7423 -0.8439
 3099TIP3    H2 9304   0.959   5.960   2.175  0.3684  1.1393 -0.5308
 3100TIP3   OH2 9305   3.765   1.792   3.148 -0.5415 -0.2133 -0.1039
 3100TIP3    H1 9306   3.741   1.720   3.091  0.6408 -1.7600  1.2666
 3100TIP3    H2 9307   3.682   1.821   3.186 -1.1426 -0.1557 -1.4101
 3101TIP3   OH2 9308   0.494   3.925   3.488  0.1071 -0.1375 -0.2627
 3101TIP3    H1 9309   0.480   3.943   3.582  1.4446 -0.1829 -0.0421
 3101TIP3    H2 9310   0.477   3.831   3.479  0.9565 -0.3416  0.1431
 3102TIP3   OH2 9311   1.581   1.033   0.425  0.4173  0.5347 -0.2139
 3102TIP3    H1 9312   1.628   1.012   0.345  1.4305 -0.2742  0.5682
 3102TIP3    H2 9313   1.601   0.961   0.485 -0.8103  0.8079  0.5728
 3103TIP3   OH2 9314   0.151   5.222   1.959 -0.3313  0.3629 -0.3679
 3103TIP3    H1 9315   0.114   5.266   2.036  2.8014 -0.1642  1.6452
 3103TIP3    H2 9316   0.139   5.128   1.977  1.5859  0.1827  0.2619
 3104TIP3   OH2 9317   4.011   5.629   0.852 -0.1063  0.2949  0.0585
 3104TIP3    H1 9318   3.926   5.648   0.810 -1.0500  0.1119  1.7998
 3104TIP3    H2 9319   4.010   5.680   0.933  1.3351  0.0568  0.2562
 3105TIP3   OH2 9320   5.864   4.928   3.553 -0.0550  0.2069 -0.3789
 3105TIP3    H1 9321   5.808   4.967   3.486 -2.0821  0.4772  1.3902
 3105TIP3    H2 9322   5.887   5.001   3.611  1.4670 -0.0711 -0.5771
 3106TIP3   OH2 9323   1.733   4.921   3.445  0.7665 -0.0551  0.0620
 3106TIP3    H1 9324   1.700   4.832   3.454  1.8804 -0.7242 -1.9358
 3106TIP3    H2 9325   1.779   4.939   3.527  3.0059 -2.4263 -0.5755
 3107TIP3   OH2 9326   1.637   3.351   0.380  0.0069 -0.5140  0.2199
 3107TIP3    H1 9327   1.639   3.417   0.311  2.1265 -0.9705 -0.2308
 3107TIP3    H2 9328   1.641   3.401   0.462  3.5329  0.0145 -0.1206
 3108TIP3   OH2 9329   0.174   1.913   3.458 -0.1345  0.8348  0.3769
 3108TIP3    H1 9330   0.177   1.956   3.373 -3.3764 -1.4429 -1.1201
 3108TIP3    H2 9331   0.123   1.973   3.513 -0.9669  0.8481 -0.3807
 3109TIP3   OH2 9332   1.796   5.770   5.021  0.1587 -0.7267  0.2333
 3109TIP3    H1 9333   1.833   5.713   5.089  1.3174  0.0349  0.2728
 3109TIP3    H2 9334   1.811   5.859   5.053 -0.2751 -0.3770 -0.5115
 3110TIP3   OH2 9335   1.924   2.765   3.670  0.1513 -0.5355  0.2300
 3110TIP3    H1 9336   2.005   2.816   3.666 -0.6095  0.6982  0.0482
 3110TIP3    H2 9337   1.861   2.815   3.619 -1.1905 -0.5957  1.7278
 3111TIP3   OH2 9338   1.121   3.094   1.747  0.2991  0.4863  0.0042
 3111TIP3    H1 9339   1.136   2.999   1.750  2.5953  0.7047 -1.8019
 3111TIP3    H2 9340   1.030   3.104   1.774  0.4588 -2.0542  1.9530
 3112TIP3   OH2 9341   5.539   5.686   1.372  0.2701  0.1438 -0.0640
 3112TIP3    H1 9342   5.509   5.642   1.292  1.2748 -0.5625 -0.0746
 3112TIP3    H2 9343   5.622   5.727   1.347 -0.7397  2.2981 -0.1134
 3113TIP3   OH2 9344   0.819   5.083   2.526 -0.4263 -0.0209  0.1498
 3113TIP3    H1 9345   0.908   5.046   2.525 -1.1129 -1.7447 -0.1642
 3113TIP3    H2 9346   0.770   5.025   2.583 -1.1188  1.5670  1.2148
 3114TIP3   OH2 9347   1.783   4.930   2.309 -0.2134  0.5674  0.1364
 3114TIP3    H1 9348   1.872   4.938   2.342 -0.0800  0.8971 -0.2846
 3114TIP3    H2 9349   1.728   4.970   2.377 -0.2656 -1.4174  1.3325
 3115TIP3   OH2 9350   3.286   4.507   2.182  0.2026 -0.0079  0.0877
 3115TIP3    H1 9351   3.216   4.477   2.241 -0.3372  0.6519 -0.2024
 3115TIP3    H2 9352   3.338   4.428   2.165  0.4108 -0.1996  1.4843
 3116TIP3   OH2 9353   4.345   4.098   5.094 -0.1076 -0.2037 -0.1492
 3116TIP3    H1 9354   4.258   4.122   5.063 -0.8388 -1.1704  1.0599
 3116TIP3    H2 9355   4.371   4.171   5.151 -0.3703 -0.1911 -0.0458
 3117TIP3   OH2 9356   6.283   5.165   1.651 -0.0063 -0.2030 -0.1866
 3117TIP3    H1 9357   6.306   5.103   1.582  0.3178 -0.2954 -0.0008
 3117TIP3    H2 9358   6.334   5.244   1.630 -0.6469  0.1119 -0.5913
 3118TIP3   OH2 9359   0.704   2.842   0.526 -0.1954  0.3798 -0.1197
 3118TIP3    H1 9360   0.674   2.933   0.527  0.8507  0.7602 -1.7170
 3118TIP3    H2 9361   0.788   2.844   0.571 -0.4297  0.0891  0.3405
 3119TIP3   OH2 9362   5.279   5.906   2.121  0.2652 -0.4235 -0.2165
 3119TIP3    H1 9363   5.358   5.859   2.094  0.0436 -1.4844  0.8504
 3119TIP3    H2 9364   5.304   5.950   2.203 -0.3568 -1.1836  0.4040
 3120TIP3   OH2 9365   3.691   1.172   2.429  0.2640  0.3297 -0.2105
 3120TIP3    H1 9366   3.616   1.204   2.379 -0.1627 -1.2815 -0.6343
 3120TIP3    H2 9367   3.701   1.237   2.500 -0.9405  1.0613 -0.6790
 3121TIP3   OH2 9368   3.884   1.025   1.517  0.3457 -0.1204 -0.0994
 3121TIP3    H1 9369   3.834   1.017   1.435  1.2171 -1.8740 -0.5077
 3121TIP3    H2 9370   3.975   1.022   1.489  0.6646 -1.4865  0.9641
 3122TIP3   OH2 9371   2.849   1.284   4.303 -0.3030 -0.2468  0.1554
 3122TIP3    H1 9372   2.817   1.365   4.264  0.8308 -0.2841 -0.9313
 3122TIP3    H2 9373   2.883   1.234   4.229  0.5076 -1.0153  1.0192
 3123TIP3   OH2 9374   4.260   5.249   2.862  0.7843  0.0886  0.3526
 3123TIP3    H1 9375   4.189   5.242   2.926 -0.6992  1.3682 -1.0585
 3123TIP3    H2 9376   4.236   5.188   2.792  1.0374  0.5609 -0.1613
 3124TIP3   OH2 9377   1.802   4.842   3.173 -0.6897  0.3070  0.5041
 3124TIP3    H1 9378   1.812   4.892   3.254  0.7501  0.0569  0.5026
 3124TIP3    H2 9379   1.844   4.895   3.106  0.8079 -0.8378  0.4967
 3125TIP3   OH2 9380   2.042   5.912   2.414 -0.0925 -0.2286 -0.1309
 3125TIP3    H1 9381   1.970   5.859   2.448  0.0140 -0.8782 -0.9091
 3125TIP3    H2 9382   2.113   5.850   2.397  0.0435  0.1567 -1.0280
 3126TIP3   OH2 9383   1.526   0.264   2.566 -0.5196 -0.8273  0.3561
 3126TIP3    H1 9384   1.495   0.342   2.520 -1.4155 -0.7386  1.0884
 3126TIP3    H2 9385   1.594   0.228   2.508 -2.4770 -1.4625 -1.7028
 3127TIP3   OH2 9386   1.606   3.962   3.524 -0.7352 -0.3300  0.2268
 3127TIP3    H1 9387   1.663   3.983   3.597  0.3669 -0.0780 -0.6792
 3127TIP3    H2 9388   1.523   3.935   3.565 -0.4816  0.7734  1.5305
 3128TIP3   OH2 9389   2.333   5.053   4.402 -0.2207 -0.0985 -0.2985
 3128TIP3    H1 9390   2.339   5.145   4.374 -2.7916  0.2737  0.1332
 3128TIP3    H2 9391   2.299   5.007   4.325 -1.3436 -0.2099  0.2491
 3129TIP3   OH2 9392   4.291   2.635   0.045  0.5775 -0.8181  0.6472
 3129TIP3    H1 9393   4.294   2.730   0.043  1.0818 -0.8341  0.5299
 3129TIP3    H2 9394   4.223   2.614   0.109 -2.2205 -0.3737 -1.9703
 3130TIP3   OH2 9395   4.764   2.938   2.245  0.8547 -0.4022  0.3751
 3130TIP3    H1 9396   4.836   2.944   2.308 -0.4360 -0.7015  1.9412
 3130TIP3    H2 9397   4.695   2.991   2.283  0.2569 -0.0579 -1.1456
 3131TIP3   OH2 9398   3.943   2.187   3.088 -0.2656  0.7400 -0.0667
 3131TIP3    H1 9399   3.956   2.092   3.093 -0.9001  0.6957  1.2856
 3131TIP3    H2 9400   3.898   2.209   3.170 -0.0038  2.2334 -0.2984
 3132TIP3   OH2 9401   5.229   5.767   0.917 -0.0189 -0.4937 -0.2811
 3132TIP3    H1 9402   5.203   5.753   0.826  0.5257 -0.0109 -0.5123
 3132TIP3    H2 9403   5.324   5.755   0.917  0.0263 -0.1412  0.1546
 3133TIP3   OH2 9404   1.634   0.121   4.818  0.0289  0.0120 -0.0042
 3133TIP3    H1 9405   1.600   0.072   4.743 -0.0343 -0.6495  0.4476
 3133TIP3    H2 9406   1.642   0.211   4.786 -1.4271  0.0446 -0.3615
 3134TIP3   OH2 9407   5.880   2.987   1.182  0.0765  0.4094 -0.0797
 3134TIP3    H1 9408   5.931   3.050   1.131  1.7620 -1.6816 -1.1524
 3134TIP3    H2 9409   5.801   2.971   1.130  0.0052  1.0508 -0.1703
 3135TIP3   OH2 9410   2.541   1.521   0.090  0.0132  0.0447 -0.3514
 3135TIP3    H1 9411   2.633   1.548   0.092  0.2320 -0.5963 -1.0423
 3135TIP3    H2 9412   2.509   1.551   0.005 -0.9064  1.7409  0.5529
 3136TIP3   OH2 9413   0.871   1.145   2.113  0.5905  0.0206 -0.3338
 3136TIP3    H1 9414   0.931   1.119   2.184  1.5572  1.7009 -0.4898
 3136TIP3    H2 9415   0.815   1.212   2.153  1.6309  1.5318 -1.2986
 3137TIP3   OH2 9416   0.839   1.227   2.746 -0.6121  0.7548 -0.2586
 3137TIP3    H1 9417   0.876   1.161   2.687 -3.1734 -0.9957 -0.0726
 3137TIP3    H2 9418   0.857   1.310   2.702  0.9707 -0.1809 -1.5196
 3138TIP3   OH2 9419   4.604   2.394   4.326  0.5757 -0.1806 -0.5269
 3138TIP3    H1 9420   4.631   2.460   4.390 -0.5942  1.1911 -1.3893
 3138TIP3    H2 9421   4.686   2.351   4.300  1.0561 -0.9520  2.0135
 3139TIP3   OH2 9422   4.515   3.825   4.346 -0.1661  0.1697 -0.5559
 3139TIP3    H1 9423   4.464   3.906   4.336  0.8840  0.8047 -0.8921
 3139TIP3    H2 9424   4.570   3.840   4.423  2.0986  0.9435 -2.2270
 3140TIP3   OH2 9425   1.999   2.501   3.707 -0.2420 -0.4486  0.2959
 3140TIP3    H1 9426   1.964   2.449   3.634 -0.5928 -1.9570  1.4686
 3140TIP3    H2 9427   1.962   2.588   3.694 -2.4451 -1.3309  0.0712
 3141TIP3   OH2 9428   2.806   3.896   3.862 -0.2101  0.0426  0.2711
 3141TIP3    H1 9429   2.830   3.875   3.772 -1.5303  1.1781 -0.3678
 3141TIP3    H2 9430   2.738   3.962   3.855 -1.6644 -1.1580  2.0691
 3142TIP3   OH2 9431   1.572   2.238   1.718 -0.3597 -0.0496  0.0762
 3142TIP3    H1 9432   1.483   2.273   1.709 -0.3686  0.2765  1.3564
 3142TIP3    H2 9433   1.621   2.281   1.648 -1.0161  0.3913 -0.1263
 3143TIP3   OH2 9434   2.350   5.875   1.606  0.4203  0.6244  0.2246
 3143TIP3    H1 9435   2.430   5.858   1.557 -0.4350 -2.1841 -0.4126
 3143TIP3    H2 9436   2.292   5.919   1.544  0.3019 -0.4550 -0.4562
 3144TIP3   OH2 9437   2.059   2.973   4.131 -0.0125  0.3000 -0.2344
 3144TIP3    H1 9438   1.969   2.996   4.109  0.1124 -0.4003 -1.6234
 3144TIP3    H2 9439   2.111   3.050   4.107  0.0757 -0.3241 -2.2404
 3145TIP3   OH2 9440   2.334   1.622   4.662 -0.7933  0.0365  0.4734
 3145TIP3    H1 9441   2.276   1.667   4.601 -1.5893 -1.0355  0.4040
 3145TIP3    H2 9442   2.276   1.586   4.728 -0.2800 -1.5017  0.1240
 3146TIP3   OH2 9443   5.760   3.834   3.708  0.6949  0.0823 -0.3540
 3146TIP3    H1 9444   5.730   3.755   3.663  1.7668 -1.5251  1.6193
 3146TIP3    H2 9445   5.698   3.902   3.679 -1.5202 -1.8763 -0.5830
 3147TIP3   OH2 9446   2.262   0.612   0.493  0.2225 -0.8164 -0.7010
 3147TIP3    H1 9447   2.235   0.659   0.572 -1.9571 -0.2662 -1.7140
 3147TIP3    H2 9448   2.357   0.626   0.488  0.2218  0.1315  1.1595
 3148TIP3   OH2 9449   4.994   0.199   3.802 -0.6434  0.2837 -0.0554
 3148TIP3    H1 9450   5.036   0.213   3.717 -0.5834  0.2400 -0.0331
 3148TIP3    H2 9451   5.032   0.117   3.834  0.3564  0.9908  0.6301
 3149TIP3   OH2 9452   6.108   4.859   1.573  0.0169 -0.7700 -0.0825
 3149TIP3    H1 9453   6.025   4.901   1.551 -0.6554 -1.4221  1.0745
 3149TIP3    H2 9454   6.171   4.893   1.509 -1.2824 -0.7762 -1.4092
 3150TIP3   OH2 9455   1.834   2.087   0.807 -0.1492 -0.4242 -0.3149
 3150TIP3    H1 9456   1.812   2.179   0.791  0.9078  0.2026  1.5664
 3150TIP3    H2 9457   1.906   2.090   0.870  0.9891 -2.5267 -1.4117
 3151TIP3   OH2 9458   3.011   2.889   2.333 -0.0418  0.1762 -0.2100
 3151TIP3    H1 9459   3.040   2.823   2.397 -1.0799 -0.1152 -0.0261
 3151TIP3    H2 9460   3.092   2.920   2.293  0.7853  1.2534  2.0936
 3152TIP3   OH2 9461   0.591   1.973   5.007 -0.4045 -0.0870  0.0978
 3152TIP3    H1 9462   0.640   1.938   5.081  0.4492  2.0301  0.6340
 3152TIP3    H2 9463   0.655   1.977   4.936 -1.1253 -1.7752 -0.6912
 3153TIP3   OH2 9464   5.688   4.379   0.380  0.0075  0.6731 -0.8286
 3153TIP3    H1 9465   5.675   4.285   0.374  0.1041  0.7105 -1.9907
 3153TIP3    H2 9466   5.723   4.393   0.468 -0.0520 -0.3630 -0.6240
 3154TIP3   OH2 9467   3.212   5.665   2.306 -0.3983  0.0626  0.4217
 3154TIP3    H1 9468   3.304   5.650   2.283 -0.7108 -0.1048 -0.7568
 3154TIP3    H2 9469   3.192   5.597   2.370  0.4586  0.4676  1.1464
 3155TIP3   OH2 9470   0.091   1.242   3.724  0.3131  0.2158  0.7234
 3155TIP3    H1 9471   0.110   1.154   3.757  2.9558  0.3133 -0.3385
 3155TIP3    H2 9472   0.078   1.230   3.630 -1.3945  0.7409  0.8417
 3156TIP3   OH2 9473   0.869   3.936   2.905 -0.3062  0.0536 -0.0431
 3156TIP3    H1 9474   0.808   3.969   2.840  0.9976  3.1361  0.1128
 3156TIP3    H2 9475   0.934   3.887   2.855 -0.5970  0.3837 -0.7430
 3157TIP3   OH2 9476   4.113   5.689   0.581 -0.1997 -0.0126  0.2610
 3157TIP3    H1 9477   4.056   5.704   0.656 -0.8336 -1.1332  0.0254
 3157TIP3    H2 9478   4.166   5.614   0.606  0.0047 -0.0143 -0.1698
 3158TIP3   OH2 9479   4.508   1.948   1.002 -0.0115 -0.2737  0.3040
 3158TIP3    H1 9480   4.475   1.913   1.085 -0.0110  0.3858  0.5913
 3158TIP3    H2 9481   4.599   1.973   1.022  0.0453 -0.2808  0.0536
 3159TIP3   OH2 9482   5.046   1.941   4.782  0.4469  0.1007 -0.5210
 3159TIP3    H1 9483   5.087   1.855   4.781  0.7487  0.2088  0.5663
 3159TIP3    H2 9484   4.952   1.924   4.784  0.5137 -0.2390  0.4036
 3160TIP3   OH2 9485   4.847   5.038   5.008  0.2299 -0.1778  0.4384
 3160TIP3    H1 9486   4.885   4.959   5.046  0.8629 -0.6006 -0.9935
 3160TIP3    H2 9487   4.920   5.080   4.962 -0.7022 -0.3264 -1.2761
 3161TIP3   OH2 9488   1.127   0.417   4.366  0.2902 -0.1836 -0.2380
 3161TIP3    H1 9489   1.108   0.471   4.443  0.4153  0.0104 -0.3423
 3161TIP3    H2 9490   1.112   0.327   4.396 -1.2285 -0.0239 -0.4396
 3162TIP3   OH2 9491   5.773   2.283   0.029  0.3230  0.2138 -0.2811
 3162TIP3    H1 9492   5.807   2.309  -0.057  0.3071  1.5455  0.0929
 3162TIP3    H2 9493   5.834   2.215   0.058 -0.3354 -1.1023 -1.8235
 3163TIP3   OH2 9494   4.028   2.740   1.721  0.2114  0.2272 -0.3235
 3163TIP3    H1 9495   4.075   2.795   1.659  1.0887  0.6326  0.6757
 3163TIP3    H2 9496   3.935   2.752   1.699  0.4917  0.5447 -1.3795
 3164TIP3   OH2 9497   1.623   5.736   4.659  0.3783 -0.2321 -0.0832
 3164TIP3    H1 9498   1.631   5.684   4.579 -1.1386 -0.3624 -0.1772
 3164TIP3    H2 9499   1.547   5.791   4.644  1.2397  1.1703  0.5093
 3165TIP3   OH2 9500   4.457   5.382   3.790  0.0577 -0.1388 -0.3859
 3165TIP3    H1 9501   4.407   5.397   3.710  1.4213  3.1342 -0.7789
 3165TIP3    H2 9502   4.535   5.335   3.762 -0.8682 -1.7130 -0.4175
 3166TIP3   OH2 9503   0.210   4.944   1.556  0.0241 -0.1029  0.4359
 3166TIP3    H1 9504   0.129   4.903   1.585 -0.7004  1.4220  0.6945
 3166TIP3    H2 9505   0.265   4.944   1.634  0.6395 -1.8910  0.0496
 3167TIP3   OH2 9506   3.852   0.067   4.452 -0.0429 -0.0110  0.3391
 3167TIP3    H1 9507   3.857   0.028   4.539  0.3881 -2.8821 -0.8375
 3167TIP3    H2 9508   3.832  -0.007   4.394 -2.6070  2.1232 -1.7703
 3168TIP3   OH2 9509   1.516   3.798   1.380  0.7108 -0.9670 -0.3471
 3168TIP3    H1 9510   1.426   3.767   1.390  0.4450 -0.1744 -0.2562
 3168TIP3    H2 9511   1.551   3.747   1.307 -0.1737 -0.4943 -1.1160
 3169TIP3   OH2 9512   6.048   2.767   1.768  0.3533 -0.2793  0.0067
 3169TIP3    H1 9513   6.110   2.730   1.830 -1.5393 -1.4474  1.3213
 3169TIP3    H2 9514   5.984   2.813   1.822 -0.0473  0.7096 -1.2596
 3170TIP3   OH2 9515   5.882   1.254   4.279  0.3660 -0.1068  0.2300
 3170TIP3    H1 9516   5.950   1.214   4.333  1.8169  0.0750 -1.3627
 3170TIP3    H2 9517   5.873   1.195   4.204 -2.2106 -0.8043  0.9836
 3171TIP3   OH2 9518   3.308   0.742   0.630 -0.2286 -1.1258 -0.3818
 3171TIP3    H1 9519   3.324   0.808   0.562  0.5428 -0.2585  0.6011
 3171TIP3    H2 9520   3.219   0.711   0.614 -1.2023  1.2648  0.0025
 3172TIP3   OH2 9521   4.486   5.381   2.934 -0.0162  0.6022 -0.2381
 3172TIP3    H1 9522   4.475   5.473   2.912 -1.4097  0.0218 -2.3592
 3172TIP3    H2 9523   4.404   5.340   2.906  1.0926 -1.4733 -0.6806
 3173TIP3   OH2 9524   5.795   1.864   0.902  0.0021  0.0683  0.5258
 3173TIP3    H1 9525   5.862   1.811   0.859 -0.8078 -0.3309 -0.2562
 3173TIP3    H2 9526   5.770   1.930   0.837 -0.6722 -0.0562  0.6503
 3174TIP3   OH2 9527   5.730   1.070   3.485 -0.3790 -0.1695 -0.3570
 3174TIP3    H1 9528   5.728   1.041   3.576  0.1116  2.8172  0.7112
 3174TIP3    H2 9529   5.637   1.080   3.461 -0.5236 -1.5393 -0.4186
 3175TIP3   OH2 9530   0.122   0.719   4.655 -0.3627  0.0387 -0.1543
 3175TIP3    H1 9531   0.034   0.683   4.650 -0.2738 -0.0865 -1.0819
 3175TIP3    H2 9532   0.145   0.739   4.564  0.7294 -0.3605  0.0125
 3176TIP3   OH2 9533   1.122   3.621   0.513  0.1832 -0.4750  0.2971
 3176TIP3    H1 9534   1.109   3.709   0.478  0.7877  0.2366  1.7833
 3176TIP3    H2 9535   1.100   3.628   0.606  1.7236 -1.5170  0.7814
 3177TIP3   OH2 9536   0.979   4.622   2.654  0.4912  0.2097  0.2604
 3177TIP3    H1 9537   0.968   4.714   2.679  0.0806  0.8936 -2.1447
 3177TIP3    H2 9538   0.893   4.597   2.620  0.3583 -1.3653  1.6451
 3178TIP3   OH2 9539   2.256   4.320   0.785  0.0564 -0.4117  0.0970
 3178TIP3    H1 9540   2.313   4.261   0.834  1.6878 -0.6416 -1.9245
 3178TIP3    H2 9541   2.310   4.398   0.771 -1.4731  0.9266  1.2727
 3179TIP3   OH2 9542   2.038   3.277   4.425  0.4054  0.0376  0.5119
 3179TIP3    H1 9543   2.074   3.280   4.514  1.0348 -0.8763  0.3067
 3179TIP3    H2 9544   2.049   3.186   4.399  0.9831  0.4702 -0.8178
 3180TIP3   OH2 9545   3.632   4.982   3.551  0.0090  0.3466 -0.4509
 3180TIP3    H1 9546   3.568   5.008   3.618 -1.0082 -0.7730 -0.9527
 3180TIP3    H2 9547   3.579   4.943   3.481  1.2970 -1.5209 -0.4598
 3181TIP3   OH2 9548   6.252   3.674   0.648  0.1270 -0.4822  0.2036
 3181TIP3    H1 9549   6.341   3.699   0.623 -0.1392  1.8439  1.2944
 3181TIP3    H2 9550   6.256   3.662   0.743 -0.9817  1.0808  0.4810
 3182TIP3   OH2 9551   4.176   2.160   3.883  0.1167 -0.0868  0.2215
 3182TIP3    H1 9552   4.091   2.142   3.924 -0.2407 -2.6102 -1.4384
 3182TIP3    H2 9553   4.209   2.074   3.856  2.3709  1.0141 -0.8100
 3183TIP3   OH2 9554   0.567   1.918   3.018  0.6389  0.8055  0.3994
 3183TIP3    H1 9555   0.548   1.833   3.058  0.8757  0.7354  0.3689
 3183TIP3    H2 9556   0.576   1.978   3.092  0.4709  0.8018  0.4211
 3184TIP3   OH2 9557   1.130   3.990   0.892 -0.2378 -0.0070 -0.1549
 3184TIP3    H1 9558   1.094   3.915   0.940 -0.2181 -0.1703 -0.3947
 3184TIP3    H2 9559   1.225   3.981   0.900 -0.2447  0.8250  1.0972
 3185TIP3   OH2 9560   3.208   3.246   4.248 -0.1437  0.4612  0.1200
 3185TIP3    H1 9561   3.301   3.228   4.262  0.0063  0.0532 -1.3328
 3185TIP3    H2 9562   3.166   3.160   4.248 -0.2827  0.5198 -0.8289
 3186TIP3   OH2 9563   3.917   5.149   2.410  0.1368 -0.0667  0.0072
 3186TIP3    H1 9564   3.847   5.178   2.468 -2.1730 -2.5473 -1.3140
 3186TIP3    H2 9565   3.983   5.113   2.469 -0.4127  0.8768  1.2386
 3187TIP3   OH2 9566   1.914   1.545   5.149 -0.1059 -0.3565  0.0398
 3187TIP3    H1 9567   1.839   1.603   5.147 -0.3849 -0.7101 -1.6022
 3187TIP3    H2 9568   1.990   1.602   5.136 -0.0195  0.0379  2.0008
 3188TIP3   OH2 9569   2.947   5.808   0.591 -0.2343 -0.0220  0.4040
 3188TIP3    H1 9570   2.959   5.818   0.685 -0.4792  0.3485  0.3996
 3188TIP3    H2 9571   3.018   5.751   0.563 -0.1135 -0.0660  0.8001
 3189TIP3   OH2 9572   4.139   1.604   2.163 -0.2863  1.0612  0.8596
 3189TIP3    H1 9573   4.079   1.533   2.141  0.0924 -0.0725  3.2296
 3189TIP3    H2 9574   4.086   1.683   2.153 -1.4802  0.2656  0.6182
 3190TIP3   OH2 9575   3.037   3.952   1.366  0.4159 -0.0764 -0.1817
 3190TIP3    H1 9576   3.116   3.942   1.312  1.5897 -2.3592  1.7643
 3190TIP3    H2 9577   3.071   3.970   1.454 -1.1891 -1.7623  0.8374
 3191TIP3   OH2 9578   0.658   4.450   3.270 -0.0997 -0.2857  0.0267
 3191TIP3    H1 9579   0.634   4.364   3.303 -1.0138 -0.7940 -1.8389
 3191TIP3    H2 9580   0.753   4.454   3.280  0.0393 -1.8158 -0.5219
 3192TIP3   OH2 9581   2.792   1.471   1.852 -0.1401  0.4276 -0.3432
 3192TIP3    H1 9582   2.800   1.447   1.760  1.3065  3.5976 -1.1647
 3192TIP3    H2 9583   2.711   1.521   1.858 -0.3075  0.1123  0.1601
 3193TIP3   OH2 9584   4.093   3.244   1.460 -0.1291  0.3211  0.5528
 3193TIP3    H1 9585   4.045   3.177   1.508 -0.9414  0.6489  0.2116
 3193TIP3    H2 9586   4.097   3.212   1.370  0.8300  0.0146  0.6863
 3194TIP3   OH2 9587   5.267   5.940   5.111 -0.7926 -0.8177 -0.2494
 3194TIP3    H1 9588   5.209   5.870   5.142  0.6727 -2.4250 -0.9580
 3194TIP3    H2 9589   5.353   5.898   5.105 -0.1175  0.7191 -1.9264
 3195TIP3   OH2 9590   3.884   0.923   3.335  0.2434 -0.2506 -0.3166
 3195TIP3    H1 9591   3.945   0.899   3.405 -0.7964  2.3095  1.6297
 3195TIP3    H2 9592   3.797   0.913   3.374 -0.6337 -2.4067 -2.5535
 3196TIP3   OH2 9593   1.414   3.609   3.304 -0.0993  0.2159  0.9303
 3196TIP3    H1 9594   1.365   3.676   3.351  0.3416 -0.5575  2.5396
 3196TIP3    H2 9595   1.483   3.583   3.364  2.5278  1.4334 -1.3266
 3197TIP3   OH2 9596   4.659   3.283   4.400  0.6363 -0.1435  1.0336
 3197TIP3    H1 9597   4.750   3.312   4.398  0.8530 -0.8546 -0.2176
 3197TIP3    H2 9598   4.609   3.360   4.370  1.0822 -0.5591 -0.8752
 3198TIP3   OH2 9599   0.662   3.249   2.401 -0.4991  0.0827  0.1068
 3198TIP3    H1 9600   0.662   3.266   2.495  0.7364 -1.2712  0.3912
 3198TIP3    H2 9601   0.728   3.309   2.365  0.8959 -1.1638  0.5070
 3199TIP3   OH2 9602   3.112   1.824   0.184  0.2878  0.2982  0.0504
 3199TIP3    H1 9603   3.109   1.735   0.218  0.4719  0.0660 -0.5332
 3199TIP3    H2 9604   3.085   1.879   0.258 -1.9459 -0.3971 -0.1831
 3200TIP3   OH2 9605   4.019   5.826   4.271 -0.0900  0.6711  0.0598
 3200TIP3    H1 9606   3.959   5.873   4.328 -0.0814  0.7277  0.0230
 3200TIP3    H2 9607   3.979   5.832   4.184 -0.5207 -0.1147  0.1933
 3201TIP3   OH2 9608   0.446   0.839   0.123 -0.0907 -0.3367 -0.1371
 3201TIP3    H1 9609   0.539   0.817   0.117  0.1074  0.0250  1.1874
 3201TIP3    H2 9610   0.442   0.934   0.109 -0.0435 -0.0898  1.3239
 3202TIP3   OH2 9611   0.104   5.927   2.810  0.3250  0.2515 -0.5141
 3202TIP3    H1 9612   0.080   6.019   2.801 -1.2478  0.0772  1.1054
 3202TIP3    H2 9613   0.044   5.880   2.752 -0.2718  0.1452  0.1593
 3203TIP3   OH2 9614   3.209   0.014   1.163  0.1268 -0.4401  0.0768
 3203TIP3    H1 9615   3.274   0.064   1.213  1.2608 -1.3765 -0.4211
 3203TIP3    H2 9616   3.153  -0.027   1.230 -0.7043  1.2806  0.4980
 3204TIP3   OH2 9617   0.674   4.857   1.665  0.4243 -0.1287  0.3644
 3204TIP3    H1 9618   0.668   4.798   1.740  2.3795 -1.9666 -0.8055
 3204TIP3    H2 9619   0.716   4.936   1.699 -0.7267 -0.0457  1.6321
 3205TIP3   OH2 9620   4.805   1.705   0.442 -0.0514 -0.1620  0.2706
 3205TIP3    H1 9621   4.731   1.732   0.496  0.0239  1.5484 -0.4072
 3205TIP3    H2 9622   4.879   1.756   0.474 -0.6365  3.3563 -3.2504
 3206TIP3   OH2 9623   5.178   4.720   5.019 -0.2188 -0.3933  0.2362
 3206TIP3    H1 9624   5.213   4.797   4.973 -0.3857 -1.5219 -1.8768
 3206TIP3    H2 9625   5.248   4.693   5.078  0.0096  1.1015  0.6888
 3207TIP3   OH2 9626   2.919   2.215   1.764 -0.2694 -0.2932  0.1825
 3207TIP3    H1 9627   2.902   2.280   1.695 -0.7375  0.6548  1.1558
 3207TIP3    H2 9628   2.841   2.160   1.765 -0.8649  0.5338  0.8411
 3208TIP3   OH2 9629   6.179   3.821   0.413  0.5103  0.6822  0.0282
 3208TIP3    H1 9630   6.199   3.797   0.504  2.9391 -1.8724 -1.0118
 3208TIP3    H2 9631   6.248   3.882   0.388  0.5195  0.4975 -0.4109
 3209TIP3   OH2 9632   4.509   0.845   0.688 -0.0704 -0.0627  0.1132
 3209TIP3    H1 9633   4.560   0.804   0.757  1.5357  0.9904 -0.3881
 3209TIP3    H2 9634   4.500   0.936   0.717 -1.8731 -0.2627  0.2797
 3210TIP3   OH2 9635   4.828   5.289   1.061  0.2632 -0.3149 -0.0066
 3210TIP3    H1 9636   4.904   5.240   1.030  1.3536  0.8560  0.7014
 3210TIP3    H2 9637   4.855   5.381   1.055 -2.4252  0.4931 -3.3163
 3211TIP3   OH2 9638   4.620   5.142   0.492 -0.4722  0.6200 -0.2758
 3211TIP3    H1 9639   4.556   5.145   0.562 -0.9175 -0.5258 -0.6125
 3211TIP3    H2 9640   4.569   5.119   0.414  0.1335  1.0818 -0.8160
 3212TIP3   OH2 9641   0.393   2.906   3.647  0.3089  0.0523 -0.0581
 3212TIP3    H1 9642   0.470   2.944   3.688 -0.0345 -0.1658  0.8136
 3212TIP3    H2 9643   0.333   2.888   3.720 -0.5662  0.2226 -0.7080
 3213TIP3   OH2 9644   3.023   2.209   4.360 -0.0378  0.1635  0.3315
 3213TIP3    H1 9645   3.117   2.216   4.377  0.0162 -0.0468  0.1338
 3213TIP3    H2 9646   3.018   2.180   4.269 -0.2804 -0.5623  0.5679
 3214TIP3   OH2 9647   6.304   5.536   0.128  0.0108  0.3193  0.6378
 3214TIP3    H1 9648   6.351   5.494   0.056  0.9948  0.7809  0.9952
 3214TIP3    H2 9649   6.324   5.482   0.204  0.1248  0.6201  0.8240
 3215TIP3   OH2 9650   2.097   1.383   3.069 -0.1592 -0.1172 -0.0739
 3215TIP3    H1 9651   2.033   1.314   3.087 -1.4463  0.4893 -1.9192
 3215TIP3    H2 9652   2.043   1.462   3.057  0.9530  0.4837 -1.3659
 3216TIP3   OH2 9653   0.331   3.502   3.415 -0.0775 -0.4714  0.0943
 3216TIP3    H1 9654   0.292   3.552   3.486  1.0844  2.0519 -0.8973
 3216TIP3    H2 9655   0.426   3.515   3.426  0.1730 -1.0607 -1.1684
 3217TIP3   OH2 9656   5.969   2.001   1.682  0.1357 -0.3540  0.3370
 3217TIP3    H1 9657   6.064   2.010   1.696  0.2275 -0.1204 -0.3769
 3217TIP3    H2 9658   5.936   2.090   1.687  0.0622 -0.3519 -0.1133
 3218TIP3   OH2 9659   0.324   2.330   4.122 -0.1389 -0.2392  0.2456
 3218TIP3    H1 9660   0.329   2.235   4.120 -1.7782 -0.3673  1.0732
 3218TIP3    H2 9661   0.403   2.357   4.169  1.5720 -0.9963 -1.9937
 3219TIP3   OH2 9662   2.960   4.919   4.909  0.4489 -0.3470 -0.2840
 3219TIP3    H1 9663   3.013   4.845   4.937 -0.4582 -1.5038 -1.5120
 3219TIP3    H2 9664   2.945   4.905   4.815 -0.7396  0.7479 -0.2962
 3220TIP3   OH2 9665   4.545   5.086   3.468 -0.4918 -0.4678  0.0856
 3220TIP3    H1 9666   4.498   5.009   3.438  0.9447 -1.5092  0.4102
 3220TIP3    H2 9667   4.634   5.076   3.434 -0.0660  0.6494  0.7807
 3221TIP3   OH2 9668   0.858   5.801   3.803 -0.2979 -0.0281 -0.1863
 3221TIP3    H1 9669   0.794   5.853   3.852 -0.8117 -0.3711 -0.4713
 3221TIP3    H2 9670   0.941   5.817   3.847 -0.7374 -0.2861  0.7760
 3222TIP3   OH2 9671   3.707   2.403   0.336 -0.8862 -0.2039 -0.4695
 3222TIP3    H1 9672   3.669   2.405   0.424  2.8886 -0.5378  1.3929
 3222TIP3    H2 9673   3.682   2.487   0.297 -0.4480  1.2281  2.0603
 3223TIP3   OH2 9674   0.657   4.690   2.714 -0.2271  0.0600 -0.7829
 3223TIP3    H1 9675   0.610   4.607   2.715 -0.6207  0.2720  0.2735
 3223TIP3    H2 9676   0.600   4.749   2.664  0.3006 -0.4241 -1.9832
 3224TIP3   OH2 9677   2.437   0.326   0.905 -0.4223 -0.0371 -0.1857
 3224TIP3    H1 9678   2.353   0.310   0.863 -0.1013 -1.6588 -0.2627
 3224TIP3    H2 9679   2.420   0.318   0.998 -0.6203  1.0746 -0.1074
 3225TIP3   OH2 9680   0.646   3.988   0.235  0.3162 -0.0957 -0.0127
 3225TIP3    H1 9681   0.609   3.978   0.148 -0.1939 -1.3820  0.3258
 3225TIP3    H2 9682   0.736   3.957   0.228  0.8782  1.5313 -0.4713
 3226TIP3   OH2 9683   5.214   2.100   3.105  0.3637 -0.0342  0.5184
 3226TIP3    H1 9684   5.167   2.183   3.100  1.7070  0.9346  2.8275
 3226TIP3    H2 9685   5.307   2.125   3.105  0.7891 -1.5266  1.3424
 3227TIP3   OH2 9686   3.431   5.302   5.055 -0.5018  0.8450 -0.3558
 3227TIP3    H1 9687   3.356   5.243   5.060 -0.5552  1.0040  2.9933
 3227TIP3    H2 9688   3.505   5.245   5.033 -1.0222  0.0507 -0.0816
 3228TIP3   OH2 9689   2.161   1.152   0.863  0.4711  0.1050  0.1901
 3228TIP3    H1 9690   2.248   1.191   0.860  1.6216 -1.7397  3.5769
 3228TIP3    H2 9691   2.177   1.058   0.856 -1.2772 -0.2472  0.5373
 3229TIP3   OH2 9692   4.465   1.282   0.096  0.1796  0.0334 -0.7912
 3229TIP3    H1 9693   4.442   1.191   0.113 -1.5444  0.8042  1.4318
 3229TIP3    H2 9694   4.414   1.305   0.018 -2.5592  0.1418  0.9074
 3230TIP3   OH2 9695   1.207   0.279   1.348  0.4277 -0.0715 -0.2631
 3230TIP3    H1 9696   1.132   0.224   1.323 -1.5146  1.8270  1.0299
 3230TIP3    H2 9697   1.210   0.273   1.444  1.3269  0.6510 -0.2364
 3231TIP3   OH2 9698   5.946   0.571   2.758  0.1432  0.2303 -0.5017
 3231TIP3    H1 9699   5.880   0.529   2.702  0.2980  1.8539 -1.9721
 3231TIP3    H2 9700   5.897   0.637   2.808  0.3079 -0.0273  0.0045
 3232TIP3   OH2 9701   5.738   0.752   0.691  0.4019  0.0072 -0.2520
 3232TIP3    H1 9702   5.720   0.659   0.672  2.1279  0.0055 -2.2630
 3232TIP3    H2 9703   5.804   0.777   0.626 -0.3240  2.7854 -0.0193
 3233TIP3   OH2 9704   5.317   0.186   0.564  0.9954  0.7108 -0.2367
 3233TIP3    H1 9705   5.336   0.126   0.637 -0.3510 -0.2436 -0.6303
 3233TIP3    H2 9706   5.336   0.134   0.486 -0.1037  0.8133 -0.5845
 3234TIP3   OH2 9707   5.142   2.125   2.469 -0.0164 -0.2916 -0.8082
 3234TIP3    H1 9708   5.238   2.127   2.470 -0.0255  0.5043  0.8981
 3234TIP3    H2 9709   5.117   2.086   2.553 -1.1988  0.2385 -0.8918
 3235TIP3   OH2 9710   1.565   1.645   2.702  0.4744  0.5305 -0.7613
 3235TIP3    H1 9711   1.522   1.728   2.725  0.3535  0.5563 -1.0802
 3235TIP3    H2 9712   1.627   1.667   2.633  3.2598  1.0723  1.7087
 3236TIP3   OH2 9713   3.408   0.198   3.426 -0.8761  0.2697 -0.1041
 3236TIP3    H1 9714   3.380   0.230   3.340 -3.5871 -1.2852  0.0745
 3236TIP3    H2 9715   3.394   0.103   3.422 -0.1940  0.0469  1.7731
 3237TIP3   OH2 9716   4.676   2.855   4.081 -0.1432 -0.1984  0.7042
 3237TIP3    H1 9717   4.596   2.847   4.133 -0.1812 -1.2731  0.5171
 3237TIP3    H2 9718   4.716   2.768   4.086 -0.2791 -0.4204 -1.2517
 3238TIP3   OH2 9719   2.962   5.175   4.979  0.3940 -0.0068 -0.1012
 3238TIP3    H1 9720   2.964   5.085   4.946  0.1847 -0.2613  0.5616
 3238TIP3    H2 9721   2.874   5.186   5.014 -0.1935  1.0751 -1.8063
 3239TIP3   OH2 9722   4.909   3.466   0.750  0.3008  0.3946 -0.1288
 3239TIP3    H1 9723   4.935   3.553   0.718  1.7458 -0.2587 -0.8223
 3239TIP3    H2 9724   4.814   3.464   0.738  0.4377  1.2875 -1.6297
 3240TIP3   OH2 9725   0.503   1.817   1.165  0.0222  0.2994 -0.3650
 3240TIP3    H1 9726   0.483   1.848   1.076  1.9196 -0.2726 -1.0348
 3240TIP3    H2 9727   0.508   1.897   1.217 -2.8153  0.5513 -0.3359
 3241TIP3   OH2 9728   1.386   1.384   2.499  0.0489  0.0512  0.1540
 3241TIP3    H1 9729   1.396   1.356   2.408  3.2165 -0.5970  0.5734
 3241TIP3    H2 9730   1.466   1.433   2.518 -1.9024  2.9443  1.7432
 3242TIP3   OH2 9731   2.712   2.947   0.184 -0.8038 -0.1189  0.0796
 3242TIP3    H1 9732   2.650   2.986   0.245 -0.0382 -0.7304  1.2745
 3242TIP3    H2 9733   2.798   2.966   0.220 -0.3387 -0.7412 -0.6550
 3243TIP3   OH2 9734   1.354   2.660   1.131 -0.1715  0.3134  0.4057
 3243TIP3    H1 9735   1.403   2.732   1.171  0.2705  0.6469 -0.6928
 3243TIP3    H2 9736   1.333   2.602   1.204 -0.3881  1.4608  1.2922
 3244TIP3   OH2 9737   5.208   2.285   3.368  0.2074 -0.3882 -0.8688
 3244TIP3    H1 9738   5.234   2.377   3.357  0.5067 -0.2289  0.8433
 3244TIP3    H2 9739   5.118   2.282   3.337 -0.3091  0.8493  0.4050
 3245TIP3   OH2 9740   5.709   0.976   5.004  0.6564  0.1271  0.0934
 3245TIP3    H1 9741   5.687   0.899   5.058 -1.4836 -1.5807 -2.9170
 3245TIP3    H2 9742   5.651   1.045   5.036  1.5956  0.1572  1.8929
 3246TIP3   OH2 9743   3.403   5.296   4.510  0.3523  0.5092  0.5528
 3246TIP3    H1 9744   3.336   5.320   4.446  0.8596 -0.1872 -0.2523
 3246TIP3    H2 9745   3.466   5.367   4.507  1.1452 -0.2196 -0.8283
 3247TIP3   OH2 9746   4.444   1.736   3.849 -0.4623  0.4623  0.2328
 3247TIP3    H1 9747   4.436   1.643   3.868  1.9923 -0.3250 -1.9527
 3247TIP3    H2 9748   4.510   1.768   3.911 -1.5883  0.8846  1.2454
 3248TIP3   OH2 9749   0.198   2.050   2.781 -0.2761  0.4643 -0.0579
 3248TIP3    H1 9750   0.139   2.011   2.846 -0.2037  1.3909  0.5722
 3248TIP3    H2 9751   0.141   2.069   2.706 -0.8113  1.4206  0.5733
 3249TIP3   OH2 9752   6.155   5.645   4.058 -0.5834 -0.0750 -0.2960
 3249TIP3    H1 9753   6.161   5.597   4.141  0.6717 -0.0807 -0.3693
 3249TIP3    H2 9754   6.096   5.592   4.004 -0.0641 -0.9750 -0.0049
 3250TIP3   OH2 9755   4.580   1.375   4.536  0.2949  0.6522  0.3300
 3250TIP3    H1 9756   4.591   1.343   4.625  0.1994  0.9422  0.4474
 3250TIP3    H2 9757   4.540   1.461   4.546  0.3593  0.7225  0.0105
 3251TIP3   OH2 9758   5.222   2.065  -0.002 -0.5175  0.1851 -0.1026
 3251TIP3    H1 9759   5.220   2.055   0.093  0.7207 -0.0997 -0.0930
 3251TIP3    H2 9760   5.214   2.160  -0.015 -0.4075  0.2514  0.2868
 3252TIP3   OH2 9761   1.886   2.763   2.975 -0.2212 -0.0017 -0.2665
 3252TIP3    H1 9762   1.844   2.700   2.917 -1.8425  0.7274  0.0610
 3252TIP3    H2 9763   1.818   2.828   2.994  0.5540  0.3354  1.6317
 3253TIP3   OH2 9764   1.766   2.589   1.216 -0.1932 -0.2403  0.1005
 3253TIP3    H1 9765   1.834   2.526   1.191 -0.9168 -1.1802  0.4508
 3253TIP3    H2 9766   1.707   2.592   1.141  0.1391  0.4619 -0.1416
 3254TIP3   OH2 9767   5.902   3.894   1.766  0.4991 -0.0569  0.1553
 3254TIP3    H1 9768   5.980   3.858   1.809  0.4114  0.2445  0.5775
 3254TIP3    H2 9769   5.865   3.954   1.831  0.8649  1.0923 -0.6950
 3255TIP3   OH2 9770   3.725   1.950   1.594 -0.1221  0.2749  0.0845
 3255TIP3    H1 9771   3.733   1.856   1.577 -2.3094  0.3635 -2.0520
 3255TIP3    H2 9772   3.700   1.957   1.686  0.6169 -1.1798  0.4148
 3256TIP3   OH2 9773   5.934   0.830   0.530 -0.5405 -0.5125 -0.5664
 3256TIP3    H1 9774   5.972   0.768   0.468  2.4688  0.6856 -0.0868
 3256TIP3    H2 9775   5.998   0.900   0.535 -1.3483  0.1259  2.8164
 3257TIP3   OH2 9776   0.716   2.953   0.886 -0.1089 -0.0607 -0.5770
 3257TIP3    H1 9777   0.740   3.016   0.818  0.6532 -0.3594 -0.5916
 3257TIP3    H2 9778   0.645   2.902   0.847  0.0616  0.0268 -1.0119
 3258TIP3   OH2 9779   3.295   5.451   4.301 -0.4368 -0.0986 -0.1647
 3258TIP3    H1 9780   3.316   5.445   4.208  0.1920 -1.2708  0.0350
 3258TIP3    H2 9781   3.366   5.502   4.338 -0.1304 -0.5224 -0.1640
 3259TIP3   OH2 9782   0.951   1.986   1.271  0.5095  0.1987  0.1947
 3259TIP3    H1 9783   0.936   2.018   1.182 -0.3225  0.5243  0.4340
 3259TIP3    H2 9784   0.938   1.892   1.266  0.3324  0.2324 -0.0099
 3260TIP3   OH2 9785   3.095   4.928   1.256 -0.4101  0.3110  0.1551
 3260TIP3    H1 9786   3.010   4.906   1.217 -1.1612  0.9486  1.3584
 3260TIP3    H2 9787   3.131   4.845   1.285 -1.1004  0.1443  0.5442
 3261TIP3   OH2 9788   2.199   0.407   2.431  0.4518  0.4696 -0.2818
 3261TIP3    H1 9789   2.227   0.421   2.340  1.4158 -0.2708 -0.1144
 3261TIP3    H2 9790   2.280   0.412   2.482 -0.2533  2.2903  0.7317
 3262TIP3   OH2 9791   3.470   2.391   0.004  0.6126  0.0756 -0.0327
 3262TIP3    H1 9792   3.470   2.447   0.081  1.8068  0.7351 -0.4900
 3262TIP3    H2 9793   3.387   2.410  -0.040 -0.4462 -0.8807  1.4594
 3263TIP3   OH2 9794   0.033   2.993   0.877  0.3015 -0.1205  0.3920
 3263TIP3    H1 9795   0.029   3.074   0.929 -0.2164 -0.0842  0.3014
 3263TIP3    H2 9796  -0.013   3.016   0.796  1.0751 -0.1859 -0.0658
 3264TIP3   OH2 9797   4.106   5.518   2.288  0.0164 -0.1846 -0.3275
 3264TIP3    H1 9798   4.156   5.594   2.319  1.4622 -0.6163 -1.5084
 3264TIP3    H2 9799   4.160   5.443   2.311 -0.6261 -0.7615 -0.6585
 3265TIP3   OH2 9800   5.604   1.262   2.829 -0.3098  0.3190 -0.4431
 3265TIP3    H1 9801   5.588   1.335   2.888 -2.2248 -0.4872  0.0885
 3265TIP3    H2 9802   5.548   1.279   2.753 -1.3017 -0.9157 -0.0124
 3266TIP3   OH2 9803   0.186   5.455   4.846 -0.4982 -0.4878 -0.3843
 3266TIP3    H1 9804   0.099   5.475   4.812 -0.9322  0.2780  1.0858
 3266TIP3    H2 9805   0.245   5.465   4.771 -1.2847  2.0860 -0.7568
 3267TIP3   OH2 9806   1.168   2.772   3.489  0.3391 -0.2900  0.6264
 3267TIP3    H1 9807   1.156   2.830   3.564  1.0238 -0.8644  1.2030
 3267TIP3    H2 9808   1.263   2.767   3.478  0.2526 -0.3849 -0.1553
 3268TIP3   OH2 9809   4.241   4.882   0.538  0.0425 -0.6766 -0.7490
 3268TIP3    H1 9810   4.316   4.842   0.582 -1.3659 -0.5851  1.9300
 3268TIP3    H2 9811   4.243   4.973   0.565 -1.4323 -0.8401  0.0453
 3269TIP3   OH2 9812   4.719   3.939   1.398  0.0693  0.1321  0.1557
 3269TIP3    H1 9813   4.779   3.913   1.468  1.8836  1.5873 -0.7710
 3269TIP3    H2 9814   4.742   4.030   1.379 -1.2379  0.1732 -1.4720
 3270TIP3   OH2 9815   3.546   2.381   2.763 -0.0155  0.6315 -0.0703
 3270TIP3    H1 9816   3.604   2.309   2.789  1.5980  0.8881 -2.6100
 3270TIP3    H2 9817   3.470   2.339   2.724  1.1532  0.2197 -2.0160
 3271TIP3   OH2 9818   1.238   2.547   0.897  0.0417  0.1158 -0.2213
 3271TIP3    H1 9819   1.147   2.570   0.879 -0.0507 -1.1766 -1.5479
 3271TIP3    H2 9820   1.270   2.620   0.951 -2.5400 -0.6684  2.6782
 3272TIP3   OH2 9821   2.928   1.280   2.767 -0.4255  0.5432 -0.0929
 3272TIP3    H1 9822   2.924   1.372   2.790 -0.2559  0.5114  0.0655
 3272TIP3    H2 9823   2.923   1.234   2.850  0.4992  0.4348 -0.0876
 3273TIP3   OH2 9824   4.830   0.065   3.520  0.3168  0.0012  0.1584
 3273TIP3    H1 9825   4.782   0.003   3.466  0.5792  0.0729 -0.1595
 3273TIP3    H2 9826   4.812   0.037   3.610  1.8362 -1.6569  0.0260
 3274TIP3   OH2 9827   5.009   1.886   0.541  0.4273 -0.2219  0.1355
 3274TIP3    H1 9828   5.064   1.936   0.601  2.7541 -1.4579 -0.8181
 3274TIP3    H2 9829   5.034   1.794   0.556 -2.1360 -0.9736  0.3262
 3275TIP3   OH2 9830   4.971   1.506   2.555 -0.0407 -0.1821  0.3012
 3275TIP3    H1 9831   4.876   1.509   2.543 -0.5316 -1.6725  2.9804
 3275TIP3    H2 9832   4.994   1.415   2.537  0.6810 -0.1196  0.8773
 3276TIP3   OH2 9833   5.069   5.997   0.214 -0.1940 -0.3317 -0.1741
 3276TIP3    H1 9834   5.046   5.904   0.211 -0.0682 -0.3632 -0.2099
 3276TIP3    H2 9835   5.085   6.015   0.307 -0.9560 -0.1574 -0.0768
 3277TIP3   OH2 9836   4.539   0.004   1.842 -0.2721 -0.2899  0.6905
 3277TIP3    H1 9837   4.507   0.092   1.822  0.6548  0.1472  1.0792
 3277TIP3    H2 9838   4.509  -0.049   1.769  1.3586  0.8648 -0.8933
 3278TIP3   OH2 9839   3.842   5.804   2.928 -0.5936 -0.0135 -0.3441
 3278TIP3    H1 9840   3.794   5.828   2.849  0.8369  0.3026 -1.1450
 3278TIP3    H2 9841   3.916   5.753   2.897  1.1815  1.8547  0.5392
 3279TIP3   OH2 9842   5.286   5.766   2.489 -0.2901 -0.2526  0.1571
 3279TIP3    H1 9843   5.300   5.848   2.443 -0.1695 -0.7198 -0.6726
 3279TIP3    H2 9844   5.337   5.773   2.569  0.5679  0.0744 -0.4091
 3280TIP3   OH2 9845   1.512   2.390   1.207 -0.3070 -0.1530 -0.3363
 3280TIP3    H1 9846   1.427   2.400   1.249  0.5877 -2.3153  2.2443
 3280TIP3    H2 9847   1.497   2.327   1.136 -0.8818 -0.5625  0.1402
 3281TIP3   OH2 9848   3.498   3.587   3.871  0.1073 -0.6489  0.1380
 3281TIP3    H1 9849   3.489   3.598   3.777 -1.1479  0.2726  0.3337
 3281TIP3    H2 9850   3.580   3.539   3.883  1.0436  0.5190 -1.3345
 3282TIP3   OH2 9851   4.942   4.425   1.584  0.0639  0.1975  0.3307
 3282TIP3    H1 9852   4.884   4.463   1.650 -1.0947  1.1481 -1.1580
 3282TIP3    H2 9853   4.961   4.498   1.524 -0.0794 -0.9375 -1.1478
 3283TIP3   OH2 9854   0.109   5.942   3.519  0.5867 -0.1973  0.1803
 3283TIP3    H1 9855   0.130   5.849   3.509  0.2406 -0.2007 -0.5421
 3283TIP3    H2 9856   0.150   5.984   3.443 -1.3571 -0.1029 -0.8664
 3284TIP3   OH2 9857   5.652   4.862   2.143 -0.3246  0.1081 -0.5366
 3284TIP3    H1 9858   5.729   4.878   2.197  0.2695  1.6619 -1.7486
 3284TIP3    H2 9859   5.686   4.853   2.054 -1.5509  1.4529 -1.1964
 3285TIP3   OH2 9860   4.812   4.790   3.727  0.9186  0.2043  0.5304
 3285TIP3    H1 9861   4.870   4.858   3.692  0.5177 -0.1211 -0.8132
 3285TIP3    H2 9862   4.839   4.710   3.683 -0.7282  0.1011 -0.3840
 3286TIP3   OH2 9863   5.869   3.647   1.107 -0.6233 -0.2030 -0.4259
 3286TIP3    H1 9864   5.921   3.726   1.119 -0.3340 -0.6283  1.5176
 3286TIP3    H2 9865   5.779   3.678   1.098 -0.4976  0.3670  0.1937
 3287TIP3   OH2 9866   2.498   3.113   0.246  0.1560 -0.8249 -0.1626
 3287TIP3    H1 9867   2.496   3.146   0.335 -0.9383  1.7556 -1.0554
 3287TIP3    H2 9868   2.412   3.134   0.210  0.2306 -2.6472 -1.5751
 3288TIP3   OH2 9869   0.443   2.833   3.205 -0.2313 -0.3625  0.2350
 3288TIP3    H1 9870   0.464   2.800   3.292  1.7063 -0.8755 -0.3766
 3288TIP3    H2 9871   0.496   2.780   3.146 -0.2636  1.0436 -1.1286
 3289TIP3   OH2 9872   1.215   0.398   2.490 -0.9429  0.0587  0.3959
 3289TIP3    H1 9873   1.246   0.348   2.415 -2.7996  0.9574 -1.0815
 3289TIP3    H2 9874   1.178   0.332   2.549  0.5600 -0.6637  0.5793
 3290TIP3   OH2 9875   5.723   2.922   3.211  0.0516  0.2527 -0.2808
 3290TIP3    H1 9876   5.770   2.886   3.287 -1.7123 -1.0258  0.2754
 3290TIP3    H2 9877   5.782   2.989   3.176  1.0794  0.6470  2.0035
 3291TIP3   OH2 9878   1.947   5.241   2.362 -0.8244  0.0730 -0.0729
 3291TIP3    H1 9879   1.987   5.179   2.424 -0.8231 -0.2214 -0.3682
 3291TIP3    H2 9880   1.953   5.198   2.277  1.9342  1.6833 -0.8390
 3292TIP3   OH2 9881   6.064   0.373   1.971  0.0902  0.2735 -0.2147
 3292TIP3    H1 9882   6.015   0.317   1.910 -1.0601  1.4419 -0.4024
 3292TIP3    H2 9883   6.052   0.331   2.056  0.5062 -0.5829 -0.5632
 3293TIP3   OH2 9884   1.518   0.842   0.893  0.3877 -0.3644  0.0557
 3293TIP3    H1 9885   1.466   0.825   0.971 -1.5530  1.7633 -0.6448
 3293TIP3    H2 9886   1.472   0.797   0.822 -0.5855  1.5011 -0.5674
 3294TIP3   OH2 9887   0.307   2.378   0.057  0.1806 -0.1302 -0.2928
 3294TIP3    H1 9888   0.254   2.451   0.023 -1.4290 -0.4918  1.3101
 3294TIP3    H2 9889   0.397   2.403   0.036 -0.1685  3.0305  1.3236
 3295TIP3   OH2 9890   1.673   2.409   1.540  0.1659  0.1758 -0.3735
 3295TIP3    H1 9891   1.583   2.422   1.511 -0.1628 -0.8705  0.1341
 3295TIP3    H2 9892   1.726   2.430   1.463 -0.6968 -2.8869 -1.9788
 3296TIP3   OH2 9893   2.080   0.318   1.121 -0.0870  0.4944 -0.2405
 3296TIP3    H1 9894   2.002   0.367   1.145  0.6008  0.7186  1.7486
 3296TIP3    H2 9895   2.048   0.230   1.100 -1.0453  1.0911 -1.3577
 3297TIP3   OH2 9896   1.501   2.329   0.638  0.5457 -0.4451  0.1107
 3297TIP3    H1 9897   1.502   2.323   0.734 -3.2574 -2.0629  0.2470
 3297TIP3    H2 9898   1.417   2.370   0.618 -0.2788 -3.0775 -2.5240
 3298TIP3   OH2 9899   4.604   5.077   5.167  0.2217  0.4814 -0.1641
 3298TIP3    H1 9900   4.548   5.013   5.123 -0.2487 -0.3986  1.6560
 3298TIP3    H2 9901   4.687   5.073   5.118 -0.4375 -0.0828 -1.2785
 3299TIP3   OH2 9902   6.060   0.673   4.049  0.3382  0.3446  0.6392
 3299TIP3    H1 9903   6.108   0.709   3.975  0.4161 -0.7220  0.1486
 3299TIP3    H2 9904   6.103   0.589   4.068  0.1027  0.4386  1.6718
 3300TIP3   OH2 9905   2.292   0.744   2.510  0.0366 -0.3791 -0.6863
 3300TIP3    H1 9906   2.368   0.716   2.561 -0.5722  0.3721  0.6853
 3300TIP3    H2 9907   2.279   0.674   2.445  1.3829 -0.9107 -0.4014
 3301TIP3   OH2 9908   5.091   0.736   0.508 -0.2325  0.1498 -0.6064
 3301TIP3    H1 9909   5.045   0.746   0.425 -0.3771 -0.8364 -0.6605
 3301TIP3    H2 9910   5.179   0.706   0.483 -0.0689  0.4874 -0.4349
 3302TIP3   OH2 9911   5.515   1.024   4.203 -0.1512 -0.0785  0.1185
 3302TIP3    H1 9912   5.600   0.980   4.199 -0.6240 -1.0272  0.3509
 3302TIP3    H2 9913   5.490   1.019   4.295 -0.8098 -0.4900 -0.0775
 3303TIP3   OH2 9914   0.240   1.116   2.079 -0.1866 -0.0779  0.6052
 3303TIP3    H1 9915   0.302   1.044   2.070 -1.1121 -0.8524  0.2066
 3303TIP3    H2 9916   0.164   1.089   2.028 -0.5652  1.1816  0.4565
 3304TIP3   OH2 9917   2.098   4.264   1.640  0.5125 -0.4177 -0.6532
 3304TIP3    H1 9918   2.055   4.179   1.646  0.5025 -0.4409 -1.0208
 3304TIP3    H2 9919   2.190   4.243   1.626  0.4852 -0.3730 -0.9181
 3305TIP3   OH2 9920   5.903   1.259   0.327  0.3295  0.0754 -0.1024
 3305TIP3    H1 9921   5.816   1.229   0.355 -0.0978  1.9797  0.7339
 3305TIP3    H2 9922   5.938   1.185   0.277 -1.1814 -1.2871  0.7442
 3306TIP3   OH2 9923   3.699   5.426   1.612 -0.0950 -0.1361  0.6925
 3306TIP3    H1 9924   3.655   5.495   1.562  0.3668  1.1764  2.0120
 3306TIP3    H2 9925   3.734   5.471   1.689  0.0269 -1.9024  1.7230
 3307TIP3   OH2 9926   4.073   5.501   1.849  0.0264 -0.3542  0.2390
 3307TIP3    H1 9927   4.087   5.583   1.802  0.4274  0.5776  1.9100
 3307TIP3    H2 9928   4.144   5.497   1.913 -1.5128 -0.6195  2.0212
 3308TIP3   OH2 9929   2.543   0.646   2.639 -0.5271  1.1434  0.1478
 3308TIP3    H1 9930   2.511   0.566   2.598 -1.1798  0.9838  0.9265
 3308TIP3    H2 9931   2.633   0.626   2.664 -0.0611  1.2967 -1.3019
 3309TIP3   OH2 9932   0.591   3.653   3.504  0.0853  0.3173  0.0813
 3309TIP3    H1 9933   0.604   3.577   3.560  0.2740  1.3495  1.4826
 3309TIP3    H2 9934   0.650   3.720   3.539  1.3364  0.5611 -2.2663
 3310TIP3   OH2 9935   6.060   2.580   5.106  0.4797  0.3751  0.9454
 3310TIP3    H1 9936   6.090   2.642   5.172  1.7190  0.1690  0.6115
 3310TIP3    H2 9937   6.035   2.502   5.155 -1.1679  1.1372  1.3772
 3311TIP3   OH2 9938   2.708   2.919   4.093  0.3769 -0.0302 -0.4243
 3311TIP3    H1 9939   2.682   2.936   4.184  0.7773  0.5029 -0.4044
 3311TIP3    H2 9940   2.753   2.834   4.097 -1.2767 -0.9353 -0.4531
 3312TIP3   OH2 9941   2.111   2.385   1.900  0.1174  0.2636  0.2369
 3312TIP3    H1 9942   2.194   2.346   1.928 -0.9913 -2.1779  0.3213
 3312TIP3    H2 9943   2.086   2.442   1.973  1.4436  0.6376  0.4244
 3313TIP3   OH2 9944   4.647   5.025   4.506 -0.1747  0.7543  0.2470
 3313TIP3    H1 9945   4.699   4.957   4.551 -2.6575 -0.1000  2.0564
 3313TIP3    H2 9946   4.713   5.082   4.466  2.1468 -0.5959  1.8421
 3314TIP3   OH2 9947   5.549   2.068   1.822 -0.1744  0.3196 -0.4108
 3314TIP3    H1 9948   5.516   1.999   1.766  0.8673 -1.2516  0.8213
 3314TIP3    H2 9949   5.602   2.123   1.764  0.6417 -1.0927 -1.0464
 3315TIP3   OH2 9950   0.796   4.827   0.881 -0.0731  0.2548  0.9252
 3315TIP3    H1 9951   0.721   4.809   0.937  0.7893 -1.8823  1.4811
 3315TIP3    H2 9952   0.846   4.893   0.928  0.2775 -1.0095  2.3887
 3316TIP3   OH2 9953   5.520   1.583   1.722  0.1645  0.4098 -0.0580
 3316TIP3    H1 9954   5.443   1.527   1.723  0.4781 -0.1561  2.8711
 3316TIP3    H2 9955   5.568   1.558   1.643 -0.7463 -2.0113  0.0916
 3317TIP3   OH2 9956   1.735   0.307   3.067  0.0252  0.1709 -0.1863
 3317TIP3    H1 9957   1.792   0.369   3.112  0.0604  1.1509 -1.5179
 3317TIP3    H2 9958   1.727   0.234   3.128  0.8370  1.0139  0.9876
 3318TIP3   OH2 9959   1.933   4.937   0.931  0.2830  0.0094  0.6589
 3318TIP3    H1 9960   1.880   4.950   1.009 -1.7583  1.8932 -0.9365
 3318TIP3    H2 9961   2.019   4.973   0.953 -0.0116 -0.2363  2.2744
 3319TIP3   OH2 9962   2.500   3.140   1.696  0.1689 -0.1853 -0.2356
 3319TIP3    H1 9963   2.432   3.176   1.753  0.7999  0.5099  0.0887
 3319TIP3    H2 9964   2.499   3.197   1.619  0.7722  0.1783  0.0218
 3320TIP3   OH2 9965   3.235   1.928   2.791 -0.2314 -1.0139  0.6700
 3320TIP3    H1 9966   3.215   1.913   2.698 -0.5571  2.4060  0.0633
 3320TIP3    H2 9967   3.328   1.910   2.799  0.1634  0.1773 -0.7632
 3321TIP3   OH2 9968   6.179   0.824   2.204  0.1974 -0.1454  0.1542
 3321TIP3    H1 9969   6.213   0.910   2.227  3.2376 -0.7709 -1.5146
 3321TIP3    H2 9970   6.156   0.784   2.288  0.4608  1.6077  1.1090
 3322TIP3   OH2 9971   5.847   4.559   4.099 -0.1524  0.4855 -0.5189
 3322TIP3    H1 9972   5.898   4.574   4.020  1.3138  0.9439  0.4758
 3322TIP3    H2 9973   5.834   4.647   4.136  0.7269  0.1550  0.6500
 3323TIP3   OH2 9974   3.323   1.804   1.460 -0.6015  0.1522 -0.2428
 3323TIP3    H1 9975   3.388   1.834   1.522  0.8664  0.8336 -2.0282
 3323TIP3    H2 9976   3.281   1.730   1.503  1.5806 -0.5256  0.8533
 3324TIP3   OH2 9977   1.285   4.797   4.051 -0.4346  0.1374  0.4366
 3324TIP3    H1 9978   1.343   4.794   4.127 -1.8196  1.5622  1.5980
 3324TIP3    H2 9979   1.231   4.875   4.064 -1.7579 -0.4330 -1.2384
 3325TIP3   OH2 9980   1.650   3.733   1.780  0.4291 -0.5814  0.3508
 3325TIP3    H1 9981   1.724   3.785   1.812  1.8441 -2.2564 -0.0467
 3325TIP3    H2 9982   1.603   3.792   1.721  1.0035  0.7509  1.1701
 3326TIP3   OH2 9983   4.073   0.080   1.111 -0.2750  0.6408 -0.3972
 3326TIP3    H1 9984   4.022   0.146   1.159  1.3349  1.3163  0.4568
 3326TIP3    H2 9985   4.164   0.101   1.131  0.3611 -0.5202 -1.9011
 3327TIP3   OH2 9986   2.710   2.167   1.978  0.2125 -0.2255  0.5199
 3327TIP3    H1 9987   2.690   2.245   1.926 -3.0791 -0.7663  0.7610
 3327TIP3    H2 9988   2.739   2.202   2.063  1.7012  0.6711 -0.3204
 3328TIP3   OH2 9989   0.651   5.490   1.661 -0.2534  0.1319 -0.3284
 3328TIP3    H1 9990   0.682   5.552   1.595 -0.3598  1.3058  0.6640
 3328TIP3    H2 9991   0.592   5.432   1.614  1.6948 -0.7551 -1.7864
 3329TIP3   OH2 9992   1.609   5.129   0.237 -0.2508  0.0628  0.1477
 3329TIP3    H1 9993   1.524   5.113   0.276 -1.1046  2.2575 -0.6172
 3329TIP3    H2 9994   1.592   5.134   0.143  1.0039 -0.8861 -0.1644
 3330TIP3   OH2 9995   3.797   0.760   4.235 -0.1133  0.3889 -0.0549
 3330TIP3    H1 9996   3.780   0.688   4.295  1.5111  0.0818  0.0826
 3330TIP3    H2 9997   3.889   0.749   4.209 -0.8016  0.3363 -2.8197
 3331TIP3   OH2 9998   1.842   0.070   2.753  0.4363 -0.5200  0.2589
 3331TIP3    H1 9999   1.897   0.146   2.773  0.5418 -0.3084 -0.7524
 3331TIP3    H210000   1.758   0.089   2.794 -0.2941  1.2494 -1.8625
 3332TIP3   OH210001   3.522   1.398   3.240  0.2206 -0.2903 -0.2356
 3332TIP3    H110002   3.515   1.491   3.219 -1.5287 -0.6782 -1.5861
 3332TIP3    H210003   3.614   1.386   3.264  0.3398  1.8877  0.6403
 3333TIP3   OH210004   2.453   3.844   3.927  0.2769  0.0458 -0.2204
 3333TIP3    H110005   2.424   3.764   3.971 -0.6025 -0.7536 -2.1305
 3333TIP3    H210006   2.483   3.901   3.998  2.0532 -2.4014  1.1202
 3334TIP3   OH210007   5.878   4.749   0.696  0.0998 -0.4694  0.2658
 3334TIP3    H110008   5.808   4.684   0.687  0.0399 -0.1711 -2.3440
 3334TIP3    H210009   5.959   4.698   0.687  0.0720 -0.3738 -0.7442
 3335TIP3   OH210010   6.043   1.926   1.414 -0.1673 -0.2460 -0.0435
 3335TIP3    H110011   6.051   1.903   1.507 -1.4330  0.8314  0.3566
 3335TIP3    H210012   5.951   1.912   1.394  0.1597 -0.7783 -1.2478
 3336TIP3   OH210013   4.802   3.703   3.272  0.1147 -0.5558 -0.5895
 3336TIP3    H110014   4.815   3.761   3.347 -1.9584 -0.6948 -0.0565
 3336TIP3    H210015   4.753   3.755   3.209  2.6983 -0.1092 -2.3613
 3337TIP3   OH210016   4.449   2.348   2.704  0.2545 -0.3313 -0.0833
 3337TIP3    H110017   4.356   2.345   2.726 -0.1079  1.0794 -1.3213
 3337TIP3    H210018   4.458   2.292   2.627 -0.3369  2.5204 -2.3561
 3338TIP3   OH210019   0.324   4.309   2.844 -0.6830 -0.0294 -0.3486
 3338TIP3    H110020   0.256   4.251   2.880  0.2432  0.4634  2.3581
 3338TIP3    H210021   0.399   4.251   2.829  0.2144  0.3213  2.2793
 3339TIP3   OH210022   3.324   4.973   2.868 -0.1804 -0.2090  0.8705
 3339TIP3    H110023   3.233   5.000   2.881 -1.1309 -2.3544 -0.8054
 3339TIP3    H210024   3.330   4.887   2.911  0.6796 -0.6522 -0.0923
 3340TIP3   OH210025   3.976   2.448   4.617 -0.1057 -0.2655  0.5727
 3340TIP3    H110026   4.057   2.487   4.584 -1.4119  1.1693 -1.0728
 3340TIP3    H210027   3.977   2.466   4.711  1.3747 -0.0851  0.5403
 3341TIP3   OH210028   0.712   2.150   4.030 -0.3032 -0.2807 -0.3932
 3341TIP3    H110029   0.789   2.102   4.001 -0.0475 -1.0590  1.4260
 3341TIP3    H210030   0.733   2.177   4.119 -1.0125  2.0244 -0.8651
 3342TIP3   OH210031   3.312   3.286   0.337  0.2120 -0.2135  0.3156
 3342TIP3    H110032   3.304   3.199   0.299 -1.2990  0.2001 -0.3726
 3342TIP3    H210033   3.403   3.312   0.319  0.6430 -1.5795  0.4361
 3343TIP3   OH210034   2.422   4.521   0.746 -0.2497 -0.4152 -0.0352
 3343TIP3    H110035   2.511   4.487   0.740 -0.9602 -2.4175 -0.0424
 3343TIP3    H210036   2.421   4.597   0.689  1.3696 -0.5351 -0.2678
 3344TIP3   OH210037   5.449   1.378   2.628 -0.3100  0.6108  0.4103
 3344TIP3    H110038   5.384   1.448   2.635 -0.6903  0.5108 -1.4835
 3344TIP3    H210039   5.450   1.356   2.534  1.6829 -0.1300  0.5635
 3345TIP3   OH210040   4.950   1.947   1.860 -0.0564 -0.6490  0.0698
 3345TIP3    H110041   4.964   1.900   1.941  0.4348  0.2663  0.5342
 3345TIP3    H210042   4.892   2.020   1.884 -0.6234 -0.8716 -0.5834
 3346TIP3   OH210043   3.718   1.187   3.065 -0.4995 -0.3108 -0.4035
 3346TIP3    H110044   3.711   1.238   3.146 -2.1176  0.2070 -0.8299
 3346TIP3    H210045   3.808   1.155   3.065 -0.7585 -1.3650  2.2228
 3347TIP3   OH210046   4.226   5.421   0.999 -0.0935 -0.3667  0.0381
 3347TIP3    H110047   4.205   5.331   0.976 -0.0395 -0.1924 -0.7474
 3347TIP3    H210048   4.145   5.456   1.037  0.3090 -1.1444  1.6497
 3348TIP3   OH210049   6.155   4.894   4.283 -0.3983  0.2491 -0.2432
 3348TIP3    H110050   6.178   4.945   4.206 -0.1797 -2.1180 -1.8626
 3348TIP3    H210051   6.060   4.885   4.279 -0.3806  0.0708 -0.2783
 3349TIP3   OH210052   4.419   2.319   1.141 -0.6941 -0.4435 -0.1446
 3349TIP3    H110053   4.434   2.413   1.136  0.5749 -0.5554  0.9300
 3349TIP3    H210054   4.366   2.308   1.220  1.2564 -0.7839  1.2064
 3350TIP3   OH210055   4.459   4.341   4.522  0.8217  0.2716  0.1621
 3350TIP3    H110056   4.492   4.404   4.585 -0.0373  1.9096 -0.9441
 3350TIP3    H210057   4.420   4.271   4.575  0.9107  1.1510  1.4238
 3351TIP3   OH210058   1.368   1.191   4.691  0.3193  0.0734  0.0461
 3351TIP3    H110059   1.333   1.278   4.711  0.6594  0.5103 -1.1850
 3351TIP3    H210060   1.408   1.162   4.773 -1.4674  0.2504  1.0340
 3352TIP3   OH210061   4.082   2.249   2.425  0.8895  0.1319  0.1320
 3352TIP3    H110062   4.090   2.322   2.363 -0.3820  0.3884  0.2377
 3352TIP3    H210063   3.988   2.244   2.444  0.7342 -2.4919 -0.9803
 3353TIP3   OH210064   0.634   1.358   0.890 -0.5518  0.3972  0.2743
 3353TIP3    H110065   0.714   1.339   0.939 -1.1235  0.0023  1.0748
 3353TIP3    H210066   0.656   1.435   0.837  1.2100 -1.2662 -1.5917
 3354TIP3   OH210067   1.454   2.468   0.126 -0.4217 -0.2706  0.3866
 3354TIP3    H110068   1.536   2.420   0.138 -0.6665 -1.1447 -1.1782
 3354TIP3    H210069   1.477   2.543   0.071 -0.4036  0.3763  1.2497
 3355TIP3   OH210070   0.477   4.579   4.138  0.0217  0.0123  0.6445
 3355TIP3    H110071   0.537   4.586   4.064 -0.2003 -0.4949  0.4166
 3355TIP3    H210072   0.527   4.534   4.206 -0.3535 -1.1302  0.1769
 3356TIP3   OH210073   3.628   5.106   5.024 -0.6189 -0.8803  0.6475
 3356TIP3    H110074   3.698   5.043   5.005 -0.7820 -0.7782 -0.3690
 3356TIP3    H210075   3.580   5.067   5.097 -0.0144 -1.3647  0.7987
 3357TIP3   OH210076   1.326   4.613   3.136 -0.1316  0.6164  0.1111
 3357TIP3    H110077   1.284   4.570   3.061 -0.1532 -0.6385  0.8191
 3357TIP3    H210078   1.256   4.666   3.175 -0.4625  0.2933 -0.0319
 3358TIP3   OH210079   3.889   4.638   0.403  0.0881 -0.0911  0.2841
 3358TIP3    H110080   3.912   4.662   0.313 -2.0088 -1.1225 -0.5971
 3358TIP3    H210081   3.858   4.720   0.441  0.7752  0.3081  0.0115
 3359TIP3   OH210082   2.613   5.568   1.985  0.4759 -0.5413  0.0520
 3359TIP3    H110083   2.578   5.549   1.898  1.4033 -1.7784 -0.0793
 3359TIP3    H210084   2.540   5.608   2.032  0.1854  0.8831 -1.5187
 3360TIP3   OH210085   2.320   2.536   3.651 -0.3231 -0.0697 -0.6702
 3360TIP3    H110086   2.240   2.539   3.598 -0.7470  1.3547 -0.0115
 3360TIP3    H210087   2.295   2.577   3.734  1.4795  1.9281 -1.0237
 3361TIP3   OH210088   1.722   3.855   3.064 -0.1976 -0.1281  0.0918
 3361TIP3    H110089   1.733   3.868   3.158 -0.6309 -0.9368  0.2636
 3361TIP3    H210090   1.672   3.932   3.035 -2.3328 -1.0953  0.9985
 3362TIP3   OH210091   4.833   4.083   0.347 -0.1041  0.0385  0.4665
 3362TIP3    H110092   4.751   4.059   0.389 -0.5770 -3.6232 -2.0603
 3362TIP3    H210093   4.807   4.129   0.267  0.0454 -2.3493 -1.0664
 3363TIP3   OH210094   0.218   3.709   3.258 -0.1269 -0.3472  0.3558
 3363TIP3    H110095   0.237   3.625   3.300 -1.2084 -0.5692  0.4326
 3363TIP3    H210096   0.146   3.690   3.198  0.6823  0.1957 -0.8265
 3364TIP3   OH210097   4.031   5.142   4.368 -0.2090 -0.0051 -0.4995
 3364TIP3    H110098   3.989   5.071   4.321 -1.5031 -0.0757  0.6901
 3364TIP3    H210099   4.018   5.121   4.461  1.2348  0.7164 -0.0895
 3365TIP3   OH210100   2.059   4.591   4.458 -0.0033  0.0364  0.1423
 3365TIP3    H110101   2.133   4.575   4.516 -0.7683 -1.0930  0.8610
 3365TIP3    H210102   2.017   4.505   4.449 -1.3903  0.7014 -0.0071
 3366TIP3   OH210103   2.671   1.921   4.795 -0.0793 -0.7481 -0.0589
 3366TIP3    H110104   2.686   1.893   4.705 -1.6933 -2.5060  0.1499
 3366TIP3    H210105   2.672   2.017   4.791 -1.2548 -0.7641 -2.2002
 3367TIP3   OH210106   2.057   3.522   3.589 -0.2759  0.5614 -0.1999
 3367TIP3    H110107   2.099   3.440   3.564  2.5611  1.9077 -0.2158
 3367TIP3    H210108   1.988   3.496   3.650 -0.5158 -1.9137 -1.4052
 3368TIP3   OH210109   4.141   2.713   4.080  0.2840 -0.1420 -0.5010
 3368TIP3    H110110   4.112   2.696   4.170  2.2295 -1.2879 -0.0263
 3368TIP3    H210111   4.061   2.710   4.028 -0.7604 -0.4826  1.0538
 3369TIP3   OH210112   4.707   4.863   1.568  0.2361  0.1031  0.0412
 3369TIP3    H110113   4.639   4.930   1.566 -0.1302 -0.2754 -1.0584
 3369TIP3    H210114   4.662   4.783   1.594  0.8397  0.4240  2.2537
 3370TIP3   OH210115   2.878   0.897   3.693  0.1691  0.9339  0.0778
 3370TIP3    H110116   2.883   0.816   3.643  1.4382  0.9671  0.1291
 3370TIP3    H210117   2.784   0.913   3.703 -0.1011 -0.4169 -0.1018
 3371TIP3   OH210118   6.199   1.773   0.644  0.2890  0.0460 -0.4777
 3371TIP3    H110119   6.237   1.839   0.586  0.5528 -0.1449 -0.5260
 3371TIP3    H210120   6.176   1.700   0.586  1.5411 -0.5898 -0.2288
 3372TIP3   OH210121   4.083   3.886   2.521  0.7461 -0.2889 -0.0896
 3372TIP3    H110122   4.007   3.939   2.495  0.0693 -1.1846 -0.0027
 3372TIP3    H210123   4.087   3.817   2.456  0.0476 -1.5937  1.1945
 3373TIP3   OH210124   5.190   4.353   1.733 -0.0928  0.2523  0.5914
 3373TIP3    H110125   5.130   4.417   1.695 -0.7740 -0.6390  0.1235
 3373TIP3    H210126   5.133   4.280   1.760  0.7851 -0.6747 -0.0001
 3374TIP3   OH210127   0.746   0.043   4.799  0.4421  0.8070 -0.1943
 3374TIP3    H110128   0.651   0.039   4.813  0.4051  1.1534 -0.3395
 3374TIP3    H210129   0.769   0.134   4.819  0.4552  1.2093 -1.9063
 3375TIP3   OH210130   0.555   4.864   0.501 -0.0235 -0.2896  0.3827
 3375TIP3    H110131   0.504   4.908   0.433 -1.8148 -1.5067  0.8515
 3375TIP3    H210132   0.645   4.895   0.488 -0.7884  1.6388 -0.7490
 3376TIP3   OH210133   1.516   3.505   3.761 -0.1117 -0.5033 -0.0574
 3376TIP3    H110134   1.507   3.595   3.790  1.2331 -0.4577  0.2789
 3376TIP3    H210135   1.568   3.462   3.829  2.0140 -0.7060 -1.6865
 3377TIP3   OH210136   2.059   5.050   1.399 -0.5521 -0.3407  0.0514
 3377TIP3    H110137   2.012   4.977   1.438  1.2132 -0.8752  1.3432
 3377TIP3    H210138   2.144   5.049   1.443  0.4627  0.8983 -1.7589
 3378TIP3   OH210139   2.673   4.981   4.722 -0.1741  0.0203  0.2656
 3378TIP3    H110140   2.588   5.015   4.750 -0.4884 -1.4836  1.2170
 3378TIP3    H210141   2.681   4.897   4.766  0.9628 -0.7517 -1.3306
 3379TIP3   OH210142   4.675   4.732   3.027 -0.5317  0.4671 -0.2320
 3379TIP3    H110143   4.666   4.796   3.098  0.5235 -0.5896  0.9020
 3379TIP3    H210144   4.740   4.772   2.968  0.7605  0.1125  0.9029
 3380TIP3   OH210145   1.605   1.480   0.327 -0.2307  0.0571  0.1075
 3380TIP3    H110146   1.628   1.567   0.294 -0.6409  0.9333  1.9927
 3380TIP3    H210147   1.510   1.483   0.337 -0.1185 -0.1159  1.4113
 3381TIP3   OH210148   0.591   0.369   1.716 -0.2485 -0.2131  0.1629
 3381TIP3    H110149   0.626   0.451   1.751  0.1279  0.0687 -0.8334
 3381TIP3    H210150   0.582   0.385   1.622  1.5338 -1.8761 -0.3643
 3382TIP3   OH210151   6.234   4.851   3.210 -0.3127  0.4482  0.3706
 3382TIP3    H110152   6.162   4.892   3.162  0.4897 -0.0986 -1.3921
 3382TIP3    H210153   6.216   4.757   3.204  0.3419  0.3247  0.1995
 3383TIP3   OH210154   6.265   0.830   2.624  0.1109 -0.4811 -0.3575
 3383TIP3    H110155   6.314   0.894   2.573 -0.3419 -0.8731 -1.3242
 3383TIP3    H210156   6.217   0.780   2.558 -2.5994  0.7015  0.5726
 3384TIP3   OH210157   0.536   5.902   3.380 -0.4408  0.3462 -0.2154
 3384TIP3    H110158   0.623   5.915   3.417 -0.4045  0.2927 -0.2827
 3384TIP3    H210159   0.495   5.837   3.438 -0.2529 -0.0143 -0.4809
 3385TIP3   OH210160   2.891   5.835   3.187  0.1850 -0.0205  0.0230
 3385TIP3    H110161   2.925   5.815   3.100 -1.0892  0.2816 -0.5564
 3385TIP3    H210162   2.951   5.902   3.221  0.5917 -0.0257 -0.6695
 3386TIP3   OH210163   2.609   5.623   2.380 -0.3665 -0.2396 -0.7251
 3386TIP3    H110164   2.533   5.588   2.427  0.6905  0.0942  1.3309
 3386TIP3    H210165   2.637   5.552   2.322 -0.0242 -1.7571  1.2181
 3387TIP3   OH210166   2.465   4.219   0.950 -0.2260 -0.0523  0.1403
 3387TIP3    H110167   2.496   4.144   1.001  1.7769 -0.7814 -1.9812
 3387TIP3    H210168   2.530   4.287   0.966 -0.8843  0.5321  0.3832
 3388TIP3   OH210169   6.295   0.329   4.470  0.5287  0.1128  0.1599
 3388TIP3    H110170   6.245   0.372   4.540 -2.1562 -1.0049 -0.9456
 3388TIP3    H210171   6.299   0.237   4.497  2.3950  0.2336  0.3968
 3389TIP3   OH210172   2.227   5.440   4.793 -0.3881 -0.4278  0.2011
 3389TIP3    H110173   2.229   5.501   4.867  0.0658  1.3071 -1.1761
 3389TIP3    H210174   2.297   5.378   4.811  1.2910  1.3408  0.1640
 3390TIP3   OH210175   1.805   5.903   3.141  0.0237  0.2575  0.4526
 3390TIP3    H110176   1.841   5.868   3.222  0.9203  0.0681 -0.0217
 3390TIP3    H210177   1.710   5.903   3.155  0.1653  0.0595  1.4283
 3391TIP3   OH210178   3.792   5.743   3.656 -0.2136 -0.4366 -0.1086
 3391TIP3    H110179   3.860   5.769   3.718  2.7456 -3.2735 -1.8352
 3391TIP3    H210180   3.733   5.687   3.706 -0.7343  1.1945  1.1729
 3392TIP3   OH210181   3.099   1.999   3.852 -0.0006 -0.0138 -0.7322
 3392TIP3    H110182   3.071   1.986   3.762 -1.0294 -1.4855 -0.2264
 3392TIP3    H210183   3.100   2.095   3.863  0.6484  0.2014 -2.4252
 3393TIP3   OH210184   4.391   3.867   0.834 -0.3563  0.5225  0.0410
 3393TIP3    H110185   4.389   3.950   0.882 -3.0610  0.7958 -0.4293
 3393TIP3    H210186   4.390   3.892   0.742 -0.8639 -0.0337 -0.1104
 3394TIP3   OH210187   3.545   4.822   0.277  0.1601 -0.4089  0.2512
 3394TIP3    H110188   3.549   4.792   0.368 -1.4399  0.4529  0.6497
 3394TIP3    H210189   3.478   4.767   0.236  0.2594 -0.2229 -0.1694
 3395TIP3   OH210190   6.158   5.612   0.574 -0.2809 -0.5017 -0.2551
 3395TIP3    H110191   6.251   5.590   0.577 -0.2264 -0.3816 -0.8115
 3395TIP3    H210192   6.154   5.694   0.525 -0.7347 -0.9266 -0.9611
 3396TIP3   OH210193   4.436   3.435   2.748 -0.7596 -0.9182 -0.0461
 3396TIP3    H110194   4.529   3.458   2.751 -1.4374  2.2180  0.2555
 3396TIP3    H210195   4.416   3.428   2.654 -0.2021 -1.7872 -0.1076
 3397TIP3   OH210196   1.575   1.798   2.203 -0.7679  0.7179  0.0215
 3397TIP3    H110197   1.553   1.705   2.215  1.1163  0.2192 -0.1893
 3397TIP3    H210198   1.524   1.824   2.126 -0.6601 -0.3779 -0.4503
 3398TIP3   OH210199   3.619   0.499   4.117 -0.4307 -0.3273  0.0774
 3398TIP3    H110200   3.668   0.431   4.162  0.4847 -0.6586 -1.3285
 3398TIP3    H210201   3.595   0.562   4.185  0.7512 -0.8715  1.0259
 3399TIP3   OH210202   4.561   1.262   3.192  0.0843  0.2265 -0.2090
 3399TIP3    H110203   4.636   1.308   3.153  0.8044 -0.4679  0.3426
 3399TIP3    H210204   4.566   1.174   3.155 -0.1168  0.0067  0.2893
 3400TIP3   OH210205   5.103   4.179   1.538 -0.3759 -0.2131 -0.4142
 3400TIP3    H110206   5.058   4.264   1.536 -1.1991 -0.6508 -1.0993
 3400TIP3    H210207   5.196   4.202   1.537 -0.5810  0.6931 -0.0130
 3401TIP3   OH210208   2.423   5.284   1.846 -0.0028 -0.2448 -0.6930
 3401TIP3    H110209   2.356   5.237   1.895 -0.8872  1.8378  0.2258
 3401TIP3    H210210   2.505   5.242   1.870 -0.8076 -1.7350 -0.4814
 3402TIP3   OH210211   2.106   0.868   0.984 -0.7028  0.3029  0.2977
 3402TIP3    H110212   2.062   0.792   1.023 -1.1154  0.4423  0.1126
 3402TIP3    H210213   2.136   0.919   1.060  1.3069 -1.0041  0.4372
 3403TIP3   OH210214   6.066   1.968   2.240 -0.2605 -0.2181  0.3360
 3403TIP3    H110215   6.139   1.919   2.279  0.1293  0.1518  0.0696
 3403TIP3    H210216   6.096   1.993   2.153 -0.5214  0.3604  0.4070
 3404TIP3   OH210217   1.995   5.169   2.111  0.3921 -0.1734 -0.2952
 3404TIP3    H110218   2.028   5.229   2.045  0.1445 -0.1588 -0.4054
 3404TIP3    H210219   1.961   5.095   2.062 -0.4666  0.1639 -0.2273
 3405TIP3   OH210220   1.505   0.856   3.812 -0.2326 -0.2185  0.5551
 3405TIP3    H110221   1.509   0.775   3.862 -0.1236  0.1321  1.1148
 3405TIP3    H210222   1.412   0.868   3.792 -0.0150 -1.9425 -1.9555
 3406TIP3   OH210223   4.879   4.206   1.257 -0.3549 -0.1700 -0.2837
 3406TIP3    H110224   4.868   4.286   1.307 -0.8393  0.4395 -1.3408
 3406TIP3    H210225   4.973   4.201   1.238 -0.4209  0.5170 -0.8065
 3407TIP3   OH210226   5.067   5.439   5.050 -0.1126  0.2212  0.2440
 3407TIP3    H110227   5.160   5.420   5.059 -0.4460 -2.0333 -0.3908
 3407TIP3    H210228   5.032   5.431   5.139  0.2513  0.8927  0.4542
 3408TIP3   OH210229   1.106   4.865   1.918  0.3973 -0.2744 -0.1263
 3408TIP3    H110230   1.094   4.781   1.874 -0.1589 -0.7064  0.8171
 3408TIP3    H210231   1.042   4.863   1.990 -0.8965  1.7007 -1.1421
 3409TIP3   OH210232   2.570   3.338   4.154  0.2921 -0.0249 -0.7204
 3409TIP3    H110233   2.664   3.357   4.156  0.0369  1.4714  1.5695
 3409TIP3    H210234   2.535   3.395   4.086  0.6350  2.1663  0.8315
 3410TIP3   OH210235   0.983   5.121   2.868  0.4090 -0.4843  0.4511
 3410TIP3    H110236   0.968   5.203   2.822 -0.6444  0.4799  2.3850
 3410TIP3    H210237   1.035   5.145   2.945  1.7248 -1.9598  0.0848
 3411TIP3   OH210238   4.501   1.994   4.787 -0.3599  0.5507  0.4592
 3411TIP3    H110239   4.469   1.926   4.728  1.2822 -2.4374  2.7037
 3411TIP3    H210240   4.432   2.003   4.853 -0.0143 -0.0484  0.9224
 3412TIP3   OH210241   4.340   3.465   1.851 -0.0725  0.4753  0.4217
 3412TIP3    H110242   4.297   3.420   1.923  0.8730  2.2641  2.2125
 3412TIP3    H210243   4.269   3.509   1.804 -1.0456 -2.8131 -1.5097
 3413TIP3   OH210244   1.013   4.884   1.544 -0.5177 -0.4963  0.5692
 3413TIP3    H110245   1.077   4.817   1.569  1.7395  1.3862  0.2465
 3413TIP3    H210246   0.995   4.867   1.452 -0.8944 -1.3291  0.7839
 3414TIP3   OH210247   5.951   1.025   2.450  0.8922  0.1163  1.1657
 3414TIP3    H110248   5.940   1.055   2.540 -0.1613  2.2532  0.3799
 3414TIP3    H210249   6.007   1.091   2.409 -1.0604  0.8229 -0.5016
 3415TIP3   OH210250   3.683   0.276   1.544 -0.0454  0.2985  0.1804
 3415TIP3    H110251   3.664   0.197   1.494 -0.7502 -0.0880  1.0288
 3415TIP3    H210252   3.764   0.310   1.506 -0.8352  0.3195 -1.5569
 3416TIP3   OH210253   3.452   5.515   3.106  0.7752  0.2970  0.0175
 3416TIP3    H110254   3.534   5.468   3.116  0.9879  0.3320 -1.4676
 3416TIP3    H210255   3.441   5.526   3.012 -1.0827  0.0367  0.1646
 3417TIP3   OH210256   1.047   1.378   0.627 -0.2589 -0.4341 -0.8479
 3417TIP3    H110257   1.046   1.417   0.540 -1.4499  2.1491  0.2316
 3417TIP3    H210258   0.955   1.376   0.653  0.0408 -1.5771  0.2134
 3418TIP3   OH210259   3.170   5.913   4.597  0.0761  0.7788  0.0288
 3418TIP3    H110260   3.198   6.001   4.570  0.7345 -0.1754 -2.7769
 3418TIP3    H210261   3.109   5.886   4.529 -0.3455 -0.8446  1.0092
 3419TIP3   OH210262   3.866   0.355   3.335 -0.2475  0.2320  0.2577
 3419TIP3    H110263   3.936   0.313   3.385  0.1331 -1.2447 -1.3941
 3419TIP3    H210264   3.909   0.387   3.256 -1.4535 -1.2448 -1.0875
 3420TIP3   OH210265   6.004   1.629   3.609 -0.1166 -0.3222  0.5406
 3420TIP3    H110266   6.049   1.549   3.581 -0.5819 -0.8094  1.1565
 3420TIP3    H210267   6.070   1.679   3.655  0.3670 -0.0180 -0.4545
 3421TIP3   OH210268   5.842   0.602   2.209 -0.7013  0.3374 -0.0975
 3421TIP3    H110269   5.776   0.656   2.251 -1.0912 -0.0294 -0.2311
 3421TIP3    H210270   5.849   0.637   2.120 -1.4779 -0.2760 -0.4133
 3422TIP3   OH210271   4.947   3.741   4.953 -0.1493 -0.0758 -0.1043
 3422TIP3    H110272   5.013   3.675   4.931  0.7551  0.9102 -0.4552
 3422TIP3    H210273   4.865   3.693   4.957 -0.0763 -0.7507 -3.5445
 3423TIP3   OH210274   0.353   2.442   4.435  0.0334 -0.4580 -0.0913
 3423TIP3    H110275   0.354   2.347   4.425 -0.5470 -0.6000  1.0343
 3423TIP3    H210276   0.273   2.460   4.485  1.0380  0.4359  1.2659
 3424TIP3   OH210277   4.445   0.842   1.367 -0.4963 -0.1084 -0.1823
 3424TIP3    H110278   4.504   0.782   1.323 -0.1046  1.8868 -2.5493
 3424TIP3    H210279   4.503   0.907   1.408 -0.9296  1.2884 -1.6756
 3425TIP3   OH210280   4.091   1.165   4.092 -0.1615 -0.2503  0.3053
 3425TIP3    H110281   3.996   1.151   4.093 -0.1534 -0.3241  0.0635
 3425TIP3    H210282   4.101   1.258   4.074 -0.1648 -0.6156 -1.8579
 3426TIP3   OH210283   5.184   2.547   3.319  0.5330 -0.1831 -0.6539
 3426TIP3    H110284   5.094   2.560   3.348  0.3844 -1.2614 -0.5949
 3426TIP3    H210285   5.232   2.619   3.360 -0.2494  0.2542 -0.4734
 3427TIP3   OH210286   0.360   4.651   4.400 -0.4359 -0.2710 -0.0226
 3427TIP3    H110287   0.440   4.645   4.453  0.4264  2.3104 -0.8889
 3427TIP3    H210288   0.393   4.654   4.310 -1.6704 -1.1387 -0.5245
 3428TIP3   OH210289   5.801   1.637   3.838 -0.8404  0.6177 -0.4009
 3428TIP3    H110290   5.825   1.546   3.855 -1.9222  0.3163 -0.3812
 3428TIP3    H210291   5.852   1.661   3.760 -3.3235 -1.2823 -2.8441
 3429TIP3   OH210292   2.112   5.873   3.175 -0.5545  0.4814  0.2081
 3429TIP3    H110293   2.188   5.880   3.232 -0.5594 -0.4514  0.3394
 3429TIP3    H210294   2.050   5.820   3.223 -0.9471  0.5024 -0.2632
 3430TIP3   OH210295   1.117   1.338   1.682  0.3772 -0.1625 -0.5128
 3430TIP3    H110296   1.164   1.389   1.749 -0.5875  0.3675 -0.2225
 3430TIP3    H210297   1.150   1.373   1.599  2.2432 -1.4335 -0.3638
 3431TIP3   OH210298   4.291   4.899   4.402  0.3802 -1.0222 -0.6830
 3431TIP3    H110299   4.233   4.841   4.354 -0.1283  0.4117 -1.8787
 3431TIP3    H210300   4.321   4.962   4.337  1.4543 -0.3629  0.4163
 3432TIP3   OH210301   3.474   4.964   3.309  0.0047  0.6752 -0.1183
 3432TIP3    H110302   3.536   4.969   3.236 -0.2315  2.1633 -0.2454
 3432TIP3    H210303   3.424   5.046   3.304 -2.4287 -0.7466 -0.3991
 3433TIP3   OH210304   4.669   2.397   0.891 -0.0268 -0.1940  0.4032
 3433TIP3    H110305   4.762   2.393   0.912 -0.3832 -1.0263  1.9828
 3433TIP3    H210306   4.651   2.315   0.844 -0.3545 -1.0585  1.9729
 3434TIP3   OH210307   4.772   1.098   0.492 -0.0516 -0.1867 -0.0664
 3434TIP3    H110308   4.744   1.178   0.447 -0.2785  0.3469  0.9765
 3434TIP3    H210309   4.797   1.038   0.422 -1.8006  0.0744 -0.9731
 3435TIP3   OH210310   3.906   2.860   2.819 -0.6117  0.0170 -0.0062
 3435TIP3    H110311   3.856   2.883   2.897 -1.0786  1.4203 -0.6776
 3435TIP3    H210312   3.852   2.797   2.773 -0.1451 -1.1478  0.9802
 3436TIP3   OH210313   1.327   0.752   0.630  0.4162 -0.3931 -0.2634
 3436TIP3    H110314   1.334   0.830   0.575  0.6354 -0.7601 -0.7644
 3436TIP3    H210315   1.241   0.715   0.609  1.0415 -1.2652 -1.3571
 3437TIP3   OH210316   0.015   5.541   2.953  0.6705  0.1569  0.3112
 3437TIP3    H110317  -0.041   5.532   3.030  0.8821 -0.8064  0.3561
 3437TIP3    H210318   0.077   5.610   2.977 -0.7685  1.5976  0.0784
 3438TIP3   OH210319   4.361   5.580   5.105 -0.0946  0.2736 -0.7088
 3438TIP3    H110320   4.341   5.510   5.168  0.6068  0.1372 -0.6336
 3438TIP3    H210321   4.449   5.610   5.129  0.9765 -1.0457 -2.7442
 3439TIP3   OH210322   5.771   5.352   4.468 -0.1594  0.0356 -0.5683
 3439TIP3    H110323   5.758   5.258   4.469  0.5056 -0.0647 -0.0206
 3439TIP3    H210324   5.683   5.389   4.473 -0.4596 -0.5440 -1.3582
 3440TIP3   OH210325   3.430   0.594   0.800 -0.1013  0.2423  0.3593
 3440TIP3    H110326   3.377   0.563   0.873 -0.7523  0.6247  0.0544
 3440TIP3    H210327   3.371   0.650   0.749  0.8283  1.3516  0.4665
 3441TIP3   OH210328   4.784   0.825   1.388 -0.0688  0.9360  0.3604
 3441TIP3    H110329   4.783   0.870   1.304  0.8019  0.6003  0.1597
 3441TIP3    H210330   4.841   0.879   1.444  1.0432  0.0617  0.0943
 3442TIP3   OH210331   0.057   1.592   2.603 -0.0991 -0.4645  0.6521
 3442TIP3    H110332  -0.037   1.579   2.615 -0.4709  0.4633 -1.0247
 3442TIP3    H210333   0.064   1.664   2.541  1.7546  0.2042  1.5548
 3443TIP3   OH210334   1.894   3.420   0.907 -0.1741  0.8947 -0.0503
 3443TIP3    H110335   1.929   3.467   0.983  0.9574 -0.3495  0.2310
 3443TIP3    H210336   1.813   3.466   0.886 -0.0428  1.8276  1.3427
 3444TIP3   OH210337   5.663   0.627   2.593  0.4475 -0.3284  0.2622
 3444TIP3    H110338   5.713   0.553   2.559  2.4764  0.5278  1.1795
 3444TIP3    H210339   5.609   0.589   2.663 -0.5258 -1.3421 -0.9996
 3445TIP3   OH210340   4.196   2.406   1.764 -0.0029 -0.4327 -0.5764
 3445TIP3    H110341   4.135   2.461   1.714 -1.2239  0.4122  1.7048
 3445TIP3    H210342   4.259   2.375   1.699 -0.9796  1.3082 -2.4666
 3446TIP3   OH210343   0.881   4.310   0.337  0.5586 -0.4460  0.2457
 3446TIP3    H110344   0.810   4.373   0.327  0.5285 -0.3527  0.9983
 3446TIP3    H210345   0.842   4.236   0.383  0.3718 -1.4230 -1.4069
 3447TIP3   OH210346   3.093   4.795   2.733  0.3645 -0.4947 -0.0971
 3447TIP3    H110347   3.003   4.826   2.747  0.6430  0.3584 -0.1902
 3447TIP3    H210348   3.132   4.797   2.820  0.6249  0.1929 -0.2248
 3448TIP3   OH210349   3.193   4.435   3.515 -0.3997 -0.5534 -0.2875
 3448TIP3    H110350   3.170   4.380   3.590  0.4312 -2.2462 -1.1965
 3448TIP3    H210351   3.282   4.464   3.533  0.1530 -1.7290 -0.9941
 3449TIP3   OH210352   3.072   5.153   3.691 -0.3083 -0.0256  0.1760
 3449TIP3    H110353   3.063   5.218   3.621 -0.7525 -1.1706 -0.8701
 3449TIP3    H210354   3.000   5.172   3.751 -1.5907 -0.6645 -1.0910
 3450TIP3   OH210355   4.181   1.148   1.682  0.2404  0.1431  0.4168
 3450TIP3    H110356   4.169   1.092   1.605 -1.1283  0.8146  0.1113
 3450TIP3    H210357   4.092   1.164   1.714  0.7807 -0.0182  2.0802
 3451TIP3   OH210358   3.221   4.787   0.920  0.4091  0.3839  0.5202
 3451TIP3    H110359   3.162   4.850   0.877 -0.2766 -0.8988 -0.4921
 3451TIP3    H210360   3.280   4.842   0.971 -0.8680  1.7997  0.5839
 3452TIP3   OH210361   1.078   5.802   0.925  0.3110  0.2219 -0.3949
 3452TIP3    H110362   1.099   5.896   0.921  1.8468 -0.0937 -0.3063
 3452TIP3    H210363   1.059   5.786   1.017 -1.2468  0.6833 -0.6084
 3453TIP3   OH210364   1.973   4.499   1.650  0.4935 -0.3471  0.1851
 3453TIP3    H110365   2.046   4.547   1.612 -0.4434 -1.3099 -3.2431
 3453TIP3    H210366   1.992   4.407   1.630 -0.9212 -0.7632  0.6132
 3454TIP3   OH210367   2.474   5.805   0.288 -0.7376 -0.0710  0.1380
 3454TIP3    H110368   2.407   5.765   0.232  0.7365 -0.6205 -1.3113
 3454TIP3    H210369   2.557   5.775   0.251  0.3568  1.6202  1.1078
 3455TIP3   OH210370   5.630   2.722   4.768  0.1486 -0.1136 -0.4078
 3455TIP3    H110371   5.542   2.694   4.793 -0.4337 -1.4857 -3.5517
 3455TIP3    H210372   5.684   2.644   4.780  0.6495  0.3133  0.1560
 3456TIP3   OH210373   2.713   5.705   4.885 -0.3058 -0.0615 -0.2483
 3456TIP3    H110374   2.646   5.729   4.949  0.2755  0.5945  0.1312
 3456TIP3    H210375   2.795   5.704   4.935 -0.0968 -1.3894 -0.5909
 3457TIP3   OH210376   4.200   2.021   4.808  0.3621 -0.1898 -0.5181
 3457TIP3    H110377   4.206   1.961   4.734  1.2827 -0.0729 -0.5416
 3457TIP3    H210378   4.217   1.968   4.885 -0.4383 -0.2785 -0.3921
 3458TIP3   OH210379   1.553   4.838   1.669  0.0590 -0.3587  0.0995
 3458TIP3    H110380   1.487   4.880   1.613  0.6770  0.1203 -0.2897
 3458TIP3    H210381   1.621   4.905   1.679 -0.0350 -0.4343  1.4302
 3459TIP3   OH210382   2.762   2.870   0.941  0.0801 -0.3245  0.6056
 3459TIP3    H110383   2.672   2.857   0.970 -0.2314  1.3224  0.4738
 3459TIP3    H210384   2.756   2.935   0.871  1.4309  0.3868  1.1054
 3460TIP3   OH210385   6.136   3.605   0.223 -0.1553  0.3798  0.1725
 3460TIP3    H110386   6.164   3.677   0.279 -1.0707  1.0050 -0.1572
 3460TIP3    H210387   6.043   3.619   0.209 -0.1909 -0.4321 -0.5379
 3461TIP3   OH210388   6.112   2.216   0.136  0.1141  0.6918 -0.1195
 3461TIP3    H110389   6.057   2.140   0.156  0.2464  0.3052 -1.1354
 3461TIP3    H210390   6.198   2.193   0.172 -0.4822  1.5301  1.9543
 3462TIP3   OH210391   6.092   1.766   3.367  0.3363 -0.0458  0.2986
 3462TIP3    H110392   6.086   1.693   3.306 -0.7268  0.8038 -0.6353
 3462TIP3    H210393   6.057   1.732   3.449  0.7799 -0.8713  0.1537
 3463TIP3   OH210394   3.128   2.560   4.238  0.4003  0.5855 -0.2555
 3463TIP3    H110395   3.156   2.631   4.295 -0.6769  1.5756 -0.9059
 3463TIP3    H210396   3.033   2.562   4.242  0.3388 -0.2614 -0.9653
 3464TIP3   OH210397   3.681   3.735   0.272  0.1844 -0.1130 -0.3589
 3464TIP3    H110398   3.589   3.750   0.296 -0.4453  0.2713 -2.7637
 3464TIP3    H210399   3.677   3.686   0.190  2.1515 -0.6433 -0.1900
 3465TIP3   OH210400   4.795   5.747   2.263 -0.2136 -0.0425 -0.4566
 3465TIP3    H110401   4.836   5.753   2.349 -0.1158 -0.8858 -0.4381
 3465TIP3    H210402   4.866   5.723   2.203 -0.4779 -0.5267 -0.5875
 3466TIP3   OH210403   1.637   2.637   2.528 -0.2451  0.3025  0.2055
 3466TIP3    H110404   1.613   2.661   2.439 -1.2675  0.7045  0.5811
 3466TIP3    H210405   1.666   2.546   2.522 -0.9891  0.1051 -0.4141
 3467TIP3   OH210406   3.603   1.013   0.097 -0.5012 -0.0529  0.1751
 3467TIP3    H110407   3.696   1.021   0.119 -0.7682  1.4702  0.9231
 3467TIP3    H210408   3.598   0.936   0.041  1.2487 -0.0502 -0.0549
 3468TIP3   OH210409   5.809   1.796   4.779 -1.1118  0.1140 -0.0697
 3468TIP3    H110410   5.886   1.798   4.722 -0.1295 -3.6513  0.8401
 3468TIP3    H210411   5.735   1.801   4.720 -0.1018 -1.9094 -1.6553
 3469TIP3   OH210412   6.121   1.229   0.509 -0.1646 -0.5407 -0.1511
 3469TIP3    H110413   6.145   1.321   0.502  0.8743 -0.6822  1.1897
 3469TIP3    H210414   6.031   1.225   0.477 -0.7852  1.2229  1.2442
 3470TIP3   OH210415   5.450   2.151   5.120 -0.7198 -0.2950 -0.0266
 3470TIP3    H110416   5.398   2.080   5.084 -0.2320 -0.1908 -0.9563
 3470TIP3    H210417   5.415   2.230   5.079  0.5698 -0.2866 -1.1604
 3471TIP3   OH210418   4.941   0.235   0.960  0.3796  0.2702  0.0459
 3471TIP3    H110419   4.919   0.328   0.953  2.7910  0.9686  0.7839
 3471TIP3    H210420   4.990   0.229   1.043  0.4680 -1.6136 -0.1182
 3472TIP3   OH210421   0.626   5.188   1.814  0.1145 -0.1480  0.2599
 3472TIP3    H110422   0.709   5.185   1.766 -0.0529 -0.8788  0.0119
 3472TIP3    H210423   0.574   5.254   1.767  1.1410  1.5408  1.3981
 3473TIP3   OH210424   6.359   0.760   4.082 -0.7732 -0.8942 -0.5766
 3473TIP3    H110425   6.388   0.675   4.048  0.0496  0.3091 -3.2129
 3473TIP3    H210426   6.285   0.739   4.139  1.1665 -3.5681  1.2233
 3474TIP3   OH210427   2.889   1.822   0.633  0.3404  0.2997 -0.3163
 3474TIP3    H110428   2.962   1.765   0.608 -1.1015 -1.7944 -0.0252
 3474TIP3    H210429   2.842   1.772   0.700 -0.4021  2.3346  0.7600
 3475TIP3   OH210430   3.339   2.734   1.950 -0.3002 -0.1416 -0.2178
 3475TIP3    H110431   3.299   2.672   1.889  0.1276 -0.5830 -0.0605
 3475TIP3    H210432   3.430   2.705   1.957 -0.4881 -0.4887  1.1078
 3476TIP3   OH210433   6.091   1.218   2.290  0.4676 -0.2686 -0.0058
 3476TIP3    H110434   6.100   1.219   2.195 -0.0802  3.4277 -0.1526
 3476TIP3    H210435   6.164   1.271   2.322  0.5886 -1.3723  1.6855
 3477TIP3   OH210436   4.894   4.457   0.261 -0.5064 -0.2285 -0.2109
 3477TIP3    H110437   4.949   4.482   0.336  0.0078 -2.8514  0.3822
 3477TIP3    H210438   4.948   4.474   0.185  0.5964 -1.3804  0.2874
 3478TIP3   OH210439   1.357   5.296   4.354  0.2409  0.5337  1.4098
 3478TIP3    H110440   1.438   5.251   4.378 -0.5059 -1.2137  0.7655
 3478TIP3    H210441   1.321   5.326   4.438  0.8571  0.1355  1.8293
 3479TIP3   OH210442   2.769   0.516   0.114 -0.0737  0.2507 -0.5666
 3479TIP3    H110443   2.710   0.466   0.057 -1.8119 -0.8814  2.0326
 3479TIP3    H210444   2.831   0.451   0.147 -0.9822  0.1957  1.1313
 3480TIP3   OH210445   5.373   0.048   3.932  0.3438 -0.9695  0.3661
 3480TIP3    H110446   5.279   0.032   3.918  0.3472 -0.3527 -0.4256
 3480TIP3    H210447   5.408  -0.037   3.957 -0.5039 -1.1200  1.1023
 3481TIP3   OH210448   6.183   1.259   1.707 -0.0435 -0.2568 -0.2355
 3481TIP3    H110449   6.146   1.208   1.635 -0.2526 -0.7899  0.2365
 3481TIP3    H210450   6.258   1.207   1.737 -0.4378 -0.4394  0.4424
 3482TIP3   OH210451   3.123   0.895   2.583 -0.5019  0.3546 -0.4024
 3482TIP3    H110452   3.091   0.918   2.496  0.1239 -0.5065 -0.8788
 3482TIP3    H210453   3.178   0.968   2.610  2.6183 -1.0008 -2.4742
 3483TIP3   OH210454   4.797   0.989   1.160  0.1101 -0.5111 -0.4023
 3483TIP3    H110455   4.832   0.972   1.073 -0.0400  1.7975 -0.9923
 3483TIP3    H210456   4.819   1.081   1.177 -3.5361  0.4445  0.1321
 3484TIP3   OH210457   5.952   0.596   0.316 -0.9774 -0.2788 -0.0404
 3484TIP3    H110458   5.905   0.520   0.283 -0.7796 -1.2453  1.7663
 3484TIP3    H210459   5.931   0.666   0.254 -0.0763 -2.0786 -2.5332
 3485TIP3   OH210460   3.369   0.884   2.839  0.5820 -0.7181  0.2082
 3485TIP3    H110461   3.315   0.927   2.905  1.9278 -2.3763  2.5361
 3485TIP3    H210462   3.425   0.954   2.804 -1.0841  0.4575 -0.2419
 3486TIP3   OH210463   4.862   2.562   3.401 -0.3602  0.0433  0.6380
 3486TIP3    H110464   4.852   2.650   3.437 -1.7067  0.3246 -0.3828
 3486TIP3    H210465   4.848   2.572   3.307 -1.1915 -1.3487  0.5829
 3487TIP3   OH210466   5.727   4.253   0.060 -0.3530  0.0498 -0.2092
 3487TIP3    H110467   5.713   4.324  -0.002 -1.1813  0.9035  0.9029
 3487TIP3    H210468   5.659   4.189   0.040  1.0408 -0.9635 -1.8978
 3488TIP3   OH210469   2.012   1.239   2.016  0.2441  0.1766 -0.1800
 3488TIP3    H110470   2.036   1.281   1.933 -1.9904 -0.9013 -1.4698
 3488TIP3    H210471   2.093   1.200   2.048  0.8191 -1.0575 -2.9017
 3489TIP3   OH210472   5.949  -0.003   1.915  0.1603  0.3116 -0.0802
 3489TIP3    H110473   5.988   0.056   1.851 -0.8495  0.2796 -0.7509
 3489TIP3    H210474   5.882   0.050   1.959  2.3604  1.0806  2.6617
 3490TIP3   OH210475   1.772   5.523   3.122  0.3877 -0.0228 -0.2326
 3490TIP3    H110476   1.732   5.554   3.204  0.2933  0.5478 -0.4941
 3490TIP3    H210477   1.818   5.599   3.087 -0.8717  0.1745 -1.5145
 3491TIP3   OH210478   5.511   3.954   2.585 -0.1042 -0.3343 -0.0568
 3491TIP3    H110479   5.561   3.873   2.581 -1.2332 -0.9981 -1.8563
 3491TIP3    H210480   5.471   3.952   2.672  1.5142 -0.6523  0.7180
 3492TIP3   OH210481   0.885   2.126   2.932 -0.0566  0.3067 -0.0029
 3492TIP3    H110482   0.869   2.134   3.026  0.8954  0.7234  0.1258
 3492TIP3    H210483   0.894   2.032   2.917 -0.9848  0.1789  0.1834
 3493TIP3   OH210484   1.871   5.131   0.085 -0.3649  0.3906  0.0025
 3493TIP3    H110485   1.826   5.050   0.111  1.3283 -0.2313  1.1703
 3493TIP3    H210486   1.906   5.112  -0.002 -1.9003  0.7105 -0.7069
 3494TIP3   OH210487   0.506   0.573   4.909 -0.3412  0.2789 -0.2402
 3494TIP3    H110488   0.462   0.488   4.909  0.7601 -0.3233  0.7134
 3494TIP3    H210489   0.497   0.605   4.820 -1.4293 -0.4811 -0.4267
 3495TIP3   OH210490   4.977   0.654   1.495 -0.0542  0.0985  0.4008
 3495TIP3    H110491   4.922   0.682   1.421 -1.9940 -0.3677  1.5952
 3495TIP3    H210492   4.998   0.563   1.477 -0.0742  0.1383  0.1770
 3496TIP3   OH210493   5.276   5.962   3.515  0.1604 -0.3399  0.2106
 3496TIP3    H110494   5.199   5.968   3.457  1.0293 -0.3309 -0.9808
 3496TIP3    H210495   5.240   5.935   3.599 -1.5061  2.4472  0.5067
 3497TIP3   OH210496   5.196   3.178   4.837  0.0365 -0.3324 -0.0126
 3497TIP3    H110497   5.143   3.230   4.775 -0.6039 -0.7290  0.1976
 3497TIP3    H210498   5.285   3.213   4.827  0.1454 -1.0076 -1.8535
 3498TIP3   OH210499   3.397   1.174   4.637  0.1855 -0.4767  0.2458
 3498TIP3    H110500   3.460   1.111   4.674 -0.0527 -1.4116 -0.8764
 3498TIP3    H210501   3.425   1.258   4.672  2.0204 -0.8781 -0.1225
 3499TIP3   OH210502   4.729   1.886   4.521  0.0435  0.0971  0.1644
 3499TIP3    H110503   4.736   1.928   4.607  0.7346 -1.2311  0.7902
 3499TIP3    H210504   4.689   1.952   4.465 -1.6172  0.5589  1.8084
 3500TIP3   OH210505   2.560   0.952   3.652  0.3475 -0.7381 -0.0768
 3500TIP3    H110506   2.509   1.009   3.595  1.1742 -1.5423 -1.6781
 3500TIP3    H210507   2.531   0.864   3.629  0.7377 -1.0792  0.7086
 3501TIP3   OH210508   3.772   2.719   1.622 -0.0732  0.1775  0.1099
 3501TIP3    H110509   3.732   2.759   1.544  0.3693 -1.1315 -0.8335
 3501TIP3    H210510   3.698   2.686   1.672 -0.3183  0.1586 -0.2564
 3502TIP3   OH210511   0.991   3.129   1.396  0.0561  0.3742 -0.3755
 3502TIP3    H110512   1.069   3.170   1.434  1.0400  0.1477 -2.0388
 3502TIP3    H210513   1.024   3.083   1.319 -1.6769 -0.0850 -0.8774
 3503TIP3   OH210514   5.762   1.889   3.620 -1.0019 -0.0833  0.4000
 3503TIP3    H110515   5.857   1.896   3.609 -0.8271 -1.1993  0.9700
 3503TIP3    H210516   5.735   1.825   3.553 -1.1219 -0.8554  1.1717
 3504TIP3   OH210517   1.588   5.669   0.545 -0.3307 -0.3380 -0.1000
 3504TIP3    H110518   1.564   5.649   0.635  0.7987  1.2857  0.6031
 3504TIP3    H210519   1.504   5.676   0.499 -1.0043  0.2442  1.1619
 3505TIP3   OH210520   1.086   4.699   4.808  0.2512 -0.0212  0.3437
 3505TIP3    H110521   1.076   4.761   4.735  1.1135  0.9903  1.0602
 3505TIP3    H210522   1.122   4.752   4.879 -0.2819 -1.0687  1.4123
 3506TIP3   OH210523   3.377   4.290   2.018 -0.1026 -0.7595 -0.2317
 3506TIP3    H110524   3.453   4.231   2.016 -0.4403 -1.1779 -1.6502
 3506TIP3    H210525   3.374   4.328   1.930 -1.6748 -0.9275 -0.2758
 3507TIP3   OH210526   3.741   1.235   0.678  0.3616  0.0312  0.3758
 3507TIP3    H110527   3.819   1.290   0.669 -0.2455  0.7344 -0.7884
 3507TIP3    H210528   3.668   1.296   0.670 -0.3104 -0.7865  0.2198
 3508TIP3   OH210529   1.226   3.501   1.570 -0.8450  0.5286 -0.1871
 3508TIP3    H110530   1.229   3.477   1.477  0.3126  0.4723 -0.1529
 3508TIP3    H210531   1.135   3.488   1.595 -1.4516  1.7269 -1.6160
 3509TIP3   OH210532   3.316   1.113   2.247  0.0269 -0.0216  0.0576
 3509TIP3    H110533   3.336   1.036   2.301 -0.4896 -1.3118 -1.4901
 3509TIP3    H210534   3.225   1.100   2.220 -0.0249  1.0733 -0.3320
 3510TIP3   OH210535   4.512   4.755   3.912  0.4176 -0.0085 -0.0586
 3510TIP3    H110536   4.523   4.664   3.887 -1.2123  0.2763 -2.0557
 3510TIP3    H210537   4.515   4.803   3.830 -3.7642  1.1875  0.2810
 3511TIP3   OH210538   0.079   0.515   3.898 -0.0047  0.3431 -0.5503
 3511TIP3    H110539   0.164   0.559   3.898  0.3079 -0.1867  1.1855
 3511TIP3    H210540   0.096   0.430   3.939 -1.1843 -0.1890 -1.1031
 3512TIP3   OH210541   0.944   2.748   2.178  0.0723  0.1082 -0.8881
 3512TIP3    H110542   0.921   2.674   2.235 -0.1034 -0.6911 -1.9680
 3512TIP3    H210543   0.897   2.822   2.214 -1.2099 -0.6981 -0.8473
 3513TIP3   OH210544   0.600   1.416   0.416  0.0959  0.0273  0.0107
 3513TIP3    H110545   0.559   1.440   0.333 -0.0204  1.8272  0.5381
 3513TIP3    H210546   0.604   1.321   0.415  0.1334  0.0142 -2.0696
 3514TIP3   OH210547   2.972   3.581   0.533  0.5943  0.0814  0.1285
 3514TIP3    H110548   2.973   3.511   0.597  1.1994 -0.1364 -0.1160
 3514TIP3    H210549   2.912   3.550   0.464  0.0014  0.2860  0.5408
 3515TIP3   OH210550   4.566   1.812   2.580  0.3470  0.1661 -0.4093
 3515TIP3    H110551   4.574   1.904   2.555  0.1708 -0.2768 -2.2354
 3515TIP3    H210552   4.627   1.766   2.523 -0.0030 -0.9221  0.0628
 3516TIP3   OH210553   0.551   0.659   4.638  0.4609  0.1161 -0.4173
 3516TIP3    H110554   0.609   0.731   4.664 -0.2333  0.0357  1.5681
 3516TIP3    H210555   0.591   0.623   4.559  2.6280  0.6135  0.3808
 3517TIP3   OH210556   3.697   0.043   1.360 -0.0753 -0.5022  0.2535
 3517TIP3    H110557   3.638   0.071   1.290 -0.8605  1.3496  1.5778
 3517TIP3    H210558   3.754  -0.022   1.319  0.2452  1.3152 -2.4157
 3518TIP3   OH210559   2.802   2.479   2.039  0.4588  0.3714 -0.2103
 3518TIP3    H110560   2.858   2.427   2.097 -1.2673 -0.5286  0.7215
 3518TIP3    H210561   2.777   2.555   2.091  0.8153  0.7814 -0.6307
 3519TIP3   OH210562   4.986   2.331   3.711  0.1874 -0.0920  0.8625
 3519TIP3    H110563   5.067   2.341   3.661 -0.4982 -1.7201 -0.6983
 3519TIP3    H210564   4.922   2.385   3.664 -0.1727 -0.6783  0.6640
 3520TIP3   OH210565   1.277   4.599   0.178  0.6318 -0.2030  1.1309
 3520TIP3    H110566   1.342   4.603   0.108  0.2133  0.4621  0.7614
 3520TIP3    H210567   1.274   4.507   0.203  0.0762 -0.6506 -0.4232
 3521TIP3   OH210568   4.166   3.784   5.114 -0.1765 -0.1730  0.1941
 3521TIP3    H110569   4.109   3.845   5.161 -2.1816 -1.7953  0.0178
 3521TIP3    H210570   4.177   3.823   5.028 -1.5444 -0.0650  0.0380
 3522TIP3   OH210571   0.985   1.883   5.006 -0.1556  0.3087 -0.2777
 3522TIP3    H110572   0.977   1.797   4.965 -2.3074  0.5430 -0.4802
 3522TIP3    H210573   0.943   1.943   4.945 -1.9104  0.9219  1.4335
 3523TIP3   OH210574   5.659   1.976   3.000 -0.5954 -0.2590 -0.1680
 3523TIP3    H110575   5.626   1.896   2.960 -1.6219 -0.6602  1.3708
 3523TIP3    H210576   5.694   1.948   3.084  0.1482  0.7412 -0.1300
 3524TIP3   OH210577   6.159   0.872   1.275 -0.4750  0.0883  0.0864
 3524TIP3    H110578   6.066   0.895   1.270 -0.2692  1.2279  1.0279
 3524TIP3    H210579   6.181   0.840   1.187 -2.1564 -1.9203  0.3198
 3525TIP3   OH210580   2.621   4.135   0.059 -0.1461  0.4607  0.4574
 3525TIP3    H110581   2.598   4.122  -0.033 -0.0842  1.2190  0.3254
 3525TIP3    H210582   2.668   4.055   0.084 -0.2673  0.2006 -0.1323
 3526TIP3   OH210583   0.723   4.255   0.981  0.4839  0.2576  0.1860
 3526TIP3    H110584   0.770   4.188   0.931 -1.1105 -0.3562 -0.5243
 3526TIP3    H210585   0.782   4.274   1.055  1.0239 -1.8522  0.3619
 3527TIP3   OH210586   2.154   0.943   1.254 -0.3092  0.1374  0.3535
 3527TIP3    H110587   2.238   0.981   1.230 -0.4303 -0.2351 -0.6976
 3527TIP3    H210588   2.165   0.920   1.347  0.6457  0.3485  0.3104
 3528TIP3   OH210589   6.160   3.526   2.814 -0.2408  0.3887  0.0280
 3528TIP3    H110590   6.219   3.472   2.865  0.1906  2.9299  2.4935
 3528TIP3    H210591   6.073   3.510   2.852 -1.4001 -3.2243 -3.4840
 3529TIP3   OH210592   6.210   4.444   3.777 -0.3188  0.6600 -0.1836
 3529TIP3    H110593   6.289   4.403   3.812 -0.7550 -0.7442 -0.7826
 3529TIP3    H210594   6.185   4.388   3.703 -2.1572  0.7899  0.3049
 3530TIP3   OH210595   0.951   2.026   3.976  0.0684 -0.2439 -0.2151
 3530TIP3    H110596   0.990   1.999   4.059  0.9433  1.5263 -0.0053
 3530TIP3    H210597   1.006   1.986   3.909 -0.2621 -1.1546  0.0408
 3531TIP3   OH210598   3.112   5.853   0.036 -0.2980  0.1778  0.0125
 3531TIP3    H110599   3.051   5.812   0.097  0.1755  1.6675  1.5571
 3531TIP3    H210600   3.179   5.891   0.092  0.0569  1.7763 -1.4374
 3532TIP3   OH210601   0.475   4.988   2.137  0.0060  0.2803  0.4923
 3532TIP3    H110602   0.474   5.075   2.177  1.0553 -0.8484  3.2213
 3532TIP3    H210603   0.393   4.948   2.164 -0.6647  0.4940 -1.1003
 3533TIP3   OH210604   1.119   4.605   2.109  0.1247 -0.1260  0.3827
 3533TIP3    H110605   1.113   4.509   2.108 -0.3939 -0.1177  1.3096
 3533TIP3    H210606   1.213   4.623   2.114  0.2174 -0.5998  0.4435
 3534TIP3   OH210607   2.850   5.576   2.126 -0.7020  0.7688  0.9735
 3534TIP3    H110608   2.909   5.619   2.065  0.1892  0.8937  1.9134
 3534TIP3    H210609   2.763   5.590   2.088 -0.1415  0.4433 -0.5040
 3535TIP3   OH210610   1.770   5.303   2.955  0.5159  0.3708 -0.0579
 3535TIP3    H110611   1.781   5.381   3.010  1.2717 -0.0666  0.4318
 3535TIP3    H210612   1.777   5.335   2.865 -1.6022  1.2434  0.0294
 3536TIP3   OH210613   5.110   1.471   4.442  0.0068  0.6201 -0.4982
 3536TIP3    H110614   5.024   1.512   4.449 -0.3099  0.2300 -1.9329
 3536TIP3    H210615   5.142   1.496   4.356 -0.1057 -1.8909 -1.3405
 3537TIP3   OH210616   3.921   2.236   1.273 -0.0583 -0.3285  0.3184
 3537TIP3    H110617   3.906   2.143   1.289  1.0269 -0.6134 -0.1990
 3537TIP3    H210618   3.879   2.281   1.346  0.3916 -1.2900  1.1849
 3538TIP3   OH210619   4.832   1.919   5.166 -0.7692 -0.0403 -0.2807
 3538TIP3    H110620   4.761   1.976   5.139 -2.0776 -0.3517  2.2157
 3538TIP3    H210621   4.789   1.845   5.208  1.0037 -0.6268  0.6096
 3539TIP3   OH210622   1.857   0.488   1.524 -0.5345  0.5971  0.1723
 3539TIP3    H110623   1.907   0.543   1.464 -0.2982  0.1195 -0.0685
 3539TIP3    H210624   1.783   0.457   1.472  0.0109 -0.3303 -0.0659
 3540TIP3   OH210625   1.426   1.949   5.012 -0.0343 -0.2748  0.0219
 3540TIP3    H110626   1.373   1.896   5.072 -0.2844 -1.9397 -1.5972
 3540TIP3    H210627   1.501   1.894   4.990  1.0948  1.0826  0.2966
 3541TIP3   OH210628   4.087   2.936   3.233 -0.3476  0.0866  0.4314
 3541TIP3    H110629   4.115   2.863   3.289 -0.0233  0.0150  0.1839
 3541TIP3    H210630   4.144   2.929   3.156 -0.4306  0.5017  0.3316
 3542TIP3   OH210631   0.705   0.880   0.653 -0.6341 -0.3264 -0.3939
 3542TIP3    H110632   0.714   0.942   0.725 -0.9862 -1.0873  0.3227
 3542TIP3    H210633   0.651   0.926   0.588 -0.2476  0.3945 -0.2155
 3543TIP3   OH210634   0.601   0.986   2.447 -0.4635 -0.2039 -0.5843
 3543TIP3    H110635   0.513   1.022   2.440 -0.8542  0.3704  4.0979
 3543TIP3    H210636   0.589   0.892   2.431 -1.4692  0.1343 -2.0517
 3544TIP3   OH210637   2.124   4.087   4.022  0.2644 -0.0740 -0.3703
 3544TIP3    H110638   2.101   3.997   3.998  2.3854 -0.1705 -2.3866
 3544TIP3    H210639   2.209   4.080   4.065  0.6367  0.9856 -0.9040
 3545TIP3   OH210640   2.040   0.096   3.259  0.2185  0.8408 -0.0845
 3545TIP3    H110641   2.011   0.183   3.233  1.2661  1.5244  0.9513
 3545TIP3    H210642   1.973   0.065   3.320 -0.7223  0.4369 -1.2803
 3546TIP3   OH210643   3.041   3.524   2.547 -0.0548 -0.0879  0.0458
 3546TIP3    H110644   3.057   3.478   2.464  0.3354  0.4240 -0.1688
 3546TIP3    H210645   3.076   3.612   2.532  1.1028 -0.3324  1.1384
 3547TIP3   OH210646   1.035   4.639   0.042 -0.2516  0.0419  0.2476
 3547TIP3    H110647   1.021   4.569  -0.022  1.6490  2.3856 -3.0565
 3547TIP3    H210648   1.120   4.620   0.082  0.6209  0.7472 -1.1974
 3548TIP3   OH210649   5.731   1.950   4.993 -0.1320 -0.2833 -0.0503
 3548TIP3    H110650   5.649   1.907   5.016  0.3894 -1.2362  0.0597
 3548TIP3    H210651   5.767   1.898   4.921  0.0914  0.4763 -0.5080
 3549TIP3   OH210652   6.203   2.320   0.520 -0.2373  0.4664 -0.3662
 3549TIP3    H110653   6.275   2.376   0.550 -1.4908  0.9945  1.9027
 3549TIP3    H210654   6.207   2.325   0.425  1.6029  1.9172 -0.2845
 3550TIP3   OH210655   1.474   4.574   0.496 -0.1084  0.6407  0.0357
 3550TIP3    H110656   1.503   4.651   0.545  2.3954  0.5416 -1.1282
 3550TIP3    H210657   1.454   4.608   0.408 -1.2373  0.3006  0.1508
 3551TIP3   OH210658   5.296   0.779   4.341 -0.1145  0.5856  0.3807
 3551TIP3    H110659   5.287   0.781   4.436  0.6656  2.1819  0.4402
 3551TIP3    H210660   5.339   0.695   4.324  1.4086  1.0632  1.6188
 3552TIP3   OH210661   3.015   3.211   4.998  0.4207 -0.2259  0.4003
 3552TIP3    H110662   3.082   3.208   5.067 -0.4789 -0.3153  1.2992
 3552TIP3    H210663   3.033   3.136   4.943  1.3166 -0.0101  0.3897
 3553TIP3   OH210664   0.913   2.709   0.638 -0.0614 -0.1077  0.5718
 3553TIP3    H110665   0.867   2.638   0.592 -0.3930 -0.4155  1.3715
 3553TIP3    H210666   0.999   2.714   0.594  0.3134 -1.6152  1.0934
 3554TIP3   OH210667   1.646   3.325   3.272 -0.1037 -0.2137 -0.1278
 3554TIP3    H110668   1.641   3.391   3.202  1.8141  1.0601  0.8600
 3554TIP3    H210669   1.598   3.364   3.345 -1.3572 -1.1670 -0.4092
 3555TIP3   OH210670   6.119   2.284   2.672  0.0058 -0.1469  0.0818
 3555TIP3    H110671   6.125   2.266   2.766 -0.0027 -1.4453 -0.1377
 3555TIP3    H210672   6.106   2.378   2.666 -0.1869 -0.0697  1.3949
 3556TIP3   OH210673   1.626   2.850   3.051  0.6061 -0.3174 -0.1638
 3556TIP3    H110674   1.552   2.793   3.032  2.8635 -3.7209  0.2621
 3556TIP3    H210675   1.608   2.883   3.139  0.4356 -2.7892  0.8192
 3557TIP3   OH210676   2.462   1.708   0.581  0.3194 -0.2865 -0.3631
 3557TIP3    H110677   2.539   1.729   0.527  1.6293 -2.7650  0.3659
 3557TIP3    H210678   2.443   1.617   0.560  0.8924 -1.3695  3.2336
 3558TIP3   OH210679   4.208   2.259   1.314 -0.2004 -0.5225 -0.0640
 3558TIP3    H110680   4.116   2.240   1.300 -0.4565  1.0348 -0.6335
 3558TIP3    H210681   4.213   2.284   1.407 -0.5565  0.3899 -0.2755
 3559TIP3   OH210682   3.640   3.444   1.712  0.1337 -0.6274 -0.0194
 3559TIP3    H110683   3.604   3.521   1.757  1.2641 -0.2913  0.3331
 3559TIP3    H210684   3.656   3.381   1.782  3.1279  0.3702  0.3328
 3560TIP3   OH210685   2.226   3.925   4.674 -0.0448 -0.4972 -0.3515
 3560TIP3    H110686   2.271   3.881   4.602  1.9025  0.3330  0.2874
 3560TIP3    H210687   2.221   3.859   4.743  1.3419 -0.2666  0.0016
 3561TIP3   OH210688   1.490   1.970   1.788 -0.0065 -0.3089 -0.2429
 3561TIP3    H110689   1.484   2.019   1.706  0.9600  0.6179  0.2038
 3561TIP3    H210690   1.539   2.028   1.846 -1.8156 -0.3557  1.4417
 3562TIP3   OH210691   1.269   5.912   3.511 -0.0084 -0.0883  0.4772
 3562TIP3    H110692   1.288   5.834   3.563  0.0423  0.3593  1.1310
 3562TIP3    H210693   1.222   5.970   3.571  0.0316  0.4220  0.0174
 3563TIP3   OH210694   0.717   4.405   4.854 -0.7199 -0.7151 -0.1941
 3563TIP3    H110695   0.695   4.340   4.920  1.8528 -1.1688  0.3241
 3563TIP3    H210696   0.638   4.459   4.846 -1.9047 -2.0825  1.4967
 3564TIP3   OH210697   0.040   0.577   2.424  0.8536  0.2364  0.5216
 3564TIP3    H110698  -0.010   0.548   2.500  0.2167  0.2835  0.1312
 3564TIP3    H210699  -0.004   0.536   2.349  0.6536  1.2627  0.0634
 3565TIP3   OH210700   3.287   0.596   1.445  0.3239 -0.4008 -0.0719
 3565TIP3    H110701   3.354   0.537   1.481  1.9591  0.4424 -1.5903
 3565TIP3    H210702   3.221   0.537   1.408  2.8797 -1.4797 -3.3548
 3566TIP3   OH210703   4.010   2.082   4.149 -0.2474  0.2196  0.1838
 3566TIP3    H110704   4.099   2.094   4.182  0.0248 -0.3911 -0.3013
 3566TIP3    H210705   3.983   1.997   4.184 -1.0960  0.9313  1.3064
 3567TIP3   OH210706   4.695   5.403   4.986  0.8774 -0.6362  0.2344
 3567TIP3    H110707   4.644   5.342   4.932  0.9891 -1.6260  1.2084
 3567TIP3    H210708   4.751   5.449   4.923  1.0861 -1.8454 -0.5087
 3568TIP3   OH210709   0.422   2.468   0.441 -0.4260 -0.3075  0.1035
 3568TIP3    H110710   0.456   2.526   0.510  2.5328 -2.2746  0.5012
 3568TIP3    H210711   0.357   2.415   0.486  1.6622 -1.7603  1.6476
 3569TIP3   OH210712   3.807   5.564   1.829 -0.3509  0.4049  0.5812
 3569TIP3    H110713   3.890   5.517   1.837 -0.8032 -0.6730 -0.6519
 3569TIP3    H210714   3.810   5.630   1.898  1.5442  0.4297  0.5301
 3570TIP3   OH210715   2.459   4.906   2.355 -0.2582  0.3632  0.1686
 3570TIP3    H110716   2.386   4.953   2.395 -0.7430 -0.8002  0.6891
 3570TIP3    H210717   2.443   4.814   2.376  1.4285  0.0965  0.4035
 3571TIP3   OH210718   2.590   2.971   4.613  0.3881  0.2020 -0.0911
 3571TIP3    H110719   2.667   3.003   4.566  0.0379 -1.0057 -1.5718
 3571TIP3    H210720   2.521   3.034   4.591  0.5216  0.3030 -0.2247
 3572TIP3   OH210721   1.986   3.848   4.970  0.0741  0.5040  0.2159
 3572TIP3    H110722   1.982   3.919   4.906  0.4327  0.4334  0.1101
 3572TIP3    H210723   2.074   3.856   5.007  0.5351 -0.5871 -0.6034
 3573TIP3   OH210724   4.518   4.165   4.858  0.2535  0.3461 -0.4660
 3573TIP3    H110725   4.468   4.158   4.777  0.2043  1.1132 -0.5045
 3573TIP3    H210726   4.452   4.175   4.926  0.2619 -0.9529 -0.2376
 3574TIP3   OH210727   3.981   4.693   3.934 -0.0030  0.4710 -0.0886
 3574TIP3    H110728   3.940   4.643   4.005  2.2914  0.1238  1.1207
 3574TIP3    H210729   3.911   4.708   3.871 -2.0285  0.2586  1.9545
 3575TIP3   OH210730   3.730   5.240   3.975 -0.5632  0.2742  0.1256
 3575TIP3    H110731   3.766   5.179   3.911 -1.8755  0.4441 -0.8148
 3575TIP3    H210732   3.657   5.193   4.015  1.3631 -0.6000  3.0145
 3576TIP3   OH210733   0.979   0.989   4.244  0.0074  0.1953  0.7043
 3576TIP3    H110734   0.985   1.069   4.192  0.9950  0.4414  1.1588
 3576TIP3    H210735   0.982   1.020   4.335 -2.1882 -0.1851  0.9563
 3577TIP3   OH210736   5.528   4.704   1.874  0.2558  0.2398 -0.4302
 3577TIP3    H110737   5.536   4.735   1.784  0.0141  0.1629 -0.4808
 3577TIP3    H210738   5.473   4.769   1.917 -1.2178 -0.6740 -0.8324
 3578TIP3   OH210739   0.386   5.338   2.655 -0.0906  0.0631 -0.2037
 3578TIP3    H110740   0.348   5.250   2.658 -0.7025  0.3065 -0.7014
 3578TIP3    H210741   0.452   5.337   2.724 -0.3505 -0.6659  0.0510
 3579TIP3   OH210742   4.087   0.526   0.233 -0.5407  0.7040 -0.3237
 3579TIP3    H110743   4.034   0.497   0.307 -0.7124 -0.4814 -0.8947
 3579TIP3    H210744   4.029   0.582   0.182 -1.7046 -1.5828 -1.6187
 3580TIP3   OH210745   6.313   3.645   0.953 -0.1760 -0.3447 -0.2026
 3580TIP3    H110746   6.325   3.698   1.032  0.6409 -0.0654 -0.4968
 3580TIP3    H210747   6.254   3.575   0.979  1.7870 -1.5475  1.2936
 3581TIP3   OH210748   6.329   5.978   4.131  0.4238  0.4020  0.1575
 3581TIP3    H110749   6.301   6.018   4.049  1.3141  0.2026 -0.2576
 3581TIP3    H210750   6.261   5.914   4.152 -0.1143  0.8932 -0.1032
 3582TIP3   OH210751   1.174   3.909   1.185  0.0985  0.0102  0.1629
 3582TIP3    H110752   1.228   3.870   1.253 -0.6935  2.0358  2.0693
 3582TIP3    H210753   1.234   3.927   1.113  1.1745 -1.2079  0.7355
 3583TIP3   OH210754   4.308   2.128   2.553  0.5658 -0.2804 -0.6469
 3583TIP3    H110755   4.346   2.062   2.496  1.2890 -1.6702  1.3556
 3583TIP3    H210756   4.222   2.146   2.514  1.1739 -0.8582 -2.3557
 3584TIP3   OH210757   3.041   0.751   0.775 -0.1051  0.3939 -0.2632
 3584TIP3    H110758   2.973   0.764   0.708 -2.3899  0.5466  1.9132
 3584TIP3    H210759   3.038   0.658   0.795  0.2540  0.4178 -0.0849
 3585TIP3   OH210760   0.021   2.854   3.522  0.0984 -0.1859 -0.3843
 3585TIP3    H110761   0.086   2.900   3.468 -0.5606  0.3754 -0.7180
 3585TIP3    H210762   0.041   2.761   3.510  1.9906 -0.0053  0.9699
 3586TIP3   OH210763   6.328   5.164  -0.001  0.6788  0.4111  0.2266
 3586TIP3    H110764   6.261   5.154   0.066  1.0413  0.7122  0.6419
 3586TIP3    H210765   6.355   5.255   0.007  1.9225  0.0090  0.8185
 3587TIP3   OH210766   1.291   4.250   2.602 -0.1179  0.0287 -0.0251
 3587TIP3    H110767   1.317   4.229   2.692 -1.3525  0.6906  0.5062
 3587TIP3    H210768   1.343   4.328   2.580  1.5758 -1.1886 -0.6040
 3588TIP3   OH210769   0.879   1.362   4.234 -0.2832 -0.1449 -0.0467
 3588TIP3    H110770   0.875   1.407   4.318 -1.3648  0.3009 -0.3153
 3588TIP3    H210771   0.788   1.352   4.208  0.0299 -0.3538 -1.1263
 3589TIP3   OH210772   2.052   3.897   3.208  0.3066 -0.7466  0.6277
 3589TIP3    H110773   1.975   3.911   3.264 -0.1702  0.4951 -0.2915
 3589TIP3    H210774   2.021   3.837   3.140 -0.2049  0.5717 -0.3504
 3590TIP3   OH210775   0.465   4.575   2.092 -1.1673  0.0126  0.4253
 3590TIP3    H110776   0.460   4.527   2.009  0.8475 -0.2336  0.4028
 3590TIP3    H210777   0.376   4.607   2.106 -1.6613 -0.3157 -1.5984
 3591TIP3   OH210778   1.711   1.136   4.801 -0.1680  0.1731 -0.1153
 3591TIP3    H110779   1.703   1.230   4.782 -0.0704  0.7919  2.4903
 3591TIP3    H210780   1.637   1.118   4.859  0.1580 -1.2279 -0.1186
 3592TIP3   OH210781   0.043   4.084   2.106 -0.1549 -0.3232  0.4405
 3592TIP3    H110782   0.083   3.999   2.120  0.3771 -0.2576 -0.6330
 3592TIP3    H210783  -0.029   4.087   2.169  0.0511 -1.4064  0.7427
 3593TIP3   OH210784   6.298   3.695   4.673 -0.2795  0.3238  0.1796
 3593TIP3    H110785   6.360   3.684   4.745 -0.1304  0.4356  0.0710
 3593TIP3    H210786   6.223   3.641   4.696  0.4121 -0.8959 -0.3304
 3594TIP3   OH210787   1.295   1.686   5.078  0.3176 -0.3892  0.0245
 3594TIP3    H110788   1.326   1.600   5.049  1.6231 -0.0170  0.2539
 3594TIP3    H210789   1.260   1.670   5.166 -0.9531 -0.9685 -0.5554
 3595TIP3   OH210790   4.446   5.437   3.301 -0.1951  0.3014  0.4932
 3595TIP3    H110791   4.429   5.526   3.273 -1.5472 -0.3670 -0.9786
 3595TIP3    H210792   4.361   5.394   3.299  0.5466 -1.2585  0.2790
 3596TIP3   OH210793   5.393   5.316   3.091 -0.0006 -0.1626 -0.0559
 3596TIP3    H110794   5.393   5.333   2.997  0.5277 -1.6126 -0.3472
 3596TIP3    H210795   5.456   5.244   3.102  0.8516  0.7776  1.5558
 3597TIP3   OH210796   2.702   5.251   4.390 -0.7564 -0.4060 -0.0756
 3597TIP3    H110797   2.611   5.220   4.397 -0.6792 -0.7513 -0.4828
 3597TIP3    H210798   2.702   5.304   4.310 -0.6444 -0.2344  0.0385
 3598TIP3   OH210799   1.903   3.068   4.862 -0.0568 -0.4971  0.3118
 3598TIP3    H110800   1.834   3.027   4.810 -1.3115  1.1175  0.6170
 3598TIP3    H210801   1.915   3.009   4.936  0.3692 -1.8332 -0.7791
 3599TIP3   OH210802   5.954   4.165   2.376  0.7030  0.1574  0.2549
 3599TIP3    H110803   5.919   4.090   2.423  0.1104  0.6895  0.6744
 3599TIP3    H210804   5.902   4.169   2.296 -1.1216  1.6963  1.4439
 3600TIP3   OH210805   5.776   3.948   2.406  0.9375 -0.1689  0.3385
 3600TIP3    H110806   5.702   4.003   2.432 -0.1860 -1.2675 -0.3985
 3600TIP3    H210807   5.764   3.867   2.456  2.7757  0.3101  1.6949
 3601TIP3   OH210808   6.006   3.864   3.853 -0.3421  0.2874  0.8423
 3601TIP3    H110809   6.005   3.960   3.853 -2.1773  0.3183 -0.4245
 3601TIP3    H210810   5.933   3.839   3.796  0.3104 -1.8758  0.8681
 3602TIP3   OH210811   4.736   4.003   2.481  0.1913 -0.7728 -0.0770
 3602TIP3    H110812   4.826   3.971   2.476  0.2733 -0.3959 -1.1030
 3602TIP3    H210813   4.700   3.989   2.394 -0.5547 -0.3532  0.1551
 3603TIP3   OH210814   1.720   0.678   3.437 -0.0027 -0.0649 -0.4197
 3603TIP3    H110815   1.637   0.723   3.420  0.6746  1.7532  0.7593
 3603TIP3    H210816   1.783   0.749   3.453  1.2030 -1.4323  1.2795
 3604TIP3   OH210817   3.059   0.153   2.332 -1.0987  0.3618 -0.5109
 3604TIP3    H110818   3.000   0.222   2.302 -2.1668  0.4672  1.6411
 3604TIP3    H210819   3.137   0.200   2.363 -0.7481  0.3812 -1.3940
 3605TIP3   OH210820   6.088   1.545   1.268 -0.1014 -0.5023 -0.1042
 3605TIP3    H110821   6.014   1.490   1.245 -0.7685 -0.7403  2.3368
 3605TIP3    H210822   6.095   1.608   1.196 -3.0470 -0.1092 -0.1443
 3606TIP3   OH210823   2.446   5.113   3.581 -0.6504 -0.3823  0.1109
 3606TIP3    H110824   2.521   5.170   3.595 -1.2185 -0.0305  2.0142
 3606TIP3    H210825   2.429   5.118   3.487  0.4171  1.1699 -0.0338
 3607TIP3   OH210826   3.797   3.849   2.942  0.0778 -0.4794 -0.7938
 3607TIP3    H110827   3.784   3.761   2.977 -0.2870  0.7675  2.6114
 3607TIP3    H210828   3.721   3.898   2.974  0.8858  1.3688 -1.5843
 3608TIP3   OH210829   4.020   4.875   2.770  0.3011  0.0646  0.2442
 3608TIP3    H110830   4.009   4.803   2.708 -1.7448  1.8171 -1.6620
 3608TIP3    H210831   3.943   4.871   2.826  0.6906  0.1762  0.7968
 3609TIP3   OH210832   1.556   3.189   4.722 -0.2690  0.1773 -0.6799
 3609TIP3    H110833   1.568   3.282   4.741  1.0924 -0.5486  2.5526
 3609TIP3    H210834   1.622   3.170   4.654  0.8709  1.1731  0.1011
 3610TIP3   OH210835   3.501   0.482   5.029 -0.2812 -0.3992 -0.0823
 3610TIP3    H110836   3.532   0.508   4.942  0.5498  1.1115  0.6233
 3610TIP3    H210837   3.427   0.540   5.046 -0.4648 -0.7189  0.2016
 3611TIP3   OH210838   4.067   4.381   0.719  0.3775  0.0659 -0.0769
 3611TIP3    H110839   4.082   4.303   0.772 -1.9283  0.0028  0.5958
 3611TIP3    H210840   4.154   4.406   0.687  1.8141 -0.3005  3.1358
 3612TIP3   OH210841   2.606   5.691   4.570  0.0241 -0.0183 -0.2058
 3612TIP3    H110842   2.658   5.754   4.619  1.2734 -1.2254  0.0697
 3612TIP3    H210843   2.516   5.707   4.599  0.3966  1.1597  0.3657
 3613TIP3   OH210844   5.688   0.264   4.070 -0.9579 -0.3313  0.1355
 3613TIP3    H110845   5.698   0.305   4.156  1.8913 -0.8615  0.1574
 3613TIP3    H210846   5.601   0.290   4.040 -0.8513  2.3536  1.8835
 3614TIP3   OH210847   3.386   4.215   0.712 -0.1965 -0.0381 -0.0944
 3614TIP3    H110848   3.461   4.273   0.700  0.1902 -0.4484  0.2497
 3614TIP3    H210849   3.400   4.144   0.650  0.2565 -0.6463  0.6769
 3615TIP3   OH210850   2.053   1.978   2.046  0.2153  0.6268 -0.0445
 3615TIP3    H110851   2.054   1.922   2.124  0.5270  0.4844 -0.1520
 3615TIP3    H210852   2.141   1.970   2.009  0.4708  1.7216  0.3082
 3616TIP3   OH210853   4.993   2.479   3.975  0.1237 -0.3535 -0.1083
 3616TIP3    H110854   4.976   2.474   3.881 -0.9902 -1.6397  0.1346
 3616TIP3    H210855   5.032   2.394   3.997  0.7109  0.0714  0.5380
 3617TIP3   OH210856   6.030   0.379   1.111 -0.6433  0.3174  0.2742
 3617TIP3    H110857   6.103   0.329   1.073 -0.6209 -0.1017  0.8579
 3617TIP3    H210858   6.067   0.464   1.132 -0.4090  0.2257  0.2362
 3618TIP3   OH210859   5.028   1.480   1.736  0.0600 -0.0595 -0.8270
 3618TIP3    H110860   5.009   1.545   1.669 -1.8016 -1.9973 -2.3256
 3618TIP3    H210861   5.100   1.518   1.787 -0.0699  2.5343 -2.4065
 3619TIP3   OH210862   4.226   4.895   0.262 -0.7925 -0.2036  0.0578
 3619TIP3    H110863   4.230   4.986   0.233  0.9031 -0.3161 -0.1593
 3619TIP3    H210864   4.219   4.901   0.358  0.7947  0.1941  0.1794
 3620TIP3   OH210865   3.930   2.820   4.560 -0.4708  0.5113  0.0301
 3620TIP3    H110866   3.935   2.855   4.471 -0.5007  1.5592  0.4236
 3620TIP3    H210867   3.927   2.725   4.549  1.2856  0.5537 -0.9983
 3621TIP3   OH210868   3.908   4.494   4.114 -0.1765 -0.3527 -0.2496
 3621TIP3    H110869   3.876   4.423   4.171 -0.1124  0.2808  0.6042
 3621TIP3    H210870   3.971   4.452   4.056 -0.8268 -1.1739 -0.3893
 3622TIP3   OH210871   3.092   4.000   5.176 -0.5610 -0.6411 -0.1954
 3622TIP3    H110872   3.063   4.035   5.092  0.8155 -0.3371 -0.5677
 3622TIP3    H210873   3.080   3.905   5.169 -0.3575 -0.6251 -0.7776
 3623TIP3   OH210874   3.489   2.885   1.576 -0.0685 -0.5593 -0.4974
 3623TIP3    H110875   3.405   2.844   1.596 -0.4965 -0.4565 -1.9401
 3623TIP3    H210876   3.526   2.909   1.661 -2.2791  0.9411  0.1228
 3624TIP3   OH210877   0.044   4.438   1.132  0.3189 -0.0349 -0.3120
 3624TIP3    H110878   0.105   4.487   1.077 -1.0144  2.5514  0.3845
 3624TIP3    H210879   0.073   4.455   1.221  2.0159 -3.6063  0.0252
 3625TIP3   OH210880   1.761   1.293   1.593 -0.5207  0.0703 -0.3306
 3625TIP3    H110881   1.798   1.211   1.559 -0.1580  0.3345 -0.5876
 3625TIP3    H210882   1.768   1.354   1.519 -3.4911 -0.4408 -1.1754
 3626TIP3   OH210883   2.087   2.638   0.802  0.4253 -0.0648 -0.3608
 3626TIP3    H110884   2.155   2.580   0.768 -1.1035 -1.5975 -0.9119
 3626TIP3    H210885   2.053   2.683   0.724 -0.7800 -1.0729 -0.4408
 3627TIP3   OH210886   3.851   5.567   0.395 -0.4009 -0.1169 -0.3076
 3627TIP3    H110887   3.940   5.595   0.374  0.2992 -0.6087  1.7933
 3627TIP3    H210888   3.795   5.637   0.361  0.9431  1.2960  0.2530
 3628TIP3   OH210889   1.861   4.956   0.490 -0.1868 -0.4968  0.0725
 3628TIP3    H110890   1.817   4.984   0.570 -2.1181 -0.9739 -0.7754
 3628TIP3    H210891   1.857   4.860   0.493 -0.1958 -0.5184 -0.5456
 3629TIP3   OH210892   2.201   1.494   3.307 -0.0488 -0.0142  0.5377
 3629TIP3    H110893   2.152   1.454   3.379  1.0066  0.3847  1.5213
 3629TIP3    H210894   2.195   1.431   3.236  0.0367 -1.0939  1.4522
 3630TIP3   OH210895   0.842   2.514   2.298  0.0938  0.1061  0.0254
 3630TIP3    H110896   0.798   2.434   2.326 -0.6286  0.6548  0.4854
 3630TIP3    H210897   0.928   2.485   2.269 -1.3789 -1.3732 -3.3521
 3631TIP3   OH210898   5.195   4.662   1.759 -0.1334 -0.0632  0.0077
 3631TIP3    H110899   5.247   4.622   1.829  1.6494  1.0943 -0.5622
 3631TIP3    H210900   5.130   4.715   1.805 -0.2580 -0.8637  0.7704
 3632TIP3   OH210901   1.497   1.926   4.606  0.7814 -0.3195 -0.5637
 3632TIP3    H110902   1.503   2.006   4.658  1.1408  0.0844 -1.2208
 3632TIP3    H210903   1.553   1.942   4.531 -1.7395  0.1587 -2.4761
 3633TIP3   OH210904   5.952   0.974   1.801 -0.2119 -0.0600 -0.2007
 3633TIP3    H110905   5.919   1.027   1.729  0.4211 -1.8122 -1.8536
 3633TIP3    H210906   5.874   0.933   1.838 -0.6674  1.6690  0.8882
 3634TIP3   OH210907   6.291   5.095   4.496 -0.0330 -0.3370 -0.6265
 3634TIP3    H110908   6.335   5.113   4.579  0.2977  0.1684 -0.9067
 3634TIP3    H210909   6.332   5.014   4.465 -1.4553 -1.5765  0.5869
 3635TIP3   OH210910   3.262   3.133   3.192 -0.4831 -0.2627 -0.3738
 3635TIP3    H110911   3.309   3.061   3.234  0.5847  1.1986  1.0614
 3635TIP3    H210912   3.170   3.108   3.197 -0.3369 -0.5170  2.2125
 3636TIP3   OH210913   5.677   2.044   2.493 -0.1350  0.8192 -0.0287
 3636TIP3    H110914   5.740   1.988   2.447 -1.2216 -1.7350  1.3975
 3636TIP3    H210915   5.730   2.092   2.557  0.7669  1.0916 -0.9589
 3637TIP3   OH210916   0.509   3.700   4.604  0.3594 -0.3539 -0.4316
 3637TIP3    H110917   0.546   3.787   4.616  0.8231 -0.4508 -1.0831
 3637TIP3    H210918   0.576   3.640   4.638 -0.4567 -0.4261  1.1316
 3638TIP3   OH210919   5.722   5.356   3.128 -0.3235 -0.4957  0.3316
 3638TIP3    H110920   5.670   5.276   3.133 -0.6791 -0.3923 -1.1407
 3638TIP3    H210921   5.735   5.382   3.219  0.0247 -2.3585  0.8555
 3639TIP3   OH210922   3.655   2.302   1.136  0.3229  0.7592  0.7006
 3639TIP3    H110923   3.718   2.331   1.201 -0.1053 -0.9029  1.9359
 3639TIP3    H210924   3.588   2.255   1.186  0.8474 -2.0883 -1.0132
 3640TIP3   OH210925   0.680   0.183   1.468  0.8311  0.2720  0.2003
 3640TIP3    H110926   0.597   0.230   1.469  0.7748  0.2349  2.1626
 3640TIP3    H210927   0.657   0.092   1.483  1.1014 -0.0778 -1.3744
 3641TIP3   OH210928   2.978   2.959   2.926  0.5168  0.3947  0.1760
 3641TIP3    H110929   2.955   3.052   2.927 -0.6918  0.1258 -0.4182
 3641TIP3    H210930   2.965   2.931   3.016 -0.9561  0.4153  0.0108
 3642TIP3   OH210931   3.046   3.465   3.764  0.0549  0.0636  0.2624
 3642TIP3    H110932   3.108   3.393   3.777  0.0054  0.5189  4.2604
 3642TIP3    H210933   3.002   3.474   3.848 -0.9344  3.8911 -0.4743
 3643TIP3   OH210934   3.499   1.704   4.803 -0.3542 -0.5778 -0.1412
 3643TIP3    H110935   3.548   1.739   4.729  0.0779 -1.1884 -0.1501
 3643TIP3    H210936   3.439   1.774   4.827  0.0783 -0.0638 -0.5404
 3644TIP3   OH210937   2.306   2.814   1.462 -0.4594 -0.4816 -0.3496
 3644TIP3    H110938   2.387   2.825   1.513 -0.6534  0.2658 -0.1986
 3644TIP3    H210939   2.248   2.765   1.521 -0.6276  0.2410  0.0985
 3645TIP3   OH210940   1.864   5.449   4.228  0.0447  0.6132  0.0741
 3645TIP3    H110941   1.775   5.452   4.262 -0.4913 -1.7648 -0.8687
 3645TIP3    H210942   1.859   5.489   4.141 -0.0604  0.6988  0.1210
 3646TIP3   OH210943   3.717   2.941   2.997 -0.2642  0.5067  0.0179
 3646TIP3    H110944   3.653   3.011   3.006 -2.1253 -0.9964 -0.7511
 3646TIP3    H210945   3.744   2.921   3.087 -1.1124  0.9822  0.3858
 3647TIP3   OH210946   5.063   1.326   3.885  0.3607 -0.0768 -0.6228
 3647TIP3    H110947   5.120   1.403   3.879  2.5209 -1.4974  0.3969
 3647TIP3    H210948   4.981   1.360   3.921  0.6684  1.9811 -1.7130
 3648TIP3   OH210949   1.299   5.105   4.141 -0.2068 -0.0649 -0.0980
 3648TIP3    H110950   1.394   5.101   4.132 -0.0539 -1.0917  1.5190
 3648TIP3    H210951   1.284   5.180   4.199 -0.2445 -0.8270  0.9042
 3649TIP3   OH210952   0.176   4.049   0.102 -0.2290  0.4012  0.0980
 3649TIP3    H110953   0.152   4.033   0.194 -0.4870  0.8480  0.1104
 3649TIP3    H210954   0.217   4.136   0.102  1.7897 -0.4901  0.1388
 3650TIP3   OH210955   0.660   2.658   2.152  0.6048  0.1193 -0.0615
 3650TIP3    H110956   0.614   2.580   2.120 -1.2201  1.0363  0.1487
 3650TIP3    H210957   0.722   2.625   2.217  3.0721 -1.5981 -3.0393
 3651TIP3   OH210958   6.188   1.800   4.773  0.0688 -0.2153  0.0448
 3651TIP3    H110959   6.141   1.749   4.707  0.4888 -0.2287 -0.2500
 3651TIP3    H210960   6.211   1.882   4.728 -1.0092  0.4494  0.6524
 3652TIP3   OH210961   3.439   0.337   1.106 -0.0954 -0.0967  0.0914
 3652TIP3    H110962   3.378   0.385   1.049 -1.2487 -0.9695  0.5692
 3652TIP3    H210963   3.522   0.384   1.095 -0.0742 -0.6096 -2.8343
 3653TIP3   OH210964   5.861   5.740   0.317  0.1835  0.1191 -0.4710
 3653TIP3    H110965   5.940   5.741   0.263  0.3666 -3.0520 -0.4737
 3653TIP3    H210966   5.881   5.676   0.386 -0.2103  3.5983  3.2024
 3654TIP3   OH210967   0.719   0.804   4.978 -0.1315  0.3097 -0.2588
 3654TIP3    H110968   0.673   0.845   4.905  0.3779  1.3274 -0.0298
 3654TIP3    H210969   0.658   0.738   5.011 -0.8087  0.5984 -0.9045
 3655TIP3   OH210970   1.104   0.068   0.133  0.3859  0.2174 -0.1066
 3655TIP3    H110971   1.113   0.010   0.057  0.8840  1.2171 -0.8288
 3655TIP3    H210972   1.010   0.073   0.149  0.1500  1.2703 -1.6773
 3656TIP3   OH210973   1.269   2.950   5.159  0.3303 -0.0572 -0.2774
 3656TIP3    H110974   1.328   3.002   5.104  1.5294 -0.9230  0.1330
 3656TIP3    H210975   1.189   2.940   5.107  0.0402  2.1920 -0.3555
 3657TIP3   OH210976   2.106   0.502   0.308 -0.4329  0.1547  0.7106
 3657TIP3    H110977   2.158   0.466   0.236 -0.3679 -0.4022  1.0285
 3657TIP3    H210978   2.172   0.531   0.372 -0.5010 -0.1026  0.8993
 3658TIP3   OH210979   3.477   3.561   0.617 -0.3693 -0.2314 -0.2280
 3658TIP3    H110980   3.408   3.531   0.675  0.7099  0.4028  1.4537
 3658TIP3    H210981   3.543   3.599   0.675  0.3242  1.3346 -1.9332
 3659TIP3   OH210982   4.290   1.756   3.213  0.4322  0.2661 -0.3389
 3659TIP3    H110983   4.350   1.688   3.181 -2.5595 -1.6764 -2.2944
 3659TIP3    H210984   4.232   1.773   3.139 -0.3988  3.3535  0.8823
 3660TIP3   OH210985   0.858   0.543   2.643 -0.0328 -0.2758 -0.1288
 3660TIP3    H110986   0.931   0.504   2.595  0.3606 -0.1304  0.3378
 3660TIP3    H210987   0.900   0.609   2.700 -0.3631 -1.1631  1.1780
 3661TIP3   OH210988   1.506   0.935   2.643  0.6585 -0.9735  0.6035
 3661TIP3    H110989   1.511   0.978   2.729  0.5768 -1.0695  0.6562
 3661TIP3    H210990   1.596   0.907   2.625  0.5788 -1.4196  0.8963
 3662TIP3   OH210991   1.001   4.989   3.511  0.5526 -0.5420  0.1203
 3662TIP3    H110992   0.910   4.980   3.541  0.7273 -1.2879  0.4549
 3662TIP3    H210993   1.040   4.903   3.528  1.7317  0.1956  1.3807
 3663TIP3   OH210994   1.767   0.436   0.579 -0.1704  0.0826  0.1645
 3663TIP3    H110995   1.724   0.362   0.621 -1.9212  1.2790  0.6002
 3663TIP3    H210996   1.700   0.505   0.578  1.3160  1.5766 -0.4370
 3664TIP3   OH210997   5.410   0.640   1.115 -0.0444  0.1946 -0.0379
 3664TIP3    H110998   5.316   0.659   1.105 -0.1363 -0.7599 -1.1995
 3664TIP3    H210999   5.426   0.568   1.054  1.0581 -0.9071  1.4777
 3665TIP3   OH211000   5.710   2.611   1.266 -0.1491  0.5919 -0.3953
 3665TIP3    H111001   5.672   2.598   1.179 -0.7950  0.6374 -0.1272
 3665TIP3    H211002   5.803   2.630   1.250 -0.1519  0.0809 -1.0435
 3666TIP3   OH211003   2.914   0.860   1.408  0.4548  0.0531 -0.2744
 3666TIP3    H111004   2.911   0.938   1.463  0.3918  1.1109 -1.7239
 3666TIP3    H211005   2.899   0.892   1.319 -0.5919 -1.7367 -0.8032
 3667TIP3   OH211006   0.597   4.501   0.736  0.3252 -0.3825  0.3516
 3667TIP3    H111007   0.684   4.540   0.738  0.5319 -0.6584 -1.4068
 3667TIP3    H211008   0.553   4.546   0.663 -0.9876 -0.2836  1.1783
 3668TIP3   OH211009   0.051   2.165   1.473  0.0462 -0.2120 -0.6471
 3668TIP3    H111010   0.142   2.138   1.463  0.4575  0.0764  1.7316
 3668TIP3    H211011   0.001   2.101   1.423  1.4871 -0.7580 -1.4499
 3669TIP3   OH211012   1.659   5.971   0.491 -0.5529  0.1848 -0.3739
 3669TIP3    H111013   1.652   5.877   0.511  0.8766  0.3873  1.3362
 3669TIP3    H211014   1.728   5.976   0.426  0.9744  0.1726  1.1743
 3670TIP3   OH211015   4.230   1.004   1.990  0.0969 -0.4183 -0.6789
 3670TIP3    H111016   4.191   1.019   2.076 -0.0895 -0.8452 -0.6866
 3670TIP3    H211017   4.189   1.069   1.933  0.8499  0.4390 -0.2679
 3671TIP3   OH211018   5.436   2.604   0.779 -0.4450 -0.0095  0.0573
 3671TIP3    H111019   5.358   2.614   0.834 -0.8046 -0.5009 -0.3583
 3671TIP3    H211020   5.438   2.682   0.724 -0.7826 -0.1182 -0.1071
 3672TIP3   OH211021   2.483   3.595   1.553  0.7709  0.4561 -0.2850
 3672TIP3    H111022   2.527   3.510   1.549 -1.0836 -0.5443 -0.9169
 3672TIP3    H211023   2.438   3.595   1.637 -0.1171  0.3249 -0.7482
 3673TIP3   OH211024   2.025   1.505   2.558 -0.3089 -0.1875 -0.5367
 3673TIP3    H111025   1.988   1.444   2.493  1.0924 -0.2961 -1.2760
 3673TIP3    H211026   2.052   1.449   2.631 -2.6936  0.0250  0.5995
 3674TIP3   OH211027   5.508   0.043   4.898 -0.0078  0.5785 -0.3073
 3674TIP3    H111028   5.499   0.035   4.993 -1.6010  0.5412 -0.4263
 3674TIP3    H211029   5.470  -0.038   4.863 -0.1719  0.9403 -0.9970
 3675TIP3   OH211030   0.693   0.872   3.570  0.2571 -0.1956  0.2519
 3675TIP3    H111031   0.626   0.815   3.531  0.0135  0.0755  0.2663
 3675TIP3    H211032   0.765   0.813   3.591 -0.3730 -0.6740  1.1542
 3676TIP3   OH211033   3.874   0.694   0.139  0.5328  0.3264 -0.5307
 3676TIP3    H111034   3.888   0.786   0.117  0.6027  0.2725 -0.7128
 3676TIP3    H211035   3.839   0.696   0.228  0.6482  0.5212 -0.4891
 3677TIP3   OH211036   1.099   3.456   3.690 -0.3668 -0.6953  0.1381
 3677TIP3    H111037   1.172   3.470   3.750 -1.9137  0.9070  1.8013
 3677TIP3    H211038   1.110   3.366   3.658  2.5424 -0.3505 -0.0921
 3678TIP3   OH211039   0.136   5.641   2.710  0.5070  0.0980  0.1820
 3678TIP3    H111040   0.204   5.627   2.776 -0.5616 -0.2503  1.2403
 3678TIP3    H211041   0.054   5.639   2.759 -0.1890  2.9444 -0.6656
 3679TIP3   OH211042   3.584   3.823   3.951  0.4614  0.3833  0.8899
 3679TIP3    H111043   3.533   3.743   3.946 -0.7954  1.1351  1.2124
 3679TIP3    H211044   3.570   3.866   3.866 -0.6340  1.2644  1.4834
 3680TIP3   OH211045   2.703   2.512   1.385  0.0507  0.0498  0.2121
 3680TIP3    H111046   2.738   2.551   1.305 -1.6424  1.7159  0.2266
 3680TIP3    H211047   2.610   2.534   1.385 -0.6450 -2.4651  1.1781
 3681TIP3   OH211048   1.668   4.030   1.307 -0.3541 -0.0612 -0.7059
 3681TIP3    H111049   1.611   3.953   1.308  0.6387 -0.8382 -1.3924
 3681TIP3    H211050   1.609   4.104   1.315 -1.3034 -0.9081  0.3705
 3682TIP3   OH211051   4.717   5.274   3.979 -0.3193 -0.2151 -0.0616
 3682TIP3    H111052   4.690   5.244   3.892  0.2817  1.6126 -0.9269
 3682TIP3    H211053   4.676   5.360   3.989 -1.0355 -0.7305  1.8250
 3683TIP3   OH211054   6.276   0.435   3.679 -0.0814  0.3284 -0.2427
 3683TIP3    H111055   6.191   0.421   3.719 -0.4967 -0.5753 -1.3750
 3683TIP3    H211056   6.337   0.437   3.752 -0.9886  0.2729  0.5294
 3684TIP3   OH211057   2.169   1.200   0.250  0.2370  0.2055 -0.2353
 3684TIP3    H111058   2.102   1.137   0.277 -0.2496  0.7906 -0.0508
 3684TIP3    H211059   2.128   1.286   0.264  0.8132  0.5584 -0.6741
 3685TIP3   OH211060   0.595   2.301   4.993 -0.2466  0.0466 -1.0222
 3685TIP3    H111061   0.558   2.335   5.075 -0.2911 -0.5610 -0.7860
 3685TIP3    H211062   0.687   2.286   5.012 -0.0662  0.6983 -1.3419
 3686TIP3   OH211063   3.034   0.872   4.443  0.4454  0.0717 -0.3412
 3686TIP3    H111064   3.075   0.798   4.399  0.8832 -0.5774  1.0919
 3686TIP3    H211065   3.098   0.898   4.510  1.5017  3.4258 -2.4049
 3687TIP3   OH211066   2.083   0.230   4.263  0.3729 -0.0843 -0.3947
 3687TIP3    H111067   2.084   0.298   4.196 -1.4951  0.0454 -0.3498
 3687TIP3    H211068   2.091   0.148   4.215 -1.2710 -0.0072 -0.8329
 3688TIP3   OH211069   2.913   3.193   4.657  0.0574 -0.2112 -0.0898
 3688TIP3    H111070   2.865   3.274   4.637 -1.1842 -1.1038 -0.8660
 3688TIP3    H211071   2.856   3.146   4.718  0.8109 -0.4651  0.4214
 3689TIP3   OH211072   3.965   2.307   0.385  0.4621  0.9430  0.0980
 3689TIP3    H111073   3.871   2.316   0.367  0.0823  2.1432  2.3839
 3689TIP3    H211074   3.986   2.218   0.356 -1.9428 -0.2464  1.6495
 3690TIP3   OH211075   0.356   0.648   3.548 -0.3557  0.7812 -0.5045
 3690TIP3    H111076   0.304   0.728   3.551  0.5196  1.3720 -0.6025
 3690TIP3    H211077   0.293   0.579   3.526 -1.2631  1.3063  0.3770
 3691TIP3   OH211078   6.233   4.914   3.914  0.4122 -0.2438 -0.1245
 3691TIP3    H111079   6.148   4.900   3.955 -0.0721  1.2860 -0.5654
 3691TIP3    H211080   6.256   4.827   3.879 -0.7432 -0.7818  0.3804
 3692TIP3   OH211081   3.380   4.473   0.501 -0.1614  0.0244  0.0844
 3692TIP3    H111082   3.437   4.399   0.521 -1.3284 -0.5934  1.3088
 3692TIP3    H211083   3.322   4.441   0.432  1.6452  1.0358 -2.0246
 3693TIP3   OH211084   2.916   4.747   2.007  0.2559 -0.6461 -0.0265
 3693TIP3    H111085   2.870   4.734   1.924  0.4021 -1.3395 -0.0099
 3693TIP3    H211086   2.991   4.687   2.002  1.4143  0.7674 -0.2374
 3694TIP3   OH211087   2.879   3.467   4.439  0.3161  0.7524  0.5165
 3694TIP3    H111088   2.967   3.500   4.458  1.0882  1.5199 -3.4574
 3694TIP3    H211089   2.821   3.540   4.461  1.0649  1.5201 -0.0191
 3695TIP3   OH211090   3.086   4.080   2.262  0.2065 -0.2408 -0.1573
 3695TIP3    H111091   3.127   4.063   2.178  0.9554 -0.2695  0.2097
 3695TIP3    H211092   3.016   4.015   2.269  1.7743 -1.9339  0.3659
 3696TIP3   OH211093   2.944   2.392   1.518  0.3761 -0.2449  0.0389
 3696TIP3    H111094   2.899   2.450   1.457 -1.6824 -1.0631  0.7054
 3696TIP3    H211095   3.014   2.446   1.555 -0.3298  1.2317 -0.6972
 3697TIP3   OH211096   6.124   5.804   0.939  0.2141 -0.3149  0.0690
 3697TIP3    H111097   6.193   5.814   0.874  1.3760 -0.3261  1.2664
 3697TIP3    H211098   6.063   5.742   0.900  0.9908 -0.4832 -0.9183
 3698TIP3   OH211099   3.568   1.077   2.764 -0.7750  0.5287 -0.0031
 3698TIP3    H111100   3.598   1.164   2.741  0.5849 -0.1821 -1.0310
 3698TIP3    H211101   3.644   1.033   2.802 -2.0295  0.5049  2.7967
 3699TIP3   OH211102   0.305   0.547   1.760 -0.3036 -0.1008  0.0600
 3699TIP3    H111103   0.392   0.553   1.799 -0.8312  2.6933  1.0029
 3699TIP3    H211104   0.266   0.470   1.801  1.0294 -0.2487  1.1139
 3700TIP3   OH211105   3.097   4.695   0.650 -1.2877 -0.4390 -0.8087
 3700TIP3    H111106   3.186   4.698   0.685 -2.1956  1.0472  1.6408
 3700TIP3    H211107   3.096   4.763   0.583 -0.2486 -1.4579 -1.9200
 3701TIP3   OH211108   3.711   0.164   3.210 -0.2819 -0.0857 -0.1738
 3701TIP3    H111109   3.801   0.182   3.235 -0.5699 -0.1121  0.9432
 3701TIP3    H211110   3.674   0.250   3.190 -0.3528  0.0738  0.6026
 3702TIP3   OH211111   5.858   4.356   3.646 -0.5327  0.4678 -0.3140
 3702TIP3    H111112   5.949   4.380   3.627 -0.5892  0.0303 -1.2043
 3702TIP3    H211113   5.835   4.293   3.577 -1.0921 -0.4439  0.6719
 3703TIP3   OH211114   4.780   4.482   0.695  0.4223 -0.2005 -0.2898
 3703TIP3    H111115   4.763   4.569   0.657  1.5202 -0.2620 -0.9910
 3703TIP3    H211116   4.702   4.431   0.675 -0.6177  0.8512  0.8932
 3704TIP3   OH211117   1.910   2.760   2.373  0.3872  0.2380  0.0720
 3704TIP3    H111118   1.902   2.826   2.304  2.4507 -0.2574 -0.7184
 3704TIP3    H211119   1.825   2.716   2.374 -0.5994  2.0617 -0.2378
 3705TIP3   OH211120   1.421   5.799   2.318  0.6389 -0.4884  0.1871
 3705TIP3    H111121   1.385   5.725   2.367  1.4249 -0.6048  0.6142
 3705TIP3    H211122   1.471   5.758   2.247 -1.4208 -0.3151 -1.4529
 3706TIP3   OH211123   1.157   1.226   2.528 -0.1648  0.6418  0.1617
 3706TIP3    H111124   1.177   1.185   2.612 -0.8030  0.1118  0.0672
 3706TIP3    H211125   1.229   1.287   2.513  1.1254 -0.8275  0.0419
 3707TIP3   OH211126   6.166   5.185   4.227 -0.0042 -0.3199 -0.2834
 3707TIP3    H111127   6.215   5.264   4.204 -0.7073  0.4795  0.8465
 3707TIP3    H211128   6.204   5.157   4.310 -0.1131 -0.8741 -0.4164
 3708TIP3   OH211129   0.211   0.898   3.577  0.1832 -0.5525 -0.5781
 3708TIP3    H111130   0.116   0.889   3.583 -0.2088  1.2233 -2.8853
 3708TIP3    H211131   0.234   0.958   3.648 -0.4686 -0.5945 -0.3261
 3709TIP3   OH211132   4.503   3.530   4.401 -0.5845 -0.2556  0.0358
 3709TIP3    H111133   4.424   3.564   4.443 -0.4383  1.4368 -0.9408
 3709TIP3    H211134   4.560   3.606   4.394  1.2741 -1.4983  0.9666
 3710TIP3   OH211135   4.144   5.584   2.638  0.6545  0.4378  0.3147
 3710TIP3    H111136   4.104   5.498   2.652 -1.1048  0.9648 -1.0624
 3710TIP3    H211137   4.192   5.575   2.556 -0.7080  1.0894 -0.6040
 3711TIP3   OH211138   2.446   4.232   2.250  0.0298  0.1603  0.0472
 3711TIP3    H111139   2.434   4.141   2.279 -1.8636  0.9909  2.1531
 3711TIP3    H211140   2.364   4.254   2.207 -0.6798  1.6801  2.0579
 3712TIP3   OH211141   4.796   3.094   3.686 -0.2193 -0.5026 -0.0801
 3712TIP3    H111142   4.805   3.064   3.777 -0.1422 -5.1085 -1.3749
 3712TIP3    H211143   4.703   3.114   3.677 -0.0026  1.3652  1.2709
 3713TIP3   OH211144   0.311   5.591   0.444 -0.3830  0.3376 -0.3455
 3713TIP3    H111145   0.293   5.679   0.413  2.2210  1.7543  1.7094
 3713TIP3    H211146   0.239   5.570   0.503 -0.4211  1.6309  0.0889
 3714TIP3   OH211147   3.936   2.664   3.917 -0.3661  0.1229 -0.0106
 3714TIP3    H111148   3.878   2.593   3.890 -0.4767  0.4516 -0.6668
 3714TIP3    H211149   3.968   2.702   3.834  1.8779 -0.9086  0.2940
 3715TIP3   OH211150   5.852   3.539   2.802 -0.4079  0.3083 -0.4889
 3715TIP3    H111151   5.770   3.567   2.761 -0.1007  0.8682 -0.7401
 3715TIP3    H211152   5.835   3.450   2.832 -0.1697 -0.7782 -3.3002
 3716TIP3   OH211153   2.419   3.373   5.038 -0.0361  0.1748 -0.1519
 3716TIP3    H111154   2.452   3.449   5.085  0.2635  0.0740 -0.1963
 3716TIP3    H211155   2.497   3.329   5.004 -0.3089  1.8345 -3.3103
 3717TIP3   OH211156   3.841   0.227   3.618  0.6065  0.0957  0.3493
 3717TIP3    H111157   3.889   0.305   3.645  0.1700 -0.6144  3.6474
 3717TIP3    H211158   3.752   0.258   3.603  0.8481  0.5125 -0.2595
 3718TIP3   OH211159   1.241   5.905   3.110  0.0169  0.1506  0.5099
 3718TIP3    H111160   1.177   5.972   3.084 -0.6704 -0.5649  0.2979
 3718TIP3    H211161   1.190   5.843   3.162  0.7863  0.1190  1.2307
 3719TIP3   OH211162   1.411   1.628   4.629  0.4425  0.1502  0.3995
 3719TIP3    H111163   1.466   1.704   4.613  2.1837 -1.0653  0.3483
 3719TIP3    H211164   1.421   1.574   4.551 -0.5676 -0.2692  0.5413
 3720TIP3   OH211165   1.014   0.685   0.223  0.4263 -0.3279 -0.0626
 3720TIP3    H111166   0.988   0.777   0.222 -0.3020 -0.4502 -3.1759
 3720TIP3    H211167   1.109   0.686   0.217  0.4053  0.2498 -0.3535
 3721TIP3   OH211168   5.164   3.565   2.736 -0.3075  0.0413  0.2381
 3721TIP3    H111169   5.174   3.632   2.669  2.1262  0.9038  1.3526
 3721TIP3    H211170   5.244   3.513   2.731 -2.3114 -3.2299 -0.9153
 3722TIP3   OH211171   3.204   3.427   3.344  0.0717  0.1838  0.5723
 3722TIP3    H111172   3.248   3.358   3.394  1.4859 -0.3104 -1.2316
 3722TIP3    H211173   3.151   3.379   3.279  1.2294  0.7201 -0.8346
 3723TIP3   OH211174   4.244   4.565   1.460  0.7959  0.2151  0.4463
 3723TIP3    H111175   4.230   4.657   1.482  0.1744  0.0328  0.8419
 3723TIP3    H211176   4.323   4.540   1.507  2.4399  1.2075 -1.6369
 3724TIP3   OH211177   2.936   3.832   2.282  0.1573  0.0091 -0.5863
 3724TIP3    H111178   2.920   3.743   2.250 -2.8009 -0.4305  1.6061
 3724TIP3    H211179   2.854   3.879   2.262  0.5029  1.3423  0.9415
 3725TIP3   OH211180   6.366   2.750   1.095 -0.0954  0.5448 -0.6053
 3725TIP3    H111181   6.333   2.785   1.012  0.3399 -1.1185 -1.5358
 3725TIP3    H211182   6.303   2.682   1.119 -0.9318  1.8898  1.1486
 3726TIP3   OH211183   2.296   4.788   2.683  0.2826  0.6667  0.0110
 3726TIP3    H111184   2.344   4.746   2.611  0.9379 -2.5316  2.1248
 3726TIP3    H211185   2.215   4.738   2.690  1.0011 -0.2692  2.5189
 3727TIP3   OH211186   2.852   0.780   0.073 -0.4476  0.5175 -0.5237
 3727TIP3    H111187   2.880   0.787  -0.018  0.4933  0.3900 -0.2542
 3727TIP3    H211188   2.820   0.690   0.081  1.2380 -0.1012 -0.2726
 3728TIP3   OH211189   2.344   1.492   1.527  0.0973 -0.2648 -0.4135
 3728TIP3    H111190   2.409   1.436   1.485 -0.2273  0.6845 -2.3077
 3728TIP3    H211191   2.387   1.522   1.607  1.6673 -0.3498 -1.1723
 3729TIP3   OH211192   5.083   2.854   0.247  0.2591  0.0068 -0.7759
 3729TIP3    H111193   5.133   2.784   0.290  1.4553  1.0005 -0.4826
 3729TIP3    H211194   5.087   2.927   0.309 -1.3116  0.2237 -0.8946
 3730TIP3   OH211195   6.011   2.602   3.035 -0.0171  0.6839 -0.5305
 3730TIP3    H111196   6.093   2.577   3.077  0.2518  0.0166 -1.4160
 3730TIP3    H211197   5.953   2.625   3.107  1.0843  1.6403  0.1015
 3731TIP3   OH211198   4.702   4.573   4.554  0.7287  0.0541  0.1090
 3731TIP3    H111199   4.647   4.651   4.550  1.0773  0.2996  0.0703
 3731TIP3    H211200   4.701   4.538   4.464  0.1905 -0.2538  0.2330
 3732TIP3   OH211201   0.348   3.896   3.751 -0.8656  0.2286  0.9362
 3732TIP3    H111202   0.429   3.935   3.783 -1.3957 -0.6424  3.6275
 3732TIP3    H211203   0.285   3.968   3.748  0.0142  1.0053 -1.6147
 3733TIP3   OH211204   3.168   1.646   5.142  0.0661  0.1981  0.8090
 3733TIP3    H111205   3.175   1.660   5.048 -0.2810 -1.0852  0.5789
 3733TIP3    H211206   3.250   1.604   5.167 -0.3073 -0.5062  0.8715
 3734TIP3   OH211207   2.932   1.014   4.819  0.2028  0.1813 -0.5210
 3734TIP3    H111208   3.005   0.975   4.772 -0.0599 -0.4593 -0.4097
 3734TIP3    H211209   2.971   1.085   4.871  0.5205  0.7574 -1.5219
 3735TIP3   OH211210   5.325   1.854   2.951 -0.2425 -0.3688  0.2919
 3735TIP3    H111211   5.312   1.861   2.856  0.4447 -1.4445  0.1051
 3735TIP3    H211212   5.305   1.942   2.984  0.4879  0.2998 -0.9575
 3736TIP3   OH211213   2.524   2.867   1.639 -0.0203  0.4034  0.0021
 3736TIP3    H111214   2.618   2.880   1.650  0.3154 -1.0092 -0.8374
 3736TIP3    H211215   2.486   2.954   1.644  1.5674  1.2502 -1.6244
 3737TIP3   OH211216   4.830   1.585   4.223 -0.1223  0.5010  0.3498
 3737TIP3    H111217   4.835   1.581   4.318 -0.6854  0.8052  0.3934
 3737TIP3    H211218   4.830   1.678   4.202 -0.0841  0.4384  0.0567
 3738TIP3   OH211219   1.761   3.707   1.220 -0.1299  0.3138  0.4730
 3738TIP3    H111220   1.779   3.664   1.304  0.8328 -1.2051 -0.4695
 3738TIP3    H211221   1.832   3.678   1.163 -0.3901  1.8625 -0.7066
 3739TIP3   OH211222   0.755   3.936   3.242  0.2580  0.2182  0.2633
 3739TIP3    H111223   0.677   3.897   3.203  1.6894 -1.6235 -0.9653
 3739TIP3    H211224   0.754   3.906   3.333  0.2669 -1.0519 -0.1322
 3740TIP3   OH211225   5.750   1.925   1.173 -0.1593  1.1732 -0.5751
 3740TIP3    H111226   5.766   2.019   1.180  0.2040  1.0843 -0.2147
 3740TIP3    H211227   5.773   1.904   1.082 -1.2318  1.6161 -0.9661
 3741TIP3   OH211228   0.801   2.515   4.291 -0.3942 -0.2126  0.5115
 3741TIP3    H111229   0.887   2.473   4.283 -1.9403 -3.4249 -1.5791
 3741TIP3    H211230   0.751   2.481   4.217 -2.8483  3.3348  0.2770
 3742TIP3   OH211231   0.084   4.203   4.167  0.4060 -0.5228 -0.5240
 3742TIP3    H111232   0.028   4.224   4.241  2.1201  2.2089  0.1731
 3742TIP3    H211233   0.140   4.132   4.198 -0.5291 -1.0711 -0.0848
 3743TIP3   OH211234   0.528   2.437   2.072  0.0500 -0.5693 -0.0119
 3743TIP3    H111235   0.439   2.441   2.036 -0.0393  0.4067  0.2814
 3743TIP3    H211236   0.533   2.351   2.113 -0.6840 -0.7222 -0.2255
 3744TIP3   OH211237   2.132   2.026   2.683  0.7769 -0.1087 -0.2571
 3744TIP3    H111238   2.093   1.940   2.696 -1.2253  0.7821  0.0563
 3744TIP3    H211239   2.098   2.056   2.599  1.2721  0.4701 -0.2596
 3745TIP3   OH211240   1.917   1.342   4.125 -0.0464  0.7779 -0.4216
 3745TIP3    H111241   1.870   1.265   4.154  1.6024  0.1155  0.6341
 3745TIP3    H211242   1.881   1.361   4.038 -2.1065  0.2607  0.2731
 3746TIP3   OH211243   0.904   3.421   0.492 -0.4938 -0.2234  0.1112
 3746TIP3    H111244   0.968   3.471   0.542 -1.0996 -0.6193  1.3183
 3746TIP3    H211245   0.819   3.452   0.522 -0.9226  0.5385 -1.7180
 3747TIP3   OH211246   3.822   2.350   2.184  0.7887  0.2526 -0.5482
 3747TIP3    H111247   3.736   2.352   2.141  1.0082  1.9188 -0.9608
 3747TIP3    H211248   3.807   2.386   2.271  1.1975  1.3893 -0.9256
 3748TIP3   OH211249   4.932   3.468   2.629  0.0221  0.2294 -0.0711
 3748TIP3    H111250   5.011   3.497   2.675  0.6338  0.3104 -1.1499
 3748TIP3    H211251   4.928   3.523   2.551 -1.1315  0.2548 -0.0072
 3749TIP3   OH211252   4.426   4.683   4.802  0.6818  0.8902 -0.0024
 3749TIP3    H111253   4.458   4.703   4.714 -0.5987  1.0479 -0.4531
 3749TIP3    H211254   4.405   4.768   4.839  0.6886  0.7782  0.2561
 3750TIP3   OH211255   3.378   5.823   1.642 -0.5249  0.1592  0.2933
 3750TIP3    H111256   3.387   5.733   1.673 -2.4606  0.1395  0.9069
 3750TIP3    H211257   3.285   5.834   1.624 -0.5364  2.3725  1.3525
 3751TIP3   OH211258   3.789   4.679   0.737 -0.1363 -0.1038  0.3705
 3751TIP3    H111259   3.875   4.717   0.719  0.0095  0.8053  2.6526
 3751TIP3    H211260   3.806   4.609   0.799 -0.9440 -0.6609 -0.0131
 3752TIP3   OH211261   2.144   2.957   4.657  0.1692 -0.5762 -0.5144
 3752TIP3    H111262   2.178   2.996   4.738 -0.2987  1.1272 -1.0814
 3752TIP3    H211263   2.066   2.909   4.685  0.9134 -1.3532  0.2607
 3753TIP3   OH211264   5.022   4.981   3.601 -0.8808  0.0474  0.0181
 3753TIP3    H111265   5.080   4.980   3.525 -0.8703 -0.8417  0.0317
 3753TIP3    H211266   5.056   5.052   3.656  0.4832 -0.7523  0.2435
 3754TIP3   OH211267   5.241   3.557   4.848 -0.2293 -0.6616 -0.2589
 3754TIP3    H111268   5.233   3.593   4.936 -0.1810 -0.7644 -0.2123
 3754TIP3    H211269   5.173   3.490   4.843  0.3263 -1.2475 -0.0051
 3755TIP3   OH211270   2.317   1.768   4.343 -0.4867 -0.0388  0.2128
 3755TIP3    H111271   2.373   1.802   4.413 -1.3248  1.5889  0.1569
 3755TIP3    H211272   2.308   1.841   4.282  0.2852 -1.4496 -1.6813
 3756TIP3   OH211273   4.692   2.810   2.533 -0.7095 -0.1112  1.0187
 3756TIP3    H111274   4.613   2.855   2.563 -0.7888  0.4368  0.0479
 3756TIP3    H211275   4.660   2.731   2.490 -0.7691  0.2952  0.2986
 3757TIP3   OH211276   4.860   4.025   0.930  0.6063  0.0860 -0.1081
 3757TIP3    H111277   4.789   3.992   0.985 -0.0401 -0.1297 -1.0561
 3757TIP3    H211278   4.860   3.968   0.854  0.1115  1.6361 -1.3212
 3758TIP3   OH211279   0.832   4.946   4.988  0.1329  0.8354  0.2254
 3758TIP3    H111280   0.871   4.984   5.066  0.7690  0.1587  0.2530
 3758TIP3    H211281   0.874   4.991   4.915  0.1898  0.8560  0.2709
 3759TIP3   OH211282   3.598   3.880   4.942  0.4461  0.1464  0.0956
 3759TIP3    H111283   3.645   3.949   4.896 -0.8216  1.0401  0.0745
 3759TIP3    H211284   3.512   3.878   4.901 -1.1240  1.6660  2.9535
 3760TIP3   OH211285   3.556   4.706   0.548  0.1094 -0.3424  0.0700
 3760TIP3    H111286   3.634   4.673   0.594 -0.4819 -0.5945  0.9146
 3760TIP3    H211287   3.505   4.628   0.528 -0.0539 -0.1536 -0.2496
 3761TIP3   OH211288   4.112   5.819   1.724 -0.1767  0.2353 -0.5121
 3761TIP3    H111289   4.149   5.825   1.812 -0.2811  0.2079 -0.4668
 3761TIP3    H211290   4.154   5.890   1.676 -2.0605  1.9452  0.2517
 3762TIP3   OH211291   1.089   3.155   0.189  0.1829  0.2972 -0.2394
 3762TIP3    H111292   1.124   3.155   0.278  1.5846 -0.5255 -0.7427
 3762TIP3    H211293   1.016   3.094   0.191  0.5941 -0.1830  0.2199
 3763TIP3   OH211294   2.399   3.523   4.550  0.3486 -0.1984  0.6648
 3763TIP3    H111295   2.374   3.444   4.502  0.3260  0.7213 -0.9179
 3763TIP3    H211296   2.345   3.521   4.629  1.0413 -2.2289  1.1467
 3764TIP3   OH211297   1.715   4.743   0.298 -0.1130  0.0708 -0.1208
 3764TIP3    H111298   1.701   4.821   0.352 -0.5134 -0.1250  0.0677
 3764TIP3    H211299   1.759   4.681   0.355 -0.7376 -0.2179  0.0554
 3765TIP3   OH211300   3.158   2.348   4.669 -0.5816  0.9853 -0.1731
 3765TIP3    H111301   3.203   2.390   4.596  0.8303  0.2457  0.2458
 3765TIP3    H211302   3.163   2.412   4.741 -0.3364  0.9670 -0.1745
 3766TIP3   OH211303   2.976   3.155   0.064  0.7340  0.0224 -0.2898
 3766TIP3    H111304   3.036   3.193  -0.000  1.2367 -0.3698 -0.0622
 3766TIP3    H211305   2.975   3.216   0.137  0.9516 -0.0300 -0.2437
 3767TIP3   OH211306   5.941   0.858   3.471 -0.0307  0.2236 -0.3685
 3767TIP3    H111307   5.993   0.848   3.391 -0.6473 -0.1358 -0.7330
 3767TIP3    H211308   5.877   0.925   3.450  0.4901  0.9127  0.1934
 3768TIP3   OH211309   4.266   1.371   4.305  0.4401  0.3030 -0.1976
 3768TIP3    H111310   4.336   1.436   4.305  0.5654  0.1723  0.6038
 3768TIP3    H211311   4.261   1.340   4.396 -0.2922 -0.0784 -0.3588
 3769TIP3   OH211312   1.039   0.895   4.893  0.1255  0.2831  0.4232
 3769TIP3    H111313   0.957   0.920   4.936 -0.4223 -0.1218 -0.3654
 3769TIP3    H211314   1.053   0.804   4.917 -0.4771 -0.1213 -0.6616
 3770TIP3   OH211315   4.547   2.163   0.371  0.1334 -0.8157 -0.2150
 3770TIP3    H111316   4.505   2.163   0.285 -0.0292  0.5156 -0.1574
 3770TIP3    H211317   4.490   2.216   0.426 -0.1428 -2.2258  0.9324
 3771TIP3   OH211318   4.891   5.533   4.868  0.0082  0.2219  0.0774
 3771TIP3    H111319   4.956   5.593   4.832 -0.4666  0.5152 -0.3119
 3771TIP3    H211320   4.940   5.476   4.927  0.2567  1.9006  1.5638
 3772TIP3   OH211321   3.240   2.926   2.187  0.4220  0.1453  0.3040
 3772TIP3    H111322   3.279   2.894   2.106  1.0324 -1.4730  1.1788
 3772TIP3    H211323   3.307   2.982   2.226  0.2883  0.5869 -0.0878
 3773TIP3   OH211324   4.693   3.466   1.081 -0.2347  0.2191 -0.8062
 3773TIP3    H111325   4.727   3.376   1.074 -0.6321  0.0949 -1.1675
 3773TIP3    H211326   4.771   3.521   1.071  0.5650 -0.0796  2.5403
 3774TIP3   OH211327   5.811   5.170   0.174  0.3056 -0.0406  0.4049
 3774TIP3    H111328   5.771   5.131   0.097  1.0459  0.6104 -0.3300
 3774TIP3    H211329   5.784   5.114   0.247 -1.3231 -0.0281 -0.1646
 3775TIP3   OH211330   4.472   5.555   0.977 -0.5872  0.4227  0.2617
 3775TIP3    H111331   4.435   5.467   0.989 -1.4770  0.8104  0.4104
 3775TIP3    H211332   4.399   5.614   0.994 -0.3560  1.1652 -1.2152
 3776TIP3   OH211333   5.654   3.296   4.950 -0.1507 -0.0563 -0.5442
 3776TIP3    H111334   5.588   3.366   4.955  0.9646  0.9798  1.3985
 3776TIP3    H211335   5.737   3.343   4.940  0.7153 -0.9826  1.5706
 3777TIP3   OH211336   2.051   0.359   3.121  0.8271 -0.6356 -0.5028
 3777TIP3    H111337   1.987   0.400   3.178  0.8953 -0.5003 -0.5214
 3777TIP3    H211338   2.136   0.391   3.153  0.8122  0.2797 -1.3201
 3778TIP3   OH211339   5.380   3.610   1.206  0.7185  0.1804  0.0544
 3778TIP3    H111340   5.348   3.537   1.260 -1.4696  1.5564  0.7303
 3778TIP3    H211341   5.339   3.596   1.120  0.7533  0.3369  0.0121
 3779TIP3   OH211342   3.304   5.540   2.817 -0.7550 -0.0769 -0.7400
 3779TIP3    H111343   3.300   5.499   2.730  0.2651 -0.3529 -0.6676
 3779TIP3    H211344   3.248   5.484   2.871 -1.1366 -0.0933 -1.1422
 3780TIP3   OH211345   5.007   2.036   4.228  0.4618  0.9134 -0.4783
 3780TIP3    H111346   5.047   2.067   4.146  2.6371  1.8775  0.8582
 3780TIP3    H211347   5.079   1.998   4.277 -0.9845 -0.5405  0.6495
 3781TIP3   OH211348   1.109   3.093   2.430  0.6137 -0.2807 -0.3855
 3781TIP3    H111349   1.128   3.175   2.476  1.2636  0.5132 -1.9795
 3781TIP3    H211350   1.165   3.028   2.471  1.0501  0.3687  0.0486
 3782TIP3   OH211351   5.893   4.339   0.583  0.5023 -0.4125  0.2208
 3782TIP3    H111352   5.935   4.380   0.658 -0.3399  0.4054  0.2710
 3782TIP3    H211353   5.963   4.291   0.539  1.6004  1.2818  0.0323
 3783TIP3   OH211354   1.549   3.734   4.510  0.0245 -0.3765  0.0260
 3783TIP3    H111355   1.489   3.762   4.579 -1.0357  0.8477 -1.3472
 3783TIP3    H211356   1.636   3.744   4.549 -0.5300  0.6786  1.0446
 3784TIP3   OH211357   5.803   0.389   0.946  0.0280  0.7101  0.6954
 3784TIP3    H111358   5.892   0.360   0.966 -0.3372 -1.3903 -0.5175
 3784TIP3    H211359   5.796   0.382   0.851 -1.2823  1.3217  0.7273
 3785TIP3   OH211360   4.784   1.990   4.800 -0.1530 -0.2439  0.2340
 3785TIP3    H111361   4.699   1.951   4.823  0.0037 -0.7173  0.0133
 3785TIP3    H211362   4.785   2.074   4.847 -1.1329  0.1888 -0.4724
 3786TIP3   OH211363   4.858   1.476   5.133  0.8700 -0.0716  0.0740
 3786TIP3    H111364   4.921   1.540   5.098 -1.0255  2.7827  1.4390
 3786TIP3    H211365   4.898   1.445   5.213  1.5600 -0.1369 -0.2861
 3787TIP3   OH211366   3.599   2.661   2.097  0.2043 -0.2566 -0.5229
 3787TIP3    H111367   3.593   2.661   2.192 -1.0708 -0.2565 -0.5864
 3787TIP3    H211368   3.668   2.724   2.077 -0.1408  0.4275  0.3787
 3788TIP3   OH211369   1.235   3.311   1.073 -0.0091  0.2665 -0.1297
 3788TIP3    H111370   1.321   3.341   1.102  0.6884 -1.0339 -0.8019
 3788TIP3    H211371   1.253   3.236   1.017 -1.7142 -1.6511  1.7537
 3789TIP3   OH211372   4.945   5.387   3.171  0.1698  0.4239 -0.6894
 3789TIP3    H111373   5.018   5.392   3.234  0.1850  2.2462 -0.7906
 3789TIP3    H211374   4.868   5.373   3.225  0.4325 -0.2026 -0.4667
 3790TIP3   OH211375   3.918   0.459   0.432  0.0052 -0.2846  0.0079
 3790TIP3    H111376   3.922   0.494   0.521 -0.6940 -1.3225  0.4707
 3790TIP3    H211377   3.825   0.464   0.408  0.1398 -0.3150 -0.5251
 3791TIP3   OH211378   2.698   0.897   0.367  0.5543 -0.2618  0.0948
 3791TIP3    H111379   2.721   0.910   0.459 -0.1914  1.8030  0.0431
 3791TIP3    H211380   2.768   0.940   0.319 -1.5048  3.2812 -0.1141
 3792TIP3   OH211381   3.993   1.444   4.333 -0.3819 -0.3129  0.3118
 3792TIP3    H111382   3.976   1.427   4.425 -0.8214  0.0044  0.2897
 3792TIP3    H211383   4.087   1.429   4.323  0.1752  2.1093  1.3402
 3793TIP3   OH211384   1.746   1.438   0.558  0.1382 -0.4650  0.1413
 3793TIP3    H111385   1.680   1.437   0.488 -0.2185 -0.9797  0.4728
 3793TIP3    H211386   1.817   1.490   0.523 -0.3964 -0.0017 -0.2814
 3794TIP3   OH211387   5.492   2.603   4.126  0.7647 -0.1794  0.1982
 3794TIP3    H111388   5.473   2.535   4.061  0.6407  0.2734 -0.2391
 3794TIP3    H211389   5.578   2.580   4.160  0.3559 -1.0545  0.6852
 3795TIP3   OH211390   5.485   3.420   0.327  0.0863 -0.3821  0.4291
 3795TIP3    H111391   5.449   3.391   0.243 -0.0641 -1.1671  0.7521
 3795TIP3    H211392   5.410   3.455   0.374 -0.0652 -1.0470  0.6936
 3796TIP3   OH211393   0.844   1.886   0.851  0.6120 -0.1871  0.2818
 3796TIP3    H111394   0.800   1.815   0.898  1.0126  0.0821  1.0993
 3796TIP3    H211395   0.774   1.946   0.826  0.2937 -0.7564 -0.2342
 3797TIP3   OH211396   2.789   1.459   2.411 -0.5715  0.5508 -0.0053
 3797TIP3    H111397   2.802   1.431   2.320  1.5435  1.0113  0.1165
 3797TIP3    H211398   2.694   1.472   2.418 -0.7462  0.9970 -2.2868
 3798TIP3   OH211399   5.351   3.107   0.346  0.3132  0.0293  0.5452
 3798TIP3    H111400   5.264   3.148   0.341  0.2943 -0.1495 -2.3874
 3798TIP3    H211401   5.333   3.018   0.374 -0.4345  0.1058  0.3566
 3799TIP3   OH211402   0.116   4.910   4.399 -0.4911  0.4292  0.3002
 3799TIP3    H111403   0.119   4.842   4.332 -1.1884 -0.2382  0.9215
 3799TIP3    H211404   0.201   4.953   4.394  0.1595 -0.8209  0.2293
 3800TIP3   OH211405   3.031   4.239   2.645 -0.2346 -0.1605  0.2073
 3800TIP3    H111406   2.957   4.243   2.707 -0.8838 -1.0288 -0.4845
 3800TIP3    H211407   3.107   4.222   2.701 -0.7475 -0.5305  0.8142
 3801TIP3   OH211408   2.259   5.114   3.051  0.0179 -0.2611 -0.0225
 3801TIP3    H111409   2.274   5.191   2.996 -0.0292  0.6502  1.1916
 3801TIP3    H211410   2.346   5.078   3.065  0.0866 -0.1965 -0.2752
 3802TIP3   OH211411   5.243   5.420   4.735  0.0371 -0.2570 -0.2803
 3802TIP3    H111412   5.211   5.469   4.659 -0.0517 -0.8395 -0.6256
 3802TIP3    H211413   5.308   5.477   4.775 -0.2594  0.2525 -0.5229
 3803TIP3   OH211414   2.873   4.095   4.284 -0.7832 -0.5441  0.0410
 3803TIP3    H111415   2.947   4.147   4.317 -1.2549 -0.5510  1.1422
 3803TIP3    H211416   2.914   4.017   4.246 -0.2481 -0.8851  1.2691
 3804TIP3   OH211417   2.150   5.392   2.537  0.3204 -0.0756  0.4617
 3804TIP3    H111418   2.099   5.311   2.546 -0.5058  0.1633 -1.5369
 3804TIP3    H211419   2.098   5.458   2.583  2.5475 -1.1037  5.0274
 3805TIP3   OH211420   6.276   4.764   1.803  0.5903 -0.2714 -0.4002
 3805TIP3    H111421   6.241   4.822   1.735  0.3199  0.6264  0.4734
 3805TIP3    H211422   6.362   4.801   1.824  0.3621 -0.0952  0.2530
 3806TIP3   OH211423   2.525   1.350   2.620  0.5677  0.1766 -0.5609
 3806TIP3    H111424   2.445   1.313   2.657  0.8168  1.0867  0.9466
 3806TIP3    H211425   2.558   1.281   2.562  0.2689 -1.4120  1.0626
 3807TIP3   OH211426   0.342   2.297   3.195 -0.6641 -0.1030  0.0859
 3807TIP3    H111427   0.313   2.303   3.104 -1.5484 -1.7508  0.2279
 3807TIP3    H211428   0.310   2.378   3.236 -0.0806  0.7464 -1.0922
 3808TIP3   OH211429   5.615   0.753   0.430 -0.9098  0.4677  0.2282
 3808TIP3    H111430   5.678   0.685   0.407  0.2624  1.4473  0.4205
 3808TIP3    H211431   5.645   0.831   0.382 -2.0597  0.9241  0.2192
 3809TIP3   OH211432   1.619   4.101   5.145  0.2310 -0.1293 -0.3082
 3809TIP3    H111433   1.680   4.085   5.217 -1.1389  0.6626  1.0877
 3809TIP3    H211434   1.537   4.061   5.173 -1.0687  2.3992 -0.2049
 3810TIP3   OH211435   3.846   3.483   3.481  0.3815  0.5480 -0.6787
 3810TIP3    H111436   3.850   3.515   3.570 -3.7247  0.6153 -0.3119
 3810TIP3    H211437   3.896   3.401   3.482  1.5396  1.2231  1.2772
 3811TIP3   OH211438   0.447   4.417   4.808  0.6162  1.1264  0.4918
 3811TIP3    H111439   0.393   4.374   4.741  1.2685  1.9174 -0.5680
 3811TIP3    H211440   0.406   4.503   4.820  1.2234  1.4556  0.2084
 3812TIP3   OH211441   3.257   3.569   0.330 -0.0386  0.8990  0.6484
 3812TIP3    H111442   3.231   3.556   0.421 -0.9733  1.0028  0.4142
 3812TIP3    H211443   3.288   3.484   0.301 -1.3298  0.4195  0.5928
 3813TIP3   OH211444   2.160   5.686   4.953  0.1825  0.1636  0.0648
 3813TIP3    H111445   2.189   5.759   4.898 -0.0531 -0.8552 -1.4827
 3813TIP3    H211446   2.072   5.666   4.921  1.1122 -2.2979 -1.2243
 3814TIP3   OH211447   3.790   2.100   1.848  0.1187 -0.4617 -0.0651
 3814TIP3    H111448   3.754   2.189   1.852 -0.7035 -0.8104  0.6257
 3814TIP3    H211449   3.853   2.103   1.776  0.6541  0.8744  0.4241
 3815TIP3   OH211450   0.888   3.110   2.077 -0.2926 -0.3308 -0.2472
 3815TIP3    H111451   0.855   3.055   2.148  0.3645  1.0856  1.2176
 3815TIP3    H211452   0.981   3.120   2.097 -0.6934  2.6837  0.5782
 3816TIP3   OH211453   0.129   4.799   4.808  0.1206 -0.0684  0.0981
 3816TIP3    H111454   0.093   4.733   4.867  1.3242 -1.1524 -0.3055
 3816TIP3    H211455   0.143   4.752   4.726 -1.9606  1.5217 -1.2485
 3817TIP3   OH211456   4.999   5.900   1.494 -0.6176  0.3277 -0.2228
 3817TIP3    H111457   4.951   5.829   1.452 -0.0947 -0.7108  0.8693
 3817TIP3    H211458   5.060   5.856   1.553 -0.6646  1.6969  0.9089
 3818TIP3   OH211459   0.790   2.950   2.263 -0.1705  0.4786  0.4320
 3818TIP3    H111460   0.737   2.893   2.207  0.7065  1.5324 -1.5625
 3818TIP3    H211461   0.737   2.961   2.342 -0.8738 -2.1076  0.4272
 3819TIP3   OH211462   2.652   2.308   0.367 -0.4215  0.0302  0.1290
 3819TIP3    H111463   2.658   2.257   0.287 -1.2075  0.1027  0.0084
 3819TIP3    H211464   2.729   2.283   0.418  1.2379  1.5198 -1.5074
 3820TIP3   OH211465   3.970   5.770   3.854  0.0313 -0.2577 -0.8831
 3820TIP3    H111466   4.014   5.853   3.872  1.9671 -1.1945 -1.0448
 3820TIP3    H211467   3.938   5.741   3.939 -0.8793  0.7483 -0.8640
 3821TIP3   OH211468   2.987   4.958   4.111  0.0533 -0.0544 -0.8036
 3821TIP3    H111469   2.919   5.014   4.149  0.7949  0.6426 -0.4632
 3821TIP3    H211470   3.010   4.897   4.182 -0.8129 -0.8597 -1.2016
 3822TIP3   OH211471   5.767   2.771   2.657 -0.1801  0.1292  0.1558
 3822TIP3    H111472   5.851   2.785   2.612 -0.4058  1.3320  0.0679
 3822TIP3    H211473   5.786   2.702   2.721  1.0022  0.6794  0.4388
 3823TIP3   OH211474   2.109   0.830   2.747 -0.5378  0.1093  0.1237
 3823TIP3    H111475   2.177   0.834   2.815  0.8084  1.8217 -1.2075
 3823TIP3    H211476   2.153   0.791   2.671 -1.9535 -1.5840  0.1300
 3824TIP3   OH211477   3.805   3.202   1.884  0.1999 -0.2583  0.6017
 3824TIP3    H111478   3.845   3.219   1.969  0.1167 -0.1084  0.6112
 3824TIP3    H211479   3.857   3.252   1.822  0.4440 -0.6077  0.5249
 3825TIP3   OH211480   3.112   3.661   2.825 -0.5471  0.2989  1.0624
 3825TIP3    H111481   3.045   3.604   2.787 -2.1172  1.4185  2.0547
 3825TIP3    H211482   3.109   3.643   2.919  0.9159  0.0264  1.0826
 3826TIP3   OH211483   4.399   5.857   4.932  0.2926 -0.2387 -0.5203
 3826TIP3    H111484   4.391   5.951   4.913 -1.0753 -0.2482 -0.0429
 3826TIP3    H211485   4.494   5.843   4.939  0.5291  1.0591 -0.8154
 3827TIP3   OH211486   3.137   0.297   1.958 -0.1381  0.0533 -0.3593
 3827TIP3    H111487   3.126   0.215   1.910  1.3566 -0.8176  0.7005
 3827TIP3    H211488   3.173   0.271   2.042 -1.1946  1.6837  0.6544
 3828TIP3   OH211489   2.978   4.364   4.906  0.4142  0.3258 -0.2866
 3828TIP3    H111490   2.984   4.343   4.813 -1.4465  0.6086 -0.5083
 3828TIP3    H211491   3.061   4.335   4.943  1.5086  0.9178 -2.1657
 3829TIP3   OH211492   2.284   2.427   1.058 -0.3177  0.0202  0.4847
 3829TIP3    H111493   2.347   2.413   1.128  1.3207 -1.4836 -1.1682
 3829TIP3    H211494   2.217   2.483   1.097  1.3141  0.5680  2.7441
 3830TIP3   OH211495   4.707   3.282   1.539 -0.6123  0.5260  0.1281
 3830TIP3    H111496   4.781   3.284   1.599 -0.2952 -0.8858 -0.1865
 3830TIP3    H211497   4.630   3.281   1.596 -0.3865  1.4729  0.4609
 3831TIP3   OH211498   4.145   1.801   0.956  0.3226  0.5240  0.0717
 3831TIP3    H111499   4.164   1.865   0.887 -0.2294  0.5283 -0.0795
 3831TIP3    H211500   4.206   1.729   0.939  0.1522  0.4983 -0.4567
 3832TIP3   OH211501   4.108   3.775   0.227  0.3074 -0.0250  0.1204
 3832TIP3    H111502   4.172   3.793   0.159 -0.5941  1.2602 -0.4274
 3832TIP3    H211503   4.024   3.776   0.182 -0.3631  1.4972  1.3146
 3833TIP3   OH211504   3.652   2.789   0.493  0.1955 -0.0064 -0.5462
 3833TIP3    H111505   3.598   2.867   0.505  1.5383  1.1943 -1.8722
 3833TIP3    H211506   3.653   2.775   0.398  3.6725  1.2212 -0.8414
 3834TIP3   OH211507   4.234   4.657   3.565  0.3535  0.1495  0.5230
 3834TIP3    H111508   4.269   4.663   3.476 -0.1123 -0.7170  0.2777
 3834TIP3    H211509   4.148   4.617   3.555  0.3077  0.0202  1.3718
 3835TIP3   OH211510   6.007   1.749   2.943  0.2436 -0.4098 -0.0817
 3835TIP3    H111511   6.004   1.754   2.848  0.1625 -2.6010 -0.2375
 3835TIP3    H211512   5.941   1.684   2.967 -0.7546  1.1226  1.6132
 3836TIP3   OH211513   4.663   4.213   3.433  0.0026  0.2241  0.2928
 3836TIP3    H111514   4.665   4.169   3.348 -0.5998  0.4342  0.1618
 3836TIP3    H211515   4.578   4.189   3.471 -0.7480  1.9733 -0.1728
 3837TIP3   OH211516   2.456   5.125   0.588 -0.2535  0.1854  0.0404
 3837TIP3    H111517   2.432   5.067   0.661 -1.5027 -0.0490 -0.5289
 3837TIP3    H211518   2.387   5.112   0.523  0.3046  1.1339 -0.7758
 3838TIP3   OH211519   0.004   0.179   3.233  0.5909  0.1170  0.0957
 3838TIP3    H111520  -0.039   0.208   3.314 -0.5799  0.4203 -0.6113
 3838TIP3    H211521   0.081   0.131   3.263 -0.6784 -1.1692  1.4460
 3839TIP3   OH211522   2.300   1.843   2.142  0.2609 -0.1050  0.5548
 3839TIP3    H111523   2.351   1.778   2.190 -0.7704 -1.6885 -0.3891
 3839TIP3    H211524   2.365   1.898   2.099  1.2462  1.4814  3.7349
 3840TIP3   OH211525   1.602   4.599   3.227 -0.0176 -0.0381  0.7894
 3840TIP3    H111526   1.643   4.686   3.227 -0.7306  0.3626 -1.4517
 3840TIP3    H211527   1.517   4.612   3.185 -1.2557 -1.4001  2.7020
 3841TIP3   OH211528   5.644   2.925   2.473  0.2554 -0.2431  0.0833
 3841TIP3    H111529   5.593   2.988   2.524 -0.9486 -0.6898 -0.5485
 3841TIP3    H211530   5.695   2.878   2.539 -2.4307 -1.8915  1.1309
 3842TIP3   OH211531   2.777   5.026   2.052 -0.1392  0.3190  0.0394
 3842TIP3    H111532   2.790   5.115   2.020  0.9969  0.2256  0.2221
 3842TIP3    H211533   2.682   5.012   2.047 -0.1545  0.8910 -1.6783
 3843TIP3   OH211534   4.812   0.628   1.849 -0.3178 -0.0591 -0.2732
 3843TIP3    H111535   4.733   0.629   1.795 -0.0413 -1.4602 -0.7547
 3843TIP3    H211536   4.792   0.686   1.923 -0.6826  1.9390 -1.8777
 3844TIP3   OH211537   0.134   4.004   1.292  0.2381  0.4865  0.0909
 3844TIP3    H111538   0.121   4.049   1.375 -1.4070  0.8121 -0.2940
 3844TIP3    H211539   0.169   4.072   1.233 -2.1827  1.3559 -0.4727
 3845TIP3   OH211540   1.538   3.613   2.040  0.1023 -0.8678 -0.1038
 3845TIP3    H111541   1.474   3.612   1.968  0.2097 -0.7407 -0.1991
 3845TIP3    H211542   1.527   3.699   2.080  0.2051 -0.8523 -0.1109
 3846TIP3   OH211543   3.056   5.901   2.531 -0.4051  0.4466  0.3918
 3846TIP3    H111544   3.089   5.849   2.604 -0.3802  0.0714  0.1147
 3846TIP3    H211545   3.082   5.852   2.453  0.0231  1.1102  0.1123
 3847TIP3   OH211546   1.880   1.814   2.928  0.1950  0.3630  0.4474
 3847TIP3    H111547   1.893   1.757   3.004 -1.0389 -0.7635 -0.1487
 3847TIP3    H211548   1.948   1.787   2.866 -0.5437 -0.7044  0.0610
 3848TIP3   OH211549   4.661   5.373   1.726 -0.4887 -0.3634  0.5129
 3848TIP3    H111550   4.621   5.335   1.647  0.7400 -0.1960 -0.2226
 3848TIP3    H211551   4.605   5.448   1.747 -2.0705 -1.6502  1.0969
 3849TIP3   OH211552   4.597   4.093   3.194 -0.7334  0.4513  0.3517
 3849TIP3    H111553   4.588   4.000   3.212 -1.8467  0.7070  1.2178
 3849TIP3    H211554   4.676   4.100   3.139  0.2262 -0.8309  1.5242
 3850TIP3   OH211555   1.821   4.479   4.056 -0.5059  0.3672  0.1802
 3850TIP3    H111556   1.825   4.384   4.059 -1.7168  0.3327  2.9712
 3850TIP3    H211557   1.728   4.499   4.047 -0.3198  1.3106  0.2615
 3851TIP3   OH211558   1.344   2.835   1.448  0.0951 -0.3124  0.0182
 3851TIP3    H111559   1.429   2.835   1.404  0.2700 -0.8495  0.3403
 3851TIP3    H211560   1.282   2.865   1.382  0.0824 -2.6927 -1.1450
 3852TIP3   OH211561   5.545   2.153   0.047  0.1316 -0.5153  0.2150
 3852TIP3    H111562   5.627   2.200   0.033 -0.6674  0.6022 -0.8722
 3852TIP3    H211563   5.560   2.103   0.127  2.3647 -1.4491 -0.6853
 3853TIP3   OH211564   4.437   1.600   4.274  0.4118 -0.1241 -0.3383
 3853TIP3    H111565   4.445   1.606   4.369 -0.4122  0.4065 -0.2904
 3853TIP3    H211566   4.457   1.688   4.242  0.1049 -0.1472 -0.6057
 3854TIP3   OH211567   0.197   4.650   2.090  0.1912 -0.6896 -0.1890
 3854TIP3    H111568   0.171   4.665   1.999  0.8077 -0.1394 -0.2845
 3854TIP3    H211569   0.187   4.736   2.131  0.1272 -0.8890  0.2072
 3855TIP3   OH211570   3.472   5.571   0.484  0.1765 -0.2661 -0.3478
 3855TIP3    H111571   3.425   5.588   0.403 -0.4593  0.2615  0.1229
 3855TIP3    H211572   3.500   5.657   0.515 -0.8691 -0.2923  0.7488
 3856TIP3   OH211573   3.168   0.234   1.598 -0.5182  0.1285 -0.1983
 3856TIP3    H111574   3.121   0.296   1.542  0.4927  0.0118 -1.2239
 3856TIP3    H211575   3.250   0.218   1.551  0.2410 -0.2048  1.1924
 3857TIP3   OH211576   1.315   4.884   1.259  0.0011 -0.7107  0.2613
 3857TIP3    H111577   1.255   4.883   1.184 -0.4532 -0.0094  0.6034
 3857TIP3    H211578   1.396   4.846   1.225 -0.1947 -0.3884 -0.5903
 3858TIP3   OH211579   5.149   3.944   4.924 -0.7345 -0.3191 -0.5049
 3858TIP3    H111580   5.197   3.892   4.988 -1.6995  2.3605  2.7399
 3858TIP3    H211581   5.061   3.906   4.924 -0.9385  0.1166  0.4302
 3859TIP3   OH211582   4.313   5.804   4.224  0.1962 -0.1423 -0.0945
 3859TIP3    H111583   4.237   5.827   4.277  1.2839  0.8697  1.0916
 3859TIP3    H211584   4.359   5.737   4.275  0.5444 -0.1349 -0.3929
 3860TIP3   OH211585   5.523   4.787   0.805 -0.0840  0.0983 -0.4014
 3860TIP3    H111586   5.461   4.783   0.733  0.5766  1.5728 -1.1022
 3860TIP3    H211587   5.489   4.856   0.862  1.0948  1.2592 -1.0369
 3861TIP3   OH211588   2.626   2.727   4.932 -0.1678  0.1976 -0.5001
 3861TIP3    H111589   2.666   2.795   4.986 -0.6197 -0.2861  0.4675
 3861TIP3    H211590   2.674   2.648   4.955 -0.2453  0.0204 -0.9494
 3862TIP3   OH211591   3.122   0.583   2.280 -0.5580 -0.6724 -0.0305
 3862TIP3    H111592   3.181   0.615   2.348  0.4457  2.2497 -2.0412
 3862TIP3    H211593   3.180   0.554   2.209 -1.4775  0.3833 -1.2788
 3863TIP3   OH211594   4.531   3.737   1.556 -0.3589 -0.4848 -0.1716
 3863TIP3    H111595   4.498   3.781   1.477  1.4035 -1.1901 -1.3742
 3863TIP3    H211596   4.583   3.664   1.522  1.6840  0.0617  1.6071
 3864TIP3   OH211597   0.595   1.698   3.560  0.5273  0.6294 -0.1551
 3864TIP3    H111598   0.676   1.742   3.536  1.0011  0.3921  0.9481
 3864TIP3    H211599   0.623   1.617   3.601 -0.2337  0.9565  1.0532
 3865TIP3   OH211600   1.363   3.890   1.000  0.2585 -0.0818  0.9144
 3865TIP3    H111601   1.458   3.896   1.008  0.2480  2.0734  0.1335
 3865TIP3    H211602   1.348   3.830   0.927  1.0650  0.3397  0.3914
 3866TIP3   OH211603   1.914   1.844   5.074  0.0558  0.1301 -0.4350
 3866TIP3    H111604   1.930   1.938   5.076 -1.6332  0.4626 -0.7472
 3866TIP3    H211605   1.973   1.811   5.006  0.2881  1.0355 -0.6844
 3867TIP3   OH211606   4.482   3.344   4.718 -0.1407 -0.0904  0.2768
 3867TIP3    H111607   4.431   3.419   4.687  1.5106  1.5318  1.3058
 3867TIP3    H211608   4.433   3.311   4.793 -0.1605  0.9072  0.7229
 3868TIP3   OH211609   4.367   4.647   2.397  0.3333 -0.4868  0.4675
 3868TIP3    H111610   4.418   4.581   2.444  1.1459 -0.9189 -0.9511
 3868TIP3    H211611   4.294   4.599   2.359  0.9985 -0.6503 -0.6802
 3869TIP3   OH211612   2.715   5.366   2.942 -0.1854  0.2796 -0.1599
 3869TIP3    H111613   2.753   5.433   2.998 -1.3123 -0.5886  1.7733
 3869TIP3    H211614   2.668   5.414   2.874  0.0732  1.4247  0.4598
 3870TIP3   OH211615   2.681   5.917   4.739 -0.5226 -0.1600 -0.1622
 3870TIP3    H111616   2.752   5.975   4.710 -0.6203  0.1173  0.1469
 3870TIP3    H211617   2.718   5.869   4.814 -1.2003  1.2324  1.1184
 3871TIP3   OH211618   2.075   1.720   2.740 -0.1823 -0.9612 -0.0711
 3871TIP3    H111619   2.146   1.694   2.800 -1.1700 -1.9565  0.7134
 3871TIP3    H211620   2.058   1.641   2.688 -0.8643 -0.7994 -0.0945
 3872TIP3   OH211621   2.121   2.599   1.559 -1.0390 -0.8780 -0.8415
 3872TIP3    H111622   2.061   2.645   1.499 -1.8820  0.1416  0.7318
 3872TIP3    H211623   2.069   2.527   1.594 -1.1630 -0.3522  0.0724
 3873TIP3   OH211624   0.353   0.153   1.464  0.2898  0.0813  0.2521
 3873TIP3    H111625   0.270   0.182   1.501 -0.2215 -0.7616 -0.2135
 3873TIP3    H211626   0.344   0.058   1.454  0.2581  0.2921 -2.3746
 3874TIP3   OH211627   1.591   2.267   3.384  0.3477  0.1363  0.0127
 3874TIP3    H111628   1.578   2.362   3.377 -1.6082 -0.1531 -0.9029
 3874TIP3    H211629   1.664   2.248   3.326  0.1118  0.9793 -0.5771
 3875TIP3   OH211630   3.610   2.507   4.992  0.4524 -0.1767 -0.2271
 3875TIP3    H111631   3.646   2.523   5.080 -1.9736 -0.7271  0.9594
 3875TIP3    H211632   3.653   2.426   4.964  0.1879 -0.8307  1.1354
 3876TIP3   OH211633   1.516   4.928   3.300 -0.1557  0.1758 -0.1846
 3876TIP3    H111634   1.602   4.937   3.342  0.1820 -0.2688 -0.7633
 3876TIP3    H211635   1.459   4.897   3.370 -0.1702  1.7163  0.5467
 3877TIP3   OH211636   0.998   5.138   1.256  0.5185  0.0118 -0.0958
 3877TIP3    H111637   1.012   5.047   1.282 -1.3543 -0.1136  0.5800
 3877TIP3    H211638   1.024   5.189   1.333 -0.4927 -0.0971  0.3346
 3878TIP3   OH211639   0.216   3.064   5.083 -0.2043  0.2209 -0.5908
 3878TIP3    H111640   0.124   3.091   5.079 -0.3006 -0.0668 -0.3453
 3878TIP3    H211641   0.240   3.074   5.175  0.4810  1.8126 -0.9054
 3879TIP3   OH211642   0.473   1.793   1.912  0.4205 -0.1648 -0.3832
 3879TIP3    H111643   0.445   1.730   1.845 -0.5905 -0.6082  0.4234
 3879TIP3    H211644   0.544   1.841   1.871  1.1501 -1.7553 -1.0908
 3880TIP3   OH211645   2.622   4.470   4.376 -0.3827  0.2914 -0.5406
 3880TIP3    H111646   2.679   4.462   4.300  0.2840 -2.1988  0.1213
 3880TIP3    H211647   2.578   4.554   4.364  2.9067  2.0969 -1.4211
 3881TIP3   OH211648   3.548   1.301   0.414 -0.2239  0.7648  0.5400
 3881TIP3    H111649   3.573   1.359   0.486 -1.3738  1.5359  0.3325
 3881TIP3    H211650   3.602   1.330   0.340  0.4839  0.4022  0.9104
 3882TIP3   OH211651   3.127   5.636   1.516 -0.2923 -0.5607 -0.1578
 3882TIP3    H111652   3.187   5.577   1.561  0.4698 -0.5020 -1.0700
 3882TIP3    H211653   3.155   5.633   1.424 -0.5940  0.7906 -0.3110
 3883TIP3   OH211654   6.026   1.061   0.181 -0.3415 -0.5413 -0.1032
 3883TIP3    H111655   6.121   1.050   0.182 -0.2893 -0.9227  3.4155
 3883TIP3    H211656   5.992   0.973   0.165 -0.0783 -0.6823  0.0989
 3884TIP3   OH211657   4.604   3.253   0.529  0.9033  0.1518 -1.0238
 3884TIP3    H111658   4.624   3.332   0.578  1.0999 -0.1119 -0.6743
 3884TIP3    H211659   4.689   3.224   0.494  1.0951 -0.7370  0.1141
 3885TIP3   OH211660   4.361   1.737   1.495 -0.4174 -0.6102 -0.7990
 3885TIP3    H111661   4.421   1.681   1.544  0.2159  0.4702 -0.3114
 3885TIP3    H211662   4.284   1.744   1.551  1.0036  2.1141  1.0141
 3886TIP3   OH211663   5.442   1.654   2.211  0.9954  0.1174 -0.3413
 3886TIP3    H111664   5.485   1.635   2.127  1.0584 -1.0897 -0.0451
 3886TIP3    H211665   5.462   1.746   2.227  1.8086  0.1045 -1.1748
 3887TIP3   OH211666   3.875   1.562   4.631 -0.2718 -0.0578  0.4804
 3887TIP3    H111667   3.803   1.596   4.578 -1.1885 -2.8868 -0.2432
 3887TIP3    H211668   3.836   1.492   4.684  1.0894  1.1684  3.3572
 3888TIP3   OH211669   0.761   4.695   5.029  0.0878 -0.2895  0.4635
 3888TIP3    H111670   0.790   4.786   5.025 -1.3943  0.1690 -1.2778
 3888TIP3    H211671   0.811   4.657   5.101  0.1277  2.1088  1.8114
 3889TIP3   OH211672   1.642   2.027   4.173  0.6663  0.1668 -0.2621
 3889TIP3    H111673   1.563   2.063   4.214 -2.0917 -3.7292 -1.6076
 3889TIP3    H211674   1.626   2.033   4.079  1.4312 -1.6950 -0.5623
 3890TIP3   OH211675   5.461   1.350   2.312  0.2533 -0.3995 -0.0308
 3890TIP3    H111676   5.457   1.441   2.283  1.5729 -0.1568  0.4862
 3890TIP3    H211677   5.450   1.299   2.232 -1.7899  0.1670 -0.1646
 3891TIP3   OH211678   4.672   1.431   0.870  0.8672  0.1131  0.0430
 3891TIP3    H111679   4.765   1.420   0.851  0.5307 -1.8966 -0.6865
 3891TIP3    H211680   4.643   1.501   0.812  1.4101 -0.9696 -1.5906
 3892TIP3   OH211681   4.093   0.556   5.117  0.6458  0.2433 -0.0569
 3892TIP3    H111682   4.032   0.567   5.045  0.2684 -1.4735 -0.0385
 3892TIP3    H211683   4.049   0.596   5.192 -1.6810 -3.0396  0.5422
 3893TIP3   OH211684   5.026   2.583   4.635 -0.0018 -0.0307 -0.3302
 3893TIP3    H111685   5.092   2.642   4.672 -1.7300  1.4219  0.5417
 3893TIP3    H211686   5.050   2.576   4.542  0.6188  1.5552 -0.3207
 3894TIP3   OH211687   3.251   1.132   3.830 -0.0631 -0.3984 -0.1585
 3894TIP3    H111688   3.250   1.039   3.809  0.7575 -0.2868 -0.7002
 3894TIP3    H211689   3.170   1.166   3.791 -0.3881 -0.8866  0.0834
 3895TIP3   OH211690   1.707   2.532   3.548 -0.3622  0.0025 -0.0633
 3895TIP3    H111691   1.756   2.460   3.586  0.1167  0.7361  0.7528
 3895TIP3    H211692   1.661   2.572   3.622 -0.5356  0.5952 -0.4756
 3896TIP3   OH211693   4.380   1.945   2.352  0.5834 -0.8417  0.1841
 3896TIP3    H111694   4.472   1.938   2.328  0.4736 -3.1400  0.2166
 3896TIP3    H211695   4.333   1.945   2.268  0.5912  0.6154  0.1561
 3897TIP3   OH211696   2.943   0.701   4.679 -0.1454  0.2627 -0.5135
 3897TIP3    H111697   2.937   0.770   4.614 -2.4541 -0.2526 -0.9554
 3897TIP3    H211698   2.944   0.620   4.628 -1.5283 -0.1266  0.0193
 3898TIP3   OH211699   5.185   2.721   1.794 -0.2552 -0.2826  0.4226
 3898TIP3    H111700   5.205   2.637   1.835  0.3027  0.2187  1.1996
 3898TIP3    H211701   5.240   2.724   1.716 -1.3367 -1.2515 -0.4026
 3899TIP3   OH211702   6.310   5.754   3.825  0.3958 -0.1917  0.2791
 3899TIP3    H111703   6.258   5.728   3.901  1.2754  1.4709  1.5303
 3899TIP3    H211704   6.399   5.726   3.846  0.9140  1.5361  0.5840
 3900TIP3   OH211705   5.936   0.832   4.958  0.0005  0.2230  0.2740
 3900TIP3    H111706   6.010   0.892   4.968  0.3216  0.0072 -0.7473
 3900TIP3    H211707   5.859   0.888   4.957  0.3378  0.6936 -1.3077
 3901TIP3   OH211708   5.404   1.052   1.713  0.3404 -0.0355  0.4490
 3901TIP3    H111709   5.353   1.102   1.776  1.6223  1.1443  0.5772
 3901TIP3    H211710   5.405   0.963   1.749 -2.5637 -0.4098 -0.1453
 3902TIP3   OH211711   0.362   5.512   1.160  0.2315  0.2211  0.0611
 3902TIP3    H111712   0.319   5.470   1.086  0.5531  2.3906 -1.4423
 3902TIP3    H211713   0.292   5.562   1.203  0.5349  1.0011 -0.3330
 3903TIP3   OH211714   5.249   2.983   3.826 -0.9411 -0.3314 -0.0019
 3903TIP3    H111715   5.201   3.049   3.877  0.7597  0.2145  0.9598
 3903TIP3    H211716   5.255   2.908   3.884  0.4361  0.0568  0.3808
 3904TIP3   OH211717   2.768   2.957   2.272  0.2546  0.0849  0.3120
 3904TIP3    H111718   2.854   2.931   2.305  0.6842  0.2781 -0.6178
 3904TIP3    H211719   2.785   3.038   2.223 -0.8263  1.4224  2.0211
 3905TIP3   OH211720   0.978   3.343   1.006 -0.0652  0.3945  0.6307
 3905TIP3    H111721   0.948   3.398   1.078 -0.4020 -0.4394  1.1487
 3905TIP3    H211722   1.059   3.303   1.038 -0.7529 -0.7746  0.9748
 3906TIP3   OH211723   0.434   5.776   0.827  0.2309 -0.2305  0.3114
 3906TIP3    H111724   0.426   5.685   0.798 -1.2031 -0.7708  2.2480
 3906TIP3    H211725   0.450   5.771   0.921  0.4842  1.5402  0.4107
 3907TIP3   OH211726   2.002   2.337   0.084 -0.5069 -0.1110  0.4859
 3907TIP3    H111727   2.013   2.304  -0.005 -1.8236 -0.3586  0.3868
 3907TIP3    H211728   2.090   2.358   0.114 -0.0392 -0.1146 -0.8429
 3908TIP3   OH211729   1.758   1.606   4.638  0.0618 -0.8003 -0.0377
 3908TIP3    H111730   1.775   1.699   4.648  1.1984 -0.8848 -0.9677
 3908TIP3    H211731   1.721   1.597   4.550  0.5702 -1.2886 -0.2116
 3909TIP3   OH211732   3.328   0.613   2.907  0.1588 -0.0294  0.4680
 3909TIP3    H111733   3.339   0.706   2.886 -1.4190  0.2004  0.5660
 3909TIP3    H211734   3.268   0.612   2.981 -0.7667 -1.1571 -0.2693
 3910TIP3   OH211735   0.341   2.871   0.568 -0.2096  0.4380  0.1013
 3910TIP3    H111736   0.413   2.929   0.544 -0.5305  1.4438  1.4528
 3910TIP3    H211737   0.299   2.849   0.485  3.6500 -3.0443 -1.2723
 3911TIP3   OH211738   0.591   0.235   2.588  0.1690  0.1228 -0.0390
 3911TIP3    H111739   0.512   0.218   2.537  0.4331 -0.4994 -0.2412
 3911TIP3    H211740   0.654   0.170   2.558  0.7521  0.5901  0.1454
 3912TIP3   OH211741   3.495   1.055   3.397  0.2799  0.3497 -0.0828
 3912TIP3    H111742   3.458   1.125   3.343 -0.0931  0.4812  0.3392
 3912TIP3    H211743   3.446   1.059   3.479 -0.6615 -1.2707 -0.5270
 3913TIP3   OH211744   2.234   2.148   2.241 -0.1695  0.1784 -0.5596
 3913TIP3    H111745   2.138   2.154   2.238 -0.2528 -0.3896  0.6176
 3913TIP3    H211746   2.252   2.054   2.236  0.3595  0.3046 -1.2157
 3914TIP3   OH211747   4.147   4.745   4.160 -0.0412  0.6630 -0.2163
 3914TIP3    H111748   4.146   4.784   4.072 -1.2169 -1.1199 -1.0611
 3914TIP3    H211749   4.055   4.724   4.177  0.4376 -0.8623  0.5729
 3915TIP3   OH211750   3.618   5.903   1.503 -0.2204 -0.1955 -0.3587
 3915TIP3    H111751   3.682   5.886   1.573 -0.3628  1.4519  0.2210
 3915TIP3    H211752   3.533   5.886   1.544 -0.2114 -2.6949 -1.2220
 3916TIP3   OH211753   1.314   5.276   1.459  0.3229 -0.1614  0.3182
 3916TIP3    H111754   1.403   5.284   1.494  1.1269 -2.2262 -1.0698
 3916TIP3    H211755   1.322   5.297   1.366 -0.4867 -0.9990  0.0384
 3917TIP3   OH211756   5.640   1.953   2.057  0.0049 -0.7088 -0.2526
 3917TIP3    H111757   5.694   1.874   2.052 -0.5348 -1.0751 -0.3752
 3917TIP3    H211758   5.618   1.973   1.966 -0.0537 -0.5508 -0.2048
 3918TIP3   OH211759   5.401   2.976   1.283 -0.8752  0.6942 -0.0452
 3918TIP3    H111760   5.329   2.988   1.345  0.3039  0.2886  1.4685
 3918TIP3    H211761   5.445   2.895   1.312 -0.4301  0.3527 -1.5689
 3919TIP3   OH211762   0.902   4.529   2.973  0.1303 -0.1003 -0.3410
 3919TIP3    H111763   0.828   4.571   2.930  1.1052  0.2213 -1.7573
 3919TIP3    H211764   0.895   4.437   2.948 -1.5856 -0.7566  2.1662
 3920TIP3   OH211765   1.762   0.577  -0.001 -0.1680 -0.1752  0.0484
 3920TIP3    H111766   1.749   0.667  -0.029 -0.1835 -0.3903 -0.6562
 3920TIP3    H211767   1.784   0.583   0.092  0.3640  0.5924 -0.1227
 3921TIP3   OH211768   0.864   4.340   2.769 -0.6790 -0.2380 -0.1593
 3921TIP3    H111769   0.893   4.394   2.696 -0.3443  0.4889  0.4970
 3921TIP3    H211770   0.903   4.254   2.753 -2.0347 -0.5999 -1.7415
 3922TIP3   OH211771   3.816   1.611   3.489  0.7545  0.1961  0.2215
 3922TIP3    H111772   3.843   1.702   3.479  0.6492  0.2768  0.6283
 3922TIP3    H211773   3.725   1.616   3.518  0.6270 -0.0491 -0.1355
 3923TIP3   OH211774   3.962   4.093   1.529  0.2577  0.0687  0.0289
 3923TIP3    H111775   3.969   4.083   1.624  0.0351  0.0493  0.0442
 3923TIP3    H211776   3.992   4.182   1.512 -0.6528  0.4293  0.2315
 3924TIP3   OH211777   2.446   2.581   1.392  0.1214 -0.0101  0.2921
 3924TIP3    H111778   2.409   2.646   1.332  0.5884  0.1179  0.1349
 3924TIP3    H211779   2.378   2.566   1.457 -0.5919 -0.5158 -0.5482
 3925TIP3   OH211780   4.991   0.551   2.949  0.4872  0.1694  0.0049
 3925TIP3    H111781   4.914   0.596   2.916  1.0320  0.8311 -0.3984
 3925TIP3    H211782   4.960   0.463   2.971  0.2020 -0.6061 -3.0096
 3926TIP3   OH211783   3.986   5.169   4.764  0.3777  0.3785  0.3148
 3926TIP3    H111784   3.998   5.241   4.702 -1.9130  0.3730 -0.2390
 3926TIP3    H211785   4.031   5.095   4.723 -2.5727 -0.1344 -2.4552
 3927TIP3   OH211786   4.241   0.564   3.811 -0.0379  0.0788  0.1400
 3927TIP3    H111787   4.179   0.615   3.864 -0.7393 -0.8957  0.2919
 3927TIP3    H211788   4.320   0.617   3.808 -0.7429  1.1689  0.2967
 3928TIP3   OH211789   2.319   2.047   2.999 -0.3280  0.3954  0.3207
 3928TIP3    H111790   2.373   2.078   2.927  0.7781 -0.3018  0.8123
 3928TIP3    H211791   2.240   2.099   2.995  0.4852  1.6154 -0.2915
 3929TIP3   OH211792   4.494   0.841   5.149  0.0527 -0.1850 -0.3146
 3929TIP3    H111793   4.479   0.873   5.060 -0.3621 -0.8368 -0.4818
 3929TIP3    H211794   4.455   0.908   5.205  0.9346  0.5835 -0.5850
 3930TIP3   OH211795   2.784   1.409   2.127  0.1924 -0.0147 -0.1373
 3930TIP3    H111796   2.743   1.451   2.052 -1.1199  0.7000  0.9205
 3930TIP3    H211797   2.803   1.320   2.099 -0.9332  0.0255 -1.0872
 3931TIP3   OH211798   3.258   0.453   0.952  0.3080 -0.0498 -0.1945
 3931TIP3    H111799   3.178   0.423   0.908 -0.0356  1.0008 -0.3257
 3931TIP3    H211800   3.227   0.508   1.023  0.8902 -1.1097  0.9087
 3932TIP3   OH211801   0.459   1.009   1.108  0.3634 -0.3216 -0.1616
 3932TIP3    H111802   0.452   1.103   1.090  3.0935 -0.3276 -1.8108
 3932TIP3    H211803   0.425   0.967   1.030 -1.5855 -0.7943  0.8864
 3933TIP3   OH211804   3.163   4.660   1.953 -0.2367 -0.5479  0.4770
 3933TIP3    H111805   3.219   4.618   2.018 -0.0022 -0.6522  0.2092
 3933TIP3    H211806   3.178   4.610   1.872  0.2047  0.1820  0.0998
 3934TIP3   OH211807   3.166   2.589   4.852 -0.1203 -0.2793  0.0223
 3934TIP3    H111808   3.246   2.638   4.834  0.1287 -0.1515  1.3605
 3934TIP3    H211809   3.096   2.653   4.840 -0.0367 -0.3631 -1.0413
 3935TIP3   OH211810   2.445   5.483   3.735  0.2241 -0.7112 -0.3526
 3935TIP3    H111811   2.485   5.410   3.688 -1.9181 -0.5499 -2.6445
 3935TIP3    H211812   2.395   5.530   3.668 -1.1237  0.9278  1.6851
 3936TIP3   OH211813   1.580   0.632   0.556 -0.1080  0.1966 -0.3308
 3936TIP3    H111814   1.500   0.636   0.609  1.0042 -0.9043  1.5530
 3936TIP3    H211815   1.608   0.723   0.548 -0.8770  0.4819  0.0757
 3937TIP3   OH211816   0.964   3.248   3.089  0.4809  0.1198  0.1578
 3937TIP3    H111817   1.003   3.196   3.158 -0.3564 -0.0998  0.4772
 3937TIP3    H211818   0.877   3.270   3.121  0.0959  0.0626 -0.7948
 3938TIP3   OH211819   1.007   5.450   3.897 -0.3686  0.0402 -0.3148
 3938TIP3    H111820   0.985   5.462   3.805  2.1464 -0.0510 -0.9914
 3938TIP3    H211821   1.027   5.357   3.905  1.2770  0.3731 -0.1720
 3939TIP3   OH211822   0.434   0.540   2.082  0.0664 -0.4283  0.0874
 3939TIP3    H111823   0.445   0.601   2.155 -1.5192  1.8953 -1.4749
 3939TIP3    H211824   0.494   0.572   2.014 -1.6085  0.1726 -1.1724
 3940TIP3   OH211825   1.507   0.602   5.202 -0.1134 -0.1181 -0.2603
 3940TIP3    H111826   1.573   0.532   5.207  0.4638  0.4800  1.0147
 3940TIP3    H211827   1.502   0.624   5.109  2.3607  0.6092 -0.2925
 3941TIP3   OH211828   0.044   3.244   0.959 -0.3800  0.1471  0.1132
 3941TIP3    H111829  -0.011   3.299   1.015 -0.5414 -0.3056  0.4095
 3941TIP3    H211830   0.061   3.297   0.881 -0.7447  0.5129  0.2808
 3942TIP3   OH211831   4.405   2.174   0.879 -0.1031 -0.2827  0.8406
 3942TIP3    H111832   4.341   2.202   0.944  1.0297  0.1131  1.8175
 3942TIP3    H211833   4.434   2.088   0.909 -0.3952 -0.6066  0.2220
 3943TIP3   OH211834   5.060   5.307  -0.010  0.5618 -0.4191 -0.1131
 3943TIP3    H111835   5.005   5.275   0.061 -0.1631  0.7424 -0.1155
 3943TIP3    H211836   5.149   5.305   0.025  0.5401 -2.2794 -0.0929
 3944TIP3   OH211837   6.283   0.324   1.804 -0.1171 -0.0841  0.3652
 3944TIP3    H111838   6.243   0.237   1.811 -3.5026  1.3827  1.5175
 3944TIP3    H211839   6.222   0.382   1.849  1.4367  3.1212 -1.3054
 3945TIP3   OH211840   2.997   3.951   1.932 -0.0723 -0.3875  0.4169
 3945TIP3    H111841   3.066   3.897   1.973  0.3065 -0.3922 -0.2214
 3945TIP3    H211842   3.017   4.040   1.961  1.6136 -0.0251 -1.5912
 3946TIP3   OH211843   0.117   5.257   2.235  0.1555  0.0078 -0.0855
 3946TIP3    H111844   0.145   5.166   2.237  0.3157  0.0663  0.4804
 3946TIP3    H211845   0.030   5.257   2.275  0.1162  0.0898 -0.1703
 3947TIP3   OH211846   4.576   0.532   4.474 -0.2736 -0.3500 -0.3336
 3947TIP3    H111847   4.628   0.518   4.394  0.1021  0.9063 -0.3319
 3947TIP3    H211848   4.640   0.558   4.540 -0.5821 -1.3929  0.4000
 3948TIP3   OH211849   1.166   5.192   2.068  0.0275  0.3405 -0.3748
 3948TIP3    H111850   1.070   5.192   2.073 -0.1175 -3.4390 -0.3682
 3948TIP3    H211851   1.186   5.189   1.975  0.1297  0.5975 -0.3618
 3949TIP3   OH211852   2.476   0.732   0.776  0.6124  0.0230 -1.0717
 3949TIP3    H111853   2.511   0.643   0.769  0.7379 -0.3224  2.2049
 3949TIP3    H211854   2.382   0.722   0.761  0.6379 -0.6707 -0.8308
 3950TIP3   OH211855   2.026   3.777   4.356 -0.1448 -0.0660 -0.3015
 3950TIP3    H111856   2.034   3.873   4.354  0.1369 -0.0584  0.7346
 3950TIP3    H211857   2.115   3.746   4.370 -0.3388 -0.4482  0.0875
 3951TIP3   OH211858   0.663   0.970   2.987 -0.2423  0.0370  0.3183
 3951TIP3    H111859   0.685   0.949   3.077 -0.5971  0.5822  0.5356
 3951TIP3    H211860   0.613   0.894   2.956  0.1898 -0.3089  0.4621
 3952TIP3   OH211861   3.514   5.047   4.544 -0.1881 -0.1367 -0.3358
 3952TIP3    H111862   3.461   5.114   4.501 -0.7168  0.0210  0.5402
 3952TIP3    H211863   3.579   5.022   4.478 -0.6782  0.4375 -1.0538
 3953TIP3   OH211864   4.411   0.787   2.911 -0.0580  0.1764  0.5558
 3953TIP3    H111865   4.325   0.823   2.935 -0.2444  0.5092 -0.5521
 3953TIP3    H211866   4.446   0.850   2.849  0.1076 -0.9815 -0.5623
 3954TIP3   OH211867   1.305   3.879   4.263 -0.0392 -0.0270  0.6395
 3954TIP3    H111868   1.273   3.818   4.197  1.7915 -1.3788  0.9254
 3954TIP3    H211869   1.300   3.830   4.345  0.2929  0.6466  1.0677
 3955TIP3   OH211870   4.686   3.010   0.814 -0.4233 -0.3888  0.4578
 3955TIP3    H111871   4.615   3.070   0.794  0.4810  0.5023 -0.1997
 3955TIP3    H211872   4.730   3.050   0.889 -0.2302 -0.5985  0.4586
 3956TIP3   OH211873   2.267   4.557   1.859  0.2143  0.0255 -0.2359
 3956TIP3    H111874   2.301   4.470   1.881  0.6709  0.4817  0.9449
 3956TIP3    H211875   2.264   4.558   1.764  2.0371 -0.6198 -0.3471
 3957TIP3   OH211876   2.929   3.165   3.548  0.7810 -0.1558 -0.0282
 3957TIP3    H111877   3.005   3.108   3.559  0.0732 -1.2031 -0.4217
 3957TIP3    H211878   2.901   3.151   3.457  0.3603  0.5387 -0.0183
 3958TIP3   OH211879   2.239   1.919   1.798  0.4914  0.2958  0.5344
 3958TIP3    H111880   2.240   1.974   1.719  0.1949  2.2367  1.8283
 3958TIP3    H211881   2.312   1.951   1.851  0.5362 -0.8224  1.1739
 3959TIP3   OH211882   4.447   4.581   3.073  0.4681  0.2906  0.1152
 3959TIP3    H111883   4.517   4.645   3.058  0.3251  0.5803  0.6624
 3959TIP3    H211884   4.378   4.606   3.012 -0.1838  1.5675  1.3296
 3960TIP3   OH211885   2.127   2.010   0.547  0.1616  0.3268  0.2016
 3960TIP3    H111886   2.131   1.927   0.500  0.3740  0.8623 -0.7669
 3960TIP3    H211887   2.214   2.020   0.584  0.6773  0.8794 -1.0846
 3961TIP3   OH211888   0.575   3.715   0.733 -0.2700  0.1468 -0.3661
 3961TIP3    H111889   0.545   3.806   0.728 -0.6278  0.0310 -0.4106
 3961TIP3    H211890   0.622   3.709   0.816 -2.2270 -0.1900  0.7797
 3962TIP3   OH211891   5.797   0.286   2.922  0.0676  0.0379  0.6026
 3962TIP3    H111892   5.825   0.256   2.835 -1.6730 -0.1674  0.0726
 3962TIP3    H211893   5.787   0.205   2.973 -0.5378  0.0171  0.4619
 3963TIP3   OH211894   2.255   1.110   4.379  0.3387  0.2493  0.0435
 3963TIP3    H111895   2.305   1.101   4.461 -1.0888 -5.2064  0.7288
 3963TIP3    H211896   2.174   1.153   4.405  0.3863 -0.3640  1.2836
 3964TIP3   OH211897   3.389   5.538   3.530 -0.2795  0.3687  0.1758
 3964TIP3    H111898   3.326   5.608   3.517  0.3436  0.9435  0.1760
 3964TIP3    H211899   3.474   5.582   3.527  0.1600 -0.5007 -0.5911
 3965TIP3   OH211900   2.069   2.635   2.587  0.0851  0.6133  0.2559
 3965TIP3    H111901   2.034   2.675   2.508 -0.1711 -0.5573 -0.2350
 3965TIP3    H211902   2.164   2.631   2.572  0.0255  0.2885 -0.0443
 3966TIP3   OH211903   4.296   2.261   4.658  0.7145  0.2426  0.2391
 3966TIP3    H111904   4.256   2.282   4.743 -0.4589  1.4969 -0.5792
 3966TIP3    H211905   4.251   2.181   4.630  1.9747 -0.8908  1.3145
 3967TIP3   OH211906   4.838   1.788   0.089 -0.2192  0.3190  0.1857
 3967TIP3    H111907   4.927   1.758   0.108 -0.4361 -0.0067  0.6894
 3967TIP3    H211908   4.825   1.764  -0.003 -0.5487 -1.6087  0.6797
 3968TIP3   OH211909   6.172   2.727   0.848 -0.4170 -0.7284 -0.0921
 3968TIP3    H111910   6.171   2.649   0.793  1.4077 -0.2814 -0.8028
 3968TIP3    H211911   6.224   2.791   0.800 -0.5003  0.3854  1.2192
 3969TIP3   OH211912   0.461   4.902   3.442 -0.0383 -0.0130  0.2002
 3969TIP3    H111913   0.469   4.816   3.482  0.8474 -0.2947 -0.5552
 3969TIP3    H211914   0.367   4.921   3.445 -0.6059 -2.0406 -1.6995
 3970TIP3   OH211915   5.497   5.421   3.659 -0.6015  0.4435  0.5721
 3970TIP3    H111916   5.552   5.497   3.638  1.3105 -1.5584 -2.3479
 3970TIP3    H211917   5.408   5.451   3.639 -0.0414  2.2495  0.5358
 3971TIP3   OH211918   2.712   1.501   4.253  0.4766  0.1435  0.1102
 3971TIP3    H111919   2.731   1.544   4.336 -0.4686  0.4215  0.1963
 3971TIP3    H211920   2.681   1.571   4.196  1.0428 -0.0611 -0.4512
 3972TIP3   OH211921   3.996   0.683   0.852 -0.1033  0.3005  0.0428
 3972TIP3    H111922   3.988   0.613   0.786  0.5766  0.9901 -0.7937
 3972TIP3    H211923   3.906   0.713   0.865 -0.5004 -1.1485  0.8984
 3973TIP3   OH211924   4.374   1.963   5.042 -0.1037 -0.6517 -0.2400
 3973TIP3    H111925   4.315   2.021   5.091  0.5665  0.0808 -0.2817
 3973TIP3    H211926   4.406   1.900   5.107 -0.0087 -0.3137  0.0447
 3974TIP3   OH211927   3.985   3.665   4.876  0.6618 -0.8486  0.7232
 3974TIP3    H111928   3.894   3.690   4.859  0.7865  0.5528  2.0067
 3974TIP3    H211929   3.981   3.570   4.891 -0.5376 -0.8412  0.5694
 3975TIP3   OH211930   3.208   2.731   0.864  0.0502 -0.2147  0.6496
 3975TIP3    H111931   3.289   2.728   0.813 -0.2221  1.0476  0.1007
 3975TIP3    H211932   3.231   2.781   0.942 -0.6740  2.1108 -0.5238
 3976TIP3   OH211933   6.354   4.713   4.230  0.4835  0.7444 -0.1659
 3976TIP3    H111934   6.318   4.645   4.172  2.0458 -0.4410  0.1814
 3976TIP3    H211935   6.277   4.763   4.258 -0.7882 -1.0916 -0.1544
 3977TIP3   OH211936   5.542   4.743   0.128  0.5737  0.3168 -0.2348
 3977TIP3    H111937   5.547   4.674   0.193 -1.3992  0.0587 -0.3019
 3977TIP3    H211938   5.453   4.777   0.135  0.2213  0.1450 -2.9087
 3978TIP3   OH211939   2.008   1.504   4.680  0.3161 -0.7639 -0.2958
 3978TIP3    H111940   1.922   1.538   4.655 -0.2426 -1.8669  0.0576
 3978TIP3    H211941   2.016   1.526   4.773  0.8256  0.1400 -0.5408
 3979TIP3   OH211942   3.924   4.166   4.445 -0.7863  0.3881  0.1681
 3979TIP3    H111943   3.839   4.124   4.455 -0.6073  0.3449  1.8434
 3979TIP3    H211944   3.951   4.187   4.534  0.2865  1.7720 -0.4451
 3980TIP3   OH211945   6.327   2.110   2.603  0.1141  0.0598 -0.0081
 3980TIP3    H111946   6.284   2.186   2.642  1.3420  0.5310  0.4880
 3980TIP3    H211947   6.365   2.142   2.522  1.6101  0.2974  0.7522
 3981TIP3   OH211948   4.514   0.815   4.451 -0.7033 -0.3747 -0.0693
 3981TIP3    H111949   4.517   0.720   4.437  2.0519 -0.3260 -0.4239
 3981TIP3    H211950   4.555   0.851   4.372  1.8897  0.8256  1.7110
 3982TIP3   OH211951   3.189   3.525   2.032 -0.2623  0.2326 -0.1301
 3982TIP3    H111952   3.157   3.471   2.105 -1.8962 -1.1074 -1.7325
 3982TIP3    H211953   3.122   3.514   1.964  0.8101  2.0632 -1.5551
 3983TIP3   OH211954   1.911   1.028   2.947  0.6235 -0.2789  0.5293
 3983TIP3    H111955   1.825   1.038   2.906  0.2914  1.0679  1.5043
 3983TIP3    H211956   1.920   0.933   2.960 -0.4389 -0.4890 -0.1305
 3984TIP3   OH211957   0.558   2.197   0.226 -0.3629  0.3829  0.1758
 3984TIP3    H111958   0.579   2.290   0.225 -2.2316  0.8607  0.6549
 3984TIP3    H211959   0.532   2.179   0.316 -1.1437 -0.3182 -0.1772
 3985TIP3   OH211960   1.867   3.626   3.386 -0.2133 -0.2632  0.8018
 3985TIP3    H111961   1.935   3.590   3.443  0.6718  2.4752  1.6639
 3985TIP3    H211962   1.880   3.582   3.302 -0.5245 -3.2523  2.1766
 3986TIP3   OH211963   2.574   5.662   1.185 -0.6144 -0.2210  0.1001
 3986TIP3    H111964   2.613   5.617   1.111 -0.3378  1.0479 -0.5453
 3986TIP3    H211965   2.495   5.704   1.150 -0.2919  0.6894  0.4127
 3987TIP3   OH211966   2.865   1.016   0.205  0.2167  0.3355 -0.1032
 3987TIP3    H111967   2.888   0.924   0.190  0.0829  0.3252 -0.2427
 3987TIP3    H211968   2.946   1.064   0.186  0.2545  0.2577 -0.1429
 3988TIP3   OH211969   5.115   5.167   3.763 -0.7709  0.2825 -0.3426
 3988TIP3    H111970   5.055   5.130   3.828  1.8501  0.4381  2.3946
 3988TIP3    H211971   5.093   5.260   3.761 -1.9611 -0.0029 -0.9587
 3989TIP3   OH211972   4.747   4.526   3.373 -0.1840  0.4659  0.6200
 3989TIP3    H111973   4.773   4.527   3.465 -1.3701  1.1954  0.9692
 3989TIP3    H211974   4.703   4.442   3.361 -0.2844  0.4926  0.7964
 3990TIP3   OH211975   1.833   3.211   1.670 -0.5146 -0.2410 -0.4781
 3990TIP3    H111976   1.874   3.162   1.741 -0.1069  0.7555 -0.0172
 3990TIP3    H211977   1.799   3.290   1.711 -2.5491 -0.8210 -0.9180
 3991TIP3   OH211978   5.362   5.149   1.823  0.5441  0.8056 -0.1508
 3991TIP3    H111979   5.320   5.234   1.837 -0.2826  0.6992 -1.6816
 3991TIP3    H211980   5.401   5.156   1.736 -0.2206 -0.6282 -0.6540
 3992TIP3   OH211981   4.621   3.283   3.205  0.3345  0.3915  0.6958
 3992TIP3    H111982   4.652   3.277   3.115 -2.2461 -0.3206 -0.2135
 3992TIP3    H211983   4.566   3.362   3.207 -2.9584 -1.7073  0.4258
 3993TIP3   OH211984   0.482   4.763   1.494 -0.1958  0.5172 -0.4065
 3993TIP3    H111985   0.537   4.807   1.559 -0.4122 -0.1380  0.2324
 3993TIP3    H211986   0.473   4.673   1.527 -1.7763  0.6496 -0.3980
 3994TIP3   OH211987   5.999   4.965   0.847 -0.0126 -0.4902 -0.3445
 3994TIP3    H111988   5.982   4.919   0.765  1.3769 -0.9903 -0.3856
 3994TIP3    H211989   6.016   4.896   0.911  0.1513 -0.0787  0.0628
 3995TIP3   OH211990   6.119   4.107   3.433 -0.2546  0.5997 -0.6936
 3995TIP3    H111991   6.142   4.123   3.342 -0.6584  0.5106 -0.8141
 3995TIP3    H211992   6.170   4.030   3.458 -2.0552 -0.9704 -1.6303
 3996TIP3   OH211993   3.346   2.212   0.563 -0.8769  0.1222 -0.4517
 3996TIP3    H111994   3.325   2.126   0.528  0.7621 -0.8839  0.8798
 3996TIP3    H211995   3.281   2.228   0.631 -1.2436 -0.0237 -0.7690
 3997TIP3   OH211996   4.124   4.986   2.127  0.4448 -0.0602  0.3688
 3997TIP3    H111997   4.076   5.049   2.181 -0.1482  0.1629 -0.3925
 3997TIP3    H211998   4.081   4.991   2.042  0.7450 -1.1080  0.1501
 3998TIP3   OH211999   5.628   2.513   5.115 -0.3610  0.4400 -0.7634
 3998TIP3    H112000   5.599   2.500   5.206 -0.7397  0.9231 -0.8121
 3998TIP3    H212001   5.553   2.490   5.062  0.1068 -0.5982 -1.0010
 3999TIP3   OH212002   3.315   3.503   1.252  0.9592  0.8695 -0.0963
 3999TIP3    H112003   3.334   3.478   1.343 -0.6074 -0.6222 -0.1415
 3999TIP3    H212004   3.260   3.581   1.261 -0.2392  0.0099  0.3192
 4000TIP3   OH212005   4.292   4.922   3.609 -0.2194  0.0750  0.2693
 4000TIP3    H112006   4.380   4.906   3.645 -0.5278  2.6253  2.4376
 4000TIP3    H212007   4.251   4.835   3.607  1.6182 -0.8771  1.2378
 4001TIP3   OH212008   3.090   3.986   4.603 -0.3215 -0.2320 -0.0532
 4001TIP3    H112009   3.145   4.057   4.572  0.7148 -1.0481 -0.1391
 4001TIP3    H212010   3.046   3.954   4.523 -0.5751  0.1340 -0.0582
 4002TIP3   OH212011   5.024   2.484   0.864  0.2189  0.2189 -0.0020
 4002TIP3    H112012   5.082   2.488   0.940  0.1880  1.3014 -0.0086
 4002TIP3    H212013   5.005   2.391   0.852  1.4326 -0.0945  0.3912
 4003TIP3   OH212014   6.169   3.654   3.420 -0.2763 -0.3103  0.2470
 4003TIP3    H112015   6.214   3.724   3.467 -1.4339  0.3245  0.4517
 4003TIP3    H212016   6.082   3.689   3.401  0.2759 -0.3154 -2.8651
 4004TIP3   OH212017   2.596   3.563   1.005  0.0612 -0.3917  0.3650
 4004TIP3    H112018   2.504   3.557   0.979  0.3312 -1.3574 -0.4530
 4004TIP3    H212019   2.602   3.511   1.085 -0.0989 -0.3540  0.4015
 4005TIP3   OH212020   3.609   3.352   3.010  0.4158 -0.8010  0.5789
 4005TIP3    H112021   3.639   3.297   3.083  0.6475 -3.2450 -1.2627
 4005TIP3    H212022   3.514   3.347   3.014  0.4385 -1.7205  0.1767
 4006TIP3   OH212023   2.799   1.958   2.559  0.0453  0.3385  0.2192
 4006TIP3    H112024   2.878   2.012   2.564 -0.0881  0.6307 -0.7435
 4006TIP3    H212025   2.746   1.998   2.491 -0.4727 -0.4720  0.1276
 4007TIP3   OH212026   3.167   1.120   1.373 -0.2369  0.7069  0.1526
 4007TIP3    H112027   3.172   1.162   1.459 -0.2128  1.5715 -0.2609
 4007TIP3    H212028   3.228   1.046   1.380  2.2622  2.5879 -0.0828
 4008TIP3   OH212029   1.186   3.777   1.929 -0.0760 -0.0664 -0.3424
 4008TIP3    H112030   1.241   3.728   1.869 -0.1042 -1.0411  0.4058
 4008TIP3    H212031   1.189   3.867   1.896 -0.1887 -0.5830 -1.8556
 4009TIP3   OH212032   2.976   1.042   1.202 -0.1607 -0.2193  0.5756
 4009TIP3    H112033   3.044   1.069   1.262 -0.0275  1.3729 -0.2361
 4009TIP3    H212034   2.938   1.124   1.169 -0.8279 -1.0316 -0.8102
 4010TIP3   OH212035   1.229   1.547   0.058  0.5704 -0.4036  0.5667
 4010TIP3    H112036   1.141   1.582   0.065  0.1156 -1.8368  3.1539
 4010TIP3    H212037   1.274   1.579   0.136  2.2285 -0.1024 -0.4513
 4011TIP3   OH212038   5.990   5.955   0.049 -0.2508  0.8683 -0.0875
 4011TIP3    H112039   6.049   5.880   0.045 -0.0599  1.0126  0.0014
 4011TIP3    H212040   5.949   5.958  -0.037 -1.3625 -0.2233  0.3664
 4012TIP3   OH212041   5.833   5.649   0.977 -0.6515  0.1284  0.1680
 4012TIP3    H112042   5.877   5.565   0.991  1.0181  1.1770  1.6141
 4012TIP3    H212043   5.876   5.687   0.900 -0.8810 -0.0127 -0.0297
 4013TIP3   OH212044   2.268   5.072   2.751  0.3091 -0.2021 -0.0821
 4013TIP3    H112045   2.338   5.115   2.801 -0.1272 -0.4239  0.7326
 4013TIP3    H212046   2.294   4.980   2.749  0.9483 -0.0036 -1.3269
 4014TIP3   OH212047   1.271   4.789   2.735 -0.1417 -0.2098 -0.7848
 4014TIP3    H112048   1.180   4.812   2.752  0.0846  0.6481 -0.7190
 4014TIP3    H212049   1.322   4.858   2.777  0.5443 -0.7169 -0.7610
 4015TIP3   OH212050   5.990   2.188   0.661  0.1016 -0.0705  0.3223
 4015TIP3    H112051   6.046   2.206   0.585 -0.6224 -0.5061 -0.3394
 4015TIP3    H212052   6.035   2.119   0.709  1.2934  1.2130  1.1070
 4016TIP3   OH212053   2.429   4.758   0.607 -0.8695  0.2636  0.4318
 4016TIP3    H112054   2.503   4.792   0.556 -0.1849 -1.6060  0.0747
 4016TIP3    H212055   2.403   4.830   0.663  0.8173  1.1864  0.1044
 4017TIP3   OH212056   2.834   3.751   3.158 -0.7224 -0.0291 -0.1669
 4017TIP3    H112057   2.758   3.758   3.215 -0.6356  0.6472 -0.1230
 4017TIP3    H212058   2.798   3.726   3.073 -1.2082  1.8678 -0.5721
 4018TIP3   OH212059   6.108   5.002   5.005 -0.1328 -0.0643  0.4765
 4018TIP3    H112060   6.044   5.048   5.060 -0.8346 -1.4826  0.9189
 4018TIP3    H212061   6.187   5.055   5.011 -1.1454  1.5334  0.2340
 4019TIP3   OH212062   0.733   0.170   3.618 -0.3826 -0.6076 -0.6580
 4019TIP3    H112063   0.786   0.235   3.574 -0.2227 -1.0661 -1.1588
 4019TIP3    H212064   0.786   0.141   3.692 -0.6198  0.1098 -0.1988
 4020TIP3   OH212065   2.008   0.074   1.010  0.0041  0.1928  0.0470
 4020TIP3    H112066   1.948   0.119   0.950  0.2024  0.0014 -0.3023
 4020TIP3    H212067   1.969  -0.013   1.020  0.3177  0.0047 -0.3308
 4021TIP3   OH212068   6.247   1.765   0.361  0.0834 -0.8017 -0.1146
 4021TIP3    H112069   6.200   1.777   0.279  0.9846 -0.8149 -0.6473
 4021TIP3    H212070   6.339   1.774   0.337  0.3485 -0.5908  0.9349
 4022TIP3   OH212071   1.901   3.713   2.375 -0.1303 -0.6894  0.5535
 4022TIP3    H112072   1.977   3.730   2.430  1.0053  0.1666 -1.1736
 4022TIP3    H212073   1.826   3.718   2.434  0.9895  0.4946  1.9452
 4023TIP3   OH212074   1.978   5.138   3.931  0.2369  0.2217 -0.1542
 4023TIP3    H112075   2.047   5.176   3.876  2.7541 -1.4182  1.6512
 4023TIP3    H212076   1.973   5.047   3.903 -0.3484  0.0289  0.5533
 4024TIP3   OH212077   5.845   4.011   4.492  0.1853 -0.5197  0.1534
 4024TIP3    H112078   5.803   4.096   4.479  1.3921 -0.0480 -0.8526
 4024TIP3    H212079   5.781   3.948   4.460  0.3297  0.2013 -1.6579
 4025TIP3   OH212080   1.914   5.299   5.046  0.1537  0.4609  0.4625
 4025TIP3    H112081   1.959   5.256   4.973 -1.9854 -1.0728 -0.0525
 4025TIP3    H212082   1.952   5.259   5.124 -0.4040 -1.0256  0.0265
 4026TIP3   OH212083   3.873   4.994   3.925  0.3919 -0.3589  0.5093
 4026TIP3    H112084   3.857   4.912   3.879 -1.6577 -0.4460  1.2783
 4026TIP3    H212085   3.964   5.016   3.904  0.7309 -2.3817 -0.3719
 4027TIP3   OH212086   3.028   4.655   4.974  0.5866 -0.3051  0.4289
 4027TIP3    H112087   3.110   4.627   4.932  0.6384 -0.6314  0.7370
 4027TIP3    H212088   2.985   4.573   5.000 -0.0326 -0.1527 -0.0930
 4028TIP3   OH212089   1.447   0.045   4.190 -0.5345  0.2974 -0.4275
 4028TIP3    H112090   1.424   0.028   4.099 -2.1097  1.4306 -0.2865
 4028TIP3    H212091   1.448  -0.042   4.231  1.2913 -0.3546 -1.7001
 4029TIP3   OH212092   1.135   0.208   0.495 -0.4300 -0.1660  0.2720
 4029TIP3    H112093   1.068   0.201   0.427  0.2872  2.6073 -0.8583
 4029TIP3    H212094   1.085   0.215   0.577 -1.3901 -0.7888 -0.2296
 4030TIP3   OH212095   5.040   1.231   4.217  0.3687  0.4928  0.1471
 4030TIP3    H112096   5.132   1.211   4.199  0.0499 -0.5839 -0.3657
 4030TIP3    H212097   5.033   1.231   4.312  0.0077 -4.0893  0.3230
 4031TIP3   OH212098   3.502   2.899   0.256  0.5472 -0.0842 -0.4467
 4031TIP3    H112099   3.474   2.932   0.342  2.0313 -0.2506  0.1425
 4031TIP3    H212100   3.568   2.963   0.227 -1.4256  1.1546 -2.4932
 4032TIP3   OH212101   5.032   1.155   5.106 -0.4210 -0.1417  0.4718
 4032TIP3    H112102   5.119   1.141   5.071 -0.8580  0.4608 -0.9197
 4032TIP3    H212103   4.983   1.076   5.083 -0.5385 -0.0081  0.2546
 4033TIP3   OH212104   4.658   1.824   3.999  0.6088  0.4649 -0.0871
 4033TIP3    H112105   4.703   1.820   4.084  0.1501 -2.1478  0.1057
 4033TIP3    H212106   4.725   1.798   3.936  0.6858  1.5035 -0.4644
 4034TIP3   OH212107   3.718   2.274   4.922 -0.1227 -0.5518 -0.2565
 4034TIP3    H112108   3.807   2.300   4.945 -0.1267 -2.2543  2.0014
 4034TIP3    H212109   3.722   2.179   4.916 -1.9363 -0.7383  0.8062
 4035TIP3   OH212110   2.386   3.170   2.761 -0.0152 -0.1122  0.3195
 4035TIP3    H112111   2.321   3.240   2.765 -0.5474 -0.5846  0.1257
 4035TIP3    H212112   2.455   3.204   2.704 -0.1152  0.3746  0.4877
 4036TIP3   OH212113   6.257   0.698   0.121 -0.0824  0.0720  0.4560
 4036TIP3    H112114   6.254   0.787   0.156  0.3492  1.1896 -2.1148
 4036TIP3    H212115   6.172   0.660   0.144 -0.3256  1.1927  1.5007
 4037TIP3   OH212116   6.030   0.467   3.498 -0.2497  0.3523 -0.5855
 4037TIP3    H112117   6.039   0.519   3.418 -1.3939  0.7022 -0.5052
 4037TIP3    H212118   5.960   0.510   3.546 -0.5300 -0.6830 -0.0425
 4038TIP3   OH212119   4.608   0.896   4.702  0.7307 -0.8623 -0.4029
 4038TIP3    H112120   4.588   0.856   4.618  2.4890 -1.3154 -0.6410
 4038TIP3    H212121   4.701   0.916   4.698  0.4525  0.9263  0.6984
 4039TIP3   OH212122   3.675   4.390   1.022  0.1906  0.0691  0.5277
 4039TIP3    H112123   3.700   4.298   1.031 -0.2761 -0.1376 -0.2339
 4039TIP3    H212124   3.748   4.431   0.977 -0.6214 -0.4561 -1.3573
 4040TIP3   OH212125   4.962   1.942   3.749  0.3707  0.6957  0.7297
 4040TIP3    H112126   4.962   2.014   3.812  1.5135  0.3459  1.1649
 4040TIP3    H212127   4.885   1.890   3.770  1.1544  0.1336  2.4070
 4041TIP3   OH212128   3.846   4.242   0.209  0.3882  0.0192  0.2433
 4041TIP3    H112129   3.902   4.310   0.246  2.2522 -2.5936  2.6131
 4041TIP3    H212130   3.807   4.199   0.285 -0.0133 -2.0939 -1.0689
 4042TIP3   OH212131   3.716   2.504   2.388 -0.5381 -0.3620  0.2246
 4042TIP3    H112132   3.638   2.449   2.380 -0.3682 -0.6044  0.2099
 4042TIP3    H212133   3.762   2.470   2.465 -0.0537 -0.7271 -0.2123
 4043TIP3   OH212134   1.315   5.742   2.886  0.0499 -0.0119 -0.0129
 4043TIP3    H112135   1.408   5.752   2.866  0.0284  0.5653  0.1572
 4043TIP3    H212136   1.295   5.815   2.945 -0.9682  1.0739 -1.6236
 4044TIP3   OH212137   5.512   1.719   3.735  0.0008  0.1767  0.5026
 4044TIP3    H112138   5.537   1.695   3.646 -0.5653 -1.0023  0.6459
 4044TIP3    H212139   5.417   1.731   3.730  0.0939  1.0863  0.7438
 4045TIP3   OH212140   3.348   4.890   4.932 -0.4025  0.1284 -0.2137
 4045TIP3    H112141   3.415   4.958   4.938  0.6292 -1.0189  2.0602
 4045TIP3    H212142   3.325   4.869   5.023 -1.9674 -1.3510 -0.8796
 4046TIP3   OH212143   4.546   3.115   3.589  0.1245  0.5537 -0.0675
 4046TIP3    H112144   4.531   3.021   3.577  0.2165  0.2533  1.7871
 4046TIP3    H212145   4.458   3.153   3.591 -0.0134  0.2327  0.8564
 4047TIP3   OH212146   1.841   2.560   0.479  0.1524  0.1963  0.1412
 4047TIP3    H112147   1.834   2.638   0.535  0.4811  0.2230  0.1510
 4047TIP3    H212148   1.828   2.486   0.539 -2.0044  0.2694 -0.1762
 4048TIP3   OH212149   2.480   0.435   2.927 -0.7594  0.0800 -0.5566
 4048TIP3    H112150   2.466   0.345   2.956  0.0386  0.6280  1.7845
 4048TIP3    H212151   2.568   0.435   2.889 -0.0669  0.1304  0.9448
 4049TIP3   OH212152   3.024   4.907   1.605  0.0919 -0.1845 -0.6272
 4049TIP3    H112153   3.042   4.814   1.590  0.8674 -0.4424  1.5943
 4049TIP3    H212154   3.097   4.953   1.564  0.8141 -0.6791  0.0994
 4050TIP3   OH212155   2.550   1.914   1.695  0.0633 -0.3259  0.1829
 4050TIP3    H112156   2.559   1.878   1.784  1.2152  0.6972  0.4998
 4050TIP3    H212157   2.512   2.001   1.708 -0.8625 -0.6227 -0.4342
 4051TIP3   OH212158   5.317   4.557   2.654 -0.1788  0.3153 -0.1364
 4051TIP3    H112159   5.225   4.543   2.679 -0.2390  2.1319  0.8234
 4051TIP3    H212160   5.365   4.491   2.704 -0.7903  0.7503  1.0839
 4052TIP3   OH212161   5.007   5.428   4.383  0.0165 -0.3188  0.3025
 4052TIP3    H112162   4.944   5.432   4.311 -0.6545 -1.6771  0.7851
 4052TIP3    H212163   4.954   5.438   4.462  0.4951 -0.7000  0.6820
 4053TIP3   OH212164   2.355   1.038   3.462 -0.0533 -0.1075 -0.3707
 4053TIP3    H112165   2.401   1.120   3.447  0.0558 -0.4968 -2.5326
 4053TIP3    H212166   2.339   1.003   3.374 -0.6506 -2.0926  0.4616
 4054TIP3   OH212167   1.485   3.563   1.025 -0.2491  0.0711  0.1634
 4054TIP3    H112168   1.543   3.524   0.960 -0.2600  0.7379 -0.2487
 4054TIP3    H212169   1.452   3.642   0.983 -0.1885  0.5509  1.0166
 4055TIP3   OH212170   4.240   1.899   3.868 -0.3993 -0.0969 -0.3943
 4055TIP3    H112171   4.183   1.901   3.791  0.0188 -2.0295 -0.8149
 4055TIP3    H212172   4.313   1.843   3.841 -0.9319 -1.9972  1.8396
 4056TIP3   OH212173   6.004   2.891   0.510 -0.2181 -0.3135  0.7148
 4056TIP3    H112174   6.010   2.954   0.581  2.4400 -0.9153  1.1511
 4056TIP3    H212175   5.929   2.919   0.458 -0.7213  1.5929  2.3740
 4057TIP3   OH212176   5.142   5.035   2.260  0.2981 -0.3804  0.1805
 4057TIP3    H112177   5.153   5.113   2.315  0.7808 -0.2268 -0.1268
 4057TIP3    H212178   5.218   5.035   2.203  0.0360 -0.7947 -0.1782
 4058TIP3   OH212179   6.351   0.406   2.821  0.3395 -0.3808  0.1237
 4058TIP3    H112180   6.287   0.418   2.750  0.8850 -0.6134 -0.4121
 4058TIP3    H212181   6.322   0.327   2.866 -1.2392  0.9073  1.4989
 4059TIP3   OH212182   3.548   1.764   2.937 -0.4155 -0.3950 -0.1737
 4059TIP3    H112183   3.537   1.793   3.028 -2.3166  0.5364 -0.6315
 4059TIP3    H212184   3.636   1.792   2.913 -0.1157 -0.0999  1.2097
 4060TIP3   OH212185   3.479   2.282   3.322 -0.0426  0.6685 -0.0432
 4060TIP3    H112186   3.434   2.242   3.248  0.0634  1.9010 -0.7880
 4060TIP3    H212187   3.511   2.365   3.289 -0.1313  1.3222  1.4379
 4061TIP3   OH212188   2.560   2.661   0.413 -0.0512 -0.2099 -0.1182
 4061TIP3    H112189   2.468   2.685   0.400  0.0754 -0.1304 -0.8802
 4061TIP3    H212190   2.556   2.575   0.456 -0.4848  0.4894  1.3036
 4062TIP3   OH212191   6.075   5.399   4.501 -0.4504  0.0503 -0.6225
 4062TIP3    H112192   6.055   5.350   4.581  0.3053 -0.2902 -0.6370
 4062TIP3    H212193   6.022   5.358   4.433 -1.7643  0.8865 -0.1480
 4063TIP3   OH212194   5.027   2.011   2.753  0.3812 -0.5888 -0.2883
 4063TIP3    H112195   5.031   2.097   2.796  0.3701 -0.8838  0.2970
 4063TIP3    H212196   4.968   1.960   2.807  0.9210 -1.1877 -0.2566
 4064TIP3   OH212197   5.266   5.478   0.512 -0.1301  0.7216  0.2344
 4064TIP3    H112198   5.220   5.533   0.449 -0.1104  0.4707  0.0013
 4064TIP3    H212199   5.263   5.391   0.474  2.0453  0.9752 -0.6389
 4065TIP3   OH212200   6.119   1.595   2.636  0.1714 -0.6470  0.0018
 4065TIP3    H112201   6.035   1.638   2.648  0.0526  0.2191 -3.0727
 4065TIP3    H212202   6.099   1.501   2.635 -0.4972 -0.5200  0.8000
 4066TIP3   OH212203   5.799   2.616   3.181 -0.0660  0.5730 -0.3195
 4066TIP3    H112204   5.759   2.529   3.178 -0.0008  0.4464  1.3596
 4066TIP3    H212205   5.739   2.672   3.131  0.0402 -0.4653 -1.6624
 4067TIP3   OH212206   6.122   4.614   0.650  0.6919  0.5158 -0.1817
 4067TIP3    H112207   6.093   4.555   0.719  1.4009  0.0283 -0.2952
 4067TIP3    H212208   6.149   4.557   0.579 -0.0589  1.0127 -0.8903
 4068TIP3   OH212209   3.140   2.710   3.306  0.2112  0.2883 -0.0534
 4068TIP3    H112210   3.137   2.802   3.279 -1.2061  0.4169  0.4333
 4068TIP3    H212211   3.077   2.667   3.248  0.6253 -0.3188 -0.0575
 4069TIP3   OH212212   5.323   3.128   2.847 -0.2897 -0.1341 -0.0248
 4069TIP3    H112213   5.363   3.171   2.923 -0.6155  0.1728 -0.0217
 4069TIP3    H212214   5.239   3.172   2.837 -0.8662 -1.1273  0.2986
 4070TIP3   OH212215   5.819   3.573   0.507 -0.0985 -0.1217 -0.2083
 4070TIP3    H112216   5.888   3.566   0.573  0.1864 -1.5677 -0.6143
 4070TIP3    H212217   5.864   3.556   0.424 -0.8119 -0.3255 -0.5574
 4071TIP3   OH212218   5.288   4.836   0.138 -0.2374 -0.7538  0.4035
 4071TIP3    H112219   5.211   4.893   0.132 -0.2477 -0.7164  0.8625
 4071TIP3    H212220   5.276   4.772   0.067  1.1439  1.4127 -1.9657
 4072TIP3   OH212221   0.966   1.066   4.504 -0.0771 -0.5917 -0.5856
 4072TIP3    H112222   0.973   1.124   4.580  1.0677  0.2479 -1.2951
 4072TIP3    H212223   0.972   0.978   4.540  0.9700 -0.1972  0.2672
 4073TIP3   OH212224   5.195   2.274   4.488 -0.1159 -0.5789 -0.3981
 4073TIP3    H112225   5.134   2.321   4.545  1.2637 -0.8978  1.4446
 4073TIP3    H212226   5.192   2.184   4.519  0.9336 -0.6831 -0.5581
 4074TIP3   OH212227   0.222   3.236   2.556  0.0433  0.1251  0.5564
 4074TIP3    H112228   0.130   3.222   2.537 -0.1744 -0.3660  1.8940
 4074TIP3    H212229   0.250   3.156   2.601  0.4809  1.2183  2.3497
 4075TIP3   OH212230   5.884   1.369   3.818  0.0256  0.5649 -0.1492
 4075TIP3    H112231   5.906   1.297   3.877  0.8411  0.9727  0.0534
 4075TIP3    H212232   5.961   1.380   3.763  0.1085  1.6004  0.1513
 4076TIP3   OH212233   1.964   2.213   4.714  0.3735  0.3886 -0.4897
 4076TIP3    H112234   2.055   2.185   4.724  0.5950  1.4084  0.4489
 4076TIP3    H212235   1.938   2.178   4.628  1.2201 -1.0307 -0.1968
 4077TIP3   OH212236   2.592   1.628   4.738 -0.0690  0.5706  0.3984
 4077TIP3    H112237   2.575   1.662   4.826 -1.0441  0.0466  0.4233
 4077TIP3    H212238   2.505   1.610   4.702  0.3774 -0.9976  0.0256
 4078TIP3   OH212239   1.025   2.364   4.243  0.8409 -0.9571 -0.1628
 4078TIP3    H112240   1.049   2.456   4.235 -1.6781  0.0749  2.4539
 4078TIP3    H212241   1.106   2.320   4.268  1.6266  0.9443  0.8502
 4079TIP3   OH212242   1.787   3.892   0.342  0.1284  0.8178 -0.9922
 4079TIP3    H112243   1.869   3.862   0.382 -0.3882  0.5561 -0.1224
 4079TIP3    H212244   1.737   3.812   0.327 -0.8854  1.1429  0.5189
 4080TIP3   OH212245   1.374   0.045   0.746  0.5951  0.2941 -0.1745
 4080TIP3    H112246   1.386   0.139   0.737  2.0136 -0.0202 -2.1102
 4080TIP3    H212247   1.317   0.021   0.673  1.2156 -0.5043 -0.4132
 4081TIP3   OH212248   3.705   1.264   3.583 -0.3210 -0.7612 -0.3781
 4081TIP3    H112249   3.612   1.244   3.595 -0.7309 -0.7918 -2.9859
 4081TIP3    H212250   3.739   1.191   3.531  1.1335 -0.6274  0.3283
 4082TIP3   OH212251   6.218   4.297   2.460 -0.4780  0.1763 -0.6373
 4082TIP3    H112252   6.229   4.368   2.397 -0.2915 -0.3176 -1.1628
 4082TIP3    H212253   6.300   4.297   2.510 -0.1479 -0.1758 -1.1647
 4083TIP3   OH212254   5.783   4.945   3.867  0.2713 -0.5891 -0.0516
 4083TIP3    H112255   5.744   5.029   3.842  1.9988 -0.0114 -0.9758
 4083TIP3    H212256   5.789   4.896   3.785  1.8064 -0.4912 -0.0269
 4084TIP3   OH212257   1.205   2.957   0.716 -0.1340  0.6214 -0.1535
 4084TIP3    H112258   1.177   2.865   0.709 -2.0642  1.1851 -0.7108
 4084TIP3    H212259   1.268   2.968   0.645 -0.0982 -0.2153 -0.2674
 4085TIP3   OH212260   4.658   2.410   1.434  0.3908 -0.5678  0.0846
 4085TIP3    H112261   4.721   2.481   1.422  1.0423 -0.8759  1.4864
 4085TIP3    H212262   4.680   2.346   1.366 -0.4567  0.6987 -1.4542
 4086TIP3   OH212263   1.518   2.922   4.058  0.7652 -0.3829 -0.2927
 4086TIP3    H112264   1.524   2.916   4.153  1.8772 -1.2422 -0.3860
 4086TIP3    H212265   1.584   2.988   4.034 -1.4215  1.9191 -0.3108
 4087TIP3   OH212266   0.432   1.737   4.826  0.1749 -0.1965 -0.1877
 4087TIP3    H112267   0.467   1.808   4.772  1.6081 -1.3851 -0.8862
 4087TIP3    H212268   0.354   1.708   4.780 -0.5021  0.9712  0.1687
 4088TIP3   OH212269   4.845   0.054   0.544 -0.5478  0.8079  0.1461
 4088TIP3    H112270   4.917   0.061   0.481 -0.4439  1.2878  0.3157
 4088TIP3    H212271   4.888   0.046   0.629 -0.6875  1.2793  0.2668
 4089TIP3   OH212272   2.816   4.268   2.819 -0.1044 -0.1334  0.2206
 4089TIP3    H112273   2.840   4.357   2.846  0.3094  0.2379 -1.2461
 4089TIP3    H212274   2.750   4.241   2.882 -1.2982  1.7976 -0.0982
 4090TIP3   OH212275   1.436   5.593   4.488  0.2152 -0.5143  0.0499
 4090TIP3    H112276   1.390   5.532   4.546  0.7177  1.8352  3.1944
 4090TIP3    H212277   1.367   5.641   4.444 -0.1882 -2.0394 -1.0461
 4091TIP3   OH212278   2.379   5.642   0.557 -0.1549  0.0617  0.2250
 4091TIP3    H112279   2.442   5.684   0.499  0.7357 -1.0089  0.3911
 4091TIP3    H212280   2.416   5.556   0.575 -1.5710 -0.5348  0.4720
 4092TIP3   OH212281   5.304   1.342   4.797  0.2841 -0.2292 -0.7450
 4092TIP3    H112282   5.341   1.254   4.804  1.8823  0.4481 -0.1603
 4092TIP3    H212283   5.318   1.366   4.705 -0.5876 -0.7422 -1.0248
 4093TIP3   OH212284   2.377   1.930   0.343  0.1888 -0.3325 -0.4940
 4093TIP3    H112285   2.467   1.918   0.374 -0.0811 -1.8073 -0.2259
 4093TIP3    H212286   2.330   1.965   0.418  0.4720  0.2260 -0.5671
 4094TIP3   OH212287   2.615   3.942   4.138  0.0753  0.9918  0.0647
 4094TIP3    H112288   2.641   3.861   4.181  1.5445  2.3148  1.8133
 4094TIP3    H212289   2.693   3.971   4.091  0.2131  2.3615  1.0763
 4095TIP3   OH212290   5.423   3.844   0.140 -0.1128 -0.2551 -0.1147
 4095TIP3    H112291   5.332   3.863   0.165  0.0351 -1.7708  1.8777
 4095TIP3    H212292   5.452   3.780   0.205  1.8064 -1.2130 -1.8003
 4096TIP3   OH212293   1.040   1.679   0.829  0.6140  0.6083 -0.4813
 4096TIP3    H112294   1.056   1.647   0.918 -1.6198 -0.9032 -0.5380
 4096TIP3    H212295   0.984   1.756   0.841 -0.7716 -0.3553 -0.5744
 4097TIP3   OH212296   5.641   1.616   0.514 -0.2035 -0.4016  0.5772
 4097TIP3    H112297   5.633   1.569   0.597  1.1432 -2.6172 -0.4694
 4097TIP3    H212298   5.699   1.690   0.535 -1.3060  0.1321  1.9612
 4098TIP3   OH212299   0.519   4.142   1.157 -0.4834 -0.6944  0.6181
 4098TIP3    H112300   0.432   4.109   1.135  0.1855 -1.4202 -1.1100
 4098TIP3    H212301   0.536   4.210   1.091  0.6794 -1.3353  0.2275
 4099TIP3   OH212302   4.829   5.170   4.359 -0.4688 -0.4711 -0.2350
 4099TIP3    H112303   4.882   5.094   4.333  0.2337 -0.2511  0.5153
 4099TIP3    H212304   4.864   5.242   4.306 -0.2780 -0.4104 -0.0291
 4100TIP3   OH212305   0.176   3.548   4.128 -0.4735  0.3626 -0.1506
 4100TIP3    H112306   0.185   3.477   4.064 -0.8538 -1.4472  1.6713
 4100TIP3    H212307   0.144   3.622   4.078  0.9300 -0.4219 -2.3487
 4101TIP3   OH212308   1.632   0.912   1.721 -0.3835 -0.0956  0.3251
 4101TIP3    H112309   1.537   0.918   1.728 -0.4584  1.7463 -1.4943
 4101TIP3    H212310   1.664   0.998   1.749  0.6610 -0.2738 -0.2452
 4102TIP3   OH212311   1.900   4.106   3.523  0.2357 -0.2927  0.0793
 4102TIP3    H112312   1.808   4.104   3.497  0.0150 -1.4566  0.8656
 4102TIP3    H212313   1.899   4.134   3.614  0.5672 -1.1935  0.3767
 4103TIP3   OH212314   2.342   1.165   2.728 -0.0561  0.3271 -0.3204
 4103TIP3    H112315   2.376   1.093   2.782 -1.5241 -0.1923 -0.0300
 4103TIP3    H212316   2.350   1.132   2.639  1.1175  0.6312 -0.3415
 4104TIP3   OH212317   1.963   2.281   2.721  0.1373  0.0616 -0.1064
 4104TIP3    H112318   2.033   2.227   2.684 -0.7450 -0.8699 -0.4378
 4104TIP3    H212319   1.982   2.369   2.690  0.4254 -0.4071 -1.2869
 4105TIP3   OH212320   5.001   2.235   1.060 -0.4986 -0.1584  0.1611
 4105TIP3    H112321   5.083   2.219   1.107 -1.1887  0.9524  1.8502
 4105TIP3    H212322   4.961   2.309   1.106 -1.3068  0.9569 -2.1481
 4106TIP3   OH212323   3.745   0.456   4.833  0.3219 -0.0126  1.0869
 4106TIP3    H112324   3.786   0.538   4.858 -1.2671  0.5537  1.9951
 4106TIP3    H212325   3.757   0.399   4.909 -1.2480  0.4491  1.7204
 4107TIP3   OH212326   1.770   1.417   2.181  0.1852 -0.3406  0.0579
 4107TIP3    H112327   1.802   1.455   2.099  2.7543  1.3908  1.7410
 4107TIP3    H212328   1.803   1.327   2.180  1.2305  0.0350 -0.2959
 4108TIP3   OH212329   4.252   1.020   3.906 -0.4078 -0.3348 -0.0837
 4108TIP3    H112330   4.213   1.088   3.961  2.8723 -0.0782  2.2213
 4108TIP3    H212331   4.295   1.068   3.835  0.6109 -0.0920  0.6824
 4109TIP3   OH212332   2.756   1.292   3.696 -0.7767 -0.7103  0.1317
 4109TIP3    H112333   2.705   1.372   3.682 -1.4702 -1.3962 -1.4482
 4109TIP3    H212334   2.743   1.271   3.789 -1.1124  0.6233  0.4127
 4110TIP3   OH212335   5.207   1.626   3.179 -0.1458  0.3945 -0.2958
 4110TIP3    H112336   5.217   1.574   3.258  2.8196  0.8474 -0.2729
 4110TIP3    H212337   5.255   1.707   3.196  1.6468  0.0209 -2.8887
 4111TIP3   OH212338   0.870   5.921   0.226  0.5265  0.4649 -0.5506
 4111TIP3    H112339   0.853   5.876   0.144  0.9137  1.2365 -1.0632
 4111TIP3    H212340   0.932   5.991   0.203 -1.6225  2.6013 -0.2080
 4112TIP3   OH212341   0.125   0.493   3.505 -0.2401 -0.2673  0.4646
 4112TIP3    H112342   0.054   0.490   3.571  0.5806 -0.0887  1.3779
 4112TIP3    H212343   0.158   0.403   3.502 -1.9148 -0.8987 -1.5932
 4113TIP3   OH212344   4.951   5.385   1.679  0.1710 -0.3129 -0.3647
 4113TIP3    H112345   4.876   5.399   1.736  0.8633 -1.0698  0.7705
 4113TIP3    H212346   4.928   5.308   1.626 -0.0122 -0.2968 -0.3067
 4114TIP3   OH212347   1.019   3.279   5.141  0.3998  0.3169  0.1451
 4114TIP3    H112348   1.037   3.373   5.143  1.6461  0.1065 -0.4241
 4114TIP3    H212349   0.934   3.271   5.185 -1.3857  2.0392 -2.6144
 4115TIP3   OH212350   5.904   4.929   2.258  0.3600  0.6222  0.0335
 4115TIP3    H112351   5.932   4.957   2.345  3.5746 -0.6481 -0.4630
 4115TIP3    H212352   5.909   5.008   2.204 -0.1028  1.0681  0.6251
 4116TIP3   OH212353   1.587   0.212   0.434 -0.0003 -0.3228 -0.2847
 4116TIP3    H112354   1.528   0.219   0.509  1.0923  0.3996  0.5426
 4116TIP3    H212355   1.577   0.295   0.388  0.6568 -0.0266  0.0927
 4117TIP3   OH212356   0.734   3.130   4.199  0.3461 -0.5617 -0.1338
 4117TIP3    H112357   0.773   3.217   4.208 -0.1920 -0.4255  1.0427
 4117TIP3    H212358   0.803   3.070   4.229  0.6311 -0.5296 -0.7168
 4118TIP3   OH212359   1.639   5.335   4.949  0.3038 -0.3796 -0.3974
 4118TIP3    H112360   1.673   5.329   4.859 -0.2214 -1.4879 -0.5353
 4118TIP3    H212361   1.718   5.340   5.003  0.6419 -0.4009 -0.8723
 4119TIP3   OH212362   4.584   1.613   2.982  0.6443 -0.0175 -0.1241
 4119TIP3    H112363   4.604   1.689   2.928 -1.4189 -0.7431 -2.0541
 4119TIP3    H212364   4.583   1.647   3.072  0.9631  1.9393 -0.8196
 4120TIP3   OH212365   0.237   0.983   0.581  0.1630  0.1043  0.3824
 4120TIP3    H112366   0.272   1.002   0.668 -1.7276 -2.1747  1.7764
 4120TIP3    H212367   0.150   1.023   0.581 -0.3231 -0.9140  0.0485
 4121TIP3   OH212368   5.019   1.409   0.478 -0.1638 -0.3607  0.6917
 4121TIP3    H112369   5.057   1.340   0.424  1.7774  0.7812  0.5173
 4121TIP3    H212370   4.974   1.466   0.416  1.7372  0.7378  0.2648
 4122TIP3   OH212371   0.364   4.082   4.400 -0.1757 -0.4525 -0.6518
 4122TIP3    H112372   0.331   4.036   4.323 -0.9255 -1.6672  0.3649
 4122TIP3    H212373   0.286   4.125   4.438  0.3122  0.7454 -0.9522
 4123TIP3   OH212374   2.093   4.533   3.138 -0.0477 -0.7867 -0.2073
 4123TIP3    H112375   2.078   4.610   3.193 -0.1179 -0.7897 -0.2219
 4123TIP3    H212376   2.011   4.521   3.091 -0.0077 -0.8197 -0.2686
 4124TIP3   OH212377   4.282   1.444   0.266 -0.4816 -0.1234 -0.7885
 4124TIP3    H112378   4.257   1.381   0.332  0.2002  0.1792 -0.2249
 4124TIP3    H212379   4.281   1.395   0.184 -1.0823 -0.5633 -0.5226
 4125TIP3   OH212380   1.471   4.746   5.134 -0.2676 -0.1198  0.4058
 4125TIP3    H112381   1.393   4.800   5.146  0.3424  0.8706 -0.0315
 4125TIP3    H212382   1.442   4.657   5.156 -1.4711  0.2609  0.4132
 4126TIP3   OH212383   0.769   0.792   2.205 -0.3808  0.2085  0.1294
 4126TIP3    H112384   0.837   0.836   2.257  0.1712 -2.1258  1.5043
 4126TIP3    H212385   0.693   0.788   2.263  0.0285 -1.8427  0.5797
 4127TIP3   OH212386   1.777   0.076   0.299  0.7276 -0.4169  0.4356
 4127TIP3    H112387   1.741   0.077   0.210  1.0049 -1.3839  0.3031
 4127TIP3    H212388   1.753   0.161   0.335 -1.6086 -0.9565  0.3142
 4128TIP3   OH212389   6.243   0.963   4.357  0.5274  0.0741  0.4896
 4128TIP3    H112390   6.307   1.020   4.315  1.3708  0.5275  2.2676
 4128TIP3    H212391   6.277   0.875   4.346  1.2461  0.2745  1.0191
 4129TIP3   OH212392   4.020   3.109   4.093  0.1846  0.3595 -0.0228
 4129TIP3    H112393   4.030   3.076   4.004 -0.9886 -0.2162  0.0302
 4129TIP3    H212394   4.109   3.112   4.129  0.8744  2.1302 -1.7225
 4130TIP3   OH212395   1.940   3.745   1.632 -0.3672  0.0337  0.3757
 4130TIP3    H112396   1.983   3.731   1.547  1.6993 -0.1250  1.3936
 4130TIP3    H212397   1.855   3.783   1.610 -0.0832 -0.4599 -1.7812
 4131TIP3   OH212398   0.592   4.490   2.986  0.1718 -0.5098 -0.1804
 4131TIP3    H112399   0.622   4.473   3.076 -1.2516 -0.3176  0.3569
 4131TIP3    H212400   0.520   4.552   2.996 -0.1743 -0.6813 -1.4503
 4132TIP3   OH212401   5.304   2.235   1.152  0.6005 -0.1662 -0.1604
 4132TIP3    H112402   5.311   2.314   1.205 -0.3855  1.3264 -2.1596
 4132TIP3    H212403   5.274   2.168   1.214  1.1624  1.0440  1.5133
 4133TIP3   OH212404   5.275   0.825   2.886 -0.5435  0.3301 -0.4134
 4133TIP3    H112405   5.333   0.768   2.936 -1.0901  0.0251 -0.1229
 4133TIP3    H212406   5.328   0.902   2.867 -0.0328  0.0404 -0.1785
 4134TIP3   OH212407   2.916   3.229   2.921  0.2939 -0.1995 -0.4222
 4134TIP3    H112408   2.939   3.271   2.838 -0.4857  0.1315 -0.4723
 4134TIP3    H212409   2.862   3.293   2.966  0.4713 -0.4952  0.2251
 4135TIP3   OH212410   0.703   1.923   4.600 -0.1682 -0.3713 -0.4658
 4135TIP3    H112411   0.712   1.831   4.625 -0.6861 -0.7483 -1.5859
 4135TIP3    H212412   0.636   1.923   4.531 -0.4447  0.8933 -0.2395
 4136TIP3   OH212413   5.646   4.758   3.247 -0.3553  0.0545  0.5563
 4136TIP3    H112414   5.580   4.821   3.277 -1.2533 -0.3857 -0.4146
 4136TIP3    H212415   5.631   4.753   3.153  1.6906  0.6269  0.1700
 4137TIP3   OH212416   4.398   3.163   2.054  0.4325 -0.7186 -0.4669
 4137TIP3    H112417   4.362   3.206   2.131  1.4340 -0.1780 -0.2792
 4137TIP3    H212418   4.335   3.094   2.033  1.4325 -2.7052  2.4700
 4138TIP3   OH212419   0.714   3.275   1.375 -0.2285  0.3294 -0.0584
 4138TIP3    H112420   0.751   3.250   1.460 -1.7938  0.5662  0.7286
 4138TIP3    H212421   0.770   3.231   1.311  0.0632 -1.1373  1.1416
 4139TIP3   OH212422   5.433   4.260   3.500 -0.2028 -0.0087  0.3964
 4139TIP3    H112423   5.491   4.195   3.540 -0.2481  0.3216  1.0084
 4139TIP3    H212424   5.366   4.275   3.566 -1.1114 -0.5316 -0.3855
 4140TIP3   OH212425   2.652   3.874   2.430 -0.6325 -0.2915 -0.2612
 4140TIP3    H112426   2.700   3.791   2.420  2.0468  1.2267 -0.9779
 4140TIP3    H212427   2.667   3.900   2.521 -1.3977 -0.5261 -0.0615
 4141TIP3   OH212428   5.213   3.951   0.296 -0.6524  0.1330  0.4024
 4141TIP3    H112429   5.148   3.981   0.232 -0.2640 -0.1139 -0.1095
 4141TIP3    H212430   5.177   3.979   0.380 -1.0834  0.6163  0.0677
 4142TIP3   OH212431   5.530   5.341   0.188  0.1169  0.0594 -0.1825
 4142TIP3    H112432   5.583   5.264   0.170  2.2989  1.6916 -1.1852
 4142TIP3    H212433   5.558   5.371   0.275 -0.5856 -0.1357  0.1226
 4143TIP3   OH212434   0.102   3.786   2.395 -0.0431  0.0861 -0.3773
 4143TIP3    H112435   0.112   3.723   2.324 -0.0815  0.0890 -0.3850
 4143TIP3    H212436   0.074   3.734   2.470 -2.8351  0.4367 -1.0571
 4144TIP3   OH212437   2.581   3.093   0.816 -0.2340 -0.0491  0.6571
 4144TIP3    H112438   2.537   3.067   0.735  0.8134  0.8431 -0.2294
 4144TIP3    H212439   2.522   3.064   0.886 -1.0060 -1.1236 -0.4058
 4145TIP3   OH212440   0.273   0.863   2.901  0.1506  0.2360 -0.3474
 4145TIP3    H112441   0.355   0.818   2.881  0.8229  0.4070  1.7821
 4145TIP3    H212442   0.209   0.793   2.908  0.6435 -0.1538  0.4045
 4146TIP3   OH212443   3.513   1.898   3.166  0.1578  0.1349  0.6188
 4146TIP3    H112444   3.513   1.905   3.261  2.5643  3.2420  0.5502
 4146TIP3    H212445   3.438   1.952   3.138 -1.1017 -1.5071  0.6958
 4147TIP3   OH212446   5.542   1.819   4.393  0.1095  0.4902  0.2522
 4147TIP3    H112447   5.597   1.873   4.336 -0.9221  0.6489 -0.6327
 4147TIP3    H212448   5.481   1.882   4.433 -0.3188  0.1547  0.1409
 4148TIP3   OH212449   1.165   5.104   3.331 -0.1826  0.0687  0.0714
 4148TIP3    H112450   1.116   5.179   3.299 -0.1750  0.1560  0.2639
 4148TIP3    H212451   1.120   5.079   3.412  0.1047  0.1651  0.2612
 4149TIP3   OH212452   2.421   2.040   1.978 -0.1710  0.3526  0.0928
 4149TIP3    H112453   2.386   2.129   1.991 -1.8813 -0.5722  2.7067
 4149TIP3    H212454   2.511   2.045   2.008 -0.0514  1.3479 -0.4034
 4150TIP3   OH212455   3.011   4.804   4.340 -0.3513  0.8193 -0.2651
 4150TIP3    H112456   2.918   4.820   4.350 -0.7864 -1.9293  1.0870
 4150TIP3    H212457   3.046   4.810   4.429 -0.0158 -1.8374 -0.1331
 4151TIP3   OH212458   6.089   3.820   2.813  0.8965  0.9214 -0.5953
 4151TIP3    H112459   6.107   3.745   2.756 -0.4334 -0.2517  0.4875
 4151TIP3    H212460   6.106   3.788   2.901 -0.3332  1.6896 -0.0636
 4152TIP3   OH212461   1.131   2.325   1.092  0.0472  0.0313  0.2203
 4152TIP3    H112462   1.155   2.400   1.036 -0.3576  0.6280  0.8334
 4152TIP3    H212463   1.040   2.306   1.068  0.3018 -0.5829 -0.2781
 4153TIP3   OH212464   0.373   0.452   3.232 -0.0410  0.2547  0.3722
 4153TIP3    H112465   0.341   0.362   3.234 -0.1836  0.2925 -0.0794
 4153TIP3    H212466   0.295   0.505   3.215 -0.1390  0.5631  1.6600
 4154TIP3   OH212467   4.286   4.642   0.028 -0.5048 -0.2829 -0.1085
 4154TIP3    H112468   4.297   4.730   0.064 -2.5686 -0.3533  0.8410
 4154TIP3    H212469   4.341   4.586   0.084 -0.8589  0.1314  0.6765
 4155TIP3   OH212470   1.437   0.128   1.296  0.3116  0.2281  0.4216
 4155TIP3    H112471   1.377   0.195   1.328  0.1053  0.0768  0.3549
 4155TIP3    H212472   1.385   0.079   1.231  1.2185  1.6157 -1.4574
 4156TIP3   OH212473   5.218   2.612   0.331  0.5383 -0.5056 -0.0044
 4156TIP3    H112474   5.149   2.547   0.342 -1.7131  1.7822  0.3001
 4156TIP3    H212475   5.235   2.613   0.237 -0.0602 -0.8925 -0.1189
 4157TIP3   OH212476   3.038   4.939   2.482 -0.1477  0.2478  0.0120
 4157TIP3    H112477   2.995   4.989   2.551  0.2347 -1.1177  1.3073
 4157TIP3    H212478   3.064   4.857   2.525 -0.9967 -1.1841 -2.0495
 4158TIP3   OH212479   2.968   0.236   4.033 -0.0619 -0.1976  0.0686
 4158TIP3    H112480   2.872   0.232   4.026 -0.3074 -0.1678  2.5295
 4158TIP3    H212481   2.989   0.169   4.099  1.6317 -0.2267 -0.4715
 4159TIP3   OH212482   5.367   0.584   3.509 -0.4081  0.2875  0.2259
 4159TIP3    H112483   5.456   0.556   3.532 -0.4479 -1.6185 -1.6308
 4159TIP3    H212484   5.311   0.517   3.547 -1.1287  1.5106  1.4331
 4160TIP3   OH212485   1.280   3.187   4.995 -0.0770  0.0996 -0.2246
 4160TIP3    H112486   1.198   3.237   4.991 -0.2105 -0.1902 -2.0102
 4160TIP3    H212487   1.349   3.253   4.992 -0.2403  0.2953  0.2262
 4161TIP3   OH212488   4.486   2.978   1.402  0.4491  0.2939  0.0412
 4161TIP3    H112489   4.443   2.986   1.317 -1.7670 -2.0079  0.8373
 4161TIP3    H212490   4.437   3.038   1.459  0.9811  0.7175  0.0673
 4162TIP3   OH212491   0.150   5.783   4.970 -0.0511  0.2154  0.5637
 4162TIP3    H112492   0.095   5.709   4.946  1.6704 -0.8285 -0.3733
 4162TIP3    H212493   0.139   5.791   5.065 -0.8918 -0.7049  0.5599
 4163TIP3   OH212494   4.899   3.163   1.375 -0.4386 -0.1130  0.6378
 4163TIP3    H112495   4.879   3.135   1.286 -1.1608  1.3574  0.3147
 4163TIP3    H212496   4.815   3.185   1.414 -0.0861 -0.2887  1.5341
 4164TIP3   OH212497   0.789   1.193   0.169 -0.6068 -0.5163 -0.4878
 4164TIP3    H112498   0.726   1.237   0.226 -1.2019 -1.5995 -0.2948
 4164TIP3    H212499   0.863   1.254   0.164 -1.4605  0.5573 -0.3343
 4165TIP3   OH212500   2.663   5.940   3.796 -0.1089 -0.2351  0.3093
 4165TIP3    H112501   2.621   5.855   3.786  0.9131 -0.6696 -0.4316
 4165TIP3    H212502   2.633   5.972   3.881  0.6189 -1.9896  1.2633
 4166TIP3   OH212503   1.395   1.575   0.575 -0.3645 -0.2311 -0.3518
 4166TIP3    H112504   1.463   1.508   0.569  1.1643  1.3213 -1.1377
 4166TIP3    H212505   1.427   1.636   0.641 -1.2303  0.2864 -0.3879
 4167TIP3   OH212506   1.769   4.088   4.881 -0.5327 -0.6892  0.1309
 4167TIP3    H112507   1.834   4.147   4.842 -1.6085 -0.6212 -1.7109
 4167TIP3    H212508   1.713   4.146   4.933  0.6538 -0.7000  1.4600
 4168TIP3   OH212509   5.074   1.153   0.318 -0.3751 -0.4348 -0.3904
 4168TIP3    H112510   5.145   1.095   0.292 -0.6532 -0.1929 -1.7409
 4168TIP3    H212511   5.043   1.117   0.401  1.5070 -0.3694  0.3869
 4169TIP3   OH212512   0.403   4.719   4.863  0.6788  0.0782  0.2183
 4169TIP3    H112513   0.319   4.765   4.867  0.1626 -0.6530 -1.4473
 4169TIP3    H212514   0.464   4.778   4.906 -1.0007 -0.2075  3.3157
 4170TIP3   OH212515   0.953   0.499   4.140  0.5883 -0.2673  0.4716
 4170TIP3    H112516   1.005   0.465   4.067  0.6733 -0.2888  0.5423
 4170TIP3    H212517   1.012   0.498   4.215  0.7774  0.5768  0.3526
 4171TIP3   OH212518   0.731   5.765   2.543  0.2159 -0.1193  0.0570
 4171TIP3    H112519   0.686   5.764   2.628 -1.5293 -1.6854 -0.8284
 4171TIP3    H212520   0.736   5.858   2.521 -0.6183  0.2326  1.2174
 4172TIP3   OH212521   1.937   4.839   1.588 -0.1979  0.2493  0.1698
 4172TIP3    H112522   2.022   4.834   1.632 -0.0468 -1.1003 -0.2167
 4172TIP3    H212523   1.873   4.828   1.659 -0.0113  0.0459  0.3107
 4173TIP3   OH212524   2.788   1.211   5.178 -0.2923  0.3342 -0.0713
 4173TIP3    H112525   2.747   1.151   5.115 -2.4812  1.4250  0.2162
 4173TIP3    H212526   2.811   1.287   5.125  0.2877  0.1928 -0.0186
 4174TIP3   OH212527   3.314   1.608   0.906 -0.2773  0.2071 -0.4710
 4174TIP3    H112528   3.329   1.652   0.989 -1.2384  1.5230 -0.9502
 4174TIP3    H212529   3.331   1.516   0.923  2.7908  0.8230  0.3359
 4175TIP3   OH212530   3.058   1.260   4.866 -0.1461  0.4491 -0.0610
 4175TIP3    H112531   3.119   1.319   4.822 -0.1588  0.7157  0.2668
 4175TIP3    H212532   2.984   1.316   4.890 -0.8000  0.0064 -0.9919
 4176TIP3   OH212533   4.101   0.966   2.688  0.6522  0.0241 -0.1245
 4176TIP3    H112534   4.117   0.872   2.679 -1.3956 -0.5072  1.0829
 4176TIP3    H212535   4.117   1.002   2.601  1.6904 -1.3952 -0.5517
 4177TIP3   OH212536   2.550   4.594   1.353 -0.3668  0.1083  0.0713
 4177TIP3    H112537   2.595   4.587   1.269  0.2986  1.6895  0.2730
 4177TIP3    H212538   2.610   4.643   1.409 -1.4894  0.4934  0.9730
 4178TIP3   OH212539   3.973   3.288   5.105 -0.7591 -0.4709  0.1282
 4178TIP3    H112540   3.900   3.339   5.140 -2.0330 -2.2484  0.2415
 4178TIP3    H212541   4.051   3.342   5.120 -2.1899  2.2107 -1.4723
 4179TIP3   OH212542   0.513   5.409   2.971 -0.3038 -0.8897  0.3610
 4179TIP3    H112543   0.563   5.441   2.895 -2.6048  0.8833 -0.5353
 4179TIP3    H212544   0.509   5.314   2.959 -0.0375 -0.7121 -1.3989
 4180TIP3   OH212545   5.499   2.201   0.791 -0.3515 -0.0162 -0.1538
 4180TIP3    H112546   5.546   2.283   0.777  0.2371 -0.8048 -3.9163
 4180TIP3    H212547   5.409   2.227   0.809  0.0246  1.4881 -0.3412
 4181TIP3   OH212548   3.652   2.944   1.839 -0.4516  0.4111  0.5480
 4181TIP3    H112549   3.715   2.888   1.885  1.0276  0.8778 -0.8353
 4181TIP3    H212550   3.686   3.033   1.851  0.4932  0.4803 -2.1461
 4182TIP3   OH212551   0.885   5.355   1.514  0.0582  0.6290  0.1740
 4182TIP3    H112552   0.868   5.410   1.437  1.2185 -0.3995 -0.8549
 4182TIP3    H212553   0.842   5.272   1.495  0.5985  0.2678  0.5117
 4183TIP3   OH212554   4.625   2.679   5.133 -0.2097  0.3760 -0.1866
 4183TIP3    H112555   4.697   2.688   5.195 -0.6469 -1.4142  0.6388
 4183TIP3    H212556   4.558   2.740   5.164  0.3765  1.0000 -0.1314
 4184TIP3   OH212557   0.718   3.313   3.901 -0.5612  0.3954  0.2282
 4184TIP3    H112558   0.632   3.281   3.930 -0.4498  0.1765  0.3182
 4184TIP3    H212559   0.768   3.323   3.982 -0.0767 -0.7064  0.0752
 4185TIP3   OH212560   1.569   2.573   2.035  0.0404 -0.1968 -0.5447
 4185TIP3    H112561   1.632   2.541   2.099 -1.6325 -0.5595  0.9976
 4185TIP3    H212562   1.603   2.543   1.951  2.7013  0.9360  0.0154
 4186TIP3   OH212563   3.537   0.542   4.630 -0.7152 -0.0050 -0.0834
 4186TIP3    H112564   3.608   0.521   4.692 -1.2598 -1.3620  0.1239
 4186TIP3    H212565   3.460   0.498   4.666 -1.1387 -0.4824 -1.5040
 4187TIP3   OH212566   5.676   0.500   4.763 -0.0899  0.2367  0.1161
 4187TIP3    H112567   5.748   0.437   4.756 -1.1357 -0.9125 -0.6369
 4187TIP3    H212568   5.666   0.535   4.675 -0.5836  0.2583  0.1788
 4188TIP3   OH212569   3.682   5.296   4.816  0.5178 -0.3984 -0.0025
 4188TIP3    H112570   3.672   5.208   4.850 -2.1755  0.0707  0.6569
 4188TIP3    H212571   3.593   5.330   4.810  1.0983  0.9393 -3.9658
 4189TIP3   OH212572   3.650   5.109   0.821 -0.2337  0.4157 -0.5075
 4189TIP3    H112573   3.630   5.063   0.739 -0.5212 -0.4578  0.0298
 4189TIP3    H212574   3.647   5.040   0.888  0.7245  0.9767  0.1409
 4190TIP3   OH212575   2.868   5.509   1.369 -0.0254 -0.1849 -0.1510
 4190TIP3    H112576   2.819   5.427   1.370 -2.3603  1.1305  0.5895
 4190TIP3    H212577   2.949   5.489   1.417  0.5467 -2.5726 -1.8910
 4191TIP3   OH212578   6.000   2.595   4.264  0.1039 -0.0146  0.3148
 4191TIP3    H112579   6.079   2.645   4.286  0.0708  1.3926 -2.3545
 4191TIP3    H212580   6.033   2.511   4.232  0.5333  0.3833 -0.3270
 4192TIP3   OH212581   1.756   3.976   4.618  0.2888 -0.2753 -0.0531
 4192TIP3    H112582   1.773   3.996   4.710 -0.0040 -2.3051  0.4940
 4192TIP3    H212583   1.803   3.894   4.602  1.4714  0.7284 -2.1336
 4193TIP3   OH212584   2.772   3.913   0.132 -0.1253 -0.6395  0.8182
 4193TIP3    H112585   2.738   3.847   0.072 -0.3431 -0.6753  0.9819
 4193TIP3    H212586   2.856   3.876   0.162 -1.6559 -2.3788  3.3740
 4194TIP3   OH212587   1.258   3.060   0.961  0.2508  0.2394 -0.4022
 4194TIP3    H112588   1.354   3.061   0.971  0.1946  0.1560  0.1925
 4194TIP3    H212589   1.244   3.025   0.873  0.7081 -2.7454  0.5846
 4195TIP3   OH212590   0.574   0.640   1.863  0.1999  0.0900  0.0610
 4195TIP3    H112591   0.537   0.698   1.796  1.3996  1.6009  0.6636
 4195TIP3    H212592   0.664   0.669   1.874  0.0973 -0.2301  2.1959
 4196TIP3   OH212593   3.520   5.340   3.383  0.3428  0.2027 -0.0767
 4196TIP3    H112594   3.584   5.389   3.436 -0.3677  0.4673  0.5526
 4196TIP3    H212595   3.436   5.382   3.402 -0.2106 -0.9344  0.0845
 4197TIP3   OH212596   2.749   2.234   3.753 -0.3388  0.2551 -0.4980
 4197TIP3    H112597   2.684   2.266   3.690 -1.8931 -0.5347  0.6584
 4197TIP3    H212598   2.782   2.313   3.796 -1.9230  0.5726  0.2037
 4198TIP3   OH212599   6.186   4.730   4.533 -0.4121 -0.2426  0.3259
 4198TIP3    H112600   6.194   4.802   4.470 -1.4385 -0.3930 -0.0029
 4198TIP3    H212601   6.217   4.767   4.616  0.4344  0.1229 -0.1454
 4199TIP3   OH212602   6.232   4.488   4.122 -0.3587  0.0325  0.0893
 4199TIP3    H112603   6.177   4.527   4.054 -0.0675 -0.4025 -0.4065
 4199TIP3    H212604   6.182   4.413   4.154 -0.6036  0.3789  0.5386
 4200TIP3   OH212605   4.799   3.481   0.200  0.1968 -0.6456 -0.4062
 4200TIP3    H112606   4.777   3.535   0.124  0.1996  0.5995  0.4471
 4200TIP3    H212607   4.716   3.471   0.247  0.3179 -0.8513 -0.2351
 4201TIP3   OH212608   4.064   4.042   2.177 -0.4415 -0.2849  0.1974
 4201TIP3    H112609   4.096   3.953   2.162 -0.7785 -0.4278  0.3000
 4201TIP3    H212610   4.004   4.058   2.104  0.1014  0.0990 -0.1690
 4202TIP3   OH212611   5.737   2.267   2.087 -0.2551 -0.2387  0.1403
 4202TIP3    H112612   5.684   2.335   2.047  0.1414 -0.6983 -1.2237
 4202TIP3    H212613   5.679   2.192   2.094 -1.0007  0.4878  2.5971
 4203TIP3   OH212614   2.278   4.132   0.052 -0.1652 -0.5099  0.1872
 4203TIP3    H112615   2.275   4.131  -0.043  1.4305 -0.3129  0.1139
 4203TIP3    H212616   2.187   4.122   0.079 -0.4340 -3.4798 -1.3288
 4204TIP3   OH212617   4.908   2.935   1.528 -0.0265 -0.2492 -0.0523
 4204TIP3    H112618   4.900   3.024   1.494  0.2921 -0.8134 -1.7221
 4204TIP3    H212619   4.951   2.945   1.613  3.7584  0.9779 -1.8585
 4205TIP3   OH212620   5.873   1.459   2.713 -0.2258  0.1171  0.2317
 4205TIP3    H112621   5.847   1.521   2.781  0.6369 -1.3509  2.0066
 4205TIP3    H212622   5.810   1.474   2.642 -0.2334  2.7468  0.6844
 4206TIP3   OH212623   1.334   0.840   1.354  0.1785 -0.3121 -0.0418
 4206TIP3    H112624   1.412   0.881   1.391  0.9307  0.1183 -1.9650
 4206TIP3    H212625   1.292   0.910   1.304 -1.2606 -0.6392  0.6736
 4207TIP3   OH212626   0.572   2.014   4.347 -0.7757 -0.3376  0.3648
 4207TIP3    H112627   0.637   2.071   4.306 -0.6683  0.2876  1.3841
 4207TIP3    H212628   0.489   2.061   4.338 -0.9221 -0.6690 -0.0363
 4208TIP3   OH212629   3.430   3.792   0.859 -0.2138 -0.2601 -0.0420
 4208TIP3    H112630   3.451   3.716   0.913 -0.1880 -0.8241 -0.8208
 4208TIP3    H212631   3.335   3.786   0.847 -0.5839  1.1545  1.8133
 4209TIP3   OH212632   4.842   2.240   2.155 -0.8771 -0.1803 -0.1393
 4209TIP3    H112633   4.826   2.180   2.083  0.3545  1.2508 -1.7017
 4209TIP3    H212634   4.905   2.303   2.119 -0.2979  0.6373  2.1747
 4210TIP3   OH212635   5.638   0.239   3.554  0.1781  0.0250 -0.0474
 4210TIP3    H112636   5.707   0.205   3.497  1.5673  1.5624  0.6308
 4210TIP3    H212637   5.642   0.184   3.632  0.6481  0.1234 -0.0033
 4211TIP3   OH212638   5.523   0.128   0.940  0.3631 -0.2597  0.0039
 4211TIP3    H112639   5.489   0.215   0.958 -0.8096 -0.7481  0.2437
 4211TIP3    H212640   5.582   0.109   1.014  2.0545  1.0253 -0.9683
 4212TIP3   OH212641   3.777   0.371   4.554 -0.2227 -0.4765 -1.0489
 4212TIP3    H112642   3.840   0.300   4.566  0.3586 -0.0205 -1.2985
 4212TIP3    H212643   3.749   0.394   4.642  0.9431  0.1650 -0.8206
 4213TIP3   OH212644   2.841   4.976   0.771 -0.3324  0.6282 -0.4087
 4213TIP3    H112645   2.773   4.976   0.838  2.0088  0.1685  2.1921
 4213TIP3    H212646   2.877   4.887   0.774  1.1284  1.1746 -0.8302
 4214TIP3   OH212647   3.484   1.320   2.316 -0.2195 -0.0992 -0.0550
 4214TIP3    H112648   3.398   1.284   2.292 -0.6873  0.9391 -0.0028
 4214TIP3    H212649   3.464   1.390   2.378  0.7644 -0.6617  0.9240
 4215TIP3   OH212650   6.067   1.108   1.496  0.4206 -0.0850 -0.0103
 4215TIP3    H112651   5.973   1.099   1.512  0.8429 -1.8775  1.9851
 4215TIP3    H212652   6.079   1.074   1.407 -0.9725  1.8361 -1.0118
 4216TIP3   OH212653   4.864   1.206   0.151  0.3380 -0.2412  0.3405
 4216TIP3    H112654   4.801   1.235   0.216  1.3433  1.3242  0.6671
 4216TIP3    H212655   4.934   1.166   0.202  1.0595  0.8546  0.2494
 4217TIP3   OH212656   3.627   4.077   1.731 -0.4427 -0.1063  0.0939
 4217TIP3    H112657   3.674   4.023   1.668 -0.6185 -1.1909  0.8742
 4217TIP3    H212658   3.570   4.132   1.677  0.3510 -0.0955 -0.7531
 4218TIP3   OH212659   2.681   5.698   0.137 -0.2564 -0.1528 -0.5094
 4218TIP3    H112660   2.775   5.717   0.132 -0.4967  1.2664 -0.0417
 4218TIP3    H212661   2.645   5.734   0.056 -0.1782 -2.2975 -1.5603
 4219TIP3   OH212662   0.992   3.351   1.873  0.3449  0.3503 -0.4107
 4219TIP3    H112663   1.032   3.381   1.955 -0.5224  1.5656 -0.4111
 4219TIP3    H212664   0.920   3.295   1.900 -0.9772  2.0570 -0.2588
 4220TIP3   OH212665   2.676   2.667   4.237  0.3241  0.2484  0.2201
 4220TIP3    H112666   2.740   2.616   4.286  0.6231  0.2595 -0.1564
 4220TIP3    H212667   2.638   2.726   4.302 -0.7500 -1.1227  0.8922
 4221TIP3   OH212668   1.285   3.063   0.013  0.1618  1.0099  0.4134
 4221TIP3    H112669   1.210   3.094   0.063 -0.1816 -0.8515  1.1415
 4221TIP3    H212670   1.360   3.106   0.053 -0.2613  0.7107  1.5649
 4222TIP3   OH212671   5.892   1.812   2.660 -0.0502  0.1186 -0.4832
 4222TIP3    H112672   5.797   1.825   2.660 -0.1424 -0.4864 -0.8664
 4222TIP3    H212673   5.926   1.884   2.607 -0.4299 -0.4343 -1.5222
 4223TIP3   OH212674   1.969   0.519   2.522 -0.1615  0.5834 -0.0655
 4223TIP3    H112675   1.919   0.455   2.471  1.3955  0.0475 -1.0053
 4223TIP3    H212676   2.058   0.513   2.487  0.9422  0.3831  2.5245
 4224TIP3   OH212677   1.357   2.174   1.475  0.2590 -0.2447 -0.1798
 4224TIP3    H112678   1.287   2.176   1.410  0.0489 -0.9206  0.0281
 4224TIP3    H212679   1.320   2.216   1.552  0.0762 -0.6106 -0.0665
 4225TIP3   OH212680   6.159   3.162   0.161  0.2842  0.1396 -0.1845
 4225TIP3    H112681   6.201   3.240   0.197  0.0840  0.8266 -1.3951
 4225TIP3    H212682   6.065   3.180   0.169  0.2080  0.9311 -2.2645
 4226TIP3   OH212683   6.174   4.245   1.211 -0.1465  0.2654  0.4204
 4226TIP3    H112684   6.198   4.167   1.261  0.0981 -0.3002 -0.5493
 4226TIP3    H212685   6.250   4.303   1.218  1.2386 -1.1335 -1.8692
 4227TIP3   OH212686   5.999   2.841   2.874 -0.6220 -0.3178  0.5304
 4227TIP3    H112687   6.078   2.865   2.825 -0.2316 -0.8860  0.8749
 4227TIP3    H212688   6.026   2.768   2.930 -0.9550  0.5309  1.8601
 4228TIP3   OH212689   3.343   0.992   0.788 -0.0419 -0.5459 -0.2818
 4228TIP3    H112690   3.328   0.914   0.735 -2.3692 -0.6849  0.4827
 4228TIP3    H212691   3.322   0.964   0.878  0.4137  0.6077  0.2000
 4229TIP3   OH212692   4.814   0.500   4.974 -0.0191 -0.3147 -0.0813
 4229TIP3    H112693   4.733   0.536   4.938 -0.6044  0.0064  1.4743
 4229TIP3    H212694   4.811   0.407   4.949 -1.5273 -0.6038  1.0104
 4230TIP3   OH212695   2.843   3.774   5.141  0.1415  0.4802 -0.2436
 4230TIP3    H112696   2.934   3.744   5.143  0.2900  0.9275 -0.1942
 4230TIP3    H212697   2.800   3.717   5.078  0.3743  0.0349 -0.0061
 4231TIP3   OH212698   1.857   5.967   3.447  0.9559  0.5666 -0.2477
 4231TIP3    H112699   1.886   6.039   3.391  0.1245 -0.2711 -1.8298
 4231TIP3    H212700   1.922   5.899   3.434  0.1267 -0.0739 -1.1719
 4232TIP3   OH212701   1.544   5.721   4.920  0.0612  0.0230 -0.4985
 4232TIP3    H112702   1.623   5.720   4.975  0.4257 -3.1399 -0.8956
 4232TIP3    H212703   1.577   5.721   4.831 -0.3971 -0.3995 -0.6710
 4233TIP3   OH212704   1.902   5.560   5.150  0.2753  0.2999 -0.1836
 4233TIP3    H112705   1.917   5.485   5.093  0.1429  1.9549 -2.5565
 4233TIP3    H212706   1.908   5.525   5.239  0.8649 -2.3484 -1.1857
 4234TIP3   OH212707   5.847   2.339   0.378  0.9149 -0.2124 -0.6044
 4234TIP3    H112708   5.906   2.329   0.453  2.1040  2.9142 -0.9486
 4234TIP3    H212709   5.766   2.372   0.416  0.7438 -0.7648 -0.4896
 4235TIP3   OH212710   3.517   5.701   4.119  0.3206 -0.1285  0.7584
 4235TIP3    H112711   3.466   5.749   4.184  1.0371 -0.1755  1.3784
 4235TIP3    H212712   3.463   5.626   4.096 -1.6301  1.7750 -1.5362
 4236TIP3   OH212713   1.607   3.059   3.294 -0.2735  0.1956 -0.2269
 4236TIP3    H112714   1.644   3.137   3.252 -0.1373  0.0949 -0.2924
 4236TIP3    H212715   1.683   3.012   3.329 -0.3448  0.0219 -0.3071
 4237TIP3   OH212716   5.875   3.607   2.314  0.0361 -0.3066  0.5264
 4237TIP3    H112717   5.828   3.615   2.397 -1.1134  1.1024 -0.2046
 4237TIP3    H212718   5.834   3.672   2.257  2.4420  0.5338 -0.3848
 4238TIP3   OH212719   2.084   3.812   4.014 -0.4661 -0.3743 -0.3323
 4238TIP3    H112720   2.023   3.760   4.066 -1.1243  1.0668  0.4070
 4238TIP3    H212721   2.171   3.781   4.039 -0.8264 -2.6548 -1.5961
 4239TIP3   OH212722   5.395   0.617   3.249  0.6534 -0.6068  0.3076
 4239TIP3    H112723   5.307   0.616   3.210  0.8414 -0.1694 -0.1445
 4239TIP3    H212724   5.382   0.590   3.339  0.0317 -0.4213  0.2770
 4240TIP3   OH212725   2.477   4.028   2.013  0.2374  0.4607  0.1686
 4240TIP3    H112726   2.458   3.973   2.089 -0.2151 -0.6868 -0.7422
 4240TIP3    H212727   2.572   4.025   2.005  0.2562  0.2309  0.4391
 4241TIP3   OH212728   3.992   2.671   1.281 -0.1031 -0.1937 -0.4925
 4241TIP3    H112729   3.995   2.630   1.195  0.0556  2.3667 -1.8156
 4241TIP3    H212730   4.082   2.667   1.314 -0.4283 -2.4270  0.2506
 4242TIP3   OH212731   2.030   0.219   2.466  0.2576 -0.2535  0.1884
 4242TIP3    H112732   2.080   0.299   2.448  1.0181 -0.5937  0.7523
 4242TIP3    H212733   2.072   0.182   2.543 -0.1417 -1.1649 -0.0290
 4243TIP3   OH212734   0.094   3.924   0.359 -0.3460  0.9116 -0.1448
 4243TIP3    H112735   0.183   3.924   0.396 -0.9153  2.9737  1.4366
 4243TIP3    H212736   0.084   3.836   0.322  2.2384  0.5201 -0.1409
 4244TIP3   OH212737   3.913   1.873   0.710 -0.2661 -0.4291 -0.1801
 4244TIP3    H112738   3.910   1.964   0.739 -3.0841 -0.5463  0.1069
 4244TIP3    H212739   4.007   1.851   0.711  0.6381  2.7837 -1.4039
 4245TIP3   OH212740   3.256   5.911   1.944 -0.0148 -0.2354 -0.2177
 4245TIP3    H112741   3.194   5.918   2.017 -0.4383 -2.3301 -0.3052
 4245TIP3    H212742   3.226   5.975   1.880  0.0090  1.2258  1.1702
 4246TIP3   OH212743   4.875   4.508   3.620  0.3476 -0.3958  0.5723
 4246TIP3    H112744   4.870   4.416   3.644  1.0656 -0.7891 -0.7086
 4246TIP3    H212745   4.969   4.524   3.607  0.0980  0.0947 -0.7272
 4247TIP3   OH212746   5.286   0.783   3.904 -0.4059  0.4408 -0.0558
 4247TIP3    H112747   5.232   0.858   3.879  0.8080  0.7133 -2.0445
 4247TIP3    H212748   5.291   0.729   3.825 -0.7053 -1.4457  1.1393
 4248TIP3   OH212749   0.371   2.464   4.886  0.3167 -0.0045 -0.4762
 4248TIP3    H112750   0.369   2.482   4.792 -1.0186 -1.6233 -0.8055
 4248TIP3    H212751   0.444   2.404   4.897  1.7223  1.6920 -0.1265
 4249TIP3   OH212752   5.510   3.605   3.752  0.0379  0.4015 -0.0837
 4249TIP3    H112753   5.462   3.544   3.809 -1.1364  0.8828 -0.5449
 4249TIP3    H212754   5.601   3.573   3.756 -0.5030 -1.2689 -0.1582
 4250TIP3   OH212755   0.727   1.730   1.509  0.4161 -0.0920 -0.4215
 4250TIP3    H112756   0.776   1.706   1.588 -2.1200 -0.0834  1.2769
 4250TIP3    H212757   0.666   1.657   1.497 -0.0111  0.4630 -1.7296
 4251TIP3   OH212758   3.080   3.427   4.078  0.6059 -0.4416 -0.5610
 4251TIP3    H112759   3.121   3.350   4.119  0.5289  0.5691  1.5760
 4251TIP3    H212760   3.150   3.492   4.074 -0.0519  0.3668  0.5312
 4252TIP3   OH212761   0.607   4.458   4.331 -0.0620  0.1855 -0.0781
 4252TIP3    H112762   0.691   4.447   4.376 -0.3778 -1.0627  0.2328
 4252TIP3    H212763   0.546   4.402   4.380 -0.7999  0.1344 -1.0340
 4253TIP3   OH212764   2.346   0.707   4.593  0.0892 -0.7065 -0.1831
 4253TIP3    H112765   2.380   0.778   4.647 -1.4449 -0.7576  0.8999
 4253TIP3    H212766   2.327   0.748   4.508  1.3309 -0.3555 -0.3107
 4254TIP3   OH212767   1.846   1.781   1.659  0.5287  1.0401  0.5367
 4254TIP3    H112768   1.819   1.790   1.568 -0.5629  0.3683  0.7789
 4254TIP3    H212769   1.925   1.727   1.655  0.6506  1.2572 -0.0305
 4255TIP3   OH212770   2.764   5.991   0.189  0.4369 -0.3943  0.3199
 4255TIP3    H112771   2.761   5.954   0.101 -1.6179  1.2720 -0.3962
 4255TIP3    H212772   2.755   5.915   0.247  1.4658 -1.4809 -0.8784
 4256TIP3   OH212773   2.757   2.004   0.800 -0.2403 -0.0045 -0.1588
 4256TIP3    H112774   2.777   1.947   0.726  0.8986 -0.0935  0.2053
 4256TIP3    H212775   2.669   2.036   0.782 -1.6987 -3.2190  0.4577
 4257TIP3   OH212776   2.666   0.008   4.376 -0.0875 -0.5970 -0.4740
 4257TIP3    H112777   2.651  -0.005   4.283  0.4489  2.1437 -1.0179
 4257TIP3    H212778   2.579   0.006   4.416 -0.5592  0.6745 -1.4093
 4258TIP3   OH212779   6.336   5.261   3.726 -0.6898  0.1825  0.4048
 4258TIP3    H112780   6.404   5.282   3.790 -0.9497  0.5368  0.5655
 4258TIP3    H212781   6.255   5.291   3.767 -1.1822 -1.8200  1.0028
 4259TIP3   OH212782   1.432   3.455   0.562 -0.4773 -0.2352  0.3742
 4259TIP3    H112783   1.383   3.492   0.636  0.0341  0.0852  0.5589
 4259TIP3    H212784   1.382   3.481   0.485  0.0307  1.0990  0.4844
 4260TIP3   OH212785   3.086   5.564   0.949 -0.0874  0.4835  0.4177
 4260TIP3    H112786   3.098   5.557   0.854  2.5950  0.4795  0.6793
 4260TIP3    H212787   3.048   5.480   0.975 -1.8676  0.8775 -0.7266
 4261TIP3   OH212788   1.327   4.963   2.270 -0.5237  0.0516  0.8453
 4261TIP3    H112789   1.250   4.910   2.287  0.3806 -1.7207 -0.3265
 4261TIP3    H212790   1.298   5.053   2.286 -3.3753 -0.3350 -1.3590
 4262TIP3   OH212791   4.434   5.470   0.002 -0.2449  0.0704 -0.5360
 4262TIP3    H112792   4.348   5.470   0.045  0.2801 -1.1812  0.6093
 4262TIP3    H212793   4.460   5.562  -0.000 -0.8782  0.2992  0.6661
 4263TIP3   OH212794   4.708   5.388  -0.017  0.0287 -0.2465  0.1605
 4263TIP3    H112795   4.613   5.395  -0.010 -0.0412  0.6638 -1.1518
 4263TIP3    H212796   4.741   5.449   0.049 -0.3767  1.1974 -0.9020
 4264TIP3   OH212797   3.775   0.236   0.931 -0.6395 -0.0730 -0.1184
 4264TIP3    H112798   3.829   0.193   0.865  0.6134 -0.1348  0.8990
 4264TIP3    H212799   3.698   0.266   0.884  0.9700  1.3870 -1.9707
 4265TIP3   OH212800   1.305   4.320   4.720 -0.3034  0.0176  0.2235
 4265TIP3    H112801   1.347   4.235   4.703  1.8365  1.0421  0.0663
 4265TIP3    H212802   1.247   4.303   4.795  0.5923 -1.4482  0.6368
 4266TIP3   OH212803   5.383   2.454   3.907 -0.7215 -0.6048 -0.0456
 4266TIP3    H112804   5.359   2.505   3.829 -0.1869  2.4087  1.6033
 4266TIP3    H212805   5.302   2.412   3.935 -0.8279 -2.1765 -2.4177
 4267TIP3   OH212806   2.635   3.651   0.475 -0.6325 -0.2411  0.1412
 4267TIP3    H112807   2.665   3.734   0.437 -1.3817  0.4999  1.1136
 4267TIP3    H212808   2.705   3.589   0.456  1.0906  1.1844  1.5141
 4268TIP3   OH212809   3.395   1.914   2.153  0.0934 -0.3754 -0.1652
 4268TIP3    H112810   3.342   1.948   2.081  0.0960 -0.8168 -0.3793
 4268TIP3    H212811   3.341   1.847   2.194  0.2890 -0.4836 -0.0796
 4269TIP3   OH212812   0.029   5.798   0.834 -0.2270  0.3988  0.0627
 4269TIP3    H112813   0.032   5.790   0.930 -2.4955  0.8420  0.2398
 4269TIP3    H212814   0.092   5.866   0.814 -0.3716  0.9507  1.3672
 4270TIP3   OH212815   1.001   4.861   2.802  0.0738  0.5669 -0.4007
 4270TIP3    H112816   0.943   4.845   2.877  0.3620  0.1355 -0.2589
 4270TIP3    H212817   1.003   4.956   2.793  1.2000  0.7352  1.1003
 4271TIP3   OH212818   2.842   5.715   3.581  0.2493 -0.0915 -0.3267
 4271TIP3    H112819   2.934   5.718   3.554  0.0357 -0.2061 -1.0650
 4271TIP3    H212820   2.843   5.660   3.659  1.0444  1.2537  0.6637
 4272TIP3   OH212821   0.816   2.381   0.586 -0.0691  0.0661  0.6085
 4272TIP3    H112822   0.837   2.299   0.540 -1.2565  0.8934 -1.5864
 4272TIP3    H212823   0.833   2.450   0.521 -0.1933  1.4721  2.0115
 4273TIP3   OH212824   2.551   4.905   4.484 -0.3971  0.1437  0.1783
 4273TIP3    H112825   2.604   4.935   4.558 -0.1229 -0.3782  0.1954
 4273TIP3    H212826   2.476   4.965   4.483 -0.6796 -0.1686  1.2104
 4274TIP3   OH212827   0.756   4.426   3.929  0.3478 -0.4949  0.1529
 4274TIP3    H112828   0.766   4.440   4.024 -0.2417 -2.0182  0.4747
 4274TIP3    H212829   0.756   4.330   3.919 -1.2291 -0.4074 -1.1845
 4275TIP3   OH212830   0.830   2.002   4.823 -0.4707 -0.4172  0.0093
 4275TIP3    H112831   0.885   2.076   4.797 -2.6564  1.4788  0.4475
 4275TIP3    H212832   0.763   1.997   4.755 -2.8810  0.8938  2.1301
 4276TIP3   OH212833   3.178   3.142   4.634 -0.2471  0.4047 -0.7852
 4276TIP3    H112834   3.203   3.062   4.679 -0.0232  1.3441  0.8493
 4276TIP3    H212835   3.082   3.141   4.634 -0.2570 -0.3872 -1.8081
 4277TIP3   OH212836   0.176   2.626   2.429 -0.0602  0.4833  0.3779
 4277TIP3    H112837   0.227   2.547   2.413 -0.6035 -0.0500  1.1745
 4277TIP3    H212838   0.231   2.679   2.487  0.9481  1.3997 -1.3557
 4278TIP3   OH212839   2.629   4.375   2.121 -0.5662  0.1400  0.5926
 4278TIP3    H112840   2.616   4.447   2.183 -0.7331  0.9894 -0.3930
 4278TIP3    H212841   2.565   4.309   2.147 -2.5529  1.6131 -0.2602
 4279TIP3   OH212842   2.744   2.054   1.345  0.5570  0.1454 -0.6597
 4279TIP3    H112843   2.716   2.006   1.267 -0.6689 -1.3095  0.6084
 4279TIP3    H212844   2.805   1.995   1.389 -0.0557  0.2297  0.3300
 4280TIP3   OH212845   5.633   1.744   2.535 -0.1737 -0.2213 -0.0648
 4280TIP3    H112846   5.690   1.788   2.472  0.0878 -0.6639 -0.1423
 4280TIP3    H212847   5.651   1.651   2.523 -2.0870 -0.4812 -1.1939
 4281TIP3   OH212848   5.756   5.124   3.351  0.0055 -0.1634 -0.4031
 4281TIP3    H112849   5.690   5.186   3.380 -0.0328  0.3283 -1.4939
 4281TIP3    H212850   5.839   5.160   3.381 -0.1573 -0.4814  0.4575
 4282TIP3   OH212851   2.333   2.596   2.552  0.0917  0.3618  0.5540
 4282TIP3    H112852   2.424   2.598   2.523 -0.0177  1.1187  0.2438
 4282TIP3    H212853   2.307   2.504   2.542  0.0709  0.5697 -1.7663
 4283TIP3   OH212854   4.728   1.236   5.049  0.0088  0.2559 -0.0180
 4283TIP3    H112855   4.740   1.168   5.116 -0.7240 -0.6592 -0.7927
 4283TIP3    H212856   4.768   1.314   5.088 -1.6172  0.1431  2.0978
 4284TIP3   OH212857   2.986   3.852   4.373 -0.0609 -0.4565 -0.3053
 4284TIP3    H112858   2.959   3.835   4.283 -1.5764 -0.4577  0.1290
 4284TIP3    H212859   3.002   3.765   4.410 -1.3394 -0.5755 -0.0143
 4285TIP3   OH212860   5.658   2.849   2.214 -0.2917  0.0951 -0.3315
 4285TIP3    H112861   5.617   2.762   2.215 -0.2729  0.0737  1.4865
 4285TIP3    H212862   5.648   2.881   2.303 -0.0248  1.8576 -0.8944
 4286TIP3   OH212863   6.121   5.206   3.951 -0.3654  0.0240 -0.0792
 4286TIP3    H112864   6.093   5.127   3.904  4.1111 -2.1480  0.3024
 4286TIP3    H212865   6.120   5.179   4.044 -1.1654  1.3390  0.3108
 4287TIP3   OH212866   1.333   1.673   2.365  0.4978  0.4354 -0.0586
 4287TIP3    H112867   1.377   1.605   2.313 -1.5974  1.0473 -2.9332
 4287TIP3    H212868   1.396   1.698   2.432  2.0438 -3.0296 -0.0037
 4288TIP3   OH212869   6.290   5.502   1.651 -0.1908 -0.7431 -0.4970
 4288TIP3    H112870   6.338   5.451   1.586 -0.2178 -1.4280  0.0067
 4288TIP3    H212871   6.332   5.480   1.734  0.4475  0.8254 -0.3707
 4289TIP3   OH212872   2.627   3.827   1.770 -0.1196  0.0624  0.4051
 4289TIP3    H112873   2.672   3.876   1.839 -1.5856 -0.0296  1.4968
 4289TIP3    H212874   2.692   3.817   1.701  1.1352  0.9471  1.3990
 4290TIP3   OH212875   1.998   1.700   3.529 -0.0060 -0.2104 -0.2024
 4290TIP3    H112876   1.938   1.643   3.576  0.5077 -0.6081 -0.0263
 4290TIP3    H212877   1.982   1.787   3.566 -1.3646 -0.0774 -1.0325
 4291TIP3   OH212878   6.129   0.028   3.980 -0.2058  0.6913 -0.2456
 4291TIP3    H112879   6.186   0.065   4.047 -0.6594 -0.5667  0.8783
 4291TIP3    H212880   6.047   0.076   3.989 -0.9838 -0.8550  1.5876
 4292TIP3   OH212881   2.489   4.368   3.812  0.2124  0.9093 -0.2057
 4292TIP3    H112882   2.513   4.418   3.735  0.8312  1.4879  0.3467
 4292TIP3    H212883   2.408   4.324   3.788  1.4384 -0.5338 -1.8702
 4293TIP3   OH212884   1.758   3.967   1.870 -0.5407 -0.0227  0.0422
 4293TIP3    H112885   1.817   3.930   1.935  1.8472  1.1664 -1.2904
 4293TIP3    H212886   1.817   4.003   1.803 -2.8331  0.4491 -1.8358
 4294TIP3   OH212887   5.146   1.050   1.607  0.6431  0.0645  0.4684
 4294TIP3    H112888   5.234   1.066   1.639  0.8374 -0.6799  0.3090
 4294TIP3    H212889   5.109   0.985   1.666  0.7492 -0.7704 -0.3664
 4295TIP3   OH212890   3.011   3.244   1.451  0.3246  0.4878  0.0419
 4295TIP3    H112891   3.093   3.221   1.493 -0.3028 -0.0610  1.0129
 4295TIP3    H212892   2.946   3.186   1.491 -0.7769  1.8475  0.3100
 4296TIP3   OH212893   0.917   1.460   3.716  0.3280  0.1546 -0.0076
 4296TIP3    H112894   0.989   1.423   3.665 -1.0525 -2.3814 -0.3077
 4296TIP3    H212895   0.838   1.432   3.670 -0.8917  1.5022  1.1653
 4297TIP3   OH212896   0.613   1.510   3.757 -0.7765  0.6036  0.1530
 4297TIP3    H112897   0.660   1.468   3.828 -0.8867 -1.7864 -1.0992
 4297TIP3    H212898   0.532   1.542   3.797 -0.4712  0.0355  1.2510
 4298TIP3   OH212899   0.230   0.752   1.039  0.2725 -0.5770  0.3803
 4298TIP3    H112900   0.211   0.841   1.069  0.4293 -0.6475  0.6907
 4298TIP3    H212901   0.288   0.716   1.106  1.9937 -0.1701 -0.8029
 4299TIP3   OH212902   0.066   5.630   4.649 -0.2042  0.2684  0.2900
 4299TIP3    H112903   0.079   5.542   4.615  0.8485  0.1987  0.8108
 4299TIP3    H212904  -0.013   5.661   4.607  0.3883 -0.2547 -1.2785
 4300TIP3   OH212905   2.528   4.958   5.112 -0.4789 -0.3058  1.3652
 4300TIP3    H112906   2.615   4.917   5.111 -0.9028 -1.2155  1.2680
 4300TIP3    H212907   2.476   4.904   5.172 -1.2262 -0.2968  0.7419
 4301TIP3   OH212908   0.387   2.051   4.099 -0.0433  0.5519 -0.5115
 4301TIP3    H112909   0.334   1.971   4.100  1.5788 -0.5901  0.5805
 4301TIP3    H212910   0.418   2.058   4.009 -2.3171  1.4961 -1.2864
 4302TIP3   OH212911   0.765   1.148   0.467  0.2185 -0.5967 -0.2537
 4302TIP3    H112912   0.773   1.090   0.391 -0.3547 -1.0542  0.0198
 4302TIP3    H212913   0.680   1.125   0.504  0.9849 -1.1887  1.1925
 4303TIP3   OH212914   3.094   0.610   4.906  0.1065 -0.6624  0.1978
 4303TIP3    H112915   3.178   0.652   4.922 -0.2017 -0.5126  1.4635
 4303TIP3    H212916   3.046   0.672   4.851  1.1232 -1.1355 -1.2969
 4304TIP3   OH212917   2.971   3.350   1.086 -0.4190 -0.0823  0.3085
 4304TIP3    H112918   3.053   3.310   1.115 -0.2942  0.0380  0.1210
 4304TIP3    H212919   2.942   3.296   1.012  0.8814  1.4372 -1.3888
 4305TIP3   OH212920   0.993   1.100   3.533 -0.0596  0.2156  0.0875
 4305TIP3    H112921   1.032   1.097   3.445  0.4789  0.5176  0.3163
 4305TIP3    H212922   0.901   1.122   3.517 -0.6523 -2.3930 -0.6107
 4306TIP3   OH212923   0.408   1.265   0.792 -0.0845  0.0248 -0.2305
 4306TIP3    H112924   0.483   1.303   0.838 -0.3504  0.0442  0.1949
 4306TIP3    H212925   0.396   1.322   0.716  0.8833 -0.5037 -0.7936
 4307TIP3   OH212926   6.176   3.661   2.360 -0.7203 -0.4442 -0.0532
 4307TIP3    H112927   6.143   3.645   2.448 -2.1763  1.6333 -0.1760
 4307TIP3    H212928   6.099   3.658   2.304 -0.2145  0.8990 -0.8682
 4308TIP3   OH212929   1.024   0.845   3.334 -0.1390  0.3677 -0.1768
 4308TIP3    H112930   0.968   0.782   3.288 -2.0654  1.0177  1.1626
 4308TIP3    H212931   0.986   0.930   3.314  0.2037  0.8160  0.9858
 4309TIP3   OH212932   4.153   1.312   0.496 -0.0396  0.3161  0.1951
 4309TIP3    H112933   4.177   1.236   0.550  0.2859  1.2046  1.3325
 4309TIP3    H212934   4.156   1.386   0.556  0.3950  1.3549 -1.0692
 4310TIP3   OH212935   1.489   4.428   4.487  0.2539  0.8247  0.4159
 4310TIP3    H112936   1.546   4.361   4.451 -1.3785  0.2571 -1.2797
 4310TIP3    H212937   1.517   4.438   4.578  2.7038  0.2692 -0.2053
 4311TIP3   OH212938   2.257   1.844   0.111 -0.2132  0.1606  0.2743
 4311TIP3    H112939   2.304   1.900   0.172 -1.8542  0.1848  1.5962
 4311TIP3    H212940   2.278   1.755   0.140  1.3290  0.0653 -0.9976
 4312TIP3   OH212941   1.551   3.613   2.344  0.3302 -0.2151  0.4607
 4312TIP3    H112942   1.561   3.633   2.437 -1.2616  0.0966  0.5919
 4312TIP3    H212943   1.550   3.698   2.301  1.8268 -0.3824  0.0457
 4313TIP3   OH212944   0.507   1.859   0.269 -0.3551 -0.3688  0.1167
 4313TIP3    H112945   0.438   1.856   0.203 -0.6654 -0.2721  0.4293
 4313TIP3    H212946   0.543   1.948   0.262 -0.5016 -0.3018  0.1841
 4314TIP3   OH212947   1.093   4.215   4.230 -1.1780  0.0840  0.0441
 4314TIP3    H112948   1.067   4.297   4.272  2.5085  1.0385  0.7972
 4314TIP3    H212949   1.183   4.201   4.258 -1.0818 -3.3534 -1.4951
 4315TIP3   OH212950   2.227   5.112   1.941  0.0409  0.1165 -0.0925
 4315TIP3    H112951   2.177   5.060   2.005  1.4931  1.0850  1.9182
 4315TIP3    H212952   2.290   5.050   1.905  0.9377  0.1231  1.3795
 4316TIP3   OH212953   2.915   4.244   1.082 -0.0452  0.1693 -0.3923
 4316TIP3    H112954   2.941   4.162   1.038  1.0584  1.1155 -1.5860
 4316TIP3    H212955   2.953   4.237   1.169  0.8802 -0.1906 -0.8062
 4317TIP3   OH212956   5.619   1.443   0.295  0.6275  0.3712 -0.3380
 4317TIP3    H112957   5.645   1.512   0.356  0.0032  0.4548 -0.1562
 4317TIP3    H212958   5.614   1.364   0.350  0.2861  0.4024 -0.3175
 4318TIP3   OH212959   5.670   1.011   2.906 -0.2668 -0.1582  0.3596
 4318TIP3    H112960   5.640   1.098   2.879  1.5500  0.2699 -0.4372
 4318TIP3    H212961   5.676   1.016   3.001 -0.1116  0.6161  0.3156
 4319TIP3   OH212962   4.683   4.558   0.112 -0.1508 -0.2067 -0.0035
 4319TIP3    H112963   4.757   4.549   0.172 -0.0796 -0.3374 -0.1081
 4319TIP3    H212964   4.657   4.650   0.119  0.0847 -0.1359 -0.0386
 4320TIP3   OH212965   2.327   3.662   3.245 -0.1019 -0.1469 -0.0503
 4320TIP3    H112966   2.311   3.654   3.339  0.0569 -0.6659 -0.0630
 4320TIP3    H212967   2.244   3.693   3.208 -0.4605 -0.8787  0.1342
 4321TIP3   OH212968   2.317   2.721   2.042  0.3818  0.4230  0.7030
 4321TIP3    H112969   2.351   2.804   2.008  2.8647 -0.5788  0.5402
 4321TIP3    H212970   2.261   2.687   1.972  1.9048  0.4888 -0.6016
 4322TIP3   OH212971   0.190   2.742   4.516  0.1812  0.6366  0.0409
 4322TIP3    H112972   0.120   2.804   4.494  0.1931  0.5317 -0.3002
 4322TIP3    H212973   0.179   2.726   4.609 -1.5026 -0.8996 -0.3524
 4323TIP3   OH212974   1.251   2.448   1.318 -0.3665  0.0825 -0.1664
 4323TIP3    H112975   1.227   2.390   1.390 -1.2648 -1.8808 -1.9046
 4323TIP3    H212976   1.206   2.410   1.242  0.7100  1.9042 -1.7923
 4324TIP3   OH212977   1.309   2.227   3.103  0.0682  0.0286 -0.2512
 4324TIP3    H112978   1.276   2.261   3.020  0.2763  0.7121 -0.0606
 4324TIP3    H212979   1.262   2.276   3.170 -0.9038 -1.2714  0.0770
 4325TIP3   OH212980   0.648   1.603   2.013 -0.5392 -0.0040  0.2821
 4325TIP3    H112981   0.627   1.543   1.941  0.0205 -1.2312  1.0955
 4325TIP3    H212982   0.685   1.680   1.971  2.4881 -1.8203 -0.6592
 4326TIP3   OH212983   1.516   1.534   2.188  0.2513 -0.1942 -0.5519
 4326TIP3    H112984   1.461   1.470   2.143 -0.1876 -2.1677  2.4261
 4326TIP3    H212985   1.599   1.488   2.201  0.9502  0.9618 -0.8546
 4327TIP3   OH212986   4.307   2.240   3.391  0.0992  0.1321 -0.2602
 4327TIP3    H112987   4.351   2.302   3.449  0.4358 -0.0388 -0.3298
 4327TIP3    H212988   4.337   2.154   3.421 -0.7490 -0.0253  0.1490
 4328TIP3   OH212989   4.233   2.952   0.303 -0.0254  0.3855 -0.0847
 4328TIP3    H112990   4.275   2.870   0.328  3.0846  1.7020 -0.5138
 4328TIP3    H212991   4.298   3.019   0.324 -2.3445  2.7535  0.0321
 4329TIP3   OH212992   2.048   2.307   0.683  0.1924 -0.1626  0.2269
 4329TIP3    H112993   1.988   2.249   0.635  0.0739  0.6407 -0.6123
 4329TIP3    H212994   2.017   2.302   0.773  0.3538 -1.6274  0.2353
 4330TIP3   OH212995   1.793   3.688   5.069  0.1760 -0.3811 -0.2911
 4330TIP3    H112996   1.723   3.727   5.017 -0.3400 -1.1827 -0.2173
 4330TIP3    H212997   1.872   3.735   5.042 -0.4068  0.6412 -0.2623
 4331TIP3   OH212998   1.396   1.850   4.295 -0.2399  0.3002 -0.2041
 4331TIP3    H112999   1.431   1.861   4.207 -0.2070  0.8952 -0.1251
 4331TIP3    H213000   1.419   1.932   4.340  0.2176 -0.2127  0.5171
 4332TIP3   OH213001   3.420   2.691   4.825  0.2576 -0.3223  0.0870
 4332TIP3    H113002   3.450   2.751   4.894 -0.0440 -3.3976  3.1145
 4332TIP3    H213003   3.497   2.677   4.770  1.4739 -0.2549  1.7201
 4333TIP3   OH213004   0.849   5.503   2.413 -0.0566 -0.3566  0.2463
 4333TIP3    H113005   0.818   5.590   2.440 -1.2092 -0.8699  0.6219
 4333TIP3    H213006   0.787   5.442   2.452  0.7483 -1.3629 -0.0076
 4334TIP3   OH213007   1.188   4.546   4.017 -0.3518 -0.2259  0.7249
 4334TIP3    H113008   1.218   4.636   4.023  1.0120 -0.6675  0.7672
 4334TIP3    H213009   1.259   4.494   4.053 -0.6535 -1.4066 -0.2883
 4335TIP3   OH213010   0.920   5.083   0.978  0.0601 -0.1279 -0.4799
 4335TIP3    H113011   0.878   5.161   0.942 -0.0489  0.6731  1.2669
 4335TIP3    H213012   0.934   5.105   1.070  0.7678 -1.8795 -0.1481
 4336TIP3   OH213013   4.585   1.268   4.805  0.0313  0.6274  0.1449
 4336TIP3    H113014   4.615   1.183   4.772 -1.7277  0.4832 -1.2014
 4336TIP3    H213015   4.617   1.271   4.896  2.9015 -0.0388 -0.7364
 4337TIP3   OH213016   4.275   4.091   3.164 -0.0473 -0.0154 -0.0930
 4337TIP3    H113017   4.271   4.073   3.258 -0.2715 -0.2490 -0.1469
 4337TIP3    H213018   4.359   4.054   3.136  0.7645  1.4564  0.3106
 4338TIP3   OH213019   3.359   0.776   3.618 -0.2145 -0.2314  0.0719
 4338TIP3    H113020   3.338   0.740   3.704  1.3152  2.0061  1.4764
 4338TIP3    H213021   3.283   0.831   3.596 -1.2623 -1.9210 -0.7629
 4339TIP3   OH213022   3.327   1.878   0.501 -0.1420 -0.5801 -0.5878
 4339TIP3    H113023   3.232   1.868   0.493 -0.4070 -0.4229  1.6253
 4339TIP3    H213024   3.355   1.802   0.552  0.3866  0.9242  1.5229
 4340TIP3   OH213025   2.580   5.573   1.480 -0.3842  0.2455 -0.1784
 4340TIP3    H113026   2.651   5.516   1.450  0.4440  0.0135  2.0206
 4340TIP3    H213027   2.523   5.582   1.404  2.2458  0.9023 -2.2338
 4341TIP3   OH213028   1.262   2.712   4.537 -0.0789 -0.1889 -0.3614
 4341TIP3    H113029   1.289   2.735   4.626 -0.6388  0.7010 -0.4070
 4341TIP3    H213030   1.170   2.688   4.546 -0.3929  0.8125 -0.8420
 4342TIP3   OH213031   0.911   3.163   4.918  0.3858 -0.1879  0.1382
 4342TIP3    H113032   0.907   3.218   4.996  0.9990  0.2182 -0.1074
 4342TIP3    H213033   0.972   3.093   4.941  0.3232 -0.2447  0.1316
 4343TIP3   OH213034   4.889   4.230   3.119 -0.0495  0.3432 -0.0805
 4343TIP3    H113035   4.950   4.215   3.192  0.3842 -0.1406 -0.5263
 4343TIP3    H213036   4.903   4.321   3.094  0.5064  0.2398 -0.1769
 4344TIP3   OH213037   3.418   3.091   4.194  0.1340  0.0121  0.0531
 4344TIP3    H113038   3.362   3.048   4.258 -0.2178  0.0152 -0.2447
 4344TIP3    H213039   3.507   3.073   4.223 -0.0133 -0.6828  0.0904
 4345TIP3   OH213040   2.965   0.423   5.039  0.3091  0.3747 -0.1836
 4345TIP3    H113041   3.002   0.491   4.983  0.4968 -0.3133 -0.9167
 4345TIP3    H213042   3.036   0.361   5.053 -0.0687 -0.0562 -0.1405
 4346TIP3   OH213043   3.524   1.698   4.098  0.1898  0.4272 -0.1154
 4346TIP3    H113044   3.479   1.617   4.122  1.4226 -0.5863 -1.0730
 4346TIP3    H213045   3.510   1.706   4.003  1.8365  0.1646 -0.4134
 4347TIP3   OH213046   3.399   5.464   4.047 -0.0751 -0.2398 -0.2616
 4347TIP3    H113047   3.433   5.425   3.967 -0.6926 -0.5884 -0.3599
 4347TIP3    H213048   3.304   5.466   4.035 -0.2252 -0.7697  0.6552
 4348TIP3   OH213049   0.946   5.781   4.404  0.6369  0.3147 -0.4502
 4348TIP3    H113050   0.905   5.718   4.345  0.8690  1.4208 -1.8485
 4348TIP3    H213051   0.874   5.819   4.453  0.5183 -1.2099  0.6365
 4349TIP3   OH213052   4.292   3.371   0.418  0.0036 -0.2091 -0.0934
 4349TIP3    H113053   4.256   3.304   0.476 -0.9638  0.3567 -0.0144
 4349TIP3    H213054   4.226   3.441   0.418 -0.2041 -0.3498 -2.1504
 4350TIP3   OH213055   0.631   0.907   2.016  0.0265  0.3049 -0.1712
 4350TIP3    H113056   0.683   0.864   2.083  2.0645  2.4855 -0.2159
 4350TIP3    H213057   0.542   0.874   2.029  0.8768 -1.4028  1.7714
 4351TIP3   OH213058   2.210   3.361   2.718  0.3506  0.1221  0.2372
 4351TIP3    H113059   2.138   3.425   2.714  0.9725  0.7940 -0.4510
 4351TIP3    H213060   2.173   3.283   2.677  1.0222  1.5170 -3.4048
 4352TIP3   OH213061   5.123   3.113   5.143  0.0206  0.3777  0.2465
 4352TIP3    H113062   5.219   3.113   5.134  0.2917  1.5322  2.5787
 4352TIP3    H213063   5.095   3.190   5.093  0.0571 -0.9544 -1.9663
 4353TIP3   OH213064   0.753   2.674   3.771  0.2497 -0.0614  0.3422
 4353TIP3    H113065   0.706   2.749   3.734  0.6792 -0.9401 -2.1713
 4353TIP3    H213066   0.684   2.614   3.799 -0.1056  0.2594  0.1710
 4354TIP3   OH213067   5.227   3.487   2.016 -0.0679  0.5069 -0.3462
 4354TIP3    H113068   5.264   3.502   1.929  0.6831  0.8951  0.0242
 4354TIP3    H213069   5.299   3.447   2.065 -0.5639  0.0672  0.0268
 4355TIP3   OH213070   4.629   1.172   0.898  0.2719  0.1605 -0.1278
 4355TIP3    H113071   4.630   1.268   0.902 -0.3919  0.2513 -1.7283
 4355TIP3    H213072   4.721   1.148   0.907  0.4373  0.9282  0.4051
 4356TIP3   OH213073   5.933   4.581   4.774  0.3050  0.0922  0.6833
 4356TIP3    H113074   5.996   4.628   4.830  0.3247  1.7052 -0.6136
 4356TIP3    H213075   5.871   4.542   4.835  1.7635 -0.3750  1.9356
 4357TIP3   OH213076   5.349   4.531   1.979  0.6610 -1.0734  0.0137
 4357TIP3    H113077   5.431   4.572   1.952  1.1435 -0.2857  2.4514
 4357TIP3    H213078   5.368   4.490   2.064 -0.7910 -3.2125 -0.5843
 4358TIP3   OH213079   1.754   0.775   2.531 -0.3573  0.2156  0.1562
 4358TIP3    H113080   1.798   0.809   2.453 -1.9043  1.5550 -0.1723
 4358TIP3    H213081   1.815   0.710   2.566  1.0574  0.7063 -1.2833
 4359TIP3   OH213082   6.234   1.311   0.792  0.1273 -0.1674  0.5755
 4359TIP3    H113083   6.173   1.262   0.736 -0.1347 -1.0496  1.6024
 4359TIP3    H213084   6.240   1.258   0.872  0.3674  1.1482  1.4448
 4360TIP3   OH213085   0.336   2.832   2.657 -0.2057  0.3064 -0.0876
 4360TIP3    H113086   0.296   2.904   2.706 -1.6665 -0.8829  0.5657
 4360TIP3    H213087   0.363   2.871   2.574 -1.9300  1.3867 -0.1900
 4361TIP3   OH213088   3.278   4.866   3.524 -0.5384 -0.2414 -0.1123
 4361TIP3    H113089   3.212   4.797   3.521 -0.8885  0.0754  0.1622
 4361TIP3    H213090   3.296   4.885   3.432 -1.8593  0.6308 -0.2266
 4362TIP3   OH213091   5.420   5.578   4.855  0.7536  0.3511 -0.1111
 4362TIP3    H113092   5.429   5.600   4.948  0.3417  0.7025 -0.1493
 4362TIP3    H213093   5.417   5.663   4.811  1.1591  0.1820 -0.4673
 4363TIP3   OH213094   0.843   2.279   2.071  0.3593  0.3026  0.2890
 4363TIP3    H113095   0.876   2.259   2.159 -0.0235 -1.8106 -0.0014
 4363TIP3    H213096   0.921   2.300   2.020  0.9771 -1.6363  0.3673
 4364TIP3   OH213097   1.501   4.779   2.950  0.1204 -0.0554  0.5178
 4364TIP3    H113098   1.421   4.762   2.999 -0.4950  0.0093 -0.4328
 4364TIP3    H213099   1.504   4.874   2.942 -0.0024 -0.0863  0.0844
 4365TIP3   OH213100   3.085   2.151   0.678 -0.0547 -0.1815  0.4355
 4365TIP3    H113101   3.142   2.096   0.732  0.8992 -0.6205 -0.9630
 4365TIP3    H213102   3.070   2.229   0.731  1.4248 -0.2892  1.0814
 4366TIP3   OH213103   2.942   2.669   0.918 -0.2533 -0.3492 -0.2946
 4366TIP3    H113104   3.033   2.686   0.893  0.1010 -1.3465  0.2255
 4366TIP3    H213105   2.902   2.755   0.925  0.3080  0.0684 -1.7456
 4367TIP3   OH213106   0.911   0.039   4.571  0.1700 -0.0574 -0.3802
 4367TIP3    H113107   0.985   0.064   4.627 -0.2174 -0.8219  0.4983
 4367TIP3    H213108   0.834   0.051   4.626 -0.3229  0.1546 -1.0969
 4368TIP3   OH213109   2.469   5.579   4.096  0.3427 -0.1357  0.1299
 4368TIP3    H113110   2.442   5.609   4.183 -2.4180  0.0065 -0.6774
 4368TIP3    H213111   2.397   5.525   4.066  1.6656 -0.9602 -1.7277
 4369TIP3   OH213112   3.354   2.693   0.486  0.2380  0.3204  0.5526
 4369TIP3    H113113   3.293   2.766   0.486  0.3097  0.4104  2.1627
 4369TIP3    H213114   3.306   2.622   0.529  1.0268  0.2061  1.2733
 4370TIP3   OH213115   5.898   0.581   1.396  0.2425  0.4681  0.0981
 4370TIP3    H113116   5.866   0.560   1.309  0.6036  0.3248 -0.0003
 4370TIP3    H213117   5.879   0.503   1.448 -0.1571  0.6306  0.1985
 4371TIP3   OH213118   2.539   4.859   0.329 -0.1168  0.4331 -0.3516
 4371TIP3    H113119   2.570   4.792   0.268  1.2988  1.4964 -0.8362
 4371TIP3    H213120   2.526   4.937   0.275  0.9181  1.3253  0.6456
 4372TIP3   OH213121   4.127   5.088   2.630 -0.3022 -0.1370  0.4752
 4372TIP3    H113122   4.097   5.027   2.697 -1.2157 -1.1934 -0.8491
 4372TIP3    H213123   4.189   5.038   2.577  2.3833  1.4049  1.9161
 4373TIP3   OH213124   5.108   3.163   2.305  0.3442  0.0257 -0.0692
 4373TIP3    H113125   5.150   3.085   2.342 -1.9890 -1.0100  0.6069
 4373TIP3    H213126   5.023   3.166   2.349 -0.7942  1.2795 -2.2417
 4374TIP3   OH213127   5.198   5.014   2.989 -0.5000  0.2224 -0.3961
 4374TIP3    H113128   5.275   4.987   2.939  0.9507 -0.2525  1.9335
 4374TIP3    H213129   5.211   5.107   3.004 -0.5175  0.1935 -0.2072
 4375TIP3   OH213130   3.934   1.343   2.258  0.3440 -0.3089  0.2298
 4375TIP3    H113131   3.841   1.362   2.244  0.7427  0.7499 -1.1088
 4375TIP3    H213132   3.956   1.392   2.338 -0.0721  0.0038  0.1567
 4376TIP3   OH213133   0.509   2.671   0.600  0.7498  0.2859 -0.1450
 4376TIP3    H113134   0.437   2.735   0.592  0.3490 -0.2408 -0.7987
 4376TIP3    H213135   0.587   2.720   0.573  0.7413  1.0199  1.0736
 4377TIP3   OH213136   2.759   0.407   3.067 -0.5355  0.2701  0.2509
 4377TIP3    H113137   2.750   0.383   2.974  1.7898 -0.0242  0.0447
 4377TIP3    H213138   2.781   0.325   3.111  1.0825  0.8547  0.5909
 4378TIP3   OH213139   3.488   1.418   4.745 -0.5326 -0.0201  0.2874
 4378TIP3    H113140   3.567   1.413   4.691  1.4070 -0.0324  2.8792
 4378TIP3    H213141   3.478   1.511   4.764 -2.0418  0.1446 -1.1681
 4379TIP3   OH213142   1.685   2.719   3.330 -0.6795 -0.5082  0.0379
 4379TIP3    H113143   1.721   2.648   3.383 -0.0752  0.3423  0.7979
 4379TIP3    H213144   1.655   2.676   3.250  0.3310 -1.5154  0.1725
 4380TIP3   OH213145   1.398   2.223   3.878  0.0621 -0.2895 -0.9234
 4380TIP3    H113146   1.372   2.308   3.843 -2.1135 -0.3326  0.3822
 4380TIP3    H213147   1.482   2.238   3.920 -0.3913  1.2797 -0.5391
 4381TIP3   OH213148   5.685   2.953   4.258  0.4947  0.7825  0.2198
 4381TIP3    H113149   5.754   2.979   4.319  1.6392  0.3082 -0.8359
 4381TIP3    H213150   5.695   3.013   4.184  0.1928  0.2761 -0.2327
 4382TIP3   OH213151   0.962   4.456   3.250 -0.4393 -0.6116 -0.0504
 4382TIP3    H113152   0.922   4.451   3.164  0.8095 -1.9382 -0.6052
 4382TIP3    H213153   1.006   4.372   3.261  1.0774  0.2678  1.0427
 4383TIP3   OH213154   4.630   3.573   1.362  0.1203 -0.0990  0.0220
 4383TIP3    H113155   4.646   3.552   1.270 -0.4299 -0.6738  0.0535
 4383TIP3    H213156   4.666   3.498   1.410 -0.0439 -0.0306  0.2511
 4384TIP3   OH213157   1.634   3.526   2.796 -0.5033 -0.5393 -0.2095
 4384TIP3    H113158   1.617   3.432   2.790 -1.1012 -0.4263 -0.3272
 4384TIP3    H213159   1.585   3.555   2.872 -0.0155 -0.3841  0.0489
 4385TIP3   OH213160   4.099   0.480   0.991 -0.3417  0.6220  0.3017
 4385TIP3    H113161   4.055   0.562   0.970 -0.6581  0.2784 -0.3964
 4385TIP3    H213162   4.127   0.444   0.907 -0.3846 -0.0844  0.5757
 4386TIP3   OH213163   0.600   4.234   0.636  0.4051  0.1311  0.5534
 4386TIP3    H113164   0.540   4.264   0.568 -2.1946 -1.5497  1.9605
 4386TIP3    H213165   0.610   4.310   0.694 -0.9315  0.2553  0.6476
 4387TIP3   OH213166   4.857   1.489   3.623 -0.0011 -0.2932  0.5089
 4387TIP3    H113167   4.789   1.552   3.598  0.3970  0.4726  1.2672
 4387TIP3    H213168   4.815   1.433   3.688 -0.1944 -0.4599  0.2421
 4388TIP3   OH213169   2.843   4.783   0.301 -0.4980  0.0869  0.4422
 4388TIP3    H113170   2.794   4.706   0.328  0.1442 -0.1810  0.8660
 4388TIP3    H213171   2.861   4.770   0.208 -0.3457 -0.3063  0.5256
 4389TIP3   OH213172   4.802   5.575   1.989 -0.0698  0.0477 -0.0261
 4389TIP3    H113173   4.765   5.543   2.071  0.7097 -0.6755  0.0567
 4389TIP3    H213174   4.728   5.575   1.928 -0.2519 -1.2776  0.1598
 4390TIP3   OH213175   2.347   2.047   3.691 -0.6074 -0.1536 -0.2970
 4390TIP3    H113176   2.399   2.005   3.622  1.6847 -1.0218  1.8146
 4390TIP3    H213177   2.385   2.134   3.700 -0.6071 -0.1983  0.1521
 4391TIP3   OH213178   1.502   5.587   1.736 -0.2294  0.3432 -0.6481
 4391TIP3    H113179   1.417   5.584   1.692 -0.3678  1.9481 -0.5609
 4391TIP3    H213180   1.514   5.679   1.758  2.6549  0.6769 -2.9134
 4392TIP3   OH213181   1.267   6.007   2.247 -0.2668 -0.1174  0.1347
 4392TIP3    H113182   1.210   5.960   2.308 -0.3619  1.0124  0.9215
 4392TIP3    H213183   1.354   5.970   2.262  0.1945  1.7740  2.7126
 4393TIP3   OH213184   3.469   0.028   2.686 -0.0686  0.4425  0.5106
 4393TIP3    H113185   3.547  -0.021   2.662 -0.4722 -0.1612  0.3997
 4393TIP3    H213186   3.447   0.079   2.608 -0.9307 -0.9229 -0.1891
 4394TIP3   OH213187   2.347   0.018   0.845  0.0116  0.6373 -0.0969
 4394TIP3    H113188   2.434  -0.021   0.842 -1.0972 -2.0149 -0.7295
 4394TIP3    H213189   2.343   0.061   0.931  0.7956 -2.2300  1.5177
 4395TIP3   OH213190   5.708   4.950   2.972 -0.1597  0.2475 -0.3042
 4395TIP3    H113191   5.758   4.880   2.929  2.9690  0.9912  1.7543
 4395TIP3    H213192   5.746   5.031   2.938  1.8842  0.8530  2.9553
 4396TIP3   OH213193   5.737   2.994   2.896  0.1607 -0.2144  0.4199
 4396TIP3    H113194   5.799   2.922   2.887 -1.3502 -1.5619  0.1899
 4396TIP3    H213195   5.684   2.971   2.973 -1.0806  0.0511 -0.3245
 4397TIP3   OH213196   5.265   1.207   1.926  0.7607 -0.2610 -0.1379
 4397TIP3    H113197   5.180   1.167   1.944  1.3612 -1.6467 -0.2241
 4397TIP3    H213198   5.323   1.174   1.995  1.4147 -0.0123 -0.5514
 4398TIP3   OH213199   1.873   5.012   4.367  0.1840 -0.1490 -0.6370
 4398TIP3    H113200   1.923   4.971   4.438 -0.6286 -0.1385 -0.0519
 4398TIP3    H213201   1.932   5.079   4.333  0.9362 -0.7689 -0.5842
 4399TIP3   OH213202   1.949   3.457   1.806  0.1378 -0.3684  0.0045
 4399TIP3    H113203   1.997   3.538   1.822  0.5165 -0.6991  0.6017
 4399TIP3    H213204   1.861   3.473   1.841 -0.3167  0.3674 -1.4281
 4400TIP3   OH213205   4.491   2.891   1.047 -0.1955 -0.3355 -0.2067
 4400TIP3    H113206   4.564   2.837   1.020 -0.5050  0.3904 -2.6723
 4400TIP3    H213207   4.416   2.831   1.048 -0.1432 -0.4089 -0.7675
 4401TIP3   OH213208   5.670   5.164   3.713 -0.4439  0.1749 -0.8595
 4401TIP3    H113209   5.720   5.241   3.739 -1.5683  0.7125 -0.1876
 4401TIP3    H213210   5.630   5.188   3.629  1.2093 -0.6412 -1.9246
 4402TIP3   OH213211   3.497   4.105   3.165 -0.1015  0.7180 -0.4297
 4402TIP3    H113212   3.504   4.028   3.221  2.3651  0.0469 -1.5159
 4402TIP3    H213213   3.429   4.082   3.101  0.3005 -0.3817 -0.4761
 4403TIP3   OH213214   3.752   0.252   0.620  0.2164  0.6370  0.0627
 4403TIP3    H113215   3.791   0.198   0.551  0.3978 -0.0529  0.6995
 4403TIP3    H213216   3.706   0.191   0.677  0.6492  1.1041  0.9466
 4404TIP3   OH213217   0.486   4.098   3.180  0.5649 -0.0212  0.2115
 4404TIP3    H113218   0.461   4.007   3.165  1.1500 -0.0222 -0.8701
 4404TIP3    H213219   0.403   4.143   3.198  0.4012 -0.9939  2.1796
 4405TIP3   OH213220   4.833   2.803   3.567  0.4464  0.0817 -0.6472
 4405TIP3    H113221   4.829   2.899   3.564 -0.8009  0.0531 -0.4782
 4405TIP3    H213222   4.757   2.778   3.620  1.2666 -0.9692  0.0771
 4406TIP3   OH213223   3.040   3.071   3.887  0.2150 -0.5497 -0.3038
 4406TIP3    H113224   3.089   3.150   3.864  0.8717 -0.4945  1.1766
 4406TIP3    H213225   2.987   3.097   3.962  2.2640 -2.0604  1.8316
 4407TIP3   OH213226   5.019   5.716   0.088 -0.0401 -0.1238 -0.3952
 4407TIP3    H113227   5.104   5.697   0.047 -0.1164 -1.9971  0.2351
 4407TIP3    H213228   4.970   5.634   0.081 -1.4158  0.6207  0.1970
 4408TIP3   OH213229   2.842   0.257   0.205  0.4390  0.3161 -0.1481
 4408TIP3    H113230   2.868   0.255   0.297  1.1703  3.3056 -0.1783
 4408TIP3    H213231   2.917   0.221   0.157  0.5807 -0.0498  0.3444
 4409TIP3   OH213232   2.242   3.720   3.517 -0.0591 -0.1043  0.1155
 4409TIP3    H113233   2.246   3.739   3.610  0.3645  1.4422 -0.1871
 4409TIP3    H213234   2.179   3.648   3.509 -1.1529  0.6762  1.4597
 4410TIP3   OH213235   0.228   3.870   4.601 -0.3783 -0.5533 -0.0000
 4410TIP3    H113236   0.156   3.891   4.541 -0.8924 -0.9268  0.4745
 4410TIP3    H213237   0.305   3.913   4.562 -0.3197 -2.1884 -1.8505
 4411TIP3   OH213238   4.366   4.124   0.181  0.3586 -0.3801 -0.1089
 4411TIP3    H113239   4.279   4.086   0.170  0.3661 -0.8171  1.1168
 4411TIP3    H213240   4.354   4.191   0.249  0.5862  1.0014 -1.3813
 4412TIP3   OH213241   6.053   3.397   3.970 -0.1326 -0.1272 -0.5947
 4412TIP3    H113242   6.090   3.411   3.883 -0.2951 -0.4064 -0.7125
 4412TIP3    H213243   6.025   3.484   3.999  0.3795  0.0458 -0.6073
 4413TIP3   OH213244   3.021   4.916   2.223  0.1246 -0.6042  0.1556
 4413TIP3    H113245   3.104   4.955   2.194  0.0229 -0.8772 -0.5146
 4413TIP3    H213246   3.028   4.914   2.318  0.8517 -0.5316  0.1125
 4414TIP3   OH213247   6.329   2.101   5.092  0.2151 -0.4092  0.2292
 4414TIP3    H113248   6.391   2.029   5.083 -2.4922 -3.2331  1.9758
 4414TIP3    H213249   6.253   2.074   5.040 -0.5728  1.6202  0.2537
 4415TIP3   OH213250   2.607   0.473   3.414  0.4253  0.0949 -0.4128
 4415TIP3    H113251   2.551   0.551   3.422  1.8048  1.0134  1.0655
 4415TIP3    H213252   2.670   0.497   3.347 -1.1606 -1.1306 -2.4364
 4416TIP3   OH213253   1.274   1.628   1.285 -0.2097 -0.3545  0.2333
 4416TIP3    H113254   1.354   1.643   1.235  0.0841  0.6796  0.9640
 4416TIP3    H213255   1.253   1.713   1.324 -1.6266 -0.6248  0.1308
 4417TIP3   OH213256   0.514   0.641   0.919 -0.1514 -0.7723 -0.8737
 4417TIP3    H113257   0.496   0.733   0.939  0.8496 -0.8833  0.6869
 4417TIP3    H213258   0.486   0.593   0.997  2.2119 -1.4365 -0.3411
 4418TIP3   OH213259   4.294   2.936   2.418 -0.1653 -0.2258  0.4528
 4418TIP3    H113260   4.272   2.931   2.325 -0.0353 -0.8384  0.4510
 4418TIP3    H213261   4.214   2.967   2.460 -0.5262 -0.8692  0.2519
 4419TIP3   OH213262   3.115   4.829   3.055 -0.7622 -0.1322  0.1007
 4419TIP3    H113263   3.111   4.912   3.101 -0.9708  0.4743 -0.9842
 4419TIP3    H213264   3.068   4.768   3.112  1.0743 -0.0057  1.8680
 4420TIP3   OH213265   0.741   4.746   1.198  0.1242  0.3297 -0.3595
 4420TIP3    H113266   0.714   4.678   1.137  1.9484 -0.3941 -0.4318
 4420TIP3    H213267   0.710   4.828   1.160  1.1360 -0.1115 -2.2380
 4421TIP3   OH213268   5.955   4.228   4.747 -0.0290 -0.0078  0.5444
 4421TIP3    H113269   5.979   4.274   4.666 -0.1603  1.8323  1.4910
 4421TIP3    H213270   5.901   4.291   4.795  0.4173 -0.8713  2.2658
 4422TIP3   OH213271   3.557   3.276   3.698 -0.3589 -0.4528  0.1730
 4422TIP3    H113272   3.642   3.312   3.725 -0.5774 -0.2247  0.5495
 4422TIP3    H213273   3.514   3.252   3.780 -0.2557 -1.4844 -0.0666
 4423TIP3   OH213274   1.594   2.374   2.885  0.4292 -0.1109  0.2806
 4423TIP3    H113275   1.610   2.281   2.869 -1.1285 -0.7640  2.0843
 4423TIP3    H213276   1.540   2.403   2.812 -0.0810 -0.9580  0.3088
 4424TIP3   OH213277   5.194   0.361   1.433  0.1148 -0.3061  0.3361
 4424TIP3    H113278   5.199   0.418   1.510 -2.0167  0.6152 -0.1400
 4424TIP3    H213279   5.118   0.393   1.384  1.5712 -0.6411 -2.3468
 4425TIP3   OH213280   2.632   3.073   1.218  0.0085 -0.3792 -0.2498
 4425TIP3    H113281   2.722   3.044   1.206  0.4933  1.1697 -0.5518
 4425TIP3    H213282   2.580   3.011   1.168  0.9881 -0.8211 -0.7433
 4426TIP3   OH213283   0.733   4.801   2.961  0.0072 -0.6595  0.5832
 4426TIP3    H113284   0.677   4.771   2.890  1.2308  0.4566 -0.9188
 4426TIP3    H213285   0.696   4.761   3.040 -2.1016 -0.9649 -0.5041
 4427TIP3   OH213286   0.904   5.696   3.414  0.8417 -0.3363 -0.0667
 4427TIP3    H113287   0.927   5.632   3.480  1.6592 -0.1083 -0.1298
 4427TIP3    H213288   0.862   5.767   3.462  0.2742 -0.7397  0.0457
 4428TIP3   OH213289   1.606   4.319   3.102  0.1677 -0.3303 -0.0079
 4428TIP3    H113290   1.618   4.412   3.122  0.2585 -0.2477 -0.4444
 4428TIP3    H213291   1.532   4.292   3.157 -0.2550  0.1543 -0.3318
 4429TIP3   OH213292   1.323   1.205   3.271 -0.6448 -0.2120  0.5723
 4429TIP3    H113293   1.410   1.211   3.232 -0.3077 -0.4146  1.2821
 4429TIP3    H213294   1.266   1.251   3.210 -0.5947 -2.6947 -1.5157
 4430TIP3   OH213295   5.404   3.381   2.600  0.1308 -0.0202 -0.0160
 4430TIP3    H113296   5.422   3.288   2.582  0.6816  0.5501 -2.8056
 4430TIP3    H213297   5.344   3.408   2.530 -0.0849  1.7187  0.7898
 4431TIP3   OH213298   3.489   0.222   4.767  0.7392 -0.0573  0.1008
 4431TIP3    H113299   3.575   0.181   4.756  0.5475 -1.0679  1.8489
 4431TIP3    H213300   3.445   0.167   4.832 -1.1995  0.5093 -0.6586
 4432TIP3   OH213301   6.054   5.726   4.381 -0.5255 -0.1695  0.1375
 4432TIP3    H113302   6.060   5.787   4.308 -0.5002 -0.8074 -0.3996
 4432TIP3    H213303   5.962   5.728   4.406 -0.2318  1.4438  1.3244
 4433TIP3   OH213304   4.306   4.828   0.897 -0.4399  0.1228 -0.0819
 4433TIP3    H113305   4.256   4.771   0.956 -0.3373  0.3301  0.2100
 4433TIP3    H213306   4.386   4.779   0.879  0.3687  0.8130  1.4271
 4434TIP3   OH213307   2.014   1.751   1.220 -0.0113 -0.1082  0.2399
 4434TIP3    H113308   1.999   1.664   1.182  0.8752 -0.6534  1.0945
 4434TIP3    H213309   2.096   1.781   1.180  0.3109 -0.1865  0.8236
 4435TIP3   OH213310   3.739   3.458   3.838  0.3170  0.2724 -0.6009
 4435TIP3    H113311   3.765   3.375   3.879 -0.6378 -0.0234 -0.5562
 4435TIP3    H213312   3.813   3.517   3.853  0.7945 -0.4162 -0.1782
 4436TIP3   OH213313   2.203   4.984   4.163  0.1456 -0.1564  0.0858
 4436TIP3    H113314   2.125   5.038   4.176 -0.2771 -0.6846 -0.1963
 4436TIP3    H213315   2.180   4.925   4.091  0.9602 -0.0376 -0.2887
 4437TIP3   OH213316   0.785   4.661   1.458  0.4760 -0.4009  0.1319
 4437TIP3    H113317   0.748   4.722   1.522  2.7241 -0.0629  1.2354
 4437TIP3    H213318   0.752   4.691   1.374 -0.2940  0.9298  0.8816
 4438TIP3   OH213319   1.451   2.797   3.432  0.5087  0.4163 -0.3530
 4438TIP3    H113320   1.459   2.852   3.510  1.2963  1.4851 -1.1511
 4438TIP3    H213321   1.541   2.778   3.407  0.2512 -0.7422 -0.4505
 4439TIP3   OH213322   2.454   1.595   3.380 -0.1519  0.3621  0.1576
 4439TIP3    H113323   2.365   1.594   3.344 -0.2532  0.7037  0.3842
 4439TIP3    H213324   2.511   1.602   3.303 -0.3620  1.0275  0.0541
 4440TIP3   OH213325   4.181   5.348   3.286 -0.6216 -0.3363  0.3231
 4440TIP3    H113326   4.150   5.438   3.284 -2.5406 -0.9592 -1.2854
 4440TIP3    H213327   4.102   5.295   3.274  0.5734 -2.2132  0.3269
 4441TIP3   OH213328   5.284   5.603   4.109  0.2276  0.3607  0.2770
 4441TIP3    H113329   5.242   5.517   4.109 -1.0186  0.9394  1.1319
 4441TIP3    H213330   5.319   5.614   4.197 -0.6723  1.2049  0.5435
 4442TIP3   OH213331   3.114   3.723   3.928 -0.0641 -0.4335  0.5627
 4442TIP3    H113332   3.182   3.684   3.981 -0.1756  0.2965  1.2661
 4442TIP3    H213333   3.132   3.693   3.839  0.7382 -0.8289  0.8517
 4443TIP3   OH213334   1.979   3.553   2.700  0.2337  0.0007  0.2444
 4443TIP3    H113335   2.012   3.624   2.645  0.4913 -0.2824  0.0345
 4443TIP3    H213336   1.970   3.593   2.787  0.5273  0.2481  0.1627
 4444TIP3   OH213337   2.482   0.488   1.998 -0.5192  0.2878  0.7494
 4444TIP3    H113338   2.401   0.510   1.952  0.5231  0.2730 -1.1763
 4444TIP3    H213339   2.535   0.568   1.993 -0.6020  0.5108  2.5559
 4445TIP3   OH213340   3.773   4.468   1.359  0.1661  0.3618  1.0564
 4445TIP3    H113341   3.726   4.540   1.317  0.3865 -1.1207 -1.9660
 4445TIP3    H213342   3.863   4.500   1.367  0.2956  0.4367 -0.3913
 4446TIP3   OH213343   3.623   2.036   1.346  0.0213  0.1397  0.0509
 4446TIP3    H113344   3.635   1.957   1.294 -0.2716 -0.2348  0.5523
 4446TIP3    H213345   3.650   2.012   1.434  0.5158  0.7750  0.0763
 4447TIP3   OH213346   2.813   3.171   4.019 -0.1222  0.0537  0.2212
 4447TIP3    H113347   2.783   3.089   4.060  1.5795 -0.4910  0.4645
 4447TIP3    H213348   2.832   3.228   4.093  2.0936 -0.6171  0.2437
 4448TIP3   OH213349   5.347   1.483   0.492  0.2838 -0.8234 -0.0493
 4448TIP3    H113350   5.409   1.556   0.495 -0.0368 -0.5152 -0.7328
 4448TIP3    H213351   5.399   1.407   0.518  0.5746 -0.3255  0.8574
 4449TIP3   OH213352   2.628   5.027   1.389  0.2868  0.3661  0.2775
 4449TIP3    H113353   2.570   5.004   1.316  0.2307  0.0169  0.4304
 4449TIP3    H213354   2.687   4.952   1.398  1.0300  0.8913 -0.1359
 4450TIP3   OH213355   4.848   3.440   3.331 -0.2133 -0.5838  0.1680
 4450TIP3    H113356   4.776   3.390   3.369 -0.0622 -0.3831  0.7290
 4450TIP3    H213357   4.813   3.528   3.317 -0.2347 -0.6271 -0.0538
 4451TIP3   OH213358   1.661   4.114   0.238  0.6615  0.4051  0.2131
 4451TIP3    H113359   1.709   4.032   0.251  0.8822  0.4288 -0.4424
 4451TIP3    H213360   1.709   4.178   0.290  1.1001  0.3418 -0.1162
 4452TIP3   OH213361   4.793   1.705   3.803  0.5148  0.2603 -0.0642
 4452TIP3    H113362   4.850   1.630   3.823 -1.0311 -0.9506 -0.0848
 4452TIP3    H213363   4.722   1.668   3.751 -0.0922  1.8322 -0.3929
 4453TIP3   OH213364   3.537   1.460   0.663  0.0151  0.0349 -0.6664
 4453TIP3    H113365   3.597   1.534   0.667 -1.1866  1.0321 -0.5727
 4453TIP3    H213366   3.522   1.437   0.755  0.1314 -0.1349 -0.6876
 4454TIP3   OH213367   2.213   2.083   5.158 -0.1952  0.1491  0.5096
 4454TIP3    H113368   2.289   2.032   5.187  0.3950 -0.1266 -1.3728
 4454TIP3    H213369   2.248   2.145   5.094 -1.5751 -0.1618 -0.6027
 4455TIP3   OH213370   2.020   3.572   0.084 -0.0656  0.3794 -0.2111
 4455TIP3    H113371   1.970   3.491   0.087  0.9275 -0.2259  0.8807
 4455TIP3    H213372   1.958   3.637   0.051 -1.3991 -0.4641  0.5396
 4456TIP3   OH213373   3.710   4.765   2.638  0.1998  0.1122  0.0884
 4456TIP3    H113374   3.719   4.672   2.660 -0.7510  0.3489  1.6634
 4456TIP3    H213375   3.729   4.769   2.545  2.7266 -1.2858  0.4325
 4457TIP3   OH213376   4.780   4.862   1.037 -0.1790 -0.3024  0.3205
 4457TIP3    H113377   4.859   4.876   1.089 -1.1362  0.0207  1.7422
 4457TIP3    H213378   4.756   4.948   1.003  1.5975 -0.7849 -2.5272
 4458TIP3   OH213379   4.570   3.348   2.239  0.1400 -0.0019 -0.3551
 4458TIP3    H113380   4.553   3.254   2.240  0.3679 -0.0929 -1.9931
 4458TIP3    H213381   4.580   3.369   2.146 -1.5769  1.9512 -0.1581
 4459TIP3   OH213382   4.458   5.198   0.254 -0.7600  0.0526 -0.1203
 4459TIP3    H113383   4.471   5.122   0.197  0.1989  0.2869 -0.2238
 4459TIP3    H213384   4.366   5.192   0.280 -0.7374 -1.0753 -0.2283
 4460TIP3   OH213385   5.843   2.176   1.372  0.1594  0.0488  0.2113
 4460TIP3    H113386   5.866   2.185   1.280  2.3025  0.2548  0.7271
 4460TIP3    H213387   5.903   2.233   1.418  0.8352 -1.9240  1.9355
 4461TIP3   OH213388   2.995   1.088   0.686 -0.3394  0.2157  0.3258
 4461TIP3    H113389   3.044   1.170   0.672 -1.1078  0.5715 -0.3399
 4461TIP3    H213390   3.053   1.020   0.653 -0.7874  0.7537 -1.6787
 4462TIP3   OH213391   4.983   2.993   1.778 -0.0885 -0.4221 -0.2947
 4462TIP3    H113392   4.914   2.968   1.840  0.1969  0.2974  0.3304
 4462TIP3    H213393   5.055   2.934   1.798 -0.2593 -0.6799 -0.4401
 4463TIP3   OH213394   5.728   1.303   4.824  0.3026 -0.2457  0.8888
 4463TIP3    H113395   5.721   1.223   4.772 -1.5695 -1.3055  2.6199
 4463TIP3    H213396   5.777   1.364   4.769  0.4700 -2.0810 -1.0968
 4464TIP3   OH213397   5.036   2.408   2.627  0.5493  0.8727  0.0884
 4464TIP3    H113398   4.958   2.443   2.583  1.5677  3.4493  0.1605
 4464TIP3    H213399   5.002   2.341   2.686 -1.1061 -1.2491 -2.9766
 4465TIP3   OH213400   2.404   5.394   1.228  0.2003 -0.2936 -0.0444
 4465TIP3    H113401   2.353   5.425   1.153  1.6882 -0.4596 -1.1620
 4465TIP3    H213402   2.367   5.441   1.303  0.3759  1.9099 -1.2548
 4466TIP3   OH213403   0.352   3.247   1.790  0.1733  0.6597 -0.2042
 4466TIP3    H113404   0.344   3.261   1.696  0.0851 -1.0994 -0.4922
 4466TIP3    H213405   0.297   3.171   1.808 -1.3826  2.0961  1.6342
 4467TIP3   OH213406   5.825   4.604   0.254 -0.5215 -0.3477  0.2599
 4467TIP3    H113407   5.796   4.662   0.324  0.8603 -0.5643  1.0474
 4467TIP3    H213408   5.829   4.518   0.295  0.9759 -0.3588  0.1334
 4468TIP3   OH213409   2.055   5.120   2.592 -0.1055  0.0568 -0.0847
 4468TIP3    H113410   1.982   5.103   2.652 -0.1074 -0.0505 -0.1181
 4468TIP3    H213411   2.133   5.099   2.642  0.0028  1.6821  0.5040
 4469TIP3   OH213412   1.791   1.475   3.312 -0.1381  0.5121  0.4236
 4469TIP3    H113413   1.739   1.408   3.357 -0.5008 -0.3884 -1.2627
 4469TIP3    H213414   1.882   1.448   3.324 -0.2416  0.1623  0.4112
 4470TIP3   OH213415   0.635   0.117   0.014  0.0824  0.0029  0.1155
 4470TIP3    H113416   0.704   0.120   0.080  1.8736 -0.8521 -1.6107
 4470TIP3    H213417   0.637   0.204  -0.027  0.4747 -0.1880 -0.2681
 4471TIP3   OH213418   4.352   1.275   2.000 -0.2337  0.2007  0.0387
 4471TIP3    H113419   4.261   1.250   1.985  0.1076 -0.8778 -0.3632
 4471TIP3    H213420   4.358   1.365   1.966 -0.9940  0.0594 -0.5048
 4472TIP3   OH213421   5.250   2.021   1.658  0.3327  0.5006 -0.7558
 4472TIP3    H113422   5.306   1.948   1.684 -1.4768 -0.2472  1.3693
 4472TIP3    H213423   5.271   2.091   1.720 -0.5875  0.4517 -0.3795
 4473TIP3   OH213424   3.881   1.670   1.798  0.3862  0.6743  0.0126
 4473TIP3    H113425   3.800   1.666   1.747  0.3461  0.8173  0.0635
 4473TIP3    H213426   3.866   1.609   1.870  1.3538 -1.3399 -1.4150
 4474TIP3   OH213427   5.013   5.319   0.363 -0.5543 -0.0820  0.0439
 4474TIP3    H113428   4.986   5.379   0.433  1.0671 -0.2658  0.8831
 4474TIP3    H213429   5.022   5.234   0.406 -0.1327 -0.3280 -0.5063
 4475TIP3   OH213430   2.347   4.789   1.362 -0.2360  0.0684  0.1203
 4475TIP3    H113431   2.277   4.761   1.304  1.5615  1.2218 -2.8491
 4475TIP3    H213432   2.415   4.722   1.352  0.7783  1.1501 -0.5296
 4476TIP3   OH213433   3.149   0.615   1.118  0.4502  0.3841 -0.2909
 4476TIP3    H113434   3.085   0.685   1.111  2.2560  2.2510  0.7900
 4476TIP3    H213435   3.132   0.576   1.203 -0.1407 -0.0904 -0.6177
 4477TIP3   OH213436   3.233   3.451   5.122  0.3587 -0.2413 -0.4364
 4477TIP3    H113437   3.294   3.448   5.048  0.7414 -1.4808 -0.0937
 4477TIP3    H213438   3.289   3.459   5.199  0.0449 -0.4024 -0.1890
 4478TIP3   OH213439   5.211   3.542   0.423 -0.3912 -0.0311 -0.0943
 4478TIP3    H113440   5.152   3.478   0.384 -0.3160 -0.5002  0.5435
 4478TIP3    H213441   5.236   3.503   0.507  1.6140 -0.2819 -0.7740
 4479TIP3   OH213442   0.253   5.487   2.484  0.0970 -0.0610  0.1881
 4479TIP3    H113443   0.310   5.418   2.517  1.1558  0.0115 -1.3703
 4479TIP3    H213444   0.218   5.529   2.562  1.3448 -0.8057  1.1806
 4480TIP3   OH213445   1.547   3.092   1.266  0.0265 -0.4565 -0.7068
 4480TIP3    H113446   1.550   3.109   1.360 -3.5762  0.8587 -0.6761
 4480TIP3    H213447   1.523   3.175   1.227 -0.7795 -1.4877 -2.5446
 4481TIP3   OH213448   5.539   4.828   1.638 -0.5551 -0.8594  0.5244
 4481TIP3    H113449   5.553   4.913   1.596  0.9335 -1.8751 -1.1838
 4481TIP3    H213450   5.484   4.779   1.577  0.8244 -2.0196  0.1461
 4482TIP3   OH213451   6.184   3.301   3.142  0.8889  0.2483 -0.1001
 4482TIP3    H113452   6.111   3.362   3.147  1.8245  1.5590 -1.6653
 4482TIP3    H213453   6.144   3.218   3.117 -0.1811  0.6961  0.0769
 4483TIP3   OH213454   6.207   5.783   4.629  0.1654  0.1576 -0.7087
 4483TIP3    H113455   6.168   5.795   4.715  0.8582 -0.5153 -0.2883
 4483TIP3    H213456   6.134   5.789   4.568 -0.7314 -1.8584  0.1108
 4484TIP3   OH213457   1.893   0.930   0.254  0.2667  0.7290 -0.2007
 4484TIP3    H113458   1.963   0.880   0.295 -0.2421  1.0210  1.1064
 4484TIP3    H213459   1.909   1.021   0.282  0.9597  1.2739 -2.2189
 4485TIP3   OH213460   2.744   2.951   4.382  0.0592 -0.5173 -0.1102
 4485TIP3    H113461   2.821   3.003   4.360 -1.0445  0.8772 -0.8089
 4485TIP3    H213462   2.769   2.904   4.462  0.9876  1.3817  0.7798
 4486TIP3   OH213463   0.244   4.875   5.136 -0.0755  0.0858 -0.6730
 4486TIP3    H113464   0.210   4.934   5.068 -1.6143 -0.3197 -0.2818
 4486TIP3    H213465   0.217   4.915   5.219 -0.9293 -1.0182 -0.3951
 4487TIP3   OH213466   3.205   4.028   3.917 -0.1719  0.3851  0.0067
 4487TIP3    H113467   3.210   3.934   3.934  0.3487  0.4855  0.4206
 4487TIP3    H213468   3.286   4.049   3.871  0.6407  0.9717  1.6294
 4488TIP3   OH213469   5.449   4.015   1.686 -0.1984  0.3977  0.8952
 4488TIP3    H113470   5.492   4.091   1.725  0.7426  1.3176 -1.7027
 4488TIP3    H213471   5.507   3.941   1.704  0.0739  0.7422  1.4269
 4489TIP3   OH213472   5.634   5.135   4.413  0.0354 -0.5481 -0.3346
 4489TIP3    H113473   5.590   5.108   4.494  0.6550  0.0769  0.2253
 4489TIP3    H213474   5.568   5.124   4.345 -1.4121  1.4765  0.6277
 4490TIP3   OH213475   0.812   5.895   5.124  0.6289  0.0629 -0.3051
 4490TIP3    H113476   0.833   5.849   5.206  1.2786  2.8901  1.2523
 4490TIP3    H213477   0.823   5.987   5.145  0.0855  0.9595 -3.4401
 4491TIP3   OH213478   2.101   1.574   3.813  0.6780 -0.5362 -0.6649
 4491TIP3    H113479   2.118   1.492   3.860  1.6556 -0.5877 -1.0768
 4491TIP3    H213480   2.024   1.611   3.856 -0.6311 -2.3391 -1.3617
 4492TIP3   OH213481   3.635   0.509   2.937 -0.0440  0.5054 -0.0770
 4492TIP3    H113482   3.547   0.536   2.911 -0.5373 -2.0288 -1.2727
 4492TIP3    H213483   3.622   0.463   3.021  0.1491  0.1941 -0.2179
 4493TIP3   OH213484   0.703   0.895   4.482  0.1134 -0.3418 -0.4451
 4493TIP3    H113485   0.779   0.904   4.425  0.2347  0.3480 -0.1800
 4493TIP3    H213486   0.632   0.872   4.422 -0.0548  1.6439 -1.1098
 4494TIP3   OH213487   3.214   3.095   2.840  0.7675  0.1012  0.9557
 4494TIP3    H113488   3.137   3.052   2.877  1.1160  0.6074  2.3413
 4494TIP3    H213489   3.197   3.097   2.746 -1.1610  0.6705  1.2618
 4495TIP3   OH213490   2.625   2.673   2.460 -0.4931 -0.1121 -0.2964
 4495TIP3    H113491   2.672   2.601   2.500 -0.7191 -0.4564 -0.6381
 4495TIP3    H213492   2.622   2.741   2.527  0.9365  0.1198 -0.4474
 4496TIP3   OH213493   4.351   4.828   2.179  0.4467 -0.9591  0.1088
 4496TIP3    H113494   4.371   4.766   2.249  2.5378  0.2789  0.7009
 4496TIP3    H213495   4.266   4.865   2.204  1.4201 -0.0769  2.4274
 4497TIP3   OH213496   2.678   4.039   2.651  0.0993  0.0549 -0.7227
 4497TIP3    H113497   2.606   4.076   2.702  1.3386  0.5801  0.7265
 4497TIP3    H213498   2.750   4.101   2.663  0.4205  0.2842 -3.2895
 4498TIP3   OH213499   1.770   5.866   1.205  0.0246  0.5506  0.2630
 4498TIP3    H113500   1.800   5.812   1.278  1.1628 -1.5213 -1.6210
 4498TIP3    H213501   1.849   5.909   1.173 -0.2056  0.3552 -0.5852
 4499TIP3   OH213502   1.234   1.008   3.959  0.3311  0.0814  0.4639
 4499TIP3    H113503   1.175   1.078   3.987  0.8752  0.4267  0.7471
 4499TIP3    H213504   1.268   0.971   4.040 -2.6100 -2.8870  0.5719
 4500TIP3   OH213505   2.048   3.707   1.882 -0.0243 -0.3938 -0.6822
 4500TIP3    H113506   2.011   3.721   1.795 -0.6304  0.2485 -0.3293
 4500TIP3    H213507   2.139   3.738   1.874  0.0253 -0.6584 -1.1758
 4501TIP3   OH213508   6.031   5.628   2.065 -0.1393 -0.5793  0.1151
 4501TIP3    H113509   6.101   5.651   2.004 -0.3619 -0.4224 -0.0818
 4501TIP3    H213510   6.044   5.687   2.140 -0.8425  0.3694 -0.4821
 4502TIP3   OH213511   2.781   4.773   0.594 -0.1789 -0.6607  0.3646
 4502TIP3    H113512   2.718   4.836   0.560 -1.2555 -1.5586  0.6290
 4502TIP3    H213513   2.859   4.785   0.540 -1.3032 -0.9617 -1.4063
 4503TIP3   OH213514   2.600   3.625   2.212  0.2048 -0.1073 -0.3628
 4503TIP3    H113515   2.593   3.584   2.126  0.5739  0.8082 -0.8511
 4503TIP3    H213516   2.689   3.606   2.241  0.4429  0.4958 -0.6791
 4504TIP3   OH213517   1.652   1.689   1.830 -0.3890  0.2313 -0.4433
 4504TIP3    H113518   1.698   1.746   1.768 -1.1572  2.0779  0.6023
 4504TIP3    H213519   1.721   1.657   1.888  0.0680 -0.0348 -1.1151
 4505TIP3   OH213520   5.592   3.165   0.452 -0.2523 -0.6339  0.4691
 4505TIP3    H113521   5.508   3.174   0.406  0.9869 -0.9867 -2.0704
 4505TIP3    H213522   5.625   3.254   0.461 -0.1806 -0.6040 -0.0463
 4506TIP3   OH213523   4.799   2.604   4.112  0.4497 -0.4287  0.0420
 4506TIP3    H113524   4.724   2.545   4.114 -0.8063  1.0704 -0.2887
 4506TIP3    H213525   4.861   2.563   4.052 -0.0581 -1.7332  0.3783
 4507TIP3   OH213526   5.366   5.024   3.986  0.2201 -0.4810  0.6483
 4507TIP3    H113527   5.394   5.108   3.950 -0.4381  0.1701  1.6393
 4507TIP3    H213528   5.447   4.972   3.991  0.7462  0.3252  0.6641
 4508TIP3   OH213529   2.625   2.096   2.785  0.2984 -0.2460 -0.0703
 4508TIP3    H113530   2.665   2.074   2.870  0.0092 -0.1698  0.0874
 4508TIP3    H213531   2.667   2.036   2.723 -0.8891 -1.6681  0.4413
 4509TIP3   OH213532   0.805   5.206   0.464 -0.0586 -0.2822 -0.1152
 4509TIP3    H113533   0.781   5.172   0.550  0.3513 -0.3642 -0.0301
 4509TIP3    H213534   0.817   5.128   0.410 -0.8739 -0.2156 -0.4049
 4510TIP3   OH213535   1.639   3.191   3.015 -0.2090  0.1262  0.3359
 4510TIP3    H113536   1.557   3.211   3.060  0.1143  0.4281  0.7958
 4510TIP3    H213537   1.657   3.099   3.036  0.2124  0.4147  1.2641
 4511TIP3   OH213538   4.574   4.312   0.618  0.6902 -0.0125  0.0363
 4511TIP3    H113539   4.641   4.243   0.619  0.4129 -0.2765  0.7030
 4511TIP3    H213540   4.512   4.287   0.687 -0.9692 -0.6436 -1.5795
 4512TIP3   OH213541   4.261   0.333   3.143  0.0998  0.7522  0.5550
 4512TIP3    H113542   4.277   0.422   3.112 -0.3015  0.4784 -0.4867
 4512TIP3    H213543   4.258   0.280   3.063  0.2932 -0.1898  1.1600
 4513TIP3   OH213544   6.176   3.390   2.508  0.0223  0.0471 -0.0043
 4513TIP3    H113545   6.166   3.334   2.431 -0.1459  0.9809 -0.6882
 4513TIP3    H213546   6.221   3.468   2.474  0.1492  0.3677  0.8959
 4514TIP3   OH213547   1.930   3.741   2.930  0.2158 -1.0720  0.1649
 4514TIP3    H113548   1.974   3.818   2.894  1.5386 -1.2447  1.3060
 4514TIP3    H213549   1.848   3.775   2.967  0.1347 -0.4567 -0.5658
 4515TIP3   OH213550   4.851   4.509   3.042  0.6992 -0.1490  0.1016
 4515TIP3    H113551   4.800   4.586   3.065  1.1272  0.0892  0.2587
 4515TIP3    H213552   4.941   4.533   3.062  0.9295 -0.3997 -0.6042
 4516TIP3   OH213553   4.171   2.218   1.952  0.3473 -0.0247  0.4422
 4516TIP3    H113554   4.201   2.274   1.881 -0.9641  0.5754  0.3210
 4516TIP3    H213555   4.080   2.245   1.966  0.3017 -0.7699  1.7224
 4517TIP3   OH213556   5.239   5.269   1.330 -0.5507 -0.1118 -0.7323
 4517TIP3    H113557   5.244   5.355   1.372  0.9276 -0.6692  0.3114
 4517TIP3    H213558   5.237   5.288   1.236  0.6316  1.0664 -0.5499
 4518TIP3   OH213559   1.231   3.760   0.266  0.0185 -0.3526  0.0301
 4518TIP3    H113560   1.188   3.844   0.250 -0.2270 -0.6015 -0.6451
 4518TIP3    H213561   1.323   3.783   0.279  0.2342 -0.1119 -1.7410
 4519TIP3   OH213562   2.500   3.185   3.623  0.1259  0.8184  0.0938
 4519TIP3    H113563   2.578   3.197   3.678 -0.0558  1.0246  0.3143
 4519TIP3    H213564   2.513   3.246   3.550  0.1915  0.8249  0.1108
 4520TIP3   OH213565   4.035   1.463   0.019 -0.2377 -0.6719 -0.3241
 4520TIP3    H113566   4.027   1.373   0.050 -0.4544 -0.1066  1.3763
 4520TIP3    H213567   4.126   1.472  -0.008  0.0436 -1.1455  0.4256
 4521TIP3   OH213568   0.022   4.318   3.061  0.0798 -0.2507 -0.2344
 4521TIP3    H113569  -0.071   4.314   3.037  0.0874  1.5213 -0.7505
 4521TIP3    H213570   0.050   4.405   3.032  1.3619  0.1166  1.8884
 4522TIP3   OH213571   0.797   4.548   2.476  0.3104 -0.4564 -0.5222
 4522TIP3    H113572   0.783   4.595   2.394  0.3129 -1.0793 -0.8843
 4522TIP3    H213573   0.718   4.565   2.527  0.2362 -0.2064 -0.7196
 4523TIP3   OH213574   1.023   3.982   0.299 -0.1645 -0.1920 -0.5261
 4523TIP3    H113575   0.971   3.941   0.230 -0.6610  2.5484 -1.9117
 4523TIP3    H213576   1.057   4.062   0.260  2.0659 -0.0137  1.5206
 4524TIP3   OH213577   2.663   4.574   0.316  0.3973 -0.0391  0.5042
 4524TIP3    H113578   2.689   4.488   0.350 -0.7674 -0.1086  1.2760
 4524TIP3    H213579   2.570   4.581   0.338  0.1960  0.9420 -0.5707
 4525TIP3   OH213580   4.773   2.256   4.894  0.3093  0.1229 -0.2227
 4525TIP3    H113581   4.693   2.289   4.853  0.0653  1.5782  1.2904
 4525TIP3    H213582   4.826   2.335   4.906  0.9221 -0.4655  0.9998
 4526TIP3   OH213583   2.647   1.060   3.375 -0.3654 -0.2508 -0.2795
 4526TIP3    H113584   2.594   1.064   3.295  0.0535  1.3702 -0.5172
 4526TIP3    H213585   2.637   1.147   3.414 -0.0569 -0.8247  1.1121
 4527TIP3   OH213586   4.845   1.516   0.251  0.1797 -0.9412  0.4776
 4527TIP3    H113587   4.836   1.580   0.321 -1.3011  0.0496 -0.5748
 4527TIP3    H213588   4.901   1.559   0.185 -0.1726 -1.0338  0.1140
 4528TIP3   OH213589   2.460   0.672   4.930  0.2099  0.2040 -0.2795
 4528TIP3    H113590   2.400   0.600   4.909  1.5322 -0.4288 -2.1982
 4528TIP3    H213591   2.446   0.736   4.860  1.1782  0.4110 -0.3050
 4529TIP3   OH213592   1.446   1.694   1.618  0.6495 -0.0958  0.0834
 4529TIP3    H113593   1.477   1.735   1.538  0.5609 -1.0952 -0.4793
 4529TIP3    H213594   1.505   1.727   1.686  0.1488  1.4860 -0.2186
 4530TIP3   OH213595   5.969   4.453   0.807  0.0063 -0.0644 -0.2108
 4530TIP3    H113596   6.026   4.438   0.882 -0.7786  0.3069  0.4710
 4530TIP3    H213597   5.880   4.447   0.842 -0.3731 -0.2642 -1.1825
 4531TIP3   OH213598   1.052   2.033   2.582  0.0073  0.2208  0.0294
 4531TIP3    H113599   1.052   1.938   2.576 -0.8508  0.1506  1.0230
 4531TIP3    H213600   1.142   2.055   2.606  0.6367 -0.2018 -1.7314
 4532TIP3   OH213601   4.020   2.519   1.063 -0.7212 -0.1388 -0.3476
 4532TIP3    H113602   3.980   2.437   1.034  0.1264  0.1612 -2.5150
 4532TIP3    H213603   3.992   2.584   0.999  0.9874  0.6317 -0.3719
 4533TIP3   OH213604   2.615   1.718   4.134 -0.1249 -0.1350  0.6363
 4533TIP3    H113605   2.634   1.740   4.043  1.4135 -3.2290  0.0716
 4533TIP3    H213606   2.520   1.712   4.138 -0.4284  2.8277  0.0536
 4534TIP3   OH213607   0.583   3.743   2.721  0.6010 -0.2529  0.4061
 4534TIP3    H113608   0.604   3.724   2.630 -0.7955  0.3096 -0.0582
 4534TIP3    H213609   0.487   3.738   2.725  0.2519  3.7650  0.8681
 4535TIP3   OH213610   3.413   5.381   3.761  0.3298  0.1324 -0.5401
 4535TIP3    H113611   3.390   5.386   3.668 -0.4831 -0.7427 -0.3998
 4535TIP3    H213612   3.385   5.294   3.788 -0.4809  0.7891  0.8109
 4536TIP3   OH213613   3.082   5.221   4.694  1.1553  0.0777 -0.0710
 4536TIP3    H113614   3.151   5.246   4.755  0.3704 -0.7252  1.1749
 4536TIP3    H213615   3.001   5.233   4.743  0.5105 -0.6393 -0.9371
 4537TIP3   OH213616   0.258   1.581   2.344 -0.0169  0.8382  0.0740
 4537TIP3    H113617   0.185   1.619   2.297  0.8639 -0.0925 -2.1824
 4537TIP3    H213618   0.326   1.568   2.278  1.1766 -0.9018  1.5235
 4538TIP3   OH213619   2.383   1.025   1.421 -0.0963 -0.1840 -0.2291
 4538TIP3    H113620   2.454   1.060   1.474  1.0852 -1.1060 -1.1401
 4538TIP3    H213621   2.333   0.969   1.480  0.5876 -0.3879  0.1537
 4539TIP3   OH213622   6.263   0.646   1.935  0.3146 -0.1062 -0.6547
 4539TIP3    H113623   6.357   0.660   1.928  0.5203 -1.3048 -0.4990
 4539TIP3    H213624   6.225   0.705   1.870  1.2454 -0.3726 -1.4647
 4540TIP3   OH213625   5.860   5.024   4.290  0.4064  0.8043  0.0463
 4540TIP3    H113626   5.791   5.065   4.342  0.0117  0.9233 -0.5662
 4540TIP3    H213627   5.940   5.068   4.318 -0.0293  2.1370 -0.7157
 4541TIP3   OH213628   3.383   0.404   2.731 -0.5349 -0.1625 -0.1471
 4541TIP3    H113629   3.382   0.493   2.765  0.1902 -0.1428 -0.1617
 4541TIP3    H213630   3.356   0.349   2.804  0.2653 -0.0446  0.2517
 4542TIP3   OH213631   0.469   0.917   0.854 -0.5277 -0.5932 -0.8151
 4542TIP3    H113632   0.486   0.838   0.802  0.8405 -1.5690  0.9717
 4542TIP3    H213633   0.540   0.976   0.833 -0.1032 -0.8962 -0.2654
 4543TIP3   OH213634   4.646   3.151   1.929  0.0313 -0.1959 -0.1543
 4543TIP3    H113635   4.635   3.107   1.844 -0.4082 -0.7894  0.2032
 4543TIP3    H213636   4.557   3.161   1.962  0.0267  1.8594 -0.6515
 4544TIP3   OH213637   5.046   4.977   0.048  0.2617  0.3406 -0.6758
 4544TIP3    H113638   4.996   4.943  -0.026 -0.8273  0.3236  0.0439
 4544TIP3    H213639   4.987   5.038   0.090  1.7024  2.1613 -1.1621
 4545TIP3   OH213640   2.921   3.569   1.409 -0.6287  0.0085  0.5255
 4545TIP3    H113641   2.924   3.474   1.398  0.2484  0.2200 -1.9098
 4545TIP3    H213642   2.840   3.596   1.365 -0.6215  0.4341  0.7645
 4546TIP3   OH213643   0.354   4.368   4.517 -0.0759  0.3263  0.4114
 4546TIP3    H113644   0.271   4.319   4.516 -0.3552  0.7980 -0.2686
 4546TIP3    H213645   0.336   4.445   4.463 -0.1540  2.0095  2.6987
 4547TIP3   OH213646   0.523   1.108   0.570 -0.1414 -0.3427 -0.3763
 4547TIP3    H113647   0.485   1.156   0.644 -0.5412  1.2090 -1.5256
 4547TIP3    H213648   0.448   1.076   0.521 -0.0175  1.2794 -1.7330
 4548TIP3   OH213649   5.019   1.320   4.744 -0.9806 -0.3074 -0.2509
 4548TIP3    H113650   5.102   1.306   4.788 -1.3679 -1.7455  0.0883
 4548TIP3    H213651   4.994   1.410   4.766  0.1538 -0.0849  0.1721
 4549TIP3   OH213652   2.768   3.626   2.511  0.0957  0.3803 -0.2705
 4549TIP3    H113653   2.703   3.567   2.548 -0.3777  1.6843  1.0685
 4549TIP3    H213654   2.834   3.636   2.580  0.4023  1.0610 -0.6492
 4550TIP3   OH213655   2.554   0.136   2.689 -0.4926 -0.4867  0.0881
 4550TIP3    H113656   2.610   0.086   2.748  0.8533  0.2645 -0.5135
 4550TIP3    H213657   2.517   0.070   2.630  0.4906 -0.8970 -0.0837
 4551TIP3   OH213658   1.775   2.985   4.099 -0.2354 -0.4918  0.0723
 4551TIP3    H113659   1.800   2.914   4.040 -0.4865 -0.2085 -0.3781
 4551TIP3    H213660   1.768   2.943   4.185  0.8272 -0.7649  0.0323
 4552TIP3   OH213661   5.220   5.002   4.964  0.6560  0.3493 -0.2666
 4552TIP3    H113662   5.180   5.089   4.968  0.4876  0.2493  0.1955
 4552TIP3    H213663   5.178   4.960   4.889  0.5780  0.5835 -0.3548
 4553TIP3   OH213664   4.666   2.840   0.470 -0.4447 -0.9235  0.4032
 4553TIP3    H113665   4.647   2.913   0.411  1.6469 -0.7148 -0.1015
 4553TIP3    H213666   4.748   2.864   0.512  0.5507 -3.1540 -0.1193
 4554TIP3   OH213667   5.771   5.454   3.407  1.1694  0.0435 -0.1686
 4554TIP3    H113668   5.742   5.489   3.491 -1.2109 -0.4384 -0.7367
 4554TIP3    H213669   5.819   5.527   3.367 -3.1674  2.7488 -1.1049
 4555TIP3   OH213670   0.484   2.837   2.421 -0.0248 -0.2573  0.2598
 4555TIP3    H113671   0.501   2.743   2.428  0.5795 -0.1921 -0.2403
 4555TIP3    H213672   0.454   2.849   2.331 -1.3113 -0.1411  0.6779
 4556TIP3   OH213673   4.412   2.683   1.642 -0.2184 -0.0001  0.2751
 4556TIP3    H113674   4.399   2.588   1.642 -1.1043  0.0957  1.5433
 4556TIP3    H213675   4.507   2.694   1.651  0.0125 -0.7454 -1.0111
 4557TIP3   OH213676   6.248   1.787   5.049 -0.3754 -0.1443  0.0318
 4557TIP3    H113677   6.223   1.807   4.959 -1.1812  1.4734  0.5760
 4557TIP3    H213678   6.343   1.780   5.046 -0.4251 -0.6009 -1.0159
 4558TIP3   OH213679   1.369   4.373   3.508  0.0872 -0.4665 -0.5822
 4558TIP3    H113680   1.360   4.369   3.413 -1.4498  1.2571 -0.5684
 4558TIP3    H213681   1.295   4.322   3.541  0.0231 -0.2075 -0.3250
 4559TIP3   OH213682   0.719   3.428   2.660 -0.1546 -0.6329 -0.3933
 4559TIP3    H113683   0.812   3.451   2.657 -0.4174  0.6608  0.3500
 4559TIP3    H213684   0.675   3.512   2.673 -1.3591 -1.3448  0.2479
 4560TIP3   OH213685   1.100   5.938   2.811  0.9567  0.3512  0.4638
 4560TIP3    H113686   1.055   5.859   2.780 -0.5203  0.0565  3.0488
 4560TIP3    H213687   1.179   5.943   2.757  1.1602 -2.9694  0.2287
 4561TIP3   OH213688   6.017   3.221   2.881 -0.1857 -0.1089 -0.4004
 4561TIP3    H113689   5.933   3.234   2.837 -0.1548 -2.8887 -1.4492
 4561TIP3    H213690   6.080   3.209   2.809  0.3679 -1.8891  0.3238
 4562TIP3   OH213691   2.067   1.716   3.271  0.6434 -0.0968  0.4894
 4562TIP3    H113692   2.030   1.745   3.354 -0.7441  0.4893 -0.3044
 4562TIP3    H213693   2.100   1.628   3.289 -0.7137 -0.4549  1.3694
 4563TIP3   OH213694   3.267   1.584   4.460 -0.0372  0.3392  0.1156
 4563TIP3    H113695   3.295   1.531   4.385 -1.2580 -2.6580  1.5656
 4563TIP3    H213696   3.338   1.646   4.474 -0.2696  1.9058 -4.1484
 4564TIP3   OH213697   5.952   3.523   0.787 -0.3808  0.1593 -0.1501
 4564TIP3    H113698   6.034   3.532   0.739  0.0820 -0.4902  0.4983
 4564TIP3    H213699   5.942   3.607   0.832 -0.2318  0.3544 -0.4797
 4565TIP3   OH213700   2.058   4.901   2.394  0.9990 -0.1851  0.5730
 4565TIP3    H113701   2.067   4.823   2.449  0.0950 -0.3661  0.4813
 4565TIP3    H213702   2.066   4.974   2.455  1.4776 -0.3560  0.7177
 4566TIP3   OH213703   3.944   4.935   1.935  0.0048 -0.4213  0.0862
 4566TIP3    H113704   3.969   4.863   1.876  0.5264  0.2702 -0.5535
 4566TIP3    H213705   3.851   4.947   1.919  0.2298  0.0693 -0.9704
 4567TIP3   OH213706   6.347   0.496   1.585  0.3631  0.2322  0.5785
 4567TIP3    H113707   6.303   0.474   1.667 -0.9373 -2.6189 -0.7498
 4567TIP3    H213708   6.280   0.541   1.534  0.2100 -0.6361  0.0019
 4568TIP3   OH213709   5.659   5.317   0.882 -0.2140  0.0242  0.3786
 4568TIP3    H113710   5.671   5.327   0.977  2.1790  0.5817  0.0713
 4568TIP3    H213711   5.671   5.224   0.866  0.0708  0.0316  0.5446
 4569TIP3   OH213712   1.717   4.457   1.352  0.0150  0.1888  0.1521
 4569TIP3    H113713   1.682   4.444   1.440  2.1348 -0.2720  0.9817
 4569TIP3    H213714   1.803   4.415   1.354 -1.2072 -2.9860 -3.2032
 4570TIP3   OH213715   3.432   5.142   4.222 -0.1965 -0.1250  0.3235
 4570TIP3    H113716   3.523   5.149   4.252 -0.2089 -1.1147  0.6297
 4570TIP3    H213717   3.439   5.103   4.135 -0.3757 -1.5251  0.9077
 4571TIP3   OH213718   5.815   2.224   2.665 -0.0470  0.4644 -0.5261
 4571TIP3    H113719   5.868   2.272   2.602 -0.7395 -0.4347 -1.8415
 4571TIP3    H213720   5.873   2.207   2.739  1.1134  0.5781 -1.3964
 4572TIP3   OH213721   6.069   2.030   4.156  0.1264  0.2099 -0.1595
 4572TIP3    H113722   5.980   2.066   4.156  0.2527  0.5464 -1.1320
 4572TIP3    H213723   6.067   1.959   4.092  0.0905 -1.0398  1.1717
 4573TIP3   OH213724   0.036   1.637   1.330  0.0872  0.8351 -0.7028
 4573TIP3    H113725  -0.020   1.567   1.298 -0.6854  2.0716 -2.1987
 4573TIP3    H213726   0.125   1.604   1.318 -0.2388  0.4454 -2.2603
 4574TIP3   OH213727   1.243   0.587   2.247 -0.5848 -0.0011  0.2250
 4574TIP3    H113728   1.260   0.680   2.260 -1.1118  0.0518  0.5462
 4574TIP3    H213729   1.187   0.562   2.320 -0.2937 -0.6173  0.2428
 4575TIP3   OH213730   3.774   0.950   1.280  0.2897 -0.1639  0.3840
 4575TIP3    H113731   3.683   0.974   1.268  0.5604  0.7048  0.0072
 4575TIP3    H213732   3.803   0.922   1.193  0.4315 -0.2850  0.4683
 4576TIP3   OH213733   1.527   0.622   3.137  0.0091 -0.2304 -0.2925
 4576TIP3    H113734   1.592   0.612   3.067 -0.2499 -0.2432 -0.5332
 4576TIP3    H213735   1.443   0.628   3.091 -0.1455 -0.0616  0.0094
 4577TIP3   OH213736   1.899   4.044   1.108  0.0410  0.0355  0.0660
 4577TIP3    H113737   1.980   4.057   1.158 -0.1168  3.2153 -0.2579
 4577TIP3    H213738   1.833   4.027   1.175  0.8918 -2.7030  0.3305
 4578TIP3   OH213739   2.265   4.810   0.125  0.4559  0.3491 -0.5635
 4578TIP3    H113740   2.214   4.881   0.165  0.7788  1.2194 -1.6420
 4578TIP3    H213741   2.202   4.738   0.115 -0.2962  1.0410 -0.9127
 4579TIP3   OH213742   3.214   4.132   2.486 -0.2773  0.2586 -0.5103
 4579TIP3    H113743   3.162   4.126   2.406 -1.1414  0.8095 -0.0138
 4579TIP3    H213744   3.153   4.169   2.551  1.2734  2.8010 -0.3839
 4580TIP3   OH213745   1.207   1.688   4.797  0.6121 -0.5451 -0.1265
 4580TIP3    H113746   1.227   1.715   4.887  0.8765  0.4195 -0.4583
 4580TIP3    H213747   1.292   1.662   4.761  0.3321 -2.0701  0.2468
 4581TIP3   OH213748   5.211   5.201   4.315  0.3706 -0.3043 -0.2469
 4581TIP3    H113749   5.155   5.270   4.350 -2.0193 -1.3627 -1.6987
 4581TIP3    H213750   5.253   5.162   4.392 -1.7473 -0.1246  1.0697
 4582TIP3   OH213751   0.029   4.559   2.952  0.3752  0.2142 -0.1787
 4582TIP3    H113752  -0.018   4.610   2.886  0.2284  1.7355  1.0351
 4582TIP3    H213753   0.121   4.578   2.936  0.3953 -0.1480 -0.5060
 4583TIP3   OH213754   1.984   5.891   1.596  0.2375  0.0964  0.2188
 4583TIP3    H113755   1.904   5.907   1.647  0.5153  0.7441  0.4641
 4583TIP3    H213756   2.032   5.973   1.601  0.9756 -0.3280  0.1548
 4584TIP3   OH213757   3.215   1.271   5.071 -0.5792  0.3308 -1.1403
 4584TIP3    H113758   3.150   1.243   5.006  0.3600  0.3663 -2.1218
 4584TIP3    H213759   3.247   1.355   5.038 -1.6443  1.4408  0.5298
 4585TIP3   OH213760   5.258   0.859   1.924 -0.6449 -0.0039 -0.2079
 4585TIP3    H113761   5.162   0.867   1.925 -0.7334 -0.8067  1.7157
 4585TIP3    H213762   5.275   0.785   1.866 -1.1842  0.0766 -0.4797
 4586TIP3   OH213763   3.866   0.831   3.866 -0.1800  0.4997 -0.8044
 4586TIP3    H113764   3.844   0.923   3.883  0.6700  0.5011  0.4039
 4586TIP3    H213765   3.960   0.826   3.883  0.0668 -0.3001 -2.2408
 4587TIP3   OH213766   1.563   3.359   1.522 -0.2258 -0.0063 -0.4884
 4587TIP3    H113767   1.540   3.400   1.605 -0.6944 -0.5579 -0.3364
 4587TIP3    H213768   1.556   3.265   1.538 -0.2564 -0.1236 -1.1301
 4588TIP3   OH213769   2.742   3.368   1.233 -0.1330 -0.5235 -0.0605
 4588TIP3    H113770   2.710   3.279   1.215 -0.6690 -0.2996 -0.2385
 4588TIP3    H213771   2.828   3.371   1.191 -1.0002 -0.2898 -1.9172
 4589TIP3   OH213772   5.714   2.390   0.778  0.2851  0.0124  0.2340
 4589TIP3    H113773   5.784   2.367   0.840 -0.1621  1.0977  1.1778
 4589TIP3    H213774   5.701   2.484   0.790  1.5132  0.7086 -2.9221
 4590TIP3   OH213775   4.603   1.597   3.621 -0.1153  0.4141 -0.3761
 4590TIP3    H113776   4.533   1.646   3.664  1.0428  1.9798 -0.1708
 4590TIP3    H213777   4.559   1.546   3.553 -1.9028 -1.4657  2.0130
 4591TIP3   OH213778   3.661   3.238   4.742 -0.5555  0.2344 -0.3014
 4591TIP3    H113779   3.567   3.222   4.750 -0.0450 -3.3762  0.2766
 4591TIP3    H213780   3.698   3.201   4.822  1.4963 -0.2578 -1.4112
 4592TIP3   OH213781   3.338   5.166   0.741  0.0808  0.1037  0.0882
 4592TIP3    H113782   3.346   5.259   0.724 -2.3076  0.3128 -0.2674
 4592TIP3    H213783   3.357   5.124   0.657 -1.7443  0.5116 -0.5808
 4593TIP3   OH213784   5.986   4.787   2.989  0.0203  0.3662  0.5129
 4593TIP3    H113785   5.919   4.768   2.923 -0.4268  0.5610  0.9073
 4593TIP3    H213786   6.010   4.701   3.025  1.8976 -0.0215 -1.4389
 4594TIP3   OH213787   1.532   4.042   2.581 -0.6067  0.4868 -0.4118
 4594TIP3    H113788   1.590   4.021   2.654 -1.9689 -0.7457  0.3604
 4594TIP3    H213789   1.587   4.034   2.503  0.7145  1.2414  0.4157
 4595TIP3   OH213790   4.611   0.861   0.990  0.4388  0.5550  0.6061
 4595TIP3    H113791   4.645   0.913   1.063  3.1909  1.0809 -0.9312
 4595TIP3    H213792   4.531   0.906   0.964  1.0277  2.1371  1.3759
 4596TIP3   OH213793   5.684   0.290   2.191  0.6314 -0.4059 -0.0710
 4596TIP3    H113794   5.751   0.352   2.222  0.9702 -0.3122 -0.9566
 4596TIP3    H213795   5.601   0.330   2.217  0.7619  1.2206 -1.9495
 4597TIP3   OH213796   4.334   5.551   1.518  1.0046  0.0878 -0.6274
 4597TIP3    H113797   4.332   5.456   1.525 -0.4707  0.2300  2.4399
 4597TIP3    H213798   4.412   5.578   1.566  1.4351  0.4522 -1.5075
 4598TIP3   OH213799   0.931   0.401   1.111  0.3635 -0.2756  0.0464
 4598TIP3    H113800   0.893   0.449   1.038 -0.3242  1.9513  1.7266
 4598TIP3    H213801   0.857   0.379   1.167  1.0860  0.7073  1.4739
 4599TIP3   OH213802   5.734   1.073   2.265 -0.1514  0.2321 -0.6258
 4599TIP3    H113803   5.796   1.044   2.332 -0.6898  1.7130  0.5823
 4599TIP3    H213804   5.758   1.023   2.187  0.2794 -1.8193  0.7299
 4600TIP3   OH213805   3.011   4.167   0.107 -0.7194 -0.3707 -0.9422
 4600TIP3    H113806   3.098   4.209   0.106 -0.5588 -0.7083 -1.2319
 4600TIP3    H213807   2.950   4.241   0.107 -0.4545 -0.0685  1.2431
 4601TIP3   OH213808   0.932   1.647   4.838 -0.3521 -0.0553 -0.0823
 4601TIP3    H113809   1.025   1.638   4.816 -0.1637 -3.6890  1.4125
 4601TIP3    H213810   0.889   1.668   4.756  1.6409  0.2537 -1.0980
 4602TIP3   OH213811   3.142   2.438   1.193  0.4469  0.2873 -0.1147
 4602TIP3    H113812   3.127   2.348   1.222 -1.3351  0.8441  0.8229
 4602TIP3    H213813   3.058   2.465   1.155  1.4702  0.9993 -2.0315
 4603TIP3   OH213814   5.318   0.337   3.618 -0.0499  0.3608 -0.5063
 4603TIP3    H113815   5.258   0.277   3.575  0.4886 -1.7471  1.5524
 4603TIP3    H213816   5.400   0.289   3.624  0.7210  1.7073  0.2925
 4604TIP3   OH213817   0.787   0.700   3.035 -0.1828 -0.4778  0.7223
 4604TIP3    H113818   0.700   0.668   3.014 -0.6531  1.2323 -0.0576
 4604TIP3    H213819   0.830   0.712   2.951 -0.4834  2.0863  0.8563
 4605TIP3   OH213820   3.117   1.573   0.248 -0.0286 -0.0699  0.0800
 4605TIP3    H113821   3.173   1.498   0.271 -0.0320  0.4724  2.1065
 4605TIP3    H213822   3.036   1.558   0.296  0.0003  1.2495  0.5826
 4606TIP3   OH213823   2.119   2.705   4.957  0.0039 -0.1318  0.0374
 4606TIP3    H113824   2.209   2.730   4.939 -0.9518  1.4138 -3.1896
 4606TIP3    H213825   2.103   2.629   4.901 -1.5760  1.6577 -2.1122
 4607TIP3   OH213826   2.757   0.356   1.521 -0.2568 -0.3662 -0.1599
 4607TIP3    H113827   2.810   0.414   1.466 -2.1051  1.2450 -0.3658
 4607TIP3    H213828   2.678   0.340   1.469 -0.6905 -1.3681  0.7727
 4608TIP3   OH213829   5.112   4.846   4.727 -0.4050 -0.1566  0.2231
 4608TIP3    H113830   5.025   4.869   4.693  0.2057 -0.3929 -1.6302
 4608TIP3    H213831   5.123   4.754   4.702  0.8344  0.2008 -0.6067
 4609TIP3   OH213832   1.185   1.816   1.656 -0.2271  1.0371 -0.5629
 4609TIP3    H113833   1.279   1.796   1.658  0.0692  2.2952 -0.4751
 4609TIP3    H213834   1.169   1.860   1.740 -1.6194 -1.9648  0.8596
 4610TIP3   OH213835   1.139   2.226   3.553 -0.5893 -0.4033 -0.1660
 4610TIP3    H113836   1.195   2.302   3.569 -0.0512 -0.9100  0.4019
 4610TIP3    H213837   1.056   2.264   3.523  0.1225  0.3507 -1.3028
 4611TIP3   OH213838   0.017   4.690   3.819  0.1832  0.9234  0.3022
 4611TIP3    H113839   0.077   4.705   3.745  0.0322  0.6511  0.1202
 4611TIP3    H213840  -0.032   4.612   3.794  2.1833 -0.9970  1.9796
 4612TIP3   OH213841   2.027   1.335   1.752  0.3079 -0.0226 -0.1307
 4612TIP3    H113842   2.061   1.414   1.710 -1.5922  0.9362  0.0361
 4612TIP3    H213843   1.934   1.335   1.731  0.2074 -2.1034  0.0945
 4613TIP3   OH213844   3.252   0.472   1.781 -0.2669 -0.2236  0.0362
 4613TIP3    H113845   3.225   0.389   1.820 -0.1977 -1.4234 -2.2499
 4613TIP3    H213846   3.312   0.446   1.711  0.0953  1.8008 -0.4494
 4614TIP3   OH213847   5.064   1.571   0.084  0.4949 -0.1946  0.0772
 4614TIP3    H113848   5.045   1.479   0.100  2.3163 -1.0420 -2.1367
 4614TIP3    H213849   5.146   1.587   0.131  1.2726 -0.3378 -1.1612
 4615TIP3   OH213850   3.924   4.172   2.663  0.0513  0.2471 -0.3631
 4615TIP3    H113851   3.855   4.164   2.729  0.2357  0.0272 -0.1963
 4615TIP3    H213852   3.893   4.121   2.589 -0.5806  1.2312 -0.8077
 4616TIP3   OH213853   2.316   5.891   2.073  0.5487 -0.4634 -0.1170
 4616TIP3    H113854   2.386   5.905   2.010 -1.0419  1.9193 -1.4866
 4616TIP3    H213855   2.360   5.894   2.158  2.2314 -0.0331 -0.9569
 4617TIP3   OH213856   3.798   3.058   2.655 -0.4313  0.0466 -0.3081
 4617TIP3    H113857   3.799   3.154   2.656  1.9501  0.1327 -1.9704
 4617TIP3    H213858   3.847   3.033   2.734  1.5095  0.3518 -1.3515
 4618TIP3   OH213859   1.835   1.581   3.952 -0.1451  0.2382  0.5402
 4618TIP3    H113860   1.812   1.610   3.863  0.9736  0.9084  0.4401
 4618TIP3    H213861   1.777   1.508   3.969 -0.4867  0.1882 -0.7019
 4619TIP3   OH213862   0.516   1.313   0.004 -0.1172  0.2499 -0.4329
 4619TIP3    H113863   0.516   1.337   0.097 -1.5858 -1.1798 -0.0013
 4619TIP3    H213864   0.480   1.224   0.003 -0.6335  0.4399 -2.4122
 4620TIP3   OH213865   2.806   4.586   2.707  0.3912 -0.5310  0.7219
 4620TIP3    H113866   2.880   4.541   2.746  0.3360  0.6794  2.3026
 4620TIP3    H213867   2.813   4.677   2.737 -2.2082 -0.5541  1.6774
 4621TIP3   OH213868   4.846   0.713   5.144 -0.4754 -0.0309 -0.4033
 4621TIP3    H113869   4.902   0.665   5.206  0.7780  1.7076 -0.1204
 4621TIP3    H213870   4.797   0.644   5.099  0.4692 -1.5114  0.6967
 4622TIP3   OH213871   4.381   2.032   2.844 -0.1935  0.4685  0.1830
 4622TIP3    H113872   4.358   2.074   2.761 -0.6261  1.0976  0.6123
 4622TIP3    H213873   4.328   2.077   2.909 -0.0533 -0.2009  0.7695
 4623TIP3   OH213874   4.170   2.397   2.705 -0.3521 -0.0671  0.5223
 4623TIP3    H113875   4.125   2.332   2.650 -0.6307 -1.9800  2.8756
 4623TIP3    H213876   4.138   2.381   2.793 -0.4526  3.3797  1.2725
 4624TIP3   OH213877   0.155   0.167   3.851  0.2617 -0.1025 -0.2422
 4624TIP3    H113878   0.192   0.084   3.879 -1.1693 -0.8122 -0.3608
 4624TIP3    H213879   0.217   0.233   3.882  2.1713 -1.2740 -1.4040
 4625TIP3   OH213880   3.543   2.354   1.501  0.0679  0.4598 -0.2717
 4625TIP3    H113881   3.636   2.378   1.499 -0.1168  1.3317  0.7079
 4625TIP3    H213882   3.503   2.408   1.433  0.1176  0.8647  0.0155
 4626TIP3   OH213883   3.354   1.073   2.578 -0.5877 -0.1148 -0.0848
 4626TIP3    H113884   3.380   1.016   2.506  1.4867  1.6016 -0.8293
 4626TIP3    H213885   3.433   1.081   2.632 -1.8426 -0.6724  1.9711
 4627TIP3   OH213886   4.220   1.977   4.320 -0.2397 -0.5748  0.0131
 4627TIP3    H113887   4.140   2.020   4.351 -0.3319 -0.6174 -0.1660
 4627TIP3    H213888   4.188   1.901   4.271 -0.0789 -0.8108  0.2733
 4628TIP3   OH213889   5.250   2.269   3.634  0.3843  0.3196 -0.2300
 4628TIP3    H113890   5.256   2.279   3.539 -0.5741 -0.3440 -0.3810
 4628TIP3    H213891   5.298   2.189   3.653 -1.5325 -0.9541 -0.5061
 4629TIP3   OH213892   2.247   3.758   2.105  0.1720  0.4492  0.5820
 4629TIP3    H113893   2.328   3.789   2.145 -0.4386  0.2064  2.0461
 4629TIP3    H213894   2.271   3.676   2.062  0.6221  0.2055  1.2944
 4630TIP3   OH213895   6.149   1.126   2.005  0.4598  0.2082 -0.0234
 4630TIP3    H113896   6.072   1.083   1.968 -1.1220  3.1362 -0.4659
 4630TIP3    H213897   6.221   1.065   1.988 -1.6693 -2.5650  0.2246
 4631TIP3   OH213898   0.107   1.511   3.222  0.2346  0.1054  0.3540
 4631TIP3    H113899   0.142   1.426   3.195 -0.7758  0.2484 -1.5787
 4631TIP3    H213900   0.185   1.562   3.245  0.9551 -0.8976  0.2447
 4632TIP3   OH213901   4.938   2.236   4.607 -0.4174 -0.1372 -0.1012
 4632TIP3    H113902   4.876   2.250   4.535 -0.9011  0.3276  0.3972
 4632TIP3    H213903   4.885   2.197   4.677  0.5203 -2.8593 -0.7983
 4633TIP3   OH213904   5.743   3.965   3.197  0.1019  0.0351 -0.3296
 4633TIP3    H113905   5.727   3.932   3.286 -0.0263  0.0004 -0.3652
 4633TIP3    H213906   5.709   4.054   3.199 -3.1135 -1.0414 -1.3135
 4634TIP3   OH213907   0.733   1.219   2.366 -0.4895  0.2756 -0.5442
 4634TIP3    H113908   0.724   1.286   2.434  0.2645  0.1148 -0.2672
 4634TIP3    H213909   0.697   1.140   2.405  3.2946 -0.8329  1.2591
 4635TIP3   OH213910   5.563   3.008   3.832 -0.2826  0.4011  0.4397
 4635TIP3    H113911   5.473   3.035   3.813 -0.4128 -0.7432 -0.7959
 4635TIP3    H213912   5.554   2.921   3.871  0.2513  0.8023  1.4963
 4636TIP3   OH213913   5.984   0.337   3.187  0.5603 -0.2289  0.0688
 4636TIP3    H113914   5.950   0.289   3.263  0.1275  0.9353  0.6302
 4636TIP3    H213915   5.911   0.338   3.125  0.4540 -0.0014  0.1973
 4637TIP3   OH213916   0.091   0.817   1.392  0.2666  0.5394 -0.0386
 4637TIP3    H113917   0.040   0.867   1.329 -0.3339  0.8715  0.6996
 4637TIP3    H213918   0.182   0.840   1.374  0.2337 -0.4482 -1.7106
 4638TIP3   OH213919   5.989   5.352   2.988  0.2631 -0.2146  0.0635
 4638TIP3    H113920   5.927   5.312   3.049 -0.2757  2.8192  1.7211
 4638TIP3    H213921   5.938   5.370   2.909 -0.5326  0.6392  0.7491
 4639TIP3   OH213922   1.768   2.353   2.493 -0.2931  0.0070 -0.2620
 4639TIP3    H113923   1.803   2.317   2.575 -0.2181  1.1306  0.2223
 4639TIP3    H213924   1.677   2.322   2.491 -0.4482  0.3628  0.5108
 4640TIP3   OH213925   3.878   0.759   2.134 -0.3545  0.4534 -0.4099
 4640TIP3    H113926   3.869   0.854   2.144 -0.4157  0.5232 -1.0631
 4640TIP3    H213927   3.887   0.746   2.040  1.4121 -0.0493 -0.2127
 4641TIP3   OH213928   1.935   5.782   3.864  0.0500 -0.0136  0.8706
 4641TIP3    H113929   1.987   5.834   3.926  0.4227  0.7440 -0.0570
 4641TIP3    H213930   1.893   5.847   3.808 -0.1832 -0.6902  0.2446
 4642TIP3   OH213931   3.976   4.338   1.959  0.0582 -0.1062 -0.0626
 4642TIP3    H113932   3.936   4.357   1.874  1.0580 -0.8474 -0.7218
 4642TIP3    H213933   4.068   4.321   1.939 -0.0557 -2.2185  0.8988
 4643TIP3   OH213934   5.330   3.426   3.309  0.1150 -0.7590 -0.4922
 4643TIP3    H113935   5.338   3.517   3.338 -1.6497 -0.8565  0.4978
 4643TIP3    H213936   5.377   3.375   3.375 -0.4433 -0.6836 -0.0296
 4644TIP3   OH213937   4.708   5.939   0.400  0.2737 -0.1896 -0.3853
 4644TIP3    H113938   4.673   5.863   0.446 -0.5480  0.7375  0.5740
 4644TIP3    H213939   4.735   5.999   0.470 -1.7198  1.5861 -1.0429
 4645TIP3   OH213940   2.285   3.036   2.999 -0.1868 -0.5092 -0.7273
 4645TIP3    H113941   2.323   3.091   2.930  0.0308  1.1518  0.6582
 4645TIP3    H213942   2.220   3.092   3.041 -0.5720 -1.6159  0.2073
 4646TIP3   OH213943   0.081   1.065   2.835  0.0808 -0.4937 -0.4278
 4646TIP3    H113944   0.126   1.149   2.828 -0.8368 -0.0574 -1.4375
 4646TIP3    H213945   0.146   1.006   2.872  0.1820  1.0738  2.0788
 4647TIP3   OH213946   2.784   2.501   4.984 -0.8621  0.5174  0.3537
 4647TIP3    H113947   2.865   2.449   4.982 -0.3442  1.3173 -0.1957
 4647TIP3    H213948   2.718   2.441   5.017 -0.6686 -1.0341 -1.8484
 4648TIP3   OH213949   5.565   3.593   2.729 -0.2371 -0.5424  0.1541
 4648TIP3    H113950   5.516   3.518   2.696  0.1030 -1.2182  1.1440
 4648TIP3    H213951   5.506   3.632   2.794  0.4277 -1.2555  1.2232
 4649TIP3   OH213952   4.256   4.810   1.561 -0.0418  0.4430  0.1373
 4649TIP3    H113953   4.327   4.775   1.615 -0.3344  0.2059  0.3760
 4649TIP3    H213954   4.207   4.867   1.621  0.3821  1.2057 -0.2238
 4650TIP3   OH213955   0.382   3.613   3.812 -0.5186  0.4633  0.0549
 4650TIP3    H113956   0.350   3.701   3.793 -0.2684  0.7817  1.0217
 4650TIP3    H213957   0.475   3.624   3.830 -0.5111  0.0327  0.3152
 4651TIP3   OH213958   4.955   2.650   1.646  0.0838 -0.0222 -0.8042
 4651TIP3    H113959   4.878   2.643   1.703  0.0580 -0.3273 -0.8743
 4651TIP3    H213960   5.023   2.688   1.702  0.2905 -1.0522 -0.3404
 4652TIP3   OH213961   1.331   0.974   5.157 -0.1582 -0.1170 -0.1692
 4652TIP3    H113962   1.288   0.966   5.241 -1.2890  0.6784 -0.6524
 4652TIP3    H213963   1.300   0.900   5.106  0.4334 -0.5315  0.0640
 4653TIP3   OH213964   2.082   2.653   0.261 -0.0825 -0.1805  0.5534
 4653TIP3    H113965   2.046   2.633   0.348  1.5166 -0.5057  1.1821
 4653TIP3    H213966   2.135   2.576   0.239  0.9287  0.6304  0.0859
 4654TIP3   OH213967   2.260   2.012   4.181 -0.0536 -0.7780 -0.1342
 4654TIP3    H113968   2.184   2.062   4.151  0.7636  1.7034  1.5801
 4654TIP3    H213969   2.328   2.029   4.115 -0.0194 -0.2296  0.0351
 4655TIP3   OH213970   0.163   3.698   1.418 -0.3138 -0.6090 -0.1754
 4655TIP3    H113971   0.165   3.675   1.511 -0.1152 -2.0684 -0.5071
 4655TIP3    H213972   0.167   3.793   1.416  1.0810 -0.6051  1.2689
 4656TIP3   OH213973   5.031   4.499   4.902 -0.6781  0.0716 -0.4595
 4656TIP3    H113974   5.062   4.582   4.940  0.4464  0.7769 -2.6932
 4656TIP3    H213975   4.946   4.520   4.864 -0.8834 -0.0971 -0.0981
 4657TIP3   OH213976   5.248   3.962   2.421  0.1101 -0.0860 -0.3807
 4657TIP3    H113977   5.320   3.944   2.481 -1.1276  0.4103  1.3331
 4657TIP3    H213978   5.264   4.052   2.391 -1.5949  1.4724  2.8629
 4658TIP3   OH213979   1.192   3.796   1.624  0.3409  0.3385  0.4184
 4658TIP3    H113980   1.176   3.702   1.627 -0.5216  0.3703 -1.4130
 4658TIP3    H213981   1.105   3.835   1.637  0.5650  0.8556  0.3771
 4659TIP3   OH213982   0.464   4.618   1.788  0.2177 -0.0749  0.7871
 4659TIP3    H113983   0.486   4.699   1.835  1.2130  1.0815 -1.4855
 4659TIP3    H213984   0.369   4.620   1.779  0.1344  0.2773  1.7073
 4660TIP3   OH213985   0.966   2.765   4.666  0.3481  0.2099 -0.0355
 4660TIP3    H113986   0.952   2.721   4.749 -0.2816 -0.0857 -0.2955
 4660TIP3    H213987   0.898   2.731   4.608  1.2934 -0.2356 -0.9337
 4661TIP3   OH213988   4.666   0.517   3.318  0.2096  0.1421  0.2323
 4661TIP3    H113989   4.589   0.569   3.340  0.1493  1.3695 -2.4783
 4661TIP3    H213990   4.740   0.572   3.342  0.2130 -0.1842  0.9748
 4662TIP3   OH213991   5.369   1.990   4.489  0.0650 -0.5181 -1.0737
 4662TIP3    H113992   5.372   1.971   4.583 -0.2295  1.0716 -0.7056
 4662TIP3    H213993   5.275   1.989   4.468 -0.1843  2.2703 -0.5729
 4663TIP3   OH213994   5.916   5.874   2.435  1.0395 -0.5640 -0.6426
 4663TIP3    H113995   5.920   5.882   2.340  2.1963 -0.6414 -0.6084
 4663TIP3    H213996   5.963   5.951   2.467  1.0391 -0.7699 -0.1396
 4664TIP3   OH213997   2.249   4.367   1.385  0.4258 -0.2977 -0.4727
 4664TIP3    H113998   2.238   4.346   1.292  0.2880 -2.3749 -0.0404
 4664TIP3    H213999   2.344   4.362   1.399  0.4848  0.4410 -0.5792
 4665TIP3   OH214000   0.649   1.522   2.466  0.1896  0.0454 -0.4406
 4665TIP3    H114001   0.681   1.521   2.556  0.3965 -0.3063 -0.5155
 4665TIP3    H214002   0.598   1.603   2.459 -0.8667 -0.5399  0.3470
 4666TIP3   OH214003   2.425   0.665   1.595 -0.0173 -0.1315 -0.1564
 4666TIP3    H114004   2.491   0.707   1.650 -1.0513  1.1616  0.1581
 4666TIP3    H214005   2.434   0.571   1.613 -0.7751  0.2627  2.8331
 4667TIP3   OH214006   5.962   3.123   2.592  0.3345 -0.4763 -0.3695
 4667TIP3    H114007   5.936   3.031   2.596  0.1942 -0.4511  3.2836
 4667TIP3    H214008   6.050   3.125   2.630  0.0412  0.9440  0.3092
 4668TIP3   OH214009   5.886   3.897   4.109 -0.6198 -0.1221  0.3959
 4668TIP3    H114010   5.801   3.911   4.065  0.0107  0.4559 -0.6929
 4668TIP3    H214011   5.946   3.876   4.037  0.3520  0.3866  1.0502
 4669TIP3   OH214012   1.450   1.935   1.371  0.1797 -0.5506  0.3566
 4669TIP3    H114013   1.439   2.013   1.426  2.1279 -0.4162  0.6062
 4669TIP3    H214014   1.361   1.915   1.341 -0.8575 -0.1136  2.8524
 4670TIP3   OH214015   2.218   3.953   1.809 -0.2234 -0.4228  0.1528
 4670TIP3    H114016   2.268   3.995   1.880  0.1218 -0.6373  0.0402
 4670TIP3    H214017   2.193   4.025   1.752 -0.8923 -0.1877  0.7275
 4671TIP3   OH214018   6.139   4.153   4.958 -0.0516  0.6347 -0.1359
 4671TIP3    H114019   6.090   4.185   4.882  1.8232  2.0519 -0.8191
 4671TIP3    H214020   6.230   4.154   4.930  0.9346  2.9063  2.6496
 4672TIP3   OH214021   1.606   1.429   0.906 -0.0098 -0.4822 -0.3626
 4672TIP3    H114022   1.609   1.348   0.854 -0.9899 -0.3059 -0.7182
 4672TIP3    H214023   1.514   1.453   0.907  0.2892  0.7222 -0.3926
 4673TIP3   OH214024   2.488   2.827   4.362 -0.3507  0.8635 -0.3178
 4673TIP3    H114025   2.438   2.802   4.439  3.7678 -5.1955  1.1440
 4673TIP3    H214026   2.555   2.887   4.394  1.3621 -1.6476  1.2179
 4674TIP3   OH214027   3.495   0.064   1.168 -0.0875  0.1482 -0.3188
 4674TIP3    H114028   3.467   0.155   1.175 -0.0467  0.2956 -1.6642
 4674TIP3    H214029   3.467   0.038   1.080 -1.8720 -1.7609  0.7191
 4675TIP3   OH214030   6.301   2.147   3.551 -0.3002 -0.1855  0.3318
 4675TIP3    H114031   6.282   2.239   3.568 -0.7861  0.0182 -1.1520
 4675TIP3    H214032   6.277   2.134   3.459 -1.6876 -2.1657  0.9034
 4676TIP3   OH214033   5.162   1.226   3.321 -0.3849  0.0348  0.2518
 4676TIP3    H114034   5.166   1.259   3.232 -1.7239 -1.6151 -0.4801
 4676TIP3    H214035   5.098   1.281   3.365 -1.8496 -0.8595 -0.6644
 4677TIP3   OH214036   2.011   5.570   2.688 -0.0528  0.2701 -0.4900
 4677TIP3    H114037   1.939   5.620   2.650 -0.1438  0.0699 -0.5842
 4677TIP3    H214038   2.068   5.636   2.726  1.4597  0.7642 -3.3115
 4678TIP3   OH214039   5.001   3.986   4.396  0.2856 -0.2286  0.2491
 4678TIP3    H114040   5.013   4.047   4.323 -1.3635  1.0711  1.0077
 4678TIP3    H214041   5.073   3.923   4.386  1.3565  1.1370 -1.2469
 4679TIP3   OH214042   1.219   4.312   3.003 -0.4405  0.1701 -0.4042
 4679TIP3    H114043   1.202   4.382   2.940  0.1691 -1.2416 -2.2358
 4679TIP3    H214044   1.238   4.235   2.949 -0.5589 -1.2968  1.5191
 4680TIP3   OH214045   2.367   4.834   3.487  0.2067 -0.2168 -0.1920
 4680TIP3    H114046   2.339   4.909   3.434  0.1291 -0.7622 -0.9483
 4680TIP3    H214047   2.340   4.758   3.436  0.2018 -0.7617  0.6146
 4681TIP3   OH214048   1.791   4.664   2.191 -0.2351  0.1767  0.1757
 4681TIP3    H114049   1.734   4.707   2.127 -1.3679 -0.5546  0.6705
 4681TIP3    H214050   1.811   4.733   2.255 -0.8420  0.3491  0.1865
 4682TIP3   OH214051   0.525   1.746   2.516 -0.1087 -0.0827 -0.1139
 4682TIP3    H114052   0.454   1.806   2.493 -1.7015 -2.0016 -0.3803
 4682TIP3    H214053   0.567   1.787   2.593 -0.2850  1.9841 -1.0386
 4683TIP3   OH214054   1.611   5.057   2.981 -0.2134  0.6109  0.1597
 4683TIP3    H114055   1.650   5.143   2.995 -0.6308  0.8741 -0.2462
 4683TIP3    H214056   1.650   5.001   3.048 -0.0201  1.1419  0.4953
 4684TIP3   OH214057   2.365   0.115   0.552 -0.2054  0.3335  0.4854
 4684TIP3    H114058   2.362   0.132   0.647 -0.1643 -1.1670  0.7810
 4684TIP3    H214059   2.274   0.117   0.524 -0.2253  0.7040  0.5801
 4685TIP3   OH214060   5.073   5.763   4.749  0.0398 -0.1411 -0.0174
 4685TIP3    H114061   5.050   5.856   4.758  3.3852  0.9949 -1.5507
 4685TIP3    H214062   5.062   5.744   4.656  1.2114 -0.6667 -0.0672
 4686TIP3   OH214063   5.413   4.596   5.131 -0.3202  0.2604 -0.2743
 4686TIP3    H114064   5.493   4.637   5.099  0.7711 -0.9546  0.8180
 4686TIP3    H214065   5.402   4.632   5.220 -0.9562  0.3659 -0.3920
 4687TIP3   OH214066   2.379   2.810   4.912  0.0748  0.5594  0.3027
 4687TIP3    H114067   2.474   2.800   4.900  0.2131  2.3999 -0.4218
 4687TIP3    H214068   2.365   2.790   5.005  1.0167 -0.7021  0.1959
 4688TIP3   OH214069   2.586   3.235   2.601  0.3675  0.3760 -1.0259
 4688TIP3    H114070   2.635   3.153   2.600  0.3056  0.2871  0.6068
 4688TIP3    H214071   2.579   3.260   2.508  2.2797 -0.3263 -1.4051
 4689TIP3   OH214072   5.626   0.991   0.032 -0.3342  0.1523  0.6481
 4689TIP3    H114073   5.549   1.047   0.020  0.5076  1.5723  1.5102
 4689TIP3    H214074   5.619   0.925  -0.036 -0.8692  1.9078 -1.0920
 4690TIP3   OH214075   2.578   1.350   1.477  0.1531 -0.1767 -0.1154
 4690TIP3    H114076   2.583   1.276   1.417  0.3246  0.6134 -1.1083
 4690TIP3    H214077   2.641   1.413   1.443 -1.5875  1.3676 -0.6535
 4691TIP3   OH214078   3.462   0.557   3.902 -0.4125 -0.3720  0.0501
 4691TIP3    H114079   3.494   0.559   3.992  0.2817  0.8562 -0.2023
 4691TIP3    H214080   3.379   0.604   3.905 -0.4329 -0.4085  0.0606
 4692TIP3   OH214081   2.135   5.643   4.133 -0.6956  0.4224  0.0972
 4692TIP3    H114082   2.205   5.670   4.074 -0.8291  2.7166  0.8788
 4692TIP3    H214083   2.075   5.593   4.079  0.7840 -0.2815 -0.9349
 4693TIP3   OH214084   5.253   0.245   4.313 -0.3029 -0.0084 -0.7532
 4693TIP3    H114085   5.221   0.324   4.356  0.8299  0.1370 -0.1746
 4693TIP3    H214086   5.247   0.265   4.219 -1.4343  0.1869 -0.6581
 4694TIP3   OH214087   4.777   0.606   4.641  0.2101  0.5109  0.0321
 4694TIP3    H114088   4.810   0.693   4.660 -1.4017  1.0861  0.4100
 4694TIP3    H214089   4.722   0.584   4.717  0.2473 -0.6441 -0.2530
 4695TIP3   OH214090   3.799   3.170   4.523 -0.3478  0.1352  0.6474
 4695TIP3    H114091   3.846   3.249   4.549 -0.3932 -0.1375  1.5750
 4695TIP3    H214092   3.721   3.169   4.578 -1.1834  0.2859 -0.4823
 4696TIP3   OH214093   2.429   5.340   2.539 -0.4223 -0.6726 -0.5285
 4696TIP3    H114094   2.475   5.409   2.587  0.3132  0.2290 -2.4137
 4696TIP3    H214095   2.338   5.368   2.537 -0.1894  0.0673 -0.9653
 4697TIP3   OH214096   0.063   2.403   4.239  0.2854  0.6286 -1.1074
 4697TIP3    H114097   0.148   2.406   4.196  1.1516 -0.2210  0.4799
 4697TIP3    H214098   0.032   2.313   4.227  0.0997  0.6437 -0.7459
 4698TIP3   OH214099   4.435   0.267   5.161 -0.1543 -0.0015 -0.3974
 4698TIP3    H114100   4.491   0.269   5.083  0.8581 -1.4401  0.2634
 4698TIP3    H214101   4.354   0.310   5.132 -0.4181 -1.8383 -2.7506
 4699TIP3   OH214102   2.540   1.603   1.769  0.3788  0.3700  0.5033
 4699TIP3    H114103   2.486   1.588   1.847 -0.3849  2.5617  0.4666
 4699TIP3    H214104   2.581   1.688   1.784  0.4128  0.7332 -1.3567
 4700TIP3   OH214105   1.184   4.580   0.797  0.3063  0.7150  0.4842
 4700TIP3    H114106   1.099   4.545   0.770  0.6801 -0.5189  0.8438
 4700TIP3    H214107   1.208   4.642   0.729 -0.2489  0.0325 -0.3485
 4701TIP3   OH214108   3.774   4.588   3.003 -0.0950  0.3773  0.1715
 4701TIP3    H114109   3.727   4.601   3.086  0.7505  0.6799  0.6142
 4701TIP3    H214110   3.834   4.662   2.998  1.5887 -0.9033  0.4944
 4702TIP3   OH214111   5.075   4.203   0.693 -0.5303 -0.3161 -0.4532
 4702TIP3    H114112   5.005   4.224   0.755  0.4776  1.0178  0.2816
 4702TIP3    H214113   5.152   4.187   0.748  0.1144 -0.2591 -1.3115
 4703TIP3   OH214114   1.838   4.282   2.216  0.3922 -0.0173  0.3030
 4703TIP3    H114115   1.894   4.284   2.138  0.7678 -1.6847  0.4970
 4703TIP3    H214116   1.879   4.343   2.277 -1.0243  2.9111 -1.4734
 4704TIP3   OH214117   1.867   0.659   3.996 -0.2235  0.4268 -0.4574
 4704TIP3    H114118   1.858   0.683   3.904 -0.2927  0.4416 -0.4470
 4704TIP3    H214119   1.777   0.651   4.027 -0.2250  1.7767 -0.0379
 4705TIP3   OH214120   1.329   4.580   3.703  0.4134 -0.5830 -0.4514
 4705TIP3    H114121   1.383   4.546   3.774  1.2117  1.2728 -0.1138
 4705TIP3    H214122   1.360   4.535   3.625  1.5217 -0.5622 -0.0422
 4706TIP3   OH214123   4.459   3.899   1.329 -0.1601  0.2036  0.3071
 4706TIP3    H114124   4.551   3.917   1.345  0.1409 -0.6030 -0.4631
 4706TIP3    H214125   4.413   3.974   1.366  0.7305  0.1419  1.5964
 4707TIP3   OH214126   2.763   1.555   1.553 -0.0536  0.0468 -0.1408
 4707TIP3    H114127   2.794   1.634   1.508  0.7798  0.7533  1.5954
 4707TIP3    H214128   2.681   1.581   1.595 -0.1442 -0.2371 -0.1349
 4708TIP3   OH214129   1.484   0.127   4.448 -0.0962  0.2300 -0.2472
 4708TIP3    H114130   1.569   0.167   4.465  0.0437 -0.6139  1.1930
 4708TIP3    H214131   1.478   0.122   4.353  1.5176  0.2101 -0.3713
 4709TIP3   OH214132   3.045   0.502   3.046 -0.5075 -0.2737 -0.2438
 4709TIP3    H114133   3.048   0.507   2.950 -1.0686  2.4316 -0.1777
 4709TIP3    H214134   2.954   0.477   3.066 -0.3961 -0.8176 -0.3929
 4710TIP3   OH214135   4.559   0.679   3.967  0.4264  0.4399 -0.0226
 4710TIP3    H114136   4.503   0.709   3.895  0.0277 -0.6442 -0.1942
 4710TIP3    H214137   4.642   0.726   3.954  0.1701  0.6907 -0.8565
 4711TIP3   OH214138   0.182   5.688   2.055 -0.0393  0.5008 -0.0935
 4711TIP3    H114139   0.225   5.639   2.124 -1.9998 -0.8195  0.2523
 4711TIP3    H214140   0.194   5.634   1.976  2.0099  1.8988 -0.8452
 4712TIP3   OH214141   2.000   1.892   0.130  0.0179 -0.2937  0.4340
 4712TIP3    H114142   2.092   1.890   0.155  0.6048 -1.5438 -1.6097
 4712TIP3    H214143   1.973   1.982   0.147  2.1401  0.6119 -0.6135
 4713TIP3   OH214144   1.862   5.462   1.524 -0.7878 -0.1800  0.4370
 4713TIP3    H114145   1.833   5.462   1.615  1.0220  1.9161  1.0814
 4713TIP3    H214146   1.886   5.552   1.506  0.8421 -0.9203 -1.5009
 4714TIP3   OH214147   2.191   3.461   1.597 -0.4631 -0.2990  0.8268
 4714TIP3    H114148   2.199   3.515   1.518  0.7921 -0.9129  0.5121
 4714TIP3    H214149   2.102   3.477   1.628 -0.4899  1.0683  0.1020
 4715TIP3   OH214150   1.448   2.587   1.593 -0.1594  0.1973 -0.5149
 4715TIP3    H114151   1.516   2.643   1.629  1.3981 -2.1916  0.4746
 4715TIP3    H214152   1.387   2.647   1.550  2.3354  2.4511 -1.1020
 4716TIP3   OH214153   5.468   4.320   2.742  0.0836  0.4351  0.0663
 4716TIP3    H114154   5.380   4.298   2.712 -0.0082  0.6828  0.1533
 4716TIP3    H214155   5.468   4.296   2.835  0.4500 -0.5777 -0.1825
 4717TIP3   OH214156   3.250   2.138   2.423 -0.2784 -0.3240  0.3441
 4717TIP3    H114157   3.311   2.143   2.497 -1.7801  0.2677  1.6052
 4717TIP3    H214158   3.279   2.206   2.363 -0.1756  0.4968  1.3105
 4718TIP3   OH214159   6.239   2.363   1.982 -0.3846 -0.1066  0.3316
 4718TIP3    H114160   6.328   2.330   1.968 -0.6061 -0.4647 -0.2858
 4718TIP3    H214161   6.182   2.298   1.940 -0.9511  0.0213  0.8820
 4719TIP3   OH214162   0.627   3.434   5.013  0.6281  0.1231 -0.4310
 4719TIP3    H114163   0.667   3.516   5.043  2.2744 -0.9136  0.3215
 4719TIP3    H214164   0.577   3.459   4.935 -0.9419  2.2694  1.1387
 4720TIP3   OH214165   3.063   3.652   1.038 -0.1303 -0.0213  0.0716
 4720TIP3    H114166   3.111   3.673   1.118  0.0676  1.5475 -0.4135
 4720TIP3    H214167   3.031   3.563   1.051  0.4740 -0.0409  1.6038
 4721TIP3   OH214168   3.947   3.152   2.883  0.0422  0.2282 -0.5688
 4721TIP3    H114169   3.875   3.126   2.940 -0.2256  0.8790 -0.6007
 4721TIP3    H214170   4.023   3.104   2.916  0.1917  1.6054  1.1767
 4722TIP3   OH214171   2.541   2.917   3.549 -0.2680  0.1597 -0.6016
 4722TIP3    H114172   2.543   2.885   3.639  2.6389  1.4596 -0.0719
 4722TIP3    H214173   2.515   3.009   3.557  0.6840  0.4816 -0.9477
 4723TIP3   OH214174   4.853   1.278   1.769  0.3989 -0.2914  0.0463
 4723TIP3    H114175   4.901   1.359   1.756  1.0493 -0.4106  1.5081
 4723TIP3    H214176   4.779   1.301   1.826 -1.3604 -0.1088 -2.1761
 4724TIP3   OH214177   4.185   0.288   3.815  0.3230  0.0552 -0.3134
 4724TIP3    H114178   4.218   0.375   3.838 -1.1887  1.1355 -1.9580
 4724TIP3    H214179   4.112   0.273   3.875 -0.5425  0.7412 -1.1629
 4725TIP3   OH214180   0.075   2.436   3.557  0.4256  0.1479 -0.4242
 4725TIP3    H114181   0.164   2.423   3.525  0.3805 -0.4254 -0.3220
 4725TIP3    H214182   0.032   2.485   3.487  1.1013  1.3321 -0.0344
 4726TIP3   OH214183   0.719   0.355   3.878 -0.5557 -0.3159 -0.2743
 4726TIP3    H114184   0.757   0.423   3.822  1.0291 -1.5755 -0.7954
 4726TIP3    H214185   0.781   0.283   3.874 -2.4616 -2.0603 -0.2259
 4727TIP3   OH214186   3.962   5.286   2.179 -0.2156  0.4484  0.8233
 4727TIP3    H114187   3.957   5.251   2.268  1.5178  0.1830  0.8564
 4727TIP3    H214188   4.041   5.339   2.179 -0.3510  0.6819 -0.4891
 4728TIP3   OH214189   2.843   0.083   1.921 -0.4827 -0.0302 -0.1311
 4728TIP3    H114190   2.828   0.127   2.005  0.4618  0.7514 -0.3530
 4728TIP3    H214191   2.853  -0.009   1.943  0.5394  0.2653  0.7206
 4729TIP3   OH214192   5.603   3.462   1.669  0.3412 -0.3488 -0.5427
 4729TIP3    H114193   5.516   3.426   1.648  0.0185  0.4992 -0.6723
 4729TIP3    H214194   5.663   3.412   1.613  0.1756 -2.2355  0.8717
 4730TIP3   OH214195   4.824   1.356   3.130 -0.1822 -0.5317  0.6099
 4730TIP3    H114196   4.877   1.354   3.050 -1.0239 -0.9583  0.0595
 4730TIP3    H214197   4.831   1.447   3.160 -0.7680 -0.0882 -0.5652
 4731TIP3   OH214198   3.839   4.433   2.184  0.0549 -0.0913  0.6490
 4731TIP3    H114199   3.877   4.396   2.104 -0.4277  3.8778 -1.6841
 4731TIP3    H214200   3.909   4.429   2.249  0.8502 -2.3347 -0.2533
 4732TIP3   OH214201   1.971   3.650   1.069  0.0062  0.0182  0.4896
 4732TIP3    H114202   2.025   3.725   1.044 -0.5125  0.0241 -0.7078
 4732TIP3    H214203   2.029   3.594   1.120  1.0158  0.2473 -0.3676
 4733TIP3   OH214204   3.789   2.959   4.739  0.1170  0.3773  0.3390
 4733TIP3    H114205   3.814   2.903   4.666  1.0873  0.0767  0.8882
 4733TIP3    H214206   3.823   3.046   4.716 -0.0595  0.4073  0.1864
 4734TIP3   OH214207   5.860   4.377   3.287  0.2627 -0.1530  0.0179
 4734TIP3    H114208   5.830   4.443   3.350 -2.5831 -1.4101  0.1649
 4734TIP3    H214209   5.870   4.426   3.205 -0.6200  0.7118  0.3936
 4735TIP3   OH214210   1.874   2.816   3.923 -0.6069  0.1882 -0.0681
 4735TIP3    H114211   1.873   2.798   3.829  0.5221  3.3879 -0.8455
 4735TIP3    H214212   1.943   2.759   3.957 -1.6300 -1.6725 -0.9426
 4736TIP3   OH214213   6.126   3.473   4.681 -0.0631  0.1546  0.4040
 4736TIP3    H114214   6.135   3.431   4.595 -1.0764  0.0573  0.3286
 4736TIP3    H214215   6.134   3.401   4.744 -0.2949  0.0800  0.3472
 4737TIP3   OH214216   2.605   2.352   4.467 -0.0515  0.5543 -0.1147
 4737TIP3    H114217   2.524   2.403   4.461 -0.2105  0.5202  1.3219
 4737TIP3    H214218   2.665   2.407   4.518 -0.9236 -1.3753  3.3666
 4738TIP3   OH214219   3.488   3.553   4.907 -0.2661  0.1620  0.5912
 4738TIP3    H114220   3.450   3.473   4.870  1.1534 -1.0219  1.5885
 4738TIP3    H214221   3.555   3.522   4.967 -0.0717  2.1123  1.4529
 4739TIP3   OH214222   6.079   2.367   4.105 -0.0804 -0.1694 -0.2245
 4739TIP3    H114223   6.102   2.452   4.067  0.2287 -0.9681 -1.9515
 4739TIP3    H214224   6.156   2.313   4.090 -1.5496 -1.8061 -2.6588
 4740TIP3   OH214225   4.142   3.469   1.252  0.1328 -0.3660  0.1267
 4740TIP3    H114226   4.068   3.419   1.287 -1.2264  2.5051  1.7933
 4740TIP3    H214227   4.109   3.504   1.168  0.5508 -1.0715 -0.3398
 4741TIP3   OH214228   3.382   0.652   0.203  0.3153  0.3927 -0.3961
 4741TIP3    H114229   3.420   0.619   0.122 -1.9416 -1.1725 -0.8967
 4741TIP3    H214230   3.297   0.688   0.177 -0.1707  0.4634  1.1837
 4742TIP3   OH214231   3.805   4.189   0.463 -0.6368 -0.1865 -0.3405
 4742TIP3    H114232   3.900   4.182   0.472 -0.7742  0.1874  2.3467
 4742TIP3    H214233   3.782   4.268   0.511 -2.2033  0.6725 -2.3574
 4743TIP3   OH214234   2.077   3.991   0.145  0.5265  0.1685  0.2796
 4743TIP3    H114235   2.058   4.041   0.224 -1.2690 -0.9912  0.6520
 4743TIP3    H214236   1.996   3.997   0.093  0.9756 -0.7176 -0.5496
 4744TIP3   OH214237   3.005   4.773   3.709 -0.3262  0.2590 -0.2662
 4744TIP3    H114238   3.082   4.815   3.746 -0.5792  1.0046 -0.5634
 4744TIP3    H214239   3.034   4.740   3.624  0.0693 -0.8497  0.2688
 4745TIP3   OH214240   1.339   5.398   0.186  0.4145  0.8262  0.7044
 4745TIP3    H114241   1.269   5.426   0.244  1.1059  2.1022  0.9451
 4745TIP3    H214242   1.410   5.371   0.244  0.4538  0.3878  0.4585
 4746TIP3   OH214243   3.279   4.629   4.827 -0.2202  0.0809  0.6933
 4746TIP3    H114244   3.293   4.719   4.857  1.2865  0.1434 -0.1251
 4746TIP3    H214245   3.332   4.575   4.887  1.2404  0.0345 -0.5890
 4747TIP3   OH214246   2.563   4.066   0.584  0.2188  0.0414  0.3329
 4747TIP3    H114247   2.614   4.015   0.521 -1.9915 -1.4837 -0.3453
 4747TIP3    H214248   2.557   4.010   0.661 -0.1644  0.3367  0.5225
 4748TIP3   OH214249   3.810   2.221   1.562  0.0875 -0.6440  0.1771
 4748TIP3    H114250   3.748   2.150   1.580  1.2895 -1.6663  0.4873
 4748TIP3    H214251   3.824   2.263   1.647 -1.7753  1.0155 -0.2590
 4749TIP3   OH214252   5.998   3.807   2.052  0.3530  0.8981  0.1338
 4749TIP3    H114253   5.904   3.793   2.064  0.8117 -0.8510  2.3947
 4749TIP3    H214254   6.028   3.733   2.001  0.7364  0.5578  0.8345
 4750TIP3   OH214255   2.664   3.463   2.733 -0.1725 -1.4328  0.3576
 4750TIP3    H114256   2.658   3.389   2.673 -0.7457 -1.6331  0.6594
 4750TIP3    H214257   2.608   3.440   2.806 -0.6133 -0.5682  0.3081
 4751TIP3   OH214258   5.858   4.588   1.501  0.3487  0.4820 -0.7966
 4751TIP3    H114259   5.851   4.669   1.552 -0.2464  0.7590 -1.3098
 4751TIP3    H214260   5.776   4.582   1.453  0.6240 -0.1305 -1.2129
 4752TIP3   OH214261   4.230   1.888   1.811  0.5337 -0.3341 -0.3403
 4752TIP3    H114262   4.236   1.983   1.816  2.0607 -0.4501  0.7414
 4752TIP3    H214263   4.146   1.871   1.768 -0.5331  1.4694  0.8970
 4753TIP3   OH214264   0.619   0.229   5.138 -0.3727  0.0874  0.0553
 4753TIP3    H114265   0.695   0.188   5.178 -0.5885 -0.6767 -0.2944
 4753TIP3    H214266   0.589   0.294   5.202  2.1709  2.3953 -0.8924
 4754TIP3   OH214267   3.104   1.981   1.538 -0.3415 -0.0094  0.1581
 4754TIP3    H114268   3.034   1.939   1.589  0.9618  0.3736  2.3922
 4754TIP3    H214269   3.147   1.909   1.493 -1.8971 -0.2971 -0.9585
 4755TIP3   OH214270   4.680   5.910   3.721  0.0403 -0.3852 -0.4915
 4755TIP3    H114271   4.673   6.002   3.749 -0.4180 -0.7469  0.6558
 4755TIP3    H214272   4.599   5.870   3.752  0.3309 -1.2308 -0.7984
 4756TIP3   OH214273   0.707   1.480   1.332 -0.5651 -0.1211 -0.0709
 4756TIP3    H114274   0.656   1.492   1.412 -0.0932 -0.7293  0.3240
 4756TIP3    H214275   0.797   1.466   1.362 -0.5227 -1.2264 -0.6660
 4757TIP3   OH214276   4.315   4.174   4.683  0.2495  0.5764  0.0900
 4757TIP3    H114277   4.238   4.197   4.735 -0.3995 -0.0062 -0.5919
 4757TIP3    H214278   4.312   4.079   4.677  1.1423  0.5252  0.2121
 4758TIP3   OH214279   0.819   5.779   4.108 -0.2230 -0.6199  0.0211
 4758TIP3    H114280   0.747   5.801   4.048  0.5340 -1.9190 -1.4192
 4758TIP3    H214281   0.787   5.703   4.157  0.6748 -2.2066 -1.7258
 4759TIP3   OH214282   0.609   0.349   2.282  0.5412 -0.0306 -0.0384
 4759TIP3    H114283   0.538   0.311   2.333  0.8601 -0.5777  0.0070
 4759TIP3    H214284   0.668   0.387   2.347  0.7007 -0.2969 -0.0265
 4760TIP3   OH214285   1.724   3.620   0.306  0.2230  0.1530 -0.8344
 4760TIP3    H114286   1.632   3.646   0.313 -0.6138 -1.9807 -2.5189
 4760TIP3    H214287   1.739   3.613   0.211  1.3449 -1.8403 -0.5710
 4761TIP3   OH214288   6.346   1.092   2.536 -0.1664  0.4530  0.6065
 4761TIP3    H114289   6.363   1.134   2.452 -2.3911  0.5017  0.0973
 4761TIP3    H214290   6.267   1.136   2.568 -1.7127 -2.2322  0.7710
 4762TIP3   OH214291   2.055   0.284   0.516  0.1203  0.3940  0.2268
 4762TIP3    H114292   2.033   0.370   0.481  2.0400  0.3877 -1.1248
 4762TIP3    H214293   2.064   0.298   0.611 -2.3058  1.0260  0.4481
 4763TIP3   OH214294   2.063   2.512   4.756  0.3067  0.6405  0.7338
 4763TIP3    H114295   2.006   2.511   4.680  0.6161  2.9583  0.4213
 4763TIP3    H214296   2.115   2.432   4.747 -0.5526  0.2123 -0.7726
 4764TIP3   OH214297   6.118   5.194   0.455 -0.3302 -0.5465 -0.2053
 4764TIP3    H114298   6.095   5.126   0.519 -1.9444 -0.0544 -0.2085
 4764TIP3    H214299   6.211   5.212   0.472 -0.7930 -0.1136  2.3519
 4765TIP3   OH214300   0.599   5.446   4.434 -0.5498  0.5223 -0.5830
 4765TIP3    H114301   0.514   5.448   4.391 -1.2754  0.0579  0.7618
 4765TIP3    H214302   0.585   5.492   4.517  0.0948 -0.8786  0.3390
 4766TIP3   OH214303   4.198   1.421   3.709 -0.1531  0.1946 -0.0143
 4766TIP3    H114304   4.104   1.431   3.694 -0.2589 -0.2968  0.3096
 4766TIP3    H214305   4.209   1.443   3.802 -0.0223 -0.2297  0.0733
 4767TIP3   OH214306   4.849   1.842   0.833 -0.0724 -0.2689  0.1377
 4767TIP3    H114307   4.779   1.853   0.770  0.0830 -1.8002 -0.3548
 4767TIP3    H214308   4.830   1.906   0.902 -0.2027  1.4809 -1.4531
 4768TIP3   OH214309   5.052   5.421   3.759  0.2534 -0.1345  0.1679
 4768TIP3    H114310   5.125   5.447   3.702 -0.1586  0.2035 -0.2123
 4768TIP3    H214311   4.974   5.456   3.716 -0.0768  0.0301  0.8796
 4769TIP3   OH214312   5.919   1.977   3.371  0.5476  0.1851  0.1710
 4769TIP3    H114313   5.848   1.925   3.331 -0.9043  0.5317  2.1579
 4769TIP3    H214314   5.997   1.922   3.362 -0.2959 -0.9292 -0.6425
 4770TIP3   OH214315   3.982   0.642   1.881 -0.0584  0.3292  0.5425
 4770TIP3    H114316   4.034   0.700   1.824 -1.6249  1.2330 -0.0409
 4770TIP3    H214317   4.040   0.624   1.955  1.5412  0.2444 -0.6720
 4771TIP3   OH214318   0.475   5.895   0.577 -0.2662 -0.0257 -0.5323
 4771TIP3    H114319   0.440   5.869   0.662 -1.2460  0.4993 -0.7660
 4771TIP3    H214320   0.501   5.986   0.588  1.5764 -0.5523 -0.2088
 4772TIP3   OH214321   4.129   3.224   4.721 -0.0738 -0.5232  0.3065
 4772TIP3    H114322   4.140   3.130   4.705  0.7836 -0.3561 -0.1349
 4772TIP3    H214323   4.207   3.250   4.770  0.6482  0.3098 -1.2089
 4773TIP3   OH214324   4.452   4.630   0.801 -0.1000 -0.4159  0.5729
 4773TIP3    H114325   4.475   4.552   0.852  1.0353 -0.8068 -0.5051
 4773TIP3    H214326   4.396   4.597   0.731  2.6914 -0.8309 -1.6341
 4774TIP3   OH214327   3.594   3.626   1.052  0.0163 -0.2599  0.0398
 4774TIP3    H114328   3.660   3.641   1.120 -0.7862  0.3208  0.7157
 4774TIP3    H214329   3.582   3.531   1.051  1.3060 -0.4272 -0.5343
 4775TIP3   OH214330   2.366   3.575   0.448 -0.1303 -0.0773 -0.2894
 4775TIP3    H114331   2.461   3.576   0.456 -0.2396  1.0761  1.4536
 4775TIP3    H214332   2.340   3.667   0.453 -1.4419 -0.4757  1.5191
 4776TIP3   OH214333   4.450   3.137   0.326 -0.2904 -0.0575 -0.0736
 4776TIP3    H114334   4.481   3.199   0.392 -0.3008  0.6864 -0.7522
 4776TIP3    H214335   4.494   3.164   0.246 -0.5293 -0.7539 -0.4441
 4777TIP3   OH214336   1.794   5.424   2.731 -0.6186 -0.5926 -0.0903
 4777TIP3    H114337   1.871   5.480   2.727 -2.3420  1.9556 -0.2090
 4777TIP3    H214338   1.763   5.419   2.640 -1.1424 -0.7317  0.0897
 4778TIP3   OH214339   4.407   0.920   4.906 -0.2431  0.3570 -0.2504
 4778TIP3    H114340   4.325   0.889   4.867 -0.0912  1.2248 -1.3125
 4778TIP3    H214341   4.472   0.910   4.836  0.1875  1.2952  0.0045
 4779TIP3   OH214342   4.077   2.090   0.860 -0.3096 -0.4393  0.0731
 4779TIP3    H114343   4.151   2.110   0.803  0.2285  1.4287  1.3240
 4779TIP3    H214344   4.114   2.092   0.948 -2.0403  2.0269  0.8604
 4780TIP3   OH214345   0.979   0.851   2.361 -0.0789  0.2490  1.0754
 4780TIP3    H114346   0.994   0.822   2.451 -0.2710  0.4095  1.1588
 4780TIP3    H214347   1.067   0.854   2.323 -0.1833 -3.1331  0.2147
 4781TIP3   OH214348   1.238   2.449   3.228 -0.0496 -0.2918 -0.2118
 4781TIP3    H114349   1.267   2.447   3.319 -0.0944 -0.1478 -0.1945
 4781TIP3    H214350   1.165   2.510   3.227  0.3230  0.1568 -0.4525
 4782TIP3   OH214351   5.656   5.736   3.257 -0.1649 -0.1492  0.1058
 4782TIP3    H114352   5.590   5.682   3.214  0.2709 -0.8632  0.3067
 4782TIP3    H214353   5.739   5.696   3.232  0.1652  0.3712  0.3448
 4783TIP3   OH214354   2.754   4.608   1.725 -0.1174 -0.3649 -0.0038
 4783TIP3    H114355   2.697   4.679   1.756  0.5892 -0.3498  1.3314
 4783TIP3    H214356   2.714   4.529   1.760  0.9434 -0.3081  1.4605
 4784TIP3   OH214357   3.968   1.807   2.080 -0.3072  0.4351  0.1257
 4784TIP3    H114358   3.925   1.796   1.994 -1.1122  0.6570  0.4887
 4784TIP3    H214359   3.951   1.899   2.103  0.7405  0.6520  0.0914
 4785TIP3   OH214360   4.817   4.625   2.420 -0.6225  0.1654 -0.0459
 4785TIP3    H114361   4.865   4.690   2.370 -0.0490  1.4970  2.1182
 4785TIP3    H214362   4.866   4.543   2.407  0.7742  0.9519  0.1211
 4786TIP3   OH214363   3.186   5.716   3.508 -0.3350  0.2768  0.5497
 4786TIP3    H114364   3.194   5.807   3.478  1.0987 -0.0265 -0.0828
 4786TIP3    H214365   3.204   5.663   3.431  0.1219 -0.5375  1.1943
 4787TIP3   OH214366   4.909   0.522   4.088  0.3622  0.3480 -0.2953
 4787TIP3    H114367   4.854   0.575   4.031  1.4418  0.5840 -1.1623
 4787TIP3    H214368   4.974   0.583   4.122  0.9287 -0.1883 -0.4022
 4788TIP3   OH214369   5.678   1.185   1.182  0.3289  0.2329 -0.3497
 4788TIP3    H114370   5.598   1.179   1.131  0.8055 -0.6122 -1.0224
 4788TIP3    H214371   5.654   1.154   1.269 -0.1901  0.4951 -0.3966
 4789TIP3   OH214372   4.528   4.860   0.550 -0.3793  0.5654  0.5546
 4789TIP3    H114373   4.585   4.798   0.596  1.0101  0.4823 -1.1665
 4789TIP3    H214374   4.529   4.939   0.603 -0.9360 -0.3444  1.9826
 4790TIP3   OH214375   4.074   1.992   2.305  0.1723  0.0273  0.2555
 4790TIP3    H114376   4.103   2.075   2.342  0.5531 -0.4564  1.0638
 4790TIP3    H214377   4.001   2.016   2.247  2.0615  1.2388 -1.7606
 4791TIP3   OH214378   3.248   4.132   0.343  0.0886 -0.3170  0.3093
 4791TIP3    H114379   3.181   4.081   0.388 -0.7558  0.1328 -0.4003
 4791TIP3    H214380   3.217   4.222   0.349  0.1632 -0.1999 -0.7918
 4792TIP3   OH214381   5.214   4.815   1.296  0.2206  0.1222 -0.6185
 4792TIP3    H114382   5.268   4.796   1.220  0.4585 -0.6463 -0.2760
 4792TIP3    H214383   5.250   4.759   1.365  0.3735  1.2138  0.2217
 4793TIP3   OH214384   0.713   1.886   2.745  0.1005 -0.8466 -0.4399
 4793TIP3    H114385   0.643   1.833   2.784  1.4694 -1.2270  1.6945
 4793TIP3    H214386   0.791   1.860   2.794  1.2972  1.2953 -1.1267
 4794TIP3   OH214387   3.245   3.161   1.519  0.1493 -0.0191  0.6604
 4794TIP3    H114388   3.328   3.202   1.545 -0.4152  2.0024 -0.5342
 4794TIP3    H214389   3.272   3.082   1.472  1.2612 -1.4323  3.4530
 4795TIP3   OH214390   2.199   5.034   4.651  0.0072 -0.0728  0.9185
 4795TIP3    H114391   2.152   4.952   4.633  1.4184 -1.0261  1.3545
 4795TIP3    H214392   2.234   5.061   4.567 -0.0050 -0.2100  0.8694
 4796TIP3   OH214393   3.813   1.428   3.237 -0.0518  0.4286 -0.3760
 4796TIP3    H114394   3.827   1.493   3.307  0.4093 -1.2410  1.1659
 4796TIP3    H214395   3.901   1.407   3.206  0.1348 -1.6255  1.2859
 4797TIP3   OH214396   5.824   2.682   5.017 -0.9017  0.0214 -0.0601
 4797TIP3    H114397   5.901   2.655   5.066  0.1171  0.1987 -1.5137
 4797TIP3    H214398   5.751   2.638   5.061  0.0783 -0.5666  1.0151
 4798TIP3   OH214399   4.416   5.437   4.060 -0.1525  0.3404 -0.3323
 4798TIP3    H114400   4.445   5.426   3.970 -0.8893  3.9778 -1.1710
 4798TIP3    H214401   4.495   5.464   4.107  0.3343 -1.9910  0.3324
 4799TIP3   OH214402   6.222   5.522   5.002  0.2069 -0.0824  0.3716
 4799TIP3    H114403   6.295   5.550   5.057  0.0875  2.5684 -0.6777
 4799TIP3    H214404   6.149   5.577   5.028 -0.4344 -0.2762 -0.9178
 4800TIP3   OH214405   5.569   4.303   1.494 -0.2231  0.6753 -0.0531
 4800TIP3    H114406   5.542   4.325   1.583 -0.3667  0.3499 -0.0153
 4800TIP3    H214407   5.488   4.299   1.444 -0.0012  3.1550 -0.7379
 4801TIP3   OH214408   4.668   5.707   4.912  0.2211  0.1259  0.1924
 4801TIP3    H114409   4.751   5.683   4.872  1.0110  2.5237  0.1997
 4801TIP3    H214410   4.669   5.666   4.998  0.3020 -1.7779 -0.6797
 4802TIP3   OH214411   5.512   5.070   1.494  0.5530 -0.1859 -0.3030
 4802TIP3    H114412   5.421   5.057   1.521  0.0566  2.2159 -0.6106
 4802TIP3    H214413   5.506   5.095   1.402  1.4532  0.7834 -0.1106
 4803TIP3   OH214414   0.236   0.040   3.330  0.1880  0.4078  0.2443
 4803TIP3    H114415   0.283   0.081   3.258 -1.3199 -1.4626 -1.9469
 4803TIP3    H214416   0.243  -0.054   3.314 -3.6114 -0.0295  0.1006
 4804TIP3   OH214417   4.527   4.414   2.470  0.1972  0.0268  0.1032
 4804TIP3    H114418   4.612   4.382   2.442  0.5865  0.4525  0.7770
 4804TIP3    H214419   4.484   4.337   2.508 -0.2304 -0.4859 -1.3693
 4805TIP3   OH214420   6.086   3.667   1.765  0.0321  0.3993  0.0987
 4805TIP3    H114421   6.164   3.696   1.813 -0.2615 -2.1759  2.3672
 4805TIP3    H214422   6.119   3.605   1.700 -0.0790 -1.5382  1.7775
 4806TIP3   OH214423   0.336   4.962   3.745 -0.1119 -0.0378  0.2885
 4806TIP3    H114424   0.274   5.002   3.683  1.2062  0.3052 -0.8491
 4806TIP3    H214425   0.369   5.035   3.796 -2.2425 -0.4742  2.4653
 4807TIP3   OH214426   0.936   3.006   2.644 -0.0767  0.3860 -0.3500
 4807TIP3    H114427   0.847   2.974   2.635  0.7248 -1.8878 -0.8597
 4807TIP3    H214428   0.958   3.042   2.558 -0.1857  0.0311 -0.5279
 4808TIP3   OH214429   6.037   0.986   3.806 -0.4379  0.1143  0.5517
 4808TIP3    H114430   6.047   1.040   3.727 -0.1638 -0.5601  0.1175
 4808TIP3    H214431   6.051   0.896   3.776 -1.6519 -0.2880  1.1225
 4809TIP3   OH214432   6.131   0.165   0.948  0.4375 -0.4877  0.2542
 4809TIP3    H114433   6.225   0.180   0.954  0.3239  1.1517 -1.2837
 4809TIP3    H214434   6.109   0.185   0.857 -1.6396  0.7073  0.9570
 4810TIP3   OH214435   1.447   2.994   2.277 -0.2181  0.0554  0.0762
 4810TIP3    H114436   1.406   2.938   2.343  0.2923  1.1342  1.3693
 4810TIP3    H214437   1.378   3.009   2.213 -1.1759  0.0527  1.0655
 4811TIP3   OH214438   0.277   5.109   1.346 -0.1461 -0.4263  0.2397
 4811TIP3    H114439   0.245   5.061   1.422  0.0329 -1.3709 -0.2666
 4811TIP3    H214440   0.334   5.177   1.383  0.8108 -1.5591  0.8989
 4812TIP3   OH214441   3.271   5.189   3.341 -0.6768 -0.2921  0.3923
 4812TIP3    H114442   3.344   5.204   3.401 -0.2781 -1.2187  0.1487
 4812TIP3    H214443   3.194   5.218   3.391 -0.2390 -0.0445  0.9415
 4813TIP3   OH214444   4.560   1.088   1.871 -0.0864  1.2080  0.2744
 4813TIP3    H114445   4.608   1.134   1.803  0.2490  1.1199  0.4480
 4813TIP3    H214446   4.487   1.146   1.892 -1.1832  0.4579 -1.3553
 4814TIP3   OH214447   6.100   2.815   3.251  0.4026 -0.1448 -0.2070
 4814TIP3    H114448   6.026   2.830   3.311  0.7565 -1.9124  0.7401
 4814TIP3    H214449   6.168   2.875   3.283 -0.3765  1.0433 -0.7005
 4815TIP3   OH214450   0.898   4.287   1.185  0.4104  0.0735 -0.1586
 4815TIP3    H114451   0.930   4.200   1.211  1.0249  0.0521 -0.9439
 4815TIP3    H214452   0.976   4.333   1.154  0.3947  1.4975  1.7357
 4816TIP3   OH214453   3.724   4.506   2.760 -0.5677  0.0465 -0.3613
 4816TIP3    H114454   3.686   4.418   2.761 -0.9225  0.1913 -0.6475
 4816TIP3    H214455   3.746   4.524   2.852  1.8167 -1.3060 -0.5980
 4817TIP3   OH214456   3.096   0.839   3.362  0.0607 -0.3459 -0.2546
 4817TIP3    H114457   3.049   0.919   3.341  0.1034 -0.2887 -0.1352
 4817TIP3    H214458   3.040   0.794   3.425  0.2892 -0.1473  0.0980
 4818TIP3   OH214459   5.110   3.992   1.046  0.0485  0.2941 -0.6280
 4818TIP3    H114460   5.080   3.911   1.087 -0.7175  1.1701  0.6299
 4818TIP3    H214461   5.040   4.015   0.985  0.3044 -0.0174 -1.0462
 4819TIP3   OH214462   6.077   0.760   2.437  0.0328  0.1540  0.9171
 4819TIP3    H114463   5.997   0.804   2.464 -0.6884 -0.3900 -0.2386
 4819TIP3    H214464   6.053   0.667   2.435 -0.1799  0.1769 -2.0366
 4820TIP3   OH214465   3.720   5.771   0.278 -0.0045 -0.2310  0.2009
 4820TIP3    H114466   3.655   5.765   0.208  0.0469  0.3943  0.0861
 4820TIP3    H214467   3.733   5.865   0.289  2.2554 -0.3135 -1.0769
 4821TIP3   OH214468   2.288   1.338   1.837  0.2625  0.2886  0.2853
 4821TIP3    H114469   2.310   1.426   1.868 -0.4078  0.2227  0.9789
 4821TIP3    H214470   2.195   1.342   1.818  0.3283 -0.1436 -0.1337
 4822TIP3   OH214471   5.420   2.301   4.356 -0.5984 -0.3787  1.2871
 4822TIP3    H114472   5.342   2.260   4.392 -0.2639 -3.4809 -1.1375
 4822TIP3    H214473   5.490   2.276   4.416 -0.9444 -0.3544  1.7083
 4823TIP3   OH214474   0.419   4.049   2.656 -0.0773  0.5384  0.0010
 4823TIP3    H114475   0.389   3.973   2.606  0.4273  1.0707 -1.1495
 4823TIP3    H214476   0.360   4.054   2.731 -0.0287 -1.0632  0.1637
 4824TIP3   OH214477   2.634   0.258   2.029 -0.8217 -0.4315 -0.0999
 4824TIP3    H114478   2.620   0.207   1.950 -2.5349 -1.0764  0.5633
 4824TIP3    H214479   2.600   0.345   2.008 -1.2060 -0.5822 -0.1124
 4825TIP3   OH214480   3.451   0.220   2.465  0.4253 -0.2393  0.8684
 4825TIP3    H114481   3.377   0.280   2.463 -1.7799 -2.7845 -0.0656
 4825TIP3    H214482   3.474   0.207   2.373 -0.5785 -2.3308  0.8385
 4826TIP3   OH214483   3.276   0.886   1.056  0.0064  0.0143  0.2199
 4826TIP3    H114484   3.332   0.851   1.125  0.4882 -0.5116 -0.4235
 4826TIP3    H214485   3.205   0.822   1.049  0.3315 -0.2966 -0.2467
 4827TIP3   OH214486   4.527   5.061   2.182 -0.5155 -0.0826  0.0020
 4827TIP3    H114487   4.473   5.118   2.237 -0.7711  0.1363 -0.4703
 4827TIP3    H214488   4.472   4.985   2.164 -0.2683 -0.3638  0.4174
 4828TIP3   OH214489   0.046   3.001   0.194  0.3244 -0.3260  0.0648
 4828TIP3    H114490  -0.031   3.056   0.210 -0.1230 -1.1394  0.7797
 4828TIP3    H214491   0.019   2.942   0.125  0.1492 -0.8933  0.6087
 4829TIP3   OH214492   4.001   0.381   4.287 -0.5059  0.1585 -0.9754
 4829TIP3    H114493   4.009   0.466   4.331 -1.2353  1.1181 -2.6100
 4829TIP3    H214494   3.919   0.344   4.321 -0.2711  0.1651 -0.3846
 4830TIP3   OH214495   1.361   4.972   4.563  0.1537  0.0341 -0.2250
 4830TIP3    H114496   1.408   4.952   4.644 -0.1944  1.8075  0.4412
 4830TIP3    H214497   1.421   5.028   4.514  0.0292 -0.3604 -0.8319
 4831TIP3   OH214498   5.746   1.227   4.526  0.3524  0.1153  0.0664
 4831TIP3    H114499   5.803   1.231   4.450 -2.0069 -2.7807 -2.1111
 4831TIP3    H214500   5.783   1.158   4.581  0.3853  0.0819  0.0017
 4832TIP3   OH214501   6.198   0.730   3.819 -0.9335  0.2816  0.4437
 4832TIP3    H114502   6.233   0.641   3.824 -1.3397  0.1668  1.5557
 4832TIP3    H214503   6.222   0.761   3.732  1.9376  0.1856  1.1009
 4833TIP3   OH214504   5.408   5.846   1.577  0.1872 -0.4438 -0.0332
 4833TIP3    H114505   5.445   5.801   1.501 -0.2703 -0.2674 -0.3654
 4833TIP3    H214506   5.457   5.928   1.582 -0.6789  0.1499 -0.9524
 4834TIP3   OH214507   1.548   3.733   3.900  0.0917 -0.5080  0.2987
 4834TIP3    H114508   1.635   3.771   3.893 -0.6571  1.0210 -1.3998
 4834TIP3    H214509   1.539   3.711   3.993  1.3125  1.6834  0.9976
 4835TIP3   OH214510   1.673   4.148   3.769  0.2110  0.0358  0.4686
 4835TIP3    H114511   1.593   4.136   3.820  0.4725 -0.3610  0.7976
 4835TIP3    H214512   1.744   4.135   3.832  0.5423 -0.5692 -0.0094
 4836TIP3   OH214513   1.609   1.382   1.822 -0.4012  0.1819  0.0100
 4836TIP3    H114514   1.595   1.477   1.818  1.6494  0.6560  1.6097
 4836TIP3    H214515   1.673   1.364   1.753  1.9064  0.6934  1.8525
 4837TIP3   OH214516   0.956   5.695   2.716  0.0109 -0.5491  0.5120
 4837TIP3    H114517   0.911   5.639   2.779  0.5807 -0.1656  1.2654
 4837TIP3    H214518   0.885   5.736   2.666 -0.5083  0.0551  1.6893
 4838TIP3   OH214519   4.851   1.363   4.055 -0.2004  0.3178  0.5317
 4838TIP3    H114520   4.845   1.447   4.101 -1.1313  0.3994  0.2826
 4838TIP3    H214521   4.905   1.308   4.112 -0.0989  0.8920  0.9946
 4839TIP3   OH214522   2.459   2.681   0.853  0.2249  0.3433 -0.5266
 4839TIP3    H114523   2.371   2.646   0.839  0.9301 -1.2916 -1.1113
 4839TIP3    H214524   2.515   2.631   0.793  2.2207 -1.6481  2.6598
 4840TIP3   OH214525   5.533   1.746   4.675  0.1194  0.2233  0.2061
 4840TIP3    H114526   5.532   1.654   4.701 -2.1713 -0.1697 -1.0114
 4840TIP3    H214527   5.571   1.746   4.587 -0.3389  0.3394  0.0005
 4841TIP3   OH214528   4.160   2.955   4.670  0.2907  0.5177 -0.3680
 4841TIP3    H114529   4.213   2.933   4.594  0.1924 -0.0861 -0.2621
 4841TIP3    H214530   4.076   2.913   4.654  0.5619 -0.3904  0.4934
 4842TIP3   OH214531   2.297   2.169   4.444 -0.5898 -0.0537 -0.3589
 4842TIP3    H114532   2.265   2.122   4.367  0.1970  0.1827 -0.8426
 4842TIP3    H214533   2.232   2.236   4.461  0.9162  2.2672 -3.0257
 4843TIP3   OH214534   0.737   5.733   1.044  0.0020  0.0548 -0.5403
 4843TIP3    H114535   0.718   5.685   0.964  0.7058  0.0414 -0.7018
 4843TIP3    H214536   0.832   5.726   1.054  0.0804  1.1988 -0.4291
 4844TIP3   OH214537   1.335   0.966   0.486  0.2932 -0.0697 -0.4779
 4844TIP3    H114538   1.263   1.029   0.476 -1.2058 -1.3861  1.3020
 4844TIP3    H214539   1.414   1.017   0.469 -0.9016  2.0897  0.0693
 4845TIP3   OH214540   4.710   3.057   3.344 -0.0935 -0.4495  0.2213
 4845TIP3    H114541   4.675   3.137   3.305  1.5767  0.1700 -0.0892
 4845TIP3    H214542   4.654   3.041   3.420  0.2827  1.7656  1.0395
 4846TIP3   OH214543   4.703   2.359   3.459  0.2340  0.0091  0.2450
 4846TIP3    H114544   4.617   2.383   3.493 -0.2696 -0.2597 -0.8198
 4846TIP3    H214545   4.743   2.443   3.433  0.0549  0.0690  0.1670
 4847TIP3   OH214546   5.172   4.594   3.885  0.0841 -0.2829 -0.2537
 4847TIP3    H114547   5.132   4.547   3.959 -0.6171 -0.1072 -0.5105
 4847TIP3    H214548   5.174   4.686   3.913  0.0581 -0.2526 -0.3515
 4848TIP3   OH214549   0.362   1.068   3.427 -0.0901  0.8454 -0.0377
 4848TIP3    H114550   0.310   0.990   3.447  0.4414  0.6875  0.7861
 4848TIP3    H214551   0.377   1.110   3.512 -0.5406  1.9677 -0.4976
 4849TIP3   OH214552   5.016   1.390   2.860  0.3849  0.0945  0.4595
 4849TIP3    H114553   5.023   1.486   2.857  1.0337  0.0573  0.6695
 4849TIP3    H214554   5.038   1.362   2.771  1.0498  0.0895  0.6257
 4850TIP3   OH214555   3.431   1.158   1.982 -0.0066  0.0871  0.1302
 4850TIP3    H114556   3.397   1.171   2.070  3.2518 -1.3630  1.7781
 4850TIP3    H214557   3.440   1.063   1.973  0.7541  0.2599 -1.3262
 4851TIP3   OH214558   3.227   1.312   2.914 -0.2628  0.2323  0.3786
 4851TIP3    H114559   3.197   1.314   2.823 -1.1898 -1.9568  0.5891
 4851TIP3    H214560   3.323   1.317   2.907 -0.3463  0.6932 -0.6656
 4852TIP3   OH214561   4.460   5.182   3.163 -0.1591  0.0154 -0.2444
 4852TIP3    H114562   4.505   5.232   3.230 -0.7763  0.5324 -0.2075
 4852TIP3    H214563   4.440   5.245   3.094  0.5223 -0.5223 -0.9541
 4853TIP3   OH214564   5.865   4.873   1.871  0.1253  0.4222  0.1810
 4853TIP3    H114565   5.859   4.969   1.869  0.8482  0.5003  1.0400
 4853TIP3    H214566   5.954   4.855   1.902 -0.0438 -0.5249  0.1516
 4854TIP3   OH214567   2.287   5.189   0.333  0.1832 -0.2500  0.5352
 4854TIP3    H114568   2.305   5.101   0.298  1.1977  0.5460 -1.0481
 4854TIP3    H214569   2.210   5.219   0.285  0.0322 -0.1476  0.8409
 4855TIP3   OH214570   4.336   4.958   2.776  0.3409 -0.1320  0.0838
 4855TIP3    H114571   4.390   4.953   2.697  0.1422  0.5920 -0.1086
 4855TIP3    H214572   4.304   4.869   2.789  0.3281 -0.2469 -0.6911
 4856TIP3   OH214573   3.109   4.542   2.595 -0.3575 -0.4309  0.5879
 4856TIP3    H114574   3.040   4.490   2.638 -0.3311  0.2657  1.5210
 4856TIP3    H214575   3.099   4.629   2.634 -0.4870  0.3059 -1.0363
 4857TIP3   OH214576   2.623   0.745   3.315  0.5826  0.2098  0.2655
 4857TIP3    H114577   2.656   0.786   3.394  0.5010 -0.3553  0.5998
 4857TIP3    H214578   2.702   0.724   3.265  0.5856  3.2215 -1.2245
 4858TIP3   OH214579   3.399   2.143   1.204 -0.4988  0.1429  0.5476
 4858TIP3    H114580   3.449   2.100   1.274 -1.3208 -1.0913  0.4166
 4858TIP3    H214581   3.310   2.109   1.215 -0.7670  0.4014 -0.7308
 4859TIP3   OH214582   5.069   3.992   2.839 -0.4370  0.0102 -0.4864
 4859TIP3    H114583   5.017   3.925   2.882 -1.5295  1.0651 -0.0977
 4859TIP3    H214584   5.010   4.029   2.773  1.1801 -1.5795 -2.9878
 4860TIP3   OH214585   1.239   0.576   0.975 -0.4274  0.2013 -0.0503
 4860TIP3    H114586   1.210   0.488   0.998 -2.4321  0.9717  0.5476
 4860TIP3    H214587   1.296   0.602   1.048  0.9876 -0.9154 -0.7040
 4861TIP3   OH214588   1.697   0.552   2.270 -0.0073 -0.3187  0.6897
 4861TIP3    H114589   1.785   0.591   2.269 -0.3858  0.5617 -0.4106
 4861TIP3    H214590   1.703   0.480   2.208  0.1911 -0.8936  1.3594
 4862TIP3   OH214591   0.130   1.833   2.427  0.1017 -0.0489  0.4278
 4862TIP3    H114592   0.190   1.855   2.356 -1.7990  0.9954 -0.9572
 4862TIP3    H214593   0.042   1.845   2.389 -1.0005 -1.2047  2.4339
 4863TIP3   OH214594   1.337   5.738   0.452 -0.6075 -0.2984  0.2397
 4863TIP3    H114595   1.269   5.778   0.398 -0.0526  0.4457  0.0764
 4863TIP3    H214596   1.309   5.753   0.542  0.1689  1.5832  0.2265
 4864TIP3   OH214597   1.972   0.460   2.131  0.3697  0.3381 -0.3430
 4864TIP3    H114598   2.034   0.492   2.197  0.4560  2.0685 -1.2222
 4864TIP3    H214599   1.998   0.502   2.050 -1.8239  0.9807 -0.7898
 4865TIP3   OH214600   5.069   4.596   3.204  0.0873 -0.5205 -0.2512
 4865TIP3    H114601   5.105   4.511   3.227  0.2844 -0.2373  0.5186
 4865TIP3    H214602   5.146   4.650   3.185 -0.0525 -0.6157 -1.1301
 4866TIP3   OH214603   2.384   1.997   1.334  0.3226 -0.0095  0.2460
 4866TIP3    H114604   2.352   2.020   1.422  1.5760  1.2660  0.4201
 4866TIP3    H214605   2.413   2.081   1.298 -0.0492 -0.5471 -1.3528
 4867TIP3   OH214606   6.325   0.310   0.091  0.2554  0.4000  0.4618
 4867TIP3    H114607   6.259   0.368   0.053  0.4387 -1.5321 -3.2469
 4867TIP3    H214608   6.388   0.370   0.132 -2.0980  2.4402  1.3578
 4868TIP3   OH214609   3.411   0.518   0.462 -0.0951  0.3908  0.2324
 4868TIP3    H114610   3.409   0.563   0.377  1.9707  2.4641  1.1668
 4868TIP3    H214611   3.347   0.565   0.516 -0.8632 -0.4416  0.0615
 4869TIP3   OH214612   2.718   3.682   2.887  0.0477  0.2986 -0.2394
 4869TIP3    H114613   2.628   3.710   2.869 -0.5156 -0.3815  1.3626
 4869TIP3    H214614   2.730   3.605   2.832 -0.5789  0.0260 -0.0021
 4870TIP3   OH214615   2.852   5.122   2.653  0.7667  0.4169  0.4971
 4870TIP3    H114616   2.758   5.116   2.637  0.8637  0.3341 -0.0878
 4870TIP3    H214617   2.871   5.216   2.651  0.4174  0.5720  2.4231
 4871TIP3   OH214618   5.684   4.697   5.093 -0.3706 -0.0325  0.3103
 4871TIP3    H114619   5.743   4.638   5.140 -0.6487  0.2781  1.0658
 4871TIP3    H214620   5.685   4.778   5.144 -0.4788  0.4017 -0.3661
 4872TIP3   OH214621   5.151   2.533   4.349  0.1612  0.2534 -0.0345
 4872TIP3    H114622   5.193   2.450   4.372 -0.0434 -0.2711 -1.4766
 4872TIP3    H214623   5.223   2.594   4.337  0.2742  0.8734  2.9070
 4873TIP3   OH214624   1.253   3.877   3.626  0.2263 -0.3955 -0.1933
 4873TIP3    H114625   1.167   3.917   3.637  0.0355 -1.2671  1.8257
 4873TIP3    H214626   1.280   3.853   3.714  2.2834 -0.7139 -0.8554
 4874TIP3   OH214627   3.149   0.191   0.221 -0.2538 -0.5840  0.0321
 4874TIP3    H114628   3.172   0.218   0.310  1.2968 -1.8396  0.0477
 4874TIP3    H214629   3.182   0.262   0.165 -0.5745 -0.1479  0.3919
 4875TIP3   OH214630   2.231   3.749   0.148 -0.0010 -0.1013  0.7096
 4875TIP3    H114631   2.171   3.690   0.103 -0.3431  0.9736 -0.2994
 4875TIP3    H214632   2.187   3.834   0.146  0.9982  0.4437  1.0477
 4876TIP3   OH214633   2.070   0.400   4.053  0.7586 -0.0889  0.3453
 4876TIP3    H114634   1.996   0.436   4.004  1.0197 -0.4117 -0.2995
 4876TIP3    H214635   2.118   0.476   4.084 -0.2000  0.1335  1.3330
 4877TIP3   OH214636   2.670   5.520   0.973  0.3315 -0.2077  0.2326
 4877TIP3    H114637   2.718   5.494   0.894  2.4605  2.9063  0.2890
 4877TIP3    H214638   2.671   5.442   1.029 -1.3127 -2.5445 -2.6964
 4878TIP3   OH214639   2.173   1.794   0.829 -0.3972  0.1912  0.4385
 4878TIP3    H114640   2.090   1.837   0.849 -0.3189 -0.6120  2.9160
 4878TIP3    H214641   2.213   1.850   0.763 -2.2608  1.4064  0.2427
 4879TIP3   OH214642   3.310   4.708   0.203 -0.8948  0.0914 -0.1969
 4879TIP3    H114643   3.343   4.632   0.250  2.4426  0.5743 -1.5050
 4879TIP3    H214644   3.227   4.678   0.165 -0.9798 -1.9902  1.4393
 4880TIP3   OH214645   4.408   1.231   3.742 -0.1651  0.2928  0.0417
 4880TIP3    H114646   4.431   1.220   3.649  0.0939  0.4371  0.0879
 4880TIP3    H214647   4.355   1.310   3.744  0.8012  0.9611  0.1695
 4881TIP3   OH214648   2.236   4.273   1.115  0.1574 -1.0027 -0.6621
 4881TIP3    H114649   2.314   4.261   1.060  0.4796 -0.4914 -0.3196
 4881TIP3    H214650   2.210   4.184   1.138 -0.0647 -1.2335 -1.7521
 4882TIP3   OH214651   5.365   0.708   2.567 -0.1061  0.0624 -0.0253
 4882TIP3    H114652   5.323   0.794   2.578  0.5098  0.1738  1.8147
 4882TIP3    H214653   5.437   0.709   2.629  0.6931 -1.3288 -0.8954
 4883TIP3   OH214654   4.292   3.247   0.107  0.0098  0.0651  0.5703
 4883TIP3    H114655   4.202   3.273   0.124  0.1976  0.2999  1.2538
 4883TIP3    H214656   4.324   3.213   0.191  0.8738  0.9552  0.6281
 4884TIP3   OH214657   3.335   4.681   3.996 -0.2481 -0.1667 -0.0482
 4884TIP3    H114658   3.252   4.644   3.966 -1.0531  1.1609  0.4312
 4884TIP3    H214659   3.309   4.751   4.056  1.2363  0.0898  0.3287
 4885TIP3   OH214660   4.276   5.879   2.913  0.3281  0.3704  0.5037
 4885TIP3    H114661   4.224   5.890   2.993  0.8987  0.3274  0.8967
 4885TIP3    H214662   4.214   5.889   2.841 -0.2084  0.3515  0.9578
 4886TIP3   OH214663   5.084   3.705   2.990 -0.4858  0.0601  0.1024
 4886TIP3    H114664   5.088   3.664   2.904  0.3664  0.3590 -0.0050
 4886TIP3    H214665   4.992   3.734   2.999 -0.2762  1.2709 -1.2883
 4887TIP3   OH214666   3.545   0.876   1.922  0.2325 -0.3076 -0.0551
 4887TIP3    H114667   3.638   0.884   1.900  0.1529 -0.3748 -0.4219
 4887TIP3    H214668   3.532   0.783   1.939  0.2534 -0.2838  0.0891
 4888TIP3   OH214669   2.236   1.705   2.423  1.0116  0.5334 -0.2101
 4888TIP3    H114670   2.282   1.638   2.372 -1.4413 -1.0349 -0.5310
 4888TIP3    H214671   2.156   1.661   2.452  0.0286  2.9146  0.8700
 4889TIP3   OH214672   4.245   4.016   3.434 -0.3872  0.1965 -0.1409
 4889TIP3    H114673   4.190   3.939   3.450 -0.2267  0.1176  0.0288
 4889TIP3    H214674   4.326   3.998   3.481 -0.0136  0.0797 -0.8249
 4890TIP3   OH214675   6.130   0.973   3.134 -0.2295  0.0593  0.1450
 4890TIP3    H114676   6.119   0.962   3.039 -1.2381 -0.3018  0.2915
 4890TIP3    H214677   6.080   1.052   3.154  0.6935  0.6266  0.2573
 4891TIP3   OH214678   0.464   2.061   2.814  0.0598 -0.2007  0.3223
 4891TIP3    H114679   0.371   2.039   2.823 -0.5668  1.6528 -1.0463
 4891TIP3    H214680   0.509   1.998   2.870 -1.9123 -1.9404  0.0655
 4892TIP3   OH214681   3.418   0.817   4.589 -0.4293  0.4199  0.3884
 4892TIP3    H114682   3.469   0.873   4.530 -3.0013  2.2591 -0.2575
 4892TIP3    H214683   3.433   0.728   4.557 -0.6514  1.2469 -2.2200
 4893TIP3   OH214684   6.346   2.832   5.199  0.7265  0.4310 -0.4745
 4893TIP3    H114685   6.312   2.921   5.203 -1.0687 -0.1627 -1.2940
 4893TIP3    H214686   6.360   2.816   5.106 -0.8331 -0.7427 -0.5564
 4894TIP3   OH214687   4.047   5.956   3.407  0.2346  0.5236  0.2566
 4894TIP3    H114688   4.081   5.888   3.466 -0.9983 -0.6984 -0.3834
 4894TIP3    H214689   4.087   6.037   3.439  2.6228 -0.6018  0.3932
 4895TIP3   OH214690   1.623   2.142   4.905  0.1257  0.1233  0.6610
 4895TIP3    H114691   1.581   2.065   4.943 -1.5382  0.0297 -1.2392
 4895TIP3    H214692   1.707   2.148   4.951 -1.4131 -0.3669  3.7960
 4896TIP3   OH214693   0.189   3.637   1.675  0.1923  0.1534 -0.1546
 4896TIP3    H114694   0.202   3.546   1.700  1.9736  0.6618  0.9544
 4896TIP3    H214695   0.127   3.672   1.740  0.6119  0.0837  0.2886
 4897TIP3   OH214696   4.051   0.481   2.536 -0.1706 -0.1197 -0.7872
 4897TIP3    H114697   4.014   0.491   2.448 -0.2866 -0.6033 -0.7952
 4897TIP3    H214698   4.050   0.386   2.552 -2.4549  0.0871  0.7348
 4898TIP3   OH214699   0.293   0.300   2.115  0.3105  0.3368 -0.4402
 4898TIP3    H114700   0.245   0.303   2.032 -1.4508  0.7905  0.5577
 4898TIP3    H214701   0.343   0.382   2.117  1.1543 -0.1095 -1.4503
 4899TIP3   OH214702   0.726   3.964   1.837 -0.1079  0.2490  0.2164
 4899TIP3    H114703   0.701   3.873   1.822  1.4728 -0.4197  1.2886
 4899TIP3    H214704   0.662   3.996   1.901  0.8772 -1.0100  1.9255
 4900TIP3   OH214705   3.767   0.935   1.756  0.3665  0.6136 -0.6909
 4900TIP3    H114706   3.822   0.856   1.762 -0.9974 -0.2440  1.5385
 4900TIP3    H214707   3.792   0.974   1.672  2.1517 -1.3810 -1.1930
 4901TIP3   OH214708   2.198   2.444   4.228  0.1491  0.0177  0.6123
 4901TIP3    H114709   2.287   2.459   4.198 -0.0838 -0.6897 -0.4792
 4901TIP3    H214710   2.151   2.524   4.205  0.3995  0.2286  0.8228
 4902TIP3   OH214711   1.220   5.943   0.312  0.0874  0.2201 -0.6205
 4902TIP3    H114712   1.263   5.945   0.226  0.3333  1.8581 -0.5034
 4902TIP3    H214713   1.153   6.012   0.306  0.5073  0.7698  0.6789
 4903TIP3   OH214714   2.181   5.723   1.736  0.6960  0.1628  0.1243
 4903TIP3    H114715   2.255   5.727   1.675  0.9265  1.7842  0.4816
 4903TIP3    H214716   2.114   5.779   1.697  0.0219 -0.5095  0.3002
 4904TIP3   OH214717   0.891   3.788   4.935 -0.1322 -0.2224  0.1929
 4904TIP3    H114718   0.915   3.874   4.899 -1.0938 -1.2508 -3.2544
 4904TIP3    H214719   0.798   3.796   4.955 -0.0203 -0.2170  0.7229
 4905TIP3   OH214720   1.114   3.623   1.039  0.0020  0.0582  0.4205
 4905TIP3    H114721   1.031   3.666   1.022  0.2323  0.1900 -0.4368
 4905TIP3    H214722   1.123   3.623   1.134  0.1171  2.1151  0.4354
 4906TIP3   OH214723   2.231   4.603   2.131  0.1664 -0.0843 -0.6086
 4906TIP3    H114724   2.220   4.581   2.038 -0.3049  0.4867 -0.6928
 4906TIP3    H214725   2.324   4.621   2.140 -0.2478  3.4544 -1.8191
 4907TIP3   OH214726   1.266   0.755   3.037  0.0996  0.7040 -0.3968
 4907TIP3    H114727   1.274   0.813   2.961 -0.9947  1.3232 -0.0642
 4907TIP3    H214728   1.292   0.810   3.111  1.3096  0.0595 -0.3118
 4908TIP3   OH214729   2.599   1.585   5.036 -0.2030 -0.3058 -0.2199
 4908TIP3    H114730   2.591   1.558   5.127  1.5341  2.2099  0.8006
 4908TIP3    H214731   2.522   1.639   5.019 -0.5157 -0.7595 -0.2363
 4909TIP3   OH214732   4.102   2.843   4.911  0.0197  0.1373 -0.0313
 4909TIP3    H114733   4.121   2.906   4.842  0.3619 -1.0276 -1.0466
 4909TIP3    H214734   4.139   2.882   4.990 -0.4625  1.5409 -0.4787
 4910TIP3   OH214735   2.280   3.317   0.344  0.1006 -0.0184  0.0727
 4910TIP3    H114736   2.296   3.408   0.370  0.5839 -0.1623  0.2998
 4910TIP3    H214737   2.313   3.265   0.417 -0.5990 -0.3666  0.1412
 4911TIP3   OH214738   3.393   1.469   4.245  0.0621 -0.4806  1.1521
 4911TIP3    H114739   3.349   1.420   4.176  1.7324  1.7769 -1.7693
 4911TIP3    H214740   3.479   1.430   4.252  1.4248  1.7629 -1.2336
 4912TIP3   OH214741   5.423   5.770   2.709 -0.1393 -0.2999 -0.6088
 4912TIP3    H114742   5.452   5.837   2.771  0.2851 -3.0405  2.4026
 4912TIP3    H214743   5.499   5.755   2.653 -0.0931  1.3799 -1.0384
 4913TIP3   OH214744   1.604   5.209   2.494 -0.1430  0.5204 -0.1861
 4913TIP3    H114745   1.577   5.120   2.471  1.6474 -0.5089  1.3648
 4913TIP3    H214746   1.554   5.229   2.573 -0.0046  0.5989 -0.1191
 4914TIP3   OH214747   3.854   2.868   3.596  0.1056 -0.2406 -0.1445
 4914TIP3    H114748   3.803   2.801   3.641 -0.1907  0.8807  1.2374
 4914TIP3    H214749   3.788   2.923   3.552  0.2281  0.0942  0.0814
 4915TIP3   OH214750   0.739   5.809   2.003 -0.5303  0.0879  0.0668
 4915TIP3    H114751   0.681   5.758   1.947  0.2395 -0.5580 -0.1603
 4915TIP3    H214752   0.802   5.745   2.037  0.4274  0.8659 -0.1853
 4916TIP3   OH214753   3.656   0.445   0.339  0.5009 -0.3509  0.4148
 4916TIP3    H114754   3.671   0.352   0.354 -0.9065 -0.3929  1.8545
 4916TIP3    H214755   3.563   0.458   0.362 -0.0180  0.9524 -2.1142
 4917TIP3   OH214756   5.032   2.723   0.729 -0.4742 -0.3299 -0.0129
 4917TIP3    H114757   5.098   2.754   0.791 -0.6906 -0.7052  0.4070
 4917TIP3    H214758   5.013   2.633   0.756 -0.4494 -0.5571 -0.7250
 4918TIP3   OH214759   3.767   0.039   2.828  0.3194  0.0837  0.2768
 4918TIP3    H114760   3.714   0.022   2.751  0.1923  3.0261 -0.4331
 4918TIP3    H214761   3.712   0.012   2.902  0.3904 -2.6359 -0.5603
 4919TIP3   OH214762   0.003   3.608   2.619  0.0486 -0.0541  0.1915
 4919TIP3    H114763   0.074   3.543   2.614  0.8324  0.6631  1.5788
 4919TIP3    H214764  -0.059   3.571   2.682 -0.6086 -0.4471 -0.6532
 4920TIP3   OH214765   3.253   1.154   4.414 -0.5752  0.2960 -0.1294
 4920TIP3    H114766   3.228   1.246   4.401 -0.1653  0.4494  0.1502
 4920TIP3    H214767   3.309   1.155   4.492 -2.9759 -0.5992  1.7100
 4921TIP3   OH214768   5.097   3.424   3.466 -0.1534 -0.4732 -0.3415
 4921TIP3    H114769   5.152   3.443   3.390  0.1376  0.3634  0.0665
 4921TIP3    H214770   5.008   3.437   3.434 -0.0345 -0.1591 -0.5599
 4922TIP3   OH214771   2.918   4.627   1.481 -0.0492 -0.5054 -0.0563
 4922TIP3    H114772   2.884   4.542   1.452 -1.4295  0.6007 -1.8971
 4922TIP3    H214773   2.893   4.632   1.573 -0.4741 -1.8294 -0.0655
 4923TIP3   OH214774   5.868   4.760   4.583 -0.6676 -0.6544  0.1580
 4923TIP3    H114775   5.964   4.762   4.574 -0.4338  0.8328  2.2110
 4923TIP3    H214776   5.852   4.699   4.655 -1.3599 -1.4735 -0.6620
 4924TIP3   OH214777   1.756   5.024   1.526  0.2745  0.3702 -0.4167
 4924TIP3    H114778   1.767   5.088   1.455  0.1327  0.3811 -0.4285
 4924TIP3    H214779   1.842   4.982   1.534  0.2525  0.2717 -0.6876
 4925TIP3   OH214780   4.017   4.754   2.456 -0.4031  0.1145  0.3558
 4925TIP3    H114781   3.934   4.772   2.411  0.4715  1.7639 -0.7080
 4925TIP3    H214782   3.996   4.686   2.519 -1.8594 -1.8713 -2.0836
 4926TIP3   OH214783   4.670   2.154   3.272 -0.0743  0.2764 -0.1609
 4926TIP3    H114784   4.618   2.142   3.193 -2.0952 -0.2085  1.1499
 4926TIP3    H214785   4.670   2.248   3.288 -0.1967  0.3175 -0.4122
 4927TIP3   OH214786   2.556   4.208   4.337  0.2268 -0.1264 -0.3989
 4927TIP3    H114787   2.630   4.189   4.279  0.8275  1.0828 -0.0638
 4927TIP3    H214788   2.558   4.303   4.348 -1.7801  0.0214 -0.8904
 4928TIP3   OH214789   6.190   1.491   0.399  0.3963 -0.2326 -0.1133
 4928TIP3    H114790   6.099   1.474   0.424  0.6547 -0.4725  0.7120
 4928TIP3    H214791   6.192   1.584   0.377 -1.4385 -1.2084 -6.4362
 4929TIP3   OH214792   5.311   1.083   2.223 -0.0417  0.1505  0.1176
 4929TIP3    H114793   5.342   1.008   2.273  0.7144  1.0111  0.9863
 4929TIP3    H214794   5.388   1.115   2.176 -0.6240 -0.3186 -1.1974
 4930TIP3   OH214795   1.705   2.082   3.881  0.2075  0.1414 -0.9414
 4930TIP3    H114796   1.662   2.052   3.801  0.2957  0.2605 -1.0342
 4930TIP3    H214797   1.746   2.165   3.856  1.3899 -0.4929 -1.1257
 4931TIP3   OH214798   0.903   0.927   2.889  0.0543 -0.4840  0.4447
 4931TIP3    H114799   0.919   0.970   2.805 -0.5700  1.0900  1.1029
 4931TIP3    H214800   0.814   0.952   2.913  0.3223 -0.6727  1.7133
 4932TIP3   OH214801   1.045   5.655   4.065 -0.1181 -0.0463  0.1529
 4932TIP3    H114802   1.023   5.591   3.996  0.8752 -0.7194  0.4305
 4932TIP3    H214803   0.967   5.710   4.072 -0.0784  0.3617 -1.8591
 4933TIP3   OH214804   1.274   2.573   0.330  0.2690 -0.2285  0.6245
 4933TIP3    H114805   1.320   2.555   0.248 -1.5666  0.1900 -0.5529
 4933TIP3    H214806   1.217   2.647   0.310 -1.4415 -1.1674  1.7928
 4934TIP3   OH214807   0.103   1.111   4.252  0.0901  0.3485  0.0840
 4934TIP3    H114808   0.147   1.186   4.213 -0.6567  0.2320 -1.0040
 4934TIP3    H214809   0.155   1.035   4.222  0.3527  0.3614  0.4978
 4935TIP3   OH214810   5.814   1.058   1.558  0.4813  0.4389  0.2614
 4935TIP3    H114811   5.732   1.101   1.536  0.9966  0.5911 -1.5861
 4935TIP3    H214812   5.809   0.973   1.513  1.3315  0.4707  0.0878
 4936TIP3   OH214813   2.506   0.274   0.361  0.2338  0.1874 -0.0550
 4936TIP3    H114814   2.573   0.214   0.329  1.0975  1.1076 -0.0395
 4936TIP3    H214815   2.452   0.221   0.419 -1.5170 -1.5885 -3.0816
 4937TIP3   OH214816   1.127   1.927   4.163  0.2695 -0.0704  0.5320
 4937TIP3    H114817   1.134   1.877   4.245  0.2464 -1.3593 -0.2312
 4937TIP3    H214818   1.215   1.958   4.147  0.4852 -0.6686  0.5310
 4938TIP3   OH214819   0.127   3.122   1.490 -0.1859 -0.4333 -0.4157
 4938TIP3    H114820   0.136   3.081   1.404  0.9640 -1.9876  0.3900
 4938TIP3    H214821   0.113   3.049   1.550  1.9812  0.2678  1.0903
 4939TIP3   OH214822   0.852   3.879   0.102 -0.2340  0.2430  0.0426
 4939TIP3    H114823   0.853   3.783   0.100  1.3981  0.2249  0.1812
 4939TIP3    H214824   0.860   3.905   0.011  2.0422  0.1850  0.1766
 4940TIP3   OH214825   0.707   2.830   1.363 -0.0574  0.3401  0.2714
 4940TIP3    H114826   0.662   2.826   1.278  0.7050 -1.4454 -0.0838
 4940TIP3    H214827   0.642   2.867   1.423 -0.8802  0.8640 -0.9049
 4941TIP3   OH214828   0.697   5.133   1.502  0.5087  0.2983 -0.2798
 4941TIP3    H114829   0.625   5.175   1.548  0.8444  0.3322  0.2186
 4941TIP3    H214830   0.657   5.058   1.458  0.2046  0.2000  0.1599
 4942TIP3   OH214831   6.075   1.598   4.619  0.4769  0.5784  0.3357
 4942TIP3    H114832   6.032   1.609   4.534  2.6951  0.6109 -0.8397
 4942TIP3    H214833   6.090   1.504   4.625  0.3324  0.5773  0.7206
 4943TIP3   OH214834   2.399   2.530   4.506 -0.7244  0.4489  0.0202
 4943TIP3    H114835   2.308   2.552   4.488 -0.9321  0.7959  1.3737
 4943TIP3    H214836   2.432   2.603   4.558 -0.0474 -0.2670  0.6328
 4944TIP3   OH214837   4.730   5.330   3.329 -0.6594 -0.6798 -0.7452
 4944TIP3    H114838   4.742   5.247   3.374 -1.1218 -1.1996 -1.5443
 4944TIP3    H214839   4.645   5.362   3.360  0.4488  0.5890  1.1966
 4945TIP3   OH214840   1.327   0.424   3.517 -0.3656 -0.4262  0.3356
 4945TIP3    H114841   1.311   0.509   3.559 -2.4676  0.1394 -1.4832
 4945TIP3    H214842   1.417   0.430   3.486  0.7092 -0.2327  3.1442
 4946TIP3   OH214843   1.072   1.064   1.631  0.2390 -0.4299 -0.2587
 4946TIP3    H114844   1.075   1.020   1.716  0.5597 -1.3026 -0.7133
 4946TIP3    H214845   1.095   1.155   1.651 -0.1485 -0.5154  0.6490
 4947TIP3   OH214846   2.002   2.348   2.252  0.2227 -0.7035  0.3098
 4947TIP3    H114847   2.026   2.418   2.191 -1.0824  0.6103  1.2170
 4947TIP3    H214848   2.021   2.384   2.339 -0.5864 -1.4154  0.8029
 4948TIP3   OH214849   4.270   5.348   4.261 -0.6772 -0.2377 -0.0290
 4948TIP3    H114850   4.298   5.391   4.180 -0.8703 -2.8096 -1.5682
 4948TIP3    H214851   4.335   5.374   4.326  0.9662 -0.1013 -1.6514
 4949TIP3   OH214852   1.775   5.309   4.713  0.6396 -0.0098  0.8737
 4949TIP3    H114853   1.792   5.393   4.670  1.3893  0.5159  2.1382
 4949TIP3    H214854   1.859   5.282   4.748  0.7203 -2.0624 -0.7553
 4950TIP3   OH214855   5.442   0.947   3.262  0.1304 -0.9234  0.3752
 4950TIP3    H114856   5.354   0.913   3.246 -0.6335  0.7575  0.8221
 4950TIP3    H214857   5.499   0.885   3.217 -1.3343 -1.4788 -0.8307
 4951TIP3   OH214858   2.337   4.742   1.005 -0.8130  0.5109 -0.1908
 4951TIP3    H114859   2.258   4.687   1.007  0.2930 -1.1499  1.9417
 4951TIP3    H214860   2.408   4.682   0.983  0.2665  1.3149  0.9801
 4952TIP3   OH214861   5.426   3.256   4.726  0.1201 -0.2124 -0.1008
 4952TIP3    H114862   5.502   3.272   4.782 -0.4216  0.1308  0.5454
 4952TIP3    H214863   5.452   3.183   4.671  0.2872 -1.2499  1.3084
 4953TIP3   OH214864   4.295   3.559   4.176  0.0628  0.0549 -0.2381
 4953TIP3    H114865   4.373   3.556   4.120  0.0914 -1.2176 -0.1545
 4953TIP3    H214866   4.324   3.526   4.261 -0.0571  1.6917  0.4732
 4954TIP3   OH214867   3.428   4.577   0.977 -0.2449 -0.4903  0.2581
 4954TIP3    H114868   3.359   4.575   0.911  0.3990  1.4933 -0.5466
 4954TIP3    H214869   3.469   4.491   0.970 -0.6361 -0.5852 -1.4606
 4955TIP3   OH214870   4.145   5.890   3.136  0.0679  0.3934 -0.1133
 4955TIP3    H114871   4.094   5.822   3.181  1.0627 -0.2432  0.0836
 4955TIP3    H214872   4.148   5.962   3.199  2.1499 -0.7933  1.2764
 4956TIP3   OH214873   0.149   5.213   4.268  0.1584  0.0536 -0.5376
 4956TIP3    H114874   0.244   5.210   4.265  0.3076 -0.1427  2.1688
 4956TIP3    H214875   0.121   5.143   4.209  1.7238 -0.7444 -0.3821
 4957TIP3   OH214876   0.675   5.724   2.828 -0.3711  0.6210  0.0791
 4957TIP3    H114877   0.604   5.665   2.805 -1.0108  0.7077  1.7341
 4957TIP3    H214878   0.729   5.675   2.890  1.3198  0.3915 -1.4677
 4958TIP3   OH214879   4.667   5.763   3.333 -0.1378  0.5458 -0.1384
 4958TIP3    H114880   4.721   5.821   3.387 -0.2422  0.2578  0.2785
 4958TIP3    H214881   4.729   5.702   3.293 -0.2918 -1.0453  1.8665
 4959TIP3   OH214882   2.178   1.244   0.575 -0.4414 -0.1306  0.1943
 4959TIP3    H114883   2.232   1.171   0.545 -0.7684  0.0474 -0.8369
 4959TIP3    H214884   2.168   1.229   0.669  1.0507 -0.3973  0.3327
 4960TIP3   OH214885   0.298   3.166   1.028  0.0503 -0.1656  0.2764
 4960TIP3    H114886   0.207   3.191   1.012  0.8636  1.7117 -2.0014
 4960TIP3    H214887   0.311   3.089   0.971  0.1400  0.1799 -0.1766
 4961TIP3   OH214888   3.779   5.268   1.181  0.3721  0.5934 -0.2769
 4961TIP3    H114889   3.722   5.248   1.255 -0.4407  1.6156 -0.5967
 4961TIP3    H214890   3.803   5.183   1.145 -0.1863  0.1243  0.4422
 4962TIP3   OH214891   6.093   4.826   1.990 -0.2394  0.3805  1.1416
 4962TIP3    H114892   6.124   4.894   2.051 -0.7596  1.6953  0.0078
 4962TIP3    H214893   6.173   4.796   1.946  0.0010  0.2519  1.6608
 4963TIP3   OH214894   3.557   1.938   0.072 -0.4822  0.6668  0.1578
 4963TIP3    H114895   3.567   2.017   0.125 -0.8765  0.6328  0.2887
 4963TIP3    H214896   3.505   1.879   0.127 -1.5177  0.9017 -0.5446
 4964TIP3   OH214897   4.511   1.551   1.642  0.0394  0.4446 -0.0651
 4964TIP3    H114898   4.510   1.532   1.736 -2.7339 -2.8887 -0.5667
 4964TIP3    H214899   4.596   1.519   1.612  0.2492 -0.0854  1.0609
 4965TIP3   OH214900   4.625   0.737   3.092 -0.3289  0.3417 -0.2987
 4965TIP3    H114901   4.657   0.733   3.002  0.0199  0.8622 -0.2081
 4965TIP3    H214902   4.668   0.663   3.136 -1.5092 -0.7055 -0.8505
 4966TIP3   OH214903   6.270   1.278   3.128 -0.1733  0.2553 -0.4102
 4966TIP3    H114904   6.339   1.214   3.142  0.1035  0.6772  0.2133
 4966TIP3    H214905   6.305   1.337   3.062  0.6318  1.2441  0.8505
 4967TIP3   OH214906   3.745   3.092   1.132  0.2217  0.1888 -0.2780
 4967TIP3    H114907   3.745   3.034   1.057  3.1783 -0.9824  0.4715
 4967TIP3    H214908   3.679   3.056   1.191  0.0654 -0.7196 -0.9909
 4968TIP3   OH214909   2.939   3.848   4.087  0.1145  0.0497  0.2107
 4968TIP3    H114910   2.880   3.877   4.017 -0.9483 -2.8697 -0.2382
 4968TIP3    H214911   3.013   3.810   4.041  0.2363 -0.3082  0.6979
 4969TIP3   OH214912   4.350   0.701   2.589  0.1724  0.0407 -0.4330
 4969TIP3    H114913   4.329   0.734   2.501  0.5157 -0.7194 -0.8068
 4969TIP3    H214914   4.267   0.707   2.637  0.1716  1.2346 -0.5464
 4970TIP3   OH214915   5.402   2.828   0.331 -0.4995 -0.1262 -0.0157
 4970TIP3    H114916   5.365   2.741   0.346 -1.4872  0.6250  2.4825
 4970TIP3    H214917   5.495   2.819   0.350 -0.4320 -0.8205 -0.6701
 4971TIP3   OH214918   4.756   0.894   2.549 -0.1441 -0.3691  0.0825
 4971TIP3    H114919   4.840   0.862   2.518 -0.3463  1.2585 -2.4548
 4971TIP3    H214920   4.776   0.977   2.593 -0.3339 -0.5120  0.4496
 4972TIP3   OH214921   2.067   4.297   4.243  0.0078  0.3957 -0.2485
 4972TIP3    H114922   2.158   4.326   4.236  0.5935 -1.1242  0.6769
 4972TIP3    H214923   2.025   4.331   4.163  1.1972  1.6980 -0.3582
 4973TIP3   OH214924   6.254   2.238   2.899 -0.1679 -0.3389 -0.6373
 4973TIP3    H114925   6.285   2.149   2.882 -0.1249 -0.8103  1.6168
 4973TIP3    H214926   6.234   2.239   2.993  0.9887  2.3675 -0.3282
 4974TIP3   OH214927   0.632   4.759   3.225  0.0146  0.6994  0.4088
 4974TIP3    H114928   0.625   4.814   3.304  0.9079  0.8343  0.4040
 4974TIP3    H214929   0.652   4.671   3.259 -0.1978  0.6317  0.3596
 4975TIP3   OH214930   2.015   2.567   3.154  0.0250 -0.5666  0.1488
 4975TIP3    H114931   1.970   2.613   3.082  0.1648 -0.5716  0.0595
 4975TIP3    H214932   2.059   2.637   3.202 -0.5441 -0.4895  0.5715
 4976TIP3   OH214933   1.085   5.377   1.692 -0.2589  0.9192 -0.3432
 4976TIP3    H114934   1.099   5.291   1.731 -0.9341  1.3618  0.9119
 4976TIP3    H214935   1.065   5.358   1.600  1.8143 -0.1078 -0.6548
 4977TIP3   OH214936   4.621   0.718   1.646  0.4549  0.0884  0.0830
 4977TIP3    H114937   4.634   0.714   1.552 -0.3063  1.9512 -0.1255
 4977TIP3    H214938   4.559   0.790   1.660 -1.0463 -1.4166  1.8487
 4978TIP3   OH214939   6.247   5.235   1.009  0.0405 -0.9573 -0.0353
 4978TIP3    H114940   6.271   5.326   0.993  1.0433 -1.6266 -2.8818
 4978TIP3    H214941   6.151   5.234   1.004 -0.0419  0.0418  0.8995
 4979TIP3   OH214942   3.220   5.141   1.697  0.3501  0.2462 -0.4804
 4979TIP3    H114943   3.195   5.097   1.778 -2.1876 -0.9148 -1.7705
 4979TIP3    H214944   3.261   5.072   1.644 -2.3457 -0.3856 -1.9495
 4980TIP3   OH214945   0.712   5.049   2.789 -0.1185  0.4057  0.2381
 4980TIP3    H114946   0.803   5.020   2.793  0.2573  1.5204  0.2663
 4980TIP3    H214947   0.668   5.001   2.859  0.7266  0.7699  1.0413
 4981TIP3   OH214948   5.460   3.279   3.489  0.4851  0.4861 -0.2267
 4981TIP3    H114949   5.425   3.193   3.512  2.7018 -0.5297 -0.3532
 4981TIP3    H214950   5.514   3.304   3.564 -0.5048  2.0201  0.0130
 4982TIP3   OH214951   1.412   1.008   4.508 -0.3469 -0.4778 -0.3038
 4982TIP3    H114952   1.400   1.077   4.574 -0.9629  0.6669 -1.5726
 4982TIP3    H214953   1.337   0.949   4.522 -1.1822  0.4407 -0.7596
 4983TIP3   OH214954   2.191   5.421   2.258  0.1370 -0.1092  0.0911
 4983TIP3    H114955   2.109   5.390   2.219  0.0496 -0.2822  0.4048
 4983TIP3    H214956   2.180   5.405   2.352  0.5177 -0.1025  0.1370
 4984TIP3   OH214957   5.456   2.017   1.434 -0.3610  0.2601  0.6168
 4984TIP3    H114958   5.541   1.993   1.470 -0.5637  0.7952  1.4793
 4984TIP3    H214959   5.452   2.113   1.443 -2.0443  0.0525  2.9077
 4985TIP3   OH214960   4.444   0.104   3.288 -0.8003  0.5886  0.0629
 4985TIP3    H114961   4.384   0.159   3.339 -1.9315 -0.7151  0.1771
 4985TIP3    H214962   4.484   0.165   3.225 -2.1694  1.5100  0.0394
 4986TIP3   OH214963   1.624   3.838   1.031 -0.3874  0.5975  0.2147
 4986TIP3    H114964   1.658   3.781   1.100  0.7598 -0.9997 -1.5531
 4986TIP3    H214965   1.702   3.875   0.990 -0.9661  0.5262 -0.9998
 4987TIP3   OH214966   2.988   1.900   4.702  0.3620 -0.2099 -0.1525
 4987TIP3    H114967   3.013   1.986   4.738  2.6272 -0.0556 -1.8932
 4987TIP3    H214968   2.925   1.920   4.632 -2.8808 -0.4190  2.4284
 4988TIP3   OH214969   2.808   5.577   4.394 -0.3081  0.2212 -0.3829
 4988TIP3    H114970   2.848   5.516   4.457  0.3698 -0.9415 -1.8799
 4988TIP3    H214971   2.741   5.623   4.445  0.2882 -0.5829  1.2129
 4989TIP3   OH214972   4.729   2.510   3.742  0.3032  0.4540 -0.3796
 4989TIP3    H114973   4.671   2.435   3.724  1.6846 -0.8643  0.3994
 4989TIP3    H214974   4.713   2.531   3.834  1.1192 -0.0254 -0.1102
 4990TIP3   OH214975   3.994   3.026   0.763 -0.0677  0.6560 -0.0236
 4990TIP3    H114976   4.060   2.980   0.711 -0.1265 -1.7497  1.8967
 4990TIP3    H214977   4.019   3.118   0.757  2.1583  0.0372 -1.1436
 4991TIP3   OH214978   0.264   2.866   0.314  0.4479  0.3536 -0.0326
 4991TIP3    H114979   0.178   2.906   0.301 -0.4809 -0.9449  1.7342
 4991TIP3    H214980   0.325   2.940   0.311 -0.9322  1.5757  0.5898
 4992TIP3   OH214981   4.930   0.622   2.562  0.5573 -0.2772 -0.2986
 4992TIP3    H114982   4.952   0.688   2.497 -0.2721 -0.0051 -0.3132
 4992TIP3    H214983   4.997   0.632   2.630 -0.3677  1.5822  0.4134
 4993TIP3   OH214984   2.928   2.815   0.020  0.5739  0.4604 -0.2497
 4993TIP3    H114985   2.863   2.746   0.009  0.6864  0.0218  1.4648
 4993TIP3    H214986   2.878   2.897   0.015 -0.1222  0.1327  0.9804
 4994TIP3   OH214987   4.658   4.596   1.104  0.1334 -0.2874 -0.5240
 4994TIP3    H114988   4.722   4.659   1.071 -1.2819  1.8064  0.4842
 4994TIP3    H214989   4.607   4.645   1.169 -1.4832 -2.3053 -0.1474
 4995TIP3   OH214990   5.401   0.030   3.507  0.1806 -0.2613 -0.0215
 4995TIP3    H114991   5.463  -0.017   3.562  0.2607 -2.1342 -1.5976
 4995TIP3    H214992   5.455   0.063   3.435 -0.7326 -3.7356 -2.5832
 4996TIP3   OH214993   2.116   3.054   2.150 -0.4229 -0.3253  0.2805
 4996TIP3    H114994   2.129   3.015   2.236 -0.5948 -0.1447  0.3893
 4996TIP3    H214995   2.049   3.122   2.164 -1.0117 -0.8065 -0.1438
 4997TIP3   OH214996   4.895   2.881   1.144 -0.3586  0.0608 -0.2078
 4997TIP3    H114997   4.928   2.905   1.058  0.3573  1.7643  0.4930
 4997TIP3    H214998   4.833   2.951   1.167 -0.3641 -0.2360  0.7533
 4998TIP3   OH214999   5.307   1.450   3.467 -0.0282 -0.1006 -0.0910
 4998TIP3    H115000   5.214   1.458   3.447  0.1563  2.0816 -0.3535
 4998TIP3    H215001   5.314   1.370   3.519 -1.8699 -0.9074 -0.9953
 4999TIP3   OH215002   5.427   4.066   1.362 -0.4470  0.3996 -0.0245
 4999TIP3    H115003   5.393   3.976   1.362 -0.9127  0.5714 -0.3365
 4999TIP3    H215004   5.456   4.081   1.452 -1.9093  0.5139  0.4570
 5000TIP3   OH215005   1.358   1.688   3.060  0.2718  0.2318 -0.2863
 5000TIP3    H115006   1.360   1.777   3.095  3.0006  0.3768 -0.6061
 5000TIP3    H215007   1.277   1.650   3.095 -2.5106  3.6510 -2.3496
 5001TIP3   OH215008   2.859   3.563   2.259 -0.1006  0.1111  0.1570
 5001TIP3    H115009   2.846   3.560   2.353  0.9973  0.7045  0.3409
 5001TIP3    H215010   2.913   3.486   2.240  3.4693  2.3027  0.7001
 5002TIP3   OH215011   2.289   5.653   4.581 -0.4227 -0.4785  0.5283
 5002TIP3    H115012   2.292   5.581   4.644 -1.6731 -0.8985  0.1441
 5002TIP3    H215013   2.251   5.726   4.630 -0.0859 -0.3819  0.6453
 5003TIP3   OH215014   4.693   0.306   0.482 -0.2266  0.1349  0.3237
 5003TIP3    H115015   4.652   0.378   0.433  0.5594  0.5612  0.2896
 5003TIP3    H215016   4.779   0.339   0.507  0.7950 -1.3504 -1.0503
 5004TIP3   OH215017   4.414   4.364   5.165  0.6251  0.1307 -0.7019
 5004TIP3    H115018   4.477   4.420   5.120 -0.4904  0.1291 -2.3498
 5004TIP3    H215019   4.331   4.411   5.160  0.1358 -0.6242 -0.0457
 5005TIP3   OH215020   0.149   3.650   0.296 -0.5725 -0.6449  0.3311
 5005TIP3    H115021   0.232   3.651   0.343 -0.0760  0.7820 -0.4882
 5005TIP3    H215022   0.163   3.589   0.223 -0.0271  0.0003 -0.1197
 5006TIP3   OH215023   2.999   4.533   4.234  0.2068  0.0900  0.9474
 5006TIP3    H115024   2.968   4.616   4.272  0.3649 -0.1028  1.5128
 5006TIP3    H215025   3.051   4.493   4.304  1.6417  0.3491  0.0704
 5007TIP3   OH215026   1.104   1.215   4.139 -0.2800 -0.5026  0.2809
 5007TIP3    H115027   1.034   1.276   4.120 -0.5708 -0.5530  1.1382
 5007TIP3    H215028   1.127   1.232   4.230 -0.1863 -1.4843  0.4549
 5008TIP3   OH215029   0.601   3.544   2.924 -0.3233 -0.0130 -0.1616
 5008TIP3    H115030   0.595   3.635   2.895 -0.3073  1.3041  3.4508
 5008TIP3    H215031   0.686   3.538   2.968 -0.5417 -1.6102  0.1101
 5009TIP3   OH215032   6.206   4.275   0.141 -0.0299 -0.0752 -0.7962
 5009TIP3    H115033   6.122   4.291   0.184  0.6607  2.1210 -0.1055
 5009TIP3    H215034   6.194   4.309   0.052  0.5551  1.8056 -0.2079
 5010TIP3   OH215035   1.821   0.214   2.155  0.5881  0.2636  0.2238
 5010TIP3    H115036   1.860   0.169   2.080  0.8419  0.6849  0.1019
 5010TIP3    H215037   1.873   0.293   2.166 -0.7401  1.2655 -0.4483
 5011TIP3   OH215038   0.980   3.291   2.817 -0.1875 -0.0638  0.2125
 5011TIP3    H115039   1.033   3.215   2.792  1.1352  0.9316 -0.1703
 5011TIP3    H215040   0.981   3.291   2.912  0.2141 -0.2552  0.2105
 5012TIP3   OH215041   0.478   5.259   2.258  0.7158 -0.4694  0.3761
 5012TIP3    H115042   0.562   5.293   2.226 -0.1489  0.6908 -0.7499
 5012TIP3    H215043   0.412   5.307   2.209 -0.6403 -0.8761  1.7163
 5013TIP3   OH215044   3.640   2.742   3.297 -0.4421  0.4135  0.1086
 5013TIP3    H115045   3.712   2.805   3.302 -0.9328  0.9646  0.2617
 5013TIP3    H215046   3.635   2.705   3.386 -1.1327  1.2589  0.4320
 5014TIP3   OH215047   4.538   2.609   2.449 -0.8660  0.4220  0.4110
 5014TIP3    H115048   4.447   2.584   2.457 -0.8967  0.3399 -0.1627
 5014TIP3    H215049   4.541   2.663   2.370  0.1244 -2.2339 -1.5226
 5015TIP3   OH215050   0.948   5.368   4.940 -0.3433  0.1683  0.1976
 5015TIP3    H115051   0.873   5.421   4.966 -1.3115 -1.0922  0.1016
 5015TIP3    H215052   0.992   5.347   5.023  0.2728  1.3879  0.2051
 5016TIP3   OH215053   3.883   5.097   0.651 -0.2361 -0.3232  0.0617
 5016TIP3    H115054   3.797   5.114   0.689 -0.7774 -1.2953 -0.6669
 5016TIP3    H215055   3.906   5.178   0.605 -0.7209 -0.0280  0.3298
 5017TIP3   OH215056   1.137   1.138   5.056 -0.9973  0.2909 -0.1627
 5017TIP3    H115057   1.199   1.078   5.099 -1.4457  1.6913  2.7010
 5017TIP3    H215058   1.055   1.089   5.054 -0.7971 -0.0567 -0.0283
 5018TIP3   OH215059   5.224   5.718   0.650  0.0721  0.7163 -0.1608
 5018TIP3    H115060   5.279   5.750   0.577 -0.9312 -0.5204 -1.5163
 5018TIP3    H215061   5.221   5.623   0.637 -0.4564  0.5239  1.2879
 5019TIP3   OH215062   1.656   1.160   2.504 -0.3099 -0.5152  0.6756
 5019TIP3    H115063   1.566   1.130   2.516 -0.3138 -0.9873 -0.4348
 5019TIP3    H215064   1.685   1.119   2.422  1.1717 -0.9772  1.3935
 5020TIP3   OH215065   3.862   5.606   4.546  0.0073  0.1781  0.2184
 5020TIP3    H115066   3.779   5.644   4.577 -0.3318  0.7969 -1.3509
 5020TIP3    H215067   3.843   5.579   4.457  1.5461  0.4468 -0.2072
 5021TIP3   OH215068   4.128   3.227   3.177 -0.1325 -0.1475  0.0497
 5021TIP3    H115069   4.209   3.251   3.131  1.1620 -0.0244  2.2185
 5021TIP3    H215070   4.116   3.134   3.158 -0.2424  0.1208 -1.3260
 5022TIP3   OH215071   1.624   3.873   4.939 -0.3614  0.1243 -0.2741
 5022TIP3    H115072   1.675   3.954   4.932 -2.2907  1.2928 -1.7610
 5022TIP3    H215073   1.534   3.899   4.919 -0.9951 -2.4463 -1.1683
 5023TIP3   OH215074   6.005   4.044   3.101 -0.0620  0.5993  0.2740
 5023TIP3    H115075   6.018   3.991   3.022  1.3305  1.4525 -0.1036
 5023TIP3    H215076   5.915   4.024   3.129 -0.2404 -0.4560 -0.9625
 5024TIP3   OH215077   5.141   1.095   1.081 -0.0720 -0.0747  0.0458
 5024TIP3    H115078   5.113   1.176   1.125 -0.2863  0.3611 -0.8636
 5024TIP3    H215079   5.185   1.045   1.149 -1.2057  0.1669  0.9931
 5025TIP3   OH215080   3.686   5.000   1.924 -0.5367  0.0587  0.7913
 5025TIP3    H115081   3.713   5.087   1.896 -1.4521 -0.6521 -2.9248
 5025TIP3    H215082   3.631   5.015   2.001 -0.0360  2.6535  0.7314
 5026TIP3   OH215083   6.304   3.143   2.125  0.4867  0.0254  0.2476
 5026TIP3    H115084   6.241   3.210   2.151  0.7282  0.2682  0.2180
 5026TIP3    H215085   6.278   3.065   2.173  1.4029  0.6587  1.8777
 5027TIP3   OH215086   0.527   5.611   5.143 -0.1248  0.4340 -0.5738
 5027TIP3    H115087   0.534   5.667   5.220 -1.6677  0.1967 -0.2384
 5027TIP3    H215088   0.438   5.577   5.145  0.1369 -0.4230 -1.8902
 5028TIP3   OH215089   5.183   1.001   4.595 -0.3382 -0.2777 -0.5294
 5028TIP3    H115090   5.278   0.991   4.604 -0.3731 -0.9839 -0.8630
 5028TIP3    H215091   5.163   1.082   4.642  0.3793 -0.3202 -0.1326
 5029TIP3   OH215092   4.336   0.423   0.195 -0.4067  0.0813  0.1645
 5029TIP3    H115093   4.246   0.441   0.222  0.1663  0.8905  1.6528
 5029TIP3    H215094   4.342   0.461   0.107 -1.4874  0.1097  0.0879
 5030TIP3   OH215095   5.798   1.742   1.401  0.2975  0.0122  0.7460
 5030TIP3    H115096   5.803   1.779   1.313  0.0399  2.6122  1.7564
 5030TIP3    H215097   5.713   1.697   1.403  0.5604 -0.5828 -0.4705
 5031TIP3   OH215098   3.393   3.792   4.787  0.0715 -0.5612  0.2011
 5031TIP3    H115099   3.411   3.709   4.831  0.7014  0.7584  2.5910
 5031TIP3    H215100   3.298   3.795   4.778 -0.0483 -1.0108  1.2285
 5032TIP3   OH215101   0.140   0.091   4.393 -0.5360  0.3224  0.4502
 5032TIP3    H115102   0.081   0.072   4.466 -0.2473  0.8477  0.8292
 5032TIP3    H215103   0.180   0.175   4.415 -1.3790  1.1269 -0.9154
 5033TIP3   OH215104   1.304   2.661   2.795 -0.0001 -0.1854 -0.4694
 5033TIP3    H115105   1.217   2.686   2.762 -0.0676 -0.5404 -0.5597
 5033TIP3    H215106   1.360   2.734   2.770 -0.2139 -0.0847 -0.6649
 5034TIP3   OH215107   4.237   4.038   1.439 -0.2910  0.5217 -0.5052
 5034TIP3    H115108   4.178   4.061   1.511  0.3751  0.7499 -0.0165
 5034TIP3    H215109   4.184   4.048   1.360 -1.5064 -1.2634  0.0196
 5035TIP3   OH215110   1.180   4.519   4.578  0.5674 -0.7013 -0.5018
 5035TIP3    H115111   1.127   4.564   4.643 -1.3447 -2.1030 -1.0075
 5035TIP3    H215112   1.249   4.476   4.629  0.4523  0.0651  0.3223
 5036TIP3   OH215113   4.997   0.670   3.842 -0.1615 -0.2381 -0.0474
 5036TIP3    H115114   5.084   0.634   3.859 -0.0049  0.1835  0.0694
 5036TIP3    H215115   4.950   0.600   3.797  0.6802  0.0080 -1.3622
 5037TIP3   OH215116   5.869   3.356   0.211 -0.1022  0.0200  0.0661
 5037TIP3    H115117   5.872   3.450   0.194  0.2717 -0.0555 -0.3015
 5037TIP3    H215118   5.811   3.320   0.144  1.0725 -0.2265 -0.8527
 5038TIP3   OH215119   4.235   0.235   1.901 -0.0171 -0.1691  0.8809
 5038TIP3    H115120   4.296   0.278   1.961  1.2741 -0.9000  0.1372
 5038TIP3    H215121   4.255   0.141   1.909 -0.6195 -0.3710  0.1614
 5039TIP3   OH215122   1.429   1.280   2.249  0.1398  0.2499 -0.0043
 5039TIP3    H115123   1.365   1.288   2.179 -1.1023 -0.1851  1.0370
 5039TIP3    H215124   1.480   1.201   2.227 -1.2624 -0.7925  0.3494
 5040TIP3   OH215125   0.437   0.654   1.224  0.0353 -0.0020  0.2516
 5040TIP3    H115126   0.396   0.684   1.305  0.9793 -0.5782  0.9675
 5040TIP3    H215127   0.522   0.620   1.251  0.0322 -0.9855 -0.8587
 5041TIP3   OH215128   2.743   5.386   4.842 -0.7546 -0.4469 -0.4018
 5041TIP3    H115129   2.780   5.320   4.783 -1.0073  0.0867 -1.1818
 5041TIP3    H215130   2.703   5.450   4.783 -1.4114 -0.1316  0.3753
 5042TIP3   OH215131   0.831   1.546   0.479 -0.6022  0.0257 -0.1000
 5042TIP3    H115132   0.906   1.523   0.424 -0.7258  0.6076 -0.5323
 5042TIP3    H215133   0.757   1.499   0.439 -0.7376  0.6431 -0.5944
 5043TIP3   OH215134   3.385   3.255   1.892 -0.4465  0.7736  0.5986
 5043TIP3    H115135   3.404   3.297   1.976  0.1978  0.4987  0.5979
 5043TIP3    H215136   3.290   3.249   1.889 -0.5349 -3.3996  3.4298
 5044TIP3   OH215137   1.560   0.460   0.340  0.1281 -0.0301  1.0451
 5044TIP3    H115138   1.650   0.486   0.322 -0.6695  2.4622  0.2567
 5044TIP3    H215139   1.536   0.508   0.419 -0.9146  0.4053  0.4907
 5045TIP3   OH215140   1.086   4.279   4.497 -0.3903  0.2880 -0.6277
 5045TIP3    H115141   1.038   4.242   4.572 -1.4266  1.1473 -0.8377
 5045TIP3    H215142   1.142   4.346   4.536  0.2895 -0.3719 -0.4416
 5046TIP3   OH215143   4.549   4.449   0.386  0.1227 -0.1644  1.2382
 5046TIP3    H115144   4.587   4.405   0.462  2.2868  0.7986  0.8082
 5046TIP3    H215145   4.598   4.414   0.311 -0.7390  0.1904  0.4922
 5047TIP3   OH215146   1.251   5.389   4.589  0.2069  0.4327 -0.8887
 5047TIP3    H115147   1.178   5.448   4.610  0.2725 -0.0394  0.7653
 5047TIP3    H215148   1.274   5.348   4.672  1.5040 -0.4226 -1.6337
 5048TIP3   OH215149   4.911   1.963   1.337  0.0808 -0.1710 -0.0444
 5048TIP3    H115150   4.924   1.995   1.427  0.3091  0.3778 -0.2671
 5048TIP3    H215151   4.819   1.935   1.336 -0.4894  1.5416 -0.1337
 5049TIP3   OH215152   0.591   2.584   0.842  0.0200  0.3688 -0.4221
 5049TIP3    H115153   0.598   2.606   0.749 -0.6205  0.7908 -0.3775
 5049TIP3    H215154   0.497   2.568   0.855  0.1680 -0.1172  0.0595
 5050TIP3   OH215155   0.162   2.637   3.100 -0.2496 -0.4151  0.6061
 5050TIP3    H115156   0.073   2.670   3.093  0.3789  1.1196 -1.0559
 5050TIP3    H215157   0.211   2.686   3.034  1.2926 -3.0881 -0.3927
 5051TIP3   OH215158   3.357   2.154   4.715 -0.1690  0.3033 -0.0680
 5051TIP3    H115159   3.276   2.205   4.706 -0.5078 -0.2945 -0.5114
 5051TIP3    H215160   3.365   2.108   4.631 -1.5821 -2.8545  1.3758
 5052TIP3   OH215161   0.281   5.478   2.212  0.7232  0.5957  0.1359
 5052TIP3    H115162   0.234   5.396   2.226  0.9870  0.3531 -0.3618
 5052TIP3    H215163   0.270   5.526   2.294 -2.5372  1.6724 -0.8245
 5053TIP3   OH215164   4.901   0.819   4.710  0.4819  0.3607 -0.0867
 5053TIP3    H115165   4.892   0.904   4.753 -0.2273 -0.0676  0.6347
 5053TIP3    H215166   4.994   0.797   4.722  0.2908  0.2281  1.2812
 5054TIP3   OH215167   3.947   1.417   3.635  0.6159 -0.4219 -0.0579
 5054TIP3    H115168   3.878   1.352   3.631  0.9190 -0.7145 -0.7067
 5054TIP3    H215169   3.919   1.486   3.575 -0.3424  0.7124  1.5933
 5055TIP3   OH215170   0.082   4.310   3.912 -0.0953 -0.1250 -0.1102
 5055TIP3    H115171   0.047   4.264   3.989  0.1449  1.2313  0.8464
 5055TIP3    H215172   0.135   4.381   3.949 -0.0958  0.6449 -1.5404
 5056TIP3   OH215173   1.798   3.147   0.228 -0.3062 -0.0617  0.3342
 5056TIP3    H115174   1.727   3.192   0.273  0.0772  1.1406 -0.2044
 5056TIP3    H215175   1.859   3.122   0.298 -1.3528 -1.3418  0.8233
 5057TIP3   OH215176   2.337   2.081   4.719  0.0257  0.0774 -0.4193
 5057TIP3    H115177   2.318   2.132   4.640 -0.5394 -0.9800 -0.9997
 5057TIP3    H215178   2.418   2.118   4.753 -0.6271  1.6729 -0.5258
 5058TIP3   OH215179   5.245   3.511   3.887  0.6807  0.3304  0.2255
 5058TIP3    H115180   5.181   3.517   3.959 -0.1454  0.1053 -0.4753
 5058TIP3    H215181   5.216   3.436   3.836  0.8189  0.9535 -0.7785
 5059TIP3   OH215182   4.556   5.505   4.688 -0.8080 -0.0996  0.6530
 5059TIP3    H115183   4.578   5.415   4.710  0.2032  0.0725  0.4103
 5059TIP3    H215184   4.545   5.548   4.773 -1.2691 -0.4409  0.7693
 5060TIP3   OH215185   1.290   0.841   4.761 -0.1827  0.1707  0.0249
 5060TIP3    H115186   1.199   0.857   4.787 -0.1832  1.0557 -0.4846
 5060TIP3    H215187   1.338   0.916   4.797  0.0566  0.6214 -1.2005
 5061TIP3   OH215188   1.257   0.534   0.168 -0.1747  0.6999 -0.0871
 5061TIP3    H115189   1.303   0.582   0.237  1.8647 -0.4046 -0.6001
 5061TIP3    H215190   1.261   0.442   0.196 -1.1750  0.4563 -0.6873
 5062TIP3   OH215191   0.186   3.660   0.604  0.2917 -0.0889  0.2270
 5062TIP3    H115192   0.209   3.712   0.681 -0.9529 -0.4569  0.8635
 5062TIP3    H215193   0.261   3.672   0.545  1.1335  0.4397  1.3528
 5063TIP3   OH215194   3.227   3.048   0.225 -0.2122  0.2063  0.0946
 5063TIP3    H115195   3.192   3.059   0.137  0.1200  0.6573  0.0131
 5063TIP3    H215196   3.158   3.001   0.273 -0.0943 -0.6871 -0.5930
 5064TIP3   OH215197   6.253   4.943   2.663  0.1756  0.3348 -0.3058
 5064TIP3    H115198   6.302   4.915   2.586  1.4264  1.9384 -0.1403
 5064TIP3    H215199   6.179   4.991   2.628  0.2832  0.3518 -0.5104
 5065TIP3   OH215200   4.476   3.149   1.073 -0.9111  0.3898 -0.4377
 5065TIP3    H115201   4.489   3.055   1.063 -1.0496  0.4096 -0.8086
 5065TIP3    H215202   4.561   3.182   1.102 -0.9383  0.1146 -0.0330
 5066TIP3   OH215203   4.575   2.424   0.196  0.0027  0.1525 -0.3427
 5066TIP3    H115204   4.569   2.499   0.256  1.7323 -1.2318  1.6947
 5066TIP3    H215205   4.571   2.463   0.109  0.6127  2.5937  0.6401
 5067TIP3   OH215206   6.317   5.198   3.153  0.3131 -0.3290  0.2546
 5067TIP3    H115207   6.267   5.280   3.155 -0.0678 -0.5711  1.0614
 5067TIP3    H215208   6.294   5.157   3.070  0.5530  0.4028 -0.1851
 5068TIP3   OH215209   0.437   5.328   1.993 -0.5806  0.4024  0.2035
 5068TIP3    H115210   0.503   5.263   1.969 -0.6318 -0.1534  1.4622
 5068TIP3    H215211   0.357   5.298   1.952 -0.6968 -0.5843  1.1267
 5069TIP3   OH215212   5.305   2.227   0.281  0.5224  0.8754 -0.0755
 5069TIP3    H115213   5.306   2.274   0.364  1.2462  1.2455 -0.2907
 5069TIP3    H215214   5.234   2.269   0.231 -0.1237  0.4449  0.4607
 5070TIP3   OH215215   2.348   4.010   1.287 -0.0925 -0.3019  0.3770
 5070TIP3    H115216   2.410   3.974   1.224  0.3326  0.8357  0.1293
 5070TIP3    H215217   2.399   4.021   1.367  0.1563  1.0239  0.0539
 5071TIP3   OH215218   3.034   0.546   2.748  0.7676 -0.1925  0.3373
 5071TIP3    H115219   2.984   0.527   2.669  1.1441 -1.9084  0.4824
 5071TIP3    H215220   3.106   0.602   2.717  1.9493 -2.2920 -0.9080
 5072TIP3   OH215221   1.849   2.093   0.487  0.2533  0.2929  0.0083
 5072TIP3    H115222   1.929   2.070   0.533 -0.2521 -0.2290  0.6355
 5072TIP3    H215223   1.875   2.096   0.395  1.2311  1.1708  0.2879
 5073TIP3   OH215224   2.247   5.886   4.767  0.2612 -0.4602 -0.2572
 5073TIP3    H115225   2.333   5.921   4.745  0.1586  0.3202  0.5551
 5073TIP3    H215226   2.190   5.917   4.697  0.7629 -1.5998 -1.2096
 5074TIP3   OH215227   3.358   0.258   2.127  0.0165 -0.4772 -0.3155
 5074TIP3    H115228   3.366   0.179   2.181  0.3969 -1.1890 -1.3675
 5074TIP3    H215229   3.401   0.234   2.045 -0.5775  0.5598 -0.9423
 5075TIP3   OH215230   1.546   0.980   2.262  0.2578 -0.1399  0.2388
 5075TIP3    H115231   1.561   0.889   2.239 -0.3979 -0.1795 -0.0471
 5075TIP3    H215232   1.631   1.023   2.248  0.8644 -0.8985  1.3816
 5076TIP3   OH215233   6.224   3.720   3.784 -0.9031  0.2536  0.1115
 5076TIP3    H115234   6.175   3.643   3.755 -0.5285  0.8304 -2.2416
 5076TIP3    H215235   6.158   3.779   3.819 -1.3572 -0.5868  0.6976
 5077TIP3   OH215236   3.759   1.532   2.967  0.0475 -0.3082 -0.0475
 5077TIP3    H115237   3.729   1.467   3.030 -0.4796  0.1896  0.2249
 5077TIP3    H215238   3.836   1.493   2.927 -0.0646 -0.9541  0.3564
 5078TIP3   OH215239   2.827   1.602   3.443 -0.1518  0.4180  0.4006
 5078TIP3    H115240   2.827   1.636   3.354 -0.3883  0.2053  0.3165
 5078TIP3    H215241   2.911   1.630   3.480  0.5320 -0.6016 -0.3193
 5079TIP3   OH215242   5.176   3.649   2.470  0.4148  0.0149 -0.1842
 5079TIP3    H115243   5.186   3.569   2.417 -2.4008 -0.6790  0.1768
 5079TIP3    H215244   5.153   3.717   2.406 -0.6224 -0.2819 -0.1423
 5080TIP3   OH215245   6.261   2.846   1.355 -0.4566  0.4984 -0.3207
 5080TIP3    H115246   6.350   2.815   1.371 -0.1279  1.5392 -0.0136
 5080TIP3    H215247   6.245   2.828   1.262 -0.1554 -0.2446 -0.2289
 5081TIP3   OH215248   6.132   5.731   0.115 -0.1014  0.0957 -0.5682
 5081TIP3    H115249   6.193   5.800   0.091 -0.8427  0.6928 -0.7732
 5081TIP3    H215250   6.188   5.655   0.133  1.0266  1.5508  2.8270
 5082TIP3   OH215251   4.312   4.252   2.903  0.1781 -0.1948  0.0010
 5082TIP3    H115252   4.265   4.301   2.971 -0.4825  1.2664 -1.4449
 5082TIP3    H215253   4.266   4.169   2.896 -1.9329  0.9958 -1.0148
 5083TIP3   OH215254   5.471   5.224   4.697 -0.2080 -0.4339  0.0157
 5083TIP3    H115255   5.479   5.224   4.793 -3.0602  0.5642  0.3376
 5083TIP3    H215256   5.497   5.312   4.671 -1.7408  0.0831  0.1666
 5084TIP3   OH215257   1.760   5.088   1.879 -0.5246 -0.0150  0.1916
 5084TIP3    H115258   1.812   5.157   1.837  0.5636 -0.0138  1.4641
 5084TIP3    H215259   1.680   5.132   1.907 -0.3594  0.4542 -0.0618
 5085TIP3   OH215260   0.347   4.487   0.147  0.5084 -0.4443 -0.0484
 5085TIP3    H115261   0.281   4.449   0.205 -0.4956  0.9329 -0.2474
 5085TIP3    H215262   0.389   4.411   0.106 -1.9883 -1.3725 -1.0571
 5086TIP3   OH215263   2.475   3.663   0.736 -0.1026 -0.4168  0.5401
 5086TIP3    H115264   2.535   3.726   0.777 -0.3890  0.1369  0.1278
 5086TIP3    H215265   2.509   3.653   0.647 -2.4376  2.4808 -0.8501
 5087TIP3   OH215266   1.549   0.205   1.748 -0.2742 -0.4040  0.1857
 5087TIP3    H115267   1.464   0.248   1.751 -0.5482 -0.9144 -0.2265
 5087TIP3    H215268   1.531   0.113   1.766 -0.0685 -0.8675 -1.7585
 5088TIP3   OH215269   4.805   0.826   3.972  0.4308 -0.1447  0.3411
 5088TIP3    H115270   4.853   0.878   4.036  0.4731 -2.1168  2.0043
 5088TIP3    H215271   4.872   0.796   3.910  0.4912  1.2000 -0.2961
 5089TIP3   OH215272   5.808   4.846   1.608 -0.1949 -0.3874 -0.1727
 5089TIP3    H115273   5.721   4.829   1.644 -0.6441 -0.2964 -1.1916
 5089TIP3    H215274   5.866   4.847   1.685 -1.1575  0.0554  0.5607
 5090TIP3   OH215275   2.635   4.060   4.572 -0.2899  0.1295 -0.2619
 5090TIP3    H115276   2.720   4.086   4.609  0.1377  0.5925 -1.5106
 5090TIP3    H215277   2.627   4.112   4.492 -2.8104  1.8175  0.9685
 5091TIP3   OH215278   5.595   3.834   4.039 -0.0672  0.2348  0.1554
 5091TIP3    H115279   5.518   3.857   3.987 -0.1881 -0.1929  0.1431
 5091TIP3    H215280   5.631   3.756   3.996  0.1047  0.1584  0.4355
 5092TIP3   OH215281   0.029   1.295   2.326 -0.6652  0.2374 -0.0740
 5092TIP3    H115282   0.062   1.323   2.241 -1.0549  0.5291 -0.1301
 5092TIP3    H215283   0.053   1.365   2.386  0.4517 -0.3947  0.2564
 5093TIP3   OH215284   3.764   1.918   4.131 -0.3387 -0.1984  0.4738
 5093TIP3    H115285   3.677   1.878   4.138 -0.0265 -1.0039 -0.1060
 5093TIP3    H215286   3.762   1.990   4.194 -1.9562  0.8043 -0.6542
 5094TIP3   OH215287   6.124   5.156   3.400 -0.2754  0.0073 -0.0449
 5094TIP3    H115288   6.085   5.077   3.364 -0.7627  0.0522  0.3680
 5094TIP3    H215289   6.204   5.170   3.349 -0.9292  0.0558 -1.0709
 5095TIP3   OH215290   0.921   2.871   1.514  0.0901 -0.5412  0.4963
 5095TIP3    H115291   0.835   2.849   1.479 -0.0520  0.0495  0.4717
 5095TIP3    H215292   0.942   2.956   1.476  0.8568 -0.8468  0.1965
 5096TIP3   OH215293   3.843   3.616   0.451 -0.6232 -0.4191 -0.5038
 5096TIP3    H115294   3.785   3.674   0.402 -0.3388  0.4608  0.1733
 5096TIP3    H215295   3.792   3.592   0.529 -0.2261  0.0722 -0.0831
 5097TIP3   OH215296   1.992   3.059   3.817  0.2022 -0.1844  0.1143
 5097TIP3    H115297   2.016   2.967   3.810 -0.2717 -0.2741 -0.3535
 5097TIP3    H215298   2.067   3.106   3.780  1.2533 -0.2724  1.9991
 5098TIP3   OH215299   5.441   3.660   2.323  0.4004  0.2746 -0.4576
 5098TIP3    H115300   5.380   3.702   2.263 -1.0043  0.5576  1.0882
 5098TIP3    H215301   5.387   3.632   2.396  1.6614 -2.2090 -0.3781
 5099TIP3   OH215302   2.288   0.149   2.009  0.4753 -0.1603  0.2020
 5099TIP3    H115303   2.322   0.145   2.099  0.2112 -1.4730  0.2654
 5099TIP3    H215304   2.226   0.077   2.004  0.1159  0.2124 -0.8965
 5100TIP3   OH215305   4.033   0.686   3.527  0.1869  0.1557 -0.3548
 5100TIP3    H115306   4.071   0.762   3.572  0.0807 -0.6521  1.1566
 5100TIP3    H215307   4.108   0.638   3.493  0.4493 -0.5261  1.1295
 5101TIP3   OH215308   3.128   5.360   2.974  0.1680 -0.4017 -0.1214
 5101TIP3    H115309   3.081   5.409   3.041  0.5467 -0.0800 -0.0866
 5101TIP3    H215310   3.075   5.282   2.960  0.5008 -0.8672  1.1191
 5102TIP3   OH215311   5.636   3.617   0.163  0.3380 -0.8140  0.2639
 5102TIP3    H115312   5.561   3.631   0.105  0.3113  1.8778  0.8198
 5102TIP3    H215313   5.605   3.554   0.228 -1.2529 -0.2259  0.1226
 5103TIP3   OH215314   2.557   2.091   4.457  0.4473  0.6036  0.3237
 5103TIP3    H115315   2.600   2.176   4.470 -0.3603  0.9704  0.6608
 5103TIP3    H215316   2.467   2.113   4.434 -0.2267 -0.1630  2.0590
 5104TIP3   OH215317   0.404   3.911   0.397  0.0449  0.2527 -0.2074
 5104TIP3    H115318   0.462   3.880   0.467  0.6261  0.9349 -0.3854
 5104TIP3    H215319   0.462   3.952   0.334 -0.7695  2.4119  0.3799
 5105TIP3   OH215320   4.942   0.642   0.275 -0.0669  0.4592 -0.4471
 5105TIP3    H115321   4.894   0.600   0.346 -1.3596  1.2425 -0.8185
 5105TIP3    H215322   5.020   0.588   0.263 -0.2017 -0.1040  1.0563
 5106TIP3   OH215323   2.946   0.257   0.453 -0.4252 -0.3650 -0.1169
 5106TIP3    H115324   2.893   0.208   0.516 -0.7980  0.5875  0.3225
 5106TIP3    H215325   3.026   0.206   0.445 -0.0366 -0.1121  1.7283
 5107TIP3   OH215326   4.977   4.678   4.140 -0.6881  0.6872 -0.2243
 5107TIP3    H115327   4.894   4.647   4.103 -0.6109 -0.0986  0.2210
 5107TIP3    H215328   5.018   4.727   4.069 -0.7400 -0.4209 -1.0535
 5108TIP3   OH215329   5.696   5.612   2.325  0.0491 -0.0116  0.0359
 5108TIP3    H115330   5.731   5.679   2.266 -0.0662 -2.0753 -2.5405
 5108TIP3    H215331   5.754   5.537   2.313 -1.2039 -1.1726  0.9796
 5109TIP3   OH215332   4.211   4.501   4.276  0.0910 -0.0494 -0.6760
 5109TIP3    H115333   4.298   4.468   4.254  0.0555 -0.5007 -0.1508
 5109TIP3    H215334   4.204   4.585   4.229  0.5099 -0.3770 -1.3311
 5110TIP3   OH215335   5.910   1.186   5.009  0.2502  0.0066 -0.3696
 5110TIP3    H115336   5.841   1.120   4.997  0.1280  0.1605 -0.5255
 5110TIP3    H215337   5.863   1.270   5.012  0.2532 -0.0096  1.3391
 5111TIP3   OH215338   1.681   1.442   2.443  0.1039  0.2501  1.0118
 5111TIP3    H115339   1.740   1.435   2.368 -0.4763  0.6733  0.5084
 5111TIP3    H215340   1.660   1.351   2.464 -1.3646  0.1349 -0.6794
 5112TIP3   OH215341   2.734   4.275   4.149  0.3957 -0.2292  0.1212
 5112TIP3    H115342   2.786   4.222   4.209 -1.9489 -1.8655  0.8807
 5112TIP3    H215343   2.797   4.334   4.107  2.9850 -2.8288  0.0721
 5113TIP3   OH215344   4.567   0.863   2.202 -0.1205  0.2640 -0.1090
 5113TIP3    H115345   4.527   0.943   2.234 -0.2339  0.2336 -0.1742
 5113TIP3    H215346   4.600   0.819   2.281  0.3000  0.5657 -0.1138
 5114TIP3   OH215347   5.023   5.716   1.876 -0.0888 -0.4992  0.2496
 5114TIP3    H115348   5.004   5.805   1.904  0.8322  0.1987 -1.1956
 5114TIP3    H215349   4.944   5.666   1.899 -1.2291  0.9947 -0.2096
 5115TIP3   OH215350   3.921   1.083   5.165  1.1207  0.3094 -0.2748
 5115TIP3    H115351   3.974   1.006   5.143  0.2495 -0.9040  1.6052
 5115TIP3    H215352   3.985   1.151   5.187  1.8954 -0.4901  0.0012
 5116TIP3   OH215353   5.317   2.570   2.104  0.1059  0.4742  0.0791
 5116TIP3    H115354   5.288   2.642   2.160 -0.2178  0.8801 -0.5931
 5116TIP3    H215355   5.375   2.612   2.040 -0.2308  0.1680 -0.4294
 5117TIP3   OH215356   3.708   0.484   0.071  0.0845  0.4181 -0.0020
 5117TIP3    H115357   3.672   0.468   0.159  1.3662 -0.7501  0.3628
 5117TIP3    H215358   3.774   0.552   0.085 -1.1195  1.7288 -0.4642
 5118TIP3   OH215359   0.978   4.710   3.891 -0.1417  0.2982  0.0318
 5118TIP3    H115360   0.958   4.678   3.803 -3.0510 -0.5293  0.8887
 5118TIP3    H215361   1.048   4.653   3.922 -0.9650 -1.2071 -0.7604
 5119TIP3   OH215362   3.211   5.142   5.094  0.3057 -0.2327 -0.4699
 5119TIP3    H115363   3.126   5.181   5.074 -1.4192 -1.9786  2.6531
 5119TIP3    H215364   3.207   5.054   5.058 -0.0772 -1.0014  1.3436
 5120TIP3   OH215365   2.261   4.199   3.760  0.4254  0.1492  0.1466
 5120TIP3    H115366   2.178   4.227   3.721  0.2616  1.0686  1.1192
 5120TIP3    H215367   2.238   4.174   3.849  1.3217  1.1856  0.6864
 5121TIP3   OH215368   0.519   2.788   4.518  0.6382  0.1642 -0.2305
 5121TIP3    H115369   0.436   2.745   4.539 -0.4208  2.3382  0.3067
 5121TIP3    H215370   0.530   2.855   4.586  1.3539  1.8285 -1.8864
 5122TIP3   OH215371   3.116   0.070   4.503  0.1356  0.0804 -0.2123
 5122TIP3    H115372   3.182   0.056   4.571  2.6014 -2.4441 -2.8835
 5122TIP3    H215373   3.044   0.013   4.528  1.0736 -0.9488  0.2455
 5123TIP3   OH215374   6.195   0.954   0.531  0.0424 -0.1004 -0.1288
 5123TIP3    H115375   6.233   0.931   0.446  0.1275  0.5592 -0.2704
 5123TIP3    H215376   6.180   1.048   0.526 -2.2087 -0.3998 -0.3341
 5124TIP3   OH215377   0.860   3.508   1.213 -0.4390 -0.2367 -0.1807
 5124TIP3    H115378   0.844   3.602   1.222 -1.4542 -0.3925 -0.3030
 5124TIP3    H215379   0.786   3.466   1.257 -0.2071 -0.9825 -0.4813
 5125TIP3   OH215380   5.201   4.066   4.674  0.6522 -0.4452  0.2991
 5125TIP3    H115381   5.178   4.073   4.766  2.3812 -2.0819  0.9262
 5125TIP3    H215382   5.124   4.027   4.633 -0.0085 -0.0111  1.1091
 5126TIP3   OH215383   2.898   3.160   4.303 -0.0049 -0.3322  0.2874
 5126TIP3    H115384   2.898   3.245   4.347  0.0306 -0.5956  0.7995
 5126TIP3    H215385   2.987   3.127   4.315  0.1741 -0.1476 -0.4921
 5127TIP3   OH215386   1.048   4.986   0.596  0.1628 -0.4257 -0.5444
 5127TIP3    H115387   1.055   4.977   0.501  1.5842  3.3285 -0.9467
 5127TIP3    H215388   1.132   4.956   0.630  1.4594  2.3269 -1.0310
 5128TIP3   OH215389   5.569   5.518   2.597 -0.0560 -0.0608 -0.2296
 5128TIP3    H115390   5.502   5.520   2.529 -0.8198  0.0112  0.5178
 5128TIP3    H215391   5.645   5.560   2.556 -0.3334 -0.4903 -1.2105
 5129TIP3   OH215392   2.706   1.226   0.080 -0.1499 -0.7464 -0.9458
 5129TIP3    H115393   2.740   1.196   0.164 -2.4071  1.2543  0.8348
 5129TIP3    H215394   2.771   1.289   0.048 -0.6043  0.7498  0.8858
 5130TIP3   OH215395   5.405   4.808   2.260 -0.1019 -0.2532  0.0821
 5130TIP3    H115396   5.491   4.766   2.263 -0.0625 -0.1227  2.2817
 5130TIP3    H215397   5.420   4.889   2.211  0.1986 -1.8157 -2.6311
 5131TIP3   OH215398   0.171   4.998   3.443  0.1446 -0.0447  0.0248
 5131TIP3    H115399   0.182   5.092   3.429 -1.0894 -0.0962 -1.5309
 5131TIP3    H215400   0.102   4.992   3.510 -1.1758  0.1850 -1.2688
 5132TIP3   OH215401   1.510   4.248   1.340 -0.2123  0.3581 -0.0026
 5132TIP3    H115402   1.552   4.329   1.369 -1.9297  0.7371  1.5708
 5132TIP3    H215403   1.425   4.247   1.384 -0.5903 -1.9066 -0.6384
 5133TIP3   OH215404   3.754   2.258   3.280 -0.2344 -0.2751  0.3780
 5133TIP3    H115405   3.762   2.353   3.273 -0.4448 -0.3055 -0.3196
 5133TIP3    H215406   3.663   2.243   3.306 -0.4806 -0.3226 -0.4826
 5134TIP3   OH215407   5.779   6.002   3.854  0.2989 -0.0422 -0.2175
 5134TIP3    H115408   5.701   5.965   3.896  0.6153  1.9346  2.3108
 5134TIP3    H215409   5.852   5.970   3.907  0.7159  2.4789  0.8526
 5135TIP3   OH215410   2.687   4.649   1.076 -0.1145  0.4774 -0.9593
 5135TIP3    H115411   2.680   4.561   1.039 -0.3983  0.4460 -0.8342
 5135TIP3    H215412   2.766   4.686   1.036  0.5692 -0.1924 -0.2630
 5136TIP3   OH215413   2.931   0.631   1.568 -0.0553 -0.8715  0.0825
 5136TIP3    H115414   2.985   0.578   1.510  0.9432 -1.3762  1.4177
 5136TIP3    H215415   2.909   0.708   1.516  2.3859 -0.3959 -0.3961
 5137TIP3   OH215416   5.779   5.802   2.138 -0.1719  0.4749 -0.2272
 5137TIP3    H115417   5.776   5.897   2.152  1.0639  0.4955  0.0792
 5137TIP3    H215418   5.855   5.789   2.080 -0.9696 -0.2433 -1.1444
 5138TIP3   OH215419   1.077   4.636   1.815  0.0651  0.0504  0.1871
 5138TIP3    H115420   1.065   4.587   1.733 -0.7129  0.3694  0.1049
 5138TIP3    H215421   1.151   4.592   1.857  0.6465  0.0391 -0.7969
 5139TIP3   OH215422   2.928   1.058   3.261 -0.4664 -1.1582 -0.0579
 5139TIP3    H115423   2.854   1.033   3.315 -1.0273  0.4904 -0.0146
 5139TIP3    H215424   2.894   1.125   3.202  1.6214  2.0687  2.1118
 5140TIP3   OH215425   1.719   2.522   1.798 -0.2187  0.5560  0.2430
 5140TIP3    H115426   1.731   2.451   1.735 -2.5229 -0.7909  1.2262
 5140TIP3    H215427   1.670   2.588   1.750  0.8000  0.9680 -0.2753
 5141TIP3   OH215428   3.063   5.947   2.938 -0.5229 -0.0747  0.1300
 5141TIP3    H115429   2.978   5.905   2.927  0.2582 -1.4922 -0.8070
 5141TIP3    H215430   3.066   6.013   2.869  0.2267 -1.9548 -1.7230
 5142TIP3   OH215431   5.377   2.411   4.943  0.1497 -0.2637 -0.3053
 5142TIP3    H115432   5.295   2.376   4.907 -0.5414  1.2124 -0.2777
 5142TIP3    H215433   5.355   2.502   4.965  2.0370  0.4044 -1.0394
 5143TIP3   OH215434   2.094   0.852   3.874 -0.3500  0.7577  0.0801
 5143TIP3    H115435   2.006   0.887   3.860  0.0710  1.2655 -1.6488
 5143TIP3    H215436   2.151   0.929   3.869  0.2647  0.3194  0.2421
 5144TIP3   OH215437   3.497   0.841   0.401  0.2475  0.2357 -0.3587
 5144TIP3    H115438   3.473   0.929   0.373 -0.2227  0.2154 -0.0380
 5144TIP3    H215439   3.446   0.783   0.344 -1.4101  0.1992  1.0673
 5145TIP3   OH215440   5.869   3.576   1.519 -0.1562 -0.0988 -0.3565
 5145TIP3    H115441   5.927   3.624   1.578 -0.1572 -0.3104 -0.1817
 5145TIP3    H215442   5.783   3.618   1.530 -0.3652 -0.7187  0.4850
 5146TIP3   OH215443   5.420   3.209   4.269 -0.1241  0.3003 -0.5761
 5146TIP3    H115444   5.415   3.114   4.268  1.7820  0.0584  2.0315
 5146TIP3    H215445   5.344   3.237   4.320 -0.5645  0.1803 -1.1587
 5147TIP3   OH215446   4.741   0.879   1.996 -0.1119  0.0191 -0.0099
 5147TIP3    H115447   4.690   0.937   1.939 -0.0249  1.8670  1.7035
 5147TIP3    H215448   4.698   0.883   2.081  0.6780 -1.4274  0.4951
 5148TIP3   OH215449   4.752   3.869   1.125 -0.0315 -0.0843 -0.2852
 5148TIP3    H115450   4.834   3.819   1.123 -0.3096 -0.6021  0.5004
 5148TIP3    H215451   4.740   3.891   1.217 -0.1098  1.1261 -0.5731
 5149TIP3   OH215452   3.053   4.055   4.857 -0.2088  0.4460 -0.7180
 5149TIP3    H115453   3.063   4.033   4.765  0.4112 -0.6815 -0.3976
 5149TIP3    H215454   2.969   4.101   4.862  0.0931  1.1585 -1.9360
 5150TIP3   OH215455   0.750   5.125   3.254  0.0723  0.0224 -0.2580
 5150TIP3    H115456   0.658   5.145   3.238 -0.5571 -1.9800  0.6193
 5150TIP3    H215457   0.797   5.175   3.187 -1.4812  2.3954  0.3053
 5151TIP3   OH215458   2.747   0.179   0.635  0.0173 -0.1575 -0.3913
 5151TIP3    H115459   2.815   0.136   0.688  1.2813  1.8622 -0.2769
 5151TIP3    H215460   2.697   0.231   0.698 -0.8340 -0.6154 -0.6727
 5152TIP3   OH215461   0.034   4.422   0.794 -0.1677 -0.2747  0.4827
 5152TIP3    H115462   0.016   4.346   0.738  0.1988 -0.5223  0.6943
 5152TIP3    H215463  -0.049   4.439   0.839  0.0170 -1.1905  1.1946
 5153TIP3   OH215464   4.387   0.319   4.567  0.4548 -0.1975  0.7413
 5153TIP3    H115465   4.342   0.297   4.486  1.0088  2.4039 -0.3708
 5153TIP3    H215466   4.433   0.400   4.548  0.6864  0.4720  3.6535
 5154TIP3   OH215467   1.911   3.841   2.074  0.5502 -0.6967  0.5996
 5154TIP3    H115468   1.962   3.789   2.011 -1.3445 -0.4848 -1.2284
 5154TIP3    H215469   1.875   3.777   2.135 -0.2806 -1.3569 -0.5454
 5155TIP3   OH215470   1.721   2.433   2.203  0.2281 -0.2439 -0.1551
 5155TIP3    H115471   1.811   2.414   2.229 -0.2484  0.6401  2.4620
 5155TIP3    H215472   1.672   2.353   2.224  0.2877 -0.5178 -1.0286
 5156TIP3   OH215473   5.357   3.801   1.395 -0.1500  0.0975 -0.2664
 5156TIP3    H115474   5.358   3.737   1.323 -0.9633 -0.5961  0.3218
 5156TIP3    H215475   5.296   3.764   1.459  2.1451 -0.3660  1.7739
 5157TIP3   OH215476   4.149   1.076   1.412  0.9040 -0.1388  0.0880
 5157TIP3    H115477   4.153   1.128   1.332 -1.2605 -0.6715 -0.4461
 5157TIP3    H215478   4.213   1.006   1.399  1.5363  0.5405 -0.5659
 5158TIP3   OH215479   4.719   2.066   1.652 -0.1433  0.1704 -0.1799
 5158TIP3    H115480   4.715   2.072   1.748  0.1106 -2.3704  0.0607
 5158TIP3    H215481   4.812   2.057   1.632 -0.1656  1.0414 -0.7142
 5159TIP3   OH215482   5.590   4.091   4.731 -0.3784  0.1456 -0.0676
 5159TIP3    H115483   5.632   4.094   4.645  4.6429  2.3367  2.0636
 5159TIP3    H215484   5.562   4.182   4.746 -1.7081 -0.3303  0.4347
 5160TIP3   OH215485   1.396   2.987   0.492  0.7390 -0.0535 -0.2149
 5160TIP3    H115486   1.417   2.894   0.485 -0.0838 -0.3699  1.1543
 5160TIP3    H215487   1.453   3.019   0.562 -1.4267 -0.3648  1.8005
 5161TIP3   OH215488   4.909   3.809   2.083 -0.0874 -0.7741 -0.0915
 5161TIP3    H115489   4.831   3.846   2.124  0.0813 -0.4985 -0.0235
 5161TIP3    H215490   4.942   3.878   2.026 -0.6815 -1.3699 -1.1953
 5162TIP3   OH215491   1.201   1.206   2.829  0.5141  0.6504  0.4511
 5162TIP3    H115492   1.243   1.288   2.805 -0.4142  0.7370 -0.9984
 5162TIP3    H215493   1.174   1.218   2.919 -0.3442  2.2729  0.0106
 5163TIP3   OH215494   0.254   0.879   4.154  0.1679  0.2277  0.5020
 5163TIP3    H115495   0.324   0.889   4.089 -0.7761  2.8136 -0.2441
 5163TIP3    H215496   0.175   0.863   4.102 -0.6268  2.4769  0.9129
 5164TIP3   OH215497   3.272   3.275   0.717 -0.5540 -0.3989  0.1747
 5164TIP3    H115498   3.306   3.191   0.747 -3.1375 -2.0487 -1.1048
 5164TIP3    H215499   3.328   3.299   0.643 -0.8163 -1.9264 -0.5537
 5165TIP3   OH215500   0.498   5.139   2.988  0.3260 -0.2496 -0.1560
 5165TIP3    H115501   0.436   5.111   2.921  0.1648  1.0438 -0.5801
 5165TIP3    H215502   0.456   5.115   3.071 -0.8447  0.7239 -0.4340
 5166TIP3   OH215503   1.575   2.815   4.543 -0.2416  0.3526 -0.1178
 5166TIP3    H115504   1.490   2.771   4.540  0.0200 -0.1176 -0.8299
 5166TIP3    H215505   1.619   2.778   4.620 -0.7224  0.6905  0.3285
 5167TIP3   OH215506   5.770   4.115   0.770  0.5815  0.6578  0.5919
 5167TIP3    H115507   5.749   4.133   0.862  1.0296  0.1037  0.8069
 5167TIP3    H215508   5.837   4.179   0.747  1.0634  0.2670  0.8977
 5168TIP3   OH215509   2.126   2.370   4.487  0.5348 -0.5169  0.1328
 5168TIP3    H115510   2.031   2.358   4.476  0.7882 -0.7811 -2.1366
 5168TIP3    H215511   2.155   2.408   4.404  2.4634 -0.6254  0.7206
 5169TIP3   OH215512   1.751   2.327   0.588 -0.0778  0.0327 -0.1851
 5169TIP3    H115513   1.763   2.241   0.548  0.3307  0.1630 -0.3486
 5169TIP3    H215514   1.661   2.327   0.620 -0.5038  0.0239 -1.3401
 5170TIP3   OH215515   2.159   2.599   1.218 -0.2148 -0.1887  0.1950
 5170TIP3    H115516   2.071   2.627   1.243  0.0541  2.9098 -1.7520
 5170TIP3    H215517   2.207   2.681   1.206  2.0103 -1.6679 -1.8845
 5171TIP3   OH215518   2.380   5.844   3.375 -0.1667 -0.7695 -0.3854
 5171TIP3    H115519   2.474   5.835   3.355 -0.1782 -1.6112 -0.0877
 5171TIP3    H215520   2.359   5.934   3.349  0.1288 -1.3275 -2.8628
 5172TIP3   OH215521   4.241   5.885   0.429  0.1828 -0.2165 -0.0224
 5172TIP3    H115522   4.190   5.812   0.463 -1.1896  0.6243 -0.1930
 5172TIP3    H215523   4.302   5.845   0.366 -1.3100 -1.1087 -0.9585
 5173TIP3   OH215524   2.019   2.076   2.976  0.1886  0.8808  0.3682
 5173TIP3    H115525   1.973   2.002   2.938 -0.1950  0.9307  0.7311
 5173TIP3    H215526   1.969   2.153   2.947 -0.1952  0.9084  1.0931
 5174TIP3   OH215527   2.034   4.068   4.365  0.3729  0.0452  0.3342
 5174TIP3    H115528   2.070   4.141   4.315  1.3665 -0.2722  0.5696
 5174TIP3    H215529   2.071   4.078   4.453 -0.9816  0.3303  0.8948
 5175TIP3   OH215530   4.660   3.925   2.193  0.1588 -0.4256  0.0599
 5175TIP3    H115531   4.573   3.943   2.228  0.6886  0.1861  1.1068
 5175TIP3    H215532   4.644   3.894   2.103 -1.1045  0.0112  0.1163
 5176TIP3   OH215533   1.214   1.569   4.063  0.3216  0.2971 -0.1803
 5176TIP3    H115534   1.226   1.645   4.007  1.5729  0.0010 -0.3338
 5176TIP3    H215535   1.151   1.514   4.016  1.1662  0.1666 -1.1988
 5177TIP3   OH215536   3.351   5.092   0.473 -0.2897 -0.4848 -0.3457
 5177TIP3    H115537   3.331   5.055   0.387 -0.3844  0.7208 -0.8519
 5177TIP3    H215538   3.310   5.178   0.473  1.2743  0.2981  0.2057
 5178TIP3   OH215539   3.012   0.186   1.117 -0.4343 -0.0835  0.1606
 5178TIP3    H115540   3.093   0.137   1.105  1.2738  2.7281 -0.9151
 5178TIP3    H215541   3.027   0.239   1.195 -1.7064 -0.3381  0.5962
 5179TIP3   OH215542   4.256   1.354   3.450 -0.6868 -0.1326 -0.0164
 5179TIP3    H115543   4.204   1.277   3.427 -0.0125 -0.7244  0.3513
 5179TIP3    H215544   4.232   1.372   3.541 -0.0510 -0.5980  0.2561
 5180TIP3   OH215545   0.778   2.378   2.762  0.4512  0.0763  0.3126
 5180TIP3    H115546   0.868   2.407   2.779  0.0990  1.0618  0.5589
 5180TIP3    H215547   0.777   2.287   2.791  1.4396 -0.0249  0.0653
 5181TIP3   OH215548   0.658   5.316   2.763 -0.2030  0.3910  0.1827
 5181TIP3    H115549   0.683   5.224   2.777  1.8945  1.1759  2.3928
 5181TIP3    H215550   0.676   5.332   2.670  0.8124 -1.0727  0.0894
 5182TIP3   OH215551   5.027   4.445   2.380 -0.0218  0.0844 -0.1939
 5182TIP3    H115552   5.105   4.388   2.380 -0.5513 -0.6980  1.4329
 5182TIP3    H215553   5.055   4.523   2.332  1.4199 -0.6355 -0.5981
 5183TIP3   OH215554   1.648   3.470   0.827 -0.4442 -0.0142  0.0287
 5183TIP3    H115555   1.589   3.399   0.801 -0.0457 -0.8929  1.3721
 5183TIP3    H215556   1.651   3.528   0.752 -2.8779 -0.0185 -0.1470
 5184TIP3   OH215557   3.069   0.663   1.813 -0.4552  0.1130 -0.1591
 5184TIP3    H115558   3.150   0.614   1.801  1.4589  2.8984  0.4870
 5184TIP3    H215559   3.020   0.649   1.731  1.0668 -0.8978 -0.9355
 5185TIP3   OH215560   4.740   2.172   3.658  0.6760 -0.1962  0.5360
 5185TIP3    H115561   4.708   2.215   3.578 -0.8160 -0.8930  0.7124
 5185TIP3    H215562   4.827   2.140   3.635  0.5472  0.2159 -0.5910
 5186TIP3   OH215563   2.636   5.376   2.196 -0.2854  0.6067 -0.4660
 5186TIP3    H115564   2.628   5.416   2.109 -0.8825 -2.1389 -1.7564
 5186TIP3    H215565   2.729   5.386   2.217 -0.1383  1.3597 -1.3642
 5187TIP3   OH215566   4.677  -0.021   2.886  0.2820 -0.0917  0.5340
 5187TIP3    H115567   4.699   0.030   2.963  1.6992 -0.6146  0.5186
 5187TIP3    H215568   4.644   0.043   2.823 -0.4192  0.4075  1.3942
 5188TIP3   OH215569   5.401   3.079   5.137  0.1122  0.4459  1.6644
 5188TIP3    H115570   5.431   3.024   5.064 -0.6736  0.2636  1.4746
 5188TIP3    H215571   5.468   3.068   5.204 -0.5608 -1.6148  2.0581
 5189TIP3   OH215572   0.348   5.805   3.855  0.9228  0.1149 -0.0190
 5189TIP3    H115573   0.324   5.828   3.944 -1.2729  0.8504 -0.7248
 5189TIP3    H215574   0.305   5.721   3.839  0.8871  0.2219 -0.5153
 5190TIP3   OH215575   3.423   0.889   2.384  0.3407  0.0606  0.3088
 5190TIP3    H115576   3.511   0.922   2.397  0.5612 -0.3180 -0.1692
 5190TIP3    H215577   3.434   0.812   2.327 -0.2267 -0.3852  0.7830
 5191TIP3   OH215578   2.865   4.378   3.547  0.7176 -0.1300  0.0901
 5191TIP3    H115579   2.901   4.349   3.463  2.1348  0.1460  0.5773
 5191TIP3    H215580   2.837   4.468   3.531  1.5328  0.1282  0.0441
 5192TIP3   OH215581   3.083   4.902   0.450  0.0262 -1.0067  0.2125
 5192TIP3    H115582   3.158   4.942   0.405  0.3763  0.3798  1.9266
 5192TIP3    H215583   3.024   4.877   0.379  0.3609  1.4310 -1.0614
 5193TIP3   OH215584   0.351   3.246   0.220 -0.0182  0.2936 -0.0389
 5193TIP3    H115585   0.293   3.231   0.145  0.9634 -0.5633 -0.6573
 5193TIP3    H215586   0.434   3.274   0.181  0.2665  0.6498  0.7867
 5194TIP3   OH215587   1.847   3.298   1.413 -0.0631 -0.0959 -0.2096
 5194TIP3    H115588   1.827   3.255   1.495  0.3207 -0.4820 -0.3145
 5194TIP3    H215589   1.815   3.387   1.424 -0.0578 -0.1598  0.3387
 5195TIP3   OH215590   3.895   3.320   4.263  0.0144  0.6215 -0.5661
 5195TIP3    H115591   3.939   3.283   4.339 -0.1633 -0.9456 -1.1865
 5195TIP3    H215592   3.964   3.331   4.197 -0.0913  0.5705 -0.6866
 5196TIP3   OH215593   6.187   0.511   2.613  0.6407  0.6785 -0.1561
 5196TIP3    H115594   6.133   0.547   2.683 -1.1432 -3.9644  1.3077
 5196TIP3    H215595   6.129   0.511   2.537  0.9398  1.5805 -0.3891
 5197TIP3   OH215596   4.569   4.539   4.994  0.1229  0.1209 -0.4353
 5197TIP3    H115597   4.642   4.541   4.932  0.4429  1.4588 -0.0687
 5197TIP3    H215598   4.505   4.600   4.957 -0.0300  0.3138  0.1424
 5198TIP3   OH215599   1.245   1.296   0.772  0.1371  0.0742  0.5620
 5198TIP3    H115600   1.180   1.328   0.709  0.3331 -0.5607  0.0302
 5198TIP3    H215601   1.282   1.376   0.811 -0.5135  0.4515  0.4188
 5199TIP3   OH215602   4.230   2.694   0.394 -0.1182  0.3244  0.7777
 5199TIP3    H115603   4.201   2.621   0.339 -0.5403  0.8079  0.3530
 5199TIP3    H215604   4.324   2.678   0.408  0.3747  1.0257 -1.4118
 5200TIP3   OH215605   3.293   0.644   5.136  0.2880  0.3066 -0.0721
 5200TIP3    H115606   3.211   0.624   5.179 -0.4335 -0.8064 -1.8535
 5200TIP3    H215607   3.300   0.740   5.139 -1.9329  0.5700 -1.3316
 5201TIP3   OH215608   4.186   0.552   3.353  0.1828  0.3443 -0.9847
 5201TIP3    H115609   4.112   0.518   3.303  0.6801 -0.9509 -0.8609
 5201TIP3    H215610   4.214   0.629   3.304 -1.2932  0.9151 -0.9836
 5202TIP3   OH215611   5.617   5.613   1.120  0.3645 -0.1533  0.3561
 5202TIP3    H115612   5.705   5.638   1.090 -0.3121  1.8271 -0.1251
 5202TIP3    H215613   5.560   5.630   1.045 -0.5089 -1.0248  0.7940
 5203TIP3   OH215614   6.291   2.128   3.881 -0.1743  0.8810 -0.1644
 5203TIP3    H115615   6.206   2.131   3.838  0.0707  0.2964 -0.7069
 5203TIP3    H215616   6.351   2.168   3.818 -0.2685  2.6202  0.7996
 5204TIP3   OH215617   0.090   1.354   4.783 -0.6735  0.3995 -0.6910
 5204TIP3    H115618   0.148   1.319   4.716  1.2550  0.5425  0.8147
 5204TIP3    H215619   0.104   1.449   4.780  1.4266  0.2467  1.5376
 5205TIP3   OH215620   5.330   1.383   1.735  0.2128  0.5016  0.2318
 5205TIP3    H115621   5.308   1.312   1.794 -0.6129  0.6921  0.1612
 5205TIP3    H215622   5.268   1.453   1.756  0.3087  0.7983 -0.4305
 5206TIP3   OH215623   2.458   3.754   2.858  0.3258  0.4708 -1.1863
 5206TIP3    H115624   2.421   3.732   2.773  0.4371  0.4209 -1.2229
 5206TIP3    H215625   2.413   3.834   2.884 -0.5320 -0.1316 -0.7710
 5207TIP3   OH215626   3.427   1.214   3.612 -0.1120  0.4214  0.2590
 5207TIP3    H115627   3.392   1.284   3.557 -0.0059  0.0056 -0.3603
 5207TIP3    H215628   3.362   1.201   3.680 -0.9989 -0.0899 -0.6626
 5208TIP3   OH215629   0.028   2.718   0.041  0.2360 -0.3505 -0.8804
 5208TIP3    H115630   0.035   2.715  -0.054 -0.7386 -0.7869 -0.9465
 5208TIP3    H215631  -0.054   2.673   0.061 -0.0450  0.5749  0.1105
 5209TIP3   OH215632   5.674   5.587   2.989 -0.2296  0.6369 -0.0402
 5209TIP3    H115633   5.692   5.513   3.047  1.3491  1.1788  0.1932
 5209TIP3    H215634   5.592   5.624   3.023  0.4938  0.7684  1.6818
 5210TIP3   OH215635   1.947   0.498   4.776  0.4922  0.0984 -0.2744
 5210TIP3    H115636   1.997   0.568   4.732 -0.9389  1.6592  0.4742
 5210TIP3    H215637   1.949   0.521   4.868  0.3984 -1.1537  0.0578
 5211TIP3   OH215638   3.670   2.592   4.695 -0.0381  0.3964  0.3651
 5211TIP3    H115639   3.743   2.570   4.754 -1.0303 -0.2534  1.3752
 5211TIP3    H215640   3.615   2.514   4.694 -0.8365  0.9464 -0.2360
 5212TIP3   OH215641   5.770   1.600   2.937  0.8593  0.0717  0.3542
 5212TIP3    H115642   5.715   1.540   2.988  1.7063  0.3110  1.5913
 5212TIP3    H215643   5.707   1.655   2.890  0.0558 -1.5404 -0.5697
 5213TIP3   OH215644   0.705   5.087   3.911  0.1358  0.0620 -0.4106
 5213TIP3    H115645   0.791   5.055   3.884  0.8826  0.2229  1.5561
 5213TIP3    H215646   0.669   5.015   3.963 -1.2460 -0.2695 -1.7825
 5214TIP3   OH215647   4.045   0.177   0.413 -0.1550  0.3035 -0.4964
 5214TIP3    H115648   4.045   0.259   0.364 -1.0184  1.9301  2.0199
 5214TIP3    H215649   4.001   0.115   0.355 -2.0692  2.3657 -1.4000
 5215TIP3   OH215650   1.445   5.305   2.729  0.1693  0.3065  0.1319
 5215TIP3    H115651   1.356   5.338   2.717  0.7502  2.0009  0.2299
 5215TIP3    H215652   1.481   5.356   2.801  1.6317  0.5178 -0.7052
 5216TIP3   OH215653   3.271   2.071   0.075  0.2321  0.3495 -0.0912
 5216TIP3    H115654   3.253   1.977   0.079 -0.1382  0.3360 -1.3818
 5216TIP3    H215655   3.333   2.087   0.146 -0.2320 -0.7335  0.5890
 5217TIP3   OH215656   0.535   5.279   0.767  0.1218 -0.3365  0.0006
 5217TIP3    H115657   0.511   5.370   0.752 -0.4794 -0.3775  0.6809
 5217TIP3    H215658   0.630   5.281   0.781  0.4523 -0.0862 -2.0010
 5218TIP3   OH215659   2.021   3.809   1.375  0.2506  0.3313  0.0969
 5218TIP3    H115660   2.106   3.767   1.364  1.8700  3.4740 -0.5399
 5218TIP3    H215661   1.972   3.785   1.296  0.9897 -0.5277 -0.1126
 5219TIP3   OH215662   3.855   5.097   2.888  0.2160 -0.0514 -0.2035
 5219TIP3    H115663   3.859   5.175   2.832 -0.4605  1.1695  1.3858
 5219TIP3    H215664   3.799   5.036   2.840  1.2689  0.1441 -1.7709
 5220TIP3   OH215665   0.311   2.895   0.859 -0.1224 -0.1103  1.1285
 5220TIP3    H115666   0.216   2.897   0.850 -0.1339 -1.5008  0.7494
 5220TIP3    H215667   0.343   2.867   0.773  0.5607 -0.6541  1.5500
 5221TIP3   OH215668   5.380   4.353   2.207 -0.0498 -0.0826 -0.0900
 5221TIP3    H115669   5.339   4.319   2.287  1.4738 -0.3655  0.6089
 5221TIP3    H215670   5.458   4.298   2.195  0.6592  1.0363 -0.8176
 5222TIP3   OH215671   0.377   3.593   5.170  0.1464  0.3942  0.2000
 5222TIP3    H115672   0.372   3.656   5.242 -0.8788  0.8419 -0.2411
 5222TIP3    H215673   0.369   3.646   5.091 -0.7140 -0.2705 -0.1788
 5223TIP3   OH215674   5.645   4.217   3.201  0.2955 -0.2793  0.2577
 5223TIP3    H115675   5.571   4.278   3.205  0.2269 -0.2863 -0.7166
 5223TIP3    H215676   5.722   4.272   3.214  0.1459 -0.2256  0.9613
 5224TIP3   OH215677   4.263   4.882   3.050 -0.2501  0.1571 -0.8920
 5224TIP3    H115678   4.211   4.864   2.972 -0.4790  0.2909 -0.7713
 5224TIP3    H215679   4.299   4.969   3.034 -0.3008  0.1864 -0.8463
 5225TIP3   OH215680   0.395   0.160   3.112 -0.3635 -0.1439  0.6276
 5225TIP3    H115681   0.389   0.217   3.035  0.2263 -1.2255 -0.2439
 5225TIP3    H215682   0.487   0.136   3.118 -0.5304 -0.6672  1.2272
 5226TIP3   OH215683   4.039   0.524   4.705 -0.3684  0.3338  0.3513
 5226TIP3    H115684   3.987   0.563   4.775  0.9071  1.2981  0.8037
 5226TIP3    H215685   4.011   0.433   4.703 -0.1458  0.1671  2.4247
 5227TIP3   OH215686   4.318   1.075   3.082 -0.8235 -0.0113  0.3759
 5227TIP3    H115687   4.371   1.023   3.142 -0.4490  1.1239  1.0552
 5227TIP3    H215688   4.372   1.081   3.003  0.9011  2.4719  1.5948
 5228TIP3   OH215689   4.092   3.350   1.888 -0.5871  0.5578 -0.0323
 5228TIP3    H115690   4.040   3.351   1.969  0.6238  2.9964  0.8199
 5228TIP3    H215691   4.042   3.403   1.827 -0.8757 -0.2165 -0.4809
 5229TIP3   OH215692   3.796   4.999   2.195 -0.1131  0.0903  0.1462
 5229TIP3    H115693   3.837   4.996   2.109 -4.8054  1.1720 -2.4762
 5229TIP3    H215694   3.847   5.064   2.244  2.4300 -0.2001 -1.9202
 5230TIP3   OH215695   4.112   4.009   4.273 -0.1456  0.2713 -0.2735
 5230TIP3    H115696   4.047   4.034   4.338  0.7910  1.2228  0.3253
 5230TIP3    H215697   4.135   4.092   4.229  0.8889  0.0059 -0.2523
 5231TIP3   OH215698   5.504   5.615   1.662 -0.5496 -0.1608  0.2398
 5231TIP3    H115699   5.467   5.543   1.610  0.4435 -0.9516  0.5970
 5231TIP3    H215700   5.455   5.692   1.634 -2.5173 -1.1610  0.7164
 5232TIP3   OH215701   1.782   0.228   3.568  0.0232 -0.2177 -0.4528
 5232TIP3    H115702   1.695   0.209   3.603  1.1294  0.2130  2.8524
 5232TIP3    H215703   1.828   0.144   3.574  0.4667  0.0486 -0.0723
 5233TIP3   OH215704   4.783   2.480   2.552  0.2465  0.3433  0.0765
 5233TIP3    H115705   4.727   2.526   2.488  1.3841 -1.4125 -2.3520
 5233TIP3    H215706   4.746   2.392   2.556  0.9236  0.0945  0.9572
 5234TIP3   OH215707   3.722   0.700   1.345  0.2005  0.2202  0.5220
 5234TIP3    H115708   3.773   0.763   1.293  0.6170 -0.4626  0.0868
 5234TIP3    H215709   3.743   0.721   1.436  1.6378 -0.3430  0.3409
 5235TIP3   OH215710   4.726   3.487   2.808 -0.3103 -0.5379  0.1230
 5235TIP3    H115711   4.771   3.470   2.725  0.6295  1.9227  0.0434
 5235TIP3    H215712   4.788   3.460   2.875 -0.0976 -0.3295  0.0122
 5236TIP3   OH215713   4.570   3.978   3.845 -0.0187 -0.0145 -0.9633
 5236TIP3    H115714   4.583   3.884   3.853 -0.2164 -0.0197 -0.7307
 5236TIP3    H215715   4.503   4.000   3.909  1.1658  0.5396  0.1391
 5237TIP3   OH215716   1.317   5.568   2.436 -0.0356  0.3164 -0.1345
 5237TIP3    H115717   1.275   5.577   2.522  0.1350  0.7919 -0.0916
 5237TIP3    H215718   1.246   5.551   2.375 -0.0672 -0.8876  0.2233
 5238TIP3   OH215719   5.148   3.904   3.249 -0.3441 -0.1767 -0.3304
 5238TIP3    H115720   5.142   3.809   3.238 -1.4334 -0.0009 -1.5407
 5238TIP3    H215721   5.125   3.919   3.340 -1.0407 -1.0276 -0.3550
 5239TIP3   OH215722   6.214   0.799   1.013  0.3289 -0.0949 -0.3850
 5239TIP3    H115723   6.310   0.806   1.014  0.3791  0.4373  2.5225
 5239TIP3    H215724   6.188   0.821   0.924  2.8662  0.7062 -1.0003
 5240TIP3   OH215725   0.601   0.497   0.079 -0.1938 -0.6325 -0.6690
 5240TIP3    H115726   0.695   0.481   0.075  0.1853  0.8135  1.0143
 5240TIP3    H215727   0.577   0.476   0.169 -0.8999  1.5490 -0.2697
 5241TIP3   OH215728   0.255   0.767   0.299  0.7860  0.9077  0.0221
 5241TIP3    H115729   0.322   0.814   0.250  0.8195  0.0380 -0.8141
 5241TIP3    H215730   0.188   0.833   0.318  0.4667  1.1797 -1.7883
 5242TIP3   OH215731   0.415   1.232   3.654 -0.0918  0.2299 -0.0566
 5242TIP3    H115732   0.377   1.249   3.740 -1.8928 -0.6798 -0.6195
 5242TIP3    H215733   0.438   1.318   3.619 -0.9157  0.7426  0.6475
 5243TIP3   OH215734   5.888   0.868   2.117  0.3699  0.2774 -0.4172
 5243TIP3    H115735   5.966   0.854   2.172 -0.7677 -0.8312  0.9805
 5243TIP3    H215736   5.914   0.834   2.031  1.3271 -0.3597  0.0990
 5244TIP3   OH215737   3.702   5.367   2.100 -0.0959  0.5372 -0.0316
 5244TIP3    H115738   3.718   5.446   2.151  0.4614  0.5644 -0.2325
 5244TIP3    H215739   3.785   5.319   2.104  0.3562  1.0719 -1.8032
 5245TIP3   OH215740   3.344   2.394   4.950 -0.0499  0.2652  0.3595
 5245TIP3    H115741   3.304   2.460   4.894 -0.1796  1.4184  1.7228
 5245TIP3    H215742   3.431   2.430   4.971  0.7194 -1.0012 -0.5253
 5246TIP3   OH215743   0.269   4.606   5.102  0.4777  0.2931  0.4743
 5246TIP3    H115744   0.363   4.590   5.092  0.4648  0.3038  0.3396
 5246TIP3    H215745   0.263   4.700   5.122  0.4479  0.4394 -0.1919
 5247TIP3   OH215746   0.701   1.635   4.666  0.2670  0.4600 -0.8510
 5247TIP3    H115747   0.636   1.661   4.601 -0.9337 -0.7040 -0.1666
 5247TIP3    H215748   0.726   1.546   4.641  1.1981  0.6866 -0.7741
 5248TIP3   OH215749   2.702   4.758   4.132  0.4540  0.1241  0.0892
 5248TIP3    H115750   2.748   4.675   4.136 -0.5077 -0.3851  1.7039
 5248TIP3    H215751   2.705   4.792   4.221 -0.1675  1.2586 -0.2925
 5249TIP3   OH215752   2.981   1.184   4.059 -0.1980 -0.3811  0.3867
 5249TIP3    H115753   3.033   1.175   3.979  0.7500  1.2392  0.7753
 5249TIP3    H215754   2.920   1.111   4.056 -0.0211 -0.5047 -1.6984
 5250TIP3   OH215755   1.926   1.992   4.193  0.1275 -0.5144 -0.2097
 5250TIP3    H115756   1.975   2.074   4.202  1.3019 -0.8669 -2.5523
 5250TIP3    H215757   1.834   2.018   4.194  0.4257  0.5906  0.8177
 5251TIP3   OH215758   4.817   4.792   3.325  0.6397  0.2023 -0.1313
 5251TIP3    H115759   4.767   4.713   3.345  1.0424 -0.0495 -0.0879
 5251TIP3    H215760   4.896   4.759   3.282  1.2255  0.5168  0.6766
 5252TIP3   OH215761   5.971   2.210   2.353 -0.2489 -0.7652 -0.1944
 5252TIP3    H115762   6.058   2.250   2.355  0.0625 -1.4251  2.1211
 5252TIP3    H215763   5.978   2.140   2.289  1.2344 -1.3826  0.6020
 5253TIP3   OH215764   1.495   0.491  -0.010 -0.0314 -0.1113  0.0126
 5253TIP3    H115765   1.573   0.544  -0.022  0.4618 -0.4756  1.3687
 5253TIP3    H215766   1.488   0.480   0.085 -1.5522 -0.3585 -0.0989
 5254TIP3   OH215767   5.889   2.055   0.150 -0.3594 -0.2149  0.3993
 5254TIP3    H115768   5.866   2.039   0.242  0.5760 -0.7866  0.5515
 5254TIP3    H215769   5.918   1.970   0.118 -0.8880 -0.0675 -0.5002
 5255TIP3   OH215770   1.550   0.121   2.243  0.1441 -0.0604  0.4098
 5255TIP3    H115771   1.616   0.166   2.191 -1.8634  2.6264 -0.0482
 5255TIP3    H215772   1.592   0.103   2.327  2.1261 -0.6017 -0.6543
 5256TIP3   OH215773   3.956   2.565   3.055 -0.3979 -0.9150  0.2113
 5256TIP3    H115774   3.972   2.483   3.007 -2.2316 -0.9739 -0.4083
 5256TIP3    H215775   4.022   2.626   3.022 -0.5167 -1.4662 -1.1383
 5257TIP3   OH215776   2.372   5.836   3.652  0.1808  0.2490  0.5247
 5257TIP3    H115777   2.411   5.923   3.652  0.3777  0.1605  0.4486
 5257TIP3    H215778   2.367   5.811   3.560  0.5336 -0.0012  0.5697
 5258TIP3   OH215779   6.019   2.597   0.527 -0.4193  0.3487  0.5104
 5258TIP3    H115780   6.079   2.594   0.452 -0.9427  0.1819  0.0904
 5258TIP3    H215781   6.000   2.690   0.539 -0.9848  0.3238 -0.1051
 5259TIP3   OH215782   2.817   2.206   0.558  0.0934  0.2449  0.4722
 5259TIP3    H115783   2.867   2.259   0.620  0.6961  0.9554 -0.5955
 5259TIP3    H215784   2.880   2.180   0.491 -0.5017 -0.6713  0.2341
 5260TIP3   OH215785   2.204   2.641   1.811 -0.5640 -0.2052  0.3944
 5260TIP3    H115786   2.190   2.637   1.716 -0.2967 -0.6556  0.3724
 5260TIP3    H215787   2.178   2.555   1.843 -0.3716 -0.1547  0.6928
 5261TIP3   OH215788   2.961   4.456   3.797  0.6908  0.2271  0.5142
 5261TIP3    H115789   2.958   4.362   3.815  2.1488  0.0182 -0.1707
 5261TIP3    H215790   2.908   4.466   3.717  2.2710 -0.3890 -0.6686
 5262TIP3   OH215791   1.375   5.734   0.129  0.0352  0.3768  0.1315
 5262TIP3    H115792   1.451   5.677   0.115 -0.7122 -0.8089  0.7703
 5262TIP3    H215793   1.319   5.685   0.188 -0.9693  1.4957  0.1401
 5263TIP3   OH215794   1.713   0.408   1.792  0.2851 -0.5228 -0.9141
 5263TIP3    H115795   1.719   0.453   1.708  0.4319  0.4552 -0.3886
 5263TIP3    H215796   1.650   0.337   1.776 -0.3131  0.1458 -1.6310
 5264TIP3   OH215797   0.449   3.182   4.098  0.2570  0.0233 -0.6727
 5264TIP3    H115798   0.427   3.096   4.132 -0.4693  0.9905  1.4617
 5264TIP3    H215799   0.542   3.193   4.119  0.1528  0.0633 -0.2227
 5265TIP3   OH215800   0.431   1.090   4.899 -0.1274  0.2085 -0.0958
 5265TIP3    H115801   0.425   1.185   4.889  0.4716  0.0800 -2.1852
 5265TIP3    H215802   0.355   1.056   4.851 -0.2676 -0.3649  0.5237
 5266TIP3   OH215803   4.288   1.343   3.077 -0.5876 -0.1332 -0.0958
 5266TIP3    H115804   4.343   1.380   3.146 -0.2088  0.5402 -0.7418
 5266TIP3    H215805   4.297   1.249   3.086 -1.4294 -0.0909  1.4850
 5267TIP3   OH215806   4.780   2.500   2.252 -0.2404  0.5429 -0.5553
 5267TIP3    H115807   4.863   2.524   2.210  0.2723 -0.1612  0.0356
 5267TIP3    H215808   4.795   2.413   2.288 -0.4553  1.3006  1.5491
 5268TIP3   OH215809   1.459   3.801   2.921  0.1804  0.2055  0.2802
 5268TIP3    H115810   1.488   3.879   2.969 -2.4950  1.3863  0.1501
 5268TIP3    H215811   1.433   3.833   2.835 -1.0046 -0.8100  0.2251
 5269TIP3   OH215812   6.263   3.382   0.274  0.5546  0.4222  0.4001
 5269TIP3    H115813   6.219   3.451   0.224 -1.7683  0.1857  1.9599
 5269TIP3    H215814   6.348   3.420   0.297  2.2212  0.2291 -4.2987
 5270TIP3   OH215815   2.909   0.237   4.380 -0.0152  0.0340  0.2193
 5270TIP3    H115816   3.000   0.205   4.380 -0.4154 -1.3510  2.5656
 5270TIP3    H215817   2.858   0.163   4.345 -0.5914 -0.7796  2.5851
 5271TIP3   OH215818   1.710   4.771   2.782 -0.3249  0.3668 -0.4100
 5271TIP3    H115819   1.785   4.791   2.838  1.0859 -2.8469 -0.8982
 5271TIP3    H215820   1.641   4.745   2.844  0.5687 -1.2014 -0.0073
 5272TIP3   OH215821   0.804   4.709   4.099  0.0900  0.1639 -0.4420
 5272TIP3    H115822   0.854   4.708   4.018  0.8434 -0.6558  0.0136
 5272TIP3    H215823   0.821   4.624   4.139 -0.3293  0.5220  0.5395
 5273TIP3   OH215824   3.697   4.929   4.717  0.3929  0.4308 -0.0054
 5273TIP3    H115825   3.620   4.951   4.665 -0.1220 -1.6956 -0.2245
 5273TIP3    H215826   3.771   4.951   4.660 -0.0799  0.9596 -0.4277
 5274TIP3   OH215827   2.935   5.293  -0.011  0.1098  0.3534  0.0912
 5274TIP3    H115828   3.006   5.352   0.013  0.9524 -0.6686  0.1477
 5274TIP3    H215829   2.929   5.231   0.061  0.7230 -0.9751 -0.9675
 5275TIP3   OH215830   4.836   3.814   4.050 -0.2938  0.4892 -0.0625
 5275TIP3    H115831   4.766   3.878   4.050 -0.3147  0.4803  1.0022
 5275TIP3    H215832   4.847   3.790   3.958 -0.1726  2.1290 -0.4994
 5276TIP3   OH215833   0.165   0.443   4.871  1.0061 -0.2329  0.9335
 5276TIP3    H115834   0.167   0.529   4.913  2.8412 -0.6806  1.8492
 5276TIP3    H215835   0.203   0.458   4.784 -2.0260  0.5255 -0.4030
 5277TIP3   OH215836   5.741   4.021   0.400 -0.2715 -0.1868 -0.6394
 5277TIP3    H115837   5.778   3.995   0.316  0.0174  0.5270 -0.7399
 5277TIP3    H215838   5.647   4.032   0.383  0.0345  1.6344 -1.3037
 5278TIP3   OH215839   1.475   0.526   2.452  0.5096  0.1890 -0.4902
 5278TIP3    H115840   1.401   0.531   2.392  0.6512 -2.2140 -0.9607
 5278TIP3    H215841   1.551   0.554   2.399  0.4850 -0.9723 -1.1641
 5279TIP3   OH215842   6.124   3.120   3.977  0.4109 -0.0623  0.2637
 5279TIP3    H115843   6.104   3.212   3.994  0.8523 -0.0329  0.6439
 5279TIP3    H215844   6.173   3.121   3.894  0.5262  0.0568  0.3340
 5280TIP3   OH215845   0.857   1.932   3.212 -0.0888 -0.0084 -0.0691
 5280TIP3    H115846   0.846   1.897   3.300  0.0797  0.0875 -0.0108
 5280TIP3    H215847   0.835   2.025   3.219  1.7193  0.4415  0.2717
 5281TIP3   OH215848   5.322   5.128   0.573  0.2441  0.2098 -0.0405
 5281TIP3    H115849   5.227   5.127   0.584  0.1622 -1.4592 -0.6304
 5281TIP3    H215850   5.339   5.066   0.502  1.8275 -0.0410  0.5150
 5282TIP3   OH215851   2.441   3.203   0.555 -0.5954  0.1820 -0.1452
 5282TIP3    H115852   2.401   3.231   0.637  0.9295  3.1309 -0.2602
 5282TIP3    H215853   2.531   3.235   0.561  0.5341 -2.3749 -1.6876
 5283TIP3   OH215854   0.562   0.341   1.030 -0.0998 -0.5152  0.6818
 5283TIP3    H115855   0.581   0.361   1.122  0.9814 -0.7004  0.5129
 5283TIP3    H215856   0.647   0.319   0.992 -0.6596 -1.3343 -0.1461
 5284TIP3   OH215857  -0.017   0.309   1.105  0.3771  0.2958  0.3325
 5284TIP3    H115858   0.058   0.275   1.154  0.8120 -0.3120 -0.7063
 5284TIP3    H215859  -0.012   0.404   1.116 -0.3362  0.1310  2.5611
 5285TIP3   OH215860   3.664   2.650   0.237  0.0689  0.2180 -0.8125
 5285TIP3    H115861   3.588   2.696   0.202  0.5210  3.5460  2.0500
 5285TIP3    H215862   3.733   2.663   0.172  0.2218  4.0890 -0.1184
 5286TIP3   OH215863   0.104   0.239   1.541  0.0918  0.1654 -0.6257
 5286TIP3    H115864   0.022   0.195   1.518 -0.3656 -0.6177  2.1247
 5286TIP3    H215865   0.078   0.329   1.562 -0.4286 -0.5041  1.8644
 5287TIP3   OH215866   3.782   5.718   2.621 -0.1983 -0.3936 -0.2345
 5287TIP3    H115867   3.748   5.779   2.556 -1.8589 -1.7426 -0.7108
 5287TIP3    H215868   3.827   5.651   2.570  2.2755  0.7211  0.3218
 5288TIP3   OH215869   1.897   3.209   3.364  0.2965 -0.4182  0.4422
 5288TIP3    H115870   1.815   3.258   3.355  0.8111  0.6239  1.1895
 5288TIP3    H215871   1.871   3.117   3.361 -0.8377 -0.1007  0.1861
 5289TIP3   OH215872   5.502   1.507   4.772  0.1999 -0.3322  0.5752
 5289TIP3    H115873   5.424   1.458   4.799 -0.1552 -1.4225 -2.1555
 5289TIP3    H215874   5.571   1.440   4.766  0.4740  0.0126 -0.2515
 5290TIP3   OH215875   2.007   2.356   1.649  0.1901  0.4944 -0.0173
 5290TIP3    H115876   2.018   2.357   1.744 -0.9989 -1.9514  0.2106
 5290TIP3    H215877   1.949   2.282   1.632  0.5177  0.7523 -2.6807
 5291TIP3   OH215878   5.065   1.649   2.886  0.0254 -0.4291  0.0023
 5291TIP3    H115879   5.012   1.728   2.876 -0.4998 -0.5665  1.4307
 5291TIP3    H215880   5.105   1.657   2.973 -0.1817 -1.8035  0.2560
 5292TIP3   OH215881   4.797   2.612   3.134  0.3911 -0.6243 -0.0823
 5292TIP3    H115882   4.782   2.706   3.141 -0.5988 -0.8344  0.9945
 5292TIP3    H215883   4.809   2.596   3.041 -1.0772  0.3538 -0.4742
 5293TIP3   OH215884   3.525   4.128   1.173  0.3776 -0.1591 -0.0876
 5293TIP3    H115885   3.518   4.069   1.098 -0.6157 -0.2053  0.0339
 5293TIP3    H215886   3.450   4.186   1.166  1.6160  1.4646 -0.4954
 5294TIP3   OH215887   5.457   1.123   3.535  0.3057  0.4991 -1.1240
 5294TIP3    H115888   5.414   1.052   3.488  1.6767 -0.8924 -0.3661
 5294TIP3    H215889   5.397   1.146   3.605 -1.1141  1.6153 -2.6464
 5295TIP3   OH215890   0.768   4.990   0.637 -0.0260  0.3477 -0.2379
 5295TIP3    H115891   0.765   4.921   0.704  0.2744 -1.0819 -1.6459
 5295TIP3    H215892   0.859   4.991   0.607 -0.1769  0.9008 -0.6935
 5296TIP3   OH215893   0.711   5.394   3.927 -0.0703  0.4635 -0.0400
 5296TIP3    H115894   0.730   5.303   3.951 -1.0408  0.4333  0.6801
 5296TIP3    H215895   0.780   5.445   3.968  1.3765 -0.0539 -1.7122
 5297TIP3   OH215896   2.074   5.337   1.415 -0.5296  0.2101 -0.0619
 5297TIP3    H115897   2.075   5.242   1.412 -0.5876  0.2316 -0.7425
 5297TIP3    H215898   1.991   5.359   1.456 -0.1993 -0.0436  0.7729
 5298TIP3   OH215899   0.133   1.531   3.999 -0.2192 -0.1440  0.5360
 5298TIP3    H115900   0.092   1.444   3.993 -0.8746  0.1729  0.2327
 5298TIP3    H215901   0.146   1.544   4.092  0.6181 -0.8944  0.5383
 5299TIP3   OH215902   3.016   2.122   2.578 -0.5301  0.8269  0.0709
 5299TIP3    H115903   3.052   2.040   2.610 -0.3568  1.1673  0.7643
 5299TIP3    H215904   3.085   2.159   2.524 -0.2180  0.9874  0.5703
 5300TIP3   OH215905   0.348   1.667   0.933 -0.1056  0.0000  0.1421
 5300TIP3    H115906   0.261   1.706   0.941 -0.1261 -0.2737  1.4973
 5300TIP3    H215907   0.360   1.619   1.015  0.5007 -1.6428 -0.8641
 5301TIP3   OH215908   3.298   3.581   4.065  0.2094 -0.6965 -0.0854
 5301TIP3    H115909   3.326   3.536   4.145  0.5617 -1.1181 -0.4392
 5301TIP3    H215910   3.371   3.568   4.004  0.7357  1.1464  0.0910
 5302TIP3   OH215911   2.431   0.766   1.055 -0.1773  0.3999 -0.5789
 5302TIP3    H115912   2.464   0.775   0.966  0.1115 -0.1070 -0.5214
 5302TIP3    H215913   2.396   0.853   1.076  0.1270  0.6332 -1.0333
 5303TIP3   OH215914   2.825   4.517   4.034 -0.3901 -0.0010 -0.1037
 5303TIP3    H115915   2.902   4.521   4.091 -0.7933 -2.4093  0.7592
 5303TIP3    H215916   2.860   4.525   3.945  0.8846 -1.0373  0.2706
 5304TIP3   OH215917   2.102   1.324   2.776 -0.2479 -0.1284  0.6403
 5304TIP3    H115918   2.181   1.269   2.777 -0.1622 -0.0551 -0.6778
 5304TIP3    H215919   2.082   1.338   2.868  1.3955 -0.0065  1.0079
 5305TIP3   OH215920   1.926   2.137   1.185  0.1097 -0.3953 -0.3499
 5305TIP3    H115921   1.832   2.125   1.203  0.0539  0.2175 -0.2202
 5305TIP3    H215922   1.938   2.232   1.181  0.8601 -0.4473  0.3942
 5306TIP3   OH215923   3.202   3.901   0.141 -0.0799  0.0579 -0.4431
 5306TIP3    H115924   3.178   3.989   0.170  1.0766  0.2708 -0.0677
 5306TIP3    H215925   3.230   3.856   0.221 -0.1389 -0.4690 -0.7142
 5307TIP3   OH215926   1.394   2.456   3.757 -0.0212 -0.0211  0.2628
 5307TIP3    H115927   1.442   2.538   3.753  0.7619 -0.4987 -0.3417
 5307TIP3    H215928   1.320   2.469   3.697 -2.1679  1.6075  2.9797
 5308TIP3   OH215929   3.118   1.252   0.139 -0.3377 -0.1756 -0.1592
 5308TIP3    H115930   3.140   1.268   0.231 -0.0458 -0.1303 -0.2356
 5308TIP3    H215931   3.199   1.272   0.091 -1.3578  3.0114 -0.7785
 5309TIP3   OH215932   1.649   5.794   1.547 -0.7318 -0.2665  0.7009
 5309TIP3    H115933   1.742   5.789   1.523 -0.6726 -0.3716  0.9490
 5309TIP3    H215934   1.645   5.864   1.612 -0.7018 -0.8061  1.2818
 5310TIP3   OH215935   3.425   2.043   0.320  0.0126 -0.0580  0.1463
 5310TIP3    H115936   3.396   1.965   0.367  0.7653 -0.5597 -0.2136
 5310TIP3    H215937   3.492   2.082   0.377  1.8831 -1.3767 -1.0336
 5311TIP3   OH215938   3.512   1.226   1.499  0.6126 -0.6503 -0.3800
 5311TIP3    H115939   3.532   1.227   1.592  1.1154  1.0215 -0.4715
 5311TIP3    H215940   3.541   1.140   1.468  0.3926 -1.2423  0.9919
 5312TIP3   OH215941   5.197   0.487   3.814 -0.0820 -0.4478 -0.2954
 5312TIP3    H115942   5.221   0.442   3.895  2.0413 -0.1965 -0.7311
 5312TIP3    H215943   5.232   0.432   3.745 -0.7481 -0.0019 -1.0080
 5313TIP3   OH215944   1.460   0.111   0.055  0.0887 -0.1308  0.2969
 5313TIP3    H115945   1.439   0.038   0.113 -1.2227 -1.7680 -2.0425
 5313TIP3    H215946   1.424   0.188   0.098  0.1937 -1.0710  2.1451
 5314TIP3   OH215947   0.110   2.178   4.743  0.1906  0.4233 -0.1621
 5314TIP3    H115948   0.141   2.225   4.820 -0.8858 -2.3428  2.1523
 5314TIP3    H215949   0.151   2.092   4.749  0.5381  0.2668 -3.0779
 5315TIP3   OH215950   0.383   3.486   0.830  0.2019  0.4168  0.3190
 5315TIP3    H115951   0.436   3.547   0.779  0.1662 -0.1969 -0.4698
 5315TIP3    H215952   0.447   3.436   0.881  0.3543  0.0915 -0.1772
 5316TIP3   OH215953   1.752   0.708   4.973 -0.1477 -0.0526  0.4555
 5316TIP3    H115954   1.759   0.773   5.043  0.1131 -1.8885  2.2126
 5316TIP3    H215955   1.762   0.759   4.893  1.7323  1.8818  1.7950
 5317TIP3   OH215956   0.973   2.116   1.677 -0.1867  0.0296 -0.2271
 5317TIP3    H115957   0.997   2.190   1.733  0.5562 -0.3594 -0.0164
 5317TIP3    H215958   1.039   2.049   1.696 -0.2997 -0.3431 -1.1045
 5318TIP3   OH215959   4.570   2.398   5.192 -0.0793  0.1184 -0.3733
 5318TIP3    H115960   4.476   2.400   5.176 -0.1131 -2.4984 -0.9385
 5318TIP3    H215961   4.600   2.487   5.171 -2.1867  0.5893 -1.6844
 5319TIP3   OH215962   1.555   0.463   4.142 -0.0890  0.6019 -0.1292
 5319TIP3    H115963   1.480   0.508   4.181 -0.7050  0.4713 -1.1126
 5319TIP3    H215964   1.554   0.491   4.050  0.8147  0.2584 -0.2522
 5320TIP3   OH215965   3.479   5.853   0.552  0.6762  0.4854  0.0863
 5320TIP3    H115966   3.497   5.882   0.641  1.8697 -0.0077  0.0179
 5320TIP3    H215967   3.545   5.895   0.498  1.0004 -0.5116 -0.3271
 5321TIP3   OH215968   0.688   1.928   1.784  0.2985  0.2132  0.6614
 5321TIP3    H115969   0.689   2.022   1.799 -3.8324  0.3184  1.4684
 5321TIP3    H215970   0.677   1.918   1.690 -1.0603  0.6841  0.7447
 5322TIP3   OH215971   3.880   5.485   4.868 -0.3606  0.5392  0.4314
 5322TIP3    H115972   3.907   5.421   4.934  1.0355 -0.3167 -0.9003
 5322TIP3    H215973   3.810   5.443   4.820 -0.2988  0.5162  0.3611
 5323TIP3   OH215974   4.199   1.014   5.083 -0.0483  0.1291  0.3541
 5323TIP3    H115975   4.263   1.001   5.014 -0.2995  1.9678 -0.2792
 5323TIP3    H215976   4.251   1.039   5.160  0.1397 -0.6529  0.4877
 5324TIP3   OH215977   0.663   0.904   0.313 -0.1154 -0.0258 -0.3267
 5324TIP3    H115978   0.615   0.829   0.347  1.8784 -1.4472 -0.4091
 5324TIP3    H215979   0.755   0.878   0.319  0.6122  2.0743 -1.2046
 5325TIP3   OH215980   3.055   5.296   1.549 -0.3723 -0.0444  0.0753
 5325TIP3    H115981   3.104   5.249   1.616  0.8572  1.5271  0.3319
 5325TIP3    H215982   3.116   5.306   1.476 -1.8304 -2.1457 -1.5741
 5326TIP3   OH215983   1.385   2.750   3.137  0.0304 -0.0472 -0.0763
 5326TIP3    H115984   1.404   2.717   3.225 -1.6713 -1.1108 -0.0538
 5326TIP3    H215985   1.338   2.678   3.094  0.4060  0.6247 -1.7155
 5327TIP3   OH215986   6.327   2.653   1.606 -0.0837 -0.5581 -0.2619
 5327TIP3    H115987   6.387   2.701   1.550  1.3148 -0.3219  1.3630
 5327TIP3    H215988   6.241   2.666   1.566  0.8763 -0.6366 -2.4688
 5328TIP3   OH215989   1.912   2.785   4.688 -0.4411 -0.4248 -0.2083
 5328TIP3    H115990   1.822   2.751   4.687 -0.4653 -0.4005  0.4078
 5328TIP3    H215991   1.962   2.720   4.737 -0.2818 -0.0628  0.1149
 5329TIP3   OH215992   2.446   0.446   4.533  0.5119  0.3307  0.3058
 5329TIP3    H115993   2.399   0.376   4.579  0.7055  0.8085  1.2599
 5329TIP3    H215994   2.400   0.526   4.557  1.4522  0.7458  0.8163
 5330TIP3   OH215995   0.282   0.285   2.831  0.0672  0.5427 -0.2018
 5330TIP3    H115996   0.193   0.320   2.845 -0.5764 -0.8379 -0.6918
 5330TIP3    H215997   0.337   0.363   2.825 -0.9760  1.4245  0.9262
 5331TIP3   OH215998   4.723   3.306   4.851 -0.3038  0.3983 -0.9650
 5331TIP3    H115999   4.791   3.293   4.785 -0.6388  0.2313 -1.2891
 5331TIP3    H216000   4.642   3.315   4.799 -0.5855  0.1678 -0.5743
 5332TIP3   OH216001   3.405   0.056   0.631 -0.2590  0.3242  0.1125
 5332TIP3    H116002   3.424   0.112   0.556  0.0308 -0.4070 -0.3795
 5332TIP3    H216003   3.486   0.007   0.645 -0.3935  0.2759  0.7507
 5333TIP3   OH216004   2.423   3.916   0.220  0.0594  0.2252 -0.4116
 5333TIP3    H116005   2.376   3.843   0.180  2.1895 -1.0318 -0.7965
 5333TIP3    H216006   2.394   3.993   0.172  0.4954 -0.8807 -2.5996
 5334TIP3   OH216007   5.789   5.927   1.810 -0.2533  0.4021  0.9079
 5334TIP3    H116008   5.876   5.931   1.848  0.5035  0.2177 -0.7285
 5334TIP3    H216009   5.802   5.892   1.722 -2.2875 -2.4860  1.5634
 5335TIP3   OH216010   3.863   4.465   3.646 -0.3224  0.1950  0.6087
 5335TIP3    H116011   3.882   4.522   3.572 -1.9171  1.4033  1.0730
 5335TIP3    H216012   3.920   4.389   3.634 -0.5201  0.3678 -1.8507
 5336TIP3   OH216013   3.893   2.135   3.915  0.2011  0.2115  0.5497
 5336TIP3    H116014   3.933   2.111   3.998 -0.6888 -0.5975  0.7614
 5336TIP3    H216015   3.857   2.223   3.929  0.4274  0.2503  0.8822
 5337TIP3   OH216016   6.023   0.393   3.813  0.2959  0.0865  0.2560
 5337TIP3    H116017   6.019   0.318   3.754  1.2502  0.6861 -0.6148
 5337TIP3    H216018   5.965   0.371   3.885  0.6511 -1.5336  0.0715
 5338TIP3   OH216019   3.583   5.595   3.760  0.4046 -0.8382 -1.2404
 5338TIP3    H116020   3.522   5.665   3.737  0.3118 -0.8286 -0.9644
 5338TIP3    H216021   3.532   5.515   3.754  0.4712 -0.8684 -1.4078
 5339TIP3   OH216022   5.614   2.343   3.463  0.1941  0.2904  0.1502
 5339TIP3    H116023   5.663   2.324   3.383 -1.6659  0.5501 -1.1284
 5339TIP3    H216024   5.609   2.258   3.508  1.4091  0.1751  0.1000
 5340TIP3   OH216025   6.247   2.011   1.690  0.0638 -0.3663 -0.6284
 5340TIP3    H116026   6.302   2.063   1.631 -0.4771 -1.8580 -2.5824
 5340TIP3    H216027   6.262   1.920   1.662 -1.2972 -1.0185  0.6277
 5341TIP3   OH216028   5.959   0.681   4.712  0.2259 -0.3577 -0.0283
 5341TIP3    H116029   5.925   0.592   4.718 -1.0052  0.0548 -0.5504
 5341TIP3    H216030   5.928   0.724   4.792 -4.0180  1.1163 -2.1321
 5342TIP3   OH216031   3.818   4.480   5.101  0.1182  0.1721 -0.0251
 5342TIP3    H116032   3.852   4.420   5.036 -1.7903 -0.9888 -0.0206
 5342TIP3    H216033   3.839   4.440   5.185 -0.2328  0.0381  0.0004
 5343TIP3   OH216034   1.993   0.339   5.066 -0.1246 -0.1432  0.1701
 5343TIP3    H116035   1.948   0.310   5.146  0.1450 -1.0641 -0.0082
 5343TIP3    H216036   2.045   0.264   5.039  0.3767  0.4216 -0.4582
 5344TIP3   OH216037   2.191   0.276   3.573 -0.4530  0.6237  0.2705
 5344TIP3    H116038   2.255   0.226   3.523 -1.8092  0.9636 -1.9001
 5344TIP3    H216039   2.148   0.211   3.628  0.7672  0.1713  0.7277
 5345TIP3   OH216040   1.659   2.368   0.313 -0.1728  0.2441  0.1003
 5345TIP3    H116041   1.698   2.434   0.256  0.4441 -0.2796 -0.0954
 5345TIP3    H216042   1.705   2.378   0.397  0.4202 -0.3914 -0.1391
 5346TIP3   OH216043   0.028   3.355   1.598 -0.6010  0.5300 -0.2072
 5346TIP3    H116044   0.058   3.273   1.559 -1.7415 -0.7476  1.4718
 5346TIP3    H216045   0.036   3.342   1.692 -0.4543  2.5060  0.1058
 5347TIP3   OH216046   1.481   5.417   2.307  0.0633  0.0656 -0.3377
 5347TIP3    H116047   1.416   5.371   2.252 -0.8822 -0.5429  1.2261
 5347TIP3    H216048   1.432   5.490   2.346  0.5747  0.1800  0.0949
 5348TIP3   OH216049   1.645   0.824   0.200  0.1833  0.2861 -0.1112
 5348TIP3    H116050   1.652   0.807   0.105  1.5184  0.4577 -0.0614
 5348TIP3    H216051   1.726   0.870   0.222  0.2923 -0.5231  1.2789
 5349TIP3   OH216052   5.428   2.601   4.399 -0.1505 -0.0544  0.3304
 5349TIP3    H116053   5.423   2.508   4.377 -1.1591  0.3164 -1.0869
 5349TIP3    H216054   5.516   2.628   4.370  0.6393 -0.7930  1.8739
 5350TIP3   OH216055   2.851   2.903   5.060  0.3476  0.6652  0.1872
 5350TIP3    H116056   2.806   2.981   5.093  0.2032  0.2350  1.0187
 5350TIP3    H216057   2.844   2.839   5.131 -0.4077 -0.4557 -0.8587
 5351TIP3   OH216058   5.893   0.752   3.199  0.2241  0.1176  0.5892
 5351TIP3    H116059   5.928   0.790   3.119  0.0904  0.2038  0.5717
 5351TIP3    H216060   5.939   0.669   3.209 -1.0848 -0.7955 -0.5885
 5352TIP3   OH216061   2.203   0.818   1.496 -0.2543  0.2365 -0.5582
 5352TIP3    H116062   2.262   0.759   1.544  0.7803  1.8100  0.2123
 5352TIP3    H216063   2.141   0.760   1.452 -0.9132 -1.3544  2.2132
 5353TIP3   OH216064   1.443   4.413   3.888 -0.3199  0.1215 -0.5257
 5353TIP3    H116065   1.425   4.319   3.879  0.4259  0.0114 -0.8840
 5353TIP3    H216066   1.493   4.421   3.969  1.0082  0.0032 -1.3034
 5354TIP3   OH216067   4.195   2.988   2.977 -0.3560 -0.1751 -0.1702
 5354TIP3    H116068   4.248   3.068   2.983 -0.5597 -0.0236 -0.3806
 5354TIP3    H216069   4.251   2.926   2.930  0.9135 -1.0939  2.4012
 5355TIP3   OH216070   5.425   0.302   5.041 -0.4083 -0.0543  0.0893
 5355TIP3    H116071   5.465   0.219   5.015  1.9640  0.5109  1.6759
 5355TIP3    H216072   5.472   0.327   5.121 -2.0150  2.1449  0.4106
 5356TIP3   OH216073   2.794   0.326   1.791 -0.2801 -0.3262 -0.4694
 5356TIP3    H116074   2.787   0.235   1.818  0.3047 -0.4201 -0.6244
 5356TIP3    H216075   2.768   0.327   1.699 -0.9308 -0.2235 -0.2941
 5357TIP3   OH216076   2.096   1.452   0.711  0.3920 -0.0509 -0.0826
 5357TIP3    H116077   2.042   1.528   0.688  1.9683  0.9859 -0.5544
 5357TIP3    H216078   2.116   1.411   0.627  0.9176  0.0109  0.0063
 5358TIP3   OH216079   6.218   5.407   4.756 -0.1339  0.2099  0.5998
 5358TIP3    H116080   6.208   5.459   4.836  0.6797  1.6509 -0.2003
 5358TIP3    H216081   6.164   5.453   4.692 -0.0059 -0.3851  0.0655
 5359TIP3   OH216082   1.955   4.641   3.509  0.2121  0.3638  0.6564
 5359TIP3    H116083   1.874   4.600   3.480  1.4070 -0.6615 -1.5420
 5359TIP3    H216084   1.983   4.589   3.584 -0.7307  0.2260  0.9230
 5360TIP3   OH216085   0.237   4.364   3.489 -0.0407  0.6595 -0.1344
 5360TIP3    H116086   0.160   4.420   3.500 -0.1250  0.3927  0.7423
 5360TIP3    H216087   0.231   4.332   3.399 -2.1373 -1.0641  0.5539
 5361TIP3   OH216088   3.516   4.732   2.956  0.3162 -0.7217  0.2596
 5361TIP3    H116089   3.521   4.803   2.892  0.0027  1.2394  2.2879
 5361TIP3    H216090   3.591   4.676   2.935  0.3920  0.0057 -1.5936
 5362TIP3   OH216091   0.984   3.389   4.767 -0.0153  0.0012  0.0843
 5362TIP3    H116092   1.063   3.404   4.819  0.4984 -2.5269  0.1551
 5362TIP3    H216093   0.950   3.305   4.799 -2.5056  0.8033 -0.2486
 5363TIP3   OH216094   6.004   4.472   1.903  0.7635  0.0383 -0.3987
 5363TIP3    H116095   5.940   4.508   1.842  0.8550 -0.3027 -0.7014
 5363TIP3    H216096   6.010   4.537   1.973  0.6647  0.4401 -0.7591
 5364TIP3   OH216097   1.666   1.872   3.109  0.4777 -0.4413  0.4640
 5364TIP3    H116098   1.645   1.827   3.190 -0.1227 -1.0199  0.0013
 5364TIP3    H216099   1.684   1.802   3.046 -0.0773 -0.0354 -0.1641
 5365TIP3   OH216100   0.009   3.293   3.664 -0.0001 -0.4045  1.0293
 5365TIP3    H116101   0.034   3.323   3.577 -0.8708  0.2478  0.9867
 5365TIP3    H216102   0.086   3.310   3.719  0.1416  0.2676  0.6256
 5366TIP3   OH216103   1.897   0.207   1.884  0.2927  0.4892  0.2433
 5366TIP3    H116104   1.987   0.213   1.854 -0.4028  0.0187 -2.1280
 5366TIP3    H216105   1.853   0.283   1.846 -0.4505  0.4333  0.9431
 5367TIP3   OH216106   0.244   2.020   3.173 -0.2235 -0.0456 -0.1665
 5367TIP3    H116107   0.188   2.095   3.155 -2.3377 -1.2689  0.9700
 5367TIP3    H216108   0.231   1.962   3.098 -0.7527 -0.4881  0.2672
 5368TIP3   OH216109   3.136   2.961   5.023 -0.2605 -0.3217  0.3430
 5368TIP3    H116110   3.183   2.909   4.957  0.0291  0.3897 -0.0187
 5368TIP3    H216111   3.051   2.916   5.032  0.6057 -1.8474  1.2941
 5369TIP3   OH216112   4.312   3.264   2.966 -0.1159 -0.1599  0.6842
 5369TIP3    H116113   4.403   3.235   2.968 -0.1499 -0.2506  1.0640
 5369TIP3    H216114   4.308   3.326   2.893  0.6778  1.2835  1.8092
 5370TIP3   OH216115   5.138   2.298   4.866 -0.0173 -0.2237  0.4649
 5370TIP3    H116116   5.069   2.302   4.799  0.4360 -0.6323 -0.0304
 5370TIP3    H216117   5.096   2.255   4.940 -0.6917  0.7218  0.6632
 5371TIP3   OH216118   4.451   5.669   2.189  0.0172  0.2967 -0.6339
 5371TIP3    H116119   4.514   5.599   2.204 -0.6997 -0.1967  0.1215
 5371TIP3    H216120   4.505   5.744   2.161  1.3689  0.9124  3.0188
 5372TIP3   OH216121   1.532   1.481   3.698  0.7369 -0.4815 -0.2305
 5372TIP3    H116122   1.520   1.558   3.753 -0.4690 -1.7405  1.3955
 5372TIP3    H216123   1.445   1.463   3.663  1.1547 -0.6993 -1.1887
 5373TIP3   OH216124   2.810   2.638   2.671 -0.5153  0.2975  0.1345
 5373TIP3    H116125   2.882   2.666   2.614 -0.8738 -1.1705 -1.0908
 5373TIP3    H216126   2.841   2.557   2.710 -1.9836 -1.1161 -1.4841
 5374TIP3   OH216127   2.765   1.419   3.959 -0.7280 -0.1024  0.3691
 5374TIP3    H116128   2.686   1.436   4.010 -1.0468 -0.8857  0.1610
 5374TIP3    H216129   2.826   1.381   4.021 -0.8145 -0.2655  0.3557
 5375TIP3   OH216130   2.416   3.525   0.130 -0.0882  0.6635  0.5902
 5375TIP3    H116131   2.347   3.489   0.075 -0.3335  1.5054  0.3331
 5375TIP3    H216132   2.380   3.606   0.165  1.9717  3.0850 -2.4354
 5376TIP3   OH216133   4.167   0.770   1.765 -0.6426  0.2989 -0.4196
 5376TIP3    H116134   4.172   0.848   1.820 -2.4377  0.0973  0.1054
 5376TIP3    H216135   4.249   0.769   1.717  1.1718  0.2856  2.4710
 5377TIP3   OH216136   5.105   4.385   2.043 -0.1047 -0.4285  0.5611
 5377TIP3    H116137   5.183   4.401   1.989 -0.1428 -0.7825  0.4003
 5377TIP3    H216138   5.116   4.444   2.118  1.2102 -1.7064  1.4384
 5378TIP3   OH216139   0.946   4.038   1.674  0.0621 -0.0649 -0.3539
 5378TIP3    H116140   0.864   4.032   1.723  0.2028  0.6276 -0.0392
 5378TIP3    H216141   1.014   4.049   1.740  0.3669 -0.1730 -0.6431
 5379TIP3   OH216142   1.737   1.077   5.157 -0.1498 -0.4950  0.6458
 5379TIP3    H116143   1.719   1.135   5.083 -3.6226 -0.4558  1.3499
 5379TIP3    H216144   1.748   1.136   5.231 -3.5693 -0.4887  1.3394
 5380TIP3   OH216145   0.782   5.569   4.276  0.3360 -0.3088  0.0923
 5380TIP3    H116146   0.719   5.533   4.338  0.0598  0.9517  0.5771
 5380TIP3    H216147   0.829   5.493   4.243 -0.4882 -1.1392  0.7734
 5381TIP3   OH216148   2.689   5.543   0.358  0.2459 -0.6958 -0.1171
 5381TIP3    H116149   2.685   5.599   0.281  0.8420  0.1399  0.4447
 5381TIP3    H216150   2.604   5.498   0.359  0.3238 -0.9094 -1.3764
 5382TIP3   OH216151   0.314   2.453   1.522  0.3055  0.4474 -0.3497
 5382TIP3    H116152   0.374   2.389   1.558 -0.4163 -0.7279 -1.1758
 5382TIP3    H216153   0.330   2.451   1.428 -1.2133 -0.1059 -0.6226
 5383TIP3   OH216154   3.270   1.871   2.519  0.2750  0.5372  0.7007
 5383TIP3    H116155   3.291   1.788   2.477 -2.7961 -0.6892  1.2957
 5383TIP3    H216156   3.246   1.930   2.448 -0.8043 -0.1980  0.4341
 5384TIP3   OH216157   0.004   0.933   1.996  0.2343  0.3021  0.1346
 5384TIP3    H116158  -0.035   0.865   2.052  0.8232  0.4234  0.7089
 5384TIP3    H216159   0.081   0.891   1.957 -0.9102 -0.2198 -1.6973
 5385TIP3   OH216160   4.157   5.262   4.995 -0.1733 -0.3150  0.2975
 5385TIP3    H116161   4.213   5.195   4.956  1.6063  1.9484 -1.3229
 5385TIP3    H216162   4.071   5.248   4.956  0.2901 -1.3276 -0.3981
 5386TIP3   OH216163   3.444   2.228   1.910  0.7217  0.3038 -0.7368
 5386TIP3    H116164   3.370   2.167   1.905  0.9473 -0.1848  1.1183
 5386TIP3    H216165   3.480   2.229   1.821 -0.9954 -0.0779 -1.4790
 5387TIP3   OH216166   1.415   5.329   3.215  0.8063 -0.0046 -0.0821
 5387TIP3    H116167   1.506   5.334   3.246 -0.4791  0.3421  4.2727
 5387TIP3    H216168   1.401   5.413   3.171  2.0191  0.8969  1.1506
 5388TIP3   OH216169   4.082   1.468   1.587 -0.5916 -0.4502  0.2641
 5388TIP3    H116170   4.093   1.557   1.618  1.7017 -0.7625  0.5579
 5388TIP3    H216171   4.011   1.432   1.639  0.1325  0.4468  1.9264
 5389TIP3   OH216172   0.896   3.138   3.730 -0.2392  0.4128 -0.2842
 5389TIP3    H116173   0.898   3.081   3.806 -1.0612 -1.7119 -1.7493
 5389TIP3    H216174   0.826   3.201   3.748 -0.3006  0.0569  0.7777
 5390TIP3   OH216175   0.591   3.582   2.061  0.0153 -0.0906  0.2567
 5390TIP3    H116176   0.669   3.565   2.113 -0.8223 -1.7333  1.0599
 5390TIP3    H216177   0.582   3.505   2.005  0.8807  1.6172 -2.4080
 5391TIP3   OH216178   0.758   2.547   4.746 -0.2740  0.1352 -0.3987
 5391TIP3    H116179   0.731   2.530   4.655 -0.9113 -2.2821  0.1781
 5391TIP3    H216180   0.779   2.461   4.781  0.6247  1.0983  1.5794
 5392TIP3   OH216181   0.206   0.318   0.718  0.1212  0.2744 -0.5121
 5392TIP3    H116182   0.203   0.289   0.627 -0.7499  2.7834 -1.3711
 5392TIP3    H216183   0.291   0.361   0.727 -1.0593  2.9979 -1.2534
 5393TIP3   OH216184   3.562   3.343   0.233  0.2752  0.0003  0.4124
 5393TIP3    H116185   3.603   3.269   0.188  1.3239 -0.3448  1.8556
 5393TIP3    H216186   3.632   3.380   0.286 -0.5293  1.3508  0.5658
 5394TIP3   OH216187   2.248   2.271   2.834 -0.2243  0.1442 -0.3039
 5394TIP3    H116188   2.196   2.306   2.907 -1.0665  0.4816 -1.0439
 5394TIP3    H216189   2.203   2.191   2.808  0.8356 -0.7002  0.3946
 5395TIP3   OH216190   1.656   1.630   5.081  0.6216  0.6470  0.2880
 5395TIP3    H116191   1.629   1.697   5.018  1.5914 -0.1296 -1.0161
 5395TIP3    H216192   1.648   1.673   5.166 -0.9658  1.6551 -0.3139
 5396TIP3   OH216193   1.356   0.950   1.726 -0.5848  0.8779  0.1572
 5396TIP3    H116194   1.320   1.006   1.795 -1.0427  0.1396  0.5267
 5396TIP3    H216195   1.313   0.979   1.646 -1.6932  0.3150  0.5213
 5397TIP3   OH216196   5.097   3.437   4.092  0.3424  0.0032 -0.6021
 5397TIP3    H116197   5.007   3.458   4.115 -0.1246 -2.7535  0.5078
 5397TIP3    H216198   5.141   3.428   4.177  1.8399  1.7450 -1.1234
 5398TIP3   OH216199   4.457   5.593   4.430 -0.0903  0.5636 -0.1954
 5398TIP3    H116200   4.363   5.596   4.444 -0.1094  1.6665 -0.4396
 5398TIP3    H216201   4.493   5.564   4.514 -0.6263  0.3982 -0.0173
 5399TIP3   OH216202   2.272   2.273   4.973  0.3063  0.4058  0.4742
 5399TIP3    H116203   2.316   2.307   4.895 -1.9560  0.5653 -0.8397
 5399TIP3    H216204   2.264   2.350   5.030  0.6588  0.6398  0.2185
 5400TIP3   OH216205   4.216   5.292   1.547  0.3454  0.4117 -0.4049
 5400TIP3    H116206   4.160   5.271   1.472 -0.5150 -0.1118  0.3595
 5400TIP3    H216207   4.285   5.225   1.545 -0.0602 -0.0106 -0.3408
 5401TIP3   OH216208   3.000   0.485   0.859 -0.2473 -0.2671  0.6972
 5401TIP3    H116209   3.021   0.404   0.812  0.0747  0.2144 -0.0186
 5401TIP3    H216210   2.906   0.481   0.875 -0.6622  0.2149 -1.3353
 5402TIP3   OH216211   4.396   1.143   4.215  0.3254  0.3079  0.0909
 5402TIP3    H116212   4.337   1.211   4.250  0.9157  0.6233  0.4770
 5402TIP3    H216213   4.469   1.193   4.177  2.0313 -0.1287  2.5747
 5403TIP3   OH216214   3.786   5.972   0.947 -0.2598 -0.3240 -0.3300
 5403TIP3    H116215   3.792   5.902   1.012 -1.7868  1.2061  1.6015
 5403TIP3    H216216   3.867   6.022   0.959 -0.1359 -0.5494 -0.2141
 5404TIP3   OH216217   5.679   5.139   2.777  0.3868  0.5002 -0.1112
 5404TIP3    H116218   5.713   5.221   2.812 -0.1669  0.5091  0.4183
 5404TIP3    H216219   5.732   5.123   2.698  1.5256  0.5917  0.6042
 5405TIP3   OH216220   2.829   4.371   1.363 -0.1865  0.4300 -0.4090
 5405TIP3    H116221   2.910   4.329   1.334 -0.3646 -1.2680  1.2748
 5405TIP3    H216222   2.760   4.311   1.334 -0.5212 -0.0551  1.2523
 5406TIP3   OH216223   5.698   1.911   1.559 -0.1362 -0.8473  0.1345
 5406TIP3    H116224   5.764   1.943   1.620 -1.0031 -0.9190  1.1379
 5406TIP3    H216225   5.748   1.876   1.486  0.9435 -1.1045  0.9721
 5407TIP3   OH216226   4.583   5.703   0.531  0.3594 -0.4301 -0.1844
 5407TIP3    H116227   4.657   5.664   0.579  0.4678 -1.0235 -0.8177
 5407TIP3    H216228   4.511   5.702   0.593  0.9020  0.2276  0.4723
 5408TIP3   OH216229   0.293   1.656   3.434 -0.3400  0.2483  0.2745
 5408TIP3    H116230   0.290   1.639   3.528 -0.8526  2.6725  0.7618
 5408TIP3    H216231   0.243   1.738   3.423  2.1424  1.6384 -1.6671
 5409TIP3   OH216232   2.574   2.870   3.820  0.0226 -0.2817  0.1894
 5409TIP3    H116233   2.637   2.937   3.843 -0.9297  0.0363  2.0452
 5409TIP3    H216234   2.620   2.787   3.833  0.2665 -0.0410  0.8550
 5410TIP3   OH216235   0.372   4.988   4.727  0.5342 -0.0532 -0.1175
 5410TIP3    H116236   0.437   4.983   4.797 -0.3220  2.5649  0.9454
 5410TIP3    H216237   0.294   4.947   4.764  0.0548  1.4086  0.5368
 5411TIP3   OH216238   4.160   2.287   4.887  0.1411  0.1263  0.5289
 5411TIP3    H116239   4.088   2.302   4.949 -1.6293  0.3187 -1.4620
 5411TIP3    H216240   4.155   2.193   4.867  1.8682 -0.3220  1.9687
 5412TIP3   OH216241   4.638   5.865   1.791 -0.5503  0.1117  0.4222
 5412TIP3    H116242   4.660   5.957   1.777  1.5881 -0.0751  2.0862
 5412TIP3    H216243   4.707   5.817   1.745  0.4309 -0.5675  2.5015
 5413TIP3   OH216244   0.469   5.741   1.511  0.5374  0.3636  0.2679
 5413TIP3    H116245   0.478   5.820   1.566  0.7698 -0.2947  1.1946
 5413TIP3    H216246   0.559   5.718   1.488  0.4911  0.1734  0.2795
 5414TIP3   OH216247   4.827   3.791   2.925 -0.1406  0.1753  0.4841
 5414TIP3    H116248   4.767   3.757   2.859 -0.1543 -1.1941  1.1550
 5414TIP3    H216249   4.794   3.879   2.945 -1.5446 -0.3002  0.3622
 5415TIP3   OH216250   5.673   4.601   1.310  0.2151 -0.5662  0.0670
 5415TIP3    H116251   5.595   4.546   1.296 -1.4742  1.9482 -1.2004
 5415TIP3    H216252   5.667   4.669   1.243  2.3962  0.9574  1.2778
 5416TIP3   OH216253   4.994   1.241   0.691 -0.0799  0.3626  0.1608
 5416TIP3    H116254   4.990   1.162   0.638  2.3863  0.1052  0.2695
 5416TIP3    H216255   5.018   1.310   0.630  0.2043  0.5629  0.4956
 5417TIP3   OH216256   2.045   0.702   1.910 -0.4202  0.2840 -0.3797
 5417TIP3    H116257   2.134   0.674   1.887 -0.7360 -2.1347  1.0139
 5417TIP3    H216258   1.988   0.647   1.856 -1.1009  1.5439 -0.9744
 5418TIP3   OH216259   3.589   0.314   3.592  0.1350  0.1888 -0.5343
 5418TIP3    H116260   3.610   0.386   3.532  1.1804 -1.0220 -1.6944
 5418TIP3    H216261   3.549   0.247   3.536  0.1548 -0.5541  0.3192
 5419TIP3   OH216262   4.511   3.833   3.574 -0.0963  0.5542 -0.4072
 5419TIP3    H116263   4.555   3.774   3.635  0.5793 -1.5500 -2.7745
 5419TIP3    H216264   4.493   3.912   3.626  1.8096 -0.4930  2.0432
 5420TIP3   OH216265   1.138   1.343   3.121 -0.0097  0.5328 -0.3057
 5420TIP3    H116266   1.064   1.289   3.149 -0.2880  0.0404 -1.9006
 5420TIP3    H216267   1.110   1.433   3.139 -1.0117  0.3520 -0.9098
 5421TIP3   OH216268   2.084   0.703   4.660  0.1166  0.4593  0.8134
 5421TIP3    H116269   2.176   0.710   4.635 -0.1593  1.3984  0.0002
 5421TIP3    H216270   2.038   0.760   4.598 -0.9728  0.2845  1.4386
 5422TIP3   OH216271   1.095   2.488   2.265  0.5145 -0.7506  0.0000
 5422TIP3    H116272   1.134   2.457   2.347  1.7262  0.4809 -0.0710
 5422TIP3    H216273   1.170   2.510   2.210 -0.1185  3.4380  0.4926
 5423TIP3   OH216274   0.561   0.713   2.383  0.9439  0.2177 -0.1225
 5423TIP3    H116275   0.466   0.717   2.381  0.9547  3.4077  0.4149
 5423TIP3    H216276   0.581   0.645   2.447 -0.9256 -0.7840 -0.5337
 5424TIP3   OH216277   3.531   5.720   2.292  0.3625  0.3020  0.1338
 5424TIP3    H116278   3.508   5.738   2.383 -0.6707 -0.3786  0.0130
 5424TIP3    H216279   3.485   5.787   2.242  0.0091 -0.0281  0.0199
 5425TIP3   OH216280   3.386   3.219   3.485  0.0551  0.2097  0.4183
 5425TIP3    H116281   3.432   3.270   3.418  0.5688  0.3591  0.8781
 5425TIP3    H216282   3.424   3.249   3.567 -1.4014  0.9016  0.8681
 5426TIP3   OH216283   2.492   3.252   2.181  0.0699 -0.3795 -0.2480
 5426TIP3    H116284   2.491   3.166   2.221  1.7414  0.5442  1.9885
 5426TIP3    H216285   2.416   3.297   2.218  0.0569 -0.3953 -0.2551
 5427TIP3   OH216286   2.372   0.376   2.212  0.3564  0.7549  0.7102
 5427TIP3    H116287   2.398   0.284   2.210  0.4384  0.7566 -1.9542
 5427TIP3    H216288   2.425   0.417   2.143 -1.8711  2.1163 -0.3110
 5428TIP3   OH216289   2.430   2.525   2.224 -0.0572 -0.0851 -0.1909
 5428TIP3    H116290   2.412   2.582   2.150  1.5558 -0.7584 -1.1490
 5428TIP3    H216291   2.508   2.562   2.265 -1.0380  0.4012  1.3540
 5429TIP3   OH216292   0.498   2.175   2.451  0.0141  0.6526 -0.2421
 5429TIP3    H116293   0.499   2.124   2.371 -0.1443  1.7304 -0.9592
 5429TIP3    H216294   0.491   2.111   2.521  0.7703 -0.3425 -1.0520
 5430TIP3   OH216295   1.742   5.970   4.074 -0.0418 -0.3222 -0.4747
 5430TIP3    H116296   1.836   5.969   4.058  0.0921 -1.1656  0.2549
 5430TIP3    H216297   1.706   5.910   4.009 -0.0278 -0.2641 -0.5354
 5431TIP3   OH216298   2.016   1.029   5.114 -0.1831 -0.1534 -0.1432
 5431TIP3    H116299   1.951   1.099   5.123 -0.2555 -0.2276 -0.0849
 5431TIP3    H216300   1.986   0.978   5.040 -0.2588 -0.2585 -0.0411
 5432TIP3   OH216301   3.591   4.088   1.988 -0.2854 -0.2010  0.3534
 5432TIP3    H116302   3.522   4.022   1.992 -1.2597  0.8086  1.0327
 5432TIP3    H216303   3.613   4.095   1.895 -2.6541  0.9476 -0.2102
 5433TIP3   OH216304   4.494   1.449   3.388  0.3293 -0.3546 -0.0979
 5433TIP3    H116305   4.400   1.444   3.407 -0.2858  1.5371 -2.2322
 5433TIP3    H216306   4.514   1.366   3.345  0.2177 -1.7229  2.2979
 5434TIP3   OH216307   4.530   5.690   3.826 -0.0316  0.1308 -0.0750
 5434TIP3    H116308   4.618   5.659   3.846  0.6492  2.4554  0.8787
 5434TIP3    H216309   4.522   5.680   3.731  0.2685 -2.3941  0.1113
 5435TIP3   OH216310   5.727   5.385   3.877  0.1277 -0.3310  0.4763
 5435TIP3    H116311   5.659   5.435   3.831  1.1388  0.1555 -0.5262
 5435TIP3    H216312   5.695   5.381   3.967 -0.6088  1.0348  0.3171
 5436TIP3   OH216313   5.591   3.010   4.628  0.0241  0.0354  0.0612
 5436TIP3    H116314   5.679   2.997   4.665  0.3430 -0.2743 -0.7750
 5436TIP3    H216315   5.563   2.922   4.602 -0.1998  0.2457 -0.4096
 5437TIP3   OH216316   1.939   5.708   3.338 -0.2599 -0.0840  0.7696
 5437TIP3    H116317   1.874   5.642   3.361  0.0707 -0.7351 -0.1015
 5437TIP3    H216318   2.023   5.667   3.357  0.0612 -0.8357 -1.8448
 5438TIP3   OH216319   2.479   5.436   3.137  0.1407  0.5931 -0.6521
 5438TIP3    H116320   2.521   5.390   3.064 -0.8894 -0.4846 -0.5876
 5438TIP3    H216321   2.425   5.503   3.095 -1.9422 -1.2223 -1.0709
 5439TIP3   OH216322   6.189   0.239   3.008 -0.3725  0.4855 -0.3200
 5439TIP3    H116323   6.247   0.212   3.079  0.8873  1.9785 -0.7297
 5439TIP3    H216324   6.102   0.241   3.047 -0.1964 -1.8252  0.3113
 5440TIP3   OH216325   0.644   3.948   4.909 -0.1939 -0.1092 -0.0534
 5440TIP3    H116326   0.577   3.891   4.946 -0.2081 -0.0651 -0.0099
 5440TIP3    H216327   0.622   3.956   4.817  0.6080 -1.3068 -0.3669
 5441TIP3   OH216328   4.008   2.215   3.428 -0.4406 -0.0664  0.2737
 5441TIP3    H116329   3.920   2.239   3.397 -1.3550 -3.3411 -0.0240
 5441TIP3    H216330   4.052   2.182   3.350 -0.7979 -3.1598  1.2646
 5442TIP3   OH216331   5.294   3.549   0.695 -0.2681 -0.1274  0.2986
 5442TIP3    H116332   5.267   3.503   0.775 -1.1631 -1.7053 -0.8407
 5442TIP3    H216333   5.388   3.533   0.689 -0.4641 -1.3609  0.2360
 5443TIP3   OH216334   3.975   0.344   1.879 -0.4686 -0.0463 -0.2086
 5443TIP3    H116335   4.068   0.321   1.876 -0.4536 -0.3575  1.3525
 5443TIP3    H216336   3.974   0.440   1.876 -0.1591 -0.0612 -1.0403
 5444TIP3   OH216337   4.795   1.849   4.232  0.3923  0.0520 -0.6849
 5444TIP3    H116338   4.861   1.919   4.231  0.2823  0.1913  0.5405
 5444TIP3    H216339   4.762   1.848   4.322 -0.5559 -0.7003 -1.0226
 5445TIP3   OH216340   0.448   4.276   3.631 -0.1100  0.1851 -0.1558
 5445TIP3    H116341   0.489   4.344   3.685 -1.6391 -0.1157  1.4846
 5445TIP3    H216342   0.383   4.323   3.580 -1.3683 -0.0251  1.1907
 5446TIP3   OH216343   1.632   2.115   1.225 -0.3164  0.4218 -0.0324
 5446TIP3    H116344   1.544   2.076   1.229 -0.6593  0.9262 -1.7617
 5446TIP3    H216345   1.621   2.200   1.268 -1.2733  1.4312 -2.1522
 5447TIP3   OH216346   1.475   1.083   1.016  0.3186 -0.3231  0.1347
 5447TIP3    H116347   1.509   1.014   0.958  0.3419 -0.1858 -0.0156
 5447TIP3    H216348   1.381   1.085   0.997  0.4852  0.4604 -0.6917
 5448TIP3   OH216349   4.198   5.175   0.332 -0.4367  0.2592 -0.3916
 5448TIP3    H116350   4.195   5.168   0.428  0.0841 -4.1212 -0.4813
 5448TIP3    H216351   4.106   5.178   0.305 -0.6030  0.8360  0.2260
 5449TIP3   OH216352   5.327   0.955   1.254 -0.1131  0.1542  0.0741
 5449TIP3    H116353   5.384   0.942   1.330 -0.3848 -0.6144  0.1555
 5449TIP3    H216354   5.386   0.959   1.179  0.1715  1.0851  0.3300
 5450TIP3   OH216355   0.892   0.614   4.859 -0.5041  0.2402 -0.9524
 5450TIP3    H116356   0.852   0.680   4.916  0.5230  2.0811 -2.2580
 5450TIP3    H216357   0.975   0.592   4.903 -1.2094 -0.8141 -0.1127
 5451TIP3   OH216358   0.317   1.306   4.186 -0.3143  0.6554 -0.0147
 5451TIP3    H116359   0.359   1.390   4.204  0.4097  0.4002 -0.4575
 5451TIP3    H216360   0.373   1.242   4.231  0.0911  0.2533 -1.0718
 5452TIP3   OH216361   4.977   4.876   1.599  0.1473  0.1490  0.6834
 5452TIP3    H116362   4.985   4.851   1.691 -3.4688 -3.2180  0.3726
 5452TIP3    H216363   4.883   4.869   1.581  0.9131 -2.2618 -3.8931
 5453TIP3   OH216364   4.024   2.432   3.599 -0.7089  0.2368 -0.1715
 5453TIP3    H116365   4.025   2.363   3.532  1.0654  1.3077 -1.3626
 5453TIP3    H216366   3.970   2.397   3.669  1.2377 -3.0089 -0.0643
 5454TIP3   OH216367   2.462   0.159   1.785  0.0100  0.0128 -0.2762
 5454TIP3    H116368   2.407   0.152   1.864  0.2956  4.1946  0.5297
 5454TIP3    H216369   2.399   0.162   1.713 -0.5281  0.1561  0.1884
 5455TIP3   OH216370   4.587   5.835   4.403  0.2792 -0.5336 -0.2860
 5455TIP3    H116371   4.536   5.757   4.426  1.1032 -1.5140 -1.6737
 5455TIP3    H216372   4.522   5.897   4.369 -0.2936 -0.8470  0.2148
 5456TIP3   OH216373   4.536   5.131   4.179  0.2088 -0.5467 -0.2862
 5456TIP3    H116374   4.493   5.139   4.094  0.5934  1.9173 -0.2952
 5456TIP3    H216375   4.614   5.185   4.173  0.4920 -0.6886  1.4804
 5457TIP3   OH216376   5.676   4.226   4.481  0.0844 -0.1473 -0.4978
 5457TIP3    H116377   5.663   4.283   4.556  1.4349 -0.1527 -0.2403
 5457TIP3    H216378   5.691   4.286   4.407 -0.1825 -0.1596 -0.5648
 5458TIP3   OH216379   2.232   4.545   3.530  0.1833  0.2000 -0.3512
 5458TIP3    H116380   2.151   4.592   3.510  0.5145  0.4947 -1.0490
 5458TIP3    H216381   2.221   4.460   3.488  1.0429  0.9615 -2.2420
 5459TIP3   OH216382   1.267   2.009   3.735  0.2113 -0.3434 -0.0033
 5459TIP3    H116383   1.317   2.081   3.772  1.3800 -1.3829  0.4914
 5459TIP3    H216384   1.241   2.040   3.648 -1.1447  1.4794  0.9590
 5460TIP3   OH216385   2.251   0.475   3.254 -0.2995  0.6607  0.1680
 5460TIP3    H116386   2.280   0.549   3.201 -2.2011  0.8918 -0.6264
 5460TIP3    H216387   2.279   0.496   3.343  0.1707  1.7874 -0.2358
 5461TIP3   OH216388   1.296   4.107   2.840 -0.1075 -0.1396  0.0614
 5461TIP3    H116389   1.280   4.027   2.790  0.8649 -0.8693  0.8591
 5461TIP3    H216390   1.371   4.086   2.895  0.3845  1.4501  0.0499
 5462TIP3   OH216391   0.886   4.877   2.137  0.2812  0.1460  0.1280
 5462TIP3    H116392   0.936   4.844   2.212  2.9897  2.0755 -0.6875
 5462TIP3    H216393   0.880   4.802   2.078 -0.2982 -0.8847  1.4243
 5463TIP3   OH216394   1.751   0.708   1.861 -0.1184  0.0865  0.0987
 5463TIP3    H116395   1.703   0.772   1.809 -0.4723  1.4239  1.9718
 5463TIP3    H216396   1.821   0.759   1.903  1.0105 -1.2181 -0.1036
 5464TIP3   OH216397   5.522   2.023   0.294  0.2397 -0.0646  0.1365
 5464TIP3    H116398   5.442   2.074   0.304 -0.4588 -1.2013  0.5241
 5464TIP3    H216399   5.496   1.945   0.245  0.9423 -0.7923  0.8709
 5465TIP3   OH216400   6.137   4.822   1.068  0.4451  0.2748 -0.1207
 5465TIP3    H116401   6.214   4.826   1.124  0.9393 -3.5882 -0.2603
 5465TIP3    H216402   6.065   4.800   1.128 -0.1715  1.6162 -0.3205
 5466TIP3   OH216403   3.952   0.350   1.177  0.8253  0.2147 -0.2092
 5466TIP3    H116404   4.015   0.386   1.114  0.6834  0.6608 -0.1013
 5466TIP3    H216405   3.878   0.321   1.123  1.4852 -1.1358 -0.4253
 5467TIP3   OH216406   4.971   2.007   1.595  0.2168  0.3562 -0.2218
 5467TIP3    H116407   4.963   1.951   1.672  1.0351 -0.6915 -0.8630
 5467TIP3    H216408   5.058   2.045   1.602 -0.2426  1.3784  0.0824
 5468TIP3   OH216409   4.929   4.240   1.866  0.0137 -0.1475 -0.3285
 5468TIP3    H116410   4.855   4.289   1.903  0.2294  0.7287 -1.0219
 5468TIP3    H216411   4.998   4.250   1.931  0.0099  0.3589 -0.3962
 5469TIP3   OH216412   6.015   5.441   0.908  0.1755  0.0170 -0.3544
 5469TIP3    H116413   5.981   5.353   0.924  1.2025 -0.4126 -0.5112
 5469TIP3    H216414   5.960   5.474   0.836 -2.0844  0.6207  1.5076
 5470TIP3   OH216415   4.220   2.665   2.966 -0.4235  0.7780 -0.2412
 5470TIP3    H116416   4.262   2.612   2.899 -0.2684  0.5024  0.0734
 5470TIP3    H216417   4.277   2.657   3.043 -1.9862 -1.1740  0.8253
 5471TIP3   OH216418   4.451   0.499   2.926  0.0261 -0.2096  0.0387
 5471TIP3    H116419   4.466   0.500   2.831 -0.4092  0.7786 -0.0327
 5471TIP3    H216420   4.469   0.589   2.954 -2.6749  0.2830  0.4191
 5472TIP3   OH216421   1.404   1.793   0.789 -0.5263 -0.6703  0.0778
 5472TIP3    H116422   1.482   1.836   0.825 -1.2193 -0.3254  1.1930
 5472TIP3    H216423   1.366   1.858   0.730 -0.5620 -0.4376  0.3569
 5473TIP3   OH216424   6.031   5.282   1.249 -0.4159 -0.0128 -0.5134
 5473TIP3    H116425   5.974   5.230   1.192 -1.0936 -0.2461  0.3420
 5473TIP3    H216426   6.070   5.217   1.309 -1.3105  0.4420  0.5970
 5474TIP3   OH216427   1.892   5.930   2.713 -0.0974  0.5601 -0.1147
 5474TIP3    H116428   1.867   5.857   2.656 -0.2147  1.4664 -1.2526
 5474TIP3    H216429   1.812   5.954   2.758 -0.2497  0.4992 -0.3487
 5475TIP3   OH216430   2.607   5.683   3.882  0.4981 -0.7191 -0.4664
 5475TIP3    H116431   2.569   5.652   3.964  0.6335 -2.1274 -0.9183
 5475TIP3    H216432   2.546   5.654   3.814  0.8942 -0.4345 -0.9488
 5476TIP3   OH216433   0.231   3.288   3.986 -0.2460  0.1103 -0.1075
 5476TIP3    H116434   0.188   3.204   4.001  0.0373 -0.0232 -0.0237
 5476TIP3    H216435   0.322   3.274   4.014 -0.0516  0.2729 -0.6364
 5477TIP3   OH216436   2.487   5.402   0.632  0.0319  0.0178  0.0363
 5477TIP3    H116437   2.480   5.316   0.591  0.6972  0.2773 -0.6497
 5477TIP3    H216438   2.570   5.399   0.680  0.3352  0.4667 -0.4552
 5478TIP3   OH216439   3.321   0.421   4.729  0.2383 -0.3611 -0.4793
 5478TIP3    H116440   3.390   0.357   4.748 -0.6836 -1.4648 -0.7715
 5478TIP3    H216441   3.252   0.370   4.687 -2.0265  0.1023  2.3972
 5479TIP3   OH216442   5.623   3.749   1.436 -0.0622 -0.0485  0.0597
 5479TIP3    H116443   5.626   3.720   1.345 -0.9888 -1.2299  0.3812
 5479TIP3    H216444   5.530   3.767   1.452 -0.1323 -1.2761  1.1750
 5480TIP3   OH216445   1.679   1.465   2.886 -0.1733  0.0072  0.3037
 5480TIP3    H116446   1.721   1.401   2.828  0.1566  0.0097  0.5390
 5480TIP3    H216447   1.638   1.527   2.826  4.3129  2.9506 -0.2178
 5481TIP3   OH216448   1.616   1.195   3.162 -0.2766 -0.2882  0.4204
 5481TIP3    H116449   1.665   1.170   3.240  0.5687 -0.6095 -0.1975
 5481TIP3    H216450   1.595   1.288   3.175  1.4239  0.1577  0.2369
 5482TIP3   OH216451   2.027   3.021   1.474  0.2963  0.3439 -0.4675
 5482TIP3    H116452   1.993   3.111   1.476 -0.6817 -0.0039 -1.1391
 5482TIP3    H216453   2.070   3.011   1.559  0.6119  1.5134 -0.4605
 5483TIP3   OH216454   3.308   2.028   4.471 -0.2481  0.4570  0.3278
 5483TIP3    H116455   3.254   1.963   4.426  0.8776  0.1202 -0.5906
 5483TIP3    H216456   3.291   2.110   4.425 -1.9258  0.9506  1.6974
 5484TIP3   OH216457   4.277   5.450   3.589  0.4795 -0.2697  0.5074
 5484TIP3    H116458   4.253   5.543   3.591  1.7270  0.0548  1.3696
 5484TIP3    H216459   4.193   5.404   3.594 -0.1343  0.8168  0.4995
 5485TIP3   OH216460   6.071   5.133   2.587  0.4712  0.4434 -0.3441
 5485TIP3    H116461   6.072   5.227   2.565 -0.0131  0.5747  0.1899
 5485TIP3    H216462   5.991   5.100   2.546  1.6264 -0.1793 -2.2681
 5486TIP3   OH216463   3.922   2.219   0.043  0.1461  0.4080 -0.0231
 5486TIP3    H116464   3.915   2.298  -0.010 -0.2985  0.8779  0.7081
 5486TIP3    H216465   3.833   2.204   0.075  0.4106  0.1747  0.6224
 5487TIP3   OH216466   3.885   0.982   2.391 -0.4249  0.7706 -0.3797
 5487TIP3    H116467   3.821   1.050   2.412  1.1028  2.2408 -0.2331
 5487TIP3    H216468   3.835   0.901   2.390 -2.0702  1.7185  0.7732
 5488TIP3   OH216469   5.925   2.204   1.126  0.3137 -0.1370  0.5035
 5488TIP3    H116470   5.986   2.145   1.082 -1.4041 -1.6689  0.0645
 5488TIP3    H216471   5.940   2.289   1.084  2.2579 -0.4181  0.5638
 5489TIP3   OH216472   3.020   0.281   4.702 -0.3145  0.4580  0.5363
 5489TIP3    H116473   3.004   0.374   4.689 -1.3608  0.2360  0.1502
 5489TIP3    H216474   3.001   0.241   4.616 -0.7298 -0.2093  0.9301
 5490TIP3   OH216475   5.178   0.404   4.085 -0.5584 -0.8007  0.6857
 5490TIP3    H116476   5.089   0.380   4.112 -0.4504 -1.9961  0.0426
 5490TIP3    H216477   5.189   0.494   4.116 -1.7445 -0.8700  1.3677
 5491TIP3   OH216478   4.692   3.149   0.118  0.0923 -0.2400  0.1808
 5491TIP3    H116479   4.684   3.220   0.055  0.4897  0.3351  0.7613
 5491TIP3    H216480   4.702   3.070   0.065  1.5210  0.3554 -0.4860
 5492TIP3   OH216481   3.161   1.318   0.410  0.5754 -0.1821 -0.7167
 5492TIP3    H116482   3.097   1.352   0.473  1.3008 -0.2618  0.0762
 5492TIP3    H216483   3.211   1.253   0.460  0.9800 -0.4533 -1.4622
 5493TIP3   OH216484   0.511   1.238   2.968 -0.2846  0.1884  0.5142
 5493TIP3    H116485   0.515   1.149   2.934  0.6730 -0.5065  2.2981
 5493TIP3    H216486   0.478   1.228   3.057  0.5622  1.5466  1.0067
 5494TIP3   OH216487   4.510   0.791   0.152 -0.6366 -0.3627 -0.1317
 5494TIP3    H116488   4.487   0.818   0.241 -0.9179 -1.5318  0.1758
 5494TIP3    H216489   4.522   0.872   0.104  0.9959  0.3237  1.3442
 5495TIP3   OH216490   2.778   3.954   1.339  0.2583 -0.1008  0.0114
 5495TIP3    H116491   2.764   3.862   1.317 -1.7940  0.4202 -1.1009
 5495TIP3    H216492   2.873   3.965   1.336  0.4997 -1.9986 -0.5695
 5496TIP3   OH216493   2.204   4.857   3.905 -0.1063  0.0929  0.2747
 5496TIP3    H116494   2.188   4.858   3.811  2.4651 -2.4540 -0.3410
 5496TIP3    H216495   2.136   4.800   3.941 -2.0693  2.3265  0.3001
 5497TIP3   OH216496   2.962   4.168   3.822 -0.0773  0.0905 -0.3141
 5497TIP3    H116497   3.042   4.131   3.861 -0.0128  1.0651  0.5465
 5497TIP3    H216498   2.908   4.093   3.801  2.1048 -0.8523 -3.4211
 5498TIP3   OH216499   4.576   4.409   0.936 -0.3698 -0.0952 -0.2372
 5498TIP3    H116500   4.619   4.338   0.984  0.4244  0.3439 -0.2868
 5498TIP3    H216501   4.595   4.488   0.987 -2.5464 -0.0910  0.6773
 5499TIP3   OH216502   2.370   4.120   3.516  0.2672  0.2412 -0.0287
 5499TIP3    H116503   2.432   4.055   3.550  0.9353  0.5567 -0.6010
 5499TIP3    H216504   2.339   4.166   3.593  0.5479 -0.1064  0.2957
 5500TIP3   OH216505   4.434   1.250   1.599 -0.6821  0.0952 -0.8309
 5500TIP3    H116506   4.467   1.340   1.604  1.6129 -0.7642  1.1389
 5500TIP3    H216507   4.362   1.248   1.663 -0.0882  0.3076 -0.1360
 5501TIP3   OH216508   1.167   4.958   1.042 -0.7235 -0.1979  0.1396
 5501TIP3    H116509   1.080   4.984   1.011 -0.5655  1.0072  0.6450
 5501TIP3    H216510   1.202   5.037   1.084 -0.0375 -1.1429  1.4062
 5502TIP3   OH216511   1.973   1.213   0.005  0.0678  0.0206 -0.2788
 5502TIP3    H116512   2.046   1.191   0.064 -2.0474 -1.4638  1.9944
 5502TIP3    H216513   1.910   1.259   0.061 -0.8032  1.2625 -2.1713
 5503TIP3   OH216514   4.184   2.465   2.276 -0.2237  0.1850 -0.0986
 5503TIP3    H116515   4.217   2.523   2.345 -0.6491 -0.7199  0.8879
 5503TIP3    H216516   4.210   2.508   2.195 -0.5904  1.7999  0.6006
 5504TIP3   OH216517   2.504   5.674   0.838  0.5744 -0.5608  0.0777
 5504TIP3    H116518   2.564   5.627   0.896 -0.5552 -1.8611  0.2349
 5504TIP3    H216519   2.552   5.682   0.756  0.9678 -1.6538  0.1776
 5505TIP3   OH216520   2.704   0.381   2.787  0.5532 -0.2108 -0.3196
 5505TIP3    H116521   2.669   0.304   2.740  0.2404  0.3849 -1.0843
 5505TIP3    H216522   2.722   0.445   2.718  0.6286  0.4819  0.3321
 5506TIP3   OH216523   2.316   1.124   2.035  0.4005 -0.6625 -0.1675
 5506TIP3    H116524   2.388   1.150   2.091 -1.4897  0.3167  1.9474
 5506TIP3    H216525   2.325   1.179   1.957  1.5734 -0.1221  0.3331
 5507TIP3   OH216526   5.867   3.378   1.142 -0.5965 -0.8096  0.2308
 5507TIP3    H116527   5.897   3.467   1.121 -2.3964  0.2248  1.7377
 5507TIP3    H216528   5.877   3.372   1.237  1.0526 -2.8908  0.0037
 5508TIP3   OH216529   3.710   1.863   2.532  0.0255  0.0130 -0.0059
 5508TIP3    H116530   3.742   1.841   2.444  0.3401  1.9431 -0.4156
 5508TIP3    H216531   3.688   1.779   2.571  0.8663 -0.9710 -1.5562
 5509TIP3   OH216532   6.248   4.499   1.792  0.0549 -0.1435 -0.0252
 5509TIP3    H116533   6.264   4.593   1.794  0.4763 -0.2265  1.6893
 5509TIP3    H216534   6.166   4.487   1.839 -0.0548 -0.6305 -0.3264
 5510TIP3   OH216535   2.356   0.270   1.158 -0.0160 -0.2658  0.7168
 5510TIP3    H116536   2.368   0.177   1.177  0.3910  0.1722  2.8943
 5510TIP3    H216537   2.262   0.285   1.168 -0.0447 -0.4004  0.6441
 5511TIP3   OH216538   4.247   4.448   4.804 -0.3931  0.2503  0.5764
 5511TIP3    H116539   4.309   4.520   4.818  1.0278 -1.2138  2.2351
 5511TIP3    H216540   4.249   4.433   4.709 -0.1745  1.8882  0.2842
 5512TIP3   OH216541   4.800   4.405   2.038  0.1722 -0.1985  0.1510
 5512TIP3    H116542   4.825   4.328   2.089  1.6397  0.3400  0.2770
 5512TIP3    H216543   4.736   4.450   2.094 -0.5262 -1.1706  0.1754
 5513TIP3   OH216544   1.842   0.000   4.235 -0.3200  0.2199  0.6289
 5513TIP3    H116545   1.807   0.083   4.203 -0.4947 -0.0943 -0.0095
 5513TIP3    H216546   1.877   0.021   4.322  0.5397  1.1886  0.0808
 5514TIP3   OH216547   4.851   3.065   3.953 -0.4916  0.6245  0.1678
 5514TIP3    H116548   4.833   2.978   3.990 -1.6595  0.3936 -0.8880
 5514TIP3    H216549   4.947   3.072   3.954 -0.3914 -0.5953  0.4387
 5515TIP3   OH216550   1.971   3.774   0.722 -0.4511  0.2807 -0.3757
 5515TIP3    H116551   2.064   3.780   0.747 -0.2952  1.4905 -1.1666
 5515TIP3    H216552   1.923   3.803   0.799 -0.1407  0.4261 -0.2355
 5516TIP3   OH216553   1.142   2.288   2.887  0.0217  0.4692  0.1506
 5516TIP3    H116554   1.076   2.355   2.869 -0.0614  0.5962  0.8818
 5516TIP3    H216555   1.093   2.205   2.886 -0.2533  0.6001  1.1119
 5517TIP3   OH216556   3.902   4.070   2.385 -0.3267  0.5429  0.1910
 5517TIP3    H116557   3.953   4.073   2.304 -0.9328  1.8489 -0.1703
 5517TIP3    H216558   3.812   4.059   2.356 -0.5387  0.9340  0.6897
 5518TIP3   OH216559   0.141   4.193   1.487  0.1699 -0.1175  0.2468
 5518TIP3    H116560   0.080   4.262   1.512 -0.7285 -1.1517  0.9978
 5518TIP3    H216561   0.227   4.235   1.488 -0.3192  0.9027  1.0033
 5519TIP3   OH216562   5.402   5.652   4.342 -0.3749  0.5911  0.1559
 5519TIP3    H116563   5.363   5.630   4.426 -1.6093 -0.6546 -0.6793
 5519TIP3    H216564   5.456   5.576   4.320 -0.2078  0.8208 -0.2378
 5520TIP3   OH216565   0.445   5.822   4.964  0.3527  0.8546  0.0980
 5520TIP3    H116566   0.363   5.786   4.931 -0.0284  2.7899 -1.2392
 5520TIP3    H216567   0.486   5.750   5.012 -2.5969  0.1438  1.7384
 5521TIP3   OH216568   1.256   4.337   0.647 -0.2087 -0.0736 -0.1775
 5521TIP3    H116569   1.290   4.399   0.711 -0.3169  0.1713 -0.3567
 5521TIP3    H216570   1.162   4.353   0.645 -0.5081 -1.5035  1.1298
 5522TIP3   OH216571   1.215   3.233   3.838  0.2249  0.3135 -0.2898
 5522TIP3    H116572   1.242   3.145   3.866  0.3852  0.1438 -0.9650
 5522TIP3    H216573   1.183   3.275   3.918  0.8134 -0.1129  0.1778
 5523TIP3   OH216574   5.639   3.282   4.482  0.7828  0.2356 -0.1707
 5523TIP3    H116575   5.570   3.227   4.446  0.7862  0.4370 -0.4978
 5523TIP3    H216576   5.673   3.234   4.557  0.7045 -0.1475 -0.3805
 5524TIP3   OH216577   0.212   0.026   1.954 -0.3749 -0.0637 -0.5515
 5524TIP3    H116578   0.254   0.026   2.039  1.9122  3.4449 -1.4584
 5524TIP3    H216579   0.261  -0.038   1.903 -0.1593 -0.4266  0.1042
 5525TIP3   OH216580   5.069   4.925   2.536  0.3994  0.3160 -0.8642
 5525TIP3    H116581   5.036   4.908   2.448  0.6949  1.0617 -1.1334
 5525TIP3    H216582   5.160   4.895   2.534  0.3641  0.2008 -0.7664
 5526TIP3   OH216583   2.975   4.176   0.433  0.7841 -0.8435  0.0957
 5526TIP3    H116584   2.915   4.251   0.439  0.6848 -0.8502 -0.6243
 5526TIP3    H216585   2.953   4.135   0.349  1.3493 -1.2393  0.1331
 5527TIP3   OH216586   0.221   0.129   0.492 -0.2911 -0.0927  0.2637
 5527TIP3    H116587   0.286   0.061   0.475 -0.2228 -0.3558  1.4824
 5527TIP3    H216588   0.140   0.081   0.506 -0.5385  0.1717 -0.2630
 5528TIP3   OH216589   0.476   2.633   2.840  0.1548 -0.0436 -0.2620
 5528TIP3    H116590   0.429   2.694   2.783 -1.3198 -0.6143  0.3163
 5528TIP3    H216591   0.461   2.547   2.801  1.8271 -0.1366 -0.8013
 5529TIP3   OH216592   2.790   0.642   0.342  0.2465 -0.5384  0.1288
 5529TIP3    H116593   2.764   0.730   0.314 -0.6827 -0.9643 -0.4132
 5529TIP3    H216594   2.785   0.589   0.263  2.9690 -0.6665 -0.0569
 5530TIP3   OH216595   2.492   1.387   4.072 -0.4122 -0.1883 -0.7161
 5530TIP3    H116596   2.537   1.305   4.090 -0.4984 -0.3069 -1.0241
 5530TIP3    H216597   2.439   1.404   4.150 -2.3819 -1.7515 -1.6200
 5531TIP3   OH216598   0.325   3.171   3.562 -0.4057  0.1772  0.6727
 5531TIP3    H116599   0.340   3.096   3.620 -0.0538 -0.2701  0.0151
 5531TIP3    H216600   0.333   3.247   3.619  0.0450 -0.2530  1.1987
 5532TIP3   OH216601   2.564   3.666   3.699  0.4525 -0.0275 -0.2493
 5532TIP3    H116602   2.495   3.685   3.762  0.8239 -1.5607  0.6657
 5532TIP3    H216603   2.518   3.626   3.625 -0.0410  2.1980 -1.2179
 5533TIP3   OH216604   0.253   4.557   0.731  0.5166  0.2037 -0.4632
 5533TIP3    H116605   0.252   4.653   0.735  0.8202  0.1730  2.3198
 5533TIP3    H216606   0.174   4.530   0.777  0.2358 -0.9015 -1.5521
 5534TIP3   OH216607   5.743   2.621   1.853  0.0212 -0.4430  0.4012
 5534TIP3    H116608   5.669   2.618   1.913 -1.2555  3.5486 -0.6709
 5534TIP3    H216609   5.820   2.616   1.909 -0.9940 -2.3080  1.7524
 5535TIP3   OH216610   2.905   4.601   4.635  0.5862 -0.6166  0.4039
 5535TIP3    H116611   2.946   4.524   4.674  0.2079 -1.7403 -1.3082
 5535TIP3    H216612   2.978   4.661   4.618  1.1009 -1.2916  0.2158
 5536TIP3   OH216613   5.620   2.594   0.985  0.8183  0.0196  0.4966
 5536TIP3    H116614   5.688   2.631   0.929  0.7716 -0.9872 -0.2558
 5536TIP3    H216615   5.546   2.580   0.926  0.9673 -1.5968  0.6372
 5537TIP3   OH216616   5.088   0.266   2.761 -0.4571  0.2560 -0.2758
 5537TIP3    H116617   5.124   0.354   2.754  1.1141 -0.3135  0.1907
 5537TIP3    H216618   5.065   0.242   2.671  0.4356  0.6157 -0.6074
 5538TIP3   OH216619   0.670   0.003   1.872  0.0176 -0.8784 -0.5316
 5538TIP3    H116620   0.639   0.057   1.944 -0.5138 -1.9842  0.0929
 5538TIP3    H216621   0.634   0.045   1.793  1.9490  1.2997 -0.3703
 5539TIP3   OH216622   0.881   1.288   0.956 -0.3406  0.2476 -0.1949
 5539TIP3    H116623   0.953   1.350   0.953 -0.5783  0.5614  0.4436
 5539TIP3    H216624   0.889   1.246   1.042 -0.4759 -0.2452 -0.4215
 5540TIP3   OH216625   0.852   1.724   1.220  0.2181 -0.0363 -0.2445
 5540TIP3    H116626   0.792   1.742   1.148  0.8318 -1.2210 -1.0771
 5540TIP3    H216627   0.795   1.696   1.292 -0.2793 -0.3872 -0.7717
 5541TIP3   OH216628   2.109   1.469   0.288  0.0075  0.3145 -0.1047
 5541TIP3    H116629   2.185   1.527   0.289 -0.4740  0.9702  0.9996
 5541TIP3    H216630   2.042   1.518   0.240  0.2640 -0.2461 -1.0461
 5542TIP3   OH216631   5.848   0.351   0.666  0.0918 -0.2968 -0.6956
 5542TIP3    H116632   5.832   0.263   0.632  0.7062 -0.0792 -1.5864
 5542TIP3    H216633   5.916   0.387   0.609  0.3239  0.5169  0.0652
 5543TIP3   OH216634   1.763   1.819   1.073 -0.2193 -0.3130 -0.5448
 5543TIP3    H116635   1.840   1.876   1.078 -0.0529 -0.5183 -0.7409
 5543TIP3    H216636   1.793   1.742   1.025 -0.5559 -0.3851 -0.6426
 5544TIP3   OH216637   4.790   0.885   0.329  0.2186 -0.2908 -0.5985
 5544TIP3    H116638   4.814   0.793   0.332 -0.5607 -0.5249 -1.2104
 5544TIP3    H216639   4.788   0.907   0.235 -1.9939 -0.3318 -0.6326
 5545TIP3   OH216640   6.218   5.711   3.308  0.6919 -0.4867 -0.3329
 5545TIP3    H116641   6.308   5.716   3.276  1.4599  1.4100  1.8712
 5545TIP3    H216642   6.224   5.664   3.390  0.0883  1.4627  0.9043
 5546TIP3   OH216643   0.729   1.418   3.480  0.3240 -0.3129  0.3923
 5546TIP3    H116644   0.696   1.425   3.390  0.6822  1.4860  0.3546
 5546TIP3    H216645   0.698   1.333   3.511 -0.2498 -0.7356 -1.2544
 5547TIP3   OH216646   3.467   4.521   5.001  0.0716 -0.2050 -0.0940
 5547TIP3    H116647   3.420   4.511   5.084 -2.8035  0.7939 -1.4499
 5547TIP3    H216648   3.478   4.432   4.969 -0.0899 -0.5229  0.7114
 5548TIP3   OH216649   3.100   4.251   0.675 -0.1812 -0.1845  0.1519
 5548TIP3    H116650   3.192   4.226   0.679 -0.3864 -0.8755  0.8804
 5548TIP3    H216651   3.074   4.233   0.585  0.1771 -0.8267  0.1672
 5549TIP3   OH216652   3.390   2.616   3.413  0.4228  0.0082 -0.3523
 5549TIP3    H116653   3.346   2.612   3.498  2.1019  2.2407  0.7245
 5549TIP3    H216654   3.321   2.640   3.351 -0.3683  0.9462  0.8431
 5550TIP3   OH216655   3.461   4.619   4.624 -0.0720  0.3424 -0.1022
 5550TIP3    H116656   3.538   4.575   4.661  0.4195 -0.0296 -1.5206
 5550TIP3    H216657   3.393   4.609   4.691  0.1244 -2.2235 -0.1884
 5551TIP3   OH216658   4.809   0.032   3.111 -0.5375  0.0244 -0.1508
 5551TIP3    H116659   4.876  -0.032   3.133  1.2736  1.4582 -1.2463
 5551TIP3    H216660   4.784   0.072   3.195 -0.9917 -1.3876  0.4158
 5552TIP3   OH216661   1.979   5.238   1.825 -0.2463  0.2923 -0.2320
 5552TIP3    H116662   2.007   5.323   1.793 -0.4071  0.6652  0.5861
 5552TIP3    H216663   2.060   5.195   1.852 -0.2866  0.7223  0.6030
 5553TIP3   OH216664   3.632   1.771   4.571  0.3625  0.0256  0.1972
 5553TIP3    H116665   3.562   1.760   4.506  0.5789 -0.3079  0.0164
 5553TIP3    H216666   3.711   1.785   4.519  0.7929 -1.6332  0.3232
 5554TIP3   OH216667   2.156   5.714   0.393  0.2938 -0.0472 -0.4826
 5554TIP3    H116668   2.162   5.805   0.423  0.4750 -0.2748  0.1895
 5554TIP3    H216669   2.231   5.670   0.434  0.7451 -0.3051 -1.5443
 5555TIP3   OH216670   5.808   4.370   2.172  0.2058  0.0948 -0.1494
 5555TIP3    H116671   5.830   4.354   2.080  1.4640  0.2903  0.1006
 5555TIP3    H216672   5.861   4.446   2.196 -0.8824  0.6813  0.4676
 5556TIP3   OH216673   4.330   0.306   3.467 -0.3902  0.1848  0.2379
 5556TIP3    H116674   4.413   0.328   3.509 -0.0024  1.0889 -0.9334
 5556TIP3    H216675   4.300   0.388   3.428 -2.6165  0.2222  1.8601
 5557TIP3   OH216676   2.546   1.795   2.821 -0.4406 -0.4873 -0.1536
 5557TIP3    H116677   2.516   1.737   2.751 -2.6759 -0.7940  0.9739
 5557TIP3    H216678   2.515   1.882   2.797  0.4451 -0.2376 -0.4447
 5558TIP3   OH216679   0.135   5.944   4.707 -0.0280 -0.0870 -0.4020
 5558TIP3    H116680   0.146   5.875   4.773 -0.0210  2.4333  2.4253
 5558TIP3    H216681   0.046   5.929   4.673 -0.3064 -1.0816  0.6764
 5559TIP3   OH216682   0.813   1.244   1.616 -0.3718  0.2326 -0.0377
 5559TIP3    H116683   0.842   1.256   1.707  1.0939  0.4879 -0.5006
 5559TIP3    H216684   0.882   1.285   1.564 -0.6182 -0.9049 -1.3048
 5560TIP3   OH216685   3.023   5.480   4.943  0.5269 -0.0418  0.1241
 5560TIP3    H116686   3.020   5.483   5.039  0.2640 -0.8376  0.1498
 5560TIP3    H216687   2.955   5.417   4.919  1.0950 -0.4116 -0.5457
 5561TIP3   OH216688   1.904   4.665   0.474  0.1062  0.3769 -0.1052
 5561TIP3    H116689   1.999   4.675   0.484  0.5574 -1.6295 -1.7091
 5561TIP3    H216690   1.887   4.573   0.497 -1.5740  0.8635  0.7677
 5562TIP3   OH216691   1.893   3.338   0.018  0.0213 -0.4906 -0.0494
 5562TIP3    H116692   1.868   3.270   0.081  1.7625 -0.9147  0.2438
 5562TIP3    H216693   1.954   3.294  -0.041  2.7891  1.1998  1.3434
 5563TIP3   OH216694   2.826   1.043   0.904 -0.0977 -0.1151 -0.1273
 5563TIP3    H116695   2.885   1.070   0.834 -2.5530  3.0511 -1.2732
 5563TIP3    H216696   2.797   1.126   0.943 -3.5359 -1.4400  0.4586
 5564TIP3   OH216697   3.487   1.554   0.316 -0.0683  0.1565  0.6382
 5564TIP3    H116698   3.581   1.541   0.331  0.1510  0.2111 -0.6230
 5564TIP3    H216699   3.448   1.469   0.337  0.3156  0.0042  0.7609
 5565TIP3   OH216700   3.720   3.989   1.304  0.2562 -0.2136  0.0710
 5565TIP3    H116701   3.742   3.949   1.219 -1.2952 -0.7329 -0.1033
 5565TIP3    H216702   3.643   4.043   1.286  1.7786  2.2474  0.4858
 5566TIP3   OH216703   5.986   5.886   3.976 -0.1300 -0.5098  0.1228
 5566TIP3    H116704   6.014   5.910   4.064 -3.3333 -0.3928  1.2461
 5566TIP3    H216705   6.022   5.798   3.962  1.9371  0.1918  0.7402
 5567TIP3   OH216706   4.560   5.605   1.846 -0.0338  0.1717  0.8536
 5567TIP3    H116707   4.593   5.692   1.824 -0.6596 -0.1392 -1.5342
 5567TIP3    H216708   4.470   5.620   1.873 -1.2585  0.0614 -2.6986
 5568TIP3   OH216709   2.262   1.571   1.259  0.1364  0.3670 -0.5655
 5568TIP3    H116710   2.332   1.594   1.198  0.2983  0.5752 -0.2980
 5568TIP3    H216711   2.199   1.522   1.205  0.9220 -0.6343 -0.6105
 5569TIP3   OH216712   6.214   1.528   4.376  0.2298  0.0409 -0.1509
 5569TIP3    H116713   6.220   1.439   4.410 -2.2035 -0.1015  0.0176
 5569TIP3    H216714   6.168   1.520   4.293 -1.0913  1.2354  0.4283
 5570TIP3   OH216715   1.232   1.044   1.187  0.6154  0.1776  0.3415
 5570TIP3    H116716   1.255   1.046   1.094  0.5097  1.7827  0.3256
 5570TIP3    H216717   1.141   1.017   1.189  0.7566 -0.3379  0.0134
 5571TIP3   OH216718   5.184   5.977   1.877 -0.0412  0.5193  0.1899
 5571TIP3    H116719   5.227   5.984   1.962  0.2731  1.2797 -0.0313
 5571TIP3    H216720   5.091   5.974   1.898 -0.0602  2.2672  0.4975
 5572TIP3   OH216721   4.562   2.829   3.610 -0.0676  0.2103  0.3633
 5572TIP3    H116722   4.504   2.772   3.561 -0.7535  1.1350  0.0600
 5572TIP3    H216723   4.569   2.789   3.696 -2.0248  0.6135  0.7468
 5573TIP3   OH216724   2.353   5.765   1.068 -0.0940 -0.5095  0.0794
 5573TIP3    H116725   2.359   5.858   1.045 -1.0419 -0.1885  1.0423
 5573TIP3    H216726   2.341   5.721   0.984 -2.7860  0.5615 -0.2329
 5574TIP3   OH216727   0.996   0.982   1.361  0.5039  0.1113  0.2409
 5574TIP3    H116728   1.027   1.014   1.446 -2.7193  1.6419  1.0445
 5574TIP3    H216729   0.979   0.889   1.375  0.0992  0.3254  1.3003
 5575TIP3   OH216730   4.569   0.252   3.041 -0.0809 -0.5673  0.2205
 5575TIP3    H116731   4.536   0.341   3.033  1.4867  0.2104  1.7651
 5575TIP3    H216732   4.664   0.262   3.046  0.1658 -2.3752 -0.0415
 5576TIP3   OH216733   5.146   3.444   0.914  0.2511 -0.0981 -0.1921
 5576TIP3    H116734   5.199   3.367   0.893  0.9964  0.9148 -2.3519
 5576TIP3    H216735   5.058   3.423   0.884 -0.4749 -1.4399  2.5828
 5577TIP3   OH216736   3.523   0.683   2.600 -0.1675  0.6795  0.2935
 5577TIP3    H116737   3.501   0.743   2.671  1.1038  0.5153  0.8426
 5577TIP3    H216738   3.593   0.726   2.552  1.5574 -0.7829  1.3560
 5578TIP3   OH216739   4.297   5.379   4.549 -0.9254 -0.2450  0.2146
 5578TIP3    H116740   4.340   5.305   4.505 -0.4363  0.0109  0.2490
 5578TIP3    H216741   4.353   5.397   4.624  0.8135  2.1756 -1.4797
 5579TIP3   OH216742   0.341   3.423   4.769  0.4056  0.0509 -0.0937
 5579TIP3    H116743   0.413   3.396   4.711 -2.0920  0.2172 -3.5823
 5579TIP3    H216744   0.278   3.351   4.764 -0.6661  0.8799  1.0464
 5580TIP3   OH216745   4.440   5.930   1.257  0.0362 -0.9251  0.1582
 5580TIP3    H116746   4.529   5.945   1.290  0.1798  0.6483 -0.8103
 5580TIP3    H216747   4.424   6.004   1.198 -2.1632 -0.8260  0.7827
 5581TIP3   OH216748   5.292   1.183   4.156  0.0303  0.0622 -0.3827
 5581TIP3    H116749   5.314   1.210   4.067 -0.4315 -0.7601 -0.7617
 5581TIP3    H216750   5.351   1.109   4.173 -0.7898 -0.6418 -0.5188
 5582TIP3   OH216751   2.180   1.267   1.324 -0.3045  0.2288  0.1980
 5582TIP3    H116752   2.120   1.258   1.250  2.1085 -0.8026 -1.8012
 5582TIP3    H216753   2.165   1.189   1.377 -1.7170  0.7278  0.5731
 5583TIP3   OH216754   4.510   1.659   0.271 -0.3932  0.0541  0.2462
 5583TIP3    H116755   4.427   1.618   0.245 -0.3576 -0.6294  1.1670
 5583TIP3    H216756   4.549   1.598   0.333  0.8565  0.3280 -0.2317
 5584TIP3   OH216757   1.367   3.621   1.763  0.1887  0.4478 -0.0120
 5584TIP3    H116758   1.323   3.570   1.696 -1.2974  0.7065  0.7261
 5584TIP3    H216759   1.409   3.693   1.715 -1.0463  0.7649 -0.6582
 5585TIP3   OH216760   3.230   3.239   3.757 -0.0779 -0.0056  0.2333
 5585TIP3    H116761   3.240   3.186   3.678 -0.2509  0.3041 -0.0005
 5585TIP3    H216762   3.284   3.196   3.823 -0.1914 -0.4504  0.0347
 5586TIP3   OH216763   3.832   2.932   3.285  0.1962  0.0385 -0.6149
 5586TIP3    H116764   3.813   3.016   3.329  0.4528 -0.1616 -0.1165
 5586TIP3    H216765   3.922   2.941   3.253  0.8112 -0.6311  0.8446
 5587TIP3   OH216766   4.747   3.581   4.945 -0.3308  0.2213 -0.0227
 5587TIP3    H116767   4.673   3.613   4.893 -0.4054 -0.3247 -0.2598
 5587TIP3    H216768   4.733   3.486   4.951  0.9789 -0.0748 -1.0948
 5588TIP3   OH216769   4.144   1.536   0.649  0.1673  0.3793  0.5522
 5588TIP3    H116770   4.202   1.535   0.725  2.7877 -0.9928 -1.2932
 5588TIP3    H216771   4.179   1.607   0.594 -0.7717  0.4132 -0.0130
 5589TIP3   OH216772   3.217   5.768   0.550  0.2105 -0.1127  0.5103
 5589TIP3    H116773   3.298   5.799   0.589  0.9467 -1.3070 -0.0088
 5589TIP3    H216774   3.243   5.734   0.464 -1.2174  1.6110 -0.6929
 5590TIP3   OH216775   3.182   5.427  -0.015 -0.0910  0.2394 -0.5417
 5590TIP3    H116776   3.267   5.391  -0.039 -1.1233 -2.7825 -0.1624
 5590TIP3    H216777   3.199   5.483   0.060  1.2315 -3.5418  2.3040
 5591TIP3   OH216778   1.691   1.348   1.170 -0.2795  0.3445 -0.2192
 5591TIP3    H116779   1.691   1.385   1.082 -1.8331 -1.0326 -0.8540
 5591TIP3    H216780   1.599   1.346   1.195 -0.1686 -1.8938  0.2463
 5592TIP3   OH216781   2.478   5.525   1.739 -0.2710  0.1045  0.7055
 5592TIP3    H116782   2.460   5.529   1.645 -0.8833  0.8186  0.8377
 5592TIP3    H216783   2.463   5.434   1.763  0.2227 -0.1580  0.0514
 5593TIP3   OH216784   1.790   2.576   4.325  0.2773 -0.0773 -0.3123
 5593TIP3    H116785   1.697   2.580   4.306  0.2023  0.1622  0.0753
 5593TIP3    H216786   1.831   2.628   4.256  0.1882 -0.7351 -0.8648
 5594TIP3   OH216787   5.721   2.371   2.354  0.0262  0.3733  0.0237
 5594TIP3    H116788   5.804   2.350   2.397 -0.2714  1.1050  1.0173
 5594TIP3    H216789   5.731   2.342   2.264  0.7347 -1.1095  0.5553
 5595TIP3   OH216790   4.497   5.925   3.980 -0.7945 -0.4931 -0.1271
 5595TIP3    H116791   4.412   5.926   4.025  0.6543  1.0616  2.8744
 5595TIP3    H216792   4.511   5.832   3.959 -2.6363 -0.9720  0.5056
 5596TIP3   OH216793   3.094   1.325   3.134  0.6410  0.1639  0.0513
 5596TIP3    H116794   3.001   1.320   3.114  0.4208  3.3490 -0.3074
 5596TIP3    H216795   3.137   1.320   3.049  0.5131  1.6782 -0.1463
 5597TIP3   OH216796   3.695   3.967   4.400 -0.4017  0.2193  0.2586
 5597TIP3    H116797   3.714   3.973   4.307  1.4084 -1.5656  0.4360
 5597TIP3    H216798   3.631   3.896   4.407  1.3266 -1.3995  0.4960
 5598TIP3   OH216799   3.002   1.956   0.920  0.2629  0.2657 -0.1738
 5598TIP3    H116800   2.940   1.977   0.850 -1.1911 -2.0412  0.3167
 5598TIP3    H216801   2.969   2.002   0.997  0.6738  1.1034 -0.4785
 5599TIP3   OH216802   1.515   3.515   0.156 -0.2059 -0.4012  0.4472
 5599TIP3    H116803   1.488   3.602   0.126  0.3633 -0.0214  1.0218
 5599TIP3    H216804   1.439   3.481   0.204 -1.2099 -1.0871 -1.4736
 5600TIP3   OH216805   5.087   2.733   3.694  0.1506  0.2435  0.0519
 5600TIP3    H116806   5.017   2.759   3.634 -0.6767 -0.9603  0.4535
 5600TIP3    H216807   5.059   2.765   3.780  0.2930  0.1102  0.1491
 5601TIP3   OH216808   2.961   3.732   0.232 -0.3068 -0.1121  0.1218
 5601TIP3    H116809   2.924   3.648   0.259  0.1946 -0.4028 -0.0835
 5601TIP3    H216810   3.024   3.753   0.301 -0.8136  0.3647  0.4524
 5602TIP3   OH216811   4.345   3.425   2.446  0.6320  0.1515 -0.3351
 5602TIP3    H116812   4.300   3.361   2.391  0.9720 -0.4083  0.0293
 5602TIP3    H216813   4.434   3.427   2.412  0.6671  0.2980 -0.2322
 5603TIP3   OH216814  -0.006   0.820   5.068  0.0720  0.0023 -0.2195
 5603TIP3    H116815  -0.032   0.906   5.033 -0.7897 -0.9290 -2.0397
 5603TIP3    H216816   0.089   0.819   5.060  0.1143  0.8706  0.0520
 5604TIP3   OH216817   3.715   5.466   3.527  0.0956 -0.3688 -0.2705
 5604TIP3    H116818   3.742   5.433   3.613 -1.3609 -0.2374  0.2570
 5604TIP3    H216819   3.731   5.560   3.531 -1.6340 -0.0674  0.5529
 5605TIP3   OH216820   0.373   1.145   2.360 -0.6058 -0.0749 -0.2697
 5605TIP3    H116821   0.324   1.147   2.278 -3.1829  0.5731  1.1952
 5605TIP3    H216822   0.367   1.234   2.394  3.3276  0.6187 -0.8704
 5606TIP3   OH216823   2.647   1.274   2.894 -0.3550 -0.6356 -0.6389
 5606TIP3    H116824   2.671   1.330   2.821  1.3048 -0.3430  0.0832
 5606TIP3    H216825   2.567   1.313   2.930  0.2976  0.7855 -0.6755
 5607TIP3   OH216826   5.521   2.412   1.977 -0.3586  0.0603  0.1341
 5607TIP3    H116827   5.431   2.426   2.006 -0.9479  0.8483 -1.9099
 5607TIP3    H216828   5.518   2.423   1.882  2.2656  2.3152  0.1772
 5608TIP3   OH216829   1.700   2.891   2.657 -0.1219 -0.2294 -0.1673
 5608TIP3    H116830   1.693   2.812   2.604  0.2949 -0.3291 -0.0735
 5608TIP3    H216831   1.778   2.878   2.710 -0.1817  0.1446  0.0182
 5609TIP3   OH216832   5.365   3.426   1.445  0.2471  0.2035  0.2926
 5609TIP3    H116833   5.344   3.511   1.482  0.3859  0.1231  0.5523
 5609TIP3    H216834   5.280   3.384   1.431  0.2287 -0.2266  1.5920
 5610TIP3   OH216835   2.303   5.902   4.163 -0.1602  0.4265 -0.8215
 5610TIP3    H116836   2.372   5.908   4.096  0.0261 -0.1886 -0.6870
 5610TIP3    H216837   2.336   5.955   4.236  0.5322 -0.4771 -0.4571
 5611TIP3   OH216838   2.887   4.873   1.097 -0.3542 -0.2835  0.6072
 5611TIP3    H116839   2.866   4.955   1.053  1.4546  0.0232  0.2313
 5611TIP3    H216840   2.934   4.821   1.031 -0.5005 -1.1705  1.1765
 5612TIP3   OH216841   4.890   3.105   4.355 -0.2987 -0.2766  0.4510
 5612TIP3    H116842   4.947   3.037   4.391  0.5738  0.5597  0.7023
 5612TIP3    H216843   4.801   3.079   4.382  0.1034 -0.8830  1.2209
 5613TIP3   OH216844   1.871   4.363   4.435 -0.2091  0.2358  0.2977
 5613TIP3    H116845   1.856   4.299   4.505  1.5981  1.2701  1.7267
 5613TIP3    H216846   1.920   4.315   4.369 -0.1031 -0.2120  0.6964
 5614TIP3   OH216847   0.049   3.615   2.171 -0.0265 -0.1170 -0.0461
 5614TIP3    H116848  -0.027   3.626   2.228 -0.8185 -1.3901 -0.8168
 5614TIP3    H216849   0.061   3.520   2.165  1.1825  0.0439 -0.5321
 5615TIP3   OH216850   5.421   1.085   4.760  0.3873 -0.2557  0.8359
 5615TIP3    H116851   5.429   0.995   4.791  2.8588 -0.0426  1.0298
 5615TIP3    H216852   5.489   1.094   4.693 -0.6203  1.1412 -0.0761
 5616TIP3   OH216853   2.518   5.007   3.010  0.0164  0.2863  0.4469
 5616TIP3    H116854   2.540   4.951   2.936 -1.0452  0.5215 -0.0627
 5616TIP3    H216855   2.595   5.063   3.021  0.7702 -0.7324  0.4679
 5617TIP3   OH216856   2.718   0.119   1.198  0.5536  0.0492  0.2488
 5617TIP3    H116857   2.779   0.084   1.263  1.1785  1.4333  0.4372
 5617TIP3    H216858   2.695   0.043   1.144  1.4379 -0.7605  0.9663
 5618TIP3   OH216859   4.654   3.045   4.951  0.6429 -0.2383  0.2369
 5618TIP3    H116860   4.666   3.130   4.909  0.8869  0.7371  2.1672
 5618TIP3    H216861   4.740   3.023   4.987 -0.0888  0.2010  2.3757
 5619TIP3   OH216862   3.045   1.677   4.877  0.7800  0.2935 -0.1497
 5619TIP3    H116863   3.020   1.597   4.830 -0.6657 -0.4078  1.6851
 5619TIP3    H216864   3.048   1.745   4.809  0.7425 -1.0392 -1.5407
 5620TIP3   OH216865   4.819   0.763   3.367  0.4601 -0.0288  0.0324
 5620TIP3    H116866   4.760   0.809   3.427  0.6151 -0.0496  0.2031
 5620TIP3    H216867   4.879   0.830   3.336  1.3482 -0.3072  1.0944
 5621TIP3   OH216868   5.635   1.229   0.794  0.4618 -0.4534 -0.4781
 5621TIP3    H116869   5.718   1.244   0.839  0.5476  1.0173 -1.0631
 5621TIP3    H216870   5.569   1.228   0.864  0.7756  0.1766 -0.1657
 5622TIP3   OH216871   1.372   4.964   1.999 -0.6855  0.2227  0.3958
 5622TIP3    H116872   1.290   4.940   1.956  0.2660 -1.2184 -0.7125
 5622TIP3    H216873   1.345   4.992   2.086 -2.3637 -0.1105  0.0356
 5623TIP3   OH216874   0.531   5.669   3.083 -0.4388  0.1971  0.6293
 5623TIP3    H116875   0.504   5.589   3.036  0.2748  0.5290 -0.3781
 5623TIP3    H216876   0.602   5.640   3.140 -1.5635 -0.2863  1.8332
 5624TIP3   OH216877   6.291   5.866   3.058 -0.1810 -0.8613  0.5312
 5624TIP3    H116878   6.280   5.936   3.123 -0.8394  0.4211 -0.9115
 5624TIP3    H216879   6.358   5.900   2.998 -2.3945 -0.2323 -1.7190
 5625TIP3   OH216880   3.801   3.825   5.110 -0.7882  0.7076  0.2295
 5625TIP3    H116881   3.722   3.826   5.056 -0.2668 -0.4286 -0.5998
 5625TIP3    H216882   3.859   3.889   5.069 -0.6713  0.3711 -0.1388
 5626TIP3   OH216883   3.369   4.903   2.434  0.5136  1.0144  0.4175
 5626TIP3    H116884   3.398   4.839   2.369  1.7760 -0.8161  2.6039
 5626TIP3    H216885   3.274   4.905   2.425  0.5741 -0.0527 -0.7243
 5627TIP3   OH216886   0.528   2.973   4.700 -0.1792 -0.1581  0.3946
 5627TIP3    H116887   0.619   2.978   4.728  0.5404  2.0698 -2.0116
 5627TIP3    H216888   0.482   3.035   4.756  0.6594  1.9311 -1.1316
 5628TIP3   OH216889   0.989   0.873   0.640 -0.0448  0.9467 -0.1631
 5628TIP3    H116890   1.003   0.945   0.579 -1.3843 -0.2303 -1.9420
 5628TIP3    H216891   0.894   0.869   0.650  0.0653 -0.0415  0.5911
 5629TIP3   OH216892   4.320   2.143   1.696  0.4067  0.0550 -0.5560
 5629TIP3    H116893   4.312   2.202   1.622  2.2578 -0.2017 -1.0206
 5629TIP3    H216894   4.406   2.101   1.684 -0.1343 -1.4876  0.6394
 5630TIP3   OH216895   5.641   5.984   3.124  0.1678 -0.1266 -0.4729
 5630TIP3    H116896   5.704   6.040   3.169 -0.9382  1.4466 -0.8197
 5630TIP3    H216897   5.643   5.902   3.173  1.8496  0.1763  0.0334
 5631TIP3   OH216898   5.497   4.571   0.338 -0.1093 -0.2635  0.2577
 5631TIP3    H116899   5.420   4.524   0.367 -0.8593  0.9380  0.2868
 5631TIP3    H216900   5.565   4.504   0.330 -1.3121 -1.4414 -0.3785
 5632TIP3   OH216901   5.641   3.807   1.718 -0.6608  0.8955  0.1790
 5632TIP3    H116902   5.633   3.792   1.624  0.2066  2.8330 -0.2433
 5632TIP3    H216903   5.734   3.820   1.733 -0.8259  0.9420  1.2582
 5633TIP3   OH216904   4.818   2.643   2.863 -0.3472  0.2149 -0.3391
 5633TIP3    H116905   4.820   2.655   2.768 -1.9470  0.0108 -0.4232
 5633TIP3    H216906   4.906   2.666   2.892 -0.0167  0.8959 -1.7984
 5634TIP3   OH216907   2.067  -0.006   2.282  0.0305 -0.2137 -0.7694
 5634TIP3    H116908   2.108  -0.069   2.341  0.5588 -0.5552 -1.4880
 5634TIP3    H216909   2.068   0.076   2.331 -1.0700 -0.8238  0.3624
 5635TIP3   OH216910   3.799   1.334   4.819  0.2679  0.0493  0.0552
 5635TIP3    H116911   3.862   1.282   4.770  0.6896 -0.3417  1.0158
 5635TIP3    H216912   3.756   1.272   4.877 -1.1390  0.2708 -0.6889
 5636TIP3   OH216913   5.347   3.832   3.925 -0.0516 -0.0259 -0.0016
 5636TIP3    H116914   5.291   3.857   3.998  0.8054 -0.6496  0.9019
 5636TIP3    H216915   5.315   3.746   3.897 -1.3067  0.8352 -1.3569
 5637TIP3   OH216916   1.181   4.206   3.583  0.5595 -0.1369 -0.0301
 5637TIP3    H116917   1.087   4.205   3.566  0.7471  2.2373 -1.7741
 5637TIP3    H216918   1.189   4.191   3.677 -1.6727  1.2002  0.4418
 5638TIP3   OH216919   2.487   2.201   1.714  0.0839  0.2217  0.0105
 5638TIP3    H116920   2.527   2.265   1.773 -1.7057  1.0179  0.4271
 5638TIP3    H216921   2.545   2.198   1.638  0.8413  1.4265  0.5176
 5639TIP3   OH216922   2.454   0.108   2.240 -0.5839  0.1106  0.3924
 5639TIP3    H116923   2.546   0.115   2.214 -0.6722  1.0032  0.2617
 5639TIP3    H216924   2.449   0.027   2.291  0.5598  0.7396  1.5754
 5640TIP3   OH216925   2.337   3.520   0.948 -0.8721 -0.2073  0.1231
 5640TIP3    H116926   2.323   3.514   0.853 -1.4047  0.6322  0.1418
 5640TIP3    H216927   2.316   3.432   0.980  2.4571 -1.5451 -0.8728
 5641TIP3   OH216928   2.747   4.767   2.242 -0.2555 -0.2938 -0.2153
 5641TIP3    H116929   2.707   4.680   2.241 -0.3813 -0.2346 -1.3350
 5641TIP3    H216930   2.697   4.815   2.309 -1.3501 -0.5495 -0.8279
 5642TIP3   OH216931   1.130   2.994   4.643  0.0495 -0.5675 -0.1836
 5642TIP3    H116932   1.202   2.989   4.706 -1.2180 -1.1487  1.3042
 5642TIP3    H216933   1.081   2.913   4.657 -2.2006  0.8251  0.5140
 5643TIP3   OH216934   2.449   0.692   1.329  1.0324 -0.8740 -0.2478
 5643TIP3    H116935   2.472   0.669   1.419  1.5561  0.6597  0.0348
 5643TIP3    H216936   2.460   0.787   1.325  0.2981 -0.8267 -1.7331
 5644TIP3   OH216937   2.024   5.238   4.793 -0.1040  0.2693  0.3699
 5644TIP3    H116938   2.070   5.168   4.747 -2.8852 -1.3575 -0.1523
 5644TIP3    H216939   2.070   5.318   4.767  1.0000 -1.0115 -1.8879
 5645TIP3   OH216940   5.323   1.542   0.208  0.3127 -0.0301  0.1422
 5645TIP3    H116941   5.405   1.505   0.174  0.4878  0.0092  0.5207
 5645TIP3    H216942   5.326   1.525   0.302  0.6373  1.4011  0.4094
 5646TIP3   OH216943   3.860   0.506   0.707 -0.8709  0.3045 -0.2905
 5646TIP3    H116944   3.808   0.540   0.780 -1.0287  2.6479 -1.3882
 5646TIP3    H216945   3.826   0.418   0.692 -2.7644  0.8096  0.6746
 5647TIP3   OH216946   0.932   0.183   3.843 -0.3405 -0.3202 -1.0353
 5647TIP3    H116947   1.002   0.244   3.819  0.6221 -1.1698 -0.3974
 5647TIP3    H216948   0.970   0.096   3.832 -0.9812 -0.7816  0.2640
 5648TIP3   OH216949   2.076   4.056   1.336  0.0475 -0.1644  0.0710
 5648TIP3    H116950   2.050   3.967   1.356  0.0853  0.0260  1.0163
 5648TIP3    H216951   2.159   4.068   1.381  0.7759 -0.1102 -1.2429
 5649TIP3   OH216952   0.415   4.324   2.208 -0.6138 -0.0001  0.0831
 5649TIP3    H116953   0.448   4.410   2.184 -0.4658 -0.3697 -1.1166
 5649TIP3    H216954   0.492   4.276   2.240 -0.0565 -0.6325 -2.0506
 5650TIP3   OH216955   3.920   2.558   5.091 -0.0134  0.0320 -0.0906
 5650TIP3    H116956   3.951   2.643   5.121 -2.2587  1.6238 -1.9109
 5650TIP3    H216957   3.847   2.537   5.150 -0.5421  0.2031 -0.6796
 5651TIP3   OH216958   4.186   0.343   2.213 -0.1523 -0.2088  0.7315
 5651TIP3    H116959   4.274   0.332   2.178  0.7762  2.4263  1.9201
 5651TIP3    H216960   4.185   0.289   2.292  0.1043 -0.8817  0.2818
 5652TIP3   OH216961   4.376   0.903   3.541 -0.3830  0.6704  0.4698
 5652TIP3    H116962   4.409   0.860   3.462 -0.4116  0.6335  0.4779
 5652TIP3    H216963   4.439   0.973   3.559 -0.8305  1.2386 -0.0860
 5653TIP3   OH216964   5.611   0.526   3.587 -0.2564 -0.1134 -0.3112
 5653TIP3    H116965   5.637   0.434   3.589 -0.2976 -0.1795 -1.9367
 5653TIP3    H216966   5.691   0.574   3.611 -0.0218 -0.5351 -0.2475
 5654TIP3   OH216967   5.582   5.953   4.927 -0.8305  0.1938  0.0106
 5654TIP3    H116968   5.532   5.914   4.999 -0.9050  2.0494  1.0185
 5654TIP3    H216969   5.651   6.003   4.970  0.8115 -0.8264 -1.3210
 5655TIP3   OH216970   0.129   3.411   0.766  0.5819 -0.1751 -0.3819
 5655TIP3    H116971   0.101   3.455   0.685  1.6676 -1.8122 -1.7092
 5655TIP3    H216972   0.216   3.446   0.782 -0.0040  0.8667  0.6732
 5656TIP3   OH216973   1.310   2.573   2.110 -0.7656 -0.1425 -0.6639
 5656TIP3    H116974   1.405   2.580   2.099 -0.6758 -1.1331 -0.5509
 5656TIP3    H216975   1.275   2.595   2.023 -0.4691  0.7032 -0.5814
 5657TIP3   OH216976   0.647   4.277   0.150 -0.0483 -0.0090 -0.0405
 5657TIP3    H116977   0.620   4.193   0.184 -0.8925 -0.2979 -1.3417
 5657TIP3    H216978   0.731   4.260   0.107 -0.3840 -0.2782 -0.6027
 5658TIP3   OH216979   4.382   4.385   3.223  0.4039  0.4346 -0.1351
 5658TIP3    H116980   4.446   4.315   3.211 -0.4583  0.0240 -3.3240
 5658TIP3    H216981   4.406   4.450   3.157 -2.4621  0.2084 -1.5205
 5659TIP3   OH216982   4.393   1.062   0.994 -0.4982 -0.0721 -0.5980
 5659TIP3    H116983   4.471   1.115   0.983 -0.7560  0.4280 -0.0374
 5659TIP3    H216984   4.320   1.124   0.991 -0.8118 -0.4076 -0.1253
 5660TIP3   OH216985   4.834   5.409   2.558 -0.0180  0.5473  0.0343
 5660TIP3    H116986   4.923   5.444   2.556  0.3609 -0.4038  0.2424
 5660TIP3    H216987   4.780   5.485   2.580  0.8955  0.8357  1.4356
 5661TIP3   OH216988   6.253   0.205   3.499 -0.4892 -0.4036  0.1876
 5661TIP3    H116989   6.254   0.170   3.588 -3.5200 -3.2875 -0.7352
 5661TIP3    H216990   6.261   0.300   3.510 -0.7122 -0.6744  3.5132
 5662TIP3   OH216991   0.440   0.379   3.964  0.3226  1.0733 -0.2278
 5662TIP3    H116992   0.529   0.371   3.929  0.5264  1.4467  0.1923
 5662TIP3    H216993   0.425   0.296   4.010 -0.6259 -0.1942 -2.6599
 5663TIP3   OH216994   4.537   0.485   1.323  0.6109 -0.4519 -0.2082
 5663TIP3    H116995   4.603   0.466   1.257  0.5639  0.0861 -0.4124
 5663TIP3    H216996   4.454   0.458   1.282  0.8144 -2.4652  0.5718
 5664TIP3   OH216997   3.584   4.802   4.113  0.6772 -0.0026  0.0314
 5664TIP3    H116998   3.503   4.753   4.097  0.9239  0.0035 -1.3663
 5664TIP3    H216999   3.587   4.813   4.208  0.3736 -2.2685  0.3596
 5665TIP3   OH217000   1.941   1.617   0.135 -0.4316 -0.1010  0.4001
 5665TIP3    H117001   1.861   1.629   0.185 -0.9211 -0.0475 -0.3685
 5665TIP3    H217002   1.980   1.704   0.129  0.0531 -0.2462  1.3657
 5666TIP3   OH217003   0.447   4.636   1.166 -0.0600  0.3161 -0.3466
 5666TIP3    H117004   0.534   4.600   1.151 -0.1638 -0.6032  1.1052
 5666TIP3    H217005   0.437   4.635   1.261 -1.3739  1.1066 -0.4562
 5667TIP3   OH217006   0.061   5.997   1.289 -0.5458 -0.2922  0.8318
 5667TIP3    H117007   0.018   5.920   1.327 -0.3589 -0.8443 -0.0352
 5667TIP3    H217008   0.016   6.010   1.205  1.7972 -1.6955 -0.7361
 5668TIP3   OH217009   3.267   4.976   0.225 -0.0498 -0.5682  0.4865
 5668TIP3    H117010   3.301   4.888   0.211 -0.7244 -0.8725  0.7498
 5668TIP3    H217011   3.269   5.017   0.139  0.5490 -0.7349  0.4155
 5669TIP3   OH217012   1.458   3.233   0.729  0.1127  0.3570  0.6471
 5669TIP3    H117013   1.366   3.240   0.757 -0.1079  0.4069 -0.0770
 5669TIP3    H217014   1.458   3.267   0.640  0.3327 -2.0943 -0.3707
 5670TIP3   OH217015   0.383   0.222   2.372 -0.7449 -0.5727  0.4495
 5670TIP3    H117016   0.338   0.295   2.415  0.6601  0.9931 -0.6092
 5670TIP3    H217017   0.367   0.235   2.279  0.0704 -1.2370  0.2017
 5671TIP3   OH217018   3.952   2.057   2.715  0.2223 -0.3829  0.2809
 5671TIP3    H117019   4.014   1.986   2.702 -0.8839 -1.0006 -2.0218
 5671TIP3    H217020   3.918   2.076   2.628  0.0978  2.6505  0.8832
 5672TIP3   OH217021   3.116   1.690   3.004 -0.3696 -0.2810 -0.1281
 5672TIP3    H117022   3.075   1.665   3.086 -0.7847 -0.4505 -0.3840
 5672TIP3    H217023   3.056   1.659   2.936  0.7425 -1.6134 -0.5653
 5673TIP3   OH217024   3.800   0.553   3.872 -0.0235 -0.0462 -0.3093
 5673TIP3    H117025   3.862   0.495   3.827 -0.1364  0.0130 -0.5389
 5673TIP3    H217026   3.773   0.503   3.949 -1.5436 -1.1102 -1.4478
 5674TIP3   OH217027   3.743   5.519   4.286 -0.2973 -0.7814 -0.1254
 5674TIP3    H117028   3.741   5.507   4.191  1.1160 -0.4317 -0.2237
 5674TIP3    H217029   3.655   5.550   4.308 -0.8104 -1.3808 -1.2398
 5675TIP3   OH217030   6.197   4.854   0.154  0.4176  0.6282 -0.0822
 5675TIP3    H117031   6.221   4.867   0.062  1.0174  0.7633  0.0852
 5675TIP3    H217032   6.164   4.765   0.158  0.8384  0.4555 -0.3440
 5676TIP3   OH217033   0.703   3.192   2.798  0.3310  0.3972  0.2766
 5676TIP3    H117034   0.793   3.217   2.820  0.0877  0.9728  0.6378
 5676TIP3    H217035   0.673   3.262   2.739 -0.6977  1.5520  2.0967
 5677TIP3   OH217036   0.444   0.471   0.698  0.1495  0.6582  0.2949
 5677TIP3    H117037   0.390   0.526   0.642  0.6321  0.8763  0.0326
 5677TIP3    H217038   0.455   0.523   0.778  0.1221  0.6937  0.2757
 5678TIP3   OH217039   5.428   3.661   3.498  1.1308  0.0201  0.1743
 5678TIP3    H117040   5.343   3.702   3.513  1.1985  0.0721  0.4167
 5678TIP3    H217041   5.459   3.638   3.586  1.1809 -0.3719  0.0539
 5679TIP3   OH217042   2.263   3.729   1.452 -0.3596 -0.3091 -0.3293
 5679TIP3    H117043   2.296   3.817   1.470 -1.6863  1.1799 -4.0502
 5679TIP3    H217044   2.341   3.676   1.442  0.5298  0.7578  0.6917
 5680TIP3   OH217045   6.219   1.711   1.873 -0.2822  0.5374 -0.3742
 5680TIP3    H117046   6.125   1.698   1.882 -0.2752  1.6865  2.9408
 5680TIP3    H217047   6.249   1.636   1.822 -3.0691  0.8023 -2.6862
 5681TIP3   OH217048   4.376   3.789   2.548 -0.3233  0.2567  0.5486
 5681TIP3    H117049   4.296   3.742   2.528  0.6355 -0.9985 -0.4910
 5681TIP3    H217050   4.360   3.830   2.633 -2.2331  0.4775  0.1145
 5682TIP3   OH217051   3.242   1.886   4.061 -0.2817 -0.2673 -0.1982
 5682TIP3    H117052   3.220   1.933   3.980  1.2134 -0.2467 -0.6255
 5682TIP3    H217053   3.327   1.922   4.086  0.5192 -2.1533 -0.0928
 5683TIP3   OH217054   3.939   5.330   3.165 -0.4132  0.9155  0.0917
 5683TIP3    H117055   3.948   5.334   3.070  0.1001  3.3075  0.1814
 5683TIP3    H217056   3.856   5.283   3.179 -0.4717  0.4747 -1.5047
 5684TIP3   OH217057   5.252   1.874   2.662  0.3392 -0.4401 -0.3998
 5684TIP3    H117058   5.167   1.910   2.686 -0.2924 -1.8277 -0.5185
 5684TIP3    H217059   5.292   1.942   2.608 -1.1857 -0.2594 -1.3517
 5685TIP3   OH217060   5.892   5.615   2.565 -0.1003 -0.4354  0.1347
 5685TIP3    H117061   5.857   5.669   2.494  0.1174 -1.2789 -0.6387
 5685TIP3    H217062   5.886   5.671   2.642 -0.5053  0.4488 -0.5078
 5686TIP3   OH217063   4.497   0.576   5.206 -0.2600  0.2798  0.4695
 5686TIP3    H117064   4.445   0.523   5.146 -1.0034 -1.3522  2.4511
 5686TIP3    H217065   4.485   0.666   5.175 -0.1668 -0.5067 -2.0913
 5687TIP3   OH217066   6.171   4.113   4.517 -0.2308 -0.1894 -0.5055
 5687TIP3    H117067   6.122   4.042   4.475  0.1956  0.2679 -1.7996
 5687TIP3    H217068   6.162   4.095   4.611 -1.3721 -1.1179 -0.7644
 5688TIP3   OH217069   5.425   2.883   4.306 -0.2484  0.0959 -0.2600
 5688TIP3    H117070   5.519   2.898   4.320 -0.0688 -0.2465 -1.0334
 5688TIP3    H217071   5.406   2.804   4.357  0.4876 -1.3805 -2.1454
 5689TIP3   OH217072   2.504   0.939   4.529  0.1634 -0.5918 -0.0057
 5689TIP3    H117073   2.494   0.931   4.624 -3.2112  1.2832 -0.0183
 5689TIP3    H217074   2.516   1.033   4.514  0.4962 -0.8386 -1.4329
 5690TIP3   OH217075   3.471   3.659   3.580  0.0681 -0.5626  0.0300
 5690TIP3    H117076   3.500   3.604   3.507  0.2141 -1.3006  0.6261
 5690TIP3    H217077   3.546   3.715   3.599 -1.0122  1.8892 -2.4060
 5691TIP3   OH217078   4.308   2.486   4.043  0.1565 -0.3168  0.2630
 5691TIP3    H117079   4.242   2.552   4.067 -1.4562 -2.1825  1.1751
 5691TIP3    H217080   4.300   2.479   3.948 -0.4921 -0.0421  0.2862
 5692TIP3   OH217081   2.794   2.546   0.730 -0.6504 -0.0673 -0.0894
 5692TIP3    H117082   2.729   2.486   0.767  0.4161 -0.7563  0.7402
 5692TIP3    H217083   2.842   2.578   0.806  0.0412  0.3561 -0.6979
 5693TIP3   OH217084   5.986   4.990  -0.012  0.3887 -0.1987 -0.5133
 5693TIP3    H117085   5.921   4.960   0.051 -1.4039 -1.2704 -2.7241
 5693TIP3    H217086   6.049   5.040   0.040 -2.3266  1.1755  1.6977
 5694TIP3   OH217087   0.545   2.480   3.792  0.1103  0.6125 -0.5906
 5694TIP3    H117088   0.462   2.439   3.817 -0.0238  0.6199 -1.0123
 5694TIP3    H217089   0.553   2.462   3.698  0.4577  0.8346 -0.6040
 5695TIP3   OH217090   4.416   2.725   3.141  0.1756  0.5565  0.5987
 5695TIP3    H117091   4.447   2.764   3.059  0.0855  0.8122  0.6836
 5695TIP3    H217092   4.445   2.787   3.208  0.1769  0.3888  0.7518
 5696TIP3   OH217093   5.191   0.057   3.289  0.1226 -0.6432 -0.5602
 5696TIP3    H117094   5.222   0.076   3.378  1.0096  1.3510 -1.2431
 5696TIP3    H217095   5.165   0.142   3.254  0.0047 -1.3623 -2.3043
 5697TIP3   OH217096   5.369   0.439   4.778 -1.1634 -0.1365  0.3619
 5697TIP3    H117097   5.455   0.396   4.776 -0.6330  0.8327  1.3212
 5697TIP3    H217098   5.338   0.425   4.867 -0.1387  2.9579  1.3431
 5698TIP3   OH217099   4.343   1.628   4.976 -0.5026  0.2681  0.0490
 5698TIP3    H117100   4.319   1.629   5.069  1.2365  0.8941  0.5404
 5698TIP3    H217101   4.438   1.642   4.976 -0.3947 -0.2011 -1.8143
 5699TIP3   OH217102   2.361   4.963   0.800  0.1897  0.2218 -0.2172
 5699TIP3    H117103   2.354   4.897   0.869  0.9916  2.4194  2.1257
 5699TIP3    H217104   2.290   5.025   0.818 -0.8875 -0.1724 -2.6822
 5700TIP3   OH217105   5.298   2.710   4.973 -0.1561  0.5387 -0.1122
 5700TIP3    H117106   5.324   2.785   5.026  1.7584 -1.1553  1.5116
 5700TIP3    H217107   5.223   2.673   5.018  0.1365  0.3451  0.2232
 5701TIP3   OH217108   4.379   2.583   4.327 -0.1499  0.1127 -0.4021
 5701TIP3    H117109   4.464   2.539   4.329  0.1954  0.7816  1.7798
 5701TIP3    H217110   4.319   2.521   4.367 -0.1075  0.7119  0.6201
 5702TIP3   OH217111   5.244   4.236   2.417 -0.0133  0.7355  0.1940
 5702TIP3    H117112   5.158   4.197   2.405 -0.5627  1.8327  0.4615
 5702TIP3    H217113   5.246   4.262   2.509  0.7973  0.2699  0.3140
 5703TIP3   OH217114   0.176   0.770   1.883  0.4012  0.0254 -0.4088
 5703TIP3    H117115   0.231   0.699   1.850  1.2741  0.3263  0.3574
 5703TIP3    H217116   0.121   0.794   1.808  2.8212  1.2039 -1.9496
 5704TIP3   OH217117   3.399   2.602   0.224  0.4211 -0.4149  0.1611
 5704TIP3    H117118   3.304   2.603   0.208  0.1324 -2.6350  1.3930
 5704TIP3    H217119   3.409   2.638   0.312  0.9063  1.0077 -0.4331
 5705TIP3   OH217120   0.258   5.058   0.536  0.2310  0.6489 -0.2375
 5705TIP3    H117121   0.282   5.137   0.486  0.0627  0.9325  0.1281
 5705TIP3    H217122   0.320   5.055   0.608  0.1306  0.5427 -0.1546
 5706TIP3   OH217123   4.454   5.767   0.016  0.6631  0.7166  0.0701
 5706TIP3    H117124   4.428   5.756   0.108  1.2192 -0.6297  0.0870
 5706TIP3    H217125   4.498   5.852   0.014  1.0580  0.5618  1.1632
 5707TIP3   OH217126   5.435   0.966   0.580  0.0938  0.0051 -0.1520
 5707TIP3    H117127   5.400   0.882   0.611  0.6241 -0.6667 -1.2951
 5707TIP3    H217128   5.528   0.962   0.603 -0.2434  1.1799  1.6160
 5708TIP3   OH217129   1.182   0.507   3.117 -0.0940  0.5108  0.5617
 5708TIP3    H117130   1.199   0.461   3.035  1.1568 -0.3992  1.3033
 5708TIP3    H217131   1.209   0.597   3.099 -1.1039  0.6484 -0.4210
 5709TIP3   OH217132   5.221   1.234   3.660 -1.6981  0.5545  0.5957
 5709TIP3    H117133   5.160   1.278   3.718 -2.9884  0.3792 -0.5811
 5709TIP3    H217134   5.166   1.193   3.593 -0.3555 -0.4385  0.0477
 5710TIP3   OH217135   1.048   1.425   2.142  0.1982 -0.0560  0.3257
 5710TIP3    H117136   1.042   1.342   2.189  2.7323 -0.1988  0.5332
 5710TIP3    H217137   0.970   1.473   2.168  0.7997 -0.6497  3.7217
 5711TIP3   OH217138   1.222   3.418   4.036 -0.5588 -0.0537 -0.1548
 5711TIP3    H117139   1.161   3.419   4.110  0.5667  0.4882  0.7939
 5711TIP3    H217140   1.308   3.404   4.076  0.2200  1.3651 -1.2503
 5712TIP3   OH217141   5.022   4.359   5.150 -0.1609  0.0981 -0.3170
 5712TIP3    H117142   5.102   4.324   5.189  0.2645 -1.8033 -2.6669
 5712TIP3    H217143   5.050   4.400   5.068 -1.5618 -0.6823 -1.2361
 5713TIP3   OH217144   2.910   5.413   2.336  0.7093 -0.0880  0.0103
 5713TIP3    H117145   2.967   5.354   2.286 -1.2152 -2.4717  0.4291
 5713TIP3    H217146   2.891   5.485   2.276  0.5131 -1.5613 -1.7841
 5714TIP3   OH217147   1.575   2.833   1.238  0.3327  0.1614  0.4294
 5714TIP3    H117148   1.574   2.929   1.233  0.2676  0.1031 -0.8435
 5714TIP3    H217149   1.668   2.811   1.244  0.4340  0.2479 -0.7151
 5715TIP3   OH217150   5.205   3.539   5.115 -0.5425 -0.3995 -0.4989
 5715TIP3    H117151   5.254   3.467   5.154 -1.1378 -2.3849 -3.1161
 5715TIP3    H217152   5.116   3.504   5.103 -1.3975  1.4739 -0.1083
 5716TIP3   OH217153   2.343   4.400   2.702 -0.0724 -0.6731 -0.1449
 5716TIP3    H117154   2.316   4.402   2.610 -0.1935  1.2131 -0.1145
 5716TIP3    H217155   2.261   4.409   2.751  0.1247  0.0319  0.0767
 5717TIP3   OH217156   2.095   4.939   0.325 -0.4327 -0.1551 -0.0500
 5717TIP3    H117157   2.004   4.915   0.342 -0.4084 -1.4896 -1.6440
 5717TIP3    H217158   2.146   4.868   0.364 -0.1264 -0.0891 -0.3318
 5718TIP3   OH217159   1.631   3.391   3.982  0.1238 -0.1447 -0.2110
 5718TIP3    H117160   1.609   3.463   4.041  3.7179  0.3556  0.7464
 5718TIP3    H217161   1.620   3.312   4.035 -0.6290 -0.0553 -0.2211
 5719TIP3   OH217162   3.081   4.717   0.046 -0.0450 -0.2064 -0.0292
 5719TIP3    H117163   3.084   4.775  -0.030 -1.6482  0.5443  0.4300
 5719TIP3    H217164   2.995   4.675   0.041 -0.1453 -0.2233  1.2875
 5720TIP3   OH217165   3.068   0.708   0.318  0.6786 -0.2153  0.1685
 5720TIP3    H117166   3.084   0.635   0.377  1.7753 -0.0568  0.0762
 5720TIP3    H217167   3.036   0.667   0.238  1.5521 -0.6257  0.0191
 5721TIP3   OH217168   2.797   0.318   1.011 -0.2695 -0.2913 -0.3757
 5721TIP3    H117169   2.732   0.262   1.053 -0.4332  0.2392  0.0834
 5721TIP3    H217170   2.881   0.285   1.043 -0.3343 -0.6455 -0.5661
 5722TIP3   OH217171   4.372   5.706   3.282 -0.0132 -0.1748 -0.1105
 5722TIP3    H117172   4.281   5.679   3.294 -0.0112 -0.3525 -0.4634
 5722TIP3    H217173   4.371   5.755   3.200  0.2969 -0.6140 -0.3808
 5723TIP3   OH217174   6.041   1.889   3.922  0.0518 -0.0915 -0.2112
 5723TIP3    H117175   6.086   1.912   3.841  0.9914  1.1348  0.6349
 5723TIP3    H217176   5.949   1.910   3.905  0.3599  0.9016 -0.7030
 5724TIP3   OH217177   1.680   3.355   4.476  0.1771 -0.3178 -0.1973
 5724TIP3    H117178   1.724   3.387   4.554 -2.0704  2.2060  0.1617
 5724TIP3    H217179   1.734   3.386   4.403  1.0925 -0.7914  0.2537
 5725TIP3   OH217180   3.371   1.578   3.041  0.1857 -0.1123 -0.3468
 5725TIP3    H117181   3.439   1.635   3.005  0.7676  0.3820  1.4386
 5725TIP3    H217182   3.290   1.607   2.998  0.6444  1.3374 -0.2886
 5726TIP3   OH217183   6.186   2.900   2.270  0.2825 -0.6280 -0.1024
 5726TIP3    H117184   6.185   2.837   2.343  0.2986 -0.2514  0.2249
 5726TIP3    H217185   6.104   2.949   2.280  1.4898  1.2608  1.2892
 5727TIP3   OH217186   0.522   2.757   3.449 -0.2928  0.1819 -0.2502
 5727TIP3    H117187   0.599   2.806   3.423 -0.9477  1.3639 -0.0184
 5727TIP3    H217188   0.470   2.818   3.501 -1.5397 -0.4823 -0.6569
 5728TIP3   OH217189   4.417   4.683   1.962 -0.3834 -0.5893 -0.2662
 5728TIP3    H117190   4.373   4.732   2.032  0.1431 -2.0470  1.1518
 5728TIP3    H217191   4.413   4.592   1.990  0.0330 -1.2061 -2.0702
 5729TIP3   OH217192   2.522   5.232   1.565  0.1517 -0.2523 -0.3309
 5729TIP3    H117193   2.613   5.204   1.550  0.0450 -0.4456 -0.6234
 5729TIP3    H217194   2.516   5.245   1.660  0.0539 -1.7257 -0.1204
 5730TIP3   OH217195   2.797   5.821   2.358 -0.0036 -0.5076 -0.0924
 5730TIP3    H117196   2.767   5.731   2.343 -0.1920 -0.5680  0.6321
 5730TIP3    H217197   2.824   5.823   2.450  3.3485 -0.7893 -0.9342
 5731TIP3   OH217198   4.847   5.252   2.900  0.0657 -0.0432 -0.1238
 5731TIP3    H117199   4.929   5.218   2.865  0.6057  0.4046  0.6673
 5731TIP3    H217200   4.782   5.186   2.879  0.6380 -0.4116 -0.7467
 5732TIP3   OH217201   0.381   5.044   1.767 -0.0415 -0.3020  0.2018
 5732TIP3    H117202   0.474   5.034   1.788  0.0136 -0.1535  0.0332
 5732TIP3    H217203   0.375   5.131   1.727 -0.6141  0.7117  2.3474
 5733TIP3   OH217204   2.302   0.145   1.506  0.1767  0.1828  0.4691
 5733TIP3    H117205   2.394   0.136   1.481  1.0472 -1.2828  3.6865
 5733TIP3    H217206   2.255   0.090   1.443  1.7582 -0.6476 -0.0436
 5734TIP3   OH217207   5.479   1.138   0.373 -0.1731  0.5025 -0.1058
 5734TIP3    H117208   5.417   1.172   0.309 -0.7076 -0.1725  0.0401
 5734TIP3    H217209   5.437   1.059   0.408 -0.4796  1.5468  2.0212
 5735TIP3   OH217210   5.749   4.884   0.019  0.3881 -0.0218 -0.0044
 5735TIP3    H117211   5.698   4.964   0.010 -1.0271 -0.9823 -1.2551
 5735TIP3    H217212   5.684   4.818   0.045  1.2980 -0.9832 -0.1094
 5736TIP3   OH217213   5.063   4.188   3.413  0.0588  0.1642 -0.4068
 5736TIP3    H117214   5.009   4.203   3.491  1.5051  0.8532  0.5080
 5736TIP3    H217215   5.105   4.103   3.428 -0.0787  0.0482 -0.6825
 5737TIP3   OH217216   4.628   5.531   4.223  0.1810  0.1670 -0.0993
 5737TIP3    H117217   4.712   5.528   4.270 -0.4989  1.3168  1.2652
 5737TIP3    H217218   4.564   5.550   4.291 -1.3229 -1.4898 -0.9907
 5738TIP3   OH217219   2.604   2.410   0.883  0.3330 -0.2591 -0.2136
 5738TIP3    H117220   2.552   2.467   0.939  0.1628 -0.3254 -0.3017
 5738TIP3    H217221   2.638   2.342   0.941  0.6558  0.0112 -0.0816
 5739TIP3   OH217222   4.002   4.231   4.687 -0.0871  0.1618  0.4188
 5739TIP3    H117223   3.978   4.275   4.768 -1.5827 -0.8418  0.5664
 5739TIP3    H217224   4.045   4.298   4.634  3.5731  0.2131  3.0713
 5740TIP3   OH217225   6.209   4.750   3.546 -0.0364  0.6133 -0.4401
 5740TIP3    H117226   6.114   4.742   3.537  0.0483 -0.7981 -0.4064
 5740TIP3    H217227   6.226   4.844   3.538 -1.7407  1.3456  2.6552
 5741TIP3   OH217228   0.054   0.863   1.670 -0.2534  0.5149 -0.1150
 5741TIP3    H117229   0.077   0.851   1.578 -0.6933 -0.5982 -0.0891
 5741TIP3    H217230   0.024   0.954   1.676 -0.7046  0.4397 -1.1714
 5742TIP3   OH217231   3.054   2.061   2.179 -0.2157 -0.3800 -0.6085
 5742TIP3    H117232   2.981   2.115   2.207 -0.9628 -2.1084  0.9982
 5742TIP3    H217233   3.130   2.098   2.223 -0.9149 -1.2993  1.4917
 5743TIP3   OH217234   0.262   2.150   2.190  0.0100  0.4758 -0.1561
 5743TIP3    H117235   0.323   2.080   2.213 -1.4839 -0.9040 -0.1677
 5743TIP3    H217236   0.290   2.178   2.103  1.1123  0.4558  0.1789
 5744TIP3   OH217237   1.309   0.083   2.598  1.0096  0.0782  0.1147
 5744TIP3    H117238   1.380   0.019   2.589  2.4501  1.6262  0.1016
 5744TIP3    H217239   1.353   0.168   2.602 -0.9329  1.2509 -1.5619
 5745TIP3   OH217240   5.275   2.326   0.865 -0.4101  0.1701  0.1579
 5745TIP3    H117241   5.210   2.382   0.823 -0.3298  1.3388  1.5234
 5745TIP3    H217242   5.248   2.322   0.957  0.9133 -0.0905  0.5617
 5746TIP3   OH217243   0.446   3.122   3.187 -0.1639 -0.3447  0.3858
 5746TIP3    H117244   0.409   3.148   3.271 -0.8616 -2.3868  0.7657
 5746TIP3    H217245   0.456   3.027   3.193  0.3345 -0.4757 -1.6292
 5747TIP3   OH217246   5.910   0.939   1.194  0.0303  0.0979  0.1284
 5747TIP3    H117247   5.863   0.905   1.271 -0.3002 -1.4940 -0.7191
 5747TIP3    H217248   5.898   0.871   1.128  0.9077  1.1137 -1.1132
 5748TIP3   OH217249   1.534   2.218   2.495 -0.2746  0.0310  0.6876
 5748TIP3    H117250   1.451   2.226   2.542 -0.2710 -0.6506  0.8170
 5748TIP3    H217251   1.525   2.136   2.445  1.1053 -1.1676  2.2924
 5749TIP3   OH217252   5.293   4.637   0.580  0.2600 -0.3261  0.0256
 5749TIP3    H117253   5.235   4.584   0.526  0.4333  0.3011 -0.8041
 5749TIP3    H217254   5.280   4.604   0.669 -0.1573 -1.2707 -0.3661
 5750TIP3   OH217255   1.948   4.260   3.760 -0.0566  0.3057  1.2043
 5750TIP3    H117256   1.904   4.261   3.845 -0.6420  1.1027  0.9008
 5750TIP3    H217257   1.954   4.352   3.734 -1.9892 -0.0019 -0.6602
 5751TIP3   OH217258   4.609   2.727   2.211  0.5332  0.5746 -0.0403
 5751TIP3    H117259   4.651   2.643   2.190  1.6938  0.8752  0.9455
 5751TIP3    H217260   4.682   2.788   2.222 -0.3247  2.0400 -1.9567
 5752TIP3   OH217261   6.113   5.560   2.748  0.1297  0.7289  0.7048
 5752TIP3    H117262   6.030   5.527   2.715  0.6671  1.5273 -1.6354
 5752TIP3    H217263   6.166   5.482   2.762  0.7972  0.2849 -3.1315
 5753TIP3   OH217264   6.050   3.844   1.014 -0.9031 -0.1265 -0.2123
 5753TIP3    H117265   6.024   3.834   0.922  1.1115 -1.5365 -0.6922
 5753TIP3    H217266   6.144   3.861   1.011 -0.1609 -3.1529  1.6118
 5754TIP3   OH217267   3.989   3.053   0.374 -0.2771  0.0961  0.1488
 5754TIP3    H117268   4.079   3.043   0.343  0.1241  1.1789  0.9052
 5754TIP3    H217269   3.945   2.972   0.346  0.9310 -0.4712 -0.1847
 5755TIP3   OH217270   4.818   5.688   0.674 -0.0542  0.3586 -0.0213
 5755TIP3    H117271   4.810   5.784   0.677  2.0574  0.5671  0.8019
 5755TIP3    H217272   4.848   5.665   0.762  2.4755 -0.6780 -1.0605
 5756TIP3   OH217273   5.172   3.657   1.548  0.4092 -0.0034 -0.8294
 5756TIP3    H117274   5.093   3.621   1.508  0.0332  0.9029 -0.9337
 5756TIP3    H217275   5.141   3.730   1.601  0.6546 -2.0618  2.4951
 5757TIP3   OH217276   2.799   3.765   1.037 -0.5510 -0.2988  0.1714
 5757TIP3    H117277   2.876   3.749   0.983  1.5524  0.4434  2.7508
 5757TIP3    H217278   2.735   3.700   1.007  0.8964 -0.7114 -2.2898
 5758TIP3   OH217279   0.257   0.606   0.512  0.0074  0.0998  0.1394
 5758TIP3    H117280   0.184   0.641   0.564 -0.6581  0.2125 -0.8397
 5758TIP3    H217281   0.269   0.670   0.441 -0.5102 -1.0829 -1.0632
 5759TIP3   OH217282   1.146   0.579   4.931 -0.1256 -0.0066 -0.2395
 5759TIP3    H117283   1.146   0.560   5.025 -0.0941  0.7466 -0.0837
 5759TIP3    H217284   1.238   0.591   4.909 -0.1676  0.2922 -0.2620
 5760TIP3   OH217285   0.324   5.881   2.589 -0.0593 -0.7595  0.1762
 5760TIP3    H117286   0.267   5.853   2.661 -3.3441 -0.9731 -2.2665
 5760TIP3    H217287   0.320   5.809   2.526  1.7473 -0.0905 -0.7624
 5761TIP3   OH217288   6.260   3.139   4.608  0.4642  0.5929  0.0661
 5761TIP3    H117289   6.201   3.135   4.684  0.5672  1.0161  0.1706
 5761TIP3    H217290   6.210   3.188   4.542  0.2151 -0.1234 -0.2881
 5762TIP3   OH217291   1.407   4.093   4.646  0.6172 -0.1228  0.0552
 5762TIP3    H117292   1.480   4.107   4.585  0.5401 -1.4110 -0.3791
 5762TIP3    H217293   1.421   4.004   4.679 -0.5823 -0.2676  0.2051
 5763TIP3   OH217294   4.430   4.378   3.792 -1.3074 -0.8133  0.6002
 5763TIP3    H117295   4.359   4.436   3.818 -1.1031  0.1224 -0.8401
 5763TIP3    H217296   4.507   4.434   3.786 -0.9546 -1.3596 -0.1555
 5764TIP3   OH217297   0.409   4.387   0.931 -0.5395 -0.2372 -0.2509
 5764TIP3    H117298   0.478   4.431   0.881 -1.6259  1.5523 -0.2440
 5764TIP3    H217299   0.329   4.403   0.881 -1.6474  1.4749  1.8867
 5765TIP3   OH217300   2.363   1.181   4.619  0.1241  0.3911 -0.0584
 5765TIP3    H117301   2.331   1.173   4.709 -2.1036  1.5888 -0.6956
 5765TIP3    H217302   2.438   1.240   4.626 -0.1415  0.6249  0.9744
 5766TIP3   OH217303   1.159   3.318   2.565 -0.3938  0.1582  0.0804
 5766TIP3    H117304   1.233   3.379   2.564 -0.7159  0.5894  0.9051
 5766TIP3    H217305   1.166   3.272   2.649 -0.9178  0.0349  0.0650
 5767TIP3   OH217306   3.046   1.368   1.882 -0.1330  0.3722  0.0691
 5767TIP3    H117307   3.040   1.276   1.908 -0.3005  0.6918  1.2359
 5767TIP3    H217308   2.958   1.390   1.852 -0.4507  0.4892  1.0379
 5768TIP3   OH217309   6.040   1.136   3.577  0.0886 -0.1105 -0.5695
 5768TIP3    H117310   6.091   1.162   3.500 -0.5215 -1.3221 -1.4227
 5768TIP3    H217311   5.983   1.210   3.595 -0.2620 -0.0921 -1.7332
 5769TIP3   OH217312   1.732   0.104   1.245  0.0327  0.1427 -0.1674
 5769TIP3    H117313   1.764   0.016   1.266 -0.6046  0.4171  2.3736
 5769TIP3    H217314   1.646   0.089   1.207  1.1495 -0.3985 -2.6442
 5770TIP3   OH217315   5.970   0.330   4.912  0.1011 -0.6913  0.0851
 5770TIP3    H117316   5.948   0.242   4.882 -0.2247 -0.7190  0.3989
 5770TIP3    H217317   5.976   0.323   5.007 -1.7668 -0.0059  0.3076
 5771TIP3   OH217318   4.506   1.786   1.891  0.4919 -0.1348  0.0771
 5771TIP3    H117319   4.422   1.824   1.867  0.6726 -0.0281 -0.3878
 5771TIP3    H217320   4.570   1.836   1.841  0.9554  0.6806  1.4202
 5772TIP3   OH217321   4.880   5.883   3.001  0.3208 -0.7374 -0.2648
 5772TIP3    H117322   4.943   5.893   2.929 -0.6414  2.0909 -0.8364
 5772TIP3    H217323   4.797   5.862   2.958 -0.4563  1.8339 -0.1486
 5773TIP3   OH217324   1.979   3.278   4.072 -0.0981 -0.1246  0.1799
 5773TIP3    H117325   2.073   3.261   4.062 -0.0601  0.0802  0.2011
 5773TIP3    H217326   1.938   3.232   3.998  0.1263  0.8564 -0.5598
 5774TIP3   OH217327   1.613   5.164   4.354  0.1156 -1.0557 -0.2699
 5774TIP3    H117328   1.702   5.136   4.374  0.9443  1.6454  0.2193
 5774TIP3    H217329   1.603   5.146   4.260  1.8531  0.1446 -0.7441
 5775TIP3   OH217330   0.927   3.805   4.210  0.2503 -0.7666  0.0262
 5775TIP3    H117331   0.838   3.829   4.184 -0.7387 -1.6652  2.3278
 5775TIP3    H217332   0.933   3.832   4.302  1.3556 -3.2500  0.7592
 5776TIP3   OH217333   0.929   3.536   1.648  0.0750  0.0650  0.0484
 5776TIP3    H117334   0.838   3.528   1.621 -0.0236  0.8003  0.1621
 5776TIP3    H217335   0.934   3.489   1.731 -0.7752  2.1085  1.3332
 5777TIP3   OH217336   5.738   0.892   4.122 -0.4514  0.5414  0.5229
 5777TIP3    H117337   5.692   0.831   4.065 -0.3522  0.0824  0.9203
 5777TIP3    H217338   5.809   0.840   4.160  1.0017  1.4870 -0.8156
 5778TIP3   OH217339   1.939   0.851   4.488  0.5610  0.0724 -0.1660
 5778TIP3    H117340   1.955   0.945   4.499  1.0482  0.1916 -1.7424
 5778TIP3    H217341   1.864   0.846   4.429  0.6352 -0.5362 -0.2195
 5779TIP3   OH217342   0.429   3.584   0.484 -0.1467 -0.5709  0.2832
 5779TIP3    H117343   0.498   3.628   0.534 -1.1380  1.1458  0.2029
 5779TIP3    H217344   0.476   3.545   0.410  0.8036  0.1865  0.4599
 5780TIP3   OH217345   3.157   0.290   0.712 -0.9803 -0.4481 -0.8483
 5780TIP3    H117346   3.137   0.228   0.642  0.7023 -0.3422 -1.4611
 5780TIP3    H217347   3.241   0.261   0.747 -2.2350 -1.1212  1.8831
 5781TIP3   OH217348   1.620   2.562   0.974  0.4367  0.4545 -0.0358
 5781TIP3    H117349   1.531   2.578   1.004  0.4851 -0.3375  0.5528
 5781TIP3    H217350   1.621   2.596   0.884 -0.4682  0.4143 -0.0726
 5782TIP3   OH217351   3.786   2.223   2.848  0.3357  0.5927 -0.8150
 5782TIP3    H117352   3.859   2.173   2.811  1.3156  1.8864 -0.6857
 5782TIP3    H217353   3.807   2.231   2.941 -1.3933 -1.3988 -0.1746
 5783TIP3   OH217354   4.726   4.440   2.797 -0.2205  0.5730 -0.0158
 5783TIP3    H117355   4.755   4.481   2.878  1.9690  0.5941 -0.7378
 5783TIP3    H217356   4.691   4.355   2.824  3.2128 -0.7251  0.7815
 5784TIP3   OH217357   2.221   3.211   0.767 -0.5806 -0.4970  0.1864
 5784TIP3    H117358   2.162   3.147   0.729  0.5865 -0.9214 -0.9836
 5784TIP3    H217359   2.169   3.291   0.773 -1.1160 -0.6907 -1.3911
 5785TIP3   OH217360   5.678   5.408   0.435  0.0257 -0.1097  0.3483
 5785TIP3    H117361   5.685   5.314   0.450  0.6846 -0.2084 -0.5260
 5785TIP3    H217362   5.765   5.442   0.455  0.4381 -0.0062 -1.4627
 5786TIP3   OH217363   5.630   5.151   0.589 -0.6275  0.2043 -0.6965
 5786TIP3    H117364   5.672   5.107   0.663  0.0357  0.1513 -1.1039
 5786TIP3    H217365   5.537   5.127   0.597 -1.1982  2.6782  1.9283
 5787TIP3   OH217366   6.175   0.643   4.917 -0.0302  0.1799  0.7072
 5787TIP3    H117367   6.103   0.681   4.966  0.3949 -0.2852  1.7240
 5787TIP3    H217368   6.254   0.683   4.953  0.3032 -0.3322  0.5727
 5788TIP3   OH217369   4.993   4.440   0.525  0.2720 -0.2231 -0.1992
 5788TIP3    H117370   5.041   4.359   0.543  0.2698  0.1375  1.5398
 5788TIP3    H217371   4.930   4.447   0.596  0.6218  1.5810 -0.0290
 5789TIP3   OH217372   0.103   5.147   2.623  0.3519  0.2964 -0.4138
 5789TIP3    H117373   0.052   5.069   2.603 -0.3745  1.0103 -1.4672
 5789TIP3    H217374   0.179   5.142   2.565 -0.1729  0.8152 -1.1716
 5790TIP3   OH217375   6.040   1.490   4.866 -0.4750 -0.4404  0.1335
 5790TIP3    H117376   6.119   1.442   4.843  0.8718  1.0336  1.4231
 5790TIP3    H217377   6.018   1.540   4.787 -0.1638 -0.9190 -0.2575
 5791TIP3   OH217378   3.071   5.177   0.237 -0.2250 -0.4420  0.2417
 5791TIP3    H117379   3.100   5.245   0.297 -1.5593 -0.2439  0.6954
 5791TIP3    H217380   3.142   5.113   0.237  0.4116  0.2525  0.9204
 5792TIP3   OH217381   5.354   4.928   0.379  0.3243  0.1972  0.9212
 5792TIP3    H117382   5.372   4.856   0.439 -2.6515 -0.4544  1.1356
 5792TIP3    H217383   5.332   4.886   0.296  2.1641  1.0400 -0.0715
 5793TIP3   OH217384   4.443   0.162   3.769  0.7002 -0.5364  0.1925
 5793TIP3    H117385   4.474   0.153   3.859  1.2236 -1.5011 -0.0752
 5793TIP3    H217386   4.355   0.198   3.779 -0.0088 -2.3849  1.2113
 5794TIP3   OH217387   1.966   2.383   1.321 -0.2216 -0.3594 -0.7822
 5794TIP3    H117388   1.963   2.318   1.392  1.2367 -1.2441 -1.4906
 5794TIP3    H217389   2.058   2.405   1.313 -0.4462  0.2209 -1.9744
 5795TIP3   OH217390   3.772   3.292   0.762  0.2099 -0.0061  0.2018
 5795TIP3    H117391   3.861   3.324   0.782  0.6770 -0.9908 -0.2614
 5795TIP3    H217392   3.781   3.197   0.758 -0.7716 -0.0818 -0.3531
 5796TIP3   OH217393   5.721   0.038   0.741 -0.6064 -0.2864  0.0631
 5796TIP3    H117394   5.645   0.068   0.791 -0.7810 -0.8431  0.1448
 5796TIP3    H217395   5.791   0.031   0.806 -0.9500 -1.4371  0.3321
 5797TIP3   OH217396   5.697   0.991   0.293  0.1435 -0.2921 -0.3568
 5797TIP3    H117397   5.631   1.034   0.348  1.0859  0.5692  0.1247
 5797TIP3    H217398   5.665   1.003   0.203 -0.1249  0.5169 -0.1543
 5798TIP3   OH217399   6.039   2.457   0.230  0.0739  0.0530 -0.4961
 5798TIP3    H117400   6.067   2.374   0.190 -0.8911 -0.0074 -1.0789
 5798TIP3    H217401   5.955   2.436   0.271 -0.1067  0.7063 -0.5218
 5799TIP3   OH217402   1.357   5.445   1.945  0.7686  0.2856  1.0782
 5799TIP3    H117403   1.395   5.505   1.881 -1.0257 -1.4723 -1.8399
 5799TIP3    H217404   1.271   5.482   1.964  0.5270 -0.2115  0.9603
 5800TIP3   OH217405   1.233   3.156   2.823 -0.0652  0.3420  0.0407
 5800TIP3    H117406   1.236   3.073   2.872 -1.9231  0.0453 -0.2860
 5800TIP3    H217407   1.297   3.212   2.868 -0.1991 -0.6139  1.5068
 5801TIP3   OH217408   5.857   1.346   2.218  0.0796 -0.0370  0.5613
 5801TIP3    H117409   5.786   1.284   2.235 -0.1401  0.2413  0.6767
 5801TIP3    H217410   5.937   1.294   2.224 -0.1067 -0.3233  0.5811
 5802TIP3   OH217411   5.435   5.183   4.191 -0.6194 -0.1589 -0.1767
 5802TIP3    H117412   5.348   5.199   4.227 -1.8279 -0.8394 -2.5548
 5802TIP3    H217413   5.422   5.110   4.130  1.7826 -0.7143 -0.0923
 5803TIP3   OH217414   6.015   3.955   4.717 -0.7279  0.3684 -0.7014
 5803TIP3    H117415   5.950   4.023   4.701 -0.6999  0.3968 -0.6952
 5803TIP3    H217416   5.984   3.879   4.668 -1.1373  0.1610 -0.1314
 5804TIP3   OH217417   4.015   4.871   0.778  0.7410 -0.4790 -0.4902
 5804TIP3    H117418   3.987   4.920   0.701 -0.9404 -1.3292 -0.4751
 5804TIP3    H217419   4.111   4.872   0.774  0.7063  0.9702 -1.6202
 5805TIP3   OH217420   5.312   5.100   0.857 -0.3465 -0.3178 -0.0531
 5805TIP3    H117421   5.303   5.108   0.762  2.2448 -0.4013 -0.3787
 5805TIP3    H217422   5.341   5.187   0.886  1.1767 -0.9058  0.2862
 5806TIP3   OH217423   2.535   1.291   3.451  0.0547 -0.1575  0.2764
 5806TIP3    H117424   2.567   1.365   3.502 -2.2037  0.9884  0.1608
 5806TIP3    H217425   2.484   1.331   3.380 -0.5710 -1.8158 -0.2639
 5807TIP3   OH217426   5.076   4.486   0.043 -0.4291 -0.3671 -0.0006
 5807TIP3    H117427   5.048   4.446  -0.039  0.8154 -2.8909  0.7124
 5807TIP3    H217428   5.158   4.530   0.021  0.0735 -1.3177 -0.0532
 5808TIP3   OH217429   5.855   2.839   2.035 -0.1660 -0.0732 -0.3717
 5808TIP3    H117430   5.919   2.849   2.106 -1.7672 -1.1658  1.3034
 5808TIP3    H217431   5.770   2.845   2.078 -1.2653  1.7032 -2.5895
 5809TIP3   OH217432   4.139   1.976   3.619  0.1993  0.1709 -0.4200
 5809TIP3    H117433   4.097   2.053   3.581 -0.8081 -0.7243 -1.1926
 5809TIP3    H217434   4.204   1.949   3.554 -2.0658 -1.8311 -2.0572
 5810TIP3   OH217435   4.701   2.563   4.610 -0.0264 -0.0469  0.9948
 5810TIP3    H117436   4.694   2.514   4.693 -0.9564 -1.5825  0.0593
 5810TIP3    H217437   4.769   2.517   4.562  0.1626  0.5416  0.6966
 5811TIP3   OH217438   2.807   5.077   0.310 -0.1511 -0.6135 -0.0029
 5811TIP3    H117439   2.819   4.986   0.285 -0.3868 -0.6909  0.1609
 5811TIP3    H217440   2.895   5.115   0.309  0.1210 -1.1781  1.2625
 5812TIP3   OH217441   6.161   0.695   4.319  0.0963  0.8487 -0.4668
 5812TIP3    H117442   6.125   0.623   4.371  2.0418 -1.2569 -1.8190
 5812TIP3    H217443   6.099   0.706   4.247 -0.2334  0.5348 -0.2363
 5813TIP3   OH217444   2.674   0.516   4.799 -0.2592 -0.2089  0.3076
 5813TIP3    H117445   2.605   0.540   4.861 -0.4393 -0.9241  0.3955
 5813TIP3    H217446   2.751   0.565   4.827 -0.7426  0.6324  0.1849
 5814TIP3   OH217447   1.105   4.261   0.983 -0.0221 -0.3983  0.1098
 5814TIP3    H117448   1.078   4.289   0.895  0.3192 -0.7143 -0.0976
 5814TIP3    H217449   1.121   4.167   0.974  0.9980 -0.2567  0.2534
 5815TIP3   OH217450   4.251   2.644   1.400 -0.2312 -0.1659 -0.3164
 5815TIP3    H117451   4.286   2.664   1.313  0.3826 -0.9804 -0.2672
 5815TIP3    H217452   4.265   2.725   1.450  0.4614 -0.0663 -0.6545
 5816TIP3   OH217453   5.842   2.422   3.874 -0.2707 -0.2210 -0.1864
 5816TIP3    H117454   5.921   2.475   3.860 -0.0937 -0.4485 -0.0472
 5816TIP3    H217455   5.773   2.469   3.825 -0.1259  0.1636 -0.0295
 5817TIP3   OH217456   3.854   4.982   4.212  0.1882 -0.2028  0.2057
 5817TIP3    H117457   3.782   5.039   4.237  0.7606 -0.0887  1.7065
 5817TIP3    H217458   3.856   4.986   4.116 -1.3965  0.2603  0.1649
 5818TIP3   OH217459   1.148   4.091   5.060 -0.1274  0.1007 -0.0350
 5818TIP3    H117460   1.124   4.177   5.026 -0.5915 -0.1916 -0.4727
 5818TIP3    H217461   1.101   4.029   5.004 -0.7529 -0.4026  1.0100
 5819TIP3   OH217462   3.330   0.262   0.438  0.0110  0.2539  0.0408
 5819TIP3    H117463   3.359   0.352   0.452 -0.1503  0.1989  0.7538
 5819TIP3    H217464   3.405   0.219   0.396  1.3131 -0.0848  2.5717
 5820TIP3   OH217465   3.975   5.845   4.567  0.4511  0.0981 -0.2659
 5820TIP3    H117466   3.945   5.754   4.568 -0.8312  0.4725 -1.2329
 5820TIP3    H217467   3.896   5.896   4.547  1.2163  1.3971 -0.1126
 5821TIP3   OH217468   1.309   3.887   2.671  0.1682 -0.5899 -0.7350
 5821TIP3    H117469   1.284   3.822   2.605 -1.7146  0.1906 -0.8465
 5821TIP3    H217470   1.350   3.958   2.621 -0.8897 -0.1817 -1.0586
 5822TIP3   OH217471   0.504   2.362   2.741 -0.0428  0.4609  0.2562
 5822TIP3    H117472   0.487   2.276   2.779 -0.2855  0.4068  0.0241
 5822TIP3    H217473   0.600   2.368   2.736 -0.0344  0.0994  0.0181
 5823TIP3   OH217474   0.565   5.429   1.328 -0.0593 -0.5607  0.4545
 5823TIP3    H117475   0.484   5.465   1.292  0.4803  0.8551  0.5551
 5823TIP3    H217476   0.538   5.371   1.398 -0.9881  0.0204  0.5910
 5824TIP3   OH217477   0.144   0.591   2.934  0.6369  0.3161 -0.1816
 5824TIP3    H117478   0.113   0.590   3.025 -0.8494 -1.3821 -0.6641
 5824TIP3    H217479   0.086   0.532   2.888  0.7790  1.8465 -2.4851
 5825TIP3   OH217480   1.001   4.165   3.158 -0.0001  0.1618  0.2533
 5825TIP3    H117481   1.065   4.126   3.217 -0.0035 -3.6547 -1.9806
 5825TIP3    H217482   1.054   4.208   3.090  0.3066 -1.9401 -0.9230
 5826TIP3   OH217483   2.547   3.723   4.802  0.1939  0.5289 -0.6446
 5826TIP3    H117484   2.571   3.706   4.711  1.0755  3.3427 -1.0324
 5826TIP3    H217485   2.612   3.676   4.854  1.1514  0.8592 -1.5290
 5827TIP3   OH217486   1.383   0.287   0.625 -0.2314 -0.1111  0.3896
 5827TIP3    H117487   1.310   0.264   0.567 -0.1233  3.0417 -1.2499
 5827TIP3    H217488   1.345   0.353   0.684  0.7929  0.0255  0.9086
 5828TIP3   OH217489   5.546   2.619   2.595 -0.1974 -0.4479  0.7627
 5828TIP3    H117490   5.606   2.688   2.623 -0.7584 -0.5064  2.2187
 5828TIP3    H217491   5.500   2.656   2.520  1.5255 -0.3501 -0.2854
 5829TIP3   OH217492   5.097   3.274   4.363 -0.2380  0.0851  0.0767
 5829TIP3    H117493   5.027   3.210   4.366  0.4208 -0.6699 -0.2987
 5829TIP3    H217494   5.124   3.286   4.454 -1.0310  0.5924  0.2530
 5830TIP3   OH217495   5.844   5.379   5.085 -0.5316 -0.0719 -0.3674
 5830TIP3    H117496   5.885   5.444   5.142  0.0479  0.2301 -1.1230
 5830TIP3    H217497   5.751   5.383   5.108 -0.4074  0.5658  0.0393
 5831TIP3   OH217498   2.008   2.235   4.190  0.1300 -0.1429 -0.2658
 5831TIP3    H117499   1.982   2.263   4.102 -0.0851  0.7314  0.0684
 5831TIP3    H217500   2.084   2.290   4.211 -0.7614  0.7530  0.7002
 5832TIP3   OH217501   4.354   2.219   0.599 -0.0513  0.1039  0.6847
 5832TIP3    H117502   4.372   2.174   0.681  0.0820  0.4883  0.8722
 5832TIP3    H217503   4.358   2.312   0.622  1.2158  0.2501  0.0031
 5833TIP3   OH217504   2.797   2.013   2.994  0.0761 -0.1476 -0.0943
 5833TIP3    H117505   2.759   2.022   3.081 -0.7147 -0.1095 -0.4323
 5833TIP3    H217506   2.883   2.056   3.000  0.1674 -0.4460  0.7481
 5834TIP3   OH217507   2.254   3.460   4.776 -0.2707  0.2417  0.1928
 5834TIP3    H117508   2.287   3.418   4.856  0.6580  2.6563  1.1567
 5834TIP3    H217509   2.165   3.487   4.798 -0.9621 -1.3049 -0.5140
 5835TIP3   OH217510   1.836   3.037   1.208  0.0029  0.5802  0.0986
 5835TIP3    H117511   1.846   3.061   1.116 -0.2217 -0.7993 -0.3111
 5835TIP3    H217512   1.775   3.101   1.243  1.4290  2.2129 -0.2355
 5836TIP3   OH217513   5.180   2.497   1.124 -0.6081 -0.3819  1.0344
 5836TIP3    H117514   5.111   2.477   1.186  0.9343 -3.9646  1.8189
 5836TIP3    H217515   5.261   2.477   1.171  0.8521  0.9942 -0.7474
 5837TIP3   OH217516   6.346   1.718   0.896 -0.0627  0.2823 -0.1809
 5837TIP3    H117517   6.281   1.721   0.825 -0.3128 -1.7083 -0.0915
 5837TIP3    H217518   6.390   1.634   0.884  1.8117  1.1259  0.3982
 5838TIP3   OH217519   4.043   0.885   4.493  0.2496 -0.2689  0.4626
 5838TIP3    H117520   3.990   0.954   4.454  0.3961  1.0828  2.4583
 5838TIP3    H217521   4.134   0.913   4.477  0.3115 -0.2672  0.8073
 5839TIP3   OH217522   5.573   1.501   3.935 -0.1305  0.0400 -0.0825
 5839TIP3    H117523   5.583   1.450   4.015 -0.2716 -0.3393 -0.3057
 5839TIP3    H217524   5.562   1.436   3.866  0.3362  0.3517 -0.4601
 5840TIP3   OH217525   4.911   3.256   1.965  0.4258 -0.1481  0.5766
 5840TIP3    H117526   4.841   3.195   1.944  0.5391  0.3332 -1.4083
 5840TIP3    H217527   4.991   3.203   1.959  1.0467  0.7825 -5.6443
 5841TIP3   OH217528   3.391   4.053   3.696 -0.6398  0.4343  0.0075
 5841TIP3    H117529   3.482   4.057   3.667 -0.4348  1.3133  0.7106
 5841TIP3    H217530   3.363   4.145   3.699 -0.7778  0.3843  2.1079
 5842TIP3   OH217531   6.019   2.288   4.949 -0.1728  0.1324  0.2102
 5842TIP3    H117532   6.105   2.330   4.938 -0.0985  0.2934  1.3494
 5842TIP3    H217533   6.038   2.204   4.991 -0.4603 -0.4370 -0.7589
 5843TIP3   OH217534   5.122   5.822   4.349 -0.1348  0.0975  0.7743
 5843TIP3    H117535   5.195   5.882   4.364  0.0607 -0.4954  2.3769
 5843TIP3    H217536   5.046   5.866   4.388 -0.0120 -0.6118  1.8564
 5844TIP3   OH217537   6.086   1.566   3.193 -0.4297 -0.0149  0.5546
 5844TIP3    H117538   6.111   1.496   3.253 -1.3268 -0.0020  0.9770
 5844TIP3    H217539   6.055   1.521   3.115  3.4050 -0.0205 -1.1527
 5845TIP3   OH217540   0.565   1.838   3.794 -0.0349 -0.3476  0.5628
 5845TIP3    H117541   0.553   1.789   3.875 -1.5393  0.3975  0.8506
 5845TIP3    H217542   0.583   1.772   3.727  1.1022 -0.9796  1.4772
 5846TIP3   OH217543   4.733   0.448   0.181 -1.0157 -0.5875  0.3125
 5846TIP3    H117544   4.815   0.498   0.171 -0.9749 -0.1081  2.6336
 5846TIP3    H217545   4.673   0.489   0.119  0.5451 -1.1915 -1.7432
 5847TIP3   OH217546   1.804   3.322   2.661 -0.6831  0.6851 -0.0336
 5847TIP3    H117547   1.855   3.400   2.640  0.1859 -0.5628 -2.9829
 5847TIP3    H217548   1.834   3.256   2.600 -2.3100 -1.6390  1.5121
 5848TIP3   OH217549   0.134   3.020   4.089 -0.3743 -0.2951  0.6381
 5848TIP3    H117550   0.187   2.953   4.134 -0.5475  0.0778  1.4104
 5848TIP3    H217551   0.081   2.970   4.027 -0.3169 -0.8495  1.0233
 5849TIP3   OH217552   3.128   2.282   3.904 -0.0742  0.1929 -0.0502
 5849TIP3    H117553   3.108   2.372   3.882 -1.8720 -0.3314 -0.7026
 5849TIP3    H217554   3.112   2.276   3.998 -0.5420  0.4017 -0.1166
 5850TIP3   OH217555   0.826   4.683   4.733  0.8686  0.1552  0.3174
 5850TIP3    H117556   0.789   4.709   4.817  0.3159 -3.1251  1.2440
 5850TIP3    H217557   0.908   4.639   4.756  1.2374  0.1323 -0.9695
 5851TIP3   OH217558   3.907   2.000   0.434 -0.5692  0.2731 -0.2880
 5851TIP3    H117559   3.890   1.941   0.508  1.2493  0.7378  0.5627
 5851TIP3    H217560   3.843   1.974   0.368 -1.7854 -0.6418  1.1687
 5852TIP3   OH217561   3.712   4.255   3.841 -0.2127 -0.1726 -0.7252
 5852TIP3    H117562   3.636   4.260   3.899 -0.6179  0.6164 -1.3071
 5852TIP3    H217563   3.752   4.342   3.845  0.9324 -0.7066 -0.0880
 5853TIP3   OH217564   3.805   4.796   3.702 -0.3178 -0.0448  0.8177
 5853TIP3    H117565   3.830   4.731   3.637 -1.0543  0.1694  0.3035
 5853TIP3    H217566   3.776   4.872   3.650  3.1213  1.8172  1.3121
 5854TIP3   OH217567   2.410   0.078   4.462 -0.4305 -0.0308  0.2424
 5854TIP3    H117568   2.446   0.113   4.543  0.9054 -1.2177  0.2063
 5854TIP3    H217569   2.319   0.108   4.460 -0.1398  0.9885  1.5805
 5855TIP3   OH217570   6.197   2.207   1.271 -0.3067 -0.1432  0.5534
 5855TIP3    H117571   6.164   2.117   1.266  1.6215 -0.8374 -1.2782
 5855TIP3    H217572   6.227   2.226   1.182  2.6492  0.9470  1.6675
 5856TIP3   OH217573   2.953   3.898   2.944 -0.2803  0.2455 -0.4829
 5856TIP3    H117574   2.884   3.858   2.891 -1.0427  1.0705 -0.1462
 5856TIP3    H217575   3.026   3.911   2.884  0.2903 -2.3224 -0.4339
 5857TIP3   OH217576   0.622   2.453   4.522 -0.7210  0.5993  0.1561
 5857TIP3    H117577   0.684   2.473   4.452  0.3101  2.9145  1.6211
 5857TIP3    H217578   0.536   2.469   4.483 -0.3543 -0.6593 -1.2830
 5858TIP3   OH217579   4.045   3.940   3.139  0.7732  0.5805  0.0020
 5858TIP3    H117580   4.138   3.963   3.141  1.2293 -1.1226  0.2493
 5858TIP3    H217581   4.006   4.000   3.076  2.0455  1.3196 -0.1066
 5859TIP3   OH217582   1.054   3.762   2.785  0.0765 -0.2396 -0.3019
 5859TIP3    H117583   1.127   3.766   2.723  0.7610 -1.2090  0.4227
 5859TIP3    H217584   1.083   3.702   2.853 -0.7757  0.5860  0.8295
 5860TIP3   OH217585   2.573   0.625   2.262 -0.4100  0.5233 -1.0740
 5860TIP3    H117586   2.537   0.714   2.268 -0.2244  0.5102  0.7016
 5860TIP3    H217587   2.668   0.639   2.263 -0.3740  0.3154 -1.3690
 5861TIP3   OH217588   3.775   1.676   2.279 -0.7024  0.1926  0.2576
 5861TIP3    H117589   3.804   1.702   2.192 -0.4729  0.1247  0.3125
 5861TIP3    H217590   3.853   1.686   2.334 -1.3222  2.0781  0.8553
 5862TIP3   OH217591   4.225   2.386   4.416  0.1405  0.5131  0.0797
 5862TIP3    H117592   4.269   2.362   4.498 -0.1207  0.8693  0.3275
 5862TIP3    H217593   4.246   2.315   4.356 -1.6800 -1.0478  1.1721
 5863TIP3   OH217594   1.705   3.051   3.826  0.1471 -0.3068  0.1245
 5863TIP3    H117595   1.800   3.051   3.831  0.2027 -0.9036 -0.8894
 5863TIP3    H217596   1.683   3.132   3.780  0.0768  0.4978  1.5030
 5864TIP3   OH217597   4.689   4.176   4.270  0.1637 -0.2954 -0.0057
 5864TIP3    H117598   4.602   4.215   4.262  0.7850  0.8946 -1.4011
 5864TIP3    H217599   4.735   4.204   4.191  1.3042 -2.2494 -0.1056
 5865TIP3   OH217600   1.528   5.808   1.907 -0.0903  0.4626  0.4147
 5865TIP3    H117601   1.598   5.866   1.936  0.5831  0.4868 -1.1998
 5865TIP3    H217602   1.524   5.740   1.975 -0.0755  1.6917  1.6902
 5866TIP3   OH217603   5.342   0.443   1.946  0.4916  0.1622 -0.0357
 5866TIP3    H117604   5.302   0.426   2.032  0.4280  2.2367  0.3855
 5866TIP3    H217605   5.392   0.523   1.959 -0.0078  0.8461 -2.0991
 5867TIP3   OH217606   5.224   0.553   0.801  0.2195 -0.2363  0.1974
 5867TIP3    H117607   5.132   0.528   0.796  0.7571 -2.2289 -0.5410
 5867TIP3    H217608   5.258   0.507   0.877  0.5261  0.8655  0.7483
 5868TIP3   OH217609   2.842   0.680   2.260  0.8232  0.3202 -0.5365
 5868TIP3    H117610   2.841   0.670   2.165  1.0178  2.4005 -0.8019
 5868TIP3    H217611   2.930   0.650   2.286  1.2440  0.9450 -1.1863
 5869TIP3   OH217612   4.620   5.874   1.471  0.6493  0.2189  0.1907
 5869TIP3    H117613   4.615   5.847   1.563 -0.4450 -0.1720  0.0247
 5869TIP3    H217614   4.681   5.812   1.432  2.1543  1.1766  0.9057
 5870TIP3   OH217615   3.775   4.134   0.912  0.1944 -0.2776  0.8976
 5870TIP3    H117616   3.688   4.147   0.874  0.1584 -1.5836  0.4882
 5870TIP3    H217617   3.825   4.089   0.843  0.8282 -0.6156  1.5632
 5871TIP3   OH217618   2.160   2.893   3.653  0.2968  0.0178  1.1074
 5871TIP3    H117619   2.237   2.866   3.702  1.3919  0.8075 -0.0955
 5871TIP3    H217620   2.189   2.969   3.603 -0.8484 -0.5088 -0.4475
 5872TIP3   OH217621   4.394   5.720   0.278 -0.3069  0.6585  0.3175
 5872TIP3    H117622   4.486   5.693   0.286  0.0728  1.1615 -1.8005
 5872TIP3    H217623   4.344   5.647   0.314  0.8803 -0.5990 -0.4934
 5873TIP3   OH217624   5.766   5.742   1.614 -0.2287  0.3121 -0.0442
 5873TIP3    H117625   5.764   5.791   1.532  0.8986  2.0548  0.9209
 5873TIP3    H217626   5.685   5.689   1.612 -1.3614  1.9921 -1.2538
 5874TIP3   OH217627   3.169   3.799   0.568  0.0782 -0.3908 -0.2558
 5874TIP3    H117628   3.081   3.835   0.577  0.2693 -0.2208  1.1011
 5874TIP3    H217629   3.174   3.730   0.634  1.3632  0.4228  0.5318
 5875TIP3   OH217630   3.380   5.456   2.559 -0.6518  0.3626  0.5842
 5875TIP3    H117631   3.309   5.396   2.581  0.4067 -0.8368  0.8516
 5875TIP3    H217632   3.386   5.452   2.463  0.3062 -1.0518  0.6834
 5876TIP3   OH217633   3.302   2.271   4.339  0.0062  0.2688  0.1446
 5876TIP3    H117634   3.288   2.355   4.382 -1.2557 -0.2356  0.7623
 5876TIP3    H217635   3.343   2.293   4.255  1.3430  1.3589  1.0487
 5877TIP3   OH217636   3.101   4.198   1.977  0.0926 -0.0277 -0.4093
 5877TIP3    H117637   3.176   4.252   2.001 -0.6241  0.5558  0.6168
 5877TIP3    H217638   3.025   4.253   1.997 -0.6811 -1.4992  0.9357
 5878TIP3   OH217639   3.192   1.721   1.875  0.4916 -0.5373 -0.2853
 5878TIP3    H117640   3.268   1.776   1.856  1.9808 -2.6867 -0.7898
 5878TIP3    H217641   3.208   1.684   1.961 -1.6637  1.5613  1.1610
 5879TIP3   OH217642   3.696   1.109   4.988  0.5845  0.2839  0.5557
 5879TIP3    H117643   3.628   1.096   5.054  0.6201  0.7410  0.6843
 5879TIP3    H217644   3.777   1.080   5.030  0.6154  0.6241  0.7332
 5880TIP3   OH217645   3.865   0.988   0.146  0.6514 -0.6378  0.1258
 5880TIP3    H117646   3.894   1.067   0.100 -1.2753 -0.8252 -1.5325
 5880TIP3    H217647   3.883   1.006   0.239 -1.6496  2.6774  0.0824
 5881TIP3   OH217648   3.968   1.900   4.668  0.1926 -0.3591 -0.2174
 5881TIP3    H117649   4.026   1.828   4.691  0.2885  0.0347  0.7889
 5881TIP3    H217650   3.941   1.938   4.752  0.2719  0.8821 -0.7270
 5882TIP3   OH217651   0.148   1.374   0.084  0.7285 -0.0736 -0.2383
 5882TIP3    H117652   0.054   1.389   0.073  0.9463  0.5202 -1.5544
 5882TIP3    H217653   0.183   1.378  -0.005  1.8875 -1.1619  0.1358
 5883TIP3   OH217654   4.759   2.380   0.397 -0.3769 -0.6999  0.8214
 5883TIP3    H117655   4.703   2.360   0.321 -1.8602 -1.7714  2.1413
 5883TIP3    H217656   4.703   2.433   0.454  0.3519 -0.8050  1.6526
 5884TIP3   OH217657   0.300   0.532   4.628 -0.8433 -0.0542 -0.0175
 5884TIP3    H117658   0.236   0.602   4.623 -0.5766  0.3227  1.2733
 5884TIP3    H217659   0.376   0.565   4.581 -1.0061  0.1843 -0.1135
 5885TIP3   OH217660   1.133   2.941   3.698 -0.4667 -0.4266 -0.2533
 5885TIP3    H117661   1.076   3.005   3.655 -1.3959  0.4046  2.0375
 5885TIP3    H217662   1.156   2.982   3.782  1.0325 -2.0405  0.1744
 5886TIP3   OH217663   2.242   2.966   1.270 -0.2764 -0.3202 -0.4671
 5886TIP3    H117664   2.201   2.926   1.193 -1.6162  0.2189 -0.0610
 5886TIP3    H217665   2.247   2.896   1.334 -1.0463 -0.2698 -0.3477
 5887TIP3   OH217666   4.568   3.244   2.903 -0.4063  0.2929 -0.0369
 5887TIP3    H117667   4.618   3.194   2.839  0.9090  1.0490  0.3723
 5887TIP3    H217668   4.522   3.310   2.850 -1.7839 -0.9814 -0.5222
 5888TIP3   OH217669   3.765   3.860   1.073 -0.3182 -0.1024 -0.4950
 5888TIP3    H117670   3.791   3.922   1.005 -0.3883  0.6116  0.1150
 5888TIP3    H217671   3.678   3.829   1.046 -0.2626  0.0358 -0.8289
 5889TIP3   OH217672   2.885   1.939   1.988 -0.3611  0.0339  0.8442
 5889TIP3    H117673   2.839   2.023   1.988  0.5919  0.6560 -1.6501
 5889TIP3    H217674   2.965   1.956   2.038  0.2059  0.8901 -0.3051
 5890TIP3   OH217675   3.418   4.753   2.210  0.5512  0.2854  0.0509
 5890TIP3    H117676   3.500   4.705   2.199 -0.0895 -1.0167  0.7133
 5890TIP3    H217677   3.351   4.691   2.183 -0.2327  1.3176 -0.4263
 5891TIP3   OH217678   5.597   3.240   2.335 -0.4869 -0.0883  0.2596
 5891TIP3    H117679   5.580   3.147   2.323 -1.5241  0.0529  0.5766
 5891TIP3    H217680   5.625   3.248   2.426  0.4542 -0.1924 -0.0047
 5892TIP3   OH217681   1.601   2.650   4.121 -0.5550 -0.7539 -0.1613
 5892TIP3    H117682   1.535   2.605   4.174  0.4364 -1.5183  0.4413
 5892TIP3    H217683   1.552   2.719   4.077 -1.1649  0.9517  2.9314
 5893TIP3   OH217684   4.067   5.830   2.732  0.1516 -0.2231  0.0137
 5893TIP3    H117685   4.102   5.740   2.735  1.9996  0.4345 -0.1620
 5893TIP3    H217686   4.040   5.841   2.641 -0.9384 -0.8753  0.2393
 5894TIP3   OH217687   3.582   3.669   1.513  0.2178 -0.3370 -0.3788
 5894TIP3    H117688   3.604   3.662   1.606 -1.3997  0.8002  0.1336
 5894TIP3    H217689   3.521   3.597   1.497  0.2514 -0.3423 -0.4883
 5895TIP3   OH217690   4.707   4.225   4.636 -0.0565 -0.0099 -0.5717
 5895TIP3    H117691   4.767   4.219   4.561  0.8711 -1.3638  0.2324
 5895TIP3    H217692   4.626   4.261   4.599  1.1330  1.5930 -1.7522
 5896TIP3   OH217693   2.877   1.320   1.623  0.3165  0.2038  0.3450
 5896TIP3    H117694   2.972   1.315   1.610  0.2510  0.3219 -0.1911
 5896TIP3    H217695   2.848   1.388   1.562 -0.2469 -0.5040 -0.1949
 5897TIP3   OH217696   0.063   5.380   4.479  0.3790  0.8954 -0.4941
 5897TIP3    H117697  -0.007   5.325   4.515  1.0046 -0.7493 -1.6724
 5897TIP3    H217698   0.107   5.324   4.415  1.9342  2.3382 -0.7537
 5898TIP3   OH217699   5.723   4.972   4.875  0.4372  0.0765  0.2249
 5898TIP3    H117700   5.729   4.902   4.939 -0.9526 -1.5699 -1.3579
 5898TIP3    H217701   5.652   5.028   4.907  2.7409  1.9683  2.4807
 5899TIP3   OH217702   1.796   0.821   0.908 -0.6923  0.1498 -0.9831
 5899TIP3    H117703   1.712   0.838   0.952 -1.9675 -0.5547 -3.0085
 5899TIP3    H217704   1.822   0.906   0.873 -0.1650  0.5125  0.2317
 5900TIP3   OH217705   2.221   0.430   1.921  0.4052 -0.8311  0.1179
 5900TIP3    H117706   2.240   0.337   1.932 -2.1752 -1.2304  1.9810
 5900TIP3    H217707   2.152   0.432   1.855  1.5954 -0.0268 -1.1694
 5901TIP3   OH217708   2.574   1.386   4.614  0.0868 -0.0511  0.4311
 5901TIP3    H117709   2.599   1.478   4.613  3.5750 -0.8813  0.3395
 5901TIP3    H217710   2.640   1.343   4.668 -0.9764 -2.6495 -0.1582
 5902TIP3   OH217711   0.795   2.090   2.582 -0.3801 -0.0247  0.1125
 5902TIP3    H117712   0.746   2.031   2.640  0.4450  0.3680  1.2404
 5902TIP3    H217713   0.886   2.081   2.609 -0.3932  3.0922  1.6301
 5903TIP3   OH217714   0.604   0.910   4.760  0.6277 -0.3096 -0.3512
 5903TIP3    H117715   0.561   0.995   4.762 -0.1941 -0.5979 -2.7152
 5903TIP3    H217716   0.616   0.891   4.667 -1.5056 -3.8415 -0.1179
 5904TIP3   OH217717   0.885   5.608   2.967  0.0028 -0.0480 -0.1392
 5904TIP3    H117718   0.952   5.666   3.002  0.3289 -0.1018 -0.6768
 5904TIP3    H217719   0.837   5.578   3.045  0.3166  0.3289  0.2065
 5905TIP3   OH217720   5.769   3.971   1.236  0.3764  0.4515  0.7051
 5905TIP3    H117721   5.819   3.949   1.314 -0.8411 -0.9392  1.1443
 5905TIP3    H217722   5.741   3.887   1.201  0.2313  1.0882 -0.7987
 5906TIP3   OH217723   6.190   2.555   1.160 -0.2489 -0.3546 -1.0029
 5906TIP3    H117724   6.139   2.486   1.118 -1.3271 -0.8633  1.0096
 5906TIP3    H217725   6.235   2.511   1.232 -1.3770  1.0635  0.6695
 5907TIP3   OH217726   4.027   3.501   2.897  0.1611 -0.0332  0.2827
 5907TIP3    H117727   4.004   3.576   2.843  0.1518  0.2684  0.7049
 5907TIP3    H217728   4.074   3.538   2.971  2.6753 -0.6884 -0.9010
 5908TIP3   OH217729   1.779   1.510   1.388  0.6013 -0.0713  0.3263
 5908TIP3    H117730   1.788   1.461   1.307 -0.0422  0.8339 -0.3133
 5908TIP3    H217731   1.687   1.535   1.391  0.8138  0.6873  0.8736
 5909TIP3   OH217732   4.422   0.755   1.960 -0.5470 -0.1479 -0.6948
 5909TIP3    H117733   4.416   0.827   1.897 -1.0185 -0.3379 -0.8730
 5909TIP3    H217734   4.443   0.797   2.043 -0.0455  0.1176 -0.9545
 5910TIP3   OH217735   2.449   0.402   3.730  0.2069 -0.0217 -0.6612
 5910TIP3    H117736   2.447   0.350   3.650 -0.3664  0.9507 -1.3022
 5910TIP3    H217737   2.403   0.348   3.794  0.4371 -0.6949 -1.0511
 5911TIP3   OH217738   4.107   4.017   1.765  0.2554 -0.2535 -0.1685
 5911TIP3    H117739   4.158   4.069   1.827  0.5414  1.3409 -1.6996
 5911TIP3    H217740   4.170   3.953   1.730  0.1018 -1.1443  1.0857
 5912TIP3   OH217741   1.060   1.888   0.234  0.1214 -0.1660 -0.2588
 5912TIP3    H117742   1.042   1.856   0.323 -1.0978  2.1068  0.3793
 5912TIP3    H217743   1.063   1.983   0.243  3.2228  0.0580 -2.1216
 5913TIP3   OH217744   0.285   2.921   1.210  0.2903 -0.1195  0.4216
 5913TIP3    H117745   0.365   2.973   1.222  1.4170 -1.6708 -0.0117
 5913TIP3    H217746   0.247   2.954   1.129  0.2901  0.8887  0.8256
 5914TIP3   OH217747   0.174   4.358   0.525  0.2824 -0.3607  0.5125
 5914TIP3    H117748   0.188   4.265   0.540  1.3762 -0.3235 -0.1933
 5914TIP3    H217749   0.187   4.399   0.611 -0.8180 -0.9099  0.9528
 5915TIP3   OH217750   5.055   0.903   3.278 -0.4887  0.0699 -0.3277
 5915TIP3    H117751   5.077   0.955   3.200  0.4475 -0.1654 -0.2385
 5915TIP3    H217752   5.043   0.969   3.347 -0.0882  0.2162 -0.3932
 5916TIP3   OH217753   1.592   2.659   3.767  0.1967 -0.0849 -0.4709
 5916TIP3    H117754   1.550   2.741   3.740 -0.8908 -0.6173 -0.4571
 5916TIP3    H217755   1.655   2.685   3.834  0.4874  0.8386 -1.0782
 5917TIP3   OH217756   0.963   4.496   4.964 -0.2331 -0.3622 -0.0196
 5917TIP3    H117757   0.877   4.499   4.923  0.5682 -0.1831 -1.7682
 5917TIP3    H217758   1.013   4.566   4.921  0.9085 -0.7257  0.6707
 5918TIP3   OH217759   2.250   3.774   3.768  0.0466 -0.5200  0.0044
 5918TIP3    H117760   2.168   3.788   3.816  0.8033 -2.0043  1.8700
 5918TIP3    H217761   2.319   3.802   3.828  0.9811 -1.0212 -0.7965
 5919TIP3   OH217762   5.297   1.777   0.444  0.0452 -0.5780 -0.1247
 5919TIP3    H117763   5.340   1.828   0.513 -0.6819  0.3183 -0.3159
 5919TIP3    H217764   5.332   1.812   0.362 -1.0831  0.2401 -0.2888
 5920TIP3   OH217765   3.376   2.554   4.126 -0.0948  0.2121 -0.3216
 5920TIP3    H117766   3.300   2.528   4.178 -0.1375 -0.6516 -0.7889
 5920TIP3    H217767   3.415   2.627   4.174 -2.5363  2.2852 -1.2633
 5921TIP3   OH217768   2.517   2.822   3.037  0.3586  0.1542 -0.8607
 5921TIP3    H117769   2.505   2.774   2.955  4.7435  1.5079 -2.5800
 5921TIP3    H217770   2.496   2.913   3.016 -0.2524  0.2696  0.1359
 5922TIP3   OH217771   2.359   4.513   0.319  0.5516  0.4160  0.4072
 5922TIP3    H117772   2.365   4.419   0.303 -1.8049 -0.1680  2.5053
 5922TIP3    H217773   2.301   4.545   0.249  1.2591  0.3282 -0.2371
 5923TIP3   OH217774   3.410   2.886   3.262  0.0065 -0.0545  0.2028
 5923TIP3    H117775   3.340   2.856   3.320  0.1583  0.2154  0.5251
 5923TIP3    H217776   3.482   2.826   3.277 -0.1951 -0.4110 -0.2232
 5924TIP3   OH217777   0.890   1.078   3.224  0.9721 -0.6406  0.2041
 5924TIP3    H117778   0.878   1.153   3.166  1.7531  2.0648  3.1893
 5924TIP3    H217779   0.801   1.046   3.240  0.5576  0.0216 -0.6982
 5925TIP3   OH217780   0.212   4.274   3.235 -0.4057  0.6319  0.5165
 5925TIP3    H117781   0.211   4.179   3.218  0.0849  0.5924  0.6859
 5925TIP3    H217782   0.147   4.310   3.174 -1.6981  0.0267  1.4782
 5926TIP3   OH217783   4.556   0.093   2.572 -0.2265 -0.2878  0.1491
 5926TIP3    H117784   4.579   0.000   2.575 -0.5170 -0.4608 -1.7486
 5926TIP3    H217785   4.473   0.096   2.525  0.7088  1.0447 -1.5281
 5927TIP3   OH217786   2.880   2.507   1.121  0.0677  0.0152 -0.1992
 5927TIP3    H117787   2.886   2.541   1.032 -1.5375  0.5859 -0.1320
 5927TIP3    H217788   2.833   2.424   1.111  1.6091 -0.8942 -0.0738
 5928TIP3   OH217789   0.101   4.046   3.772  0.1776  0.2982  0.2751
 5928TIP3    H117790   0.095   4.139   3.795 -1.5875  0.4648 -0.6200
 5928TIP3    H217791   0.068   4.000   3.850 -2.0445  0.6441 -0.3937
 5929TIP3   OH217792   5.927   0.401   4.658 -0.0945  0.1193 -0.2831
 5929TIP3    H117793   5.952   0.370   4.745  0.6476 -0.4560 -0.6916
 5929TIP3    H217794   5.867   0.334   4.626 -1.9895  1.3215  0.5551
 5930TIP3   OH217795   1.896   1.589   4.280  0.4896 -0.6631 -0.1681
 5930TIP3    H117796   1.802   1.587   4.263 -0.3434  0.2743  3.4953
 5930TIP3    H217797   1.925   1.500   4.259 -1.3779 -1.2621 -0.4826
 5931TIP3   OH217798   4.070   1.772   4.212 -0.1506 -0.1291 -0.2885
 5931TIP3    H117799   3.986   1.738   4.242 -0.2736 -0.0869 -0.5825
 5931TIP3    H217800   4.053   1.805   4.124  0.4290 -1.1855 -0.8194
 5932TIP3   OH217801   5.382   5.352   0.864  0.0360  0.2835  0.2623
 5932TIP3    H117802   5.477   5.340   0.862  0.1911  1.4215  0.6374
 5932TIP3    H217803   5.360   5.375   0.774  0.2619  1.0624  0.4005
 5933TIP3   OH217804   2.494   2.361   2.804 -0.4282  0.0945  0.4524
 5933TIP3    H117805   2.399   2.356   2.808 -0.4418  0.0075  0.0342
 5933TIP3    H217806   2.522   2.273   2.778 -0.1614 -0.2396  1.7881
 5934TIP3   OH217807   5.788   2.004   3.862  0.1563 -0.0083  0.2253
 5934TIP3    H117808   5.720   2.069   3.879 -0.3824 -0.6107  0.4478
 5934TIP3    H217809   5.766   1.968   3.776 -0.3793 -0.8633  0.6954
 5935TIP3   OH217810   2.669   2.206   4.741 -0.3018  0.1198  0.3234
 5935TIP3    H117811   2.723   2.262   4.685  1.0970 -1.7839 -0.3429
 5935TIP3    H217812   2.718   2.200   4.823 -0.4754 -0.0842  0.4140
 5936TIP3   OH217813   5.633   0.900   2.655  0.3253  0.2431 -0.5579
 5936TIP3    H117814   5.673   0.818   2.626  0.9698  0.0732  0.7288
 5936TIP3    H217815   5.611   0.884   2.747 -0.2558  1.2563 -0.5090
 5937TIP3   OH217816   4.508   1.335   2.603  0.1811  0.4312  0.8252
 5937TIP3    H117817   4.429   1.312   2.553  2.4126 -1.5773 -2.1158
 5937TIP3    H217818   4.475   1.360   2.689 -3.8536  2.4633 -1.0153
 5938TIP3   OH217819   1.405   4.787   4.310 -0.2889 -0.1128  0.4446
 5938TIP3    H117820   1.471   4.780   4.380  1.8527 -3.4105 -1.5926
 5938TIP3    H217821   1.338   4.724   4.334 -0.5115  0.1177  0.4284
 5939TIP3   OH217822   3.483   3.195   1.664  0.0524 -0.6270  0.0243
 5939TIP3    H117823   3.559   3.137   1.655 -0.6099 -1.4672 -0.2504
 5939TIP3    H217824   3.476   3.210   1.758  1.1581  0.2919 -0.0100
 5940TIP3   OH217825   2.166   5.041   3.343 -0.6141  0.0831  0.0063
 5940TIP3    H117826   2.102   5.075   3.280  0.5885 -0.5250 -1.6368
 5940TIP3    H217827   2.239   5.010   3.288 -0.5241 -2.7398  1.5103
 5941TIP3   OH217828   0.505   0.168   4.542 -0.3687 -0.7990 -0.4352
 5941TIP3    H117829   0.539   0.204   4.624 -0.8945  1.7500 -1.2324
 5941TIP3    H217830   0.472   0.081   4.565  1.8544 -1.2486  1.4573
 5942TIP3   OH217831   5.036   1.013   2.252 -0.0963  0.4120  0.2575
 5942TIP3    H117832   5.115   1.050   2.211 -0.8402  2.0143  0.1607
 5942TIP3    H217833   4.974   1.086   2.251 -1.8246 -1.0196 -0.3242
 5943TIP3   OH217834   4.421   2.814   2.656  0.5523  0.2100 -0.1969
 5943TIP3    H117835   4.328   2.815   2.677  0.8845  0.6507  1.3615
 5943TIP3    H217836   4.430   2.745   2.590 -0.7697 -0.3008  0.1373
 5944TIP3   OH217837   0.179   1.794   5.003  0.2943 -0.0082 -0.3342
 5944TIP3    H117838   0.239   1.860   4.969 -0.4337  0.3853 -0.8759
 5944TIP3    H217839   0.236   1.729   5.044  1.0568  0.6056 -0.3984
 5945TIP3   OH217840   3.137   1.638   1.578 -0.1376 -0.1419 -0.0007
 5945TIP3    H117841   3.083   1.689   1.638 -0.5968  0.1914 -0.6859
 5945TIP3    H217842   3.137   1.549   1.615  0.8702  0.3777  1.3370
 5946TIP3   OH217843   3.888   4.490   0.905 -0.9297 -0.4961 -0.4609
 5946TIP3    H117844   3.934   4.442   0.836  0.0341 -0.6281  0.2581
 5946TIP3    H217845   3.955   4.544   0.946 -1.3400 -0.9333  0.8213
 5947TIP3   OH217846   1.340   0.359   4.730  0.4406 -0.5346  0.1992
 5947TIP3    H117847   1.341   0.263   4.733 -0.3343 -0.5213  2.2149
 5947TIP3    H217848   1.432   0.384   4.736  0.5831 -1.1624  0.8019
 5948TIP3   OH217849   3.757   5.293   0.173 -0.3071 -0.0324  0.0655
 5948TIP3    H117850   3.826   5.353   0.143 -1.0013  0.9175  0.3056
 5948TIP3    H217851   3.804   5.216   0.204  0.7038  0.8703  0.8633
 5949TIP3   OH217852   4.785   1.622   1.910  0.5336  0.3373 -0.2076
 5949TIP3    H117853   4.821   1.698   1.957  0.5124  1.4794 -1.9391
 5949TIP3    H217854   4.862   1.572   1.883  0.5339 -0.5234  1.2912
 5950TIP3   OH217855   0.194   4.078   2.923 -0.2258  0.3675  0.1719
 5950TIP3    H117856   0.188   4.059   3.017 -0.8100  0.6082  0.1933
 5950TIP3    H217857   0.157   4.000   2.880 -0.4947  0.4943  0.1691
 5951TIP3   OH217858   4.657   4.276   1.543 -0.6610  0.7663  0.3139
 5951TIP3    H117859   4.715   4.223   1.597 -0.5491  0.0030 -0.5154
 5951TIP3    H217860   4.713   4.344   1.507 -0.7665  1.3645  1.2503
 5952TIP3   OH217861   3.824   1.012   4.180  0.6854 -0.6364 -0.5691
 5952TIP3    H117862   3.807   1.019   4.086 -0.3042  0.3724 -0.3482
 5952TIP3    H217863   3.801   0.922   4.203 -0.4026 -0.5016 -1.0657
 5953TIP3   OH217864   2.954   1.380   0.910 -0.2500 -0.3732 -0.0240
 5953TIP3    H117865   2.989   1.465   0.935  0.8514 -1.0980  1.0525
 5953TIP3    H217866   2.880   1.366   0.970 -0.1179 -0.3884  0.1352
 5954TIP3   OH217867   2.757   0.295   2.471 -0.0999 -0.2696 -0.2931
 5954TIP3    H117868   2.811   0.298   2.392  1.4848  0.1757  0.7626
 5954TIP3    H217869   2.749   0.202   2.491 -0.6462 -0.3940 -1.0488
 5955TIP3   OH217870   1.756   5.509   1.754 -0.1830 -0.1225 -0.1162
 5955TIP3    H117871   1.779   5.526   1.845 -0.1198 -1.2328  0.0857
 5955TIP3    H217872   1.663   5.530   1.748  0.2317  1.9185 -0.3153
 5956TIP3   OH217873   5.750   3.541   4.698 -0.6847  0.2410  0.1614
 5956TIP3    H117874   5.784   3.619   4.654  1.2776 -0.2535  0.7073
 5956TIP3    H217875   5.751   3.474   4.630 -2.3839  0.6448 -0.3112
 5957TIP3   OH217876   1.740   3.646   2.577  0.7085  0.7001 -0.0308
 5957TIP3    H117877   1.704   3.625   2.663 -1.4833  0.3690 -0.9522
 5957TIP3    H217878   1.814   3.587   2.566  0.6812  0.3679  1.4024
 5958TIP3   OH217879   6.011   4.093   0.489  0.3780  0.2009  0.3511
 5958TIP3    H117880   6.040   4.002   0.498  1.0636  0.2120 -1.3872
 5958TIP3    H217881   5.929   4.087   0.441 -1.3063  0.3497  3.0148
 5959TIP3   OH217882   0.698   3.289   3.175 -0.5180 -0.3322 -0.0337
 5959TIP3    H117883   0.684   3.360   3.112 -2.6064  0.3424  1.0878
 5959TIP3    H217884   0.615   3.241   3.176 -0.0839 -1.1094  1.2385
 5960TIP3   OH217885   0.206   5.707   1.344 -0.0457 -0.3942  0.1977
 5960TIP3    H117886   0.137   5.711   1.411 -0.2954 -2.8394  0.1880
 5960TIP3    H217887   0.287   5.698   1.394  0.3105  1.9648  0.1917
 5961TIP3   OH217888   0.529   4.504   5.090  0.5794  0.1405  0.2679
 5961TIP3    H117889   0.603   4.552   5.053 -0.2968  1.1630 -0.2158
 5961TIP3    H217890   0.563   4.464   5.170  2.6086 -2.3786 -1.6905
 5962TIP3   OH217891   0.022   5.925   1.757 -0.5998 -0.2180 -0.0212
 5962TIP3    H117892   0.037   5.931   1.852 -0.8006 -1.1400  0.0849
 5962TIP3    H217893   0.018   6.016   1.727  1.0334  0.0778  0.5931
 5963TIP3   OH217894   3.431   2.977   4.498  0.0096  0.5693 -0.3021
 5963TIP3    H117895   3.460   2.993   4.587  0.1064  1.3556 -0.4662
 5963TIP3    H217896   3.356   2.918   4.507  1.5656 -1.4509  0.1295
 5964TIP3   OH217897   0.701   0.368   4.156 -0.1358 -0.2531 -0.3089
 5964TIP3    H117898   0.784   0.403   4.188  0.1812 -0.1190 -1.2418
 5964TIP3    H217899   0.713   0.361   4.061  0.0391 -3.4031 -0.1841
 5965TIP3   OH217900   2.262   4.546   4.621  0.1165 -0.0956 -0.2447
 5965TIP3    H117901   2.352   4.519   4.603  0.0362 -0.2192 -0.4582
 5965TIP3    H217902   2.270   4.603   4.698  0.3433 -0.3333 -0.0879
 5966TIP3   OH217903   1.405   3.405   2.219 -0.1907 -0.0551  0.1792
 5966TIP3    H117904   1.458   3.485   2.220 -0.7500  0.3231  1.1248
 5966TIP3    H217905   1.454   3.345   2.275  0.9533 -0.8910 -1.6414
 5967TIP3   OH217906   2.574   2.190   0.700 -0.1540  0.3007  0.0254
 5967TIP3    H117907   2.653   2.188   0.647  0.6392 -2.0112  1.1533
 5967TIP3    H217908   2.569   2.279   0.734  1.2871  0.8073 -1.0300
 5968TIP3   OH217909   5.005   1.438   3.392  0.3862  0.4581 -0.0949
 5968TIP3    H117910   4.944   1.424   3.464 -0.4925  0.5566 -0.8139
 5968TIP3    H217911   4.964   1.505   3.338  1.4935  1.0939 -0.1792
 5969TIP3   OH217912   4.977   3.903   2.393  0.2619 -0.6462  0.2151
 5969TIP3    H117913   4.958   3.810   2.383  0.3607 -0.8588  1.7133
 5969TIP3    H217914   5.072   3.908   2.402  0.2564 -0.4081  0.1561
 5970TIP3   OH217915   2.433   5.032   4.798  0.1975  0.0456 -0.5304
 5970TIP3    H117916   2.353   5.017   4.749  0.7766 -1.9791 -0.9385
 5970TIP3    H217917   2.414   5.001   4.886  0.6446 -0.8328 -0.7357
 5971TIP3   OH217918   0.579   1.519   1.565 -0.5058 -0.4655  0.4310
 5971TIP3    H117919   0.612   1.450   1.623  0.4507 -1.5382 -1.2916
 5971TIP3    H217920   0.502   1.553   1.610 -0.6969 -2.2838  1.6125
 5972TIP3   OH217921   3.445   2.776   0.744  0.4710  0.1067 -0.0681
 5972TIP3    H117922   3.495   2.703   0.780 -0.8628 -1.7366 -1.7646
 5972TIP3    H217923   3.467   2.776   0.651  0.4376  1.9174 -0.1036
 5973TIP3   OH217924   2.155   1.658   1.781  0.3940  0.0255  0.9072
 5973TIP3    H117925   2.173   1.752   1.770  0.1725  0.2002  1.9534
 5973TIP3    H217926   2.223   1.628   1.841  2.0415 -1.0602 -1.3378
 5974TIP3   OH217927   4.703   1.228   4.306 -0.6804 -0.3387  0.1896
 5974TIP3    H117928   4.632   1.247   4.367 -0.2145  2.0994  0.0806
 5974TIP3    H217929   4.783   1.238   4.358 -0.2949  1.3784 -0.6506
 5975TIP3   OH217930   5.544   5.123   1.193  0.3339 -0.1817  0.1392
 5975TIP3    H117931   5.628   5.077   1.197  0.7654  0.5880  0.0135
 5975TIP3    H217932   5.567   5.216   1.198 -0.4769  0.0567 -0.4235
 5976TIP3   OH217933   4.041   5.905   2.462  0.4475  0.2717  0.1652
 5976TIP3    H117934   4.112   5.902   2.398 -0.2458  0.6310 -0.6423
 5976TIP3    H217935   4.020   5.998   2.470 -0.6565  0.0850 -0.4295
 5977TIP3   OH217936   6.160   3.104   1.454  0.2031 -0.5380 -0.3941
 5977TIP3    H117937   6.190   3.188   1.419 -1.0387 -0.7419 -2.0859
 5977TIP3    H217938   6.204   3.038   1.400  1.2297 -1.0182  0.9695
 5978TIP3   OH217939   3.130   3.715   1.306 -0.4227  0.1039  0.0088
 5978TIP3    H117940   3.190   3.745   1.374  1.6844 -1.2451 -1.1636
 5978TIP3    H217941   3.055   3.680   1.355 -0.1994  1.5805  1.5224
 5979TIP3   OH217942   4.394   1.280   5.054  0.2911  0.5340 -0.2715
 5979TIP3    H117943   4.439   1.196   5.054  0.6411  0.6791  1.8920
 5979TIP3    H217944   4.302   1.258   5.042  0.4000 -0.1357  0.0968
 5980TIP3   OH217945   2.965   3.982   1.020 -0.5100  0.3389 -0.3830
 5980TIP3    H117946   2.907   3.931   1.077 -0.1301 -1.7780 -1.7764
 5980TIP3    H217947   3.053   3.956   1.046 -0.2833  0.6956 -0.7741
 5981TIP3   OH217948   2.912   5.475   0.488  0.5292 -0.6799 -0.3665
 5981TIP3    H117949   2.893   5.382   0.501  0.4974 -0.5196  0.8257
 5981TIP3    H217950   2.832   5.510   0.449  0.4935 -1.1189 -0.7052
 5982TIP3   OH217951   4.582   1.044   1.507  0.1946  0.0086 -0.5609
 5982TIP3    H117952   4.669   1.035   1.547 -0.4771 -0.8631  0.7409
 5982TIP3    H217953   4.553   1.131   1.533 -0.5800 -0.8473  1.6313
 5983TIP3   OH217954   5.294   2.192   1.870 -0.1539 -0.6301 -0.4043
 5983TIP3    H117955   5.384   2.158   1.876 -0.2605 -1.0067 -0.8752
 5983TIP3    H217956   5.259   2.183   1.959  1.2207  2.2318  0.5299
 5984TIP3   OH217957   4.502   2.143   4.384  0.2355  0.3590  0.5801
 5984TIP3    H117958   4.423   2.105   4.346 -0.1260  0.3472  1.3373
 5984TIP3    H217959   4.520   2.221   4.331  0.0961 -0.0054 -0.0026
 5985TIP3   OH217960   1.213   3.788   3.357 -1.1098 -0.2424  0.2443
 5985TIP3    H117961   1.139   3.732   3.336 -0.3708 -1.0974 -0.1800
 5985TIP3    H217962   1.200   3.813   3.449 -1.5537 -0.9550  0.3782
 5986TIP3   OH217963   1.783   3.514   2.028  0.0138 -0.4506  0.6057
 5986TIP3    H117964   1.697   3.555   2.030 -0.2948 -1.1213  1.6076
 5986TIP3    H217965   1.802   3.493   2.120  0.4077 -2.0457  0.1779
 5987TIP3   OH217966   2.409   3.755   2.601  0.2241  0.5091  0.9998
 5987TIP3    H117967   2.436   3.833   2.554 -1.4951  1.0157  0.7732
 5987TIP3    H217968   2.448   3.682   2.553 -1.2963  1.0160 -1.1622
 5988TIP3   OH217969   5.967   5.219   3.631  0.6336  0.5180  0.5363
 5988TIP3    H117970   6.037   5.188   3.573 -1.0021 -0.0605 -1.2155
 5988TIP3    H217971   5.953   5.310   3.605 -0.2928  0.1755 -0.2082
 5989TIP3   OH217972   5.641   1.785   4.055 -0.0952 -0.6601 -0.1241
 5989TIP3    H117973   5.716   1.773   4.113  0.5349 -0.9460 -0.9851
 5989TIP3    H217974   5.606   1.871   4.080  0.2090 -0.7469  0.6266
 5990TIP3   OH217975   2.008   5.457   2.033  0.3449  0.6460  0.3486
 5990TIP3    H117976   2.037   5.453   1.942 -0.8633  1.8553 -0.1236
 5990TIP3    H217977   2.036   5.543   2.064  0.6606  0.2809  1.0962
 5991TIP3   OH217978   1.172   3.716   4.084 -0.1356 -0.5910  0.3531
 5991TIP3    H117979   1.182   3.622   4.100  0.8030 -0.8584 -1.4875
 5991TIP3    H217980   1.091   3.740   4.129 -0.5106 -2.3281  0.6680
 5992TIP3   OH217981   1.253   5.651   0.771  0.0711 -0.1085 -0.1629
 5992TIP3    H117982   1.246   5.562   0.806  0.5603 -0.2715 -0.4814
 5992TIP3    H217983   1.178   5.697   0.810  1.5793  0.2226  2.5924
 5993TIP3   OH217984   4.836   4.450   4.344  0.3237  0.0092 -0.1554
 5993TIP3    H117985   4.897   4.513   4.382  2.3386  0.3931 -3.5522
 5993TIP3    H217986   4.884   4.367   4.347 -1.4821 -1.0478  2.4045
 5994TIP3   OH217987   0.325   2.333   3.856  0.0574  0.3329  0.2819
 5994TIP3    H117988   0.364   2.260   3.807 -0.1688 -0.0073  0.6029
 5994TIP3    H217989   0.329   2.305   3.947  0.2725  0.8701  0.4392
 5995TIP3   OH217990   3.613   3.282   0.539 -0.5249  0.2784 -0.3278
 5995TIP3    H117991   3.564   3.365   0.543  2.0542  2.0358 -2.0030
 5995TIP3    H217992   3.666   3.282   0.619 -1.0406 -0.1357  0.0197
 5996TIP3   OH217993   2.016   3.896   3.624 -0.8598  0.3063 -0.1991
 5996TIP3    H117994   1.988   3.968   3.566 -0.8483 -0.3283 -1.0163
 5996TIP3    H217995   2.082   3.849   3.573 -1.0381 -0.4212  0.2315
 5997TIP3   OH217996   5.684   1.446   2.499 -0.2539  0.2311 -0.0523
 5997TIP3    H117997   5.705   1.432   2.407 -2.0898  0.4769 -0.5554
 5997TIP3    H217998   5.612   1.384   2.517  1.6543 -1.5819  1.9266
 5998TIP3   OH217999   2.099   0.685   4.146 -0.0248 -0.5323 -0.2264
 5998TIP3    H118000   2.059   0.641   4.221  0.2687  1.1683  0.9916
 5998TIP3    H218001   2.030   0.688   4.080 -0.1152 -2.5649 -0.2859
 5999TIP3   OH218002   2.710   3.688   4.228 -0.1008 -0.5282  0.1868
 5999TIP3    H118003   2.726   3.669   4.136  0.2849 -2.2865  0.5859
 5999TIP3    H218004   2.698   3.603   4.269 -0.3379  0.2186  1.7639
 6000TIP3   OH218005   4.116   2.018   0.123  0.3995 -0.1638  0.3321
 6000TIP3    H118006   4.049   2.081   0.096 -0.3699 -0.1437  2.1696
 6000TIP3    H218007   4.067   1.938   0.142  1.3815 -1.4773 -2.1999
 6001TIP3   OH218008   1.006   3.914   3.741 -0.0137 -0.2838 -0.9604
 6001TIP3    H118009   0.920   3.887   3.775 -1.0330 -0.0630 -3.2008
 6001TIP3    H218010   1.057   3.935   3.820 -1.4839 -1.8795  0.5058
 6002TIP3   OH218011   3.747   0.201   1.820 -0.5711  0.0810  0.3110
 6002TIP3    H118012   3.695   0.243   1.751 -0.7593  0.8855  0.9198
 6002TIP3    H218013   3.812   0.268   1.845  1.3012 -1.1559 -0.9688
 6003TIP3   OH218014   5.210   5.255   2.419 -0.3585  0.0741 -0.5521
 6003TIP3    H118015   5.281   5.193   2.434 -0.2241 -0.0897 -1.7710
 6003TIP3    H218016   5.160   5.254   2.500 -0.8662 -2.2897 -0.8357
 6004TIP3   OH218017   5.756   4.193   2.779  0.0397  0.0540  0.1725
 6004TIP3    H118018   5.809   4.193   2.699  0.5442  2.2310  0.4403
 6004TIP3    H218019   5.732   4.101   2.792  2.0126 -0.7142 -1.1056
 6005TIP3   OH218020   1.791   2.523   0.095 -0.0809  0.0749  0.0644
 6005TIP3    H118021   1.885   2.507   0.084 -0.3198 -0.3833 -1.4503
 6005TIP3    H218022   1.749   2.464   0.033 -1.2021  2.6759 -1.8633
 6006TIP3   OH218023   5.724   3.392   3.236 -0.1645  0.1107 -0.0392
 6006TIP3    H118024   5.661   3.320   3.229 -0.0063 -0.1304  0.7931
 6006TIP3    H218025   5.679   3.459   3.287  0.4118 -0.2796  1.0256
 6007TIP3   OH218026   3.429   0.658   2.225  0.1357 -0.0108 -0.4568
 6007TIP3    H118027   3.368   0.620   2.161 -0.3094 -0.1571  0.0512
 6007TIP3    H218028   3.483   0.585   2.253 -1.4237 -0.5348  1.3262
 6008TIP3   OH218029   1.564   1.962   3.680 -0.5861  0.0091  0.3075
 6008TIP3    H118030   1.650   1.962   3.637 -0.3428  1.2792  0.7396
 6008TIP3    H218031   1.503   1.989   3.612 -0.3229  1.1496  0.4899
 6009TIP3   OH218032   0.644   2.244   1.827  0.3175  0.4384 -0.0789
 6009TIP3    H118033   0.688   2.260   1.743  1.1636  1.5806  0.5480
 6009TIP3    H218034   0.704   2.279   1.893 -0.6592  0.2311  0.9618
 6010TIP3   OH218035   5.058   5.500   1.430 -0.3472  0.3828  0.4436
 6010TIP3    H118036   5.108   5.548   1.497 -0.8568  1.1033  0.3149
 6010TIP3    H218037   5.006   5.438   1.480  0.2945 -0.0338  0.6141
 6011TIP3   OH218038   6.135   1.376   3.700  0.4768 -0.1508 -0.3479
 6011TIP3    H118039   6.155   1.451   3.756 -0.4668 -0.4434  0.3980
 6011TIP3    H218040   6.220   1.335   3.684  1.0346  1.1780 -0.9344
 6012TIP3   OH218041   6.040   5.890   2.191  0.6982 -0.1217  0.1638
 6012TIP3    H118042   6.020   5.910   2.099 -0.3162 -0.7353  0.2401
 6012TIP3    H218043   6.124   5.933   2.207  0.3787  0.8807 -0.7450
 6013TIP3   OH218044   3.580   4.703   4.372 -0.1765 -0.0816  0.0277
 6013TIP3    H118045   3.551   4.699   4.464  1.0800  0.1671  0.4595
 6013TIP3    H218046   3.564   4.615   4.338  1.7931 -1.0020  1.2996
 6014TIP3   OH218047   3.991   4.585   2.680 -0.2314 -0.1052  0.0206
 6014TIP3    H118048   4.044   4.511   2.650 -0.1063 -0.5372  1.2420
 6014TIP3    H218049   3.912   4.545   2.717  0.5805  0.2044  2.2375
 6015TIP3   OH218050   3.014   1.369   3.458  0.1001  0.6282 -0.1115
 6015TIP3    H118051   2.924   1.400   3.470  0.0363 -0.2784  2.3279
 6015TIP3    H218052   3.007   1.306   3.386 -1.2565  0.4219  0.1612
 6016TIP3   OH218053   4.858   1.032   1.640  0.4063 -0.3078 -0.2932
 6016TIP3    H118054   4.886   1.100   1.701 -0.3323 -0.9253  0.7784
 6016TIP3    H218055   4.915   0.958   1.659 -2.2329 -1.8691  2.4944
 6017TIP3   OH218056   4.279   5.707   2.406 -0.4931  0.3571  0.4226
 6017TIP3    H118057   4.309   5.734   2.493  0.8619 -0.3813  0.2045
 6017TIP3    H218058   4.358   5.705   2.352 -1.5085  2.3232 -1.2916
 6018TIP3   OH218059   4.524   0.459   0.821  0.7039 -0.8314  0.0621
 6018TIP3    H118060   4.490   0.508   0.896 -0.2238 -2.9503  1.1196
 6018TIP3    H218061   4.607   0.502   0.799 -1.0953  2.6107 -0.6400
 6019TIP3   OH218062   1.088   5.199   4.000 -0.6989  0.0232  0.2910
 6019TIP3    H118063   1.170   5.175   4.041 -1.0301 -0.7107  0.5403
 6019TIP3    H218064   1.075   5.134   3.931 -1.3481 -0.2366  0.6378
 6020TIP3   OH218065   1.883   2.386   4.914  0.4891  0.0409 -0.5444
 6020TIP3    H118066   1.935   2.448   4.862  1.3604 -1.1303 -1.1299
 6020TIP3    H218067   1.892   2.303   4.867  0.2310 -0.7703  0.7891
 6021TIP3   OH218068   1.611   2.368   4.056  0.2023  0.2558  0.1163
 6021TIP3    H118069   1.702   2.345   4.035  0.5731  0.9853  0.8768
 6021TIP3    H218070   1.611   2.463   4.061 -0.1849  0.2088  1.8598
 6022TIP3   OH218071   1.004   1.683   3.890 -0.3792 -0.2599  0.1889
 6022TIP3    H118072   0.979   1.668   3.981 -2.7541  1.2141 -0.1543
 6022TIP3    H218073   0.963   1.611   3.842  0.2804 -0.6313  0.1583
 6023TIP3   OH218074   3.803   1.876   2.865  0.1277  0.0502  0.1618
 6023TIP3    H118075   3.838   1.898   2.952  0.2284  2.5993 -0.4533
 6023TIP3    H218076   3.844   1.939   2.806 -1.2828 -0.4970 -1.4654
 6024TIP3   OH218077   3.507   5.782   3.562 -0.3502  0.3758  0.3304
 6024TIP3    H118078   3.583   5.816   3.609  0.6127 -1.6375  0.2921
 6024TIP3    H218079   3.513   5.821   3.475 -0.7646  2.1487  1.0445
 6025TIP3   OH218080   5.779   5.013   0.401  0.0387  0.1431  0.0999
 6025TIP3    H118081   5.754   4.922   0.393 -1.2903  0.6488 -2.9981
 6025TIP3    H218082   5.724   5.048   0.471 -1.5234 -0.8204 -0.6086
 6026TIP3   OH218083   1.153   1.244   4.402  0.0963  0.0224 -0.2379
 6026TIP3    H118084   1.083   1.187   4.432  0.2187  0.7523  1.5520
 6026TIP3    H218085   1.141   1.325   4.451  0.6153  1.1355 -1.8705
 6027TIP3   OH218086   0.362   5.294   0.456  0.7977 -0.4439 -0.1423
 6027TIP3    H118087   0.362   5.365   0.520 -0.8197  0.4534 -1.0503
 6027TIP3    H218088   0.439   5.310   0.402 -0.3583  1.6466 -1.3192
 6028TIP3   OH218089   4.668   1.311   0.310  0.8176 -0.4667 -0.3828
 6028TIP3    H118090   4.594   1.315   0.250  2.0076 -1.6918 -2.0418
 6028TIP3    H218091   4.716   1.393   0.297 -0.3513  0.4652  0.9191
 6029TIP3   OH218092   6.086   2.296   4.603  0.2463 -0.2642 -0.3630
 6029TIP3    H118093   6.017   2.360   4.584  0.5454  0.3242  0.4792
 6029TIP3    H218094   6.088   2.290   4.698  2.9003  1.5168 -0.1807
 6030TIP3   OH218095   3.762   0.223   4.164  0.4613 -0.3829 -0.0103
 6030TIP3    H118096   3.799   0.137   4.146 -1.1409 -1.0967 -0.1209
 6030TIP3    H218097   3.716   0.212   4.247  0.9249  0.6099  0.3941
 6031TIP3   OH218098   5.724   3.367   0.774 -0.4357 -0.1962  0.0724
 6031TIP3    H118099   5.696   3.347   0.864  0.3464 -0.7561  0.2041
 6031TIP3    H218100   5.812   3.402   0.784 -0.7327  0.7224 -0.4067
 6032TIP3   OH218101   3.295   3.762   1.515 -0.6798 -0.5015  0.4098
 6032TIP3    H118102   3.309   3.830   1.581 -1.3288 -0.0245  0.0662
 6032TIP3    H218103   3.383   3.739   1.485 -0.4764  2.1459 -1.4208
 6033TIP3   OH218104   1.219   1.377   4.832 -0.4002  0.0594 -0.1661
 6033TIP3    H118105   1.161   1.425   4.891 -0.2401 -0.6366  0.5696
 6033TIP3    H218106   1.304   1.375   4.878 -0.2602 -0.4335 -0.4406
 6034TIP3   OH218107   6.311   1.650   3.036  0.3807 -0.2094 -0.0692
 6034TIP3    H118108   6.333   1.608   3.119  0.7959  1.1804  0.5522
 6034TIP3    H218109   6.219   1.674   3.046  0.7799  1.1499  0.5495
 6035TIP3   OH218110   5.868   1.379   1.272 -0.1174  0.6185  0.1853
 6035TIP3    H118111   5.823   1.428   1.341  0.0623 -0.1319  0.8546
 6035TIP3    H218112   5.799   1.329   1.229 -0.2646  1.2598 -0.3463
 6036TIP3   OH218113   1.200   2.840   4.321  0.4732 -0.5343 -0.3869
 6036TIP3    H118114   1.280   2.889   4.300 -0.0672  0.8122  0.5468
 6036TIP3    H218115   1.225   2.783   4.394  0.6247 -0.2210 -0.1920
 6037TIP3   OH218116   3.364   4.533   1.287 -0.2266  0.0862 -0.3575
 6037TIP3    H118117   3.318   4.539   1.204 -0.2560  0.4153 -0.3158
 6037TIP3    H218118   3.308   4.578   1.350  0.0432  0.2917 -0.2622
 6038TIP3   OH218119   3.497   2.000   4.076  0.2554 -0.4583 -0.1179
 6038TIP3    H118120   3.508   2.067   4.144  1.1984 -0.9623  0.2427
 6038TIP3    H218121   3.522   2.045   3.995  1.3000 -0.4719  0.1784
 6039TIP3   OH218122   0.220   5.736   2.955  1.1618  0.4934 -0.6100
 6039TIP3    H118123   0.190   5.797   2.888 -0.6194  0.4079  0.0500
 6039TIP3    H218124   0.244   5.791   3.030  0.0465  0.4497 -0.1982
 6040TIP3   OH218125   0.685   4.001   2.720  0.3051  0.3307 -0.5223
 6040TIP3    H118126   0.630   3.923   2.711  0.4495  0.1526  0.0795
 6040TIP3    H218127   0.630   4.064   2.767 -0.0436  0.8382 -1.5752
 6041TIP3   OH218128   3.786   3.203   3.925  0.0785 -0.6307 -0.2364
 6041TIP3    H118129   3.852   3.200   3.994  0.3020 -1.2027 -0.4650
 6041TIP3    H218130   3.772   3.111   3.901  0.1441 -0.4342 -1.0805
 6042TIP3   OH218131   3.149   4.198   1.606  0.2428  0.3885 -0.0250
 6042TIP3    H118132   3.124   4.106   1.619 -0.1960  0.1181 -2.3226
 6042TIP3    H218133   3.066   4.246   1.616  0.3146  0.4407  0.3295
 6043TIP3   OH218134   5.468   4.758   4.441 -0.8430 -0.2562 -0.1828
 6043TIP3    H118135   5.532   4.746   4.371 -0.6464 -2.2206  0.2780
 6043TIP3    H218136   5.510   4.819   4.501  0.3814 -1.0770 -0.1674
 6044TIP3   OH218137   1.973   1.254   2.416 -0.3029 -0.2914 -0.1545
 6044TIP3    H118138   2.058   1.294   2.434 -0.5356 -0.7379  2.1934
 6044TIP3    H218139   1.976   1.170   2.460 -1.8009 -0.5257 -0.4381
 6045TIP3   OH218140   5.290   5.884   4.013 -0.5755 -0.1804 -0.2516
 6045TIP3    H118141   5.265   5.792   4.018  0.9655 -0.5853  0.8123
 6045TIP3    H218142   5.318   5.906   4.102  1.2341  0.6332 -0.9592
 6046TIP3   OH218143   0.005   5.894   2.033 -0.0709  0.2490  0.1302
 6046TIP3    H118144  -0.004   5.938   2.117  0.9527 -0.5358  0.6716
 6046TIP3    H218145   0.064   5.820   2.050  0.6696  0.4392 -1.3921
 6047TIP3   OH218146   4.798   3.846   0.727 -0.0658 -0.0242  0.1978
 6047TIP3    H118147   4.753   3.767   0.759  0.7439 -0.7039 -0.2862
 6047TIP3    H218148   4.870   3.812   0.674  1.1737  1.0223  1.1597
 6048TIP3   OH218149   4.403   0.491   4.116 -0.0366  0.3704  0.1583
 6048TIP3    H118150   4.451   0.573   4.106 -1.8315  1.8639  2.7005
 6048TIP3    H218151   4.325   0.502   4.061  0.0285  0.0807  0.0041
 6049TIP3   OH218152   0.709   2.581   1.432  0.2589  0.1230  0.1090
 6049TIP3    H118153   0.689   2.590   1.526  0.2021 -0.5285  0.1652
 6049TIP3    H218154   0.724   2.671   1.402  2.0846  0.2053  1.1359
 6050TIP3   OH218155   4.953   0.893   0.926  0.0830 -0.2212 -0.2917
 6050TIP3    H118156   4.905   0.878   0.845 -0.5512 -0.3029  0.0868
 6050TIP3    H218157   5.039   0.925   0.899 -0.5884  1.0905 -0.9607
 6051TIP3   OH218158   5.575   1.228   5.064  0.2981 -0.0364 -0.6365
 6051TIP3    H118159   5.627   1.266   4.994  2.5238 -1.9994 -0.1834
 6051TIP3    H218160   5.615   1.261   5.144 -2.1988  2.1640 -0.1462
 6052TIP3   OH218161   2.834   5.764   1.296  0.0556  0.0995  0.3906
 6052TIP3    H118162   2.753   5.759   1.244  1.0461  0.7418 -1.3166
 6052TIP3    H218163   2.852   5.674   1.321  0.2561 -0.4620 -1.5951
 6053TIP3   OH218164   5.082   0.507   4.958 -0.2500  0.1452 -0.1315
 6053TIP3    H118165   4.994   0.524   4.991 -0.1805  0.3219 -0.0318
 6053TIP3    H218166   5.107   0.423   4.995 -0.9884 -0.6774 -1.4342
 6054TIP3   OH218167   5.493   4.930   3.642  0.8669  0.1529 -0.3192
 6054TIP3    H118168   5.530   4.847   3.671  2.7371 -0.5171 -4.0208
 6054TIP3    H218169   5.555   4.996   3.672  0.0102  0.1386  1.5857
 6055TIP3   OH218170   0.475   4.138   1.951 -0.1675 -0.2570 -0.0301
 6055TIP3    H118171   0.381   4.135   1.931 -0.2315  0.4540  0.1221
 6055TIP3    H218172   0.512   4.197   1.886  0.4416 -1.6512 -1.0068
 6056TIP3   OH218173   3.543   2.307   2.415  0.0320  0.0450  0.0258
 6056TIP3    H118174   3.558   2.216   2.387  1.1465  0.4793 -0.8300
 6056TIP3    H218175   3.473   2.300   2.480 -2.2904 -1.0982 -2.3899
 6057TIP3   OH218176   5.305   3.788   4.659  0.5153 -0.5420  0.1944
 6057TIP3    H118177   5.280   3.880   4.648 -0.3882 -0.6678  1.0767
 6057TIP3    H218178   5.274   3.765   4.746  3.3497 -0.8790  1.1958
 6058TIP3   OH218179   2.508   0.769   1.886 -0.1820  0.1665 -0.4600
 6058TIP3    H118180   2.582   0.728   1.842  0.8609  1.1800  0.2552
 6058TIP3    H218181   2.533   0.862   1.891 -0.6459  0.2274  1.4263
 6059TIP3   OH218182   0.437   1.539   4.276 -0.1716  0.0426  0.3048
 6059TIP3    H118183   0.502   1.556   4.343 -0.6360  1.4723  0.4347
 6059TIP3    H218184   0.414   1.626   4.242 -2.4073 -0.3390  0.6599
 6060TIP3   OH218185   3.110   4.219   4.360 -0.2593  0.8211  0.0693
 6060TIP3    H118186   3.175   4.150   4.351 -1.0787  0.1601 -1.0651
 6060TIP3    H218187   3.160   4.300   4.354  0.7464  0.3653  1.6402
 6061TIP3   OH218188   1.445   1.991   2.363  0.3529 -0.0235 -0.4911
 6061TIP3    H118189   1.491   1.930   2.305  0.1753  0.0295 -0.6895
 6061TIP3    H218190   1.385   2.038   2.305 -0.7239 -0.8342 -0.0549
 6062TIP3   OH218191   5.503   0.242   2.587  0.5984  0.1464  0.6233
 6062TIP3    H118192   5.504   0.176   2.518  0.8502  0.5424  0.2421
 6062TIP3    H218193   5.416   0.281   2.582  0.9465  0.8391 -0.1135
 6063TIP3   OH218194   5.015   0.462   4.653  0.2221 -0.5381  0.3777
 6063TIP3    H118195   4.924   0.489   4.641  1.0614  1.2970 -2.7569
 6063TIP3    H218196   5.043   0.507   4.733 -0.4159  2.6480 -1.0423
 6064TIP3   OH218197   5.799   2.585   2.864  0.3382 -0.0587  0.1358
 6064TIP3    H118198   5.736   2.631   2.920  1.0055  0.2878  0.6143
 6064TIP3    H218199   5.875   2.570   2.920  0.7933 -0.2194 -0.5100
 6065TIP3   OH218200   1.628   1.417   4.781 -0.0575 -0.7891  0.7498
 6065TIP3    H118201   1.546   1.436   4.736  0.4332 -1.4196 -0.4670
 6065TIP3    H218202   1.694   1.467   4.732  0.4063 -0.9943  1.1591
 6066TIP3   OH218203   3.259   2.288   2.890  0.1668  0.0065  0.5036
 6066TIP3    H118204   3.169   2.259   2.901  0.1328  0.2990  1.0109
 6066TIP3    H218205   3.258   2.381   2.913  0.2955  0.3949 -0.9760
 6067TIP3   OH218206   1.329   0.490   1.263 -0.4071 -0.2168  0.0535
 6067TIP3    H118207   1.335   0.486   1.358 -1.4894  0.2354  0.1522
 6067TIP3    H218208   1.319   0.399   1.235  1.6474 -0.5396  0.2180
 6068TIP3   OH218209   6.116   1.714   1.046  0.4372  0.3724 -0.0807
 6068TIP3    H118210   6.199   1.718   0.999  0.8772 -0.2284  0.6216
 6068TIP3    H218211   6.051   1.698   0.978  1.2090 -1.7231 -0.4100
 6069TIP3   OH218212   2.380   4.189   1.667  0.0087 -0.1384  0.4473
 6069TIP3    H118213   2.417   4.204   1.753  0.3003 -1.2068  0.5244
 6069TIP3    H218214   2.412   4.261   1.613  1.3957 -0.5103  0.7559
 6070TIP3   OH218215   0.312   4.567   2.946 -0.1305  0.3129 -0.1618
 6070TIP3    H118216   0.334   4.482   2.908 -0.5982  0.8411 -1.6587
 6070TIP3    H218217   0.313   4.551   3.041 -2.0009 -1.8575 -0.4036
 6071TIP3   OH218218   3.222   1.001   3.572  0.2472 -0.0963 -0.2708
 6071TIP3    H118219   3.180   0.971   3.491  1.5399 -0.1094 -0.9600
 6071TIP3    H218220   3.157   1.060   3.611  0.2821  1.3983 -2.2660
 6072TIP3   OH218221   5.534   5.219   3.477 -0.0773 -0.2400  0.6821
 6072TIP3    H118222   5.518   5.308   3.509  1.0979  1.5848 -3.1977
 6072TIP3    H218223   5.450   5.189   3.444  0.3676  1.8659 -2.9593
 6073TIP3   OH218224   1.450   2.999   4.345 -0.5528  0.0655  0.0511
 6073TIP3    H118225   1.435   3.093   4.354  1.0968  0.2935  0.6211
 6073TIP3    H218226   1.456   2.968   4.435 -0.6151 -0.5070 -0.1409
 6074TIP3   OH218227   5.413   4.906   1.022  0.3865  0.4131 -0.4339
 6074TIP3    H118228   5.366   4.971   0.969  0.1951  0.5983 -0.0421
 6074TIP3    H218229   5.452   4.956   1.093 -1.5925 -0.1417  1.1444
 6075TIP3   OH218230   5.458   2.162   4.125 -0.4684  0.4300  0.6458
 6075TIP3    H118231   5.529   2.105   4.153 -0.2018  1.9902  3.5349
 6075TIP3    H218232   5.445   2.222   4.198 -2.9133  1.9927 -0.9144
 6076TIP3   OH218233   4.155   4.770   3.296 -0.1429  0.5003 -0.0648
 6076TIP3    H118234   4.192   4.796   3.212 -2.3778  0.2668 -1.1993
 6076TIP3    H218235   4.170   4.845   3.354  2.7635  0.0852 -0.1491
 6077TIP3   OH218236   4.769   0.243   4.632 -0.5254  0.1033  0.2024
 6077TIP3    H118237   4.850   0.223   4.678  0.7152  0.6596 -1.6715
 6077TIP3    H218238   4.795   0.300   4.559 -2.8517  1.9685  0.6846
 6078TIP3   OH218239   1.835   0.509   3.252  0.1741 -0.0135 -0.1737
 6078TIP3    H118240   1.872   0.528   3.338 -1.0721  0.0725  0.3577
 6078TIP3    H218241   1.769   0.577   3.239 -0.4207 -0.6834 -0.7101
 6079TIP3   OH218242   6.229   0.767   3.299 -0.1113  0.2279  0.2944
 6079TIP3    H118243   6.194   0.816   3.225  0.9498 -0.1242 -0.4481
 6079TIP3    H218244   6.224   0.676   3.272  1.0443  0.1487  0.3231
 6080TIP3   OH218245   0.163   2.785   1.394  0.4241  0.3299 -0.1353
 6080TIP3    H118246   0.201   2.697   1.394  0.8369  0.5070 -0.9440
 6080TIP3    H218247   0.207   2.831   1.323  1.2444  1.6438  1.1622
 6081TIP3   OH218248   1.517   3.241   1.968  0.0546  0.1174 -0.1968
 6081TIP3    H118249   1.441   3.247   1.910  0.6230  1.1084 -0.8788
 6081TIP3    H218250   1.493   3.294   2.045 -0.2082 -0.1396 -0.1013
 6082TIP3   OH218251   1.272   3.530   0.813 -0.0966  0.7068 -0.2988
 6082TIP3    H118252   1.275   3.622   0.784  1.9812  1.2241  1.2574
 6082TIP3    H218253   1.233   3.534   0.900  1.1182  0.3244  0.2901
 6083TIP3   OH218254   5.526   3.203   1.520 -0.1348 -0.3782 -0.0172
 6083TIP3    H118255   5.461   3.271   1.500  0.4706  0.1604 -0.1805
 6083TIP3    H218256   5.494   3.126   1.473 -1.3426 -0.4964  0.9497
 6084TIP3   OH218257   0.479   2.139   0.515  0.5386  0.3551  0.3298
 6084TIP3    H118258   0.540   2.081   0.561  0.5993  1.1432  1.2943
 6084TIP3    H218259   0.427   2.179   0.585 -0.2055  0.6811 -0.3861
 6085TIP3   OH218260   6.199   3.561   1.525  0.1611  0.1118 -0.2796
 6085TIP3    H118261   6.266   3.509   1.569 -0.2712 -0.0070  0.2364
 6085TIP3    H218262   6.158   3.501   1.463  0.2663  0.0798 -0.3173
 6086TIP3   OH218263   0.826   3.652   2.232  0.1497 -0.1285 -0.2643
 6086TIP3    H118264   0.869   3.573   2.265 -0.4678  0.0424  1.0333
 6086TIP3    H218265   0.857   3.661   2.142  1.8147 -0.7233  0.2098
 6087TIP3   OH218266   0.070   4.573   3.522  0.5322 -0.3801 -0.2798
 6087TIP3    H118267   0.009   4.646   3.528  1.9462  0.7927  0.8016
 6087TIP3    H218268   0.137   4.593   3.587 -0.8989 -4.5020  2.9136
 6088TIP3   OH218269   1.228   0.473   0.719 -0.3054 -0.2462  0.8930
 6088TIP3    H118270   1.185   0.521   0.648  1.8867  0.6755  0.1050
 6088TIP3    H218271   1.239   0.538   0.788  1.6199  0.1390  0.2765
 6089TIP3   OH218272   1.007   1.975   2.126 -0.6607  0.1816  0.1148
 6089TIP3    H118273   1.008   1.908   2.195 -1.1556  0.0074 -0.0443
 6089TIP3    H218274   1.003   2.058   2.173 -0.4871  0.0844  0.3053
 6090TIP3   OH218275   6.287   4.813   0.702 -0.0199 -0.2008  0.0769
 6090TIP3    H118276   6.263   4.836   0.612  0.5816  1.1399  0.2325
 6090TIP3    H218277   6.242   4.730   0.719  0.4746 -0.8836 -1.7220
 6091TIP3   OH218278   5.663   2.525   3.665 -0.7448  0.3847 -0.2027
 6091TIP3    H118279   5.568   2.535   3.663 -1.2835 -3.0532  1.2273
 6091TIP3    H218280   5.682   2.461   3.596  0.5981  1.1072 -0.5515
 6092TIP3   OH218281   3.278   2.301   2.215 -0.2433 -0.7305  0.6362
 6092TIP3    H118282   3.228   2.349   2.150 -1.1867  0.0479  1.8946
 6092TIP3    H218283   3.368   2.327   2.200 -0.8287  2.7333  2.2267
 6093TIP3   OH218284   4.526   1.378   4.150 -0.3831  0.4487 -0.5033
 6093TIP3    H118285   4.502   1.453   4.204  0.4259  0.3227  0.0430
 6093TIP3    H218286   4.617   1.360   4.172 -0.3152 -0.1857 -1.2341
 6094TIP3   OH218287   0.371   2.141   1.947  0.4535  0.1285  0.1733
 6094TIP3    H118288   0.361   2.063   1.893 -0.8631 -0.2077  0.8552
 6094TIP3    H218289   0.463   2.166   1.937  1.1894 -2.1304  0.7949
 6095TIP3   OH218290   2.122   3.251   3.508  0.5824  0.5800 -0.3817
 6095TIP3    H118291   2.048   3.239   3.449 -0.0154 -0.2862  0.5280
 6095TIP3    H218292   2.194   3.202   3.467  0.6187  1.2638 -1.1641
 6096TIP3   OH218293   5.127   5.980   0.670  0.4197 -0.0124 -0.2235
 6096TIP3    H118294   5.115   5.898   0.624 -1.2123 -0.0120  0.1358
 6096TIP3    H218295   5.221   5.993   0.673  0.6557 -1.3931 -1.1035
 6097TIP3   OH218296   3.308   0.780   4.015 -0.4620 -0.3877  0.1022
 6097TIP3    H118297   3.224   0.798   3.973 -0.2428  1.5439  0.4344
 6097TIP3    H218298   3.300   0.817   4.102  1.8328  2.9461 -0.9279
 6098TIP3   OH218299   5.244   1.749   4.753 -0.0763  0.1000 -0.4104
 6098TIP3    H118300   5.289   1.834   4.748  3.4065 -1.4783  1.0184
 6098TIP3    H218301   5.313   1.685   4.740 -2.5150 -2.6048 -1.0018
 6099TIP3   OH218302   2.215   4.570   3.966 -0.2288 -0.1318  0.0740
 6099TIP3    H118303   2.296   4.617   3.987  1.3643 -1.6653 -2.1285
 6099TIP3    H218304   2.150   4.605   4.027  1.2885  3.4257 -0.0991
 6100TIP3   OH218305   4.577   3.724   2.788  0.1841 -0.3728  0.0971
 6100TIP3    H118306   4.484   3.713   2.805 -0.3795 -0.2819 -2.4320
 6100TIP3    H218307   4.612   3.635   2.789  0.1462 -0.3905  1.2687
 6101TIP3   OH218308   3.968   3.965   0.752  0.3988  0.7041  0.5469
 6101TIP3    H118309   4.000   3.984   0.664 -2.1133  1.5708 -0.2565
 6101TIP3    H218310   3.931   3.878   0.746 -2.2841  1.7957 -0.1062
 6102TIP3   OH218311   5.770   2.032   0.397 -0.0531 -0.4470 -0.6123
 6102TIP3    H118312   5.699   2.006   0.339 -0.6661  1.2341 -0.6637
 6102TIP3    H218313   5.743   2.117   0.432  0.2508 -1.4502  2.2525
 6103TIP3   OH218314   4.438   0.632   1.017  0.4919 -0.1638  0.0657
 6103TIP3    H118315   4.506   0.695   1.041 -1.1421  1.2919  1.1540
 6103TIP3    H218316   4.386   0.677   0.950 -0.7613 -0.2896  0.9259
 6104TIP3   OH218317   4.262   3.370   4.401  0.4432 -0.3727 -0.3602
 6104TIP3    H118318   4.328   3.310   4.366  0.8234 -0.7382  0.9210
 6104TIP3    H218319   4.187   3.314   4.423  0.0713 -0.0974 -0.9164
 6105TIP3   OH218320   3.957   1.172   2.606 -0.3761  0.1608 -0.3472
 6105TIP3    H118321   3.997   1.144   2.524 -0.0129  0.5823 -0.3180
 6105TIP3    H218322   3.972   1.099   2.667  1.6602  0.8790  0.0878
 6106TIP3   OH218323   0.692   0.624   0.657  0.2650  0.2018  0.4293
 6106TIP3    H118324   0.671   0.602   0.747  0.9498  1.7333  0.9924
 6106TIP3    H218325   0.722   0.715   0.660  1.9050 -0.2277 -1.0951
 6107TIP3   OH218326   1.409   5.908   4.601 -0.1174  0.0751  0.9225
 6107TIP3    H118327   1.358   5.848   4.548 -0.2636 -0.2772  1.4598
 6107TIP3    H218328   1.344   5.959   4.650 -0.1093  2.2007 -1.1156
 6108TIP3   OH218329   3.122   0.160   4.952 -0.7708  0.3396 -0.2307
 6108TIP3    H118330   3.086   0.085   4.904 -2.0755  1.5122 -1.1465
 6108TIP3    H218331   3.136   0.227   4.886 -0.4277  1.2143  0.6998
 6109TIP3   OH218332   5.246   2.243   1.467 -0.1772  0.1993  0.5209
 6109TIP3    H118333   5.270   2.158   1.504  2.4930  0.4419 -0.4319
 6109TIP3    H218334   5.167   2.268   1.513  0.6485 -1.4248  3.0162
 6110TIP3   OH218335   5.048   4.063   3.914  0.5094  0.0743  0.2080
 6110TIP3    H118336   4.993   4.010   3.857 -0.5780  0.2043  1.1066
 6110TIP3    H218337   5.111   4.105   3.855 -0.5214  0.1410 -0.8735
 6111TIP3   OH218338   4.883   4.206   3.618 -0.2572 -0.4050 -0.0342
 6111TIP3    H118339   4.808   4.195   3.559 -2.0691 -0.2114  2.1186
 6111TIP3    H218340   4.895   4.119   3.657 -0.7517  0.0425  1.1658
 6112TIP3   OH218341   5.202   3.655   0.122 -0.8613  0.2740 -0.4729
 6112TIP3    H118342   5.182   3.666   0.215  0.5700  2.0872 -0.3184
 6112TIP3    H218343   5.127   3.607   0.087 -0.7692 -1.7406  1.8629
 6113TIP3   OH218344   2.363   0.211   4.720  0.5636  0.4064 -0.6087
 6113TIP3    H118345   2.430   0.205   4.788 -1.7174  0.7273  1.8149
 6113TIP3    H218346   2.326   0.123   4.716  1.0435  0.2463 -1.8986
 6114TIP3   OH218347   4.926   3.483   1.258 -0.5151 -0.3955 -0.4287
 6114TIP3    H118348   4.897   3.393   1.266 -0.8850 -0.3522 -1.1488
 6114TIP3    H218349   4.955   3.508   1.346 -1.3286 -0.9023 -0.0084
 6115TIP3   OH218350   1.221   3.754   2.447  0.4665 -0.1212 -0.3131
 6115TIP3    H118351   1.195   3.717   2.363 -1.1939 -0.8206  0.4593
 6115TIP3    H218352   1.223   3.849   2.432 -3.8462  0.1760 -0.2739
 6116TIP3   OH218353   0.334   4.118   0.870  0.6339  0.3569  0.5816
 6116TIP3    H118354   0.264   4.118   0.935 -1.8514 -1.5909 -1.8760
 6116TIP3    H218355   0.376   4.204   0.880 -0.1061  0.4395  4.1196
 6117TIP3   OH218356   3.659   1.669   1.621  0.1617 -0.5381 -0.1249
 6117TIP3    H118357   3.587   1.651   1.682 -0.8045  2.1525 -0.3273
 6117TIP3    H218358   3.637   1.619   1.543  0.0068 -1.9209  0.7639
 6118TIP3   OH218359   1.766   4.777   1.348  0.4085 -0.2035  0.4176
 6118TIP3    H118360   1.754   4.798   1.441  1.0870  0.5304  0.3452
 6118TIP3    H218361   1.781   4.682   1.347  2.0942  0.0123  1.2493
 6119TIP3   OH218362   5.793   5.657   4.876  0.0878  0.5700 -0.4475
 6119TIP3    H118363   5.864   5.609   4.832  2.0822  1.1927  1.8229
 6119TIP3    H218364   5.758   5.715   4.809  4.0034  2.6356 -1.0207
 6120TIP3   OH218365   0.569   4.644   4.627  0.5185  0.9438 -0.1503
 6120TIP3    H118366   0.528   4.649   4.714  0.2302 -0.7605 -0.1470
 6120TIP3    H218367   0.663   4.643   4.644  0.6425 -4.4104  0.7421
 6121TIP3   OH218368   0.060   0.179   2.344 -0.5318 -0.0721 -0.5998
 6121TIP3    H118369   0.139   0.182   2.398 -1.4908  0.6685  0.8409
 6121TIP3    H218370   0.078   0.240   2.272  0.6858 -0.8982 -1.0242
 6122TIP3   OH218371   5.104   1.630   0.587  0.1393 -0.4012 -0.2041
 6122TIP3    H118372   5.191   1.646   0.551 -0.1229  0.6119 -0.4298
 6122TIP3    H218373   5.083   1.540   0.561  0.2219  0.0674 -2.0690
 6123TIP3   OH218374   0.649   2.949   3.717  0.1467 -0.4018 -0.0632
 6123TIP3    H118375   0.730   2.958   3.668 -0.2979 -0.5129 -0.8236
 6123TIP3    H218376   0.670   2.985   3.804  0.9875 -0.3897 -0.2637
 6124TIP3   OH218377   5.154   0.572   2.175 -0.3004 -0.0613 -0.7316
 6124TIP3    H118378   5.122   0.659   2.151 -1.7415 -0.3984 -0.1352
 6124TIP3    H218379   5.096   0.544   2.246 -0.9598 -2.2109 -2.0248
 6125TIP3   OH218380   0.294   1.422   1.324 -0.9485  0.1713 -0.0585
 6125TIP3    H118381   0.350   1.347   1.344 -1.5465 -0.5861 -1.1336
 6125TIP3    H218382   0.356   1.490   1.297 -0.2766  0.6048  2.3150
 6126TIP3   OH218383   0.967   0.784   4.586 -0.2251 -0.3611 -0.5389
 6126TIP3    H118384   0.974   0.755   4.677  2.7863  0.9230 -0.2571
 6126TIP3    H218385   0.912   0.717   4.544 -0.7121 -1.6345  1.9179
 6127TIP3   OH218386   5.993   5.174   0.991 -0.1361 -0.0783  0.3550
 6127TIP3    H118387   5.927   5.119   1.032  0.0207 -0.1145  0.5596
 6127TIP3    H218388   6.022   5.123   0.915 -0.1768 -0.1653  0.3974
 6128TIP3   OH218389   5.329   2.937   0.825  0.0426 -0.2616  0.0702
 6128TIP3    H118390   5.396   2.949   0.758 -0.2962 -1.2133 -0.4605
 6128TIP3    H218391   5.366   2.871   0.885 -0.9821 -1.9725 -1.0761
 6129TIP3   OH218392   5.050   4.026   0.501 -0.0053 -0.5788 -0.1099
 6129TIP3    H118393   4.978   4.063   0.450  0.0496 -0.3017  0.0057
 6129TIP3    H218394   5.046   4.073   0.585  0.8084  0.0225 -0.3930
 6130TIP3   OH218395   4.060   0.599   4.440 -0.4383  0.1929  0.1856
 6130TIP3    H118396   4.063   0.558   4.527  0.2199  1.3088  0.7169
 6130TIP3    H218397   4.046   0.692   4.458  0.7414  0.5977 -0.8417
 6131TIP3   OH218398   1.551   5.497   1.375  0.0150  0.2184  0.0876
 6131TIP3    H118399   1.508   5.434   1.317  0.6874  0.3946 -0.6321
 6131TIP3    H218400   1.589   5.444   1.445 -0.0455 -0.0970 -0.1163
 6132TIP3   OH218401   1.510   1.906   2.789  0.0239 -0.7765  0.1632
 6132TIP3    H118402   1.491   1.852   2.866  1.6972 -0.9153  0.5261
 6132TIP3    H218403   1.583   1.962   2.817  0.1227 -0.2576 -1.0711
 6133TIP3   OH218404   0.797   2.039   0.115 -0.6617  0.0377  0.4169
 6133TIP3    H118405   0.857   2.001   0.179 -0.4883 -1.6007 -0.6528
 6133TIP3    H218406   0.790   2.131   0.140  2.0976  0.2421  0.7347
 6134TIP3   OH218407   2.180   2.059   1.543 -0.1025  0.1690 -0.4267
 6134TIP3    H118408   2.209   2.149   1.560  0.6388  0.2777 -2.0837
 6134TIP3    H218409   2.084   2.065   1.542 -0.0686  0.8816 -0.2719
 6135TIP3   OH218410   5.624   3.969   4.967  0.6499 -0.4981 -0.3599
 6135TIP3    H118411   5.650   4.003   4.881  2.2917 -1.4403 -0.2688
 6135TIP3    H218412   5.698   3.916   4.995 -0.8363 -2.1487  0.6015
 6136TIP3   OH218413   0.055   5.750   1.551  0.0348  0.0883 -0.1861
 6136TIP3    H118414   0.060   5.667   1.599 -0.2663  0.6298  0.8100
 6136TIP3    H218415   0.020   5.812   1.615 -0.6087  0.7762 -1.1848
 6137TIP3   OH218416   0.836   1.837   3.685  0.2045  0.5157 -0.0967
 6137TIP3    H118417   0.828   1.806   3.776  2.0907  2.5269  0.8691
 6137TIP3    H218418   0.806   1.927   3.688 -0.3687  0.3991 -1.6577
 6138TIP3   OH218419   3.891   4.228   1.275 -0.3085  0.2065  0.2399
 6138TIP3    H118420   3.874   4.320   1.292 -1.8782  0.5633 -2.5071
 6138TIP3    H218421   3.810   4.184   1.300 -1.4940  0.3598 -2.8241
 6139TIP3   OH218422   5.791   2.689   0.791 -0.3889  0.8224 -0.1158
 6139TIP3    H118423   5.846   2.691   0.713  1.3611  0.2742  1.0271
 6139TIP3    H218424   5.839   2.742   0.855 -0.1892 -1.1649  1.4861
 6140TIP3   OH218425   2.159   1.431   4.470  0.5516 -0.3191 -0.2092
 6140TIP3    H118426   2.222   1.416   4.541  0.9482  0.8302 -0.2972
 6140TIP3    H218427   2.086   1.477   4.512  0.2637 -0.6752 -0.3213
 6141TIP3   OH218428   4.949   0.582   0.699 -0.3696 -0.3919 -0.1410
 6141TIP3    H118429   4.942   0.522   0.625 -1.2039  1.1701 -1.3725
 6141TIP3    H218430   4.989   0.661   0.663 -0.1013  0.1421  1.2528
 6142TIP3   OH218431   2.301   2.490   0.726 -0.2073 -0.4231 -0.1984
 6142TIP3    H118432   2.261   2.415   0.769  0.7192 -1.0485 -0.3861
 6142TIP3    H218433   2.337   2.455   0.644  0.2653  0.2091 -0.2760
 6143TIP3   OH218434   2.237   4.099   3.247 -0.3187 -0.0114  0.3765
 6143TIP3    H118435   2.282   4.077   3.328 -2.2570 -0.1822  1.4631
 6143TIP3    H218436   2.171   4.030   3.237 -0.8724  0.6553 -0.7305
 6144TIP3   OH218437   0.477   5.179   3.325 -0.1805  0.4059 -0.1960
 6144TIP3    H118438   0.444   5.102   3.370 -2.6189  1.2803 -0.3631
 6144TIP3    H218439   0.399   5.228   3.300  1.2792  2.8181 -0.3352
 6145TIP3   OH218440   5.438   0.548   4.258 -0.0138 -0.1034  0.3141
 6145TIP3    H118441   5.460   0.589   4.174  0.9431  1.9012  1.4468
 6145TIP3    H218442   5.522   0.514   4.290 -0.0277  0.5959  1.1431
 6146TIP3   OH218443   1.255   3.998   0.075  0.5564 -0.2057  0.4911
 6146TIP3    H118444   1.298   4.030   0.154 -2.8680  1.2137  2.0078
 6146TIP3    H218445   1.212   4.076   0.038 -0.6522 -1.4448 -0.8428
 6147TIP3   OH218446   2.211   1.930   4.899  0.1927  0.6176 -0.5823
 6147TIP3    H118447   2.165   1.988   4.959  0.0481  0.8243 -0.8951
 6147TIP3    H218448   2.253   1.989   4.836 -0.3195  0.3625 -1.1623
 6148TIP3   OH218449   5.132   1.926   3.296  0.0799 -0.7232  0.0224
 6148TIP3    H118450   5.143   1.981   3.219 -1.7618  1.2798  1.0848
 6148TIP3    H218451   5.217   1.928   3.340  0.8057 -0.9603 -1.3268
 6149TIP3   OH218452   2.080   5.883   4.552 -0.7005 -0.4185  0.0010
 6149TIP3    H118453   2.062   5.868   4.459 -1.6567 -0.0385  0.1189
 6149TIP3    H218454   2.009   5.837   4.598 -1.4826  1.2001  0.4678
 6150TIP3   OH218455   5.341   5.819   4.767  0.2049  0.8485 -0.4666
 6150TIP3    H118456   5.254   5.799   4.733 -0.2431  1.1003  0.4916
 6150TIP3    H218457   5.334   5.909   4.800  0.2847  0.2669  1.2486
 6151TIP3   OH218458   1.612   3.077   1.539 -0.2104  0.4040 -0.1830
 6151TIP3    H118459   1.608   2.984   1.563 -1.9838  0.8231  1.2950
 6151TIP3    H218460   1.665   3.117   1.608 -0.4514  0.6844 -0.1597
 6152TIP3   OH218461   4.256   3.134   3.553 -0.2428  0.1315 -0.1714
 6152TIP3    H118462   4.194   3.190   3.507 -1.2760  1.9290  3.1115
 6152TIP3    H218463   4.202   3.078   3.608  0.9037  1.2337  2.2198
 6153TIP3   OH218464   3.152   1.921   1.176  0.7372 -0.1565  0.1368
 6153TIP3    H118465   3.139   1.892   1.086  1.3791  0.6437 -0.2113
 6153TIP3    H218466   3.168   1.840   1.225  0.2167 -0.6085 -0.4296
 6154TIP3   OH218467   3.010   2.049   3.594  0.1934  0.2078 -0.6978
 6154TIP3    H118468   2.917   2.066   3.577 -0.2020 -0.3473  0.7212
 6154TIP3    H218469   3.054   2.130   3.568 -0.6663  0.4430 -1.4970
 6155TIP3   OH218470   3.017   5.536   3.865 -0.4428  0.1402 -0.2481
 6155TIP3    H118471   2.951   5.485   3.818 -0.1933 -0.6509  0.2258
 6155TIP3    H218472   2.967   5.598   3.918 -0.7402  0.6492 -1.1183
 6156TIP3   OH218473   5.388   1.415   0.891 -0.6895  0.3464  0.0405
 6156TIP3    H118474   5.305   1.434   0.936 -1.0422 -3.0857  1.1257
 6156TIP3    H218475   5.363   1.358   0.818  0.7508 -1.6962  1.0646
 6157TIP3   OH218476   1.658   2.135   0.115 -0.6296  0.6544 -0.0652
 6157TIP3    H118477   1.622   2.203   0.173  0.8231  1.2602  0.1887
 6157TIP3    H218478   1.625   2.053   0.152 -2.5714  1.1926 -0.4824
 6158TIP3   OH218479   2.605   4.833   1.854 -0.2114 -0.5389 -0.5872
 6158TIP3    H118480   2.527   4.875   1.817  0.3673  0.0634 -1.1770
 6158TIP3    H218481   2.656   4.906   1.890 -0.7758 -1.1160  1.4927
 6159TIP3   OH218482   2.813   5.844   2.872  0.4020 -0.5937 -0.0255
 6159TIP3    H118483   2.818   5.802   2.786  1.5713 -0.1393 -0.2088
 6159TIP3    H218484   2.745   5.911   2.862  1.2126  0.1352 -0.9366
 6160TIP3   OH218485   0.109   1.221   0.627  0.0650  0.0092 -1.0395
 6160TIP3    H118486   0.060   1.300   0.648 -2.3448 -1.3743 -1.0895
 6160TIP3    H218487   0.164   1.246   0.553 -0.1923  1.7825 -0.6715
 6161TIP3   OH218488   4.758   3.965   5.137 -0.0895  0.0939 -0.1391
 6161TIP3    H118489   4.819   3.940   5.208 -0.0464  0.9508  0.1322
 6161TIP3    H218490   4.756   4.060   5.140  0.2142  0.1533 -1.5648
 6162TIP3   OH218491   5.714   5.961   0.310 -0.1617  0.3057 -0.2938
 6162TIP3    H118492   5.770   5.883   0.306 -1.1924 -0.4107 -1.4809
 6162TIP3    H218493   5.769   6.027   0.352  1.7482 -0.2209 -1.7810
 6163TIP3   OH218494   4.007   4.323   2.389 -0.4989  0.1518  0.0180
 6163TIP3    H118495   3.971   4.234   2.392  0.0372 -0.2472 -2.5944
 6163TIP3    H218496   4.081   4.321   2.450  0.1388 -1.5515 -0.7374
 6164TIP3   OH218497   6.349   0.691   0.617  0.1681  0.1646  0.3116
 6164TIP3    H118498   6.344   0.655   0.706 -0.5230 -1.1420 -0.2292
 6164TIP3    H218499   6.315   0.780   0.626 -1.8624 -0.6168  1.0342
 6165TIP3   OH218500   1.318   0.252   2.273 -0.6062 -0.0986 -0.2120
 6165TIP3    H118501   1.383   0.186   2.247 -0.9704  0.1315 -1.8667
 6165TIP3    H218502   1.321   0.317   2.203 -0.3519  1.6037  1.3206
 6166TIP3   OH218503   0.674   4.550   1.021  0.0515 -0.4399 -0.5740
 6166TIP3    H118504   0.739   4.582   0.958  2.0670 -0.0727  1.5592
 6166TIP3    H218505   0.667   4.456   1.002  1.2980 -0.5051 -0.7895
 6167TIP3   OH218506   0.971   4.981   0.294 -0.8951  0.2274  0.1157
 6167TIP3    H118507   0.894   4.985   0.238  0.0220  2.7071 -1.1208
 6167TIP3    H218508   1.034   5.040   0.252  0.9237 -0.1232  2.1827
 6168TIP3   OH218509   0.488   0.395   1.464  0.8193 -0.1962  0.4087
 6168TIP3    H118510   0.426   0.466   1.451  1.1411 -0.0505 -0.3951
 6168TIP3    H218511   0.439   0.316   1.439  1.1010 -0.0279 -0.7382
 6169TIP3   OH218512   2.153   1.775   1.474  0.2676 -0.1456 -0.2340
 6169TIP3    H118513   2.106   1.824   1.406  0.9329 -0.5693 -1.0185
 6169TIP3    H218514   2.193   1.842   1.528  0.1812  0.1958 -0.5864
 6170TIP3   OH218515   3.020   3.251   0.356 -0.4848  0.3545  0.2608
 6170TIP3    H118516   3.116   3.244   0.359 -0.3661  1.8081  0.4035
 6170TIP3    H218517   2.990   3.194   0.427  0.3660  1.2224  1.3606
 6171TIP3   OH218518   4.319   2.891   4.457 -0.4955 -0.3057  0.1072
 6171TIP3    H118519   4.378   2.829   4.500  1.0565  0.0788 -1.3671
 6171TIP3    H218520   4.376   2.961   4.426 -1.5374 -0.3799 -2.2005
 6172TIP3   OH218521   2.822   3.209   0.881 -0.0252 -0.1686 -0.6699
 6172TIP3    H118522   2.794   3.297   0.857  0.7107 -0.1566 -1.5593
 6172TIP3    H218523   2.747   3.154   0.862  0.2583 -0.0392 -2.3062
 6173TIP3   OH218524   1.653   0.644   4.551  0.5627  0.6448  0.1441
 6173TIP3    H118525   1.696   0.694   4.621 -0.9720  0.9338  0.9239
 6173TIP3    H218526   1.565   0.628   4.584  1.0584 -2.9646  0.1080
 6174TIP3   OH218527   5.981   4.601   2.156 -0.3560 -0.1323 -1.0280
 6174TIP3    H118528   6.037   4.628   2.229 -0.7344 -1.3062 -0.2888
 6174TIP3    H218529   5.948   4.684   2.120 -0.5600  0.4481  0.4368
 6175TIP3   OH218530   1.690   1.719   2.488 -0.0408 -0.5324  0.3246
 6175TIP3    H118531   1.674   1.752   2.399  2.2102 -0.3949 -0.0994
 6175TIP3    H218532   1.695   1.624   2.477 -1.9541 -0.7177  0.7386
 6176TIP3   OH218533   4.434   4.407   0.098  0.5733  0.1046  0.3826
 6176TIP3    H118534   4.447   4.312   0.105  3.1610  0.4258  0.7850
 6176TIP3    H218535   4.520   4.444   0.114  0.1602  2.4685 -2.2201
 6177TIP3   OH218536   3.691   0.886   3.029 -0.3796 -0.1834 -0.0878
 6177TIP3    H118537   3.676   0.975   3.062 -2.3386 -0.6983  0.5740
 6177TIP3    H218538   3.726   0.899   2.941 -1.2298  1.2635 -0.2455
 6178TIP3   OH218539   3.951   5.085   0.235  0.0514 -0.6764 -0.5282
 6178TIP3    H118540   3.886   5.078   0.305 -0.1987 -1.4184 -0.8253
 6178TIP3    H218541   3.987   4.997   0.227 -0.4060 -0.7732 -1.7780
 6179TIP3   OH218542   5.949   1.733   1.789 -0.3398 -0.8540 -0.5899
 6179TIP3    H118543   5.944   1.691   1.703  0.0221 -0.2448 -0.9125
 6179TIP3    H218544   5.965   1.825   1.770  1.3139 -0.9558  0.1543
 6180TIP3   OH218545   4.475   5.078   0.744  0.5025 -0.6214  0.3120
 6180TIP3    H118546   4.393   5.093   0.791  0.9081  2.5342  0.2477
 6180TIP3    H218547   4.541   5.073   0.813  0.6804  0.6622  0.2595
 6181TIP3   OH218548   5.695   3.759   2.190  0.4829  0.1340 -0.1116
 6181TIP3    H118549   5.710   3.844   2.231 -1.1806  1.0013 -1.1666
 6181TIP3    H218550   5.610   3.731   2.222  1.0630 -1.2399  0.3184
 6182TIP3   OH218551   1.546   1.142   3.702  0.2737  0.2499 -0.0203
 6182TIP3    H118552   1.509   1.093   3.775  0.3112  1.6185  0.9697
 6182TIP3    H218553   1.470   1.175   3.654  0.2304  0.8054  0.4281
 6183TIP3   OH218554   3.623   0.350   2.015  0.5096  0.3916  0.1680
 6183TIP3    H118555   3.628   0.273   1.958 -1.5531  0.7021 -0.5098
 6183TIP3    H218556   3.655   0.319   2.100  0.0421 -1.1165 -0.1825
 6184TIP3   OH218557   4.094   2.464   0.645  0.0623  0.1630 -0.2737
 6184TIP3    H118558   4.062   2.405   0.577  1.0609 -0.6048 -0.0991
 6184TIP3    H218559   4.048   2.436   0.724  1.4944 -1.3202  0.1012
 6185TIP3   OH218560   0.747   5.259   3.641 -0.1310 -0.1380  0.4103
 6185TIP3    H118561   0.711   5.251   3.730  1.4653 -0.7167  1.0359
 6185TIP3    H218562   0.737   5.172   3.604 -0.7560  0.0933  0.0132
 6186TIP3   OH218563   3.864   2.416   2.614  0.4531  0.1491  0.3256
 6186TIP3    H118564   3.852   2.376   2.700  0.4666  1.6991  1.0862
 6186TIP3    H218565   3.847   2.510   2.629 -0.9682  0.2732 -1.6390
 6187TIP3   OH218566   4.919   3.445   3.029 -0.4034 -0.5297  0.2805
 6187TIP3    H118567   4.853   3.476   3.092  1.0622  1.1097  1.0958
 6187TIP3    H218568   4.943   3.359   3.061  1.4653  0.8852  3.0450
 6188TIP3   OH218569   0.130   4.173   1.063 -0.4576 -0.3791  0.1806
 6188TIP3    H118570   0.041   4.182   1.029 -1.3110 -2.2900  1.6708
 6188TIP3    H218571   0.153   4.260   1.094 -1.3467  0.3998 -1.2704
 6189TIP3   OH218572   3.870   1.555   3.946  0.2977 -0.3560 -0.1614
 6189TIP3    H118573   3.958   1.591   3.932 -0.5814  1.8933 -0.2951
 6189TIP3    H218574   3.811   1.625   3.918 -1.5448 -1.0967  1.6875
 6190TIP3   OH218575   5.585   0.510   3.876 -0.0853 -0.1505  0.3995
 6190TIP3    H118576   5.525   0.449   3.918 -1.3830  1.1159  0.4619
 6190TIP3    H218577   5.567   0.502   3.783  0.2023 -0.3306  0.3588
 6191TIP3   OH218578   2.754   2.248   4.184  0.0927 -0.0845 -0.2329
 6191TIP3    H118579   2.683   2.207   4.233 -0.0845  0.6776  0.1654
 6191TIP3    H218580   2.793   2.176   4.133  1.1409 -1.1922  1.9974
 6192TIP3   OH218581   4.385   3.440   3.512  0.2377 -0.0424 -0.1985
 6192TIP3    H118582   4.308   3.383   3.513 -1.0213  1.5139 -1.7712
 6192TIP3    H218583   4.371   3.500   3.585  0.1514  0.0122 -0.2603
 6193TIP3   OH218584   6.233   2.041   4.662  0.7860  0.1601  0.4026
 6193TIP3    H118585   6.178   2.112   4.628  1.2432 -0.2348 -1.2835
 6193TIP3    H218586   6.321   2.078   4.664  0.6924  0.3459  1.7361
 6194TIP3   OH218587   0.938   2.905   3.140 -0.7114  0.2525  0.4530
 6194TIP3    H118588   0.955   2.990   3.181  1.4316 -0.1514  0.4826
 6194TIP3    H218589   0.894   2.927   3.058  0.2690  1.4533  0.2186
 6195TIP3   OH218590   5.767   5.868   1.381  0.2505  0.0315  0.0672
 6195TIP3    H118591   5.861   5.860   1.364 -0.0616 -0.0034 -1.9374
 6195TIP3    H218592   5.746   5.957   1.353 -0.6565 -0.6597 -1.5716
 6196TIP3   OH218593   4.205   1.513   2.721 -0.0640 -0.4926  0.2619
 6196TIP3    H118594   4.289   1.485   2.755 -0.3366  0.6485  2.0302
 6196TIP3    H218595   4.226   1.578   2.654  0.5456  1.9811  2.6840
 6197TIP3   OH218596   4.480   2.856   2.909 -0.5222 -0.1355  0.0779
 6197TIP3    H118597   4.569   2.890   2.896 -0.4608 -0.3530 -0.0914
 6197TIP3    H218598   4.445   2.847   2.820 -0.0050 -1.8788 -0.0002
 6198TIP3   OH218599   4.146   0.415   2.825  0.7699 -0.2267 -0.4169
 6198TIP3    H118600   4.164   0.331   2.783  1.7510  0.6158 -1.7427
 6198TIP3    H218601   4.230   0.459   2.829 -0.0358  1.5125 -1.5823
 6199TIP3   OH218602   3.305   4.917   1.564  0.6684  0.5420  0.3965
 6199TIP3    H118603   3.338   4.927   1.475 -1.1023  1.4564 -0.2185
 6199TIP3    H218604   3.382   4.894   1.617  2.3060  2.7583 -0.8675
 6200TIP3   OH218605   4.808   2.216   4.343 -0.2819  0.4470  0.6883
 6200TIP3    H118606   4.741   2.176   4.289  0.1617  0.0811  0.3991
 6200TIP3    H218607   4.890   2.174   4.315 -0.0323  0.3107  1.5715
 6201TIP3   OH218608   5.133   4.054   4.164  0.4174 -0.5329 -0.0837
 6201TIP3    H118609   5.195   3.984   4.184  2.4126  0.3100 -2.7331
 6201TIP3    H218610   5.126   4.054   4.068 -0.8378  1.7840 -0.0817
 6202TIP3   OH218611   2.018   4.689   2.677  0.0978 -0.1691  0.2227
 6202TIP3    H118612   1.956   4.643   2.621 -0.7645 -0.3140  1.2609
 6202TIP3    H218613   1.963   4.739   2.738  0.9862 -0.1659  1.0503
 6203TIP3   OH218614   3.071   3.041   0.746 -0.3723  0.0662  0.2194
 6203TIP3    H118615   3.135   2.971   0.753  1.6023  1.6856 -0.5427
 6203TIP3    H218616   3.093   3.101   0.818 -3.1702 -0.8695  2.0022
 6204TIP3   OH218617   5.179   4.292   2.675 -0.0251  0.0911 -0.1183
 6204TIP3    H118618   5.144   4.205   2.694 -1.5993  0.9487  1.0573
 6204TIP3    H218619   5.110   4.352   2.700  1.6027  1.7833  0.5155
 6205TIP3   OH218620   0.144   2.664   4.074 -0.2834  0.2737  0.1841
 6205TIP3    H118621   0.175   2.610   4.147 -2.8792  0.3697  1.4816
 6205TIP3    H218622   0.168   2.753   4.098 -1.1231  0.3075  0.9904
 6206TIP3   OH218623   5.837   5.490   0.079 -0.3795  0.3238 -0.1136
 6206TIP3    H118624   5.852   5.396   0.092  2.9677  0.6988 -0.4113
 6206TIP3    H218625   5.795   5.519   0.161  0.5572 -1.0713  0.9160
 6207TIP3   OH218626   2.085   1.759   4.136  0.1231 -0.0572 -0.0515
 6207TIP3    H118627   2.025   1.829   4.163  0.3877 -0.3985  1.5542
 6207TIP3    H218628   2.034   1.679   4.142 -0.3139 -0.0021 -2.3465
 6208TIP3   OH218629   2.007   2.086   4.971  0.1529 -0.1043  0.2146
 6208TIP3    H118630   2.060   2.120   5.044 -0.3847 -0.8205  0.9536
 6208TIP3    H218631   2.009   2.156   4.906  1.8812 -0.0495  0.2833
 6209TIP3   OH218632   5.537   1.618   1.389 -0.5053  0.3834 -0.6362
 6209TIP3    H118633   5.449   1.640   1.419  0.0888  0.8210  0.8335
 6209TIP3    H218634   5.526   1.536   1.341 -1.5129 -0.2805  0.6802
 6210TIP3   OH218635   1.568   0.426   3.359  0.2211 -0.2729  0.5390
 6210TIP3    H118636   1.654   0.466   3.371  0.8055 -1.0016 -0.9459
 6210TIP3    H218637   1.538   0.459   3.274  0.0631 -1.7939 -0.0239
 6211TIP3   OH218638   4.333   3.419   1.460 -0.2345 -0.4206 -0.1464
 6211TIP3    H118639   4.392   3.387   1.528 -0.5005  0.0449  0.3171
 6211TIP3    H218640   4.254   3.365   1.469 -0.6695  0.3131  0.6116
 6212TIP3   OH218641   1.733   0.260   4.442  0.7509 -0.1517  0.0325
 6212TIP3    H118642   1.823   0.230   4.457  0.4557 -0.3034  1.5637
 6212TIP3    H218643   1.734   0.290   4.351  2.1096 -0.9970 -0.2632
 6213TIP3   OH218644   1.442   3.287   0.008  0.3933 -0.0746  0.7083
 6213TIP3    H118645   1.520   3.231   0.005 -0.4758 -1.3091  0.5127
 6213TIP3    H218646   1.471   3.366   0.054  2.9075  1.3261 -2.7760
 6214TIP3   OH218647   3.964   3.386   4.860  0.0114  0.0982  0.5787
 6214TIP3    H118648   3.940   3.344   4.943 -0.7607 -0.0945  0.2644
 6214TIP3    H218649   4.022   3.323   4.817 -0.0215 -0.0363  0.7297
 6215TIP3   OH218650   0.185   3.384   0.407  0.1480 -0.1020  0.0506
 6215TIP3    H118651   0.253   3.449   0.426  1.0430 -0.7113 -0.9372
 6215TIP3    H218652   0.227   3.322   0.348 -0.6102 -1.7205  1.1310
 6216TIP3   OH218653   2.285   3.242   1.036  0.2326  0.5315 -0.6810
 6216TIP3    H118654   2.271   3.221   0.943  0.3944 -0.7222 -0.4408
 6216TIP3    H218655   2.200   3.229   1.077  0.2982  0.5236 -0.5467
 6217TIP3   OH218656   0.083   2.610   0.324  1.1089 -0.3605  0.0090
 6217TIP3    H118657   0.172   2.574   0.326  2.0981  1.8023 -1.3986
 6217TIP3    H218658   0.071   2.637   0.233 -1.2138 -1.0245  0.0671
 6218TIP3   OH218659   3.662   4.642   1.174  0.3635 -0.5628 -0.2370
 6218TIP3    H118660   3.568   4.643   1.190  0.2458  0.0667 -0.8886
 6218TIP3    H218661   3.677   4.564   1.120  0.4592 -1.5182  1.1161
 6219TIP3   OH218662   2.437   5.973   0.497 -0.4212  0.0311 -0.0617
 6219TIP3    H118663   2.444   5.909   0.426  0.1203 -0.4502  0.4150
 6219TIP3    H218664   2.344   5.990   0.506 -0.6399 -1.3164  0.3473
 6220TIP3   OH218665   4.085   4.720   1.807 -0.2365 -0.2000  0.0867
 6220TIP3    H118666   4.127   4.654   1.862  1.2764 -2.0087 -2.9849
 6220TIP3    H218667   4.145   4.794   1.808 -0.9866  0.4502  1.9768
 6221TIP3   OH218668   5.137   4.858   3.998  0.0438 -0.5671 -0.1396
 6221TIP3    H118669   5.076   4.924   3.966  0.6821  0.5273  0.7947
 6221TIP3    H218670   5.223   4.900   3.991  0.3474 -0.8288  1.5809
 6222TIP3   OH218671   0.778   3.288   0.825 -0.2928 -0.1973 -0.3834
 6222TIP3    H118672   0.849   3.283   0.889 -1.6568 -0.4996  1.1816
 6222TIP3    H218673   0.699   3.270   0.876 -1.7129  1.9757 -1.6690
 6223TIP3   OH218674   0.221   4.514   4.043 -0.2938 -0.5982 -0.0108
 6223TIP3    H118675   0.155   4.568   4.088  0.9695  0.1850  0.9485
 6223TIP3    H218676   0.302   4.530   4.091  0.5509 -1.7755 -0.9970
 6224TIP3   OH218677   0.039   5.760   1.117  0.5745 -0.4997 -0.1247
 6224TIP3    H118678   0.125   5.751   1.159  1.1359 -2.5899 -1.5565
 6224TIP3    H218679  -0.021   5.713   1.175  0.9598 -1.5467 -0.5543
 6225TIP3   OH218680   2.222   3.182   4.062 -0.4656 -0.6473  0.0238
 6225TIP3    H118681   2.238   3.191   3.968  0.4814  0.6525  0.2812
 6225TIP3    H218682   2.294   3.127   4.093  0.4158  0.6203  0.2940
 6226TIP3   OH218683   4.139   3.721   4.549 -0.3611 -0.3825  0.2182
 6226TIP3    H118684   4.063   3.766   4.585 -0.4859 -1.3664  1.2311
 6226TIP3    H218685   4.118   3.708   4.456  0.0994  2.4821 -0.3680
 6227TIP3   OH218686   2.632   1.013   1.830 -0.2342 -0.3234 -0.5339
 6227TIP3    H118687   2.671   1.067   1.899  0.0954 -0.6284 -0.4801
 6227TIP3    H218688   2.611   1.075   1.760 -1.2115  0.0917  0.1164
 6228TIP3   OH218689   3.378   3.460   1.537 -0.0364  0.1409 -0.2704
 6228TIP3    H118690   3.410   3.406   1.609 -1.0180 -0.4584 -0.2622
 6228TIP3    H218691   3.288   3.481   1.561  0.7922  3.2360  0.5375
 6229TIP3   OH218692   5.371   0.704   1.727 -0.2789  0.0491 -0.2497
 6229TIP3    H118693   5.454   0.669   1.697  0.3710  0.3842  1.0749
 6229TIP3    H218694   5.308   0.634   1.711 -0.0762  0.3465 -2.6770
 6230TIP3   OH218695   0.647   5.804   4.783 -0.2654  0.1410 -0.1585
 6230TIP3    H118696   0.633   5.739   4.714 -0.3533  0.6317 -0.6087
 6230TIP3    H218697   0.572   5.792   4.842  1.9960 -3.3270  2.3688
 6231TIP3   OH218698   5.666   3.052   0.967 -0.0918  0.2411  0.6266
 6231TIP3    H118699   5.651   3.077   0.876  1.1173  0.1467  0.3793
 6231TIP3    H218700   5.586   3.077   1.013 -1.5343 -1.4600 -0.8045
 6232TIP3   OH218701   1.402   1.256   3.987  0.4772 -0.2661  0.0145
 6232TIP3    H118702   1.364   1.308   3.916  1.7500 -0.7486 -1.0622
 6232TIP3    H218703   1.343   1.182   3.996  0.0067  0.0789 -0.1596
 6233TIP3   OH218704   0.649   5.401   3.399 -0.6476  0.5279 -0.1724
 6233TIP3    H118705   0.594   5.327   3.372  2.1343 -1.1747 -1.7168
 6233TIP3    H218706   0.668   5.385   3.491 -2.0107  0.7033  0.1582
 6234TIP3   OH218707   1.202   4.554   2.873  0.8460  0.5687  0.5652
 6234TIP3    H118708   1.244   4.615   2.812  1.3031 -0.7394 -0.4687
 6234TIP3    H218709   1.109   4.575   2.866  0.5002 -1.2910 -2.7506
 6235TIP3   OH218710   5.130   0.752   1.133 -0.4353  0.3005 -0.0376
 6235TIP3    H118711   5.170   0.827   1.177 -0.2520 -0.0665  0.4306
 6235TIP3    H218712   5.087   0.789   1.057 -0.5741  0.9195  0.3379
 6236TIP3   OH218713   5.655   3.709   2.481 -0.3133 -0.8776 -1.2411
 6236TIP3    H118714   5.631   3.642   2.545 -0.6789  1.3874  1.1666
 6236TIP3    H218715   5.585   3.707   2.416 -1.3556 -1.4999 -0.1356
 6237TIP3   OH218716   0.669   1.703   0.958 -0.4346 -0.3289 -0.2730
 6237TIP3    H118717   0.609   1.775   0.982 -1.3669 -1.8370  2.3693
 6237TIP3    H218718   0.629   1.664   0.880 -0.9671  0.8202 -0.6068
 6238TIP3   OH218719   6.008   5.087   4.505 -0.1689  0.3081  0.0673
 6238TIP3    H118720   5.974   5.056   4.589 -0.0652  1.7838  0.6931
 6238TIP3    H218721   6.102   5.074   4.511  0.2160  2.9916  1.4155
 6239TIP3   OH218722   6.152   2.464   3.742  0.4809 -0.1630 -0.3004
 6239TIP3    H118723   6.143   2.559   3.753  0.2642 -0.1356 -0.6866
 6239TIP3    H218724   6.245   2.451   3.723  0.3544  0.0614 -1.0909
 6240TIP3   OH218725   5.420   0.385   2.257  0.2073  0.1292 -0.0289
 6240TIP3    H118726   5.361   0.316   2.229  1.3543  0.2608 -3.1605
 6240TIP3    H218727   5.409   0.389   2.352 -2.4854 -1.8912 -0.1403
 6241TIP3   OH218728   1.727   0.597   2.951  0.5189 -0.3422  0.3144
 6241TIP3    H118729   1.789   0.669   2.960 -0.3549  0.4213  0.3058
 6241TIP3    H218730   1.718   0.585   2.856 -1.9872  1.9286  0.1418
 6242TIP3   OH218731   0.296   0.601   1.497 -0.0109  0.5830 -0.0352
 6242TIP3    H118732   0.217   0.651   1.473 -1.6476 -1.7070  0.2504
 6242TIP3    H218733   0.280   0.574   1.587  0.8160 -0.4597 -0.1928
 6243TIP3   OH218734   1.284   0.108   3.494 -0.0029 -0.3369  0.7452
 6243TIP3    H118735   1.279   0.130   3.401  0.1342 -0.6890  0.6535
 6243TIP3    H218736   1.210   0.051   3.510  1.2819 -2.2287  0.3000
 6244TIP3   OH218737   5.176   1.573   2.177  0.3710 -0.2564 -0.7999
 6244TIP3    H118738   5.262   1.614   2.171 -0.0102  0.4606 -1.5650
 6244TIP3    H218739   5.149   1.586   2.268  1.8789 -2.2020 -0.0063
 6245TIP3   OH218740   2.323   2.767   4.126  0.2812 -0.3112 -0.3401
 6245TIP3    H118741   2.243   2.782   4.175 -0.7221  0.8418 -2.2193
 6245TIP3    H218742   2.391   2.813   4.176 -0.7450  1.0472 -0.1586
 6246TIP3   OH218743   0.456   0.806   1.655 -0.5070  0.1653 -0.4172
 6246TIP3    H118744   0.411   0.758   1.586 -0.3684 -0.4770 -0.0685
 6246TIP3    H218745   0.539   0.833   1.615 -1.3565  1.7647 -1.2172
 6247TIP3   OH218746   1.472   2.918   3.708  0.2218  0.6021 -0.0394
 6247TIP3    H118747   1.385   2.937   3.744  0.4648  1.2839  0.1988
 6247TIP3    H218748   1.531   2.974   3.758  0.7217  0.6126 -0.6338
 6248TIP3   OH218749   4.720   0.636   0.487 -0.8222 -0.3569  0.3566
 6248TIP3    H118750   4.641   0.604   0.442 -0.7686  0.9379 -0.7356
 6248TIP3    H218751   4.696   0.636   0.579 -2.2683  0.3829  0.0157
 6249TIP3   OH218752   0.440   3.759   1.639 -0.0335  0.3776  0.0968
 6249TIP3    H118753   0.395   3.834   1.599  1.3009  2.5219  2.3610
 6249TIP3    H218754   0.377   3.725   1.703  0.1787  1.0065  0.6442
 6250TIP3   OH218755   5.908   5.626   3.230  0.2141  0.4904  0.5597
 6250TIP3    H118756   5.930   5.598   3.142  0.5636  0.7737  0.5555
 6250TIP3    H218757   5.971   5.695   3.250  0.5462 -0.0018  1.2672
 6251TIP3   OH218758   0.791   2.741   4.458 -0.3108  0.1406 -0.2680
 6251TIP3    H118759   0.777   2.666   4.400  1.2840 -0.1089 -0.3983
 6251TIP3    H218760   0.705   2.762   4.493 -0.9169 -1.2429 -0.8695
 6252TIP3   OH218761   1.528   3.249   2.402  0.1533  0.0015 -0.1997
 6252TIP3    H118762   1.478   3.232   2.482  0.2549  1.3051  0.1672
 6252TIP3    H218763   1.540   3.163   2.362  1.4234 -0.9140  1.9621
 6253TIP3   OH218764   3.198   5.365   0.437  0.8187  0.2331 -0.4200
 6253TIP3    H118765   3.206   5.447   0.389 -0.6312  0.5147 -0.2220
 6253TIP3    H218766   3.176   5.392   0.527  2.2243 -0.3283  0.1254
 6254TIP3   OH218767   4.402   2.034   4.054  0.6553 -0.1427  0.1098
 6254TIP3    H118768   4.323   2.029   3.999  1.3767 -0.2118 -0.9652
 6254TIP3    H218769   4.461   1.969   4.016  0.9962 -0.5457  1.3035
 6255TIP3   OH218770   3.116   2.609   1.626  0.3242  0.0151  0.0210
 6255TIP3    H118771   3.159   2.693   1.640  0.0316  0.3660 -1.0884
 6255TIP3    H218772   3.040   2.611   1.685  1.3221 -0.2739  1.3852
 6256TIP3   OH218773   2.903   1.636   3.815  0.0173  0.2043 -0.4933
 6256TIP3    H118774   2.862   1.556   3.848  1.1990 -0.7702 -1.3167
 6256TIP3    H218775   2.961   1.664   3.885  0.1562 -0.0878 -0.4893
 6257TIP3   OH218776   2.198   5.784   1.308 -0.3874  0.5359  0.7921
 6257TIP3    H118777   2.236   5.863   1.345 -0.8931  0.3176  1.8181
 6257TIP3    H218778   2.263   5.752   1.246 -0.5345  2.2141 -0.2897
 6258TIP3   OH218779   2.686   3.882   0.757  0.3275  0.2573 -0.0546
 6258TIP3    H118780   2.742   3.805   0.764 -0.1145  0.0785  2.1173
 6258TIP3    H218781   2.744   3.956   0.771  0.3176  0.1693  0.4561
 6259TIP3   OH218782   2.187   2.738   3.343 -0.4234 -0.1175 -0.0033
 6259TIP3    H118783   2.202   2.763   3.251  0.4311 -0.8803 -0.0796
 6259TIP3    H218784   2.273   2.745   3.384 -0.4402 -1.5269  0.3100
 6260TIP3   OH218785   4.038   2.497   1.553  0.4664 -0.2414 -0.1236
 6260TIP3    H118786   4.090   2.531   1.480  1.0717  0.7321  0.7345
 6260TIP3    H218787   4.012   2.575   1.603  3.2401 -1.0170  2.8183
 6261TIP3   OH218788   5.613   5.498   4.661  0.3438 -0.5984 -0.3216
 6261TIP3    H118789   5.563   5.540   4.731  0.4906  1.1921 -1.2448
 6261TIP3    H218790   5.693   5.468   4.704  1.0826  1.7545  0.0719
 6262TIP3   OH218791   4.547   3.154   4.073  0.4233 -0.0038  0.2825
 6262TIP3    H118792   4.618   3.218   4.067 -0.0553  0.4002 -1.8308
 6262TIP3    H218793   4.591   3.069   4.068  0.8167  0.2333 -0.4180
 6263TIP3   OH218794   3.534   4.372   3.579 -0.2771  0.0861  0.0934
 6263TIP3    H118795   3.620   4.414   3.583 -0.7741  1.1026  0.2612
 6263TIP3    H218796   3.487   4.406   3.655 -0.3351 -1.6182  0.8844
 6264TIP3   OH218797   2.245   1.858   1.130  0.0028  0.5701  0.2565
 6264TIP3    H118798   2.305   1.839   1.057 -0.2027  1.1693 -0.0727
 6264TIP3    H218799   2.302   1.894   1.198  0.3039 -0.6291  0.6650
 6265TIP3   OH218800   3.695   4.354   4.755  0.0377 -0.3858  0.4794
 6265TIP3    H118801   3.712   4.338   4.662  0.5473 -1.5742  0.7639
 6265TIP3    H218802   3.740   4.437   4.772 -1.1194  0.5031 -0.6122
 6266TIP3   OH218803   4.969   4.150   2.250 -0.8004  0.1143 -0.0276
 6266TIP3    H118804   5.054   4.147   2.205  0.4067  0.3365  2.0846
 6266TIP3    H218805   4.950   4.059   2.270 -1.9502 -0.1219 -1.9377
 6267TIP3   OH218806   2.413   4.225   0.280 -0.5711 -0.0473  0.8198
 6267TIP3    H118807   2.343   4.221   0.214  0.6941  3.4027 -1.0380
 6267TIP3    H218808   2.493   4.230   0.228  0.6229  1.0470  2.6739
 6268TIP3   OH218809   0.463   0.388   0.319 -0.1399 -0.5338  0.1291
 6268TIP3    H118810   0.383   0.433   0.344  0.3023  0.0015  0.6079
 6268TIP3    H218811   0.433   0.305   0.280 -0.8955 -0.6529  0.9414
 6269TIP3   OH218812   0.730   5.897   3.132  0.1090  0.6326 -0.3668
 6269TIP3    H118813   0.686   5.981   3.141 -0.7127  0.0487  2.1750
 6269TIP3    H218814   0.661   5.836   3.106  0.3090  0.4515 -0.4808
 6270TIP3   OH218815   1.313   2.892   2.518  0.2338  0.0838  0.2898
 6270TIP3    H118816   1.371   2.887   2.594 -1.5762 -1.1839  1.6743
 6270TIP3    H218817   1.237   2.841   2.543 -0.3912 -0.4812 -2.4647
 6271TIP3   OH218818   3.349   0.024   4.154 -0.4512  0.2881  0.3518
 6271TIP3    H118819   3.362   0.106   4.201  0.9844 -0.8283  2.0309
 6271TIP3    H218820   3.435  -0.018   4.153 -0.6228 -0.2107 -2.5118
 6272TIP3   OH218821   2.827   2.182   2.233  0.0913  0.1592 -0.2565
 6272TIP3    H118822   2.750   2.124   2.227  0.2630 -0.0089 -0.8674
 6272TIP3    H218823   2.816   2.227   2.317 -1.4232  1.1820 -0.9452
 6273TIP3   OH218824   4.842   0.430   4.361  0.4684 -0.2885  0.2413
 6273TIP3    H118825   4.937   0.427   4.355  0.3413 -2.9144 -3.7979
 6273TIP3    H218826   4.815   0.489   4.291 -0.8616 -1.9535 -0.7306
 6274TIP3   OH218827   0.531   5.206   0.103  0.2920 -0.2055  0.4333
 6274TIP3    H118828   0.504   5.179   0.015  0.8538 -0.1655  0.2419
 6274TIP3    H218829   0.497   5.295   0.112  0.3168 -0.1729  0.2169
 6275TIP3   OH218830   5.918   5.868   3.648 -0.6063  0.3803 -0.0646
 6275TIP3    H118831   5.903   5.911   3.732 -0.8488 -2.8014  1.6771
 6275TIP3    H218832   5.831   5.861   3.608 -0.8818 -0.2966  0.6307
 6276TIP3   OH218833   1.783   1.226   2.731  0.1791 -0.1190 -0.3079
 6276TIP3    H118834   1.736   1.212   2.649  0.5771 -1.0540 -0.3934
 6276TIP3    H218835   1.852   1.160   2.731  0.1326 -0.1964  0.8267
 6277TIP3   OH218836   4.083   4.955   5.031  0.1651  0.0741 -0.5183
 6277TIP3    H118837   4.084   4.921   5.120  0.3164 -0.0844 -0.5799
 6277TIP3    H218838   3.996   4.994   5.021 -0.2740 -0.9164 -0.6745
 6278TIP3   OH218839   3.561   0.842   3.944 -1.3101  0.2928 -0.2252
 6278TIP3    H118840   3.476   0.806   3.971 -0.5569 -0.6155  1.0614
 6278TIP3    H218841   3.587   0.900   4.016 -0.3894 -0.2158 -0.1286
 6279TIP3   OH218842   1.409   2.063   3.443  0.0065  0.0205  0.2364
 6279TIP3    H118843   1.479   2.128   3.432  1.2476 -1.0653  1.4692
 6279TIP3    H218844   1.382   2.043   3.353  0.9151  0.8216 -0.2438
 6280TIP3   OH218845   0.681   4.576   0.286  0.1324  0.1454 -0.2403
 6280TIP3    H118846   0.626   4.599   0.361  2.1819 -0.6636  1.6218
 6280TIP3    H218847   0.746   4.647   0.281  0.8027 -0.4648 -0.3870
 6281TIP3   OH218848   1.389   4.034   0.325  0.0524 -0.2331  0.1379
 6281TIP3    H118849   1.362   4.068   0.410 -1.5308  3.0040 -1.4582
 6281TIP3    H218850   1.470   4.081   0.305 -1.0258  1.1589 -1.2076
 6282TIP3   OH218851   2.777   5.099   3.033 -0.2322  0.0547 -0.4236
 6282TIP3    H118852   2.782   5.090   3.128  1.0561  0.0925 -0.4753
 6282TIP3    H218853   2.775   5.194   3.018  1.5111  0.1156 -0.4860
 6283TIP3   OH218854   6.127   1.579   0.066  0.1455  0.4219 -0.5460
 6283TIP3    H118855   6.072   1.531   0.005 -0.6596  0.6441 -0.0038
 6283TIP3    H218856   6.143   1.519   0.138 -0.9682  0.9676  0.1944
 6284TIP3   OH218857   0.439   5.018   0.733  0.0446  0.2533  0.2982
 6284TIP3    H118858   0.503   5.088   0.740 -0.9223  1.1812  0.0623
 6284TIP3    H218859   0.485   4.949   0.684  0.3935  1.5034 -1.2361
 6285TIP3   OH218860   5.995   1.622   1.543 -0.5684  0.1114 -0.1051
 6285TIP3    H118861   5.922   1.667   1.500  0.6945  2.6870  0.2397
 6285TIP3    H218862   6.066   1.624   1.478  0.6123  1.9121  1.1545
 6286TIP3   OH218863   1.013   3.435   0.244  0.1081 -0.2132 -0.3435
 6286TIP3    H118864   1.030   3.341   0.247 -0.5612 -0.3235  1.3408
 6286TIP3    H218865   0.958   3.452   0.321 -2.5649  1.0197 -2.3586
 6287TIP3   OH218866   4.537   2.483   3.207 -0.0804  0.0615  0.2159
 6287TIP3    H118867   4.488   2.564   3.221  0.1655  0.7751 -2.5457
 6287TIP3    H218868   4.626   2.512   3.187  0.3846 -0.9859  0.6999
 6288TIP3   OH218869   3.477   4.502   3.810  0.2325  0.3085 -0.0053
 6288TIP3    H118870   3.439   4.589   3.803  1.2022  0.7438 -0.0859
 6288TIP3    H218871   3.554   4.514   3.866  0.5388 -0.4386 -0.2437
 6289TIP3   OH218872   4.962   4.853   2.291  0.1688 -0.6344  0.1643
 6289TIP3    H118873   5.020   4.927   2.269  1.3683 -1.6069 -0.0286
 6289TIP3    H218874   4.922   4.829   2.207  1.3409 -1.4927 -0.1671
 6290TIP3   OH218875   0.154   1.736   0.426  0.0938  0.6568  0.1116
 6290TIP3    H118876   0.165   1.660   0.483  0.0092  1.0630  0.6709
 6290TIP3    H218877   0.231   1.790   0.443  0.2425  0.6238 -0.4164
 6291TIP3   OH218878   4.320   5.132   1.199 -0.3312  0.1383  0.2906
 6291TIP3    H118879   4.361   5.078   1.267 -1.7784 -2.5414 -0.8443
 6291TIP3    H218880   4.231   5.145   1.230 -1.7364 -3.0143 -1.9123
 6292TIP3   OH218881   5.256   0.169   2.201  0.0590 -0.3009  0.1217
 6292TIP3    H118882   5.244   0.074   2.200 -0.9158 -0.2965 -3.6995
 6292TIP3    H218883   5.192   0.202   2.137  1.2745  2.7998  0.3416
 6293TIP3   OH218884   1.748   3.034   1.982  0.2837  0.1550  0.6181
 6293TIP3    H118885   1.683   3.101   1.963  1.5437  1.9989  2.4925
 6293TIP3    H218886   1.832   3.076   1.967  1.1376 -1.8497 -0.7168
 6294TIP3   OH218887   0.694   3.230   4.695  0.2874  0.6253 -0.8709
 6294TIP3    H118888   0.719   3.245   4.786 -2.0814  1.5916 -0.3109
 6294TIP3    H218889   0.748   3.155   4.667  1.1075  0.3559  1.2763
 6295TIP3   OH218890   0.986   5.798   1.630  0.6308  0.0514 -0.2291
 6295TIP3    H118891   1.068   5.754   1.653  0.0406 -0.6762  0.5507
 6295TIP3    H218892   0.976   5.866   1.697  0.7790  0.3886 -0.5451
 6296TIP3   OH218893   1.735   1.294   4.417 -0.0716  0.0338 -0.0408
 6296TIP3    H118894   1.727   1.321   4.326  1.3460 -0.8566 -0.4796
 6296TIP3    H218895   1.723   1.199   4.415  1.3117 -0.1851  0.4589
 6297TIP3   OH218896   0.873   2.072   3.457  0.7975  0.5997  0.0409
 6297TIP3    H118897   0.848   2.163   3.441  0.3776  0.3638 -0.6897
 6297TIP3    H218898   0.852   2.058   3.550 -0.4964  0.8319 -0.1972
 6298TIP3   OH218899   6.211   0.114   5.009  0.4564  0.4911 -0.2626
 6298TIP3    H118900   6.121   0.122   4.979  0.3554  2.4758  0.4186
 6298TIP3    H218901   6.236   0.024   4.988 -1.2396  0.2959 -1.6353
 6299TIP3   OH218902   2.709   2.878   2.788  0.0508  0.1702  0.8730
 6299TIP3    H118903   2.713   2.792   2.746  2.0040  1.4887 -1.8804
 6299TIP3    H218904   2.799   2.897   2.813 -0.4805  1.1501  2.1487
 6300TIP3   OH218905   6.127   3.199   4.898 -0.0583 -0.4224  0.1710
 6300TIP3    H118906   6.097   3.262   4.964  0.3807 -0.2898  0.2481
 6300TIP3    H218907   6.157   3.124   4.949  0.8539 -0.0741  0.1583
 6301TIP3   OH218908   5.817   1.789   4.280  0.0068 -0.4331  0.1311
 6301TIP3    H118909   5.783   1.735   4.351 -0.4138  0.7873  0.9094
 6301TIP3    H218910   5.911   1.773   4.280 -0.1766 -1.5832 -0.0460
 6302TIP3   OH218911   1.396   1.936   4.001  0.3392 -0.2567 -0.0640
 6302TIP3    H118912   1.404   1.856   3.948  1.8152 -0.1470 -0.0266
 6302TIP3    H218913   1.358   2.000   3.941 -1.2030 -1.0492 -0.0005
 6303TIP3   OH218914   1.218   2.952   3.028  0.2680 -0.3192 -0.1776
 6303TIP3    H118915   1.270   2.874   3.046  1.9773  0.3459 -1.9265
 6303TIP3    H218916   1.127   2.922   3.034  0.8731 -2.1552  0.3448
 6304TIP3   OH218917   1.542   5.766   3.941  0.2263  0.5771 -0.2103
 6304TIP3    H118918   1.527   5.677   3.910  1.1234  0.9352 -1.8535
 6304TIP3    H218919   1.455   5.802   3.956 -0.1277 -0.7266  0.9868
 6305TIP3   OH218920   4.167   4.247   4.170  0.4121 -0.8415  0.0955
 6305TIP3    H118921   4.186   4.321   4.227  0.8585 -0.8531 -0.0367
 6305TIP3    H218922   4.145   4.286   4.085 -0.0029 -0.8353  0.2035
 6306TIP3   OH218923   5.778   2.943   0.412 -0.2225  0.8473 -0.2979
 6306TIP3    H118924   5.723   3.019   0.432 -1.4544 -0.1557  0.2953
 6306TIP3    H218925   5.716   2.870   0.402  1.0352 -0.7333  2.2091
 6307TIP3   OH218926   2.484   4.012   4.897 -0.1856 -0.6053  0.6773
 6307TIP3    H118927   2.395   3.999   4.930 -1.3258  0.0485 -1.9529
 6307TIP3    H218928   2.501   3.937   4.841  0.2221  0.1344 -0.2264
 6308TIP3   OH218929   1.522   3.022   1.001  0.2968 -0.0428 -0.0999
 6308TIP3    H118930   1.520   3.032   1.097 -0.2556  0.1136 -0.1296
 6308TIP3    H218931   1.519   2.927   0.988  0.6726 -0.0779  0.0435
 6309TIP3   OH218932   4.286   3.084   4.021 -0.8267 -0.4972 -0.2647
 6309TIP3    H118933   4.370   3.122   4.048 -1.9157  2.3679 -0.6399
 6309TIP3    H218934   4.306   3.043   3.936  0.4949 -1.2735  0.3761
 6310TIP3   OH218935   0.839   3.175   1.624  0.3403 -0.0957  0.0284
 6310TIP3    H118936   0.885   3.127   1.693  0.7626  0.4418  0.1284
 6310TIP3    H218937   0.906   3.195   1.559  0.2961  0.8570  0.2654
 6311TIP3   OH218938   3.949   0.304  -0.015 -0.4265  0.0636  0.1990
 6311TIP3    H118939   3.864   0.301   0.030  0.1746  1.8908  1.5743
 6311TIP3    H218940   3.973   0.396  -0.015  1.6930 -0.4376  0.0747
 6312TIP3   OH218941   6.173   1.282   2.628  0.1737 -0.2549 -0.7697
 6312TIP3    H118942   6.254   1.296   2.678  0.0694  1.6640 -1.0615
 6312TIP3    H218943   6.107   1.265   2.695  0.9839 -3.1587 -0.5807
 6313TIP3   OH218944   4.642   0.950   4.233 -0.6098  0.0058 -0.2455
 6313TIP3    H118945   4.623   1.042   4.251 -1.0589 -0.0154 -0.5985
 6313TIP3    H218946   4.733   0.950   4.203  0.0958  0.0667  1.7716
 6314TIP3   OH218947   2.080   4.090   0.397 -0.4047 -0.2488 -0.1686
 6314TIP3    H118948   2.165   4.114   0.433  0.5307 -2.9773 -0.2809
 6314TIP3    H218949   2.042   4.030   0.462 -0.3245 -2.3288 -1.8983
 6315TIP3   OH218950   2.864   5.201   0.562  0.5058  0.4141  0.2897
 6315TIP3    H118951   2.879   5.124   0.617  2.1077 -0.0108 -0.6754
 6315TIP3    H218952   2.825   5.166   0.481  2.9526  0.2832 -0.9270
 6316TIP3   OH218953   2.345   1.608   0.251 -0.4887 -0.1887  0.1397
 6316TIP3    H118954   2.403   1.634   0.322  1.3849 -1.6305 -0.7702
 6316TIP3    H218955   2.402   1.560   0.190 -1.9220  1.2294 -2.4896
 6317TIP3   OH218956   6.147   3.046   3.054  0.5257 -0.3678 -0.7954
 6317TIP3    H118957   6.082   3.092   3.000 -1.0025  1.2705  2.1681
 6317TIP3    H218958   6.096   2.983   3.104  1.6544 -0.8562 -0.2216
 6318TIP3   OH218959   4.321   1.682   2.543 -0.0979  0.0193  0.4634
 6318TIP3    H118960   4.354   1.664   2.455 -2.1057 -0.6805 -0.1986
 6318TIP3    H218961   4.398   1.712   2.591  0.9869  0.8319 -1.6214
 6319TIP3   OH218962   1.133   1.646   0.576 -0.3091 -0.3113  0.0580
 6319TIP3    H118963   1.223   1.614   0.583 -0.2592 -0.1125  0.3455
 6319TIP3    H218964   1.105   1.659   0.667 -1.2703 -2.1190  0.0582
 6320TIP3   OH218965   4.531   4.690   3.384  0.2365 -0.1793 -0.3936
 6320TIP3    H118966   4.520   4.765   3.325 -0.2466  0.4384  0.4545
 6320TIP3    H218967   4.568   4.621   3.329  1.7433  1.0169 -0.9543
 6321TIP3   OH218968   5.654   4.195   2.521  0.6968 -0.3257  0.0399
 6321TIP3    H118969   5.577   4.149   2.554  0.4021  0.6877  0.8074
 6321TIP3    H218970   5.675   4.259   2.589  0.0490  1.8728 -1.7050
 6322TIP3   OH218971   0.233   1.621   0.672 -0.2648 -0.5490  0.4243
 6322TIP3    H118972   0.314   1.634   0.722 -0.2081  1.3478 -0.0557
 6322TIP3    H218973   0.181   1.562   0.725  0.3815  0.2541  2.0236
 6323TIP3   OH218974   3.271   1.472   3.495  0.3467  0.1770  0.2969
 6323TIP3    H118975   3.177   1.455   3.492 -0.0550  1.9710  1.4667
 6323TIP3    H218976   3.285   1.541   3.430  0.7586  0.3390  0.5544
 6324TIP3   OH218977   6.313   1.780   4.508  0.2028  0.3153  0.5721
 6324TIP3    H118978   6.247   1.721   4.471  1.0671  0.4690 -1.3441
 6324TIP3    H218979   6.262   1.843   4.559 -0.8517 -1.2121  1.4912
 6325TIP3   OH218980   6.225   5.502   4.293  0.1131  0.0303 -0.3788
 6325TIP3    H118981   6.167   5.569   4.329  2.0473  1.8372 -0.4698
 6325TIP3    H218982   6.265   5.461   4.370  0.4461  0.3804 -0.3656
 6326TIP3   OH218983   4.236   0.446   0.758 -0.2186  0.2002  0.1874
 6326TIP3    H118984   4.331   0.435   0.769 -0.4522 -0.2218  2.1139
 6326TIP3    H218985   4.227   0.489   0.673  1.5717 -1.6144 -1.0164
 6327TIP3   OH218986   2.242   2.435   0.184  0.3129 -0.1030 -0.2372
 6327TIP3    H118987   2.327   2.395   0.161  0.0333 -0.7841 -0.1177
 6327TIP3    H218988   2.223   2.401   0.271  0.0261  0.2409 -0.1666
 6328TIP3   OH218989   5.720   3.010   1.854  0.1520 -0.5126  0.0587
 6328TIP3    H118990   5.749   2.965   1.933 -0.0178 -1.6877 -0.5360
 6328TIP3    H218991   5.785   2.989   1.788 -0.4046 -0.6405 -0.4642
 6329TIP3   OH218992   2.832   1.430   5.010 -0.8170  0.0344  0.2172
 6329TIP3    H118993   2.845   1.454   4.918 -1.4218 -2.3542 -0.5705
 6329TIP3    H218994   2.767   1.492   5.042 -3.7916 -1.5274 -2.2559
 6330TIP3   OH218995   0.870   3.019   1.839  0.9465  0.3103  0.1974
 6330TIP3    H118996   0.832   3.051   1.921  0.8086  1.4327 -0.2790
 6330TIP3    H218997   0.907   2.934   1.860 -0.1736  0.0399  1.1307
 6331TIP3   OH218998   3.381   2.861   3.581  0.1296  0.1928 -0.6445
 6331TIP3    H118999   3.339   2.797   3.638 -0.1545 -0.3317 -1.4329
 6331TIP3    H219000   3.308   2.910   3.542  0.3412  1.1041  0.0453
 6332TIP3   OH219001   3.381   2.838  -0.007  0.1037 -0.2568  0.2180
 6332TIP3    H119002   3.461   2.786  -0.015  0.0982 -0.1736 -0.4638
 6332TIP3    H219003   3.393   2.888   0.073 -0.0575 -1.5845  1.1109
 6333TIP3   OH219004   4.883   2.608   4.360  0.1044 -0.4957 -0.0579
 6333TIP3    H119005   4.861   2.620   4.268  2.1988  1.1934 -0.4466
 6333TIP3    H219006   4.979   2.604   4.361  0.2516  1.2278  2.1514
 6334TIP3   OH219007   2.540   1.475   0.910  0.3506 -0.1005  0.1634
 6334TIP3    H119008   2.450   1.510   0.907  0.7484  0.9564 -2.4428
 6334TIP3    H219009   2.530   1.382   0.892 -0.1911  0.1296 -0.7816
 6335TIP3   OH219010   1.785   5.290   0.747 -0.3924 -0.4702  0.2362
 6335TIP3    H119011   1.837   5.355   0.700  1.5508 -0.2739  2.4876
 6335TIP3    H219012   1.801   5.308   0.839 -2.5580 -2.0129  1.0058
 6336TIP3   OH219013   4.532   1.161   2.216 -0.6903 -0.0282 -0.0486
 6336TIP3    H119014   4.470   1.173   2.144 -1.7580 -0.1476  0.8203
 6336TIP3    H219015   4.510   1.229   2.279  1.4833  1.2995 -0.6253
 6337TIP3   OH219016   3.213   2.810   1.201  0.6677  0.3875  0.3590
 6337TIP3    H119017   3.251   2.725   1.224 -0.1883 -0.0851  0.1052
 6337TIP3    H219018   3.287   2.870   1.199  1.4524 -0.5676 -0.4701
 6338TIP3   OH219019   4.511   2.598   0.818  0.2170  0.2755  0.1800
 6338TIP3    H119020   4.534   2.508   0.840  1.5066  0.2262 -1.2239
 6338TIP3    H219021   4.594   2.644   0.816 -0.3536  1.3150  0.0481
 6339TIP3   OH219022   4.315   3.523   4.606  0.5595  0.1426  0.4600
 6339TIP3    H119023   4.245   3.587   4.619  0.0321 -0.0709 -1.0750
 6339TIP3    H219024   4.282   3.466   4.536  2.3688  0.1909 -0.4928
 6340TIP3   OH219025   0.977   4.060   1.316  0.0108  0.1310  0.0032
 6340TIP3    H119026   1.051   4.013   1.279 -1.0823 -1.2714 -0.5031
 6340TIP3    H219027   0.978   4.039   1.409 -0.3555 -0.7598 -0.1862
 6341TIP3   OH219028   2.249   0.546   1.143  0.3217 -0.3144  0.1706
 6341TIP3    H119029   2.175   0.595   1.179 -0.3755 -0.6371 -0.7637
 6341TIP3    H219030   2.209   0.468   1.103  1.3961 -1.6230  1.5495
 6342TIP3   OH219031   3.635   2.586   0.705  0.3961  0.5382 -0.0873
 6342TIP3    H119032   3.637   2.499   0.665  0.2553  0.0744  0.8714
 6342TIP3    H219033   3.632   2.646   0.632 -0.1888 -0.2917 -0.7683
 6343TIP3   OH219034   4.926   2.202   0.168 -0.0438 -1.1756 -0.0002
 6343TIP3    H119035   4.845   2.181   0.121 -0.9296 -0.8171  1.3125
 6343TIP3    H219036   4.918   2.155   0.251  1.3424 -1.5424 -0.0461
 6344TIP3   OH219037   5.001   4.842   1.862  0.4440 -0.5225 -0.2132
 6344TIP3    H119038   4.950   4.793   1.927 -1.0081 -0.0546 -0.9364
 6344TIP3    H219039   5.002   4.932   1.894  0.0980 -0.3736 -0.6085
 6345TIP3   OH219040   4.158   1.873   2.672 -0.0356 -0.1122 -0.2694
 6345TIP3    H119041   4.206   1.941   2.625 -0.3913  0.6885  0.4935
 6345TIP3    H219042   4.189   1.791   2.633  0.7577  0.4527 -0.8795
 6346TIP3   OH219043   3.086   2.346   1.953 -0.0866 -0.1400 -0.4843
 6346TIP3    H119044   3.061   2.438   1.955  1.1324  0.1990 -0.4624
 6346TIP3    H219045   3.030   2.308   1.885 -1.3435  0.3664  0.2276
 6347TIP3   OH219046   3.311   0.272   4.373  0.6621  0.6412 -0.8957
 6347TIP3    H119047   3.244   0.206   4.394  0.6984  0.9586  0.2812
 6347TIP3    H219048   3.394   0.225   4.380  0.5942  0.2930 -2.1771
 6348TIP3   OH219049   0.265   2.497   1.982 -0.2793 -0.7873  0.5359
 6348TIP3    H119050   0.199   2.535   2.040 -0.9834  0.1506 -0.8267
 6348TIP3    H219051   0.215   2.453   1.914  0.5283 -1.7673  0.5519
 6349TIP3   OH219052   3.599   0.688   1.590 -0.2348 -0.1151 -0.5172
 6349TIP3    H119053   3.683   0.642   1.592  0.0383  0.4125  1.4515
 6349TIP3    H219054   3.592   0.731   1.675 -2.3766  0.1045 -0.7417
 6350TIP3   OH219055   0.309   2.987   0.029 -0.0581  0.4020 -0.8511
 6350TIP3    H119056   0.264   2.948   0.105  0.7093 -1.1076 -1.1311
 6350TIP3    H219057   0.248   3.053  -0.003 -1.1279 -0.0862  0.0808
 6351TIP3   OH219058   2.955   0.806   1.069 -0.5286  0.3666 -0.0565
 6351TIP3    H119059   2.963   0.896   1.103  1.6158  0.5843 -0.9572
 6351TIP3    H219060   2.954   0.817   0.974 -0.4150 -0.5540 -0.1679
 6352TIP3   OH219061   3.735   5.649   0.783 -0.0487 -0.1291 -0.1997
 6352TIP3    H119062   3.717   5.556   0.798  0.1317  0.1055  1.7705
 6352TIP3    H219063   3.677   5.694   0.845  0.7056  1.0153 -0.2977
 6353TIP3   OH219064   2.582   5.748   3.080 -0.2517  0.4603  0.3183
 6353TIP3    H119065   2.597   5.814   3.012  1.9209 -0.8804 -0.6424
 6353TIP3    H219066   2.511   5.695   3.046  2.0956 -1.4302 -2.0797
 6354TIP3   OH219067   5.693   4.761   0.436 -0.3474  0.1689  0.3209
 6354TIP3    H119068   5.606   4.741   0.401  0.0019 -0.2400 -0.3292
 6354TIP3    H219069   5.711   4.691   0.498 -0.5713  0.3830  0.6358
 6355TIP3   OH219070   5.357   4.659   1.096 -0.4085 -0.0740  0.0511
 6355TIP3    H119071   5.376   4.746   1.063  0.0610 -0.8067 -1.7443
 6355TIP3    H219072   5.311   4.615   1.024  0.2827 -1.6187  0.4983
 6356TIP3   OH219073   0.171   1.367   1.568  0.2489  0.2780  0.5547
 6356TIP3    H119074   0.191   1.374   1.475  0.2226  2.5979  0.6607
 6356TIP3    H219075   0.255   1.347   1.609  0.4772  0.3357  0.1285
 6357TIP3   OH219076   2.740   4.000   1.960  0.3840 -0.2494 -0.5346
 6357TIP3    H119077   2.824   3.958   1.946 -0.1109 -1.7235  0.5584
 6357TIP3    H219078   2.744   4.033   2.050  0.5648  1.6538 -1.1937
 6358TIP3   OH219079   2.800   0.562   2.583 -0.2064 -0.1293  0.3299
 6358TIP3    H119080   2.787   0.504   2.508 -0.7162 -0.0891  0.3850
 6358TIP3    H219081   2.835   0.642   2.545 -2.0382  0.5160 -0.0953
 6359TIP3   OH219082   3.541   5.346   0.026  0.2876  0.1992 -0.4421
 6359TIP3    H119083   3.576   5.432   0.003  1.7962 -0.5741 -1.2296
 6359TIP3    H219084   3.606   5.309   0.086 -0.7614 -0.0793  0.5473
 6360TIP3   OH219085   3.116   3.554   4.692  0.0805  0.3149 -0.1887
 6360TIP3    H119086   3.119   3.632   4.748 -2.3262 -0.2107  0.8219
 6360TIP3    H219087   3.128   3.587   4.603  2.2345  1.3981  0.4402
 6361TIP3   OH219088   4.475   4.732   4.540  0.2295 -0.0863 -0.1101
 6361TIP3    H119089   4.436   4.680   4.470  1.3089 -0.2051 -0.6434
 6361TIP3    H219090   4.474   4.822   4.506  1.0930 -0.1938 -0.4644
 6362TIP3   OH219091   2.992   2.456   0.331  0.2348  0.4355  0.4519
 6362TIP3    H119092   2.916   2.496   0.373 -0.4310 -0.0573 -0.2549
 6362TIP3    H219093   3.002   2.504   0.249  0.5615  0.3613  0.4474
 6363TIP3   OH219094   1.011   1.151   3.798  0.0606 -0.1114  0.2652
 6363TIP3    H119095   0.958   1.086   3.843 -0.2588 -0.1331 -0.1411
 6363TIP3    H219096   0.987   1.143   3.706 -1.9775  2.3457  0.4648
 6364TIP3   OH219097   1.903   3.234   2.936 -0.4283  0.4959  0.5949
 6364TIP3    H119098   1.815   3.227   2.972 -0.4667 -0.0342  0.4071
 6364TIP3    H219099   1.891   3.258   2.844 -0.3731  0.5789  0.6093
 6365TIP3   OH219100   3.940   1.135   4.389 -0.1541 -0.2891 -0.2534
 6365TIP3    H119101   4.015   1.183   4.356 -1.2742  1.1273 -0.8027
 6365TIP3    H219102   3.899   1.096   4.312 -0.9535  0.3821 -0.1862
 6366TIP3   OH219103   1.148   3.152   2.157 -0.3477  0.4171  0.6983
 6366TIP3    H119104   1.117   3.140   2.247  1.7188  1.3478  1.6076
 6366TIP3    H219105   1.166   3.246   2.151  3.0608 -0.1163  0.6243
 6367TIP3   OH219106   2.599   0.858   3.908 -0.0159 -0.2449 -0.8158
 6367TIP3    H119107   2.565   0.769   3.896  1.5995 -0.8730 -1.0117
 6367TIP3    H219108   2.580   0.903   3.826  1.1884 -1.1338 -1.6113
 6368TIP3   OH219109   2.738   2.924   0.512 -0.6915 -0.0004 -0.4098
 6368TIP3    H119110   2.753   2.851   0.451 -1.2636 -0.4627 -0.0100
 6368TIP3    H219111   2.647   2.913   0.539 -0.7632  0.8390 -0.3005
 6369TIP3   OH219112   0.353   0.140   0.249  0.6935 -0.1932 -0.4960
 6369TIP3    H119113   0.394   0.066   0.294 -0.9000 -1.9695 -1.8633
 6369TIP3    H219114   0.272   0.156   0.298  0.8683  0.4693 -0.4072
 6370TIP3   OH219115   0.269   1.827   0.166 -0.1859  0.0784  0.0724
 6370TIP3    H119116   0.253   1.755   0.228 -0.3949  0.0630 -0.0011
 6370TIP3    H219117   0.198   1.821   0.103 -0.4262  0.5978  0.2909
 6371TIP3   OH219118   2.947   5.692   0.219 -0.0382 -0.0600  0.4013
 6371TIP3    H119119   2.910   5.691   0.307 -1.1962 -3.0767  0.0190
 6371TIP3    H219120   3.030   5.644   0.227 -0.0834 -0.2361 -0.1235
 6372TIP3   OH219121   2.131   3.746   2.543 -0.0394 -0.0999 -0.0612
 6372TIP3    H119122   2.125   3.841   2.532  0.5893 -0.3121 -3.0764
 6372TIP3    H219123   2.221   3.730   2.570 -0.0862  0.1287  0.2349
 6373TIP3   OH219124   5.895   0.062   3.101 -0.1746 -0.6355 -0.3566
 6373TIP3    H119125   5.900   0.028   3.012 -0.2936  0.1286 -0.6569
 6373TIP3    H219126   5.937  -0.005   3.155 -0.5471 -1.3327 -0.9190
 6374TIP3   OH219127   5.436   5.258   3.897  0.5411  0.2961 -0.0835
 6374TIP3    H119128   5.432   5.349   3.925  0.3883  0.4950 -0.7309
 6374TIP3    H219129   5.470   5.262   3.808 -0.1037 -0.2241 -0.3631
 6375TIP3   OH219130   0.914   0.544   2.262  0.1303  0.4741  0.4958
 6375TIP3    H119131   0.910   0.521   2.169  4.3605 -0.4103  0.3010
 6375TIP3    H219132   0.874   0.631   2.267 -1.9278 -0.2252 -1.7146
 6376TIP3   OH219133   6.147   2.004   0.786 -0.1931 -0.3619  0.4688
 6376TIP3    H119134   6.218   2.062   0.759 -1.0101  0.7235  0.5814
 6376TIP3    H219135   6.162   1.924   0.736 -1.1187  1.2241 -2.6505
 6377TIP3   OH219136   3.598   1.266   4.262 -0.8315 -0.5475  0.4518
 6377TIP3    H119137   3.669   1.295   4.206 -1.8415  0.6164 -0.2948
 6377TIP3    H219138   3.586   1.174   4.241 -0.7221 -0.3036 -0.7388
 6378TIP3   OH219139   1.957   4.291   2.489 -0.3444  0.3501  0.2089
 6378TIP3    H119140   1.996   4.376   2.467 -2.3965  1.1226 -0.7401
 6378TIP3    H219141   1.924   4.302   2.578 -0.5073  0.5044  0.1293
 6379TIP3   OH219142   1.909   1.607   1.932 -0.4167 -0.0539 -0.2586
 6379TIP3    H119143   1.940   1.631   2.019 -1.6758  0.1903  0.1356
 6379TIP3    H219144   1.987   1.613   1.876  0.1454  0.9881  0.6097
 6380TIP3   OH219145   6.168   3.813   1.444  0.0149  0.4921 -0.0212
 6380TIP3    H119146   6.177   3.735   1.499 -3.1584 -0.6953 -0.9607
 6380TIP3    H219147   6.204   3.788   1.359  0.3435  0.5654  0.0967
 6381TIP3   OH219148   4.426   4.158   2.521 -0.3754  0.3381  0.5423
 6381TIP3    H119149   4.455   4.070   2.497  0.4685 -0.0362  2.7515
 6381TIP3    H219150   4.398   4.150   2.612 -0.7773  2.2630  0.6282
 6382TIP3   OH219151   3.586   3.696   4.396 -0.2937 -0.0138  0.5005
 6382TIP3    H119152   3.566   3.613   4.439  1.7924 -1.0584 -0.3874
 6382TIP3    H219153   3.681   3.693   4.380 -0.7316  0.6581 -3.2519
 6383TIP3   OH219154   0.414   3.532   2.366  0.0649 -0.5344 -0.3135
 6383TIP3    H119155   0.509   3.536   2.354  0.0539 -1.3443 -0.7493
 6383TIP3    H219156   0.384   3.467   2.302 -0.8126 -0.1288 -0.3369
 6384TIP3   OH219157   5.884   0.754   0.981  0.2746 -0.1988 -0.0872
 6384TIP3    H119158   5.847   0.785   0.898  1.0825 -3.1268 -1.7012
 6384TIP3    H219159   5.973   0.725   0.958  0.2714 -1.7285  1.6121
 6385TIP3   OH219160   3.583   1.340   1.202 -0.1095  0.0461 -0.4331
 6385TIP3    H119161   3.501   1.290   1.207 -0.1459  0.1953  0.5646
 6385TIP3    H219162   3.585   1.392   1.282  1.1182 -0.1941 -0.2854
 6386TIP3   OH219163   3.748   2.154   3.662  0.6151 -0.0302  0.9504
 6386TIP3    H119164   3.666   2.127   3.705  0.4675 -0.8798  0.1664
 6386TIP3    H219165   3.815   2.144   3.729  0.2439 -0.4175  1.2704
 6387TIP3   OH219166   0.803   2.974   4.755  0.3920  0.0798 -0.2619
 6387TIP3    H119167   0.870   3.022   4.805  1.5425  1.1105 -2.6130
 6387TIP3    H219168   0.848   2.894   4.725 -0.3377 -0.6221  0.4686
 6388TIP3   OH219169   4.192   5.702   4.471  0.5553  0.0826  0.7441
 6388TIP3    H119170   4.213   5.710   4.564  0.4348  2.1082  0.6260
 6388TIP3    H219171   4.125   5.768   4.455  0.9182  0.0980 -0.8875
 6389TIP3   OH219172   3.841   3.605   4.309 -0.0621  0.8513 -0.0877
 6389TIP3    H119173   3.921   3.658   4.318  0.8722  0.0243 -2.6500
 6389TIP3    H219174   3.861   3.524   4.357  0.2462  1.0381  0.1045
 6390TIP3   OH219175   0.446   1.205   3.221  0.0621 -0.0800 -0.0448
 6390TIP3    H119176   0.532   1.242   3.241 -0.6962  0.6748  2.0509
 6390TIP3    H219177   0.432   1.139   3.289 -0.9645 -0.3007 -0.4546
 6391TIP3   OH219178   1.511   0.208   3.646 -1.0553  0.1861  0.2585
 6391TIP3    H119179   1.513   0.152   3.724 -1.0610  0.3492  0.3759
 6391TIP3    H219180   1.432   0.182   3.599 -1.6465  0.8348  0.8596
 6392TIP3   OH219181   5.260   4.454   0.403 -0.0292  0.0259  0.0565
 6392TIP3    H119182   5.244   4.401   0.324  0.6637 -0.4846  0.2505
 6392TIP3    H219183   5.259   4.390   0.474 -0.2753  0.4353  0.4231
 6393TIP3   OH219184   0.866   1.020   5.066  0.4068  0.2610 -0.1201
 6393TIP3    H119185   0.813   0.940   5.065  2.0922 -1.0018  2.0645
 6393TIP3    H219186   0.834   1.069   5.142  1.9725 -0.3159  0.9717
 6394TIP3   OH219187   4.292   5.470   4.868  0.2184  0.2376 -0.1684
 6394TIP3    H119188   4.325   5.517   4.944 -0.3673  1.1673 -0.4768
 6394TIP3    H219189   4.247   5.394   4.905  0.7911  0.1471  0.3584
 6395TIP3   OH219190   1.105   0.739   3.882 -0.2338  0.4248  0.3290
 6395TIP3    H119191   1.130   0.767   3.794  1.8509  0.9979  1.0431
 6395TIP3    H219192   1.129   0.647   3.886 -0.2974  0.4075  0.3208
 6396TIP3   OH219193   2.419   2.919   0.059 -0.0644  0.1315 -0.1183
 6396TIP3    H119194   2.476   2.970   0.117  0.0129 -0.8054  0.6558
 6396TIP3    H219195   2.342   2.974   0.046 -0.4705  0.0113  1.5903
 6397TIP3   OH219196   1.790   4.051   4.242  0.0565  0.4457 -0.0218
 6397TIP3    H119197   1.798   3.956   4.242  0.9250  0.5083  0.5267
 6397TIP3    H219198   1.870   4.082   4.283 -0.9495  1.3531  1.3705
 6398TIP3   OH219199   4.715   2.636   1.779 -0.7709  0.1105  0.5539
 6398TIP3    H119200   4.635   2.665   1.823 -1.0429  0.8082 -0.3675
 6398TIP3    H219201   4.710   2.676   1.692 -0.7969 -2.1182 -0.5287
 6399TIP3   OH219202   5.102   3.620   3.264 -0.3501 -0.5026 -0.2573
 6399TIP3    H119203   5.099   3.646   3.172 -0.4125 -0.2726 -0.1927
 6399TIP3    H219204   5.013   3.635   3.295  0.1784  1.6829  0.4356
 6400TIP3   OH219205   5.543   0.721   4.052 -0.1052  0.3276 -0.2879
 6400TIP3    H119206   5.467   0.760   4.009  1.7254  0.6542 -3.5686
 6400TIP3    H219207   5.578   0.661   3.987  0.9946 -1.8621  2.1446
 6401TIP3   OH219208   3.446   1.488   2.534  0.5045 -0.0589  0.0831
 6401TIP3    H119209   3.505   1.504   2.607  0.7611 -2.0296  0.3766
 6401TIP3    H219210   3.379   1.430   2.569 -0.3194  0.3066 -0.8316
 6402TIP3   OH219211   2.357   1.061   4.102  0.7826  0.0556 -0.2917
 6402TIP3    H119212   2.451   1.061   4.085  0.7525 -2.1434 -0.7407
 6402TIP3    H219213   2.347   1.117   4.178  2.4650  0.3302 -0.2248
 6403TIP3   OH219214   5.227   2.292   2.200 -0.0984  0.4320 -0.1527
 6403TIP3    H119215   5.207   2.302   2.292  1.2256 -1.1293  0.3632
 6403TIP3    H219216   5.289   2.363   2.181 -0.4020  0.7787  0.1290
 6404TIP3   OH219217   3.303   5.554   1.702 -0.1312 -0.6240  0.1577
 6404TIP3    H119218   3.387   5.525   1.739  0.0106 -0.3411  0.0571
 6404TIP3    H219219   3.247   5.567   1.778  0.1907  0.0573  0.2812
 6405TIP3   OH219220   3.665   2.215   0.153  0.4780  0.4513 -0.2346
 6405TIP3    H119221   3.686   2.273   0.226  0.1786 -0.5998  0.7080
 6405TIP3    H219222   3.592   2.258   0.108  1.5922  1.8247 -0.8084
 6406TIP3   OH219223   0.211   3.060   2.781  0.0879 -0.4614  0.5477
 6406TIP3    H119224   0.160   3.061   2.861 -0.7397 -0.9739  0.0425
 6406TIP3    H219225   0.298   3.092   2.807 -0.7856  1.5159  1.2228
 6407TIP3   OH219226   0.597   3.937   0.581 -0.0654  0.0603  0.5887
 6407TIP3    H119227   0.603   4.030   0.557 -1.4473  0.4086  1.4442
 6407TIP3    H219228   0.687   3.909   0.592  0.4576  0.9011 -1.0999
 6408TIP3   OH219229   1.126   1.765   2.518 -0.0951 -0.1049  0.1878
 6408TIP3    H119230   1.184   1.838   2.541  0.4835 -0.6003  0.3174
 6408TIP3    H219231   1.169   1.723   2.444 -0.0353 -0.7799  0.6038
 6409TIP3   OH219232   2.190   4.786   3.011  0.6366  0.1291 -0.5332
 6409TIP3    H119233   2.239   4.869   3.006  0.8835 -0.0133 -0.5221
 6409TIP3    H219234   2.204   4.756   3.101  1.7539 -0.6397 -0.9306
 6410TIP3   OH219235   5.866   4.461   2.557 -0.0658 -0.0199  0.6462
 6410TIP3    H119236   5.938   4.458   2.619  0.5615  0.5718 -0.0244
 6410TIP3    H219237   5.894   4.404   2.485 -0.6617 -0.4870  0.7779
 6411TIP3   OH219238   2.099   5.444   4.337 -0.1914  0.4107 -0.0256
 6411TIP3    H119239   2.144   5.518   4.295 -0.7251  0.8751  0.2110
 6411TIP3    H219240   2.013   5.442   4.294 -1.0586  1.3938  1.5615
 6412TIP3   OH219241   0.889   5.911   4.860  0.4437  0.3448 -0.5778
 6412TIP3    H119242   0.823   5.863   4.811  1.3145 -0.5966 -0.8669
 6412TIP3    H219243   0.858   5.910   4.950  0.4072 -0.7190 -0.5889
 6413TIP3   OH219244   0.386   4.255   4.057 -0.1386 -0.9783 -0.2009
 6413TIP3    H119245   0.298   4.289   4.074  0.8291  0.6821  1.9841
 6413TIP3    H219246   0.426   4.320   4.000  0.5997 -0.1768  1.1974
 6414TIP3   OH219247   0.040   1.815   3.929  0.0151  0.7231 -0.2149
 6414TIP3    H119248  -0.005   1.744   3.884 -1.7840  0.8124  1.3076
 6414TIP3    H219249   0.003   1.895   3.892  3.1014  1.0587 -3.0034
 6415TIP3   OH219250   4.800   5.490   4.553  0.0592  0.3596  0.1038
 6415TIP3    H119251   4.835   5.544   4.624  0.9531  0.2327 -0.2197
 6415TIP3    H219252   4.708   5.478   4.574  0.1471  0.9417  0.8520
 6416TIP3   OH219253   1.717   4.875   0.000  0.2948  0.2761  0.4197
 6416TIP3    H119254   1.689   4.840   0.085  0.9647 -1.0542  0.1062
 6416TIP3    H219255   1.684   4.812  -0.064 -2.7443  2.6643 -0.6579
 6417TIP3   OH219256   2.877   4.449   5.149 -0.4302 -0.5499 -0.3322
 6417TIP3    H119257   2.789   4.416   5.167  0.2789 -3.5319 -1.6989
 6417TIP3    H219258   2.898   4.415   5.062  1.4681  1.5383 -0.8017
 6418TIP3   OH219259   5.405   2.087   2.541  0.3533 -0.0467 -0.1454
 6418TIP3    H119260   5.425   2.180   2.549  0.3279  0.2507 -2.7635
 6418TIP3    H219261   5.491   2.046   2.528  0.3626 -0.4230  0.9900
 6419TIP3   OH219262   0.525   0.749   2.880 -0.4675 -0.4399  0.3390
 6419TIP3    H119263   0.571   0.707   2.807  0.3574 -0.5205  0.8873
 6419TIP3    H219264   0.494   0.676   2.934 -1.2247 -0.3844 -0.0084
 6420TIP3   OH219265   6.171   4.625   1.397 -0.2260  0.1845 -0.0419
 6420TIP3    H119266   6.226   4.547   1.403  2.7760  2.1160 -0.4470
 6420TIP3    H219267   6.127   4.629   1.482 -0.2460 -1.7600  0.0902
 6421TIP3   OH219268   0.769   2.543   1.038  0.2493 -0.0282  0.0758
 6421TIP3    H119269   0.735   2.584   1.118 -0.1930 -0.1090 -0.0697
 6421TIP3    H219270   0.696   2.547   0.976  0.5620 -0.0492 -0.2971
 6422TIP3   OH219271   5.630   0.492   0.679 -0.0187 -0.3576  0.1553
 6422TIP3    H119272   5.587   0.501   0.594 -0.2117  1.0490  0.3804
 6422TIP3    H219273   5.710   0.442   0.660 -0.5053 -0.8321 -0.6914
 6423TIP3   OH219274   0.341   2.042   4.937 -0.4160 -0.2027 -0.1137
 6423TIP3    H119275   0.427   2.008   4.962 -0.2694 -0.4469 -0.9026
 6423TIP3    H219276   0.331   2.122   4.988 -0.7504 -1.3662  1.7381
 6424TIP3   OH219277   1.428   3.242   4.431  0.2236 -0.2473  0.1189
 6424TIP3    H119278   1.507   3.290   4.457  0.0659 -0.2079  0.5422
 6424TIP3    H219279   1.357   3.291   4.473 -0.4635  2.0476 -3.2921
 6425TIP3   OH219280   0.503   3.544   0.230  0.1567  0.0761  0.2689
 6425TIP3    H119281   0.468   3.601   0.162  3.0257  0.0642 -1.3891
 6425TIP3    H219282   0.501   3.457   0.193 -0.9482 -0.4063  1.4032
 6426TIP3   OH219283   3.606   2.102   0.745  0.3532  0.7011 -0.3743
 6426TIP3    H119284   3.623   2.024   0.692 -0.4194 -0.1710  0.6181
 6426TIP3    H219285   3.510   2.112   0.743  0.4271  1.5516 -0.3692
 6427TIP3   OH219286   3.050   5.887   1.173  0.9382  0.5070  0.0168
 6427TIP3    H119287   2.984   5.834   1.217  0.3566  0.0244 -1.3818
 6427TIP3    H219288   3.032   5.977   1.201  1.2409  0.1191  1.5425
 6428TIP3   OH219289   2.853   1.535   0.354  0.0090  0.3122  0.0285
 6428TIP3    H119290   2.819   1.454   0.392 -0.3680  0.6580  0.4382
 6428TIP3    H219291   2.839   1.602   0.422  3.2910  0.1331  1.0689
 6429TIP3   OH219292   0.423   4.206   1.533 -0.5906  0.1820 -0.0183
 6429TIP3    H119293   0.481   4.188   1.458 -1.2555 -0.8093 -0.3177
 6429TIP3    H219294   0.482   4.228   1.605  0.1286 -0.2558 -0.4687
 6430TIP3   OH219295   1.668   1.649   4.161 -0.1175  0.2011 -0.4197
 6430TIP3    H119296   1.587   1.598   4.157 -0.7402  1.1679 -0.4432
 6430TIP3    H219297   1.707   1.641   4.074 -1.2407  1.3904 -1.0629
 6431TIP3   OH219298   0.025   3.461   3.455 -0.2718 -0.1528  0.3651
 6431TIP3    H119299  -0.059   3.502   3.433  0.0393 -0.1379 -0.9096
 6431TIP3    H219300   0.076   3.531   3.496 -0.6542  0.0181  0.5529
 6432TIP3   OH219301   6.207   4.570   0.976  0.3191  0.6500 -0.2204
 6432TIP3    H119302   6.270   4.538   1.040  1.9820 -0.4750 -2.2982
 6432TIP3    H219303   6.192   4.661   1.001  0.7884  0.2121  1.8134
 6433TIP3   OH219304   4.376   3.471   0.722 -0.2466 -0.4786 -0.1808
 6433TIP3    H119305   4.318   3.529   0.772  0.0861  0.3614 -0.7575
 6433TIP3    H219306   4.323   3.440   0.649  0.2209  0.8531 -1.1106
 6434TIP3   OH219307   5.250   5.609   2.861 -0.1517 -0.1413 -0.1756
 6434TIP3    H119308   5.266   5.682   2.801 -0.4298 -0.5597 -0.7588
 6434TIP3    H219309   5.337   5.574   2.879 -0.0008  0.4166  0.2212
 6435TIP3   OH219310   0.157   3.344   2.156 -0.0749  0.0049  0.0966
 6435TIP3    H119311   0.112   3.260   2.147  0.5744 -0.4771  1.1882
 6435TIP3    H219312   0.240   3.323   2.198  0.2776  1.1521  0.0263
 6436TIP3   OH219313   1.941   4.595   1.956  0.1211  0.1519 -0.0023
 6436TIP3    H119314   1.898   4.612   2.040  0.4402 -2.4116  0.7699
 6436TIP3    H219315   1.902   4.658   1.896 -1.3149  0.9729  1.6884
 6437TIP3   OH219316   3.360   1.921   4.873 -0.1518 -0.5047  0.4600
 6437TIP3    H119317   3.366   2.010   4.841 -0.6480  0.2552  2.3563
 6437TIP3    H219318   3.299   1.925   4.946  1.7637 -1.8680  2.2768
 6438TIP3   OH219319   0.940   2.378   4.913  0.0530 -0.0837  0.1241
 6438TIP3    H119320   1.032   2.372   4.938 -0.1864 -1.1676  0.7877
 6438TIP3    H219321   0.892   2.363   4.994 -0.7139  0.4544 -0.2253
 6439TIP3   OH219322   4.821   3.769   1.754 -0.0306  0.6837  0.1205
 6439TIP3    H119323   4.827   3.863   1.771 -1.1677  0.7637  0.2134
 6439TIP3    H219324   4.890   3.730   1.806  1.0286  1.5382 -0.6005
 6440TIP3   OH219325   4.162   5.167   3.799 -0.2960 -0.6206  0.4936
 6440TIP3    H119326   4.205   5.117   3.729  1.8238 -0.0144  1.2851
 6440TIP3    H219327   4.087   5.208   3.756  1.5672  0.6498 -1.7805
 6441TIP3   OH219328   3.787   5.210   3.406  0.2997  0.3098 -0.1290
 6441TIP3    H119329   3.728   5.279   3.374  0.0141 -1.1615 -3.1728
 6441TIP3    H219330   3.729   5.144   3.443 -0.1736 -1.0725 -2.9952
 6442TIP3   OH219331   2.141   5.432   3.619 -0.0577  0.5202  0.3238
 6442TIP3    H119332   2.158   5.507   3.563  1.4210 -0.4375 -0.5667
 6442TIP3    H219333   2.053   5.402   3.594  1.0673 -0.7490 -2.6187
 6443TIP3   OH219334   3.577   4.572   1.872 -0.4103 -0.1225  0.2838
 6443TIP3    H119335   3.629   4.493   1.857 -0.3318  0.0742 -0.4886
 6443TIP3    H219336   3.522   4.581   1.794 -1.0235  0.1280  0.7273
 6444TIP3   OH219337   4.386   5.857   3.569 -0.2737  0.2826  0.2042
 6444TIP3    H119338   4.436   5.777   3.552  0.9253  0.5598  2.0599
 6444TIP3    H219339   4.416   5.919   3.502  0.4174 -0.1617  0.0906
 6445TIP3   OH219340   3.785   4.271   4.245  0.0520 -0.3000  0.4936
 6445TIP3    H119341   3.828   4.225   4.317 -1.3036 -1.2868  0.7074
 6445TIP3    H219342   3.778   4.206   4.176 -0.4245  0.0700  0.1917
 6446TIP3   OH219343   1.734   0.462   5.070  0.5996 -0.2695  0.8028
 6446TIP3    H119344   1.722   0.542   5.018 -0.2036 -0.2866  0.9431
 6446TIP3    H219345   1.825   0.436   5.054  0.9130  0.7468  0.8717
 6447TIP3   OH219346   3.506   5.606   4.394  0.0743 -0.4995 -0.7475
 6447TIP3    H119347   3.514   5.605   4.489 -0.4539 -0.1425 -0.6962
 6447TIP3    H219348   3.468   5.691   4.374  0.0530 -0.6283 -1.2673
 6448TIP3   OH219349   3.425   4.052   0.931  0.2940  0.0623 -0.0050
 6448TIP3    H119350   3.407   4.116   0.862 -3.6077  0.3085  0.9661
 6448TIP3    H219351   3.443   3.970   0.885 -0.9885  0.5029 -1.3516
 6449TIP3   OH219352   2.381   1.599   1.981 -0.0686  0.1429  0.7327
 6449TIP3    H119353   2.384   1.561   2.069  1.1566  1.9975  1.5490
 6449TIP3    H219354   2.403   1.691   1.993  0.7605  0.3253 -1.6070
 6450TIP3   OH219355   2.348   2.251   3.261 -0.1248  0.2606 -0.1405
 6450TIP3    H119356   2.384   2.329   3.303 -0.5169  0.1904  0.3396
 6450TIP3    H219357   2.333   2.277   3.171  1.1639  0.2738 -0.3634
 6451TIP3   OH219358   4.440   1.469   3.894 -0.1204  0.1780  0.5622
 6451TIP3    H119359   4.512   1.465   3.830 -1.2200 -0.5637 -0.6965
 6451TIP3    H219360   4.477   1.431   3.974  0.6011 -1.2131 -0.3801
 6452TIP3   OH219361   1.521   5.877   4.242 -0.0082 -0.0478  0.9671
 6452TIP3    H119362   1.480   5.793   4.223  1.1870 -0.2671 -0.7999
 6452TIP3    H219363   1.607   5.872   4.202  0.2224  1.8963  1.1270
 6453TIP3   OH219364   5.492   1.940   2.289 -0.5029 -0.2177  0.5526
 6453TIP3    H119365   5.531   1.976   2.368 -1.0337  2.2151 -0.2109
 6453TIP3    H219366   5.547   1.972   2.217 -0.7621 -1.3229 -0.1713
 6454TIP3   OH219367   3.617   0.698   3.667 -0.1248  0.1830  0.3310
 6454TIP3    H119368   3.528   0.732   3.657 -1.6167 -3.1093  1.0128
 6454TIP3    H219369   3.629   0.640   3.592  1.3067  0.2710  0.4727
 6455TIP3   OH219370   5.773   5.168   1.570 -0.0020  0.1466 -0.2800
 6455TIP3    H119371   5.692   5.121   1.548 -1.2785  1.9644  0.2937
 6455TIP3    H219372   5.769   5.248   1.518  2.1453 -0.3257 -1.2713
 6456TIP3   OH219373   1.268   5.050   3.701  0.6879  0.4244  0.6238
 6456TIP3    H119374   1.283   5.010   3.615  1.1527  3.6226 -0.9076
 6456TIP3    H219375   1.356   5.065   3.735  0.6689  2.8327 -0.2418
 6457TIP3   OH219376   5.915   2.921   3.426 -0.5616 -0.3714  0.1279
 6457TIP3    H119377   5.898   3.014   3.439  0.9575 -0.1919  1.1711
 6457TIP3    H219378   5.873   2.878   3.500  0.4786 -0.2809  0.7895
 6458TIP3   OH219379   1.711   5.259   3.853 -0.4235 -0.2140 -0.4679
 6458TIP3    H119380   1.680   5.176   3.818 -0.1103 -0.2774 -0.5990
 6458TIP3    H219381   1.795   5.239   3.893 -0.3841  0.0238 -0.4262
 6459TIP3   OH219382   0.166   4.890   1.867 -0.2635  0.2914 -0.9785
 6459TIP3    H119383   0.227   4.959   1.841  1.9788 -1.6348 -1.1566
 6459TIP3    H219384   0.177   4.882   1.962  0.2975 -0.5167 -1.1022
 6460TIP3   OH219385   0.935   4.928   3.174 -0.5801  0.3516 -0.0631
 6460TIP3    H119386   0.916   5.014   3.211 -1.8394  0.1223 -0.1639
 6460TIP3    H219387   0.852   4.897   3.140  0.1910 -0.1886 -1.5536
 6461TIP3   OH219388   2.461   0.885   2.254 -0.0452 -0.0120  0.3746
 6461TIP3    H119389   2.430   0.965   2.297 -0.9913 -0.8558  1.3215
 6461TIP3    H219390   2.394   0.865   2.189 -1.4898 -1.6927  2.2413
 6462TIP3   OH219391   4.910   2.152   3.931 -0.1257  0.1153 -0.2462
 6462TIP3    H119392   4.923   2.219   3.863 -0.6067 -0.4656 -0.9207
 6462TIP3    H219393   4.848   2.192   3.992 -0.4437  0.2766 -0.6685
 6463TIP3   OH219394   5.120   2.333   0.042  0.3847  0.1079  0.3782
 6463TIP3    H119395   5.084   2.420   0.027 -0.1988 -0.0195  0.9924
 6463TIP3    H219396   5.051   2.285   0.088  1.0578 -0.3720  0.9258
 6464TIP3   OH219397   1.327   3.549   2.619  0.1759  0.5248 -0.1663
 6464TIP3    H119398   1.303   3.611   2.550 -0.6428  2.2655  1.5912
 6464TIP3    H219399   1.396   3.594   2.668  1.0360 -0.8573 -0.0532
 6465TIP3   OH219400   4.628   0.524   2.190 -0.5737  0.2018  0.9537
 6465TIP3    H119401   4.667   0.572   2.263 -0.7559  0.4570  0.8856
 6465TIP3    H219402   4.566   0.585   2.152  1.4355  1.1161 -1.1196
 6466TIP3   OH219403   0.461   5.752   1.095  0.4391 -0.1878 -0.1120
 6466TIP3    H119404   0.436   5.664   1.124 -0.3233 -0.1130 -0.4946
 6466TIP3    H219405   0.556   5.753   1.100  0.3666 -0.3860  1.7165
 6467TIP3   OH219406   3.332   0.928   4.920  0.0354 -0.2739 -0.1791
 6467TIP3    H119407   3.274   0.956   4.991 -0.9932 -1.0147 -0.6854
 6467TIP3    H219408   3.280   0.940   4.841  1.0257  0.1697 -0.7750
 6468TIP3   OH219409   3.227   0.199   3.070  0.0039 -0.1568 -0.2451
 6468TIP3    H119410   3.257   0.283   3.106 -0.1246 -0.3900  0.4149
 6468TIP3    H219411   3.289   0.180   3.000 -1.0696  1.4517 -1.7284
 6469TIP3   OH219412   0.090   3.671   3.618  0.3727 -0.2741  0.8806
 6469TIP3    H119413   0.080   3.750   3.565  0.3484  0.0979  1.4331
 6469TIP3    H219414   0.044   3.690   3.699  1.7100 -0.2351  1.6703
 6470TIP3   OH219415   2.819   0.688   5.160 -0.0950  0.2730  0.0177
 6470TIP3    H119416   2.847   0.599   5.138 -0.3873  0.0180  0.6315
 6470TIP3    H219417   2.794   0.727   5.077 -1.0109 -0.5941 -0.1395
 6471TIP3   OH219418   4.808   2.896   1.959 -0.4176  0.0409  0.1866
 6471TIP3    H119419   4.718   2.895   1.927 -1.2083  0.7672  2.2283
 6471TIP3    H219420   4.800   2.918   2.052  1.9168  0.7853  0.2708
 6472TIP3   OH219421   2.470   5.871   2.310  0.4022  0.2067 -0.5395
 6472TIP3    H119422   2.548   5.922   2.288  0.6875 -0.0045 -0.0365
 6472TIP3    H219423   2.501   5.781   2.320  0.0926  0.1161 -0.3644
 6473TIP3   OH219424   5.317   5.309   5.144 -0.3592 -0.1330 -0.1751
 6473TIP3    H119425   5.334   5.261   5.062  1.3784 -0.4565  0.3332
 6473TIP3    H219426   5.337   5.247   5.213 -0.0784  0.6722  0.4903
 6474TIP3   OH219427   0.491   2.450   1.203 -0.2016  0.0448  0.0673
 6474TIP3    H119428   0.397   2.462   1.216 -0.4209  3.3685 -2.7859
 6474TIP3    H219429   0.532   2.525   1.247  0.6071  0.9744 -2.0978
 6475TIP3   OH219430   0.603   3.002   1.560 -0.3742 -0.2793 -0.5079
 6475TIP3    H119431   0.564   3.000   1.647  1.1169 -0.1255  0.1907
 6475TIP3    H219432   0.680   3.059   1.569 -1.2441  1.3382 -2.3860
 6476TIP3   OH219433   0.243   1.505   5.092 -0.1990  0.0201  0.7804
 6476TIP3    H119434   0.196   1.524   5.173  1.5604 -0.8470  2.0772
 6476TIP3    H219435   0.210   1.420   5.064 -0.0258 -0.1912  1.2114
 6477TIP3   OH219436   6.206   5.093   2.922  0.5889 -0.4726 -0.0120
 6477TIP3    H119437   6.224   5.018   2.865 -0.0313 -0.4442 -0.2578
 6477TIP3    H219438   6.117   5.120   2.899 -0.1303 -1.1804  1.7773
 6478TIP3   OH219439   2.724   2.855   3.360  0.2484 -0.5190  0.2791
 6478TIP3    H119440   2.670   2.883   3.434 -2.8831  0.6240 -2.2050
 6478TIP3    H219441   2.789   2.924   3.350  0.1672 -0.2634  1.4063
 6479TIP3   OH219442   3.198   4.413   0.301 -0.3030 -0.4719 -0.0933
 6479TIP3    H119443   3.192   4.403   0.206 -2.4417 -3.0273  0.1937
 6479TIP3    H219444   3.121   4.464   0.325 -0.2276 -0.5557  0.3421
 6480TIP3   OH219445   4.477   4.152   3.629  0.3097  0.1121  0.4417
 6480TIP3    H119446   4.449   4.241   3.651  1.5758  0.7126 -0.2274
 6480TIP3    H219447   4.520   4.120   3.708  1.1302  0.6695  0.2418
 6481TIP3   OH219448   3.260   0.524   2.058  0.1066 -0.4915  0.0878
 6481TIP3    H119449   3.275   0.430   2.052  3.2323 -0.0657 -1.3612
 6481TIP3    H219450   3.219   0.547   1.975  0.9676 -0.3932 -0.3227
 6482TIP3   OH219451   5.426   1.699   3.460 -0.0787  0.6615  0.3976
 6482TIP3    H119452   5.444   1.733   3.372 -0.6243  2.2884  0.8753
 6482TIP3    H219453   5.361   1.630   3.446 -0.3280  1.0491 -0.4586
 6483TIP3   OH219454   5.455   4.417   1.227 -0.1553  0.2480  0.0546
 6483TIP3    H119455   5.451   4.379   1.139 -0.3217  1.2565 -0.3862
 6483TIP3    H219456   5.405   4.498   1.220  1.6490  1.4656  0.4876
 6484TIP3   OH219457   0.000   4.055   2.393 -0.0457  0.4563 -0.2353
 6484TIP3    H119458   0.094   4.076   2.393  0.0393  0.1535  0.7866
 6484TIP3    H219459  -0.003   3.959   2.390 -0.2101  0.2972  2.5198
 6485TIP3   OH219460   1.644   0.580   2.697 -0.0503 -0.6911 -0.1476
 6485TIP3    H119461   1.586   0.505   2.682 -0.4155 -0.4270 -0.0312
 6485TIP3    H219462   1.621   0.642   2.628 -1.2920  0.2628  1.0803
 6486TIP3   OH219463   0.851   2.129   1.062 -0.0432 -0.0602  0.0647
 6486TIP3    H119464   0.767   2.127   1.106  0.2971  0.0029  0.7311
 6486TIP3    H219465   0.831   2.161   0.974 -0.5377  1.3302  0.6447
 6487TIP3   OH219466   1.921   4.942   3.701 -0.5155 -0.2458  0.5906
 6487TIP3    H119467   1.913   4.872   3.765  0.4072  0.7494  1.8606
 6487TIP3    H219468   2.014   4.942   3.678 -0.7485 -0.2654 -0.3729
 6488TIP3   OH219469   5.536   1.061   4.466 -0.2767 -0.5588 -0.0894
 6488TIP3    H119470   5.605   1.127   4.462 -0.2134 -0.6108 -4.2379
 6488TIP3    H219471   5.583   0.978   4.464 -0.4432 -0.6763  0.6006
 6489TIP3   OH219472   5.267   2.974   2.435 -0.7243  0.2458 -0.4853
 6489TIP3    H119473   5.295   2.914   2.367  0.3747  1.0620 -0.7830
 6489TIP3    H219474   5.219   2.920   2.498 -0.2221 -0.8246 -1.0116
 6490TIP3   OH219475   2.774   0.946   0.623  0.7112  0.3010 -0.4645
 6490TIP3    H119476   2.852   0.984   0.663  0.3662 -1.0247  1.6729
 6490TIP3    H219477   2.708   0.947   0.693  0.3599 -3.0504 -0.5781
 6491TIP3   OH219478   0.326   5.985   1.133 -0.1389 -0.4019 -0.2219
 6491TIP3    H119479   0.244   5.976   1.181  1.2731 -1.5190  2.1651
 6491TIP3    H219480   0.361   5.896   1.128  0.8750  0.0252 -1.3508
 6492TIP3   OH219481   3.188   4.710   1.436 -0.1723 -0.0591  0.0638
 6492TIP3    H119482   3.223   4.769   1.502 -0.2168 -0.0959  0.1203
 6492TIP3    H219483   3.099   4.690   1.466 -1.3240  2.3078 -1.5307
 6493TIP3   OH219484   2.518   4.332   1.449 -0.1579  0.0886  0.3484
 6493TIP3    H119485   2.545   4.415   1.408  1.5621 -0.3695  0.4624
 6493TIP3    H219486   2.531   4.266   1.381  1.0394 -0.4336  1.0524
 6494TIP3   OH219487   4.189   0.820   3.215 -0.1677  0.2568 -0.4871
 6494TIP3    H119488   4.159   0.843   3.127 -1.8629  1.4202  0.3229
 6494TIP3    H219489   4.186   0.903   3.264  0.9996 -0.3060  0.5991
 6495TIP3   OH219490   1.773   5.597   4.008  0.4249 -0.3607  0.7409
 6495TIP3    H119491   1.688   5.595   3.966 -0.5881  2.0844  2.4507
 6495TIP3    H219492   1.818   5.673   3.970  1.9704 -1.7062 -0.2621
 6496TIP3   OH219493   6.086   4.551   3.130 -0.0962  0.4282 -0.2608
 6496TIP3    H119494   6.158   4.534   3.191 -1.2768 -0.5010  0.9280
 6496TIP3    H219495   6.102   4.492   3.057 -0.1108 -0.4015  0.3990
 6497TIP3   OH219496   1.294   1.651   0.297 -0.3942  0.0241  0.6772
 6497TIP3    H119497   1.265   1.741   0.316 -1.9784 -0.5578  1.1387
 6497TIP3    H219498   1.334   1.622   0.379  4.2467  1.7181 -0.6561
 6498TIP3   OH219499   5.452   4.345   5.135  0.0454 -0.1930  0.5340
 6498TIP3    H119500   5.415   4.432   5.118 -0.4215 -0.3236  0.8284
 6498TIP3    H219501   5.387   4.285   5.098  0.2660 -0.4179  0.5160
 6499TIP3   OH219502   3.751   4.337   1.762  0.3504 -0.0180 -0.0109
 6499TIP3    H119503   3.829   4.355   1.709  0.4445  0.0163  0.1394
 6499TIP3    H219504   3.734   4.243   1.749  1.2181 -0.3376  1.0264
 6500TIP3   OH219505   1.118   3.428   4.293 -0.3025 -0.2464 -0.2535
 6500TIP3    H119506   1.104   3.345   4.339 -2.6315 -1.0569 -2.2121
 6500TIP3    H219507   1.081   3.494   4.352 -1.6769 -1.0544 -0.1525
 6501TIP3   OH219508   5.320   0.630   4.589  0.1008 -0.1187 -0.5034
 6501TIP3    H119509   5.235   0.652   4.625  0.5113  1.2112 -0.3177
 6501TIP3    H219510   5.352   0.558   4.644 -0.1283  0.5826  0.5559
 6502TIP3   OH219511   0.833   0.045   1.077  0.7902 -0.0088 -0.2402
 6502TIP3    H119512   0.836  -0.022   1.009 -0.0438  1.1076 -1.4223
 6502TIP3    H219513   0.841   0.128   1.030 -1.3848  0.8810  0.8249
 6503TIP3   OH219514   0.353   0.054  -0.005  0.4595  0.3883 -0.8931
 6503TIP3    H119515   0.333   0.103   0.075  0.3845  0.8409 -1.1871
 6503TIP3    H219516   0.446   0.068  -0.019  0.6730 -0.4451 -0.3847
 6504TIP3   OH219517   3.454   2.116   1.617 -0.0563 -0.2642  0.2970
 6504TIP3    H119518   3.489   2.172   1.548 -2.4590 -0.6713 -1.3574
 6504TIP3    H219519   3.373   2.159   1.644 -0.4358 -1.4361  1.0971
 6505TIP3   OH219520   3.512   5.741   0.121  0.3167  0.2467  0.3478
 6505TIP3    H119521   3.446   5.689   0.167  0.2929 -0.1232 -0.0995
 6505TIP3    H219522   3.465   5.820   0.093 -0.5099 -0.9144 -1.7573
 6506TIP3   OH219523   6.209   2.011   3.306  0.5099 -0.1158  0.4730
 6506TIP3    H119524   6.175   1.924   3.329 -0.9868  0.2708 -0.1202
 6506TIP3    H219525   6.172   2.029   3.219  1.5138  0.7574  0.2077
 6507TIP3   OH219526   2.742   4.117   4.879 -0.0587  0.5762 -0.2331
 6507TIP3    H119527   2.774   4.115   4.968 -0.2250 -1.4546 -0.1645
 6507TIP3    H219528   2.653   4.083   4.885 -0.4091  1.2951 -1.0694
 6508TIP3   OH219529   0.959   5.374   4.173 -0.2166  0.3330 -0.2688
 6508TIP3    H119530   1.029   5.438   4.164  0.5514 -0.7431 -2.5568
 6508TIP3    H219531   0.996   5.292   4.141 -1.8975 -0.7418  0.3705
 6509TIP3   OH219532   4.083   4.377   3.947  0.0898 -0.0220  0.1254
 6509TIP3    H119533   4.135   4.457   3.938  1.1645 -0.5637  1.3088
 6509TIP3    H219534   4.088   4.335   3.861  0.2520  0.7304 -0.2407
 6510TIP3   OH219535   1.448   2.205   0.308  0.3325 -0.5841  0.3234
 6510TIP3    H119536   1.524   2.256   0.336  0.0567 -0.0346  0.0758
 6510TIP3    H219537   1.373   2.252   0.344  0.0837 -0.9216  0.2525
 6511TIP3   OH219538   3.846   1.533   0.914 -0.3011 -0.1196  0.4721
 6511TIP3    H119539   3.858   1.452   0.964  1.8925 -0.1652 -0.0489
 6511TIP3    H219540   3.841   1.601   0.981  0.7041 -0.3795  0.8234
 6512TIP3   OH219541   4.596   4.217   2.100  0.0871  0.0342 -0.6481
 6512TIP3    H119542   4.630   4.141   2.147  2.9603  1.1693 -0.6758
 6512TIP3    H219543   4.510   4.233   2.139  0.5164 -1.6742  1.1622
 6513TIP3   OH219544   3.092   1.681   4.013  0.0623 -0.1890  0.2431
 6513TIP3    H119545   3.146   1.606   4.038  0.4942  1.0721  3.6504
 6513TIP3    H219546   3.151   1.756   4.020 -0.6264  0.6660 -2.1118
 6514TIP3   OH219547   2.132   4.511   2.865 -0.0944  0.3072 -0.6956
 6514TIP3    H119548   2.144   4.550   2.951 -0.9226  0.5053 -0.6613
 6514TIP3    H219549   2.148   4.584   2.804  1.6690 -0.1048 -0.7802
 6515TIP3   OH219550   5.376   3.814   0.564  0.0136  0.1307 -0.2990
 6515TIP3    H119551   5.451   3.785   0.617 -0.0238  2.5097  1.2157
 6515TIP3    H219552   5.313   3.743   0.572  0.3229  0.0343  2.3142
 6516TIP3   OH219553   5.152   2.051   1.255 -0.6926  1.0454  0.6340
 6516TIP3    H119554   5.063   2.030   1.283 -0.9380  2.0952  0.6890
 6516TIP3    H219555   5.202   1.971   1.270 -1.5651  0.5360  0.8696
 6517TIP3   OH219556   1.370   2.737   4.792  0.3648  0.0116  0.0805
 6517TIP3    H119557   1.331   2.721   4.878 -0.5302  0.5637 -0.2069
 6517TIP3    H219558   1.387   2.831   4.790  1.4584 -0.1727  0.0787
 6518TIP3   OH219559   1.619   4.217   1.029 -0.1738 -0.3836 -0.4424
 6518TIP3    H119560   1.671   4.148   1.070 -0.0267 -1.2760 -2.0326
 6518TIP3    H219561   1.533   4.178   1.017 -0.2680 -0.0739 -0.7834
 6519TIP3   OH219562   4.902   5.771   3.829  0.4479  0.0741  0.6794
 6519TIP3    H119563   4.867   5.710   3.894  1.6665 -1.5014 -0.0716
 6519TIP3    H219564   4.825   5.811   3.789 -0.4284 -1.4524  0.7654
 6520TIP3   OH219565   5.731   2.366   4.908  0.0461 -0.0147 -0.2820
 6520TIP3    H119566   5.824   2.349   4.922 -0.3843 -1.2522  1.4564
 6520TIP3    H219567   5.699   2.398   4.992 -1.2204 -0.2247 -0.6563
 6521TIP3   OH219568   1.893   2.018   1.807 -0.1483 -0.3456  0.2510
 6521TIP3    H119569   1.878   1.927   1.780  0.3883 -0.3502 -0.0424
 6521TIP3    H219570   1.957   2.012   1.877 -0.8368 -0.2590  0.9053
 6522TIP3   OH219571   4.212   2.081   1.097 -0.1623 -0.1815  0.0460
 6522TIP3    H119572   4.247   2.152   1.151  1.4005 -0.4446 -0.5935
 6522TIP3    H219573   4.284   2.020   1.086 -1.6473 -2.2637  1.1209
 6523TIP3   OH219574   5.157   5.699   1.597 -0.8598  0.3699 -0.4460
 6523TIP3    H119575   5.110   5.693   1.680  0.0801  2.5980  0.3406
 6523TIP3    H219576   5.245   5.729   1.622 -0.3083  0.3049 -2.1875
 6524TIP3   OH219577   1.937   4.352   2.758 -0.6565  0.0659 -0.1541
 6524TIP3    H119578   1.871   4.321   2.820  1.3792 -2.0676  1.0958
 6524TIP3    H219579   1.991   4.413   2.809 -0.5251  0.3459 -0.6196
 6525TIP3   OH219580   0.730   2.329   2.461  0.3375 -0.0930 -0.0026
 6525TIP3    H119581   0.793   2.265   2.496  0.2050  0.5529  1.4783
 6525TIP3    H219582   0.646   2.284   2.465  0.6840 -1.0409 -2.1934
 6526TIP3   OH219583   3.460   5.519   4.881 -0.3521  0.5104 -0.3597
 6526TIP3    H119584   3.441   5.481   4.966  0.6616  1.6912  0.4260
 6526TIP3    H219585   3.374   5.523   4.837 -1.1355  1.1602  1.1487
 6527TIP3   OH219586   2.089   4.186   4.632 -0.2121  0.5307  0.0363
 6527TIP3    H119587   2.172   4.226   4.604  0.3413 -0.8767 -0.3830
 6527TIP3    H219588   2.114   4.101   4.668 -1.3676  0.5539  0.9565
 6528TIP3   OH219589   0.313   0.777   4.998  0.0742  0.0516  0.0451
 6528TIP3    H119590   0.396   0.811   5.032 -0.3247  2.5855 -1.2578
 6528TIP3    H219591   0.337   0.695   4.955  1.7918  0.4151  0.2084
 6529TIP3   OH219592   4.402   5.154   3.942 -0.5856 -0.6818 -0.2251
 6529TIP3    H119593   4.419   5.205   3.863 -0.0255 -0.2935  0.1356
 6529TIP3    H219594   4.315   5.183   3.971 -1.0669 -1.2812 -1.0322
 6530TIP3   OH219595   2.604   1.513   3.594  0.0112  0.1065 -0.0989
 6530TIP3    H119596   2.693   1.542   3.576 -0.4602  2.2646  0.6954
 6530TIP3    H219597   2.550   1.562   3.531 -0.6291 -1.3361 -0.7271
 6531TIP3   OH219598   5.530   1.600   5.046 -0.1379 -0.0965  0.3308
 6531TIP3    H119599   5.530   1.598   4.950 -2.0539  1.5188  0.2168
 6531TIP3    H219600   5.481   1.522   5.071  3.2072 -2.4109  0.2322
 6532TIP3   OH219601   1.925   5.659   0.244  0.3685  0.0700 -0.2208
 6532TIP3    H119602   1.876   5.606   0.307 -2.4048  1.3115 -1.2198
 6532TIP3    H219603   2.004   5.686   0.292 -0.8369 -0.3657  2.1431
 6533TIP3   OH219604   0.802   1.553   0.752 -0.2758 -0.0061 -0.0722
 6533TIP3    H119605   0.824   1.548   0.659  0.6260 -0.7455  0.1531
 6533TIP3    H219606   0.881   1.590   0.793 -0.6743  0.3368  0.3931
 6534TIP3   OH219607   5.638   3.254   1.930 -0.2446  0.2712 -0.2972
 6534TIP3    H119608   5.664   3.334   1.884  1.3928 -0.1740 -0.2174
 6534TIP3    H219609   5.660   3.184   1.868 -0.8384 -0.1743 -0.0092
 6535TIP3   OH219610   2.109   4.289   3.509  0.0502 -0.0954  0.1720
 6535TIP3    H119611   2.016   4.268   3.521 -0.5574  0.4016 -2.8180
 6535TIP3    H219612   2.146   4.208   3.473  0.4768  0.1268  0.1124
 6536TIP3   OH219613   4.718   4.264   0.187 -0.8180  0.1996 -0.0624
 6536TIP3    H119614   4.740   4.255   0.095  1.0944 -0.1114  0.3921
 6536TIP3    H219615   4.786   4.320   0.223 -1.4085  0.1268  1.2250
 6537TIP3   OH219616   5.523   4.612   4.704  0.3406  0.1503  0.0004
 6537TIP3    H119617   5.430   4.634   4.695  0.5785  1.2349  0.0027
 6537TIP3    H219618   5.568   4.694   4.682  1.3102 -0.5068 -0.4800
 6538TIP3   OH219619   4.273   1.131   0.668 -0.2286 -0.0371 -0.2813
 6538TIP3    H119620   4.270   1.174   0.754 -0.2427  1.4547 -0.9971
 6538TIP3    H219621   4.362   1.145   0.637  0.2756 -1.9806  0.1419
 6539TIP3   OH219622   4.544   5.456   0.314  0.1072  0.0659 -0.3575
 6539TIP3    H119623   4.464   5.494   0.350 -0.0230  1.3117 -1.8672
 6539TIP3    H219624   4.515   5.375   0.272 -0.6003  1.0046 -1.7780
 6540TIP3   OH219625   4.432   1.417   2.848 -0.5382 -0.4023 -0.0064
 6540TIP3    H119626   4.375   1.385   2.918 -0.5388 -2.4105 -0.8655
 6540TIP3    H219627   4.499   1.469   2.893 -2.6208  1.4884  1.0875
 6541TIP3   OH219628   1.925   1.197   3.205  0.0802 -0.1013 -0.2933
 6541TIP3    H119629   1.904   1.143   3.128  0.7961  0.3698 -0.8336
 6541TIP3    H219630   1.905   1.140   3.280 -1.3695 -0.2960 -0.7937
 6542TIP3   OH219631   4.620   1.000   3.797 -0.2877 -0.1133  0.6019
 6542TIP3    H119632   4.674   0.980   3.873  1.6833  2.3015 -0.0309
 6542TIP3    H219633   4.592   1.090   3.811  0.5390  0.5688 -1.7027
 6543TIP3   OH219634   2.649   4.148   3.911 -0.6470 -0.2188 -0.1717
 6543TIP3    H119635   2.693   4.203   3.976 -0.7900 -0.6157  0.2684
 6543TIP3    H219636   2.592   4.208   3.863 -0.0881  0.1873 -0.3375
 6544TIP3   OH219637   3.485   5.726   2.568  0.6871  0.4263 -0.4537
 6544TIP3    H119638   3.401   5.750   2.606  1.8485  1.6159  1.5578
 6544TIP3    H219639   3.486   5.631   2.569  0.5894  0.3571  2.5621
 6545TIP3   OH219640   5.397   3.330   0.028 -0.2157  0.1756 -0.3312
 6545TIP3    H119641   5.472   3.363  -0.021  0.2844 -1.2216 -0.5301
 6545TIP3    H219642   5.409   3.236   0.031 -1.6369 -0.0165  0.1934
 6546TIP3   OH219643   4.766   4.057   2.959 -0.4447 -0.2133  0.0731
 6546TIP3    H119644   4.698   4.107   2.914  0.1198  0.3542 -0.1611
 6546TIP3    H219645   4.824   4.123   2.996  0.4477 -0.6897 -0.4411
 6547TIP3   OH219646   1.858   2.290   2.960  0.1912  0.4183 -0.0675
 6547TIP3    H119647   1.808   2.371   2.968 -0.4780 -0.1210  1.6443
 6547TIP3    H219648   1.870   2.279   2.866 -2.9427  0.5997 -0.6173
 6548TIP3   OH219649   1.305   2.932   2.043  0.0789  0.6127 -0.5677
 6548TIP3    H119650   1.235   2.868   2.026  0.2330  0.1261  0.5583
 6548TIP3    H219651   1.259   3.014   2.059 -0.2425  0.3102  0.1021
 6549TIP3   OH219652   5.141  -0.007   4.347  0.2133 -0.3015 -0.5341
 6549TIP3    H119653   5.053   0.026   4.369 -0.2199 -0.4635 -1.8882
 6549TIP3    H219654   5.191   0.072   4.326  1.0084 -0.0291  2.1169
 6550TIP3   OH219655   6.138   5.514   1.186  0.7495  0.0158  0.4130
 6550TIP3    H119656   6.097   5.430   1.166 -0.3345  0.7379 -0.5326
 6550TIP3    H219657   6.118   5.530   1.278 -0.7809  0.1714  0.0645
 6551TIP3   OH219658   0.181   3.127   3.323  0.0056 -0.1707 -0.0386
 6551TIP3    H119659   0.171   3.212   3.282  1.8932 -1.1493 -2.7604
 6551TIP3    H219660   0.229   3.145   3.404 -0.0571  1.3703 -0.3172
 6552TIP3   OH219661   1.324   1.300   3.533 -0.3338  0.2079 -0.3291
 6552TIP3    H119662   1.349   1.281   3.443 -1.2476  0.5415 -0.6626
 6552TIP3    H219663   1.310   1.395   3.535 -0.3419  0.2030  0.1604
 6553TIP3   OH219664   2.990   2.200   0.322  0.3425 -0.0195 -0.0207
 6553TIP3    H119665   3.001   2.295   0.319  0.3839  0.0198  0.9430
 6553TIP3    H219666   3.012   2.170   0.234  1.7438  0.7258  0.0377
 6554TIP3   OH219667   3.564   4.980   0.585 -0.2781  0.6180 -0.7377
 6554TIP3    H119668   3.555   4.888   0.560  0.0112  0.9092 -2.0142
 6554TIP3    H219669   3.489   5.023   0.544  0.1281  1.0915 -0.9936
 6555TIP3   OH219670   5.865   2.959   4.479 -0.4528  0.0983  0.5002
 6555TIP3    H119671   5.833   3.034   4.528 -1.0789 -0.2437  0.6297
 6555TIP3    H219672   5.955   2.946   4.510 -0.0750  1.2453 -0.0734
 6556TIP3   OH219673   2.649   4.615   3.830 -0.3225 -0.0154  0.5329
 6556TIP3    H119674   2.557   4.594   3.819  0.3953 -2.4238 -1.8076
 6556TIP3    H219675   2.680   4.557   3.899  0.3477 -2.7660 -1.8903
 6557TIP3   OH219676   5.269   2.850   2.915  0.4598 -0.1399  0.2652
 6557TIP3    H119677   5.289   2.831   3.006  0.1805  2.1750  0.8549
 6557TIP3    H219678   5.297   2.940   2.902 -1.1803  0.1834 -1.4140
 6558TIP3   OH219679   3.840   4.560   4.445  0.0533 -0.5864 -0.4285
 6558TIP3    H119680   3.858   4.493   4.380  1.3037 -0.8401  0.1503
 6558TIP3    H219681   3.772   4.615   4.405  0.5808 -0.9018 -1.8181
 6559TIP3   OH219682   2.668   5.810   3.389 -0.2467 -0.1318  1.0050
 6559TIP3    H119683   2.719   5.817   3.308 -1.8623 -0.5665 -0.0904
 6559TIP3    H219684   2.725   5.762   3.450  1.1643  0.6013  0.2916
 6560TIP3   OH219685   4.922   2.957   2.502  0.1285  0.1244  0.2267
 6560TIP3    H119686   4.851   2.896   2.521 -0.6935  0.9450 -0.1833
 6560TIP3    H219687   4.996   2.924   2.554 -0.1337 -1.5274 -0.4003
 6561TIP3   OH219688   6.335   5.010   3.656  0.3405  0.3599 -0.4058
 6561TIP3    H119689   6.298   4.970   3.734  0.8730  1.3107  0.3586
 6561TIP3    H219690   6.328   5.104   3.672  2.0763  0.5807 -0.6827
 6562TIP3   OH219691   1.673   4.637   3.483 -0.0914 -0.2157  0.2341
 6562TIP3    H119692   1.627   4.574   3.539 -1.8569 -0.5893 -1.5148
 6562TIP3    H219693   1.645   4.615   3.394  0.6139  1.9511 -0.5922
 6563TIP3   OH219694   1.322   4.978   3.107  0.0763  1.0454 -0.4149
 6563TIP3    H119695   1.399   4.961   3.162 -1.7295 -0.4082  1.8629
 6563TIP3    H219696   1.249   4.982   3.169 -1.8289  1.4873 -2.5597
 6564TIP3   OH219697   4.003   0.485   3.138 -0.7862  0.2806 -0.1692
 6564TIP3    H119698   4.044   0.411   3.093  0.9776  1.0385  0.1049
 6564TIP3    H219699   3.961   0.535   3.068 -0.3257  0.0358 -0.6313
 6565TIP3   OH219700   0.889   1.762   2.309  0.3665  0.3201 -0.2163
 6565TIP3    H119701   0.946   1.746   2.385  1.3692  1.6719 -0.6436
 6565TIP3    H219702   0.860   1.675   2.282  0.5234 -0.2333  1.3100
 6566TIP3   OH219703   4.272   3.728   3.939  0.3273  0.3064  0.4431
 6566TIP3    H119704   4.208   3.798   3.953  0.3451 -0.0065  2.4505
 6566TIP3    H219705   4.239   3.655   3.992  0.6538 -1.0069 -1.0916
 6567TIP3   OH219706   6.312   2.948   0.567 -0.2443  0.8416  0.1747
 6567TIP3    H119707   6.353   3.032   0.589 -2.2693  1.3748  2.3848
 6567TIP3    H219708   6.231   2.972   0.524 -0.2861 -0.0377 -0.2388
 6568TIP3   OH219709   2.433   4.682   4.339 -0.2047  0.0572  0.4287
 6568TIP3    H119710   2.394   4.717   4.259  0.1464  1.0621  0.6847
 6568TIP3    H219711   2.428   4.754   4.402 -2.6964 -1.4594  2.1321
 6569TIP3   OH219712   0.042   3.223   0.603  0.3435  0.7976  0.1784
 6569TIP3    H119713   0.046   3.284   0.529  1.6450  0.2006 -0.2776
 6569TIP3    H219714   0.067   3.276   0.679 -1.9134  1.6506  0.4066
 6570TIP3   OH219715   2.672   2.512   3.721  0.3796 -0.0545  0.1437
 6570TIP3    H119716   2.657   2.567   3.798  2.2877 -0.4280  0.8664
 6570TIP3    H219717   2.589   2.510   3.675 -0.3871  1.4466  1.3894
 6571TIP3   OH219718   5.317   0.847   5.096  0.0316 -0.1535  0.0662
 6571TIP3    H119719   5.380   0.893   5.151 -1.4456 -0.0985  1.8088
 6571TIP3    H219720   5.327   0.755   5.121  0.3733 -0.3335 -0.6886
 6572TIP3   OH219721   1.793   4.803   1.841 -0.0947 -0.4807 -0.6018
 6572TIP3    H119722   1.701   4.789   1.820 -0.3198  1.3020 -0.9320
 6572TIP3    H219723   1.802   4.898   1.847  1.6387 -0.6465 -0.1599
 6573TIP3   OH219724   6.077   2.034   4.994 -0.3547  0.4301 -0.2493
 6573TIP3    H119725   6.080   1.977   4.917  1.2035  0.7191 -0.4181
 6573TIP3    H219726   6.035   1.980   5.061  0.5830 -0.7258 -0.5658
 6574TIP3   OH219727   5.664   1.469   0.028 -1.1117  0.5339 -0.2174
 6574TIP3    H119728   5.705   1.391  -0.010 -1.8609  0.0745 -0.0897
 6574TIP3    H219729   5.671   1.457   0.122  0.5698  1.5838 -0.1642
 6575TIP3   OH219730   0.188   2.349   2.942  0.0789 -0.4684  0.1204
 6575TIP3    H119731   0.197   2.417   2.876  0.5205 -0.2319  0.4172
 6575TIP3    H219732   0.108   2.302   2.918  1.4869 -1.9434 -2.0190
 6576TIP3   OH219733   5.313   1.428   5.064 -1.0187 -0.0989  0.4426
 6576TIP3    H119734   5.291   1.388   4.981  0.6168 -1.4640  0.6149
 6576TIP3    H219735   5.325   1.355   5.124  1.1778  0.6390  0.9908
 6577TIP3   OH219736   4.760   1.279   3.797  0.5456  0.5485  0.1191
 6577TIP3    H119737   4.816   1.257   3.871 -0.5204 -0.0042  0.7862
 6577TIP3    H219738   4.784   1.216   3.729  0.4196  0.0139  0.5638
 6578TIP3   OH219739   2.296   1.616   2.879  0.0022  0.6869  0.4315
 6578TIP3    H119740   2.297   1.680   2.951  1.0853  1.0004  0.1620
 6578TIP3    H219741   2.374   1.637   2.828 -0.1751 -0.2236 -0.2312
 6579TIP3   OH219742   5.459   1.897   0.620  0.2814 -0.1475  0.0229
 6579TIP3    H119743   5.486   1.825   0.677  2.6725  0.5678 -0.0884
 6579TIP3    H219744   5.539   1.949   0.609 -1.3581  2.5500  0.1393
 6580TIP3   OH219745   4.076   1.264   1.952 -0.1846  0.3188 -0.1035
 6580TIP3    H119746   3.991   1.240   1.915 -1.0905  1.3503  1.2153
 6580TIP3    H219747   4.063   1.263   2.047  0.6849  2.4274  0.1092
 6581TIP3   OH219748   4.602   3.834   3.142 -0.1421 -0.1575 -0.5695
 6581TIP3    H119749   4.638   3.801   3.060  1.5931 -0.3022  0.1999
 6581TIP3    H219750   4.508   3.814   3.137 -0.4872  1.6497 -3.3395
 6582TIP3   OH219751   2.126   4.044   0.854  0.1170  0.6650  0.7984
 6582TIP3    H119752   2.184   3.968   0.857 -0.6105  0.0715  0.2166
 6582TIP3    H219753   2.155   4.093   0.778 -1.0362 -0.3945 -0.3746
 6583TIP3   OH219754   4.788   0.015   1.628  0.0094  0.0794 -0.0846
 6583TIP3    H119755   4.840   0.054   1.698  0.4786 -0.5150 -0.0991
 6583TIP3    H219756   4.724   0.083   1.606 -0.5306  0.0755  1.3115
 6584TIP3   OH219757   1.118   2.606   4.174 -0.2601  0.0848 -0.7738
 6584TIP3    H119758   1.130   2.695   4.207  0.4400  0.1148 -1.0985
 6584TIP3    H219759   1.140   2.612   4.081  0.8563 -0.6476 -0.5793
 6585TIP3   OH219760   5.556   1.470   3.045  0.3275  1.0106 -0.0915
 6585TIP3    H119761   5.471   1.514   3.041 -0.8037 -1.0866 -1.0122
 6585TIP3    H219762   5.546   1.406   3.116  0.7033 -0.0347 -0.9585
 6586TIP3   OH219763   2.359   4.286   1.961 -0.3254  0.1219  0.1574
 6586TIP3    H119764   2.277   4.283   2.010  1.5817  0.8287  3.7212
 6586TIP3    H219765   2.411   4.213   1.995  0.5694 -0.4078 -2.1177
 6587TIP3   OH219766   2.367   4.908   1.734  0.4258 -0.3509  0.3280
 6587TIP3    H119767   2.283   4.892   1.777  0.1325  3.9288  1.8493
 6587TIP3    H219768   2.345   4.959   1.656  1.4612 -2.7366 -1.6649
 6588TIP3   OH219769   5.075   0.951   3.645 -0.3922  0.0705  0.3913
 6588TIP3    H119770   5.061   0.965   3.738 -1.2949 -1.3298  0.4939
 6588TIP3    H219771   5.159   0.906   3.639 -1.3312 -1.8227  0.7493
 6589TIP3   OH219772   6.218   2.645   2.436 -0.1702  0.3400  0.4038
 6589TIP3    H119773   6.313   2.655   2.446 -0.4227  2.1938  1.4525
 6589TIP3    H219774   6.206   2.555   2.405  1.8899 -0.1026  0.7660
 6590TIP3   OH219775   4.870   1.236   1.236 -0.1218  0.0990 -0.0177
 6590TIP3    H119776   4.879   1.250   1.330  0.5918 -2.1238  0.2902
 6590TIP3    H219777   4.913   1.312   1.197 -2.2271  2.1571  1.3602
 6591TIP3   OH219778   3.227   2.689   2.770 -0.0995 -0.4290 -0.3786
 6591TIP3    H119779   3.138   2.656   2.786 -0.5368  1.0773  0.4968
 6591TIP3    H219780   3.237   2.762   2.831  2.5138 -1.8313  1.0493
 6592TIP3   OH219781   4.576   0.188   0.745  0.1878 -0.3038  0.4283
 6592TIP3    H119782   4.544   0.275   0.769  2.9970  0.9361  0.0014
 6592TIP3    H219783   4.559   0.134   0.822 -0.9779  0.7546  0.9529
 6593TIP3   OH219784   5.995   3.583   2.585  0.2645  0.1535 -0.0163
 6593TIP3    H119785   5.942   3.569   2.663  1.5427  0.3280  0.9224
 6593TIP3    H219786   6.059   3.512   2.587  1.6800  1.3817  0.3210
 6594TIP3   OH219787   0.539   4.987   1.347  0.0922  0.3145  0.0281
 6594TIP3    H119788   0.529   4.908   1.401 -0.7523  0.4377  0.0664
 6594TIP3    H219789   0.451   5.004   1.313  0.2860  1.1880 -0.0526
 6595TIP3   OH219790   1.295   0.305   1.829  0.4396 -0.0003  0.1166
 6595TIP3    H119791   1.247   0.387   1.820 -1.2299 -0.9809 -0.1874
 6595TIP3    H219792   1.319   0.302   1.922 -0.1530  0.4609  0.2923
 6596TIP3   OH219793   2.725   1.262   1.043  0.2447  0.1183 -0.1624
 6596TIP3    H119794   2.688   1.246   1.129 -0.7201 -1.6759 -0.8756
 6596TIP3    H219795   2.678   1.339   1.011 -2.7765 -1.8793 -0.9014
 6597TIP3   OH219796   2.740   3.645   3.941  0.1003  0.2004  0.0610
 6597TIP3    H119797   2.798   3.720   3.932  0.0673  0.5688  2.2900
 6597TIP3    H219798   2.704   3.631   3.854  0.9238  2.0966 -0.6255
 6598TIP3   OH219799   4.840   1.138   3.315 -0.4438 -0.1214  0.5359
 6598TIP3    H119800   4.807   1.208   3.258 -1.1658 -0.5412  0.4279
 6598TIP3    H219801   4.857   1.065   3.256  0.7113  0.0862  0.5887
 6599TIP3   OH219802   1.073   4.868   4.577  0.6728  0.5357  0.3922
 6599TIP3    H119803   1.042   4.959   4.572 -0.6844  0.1287  1.1465
 6599TIP3    H219804   1.168   4.876   4.589  0.7144  1.8278 -0.5459
 6600TIP3   OH219805   2.634   1.858   5.168  0.2139 -0.1781 -0.4120
 6600TIP3    H119806   2.573   1.903   5.111 -0.4902  3.0911  2.5731
 6600TIP3    H219807   2.695   1.815   5.108 -2.1019  0.4920 -3.5163
 6601TIP3   OH219808   1.218   3.184   0.424  0.0652  0.0310  0.3083
 6601TIP3    H119809   1.181   3.192   0.512 -1.4739 -3.3293  0.1416
 6601TIP3    H219810   1.290   3.121   0.434 -0.4034 -0.7207 -0.8253
 6602TIP3   OH219811   3.368   4.224   3.436 -0.6442 -0.4055 -0.1680
 6602TIP3    H119812   3.444   4.268   3.473 -0.9552  2.5221 -2.5705
 6602TIP3    H219813   3.404   4.170   3.365 -0.5576 -1.8552  0.9267
 6603TIP3   OH219814   1.380   5.662   3.620 -0.0509  0.1343  0.2714
 6603TIP3    H119815   1.311   5.606   3.584 -0.5033 -0.0689  1.4388
 6603TIP3    H219816   1.363   5.664   3.714  1.5533  0.0591  0.5841
 6604TIP3   OH219817   3.496   1.695   2.332  0.0676 -0.4226  0.3974
 6604TIP3    H119818   3.590   1.711   2.318  0.4420 -2.0441  0.8526
 6604TIP3    H219819   3.492   1.653   2.418 -1.1607  0.2672  0.6915
 6605TIP3   OH219820   5.177   5.599   4.514 -0.0800  0.2394 -0.3725
 6605TIP3    H119821   5.125   5.532   4.470 -0.8293 -0.9915  2.1984
 6605TIP3    H219822   5.152   5.680   4.471 -4.2787 -0.2521  0.6700
 6606TIP3   OH219823   0.146   0.162   4.887  0.0116  0.1332 -0.0533
 6606TIP3    H119824   0.075   0.157   4.951 -0.8903 -0.2981 -1.0451
 6606TIP3    H219825   0.156   0.255   4.870  0.9225  0.3278  1.4041
 6607TIP3   OH219826   2.694   4.362   1.837  0.1844 -0.7993 -0.3625
 6607TIP3    H119827   2.707   4.276   1.797  1.0182 -1.9658  2.1648
 6607TIP3    H219828   2.632   4.345   1.908  0.4883  0.6718  0.2774
 6608TIP3   OH219829   5.869   5.593   1.840  0.3164 -0.6483 -0.2693
 6608TIP3    H119830   5.878   5.665   1.778 -1.4266  0.5939  0.7964
 6608TIP3    H219831   5.924   5.618   1.914 -0.5595 -0.1830  0.2501
 6609TIP3   OH219832   5.346   3.056   3.575  0.2642  0.1798 -0.3414
 6609TIP3    H119833   5.394   2.975   3.560  0.7080  0.1923  0.9075
 6609TIP3    H219834   5.299   3.041   3.657  0.5454  1.2616  0.0298
 6610TIP3   OH219835   0.342   5.499   4.323  0.8352 -0.2159  0.3207
 6610TIP3    H119836   0.269   5.501   4.261  1.5741 -0.3711 -0.5841
 6610TIP3    H219837   0.339   5.583   4.367  0.3559 -0.0587 -0.0042
 6611TIP3   OH219838   3.390   2.195   2.641  0.7104  0.0523  0.0934
 6611TIP3    H119839   3.338   2.202   2.721  0.0785 -0.8532 -0.2133
 6611TIP3    H219840   3.447   2.120   2.655  0.4496 -0.2424 -0.3746
 6612TIP3   OH219841   2.459   0.603   0.179  0.0481  0.2944  0.1459
 6612TIP3    H119842   2.406   0.604   0.099  0.8369  0.0102 -0.3972
 6612TIP3    H219843   2.549   0.605   0.147  0.3761 -0.0011  1.0313
 6613TIP3   OH219844   1.264   5.234   2.314  0.5227  0.0744 -0.1194
 6613TIP3    H119845   1.224   5.307   2.362 -0.8301 -0.3831 -0.5200
 6613TIP3    H219846   1.216   5.231   2.231  2.1236  0.1891 -1.0829
 6614TIP3   OH219847   3.220   2.852   1.727 -0.2676 -0.1610  0.3229
 6614TIP3    H119848   3.253   2.826   1.813  2.6235  0.6867 -0.3963
 6614TIP3    H219849   3.186   2.941   1.740 -1.1305 -0.5666  0.8510
 6615TIP3   OH219850   5.216   4.541   4.654  0.5055 -0.3573 -0.8665
 6615TIP3    H119851   5.259   4.462   4.621  3.1772  1.3834 -1.8666
 6615TIP3    H219852   5.212   4.529   4.749  1.8903 -1.2462 -0.9005
 6616TIP3   OH219853   5.940   2.437   0.983  0.2808  0.1885  0.2297
 6616TIP3    H119854   5.988   2.455   0.903  2.8383 -0.8843  1.3851
 6616TIP3    H219855   5.906   2.522   1.011  1.7008  1.0529 -0.5710
 6617TIP3   OH219856   3.271   5.763   1.051  0.3848  0.4548  0.5944
 6617TIP3    H119857   3.213   5.836   1.075 -0.3645  0.2101 -0.4154
 6617TIP3    H219858   3.211   5.694   1.023  1.1797  0.4380 -1.1705
 6618TIP3   OH219859   6.015   2.342   3.532  0.1620 -0.8960 -0.1629
 6618TIP3    H119860   6.034   2.326   3.624  0.2434  1.4151  0.2780
 6618TIP3    H219861   6.038   2.433   3.518 -0.1214 -1.1084 -2.4233
 6619TIP3   OH219862   5.122   0.451   4.409 -0.0873 -0.8154 -0.0797
 6619TIP3    H119863   5.090   0.446   4.499 -0.2091  0.3797 -0.0456
 6619TIP3    H219864   5.153   0.541   4.399  2.2166 -1.5967 -0.4752
 6620TIP3   OH219865   1.729   3.954   1.568 -0.0525 -0.5448 -0.4123
 6620TIP3    H119866   1.709   3.953   1.475  0.8274 -1.0400 -0.6036
 6620TIP3    H219867   1.643   3.960   1.611 -0.9104 -4.6675 -1.1306
 6621TIP3   OH219868   2.514   1.205   2.208  0.4369 -0.3341  0.1280
 6621TIP3    H119869   2.492   1.294   2.236  0.7566 -0.4350  0.7112
 6621TIP3    H219870   2.605   1.211   2.179 -0.1530 -0.0349 -1.7631
 6622TIP3   OH219871   5.079   5.726   2.167  0.8847 -0.3890 -0.0320
 6622TIP3    H119872   5.144   5.796   2.168  1.1093 -0.5984  0.2819
 6622TIP3    H219873   5.067   5.706   2.074  1.0769 -0.1736 -0.1042
 6623TIP3   OH219874   2.662   2.638   3.971  0.4862  0.2152  0.2262
 6623TIP3    H119875   2.628   2.657   4.059  1.4182  0.7318  0.4930
 6623TIP3    H219876   2.720   2.563   3.984 -0.9315 -1.0076 -0.3189
 6624TIP3   OH219877   4.676   5.379   0.834 -0.1353 -0.0061  0.6449
 6624TIP3    H119878   4.681   5.309   0.769  0.8303 -0.1775  0.8891
 6624TIP3    H219879   4.597   5.428   0.810 -1.1238 -1.4867  0.7918
 6625TIP3   OH219880   0.895   0.919   3.977  0.0927 -0.1035 -0.1590
 6625TIP3    H119881   0.960   0.862   3.936  0.5117 -0.0671  0.4384
 6625TIP3    H219882   0.913   0.912   4.071 -0.8314 -0.1614  0.0237
 6626TIP3   OH219883   6.246   2.529   2.802 -0.1071 -0.3525  0.3603
 6626TIP3    H119884   6.256   2.487   2.887 -1.8213 -2.6482 -0.4773
 6626TIP3    H219885   6.335   2.535   2.768  0.7168  1.2876  2.5230
 6627TIP3   OH219886   1.460   1.269   0.470  0.3800  0.2553  0.7199
 6627TIP3    H119887   1.518   1.193   0.468  1.4235  0.9731  2.1962
 6627TIP3    H219888   1.439   1.285   0.378 -0.8621 -2.5208  0.4254
 6628TIP3   OH219889   2.786   5.727   2.618  0.8036  0.5010 -0.5292
 6628TIP3    H119890   2.695   5.715   2.592  0.5543  0.5928  0.2707
 6628TIP3    H219891   2.810   5.644   2.660  1.4571  0.0474 -1.7588
 6629TIP3   OH219892   4.965   3.849   4.637 -0.1400 -0.2740  0.0633
 6629TIP3    H119893   4.970   3.889   4.550  2.7766  0.6128  0.5289
 6629TIP3    H219894   4.917   3.767   4.622 -1.5985  0.8319 -1.9209
 6630TIP3   OH219895   2.773   1.011   2.842  0.5205  0.1961  0.1308
 6630TIP3    H119896   2.855   1.024   2.890 -0.6440  1.2444  1.9874
 6630TIP3    H219897   2.733   1.098   2.841 -0.7775 -0.3889 -0.3048
 6631TIP3   OH219898   3.421   0.032   1.468 -0.0395 -0.0848 -0.0519
 6631TIP3    H119899   3.513   0.046   1.491  0.9567 -1.4807 -2.7542
 6631TIP3    H219900   3.397   0.109   1.416 -0.7841  0.7589  1.4642
 6632TIP3   OH219901   2.854   1.824   5.006  0.3811  0.2310 -0.6902
 6632TIP3    H119902   2.810   1.821   4.921  0.5951 -2.1886 -0.7895
 6632TIP3    H219903   2.929   1.765   4.996  0.3336 -0.2170  1.1835
 6633TIP3   OH219904   3.688   1.340   0.192 -0.3450 -0.0286 -0.1442
 6633TIP3    H119905   3.672   1.364   0.101 -1.2941 -2.6254 -0.7695
 6633TIP3    H219906   3.773   1.295   0.190 -0.5140 -0.3678  0.1754
 6634TIP3   OH219907   5.267   2.986   1.529 -0.5291 -0.0602  0.2475
 6634TIP3    H119908   5.350   2.963   1.572 -0.8610 -0.1474  0.8565
 6634TIP3    H219909   5.228   2.901   1.506 -1.3125 -0.1150  1.6461
 6635TIP3   OH219910   5.914   0.101   0.559  0.0020  0.0686  0.5755
 6635TIP3    H119911   5.851   0.065   0.621  1.0448 -0.7694  1.1675
 6635TIP3    H219912   5.997   0.058   0.580  0.7236  0.9374 -0.3710
 6636TIP3   OH219913   0.966   1.437   3.326  0.5239  0.0316 -0.2285
 6636TIP3    H119914   1.046   1.440   3.378 -0.3278 -0.1711  1.1637
 6636TIP3    H219915   0.900   1.478   3.383 -0.5725 -0.7483 -0.9113
 6637TIP3   OH219916   2.717   1.673   0.810  0.2164  0.1711  0.1980
 6637TIP3    H119917   2.683   1.584   0.813  1.5596 -0.6211 -3.3188
 6637TIP3    H219918   2.643   1.726   0.781  0.2373 -0.4412 -1.0427
 6638TIP3   OH219919   0.781   1.215   4.906  0.3070  0.1382  0.2896
 6638TIP3    H119920   0.687   1.202   4.917 -0.3264  2.2610 -1.7487
 6638TIP3    H219921   0.821   1.136   4.942 -2.2501 -0.8609  1.1251
 6639TIP3   OH219922   4.067   1.567   0.384 -0.2121 -0.2045  0.2859
 6639TIP3    H119923   4.071   1.552   0.478 -0.7006  0.5843  0.4409
 6639TIP3    H219924   4.150   1.533   0.351  0.3616  0.3475  1.1285
 6640TIP3   OH219925   5.526   0.686   2.903  0.0872 -0.4111 -0.5535
 6640TIP3    H119926   5.568   0.691   2.989  0.2458 -1.4735 -0.5587
 6640TIP3    H219927   5.530   0.594   2.879 -0.2862 -0.1876 -1.5453
 6641TIP3   OH219928   3.648   1.455   5.042  0.2030  0.2279  0.3691
 6641TIP3    H119929   3.675   1.545   5.059 -0.7139  0.5160  0.3588
 6641TIP3    H219930   3.667   1.440   4.950  1.4752  0.0036  0.6595
 6642TIP3   OH219931   3.567   2.513   3.172  0.6347 -0.2271 -0.2248
 6642TIP3    H119932   3.593   2.596   3.212 -0.1173  0.5432 -1.2933
 6642TIP3    H219933   3.582   2.526   3.078  3.6377 -2.4569 -0.2062
 6643TIP3   OH219934   4.670   4.934   2.397 -0.0207 -0.1457  0.1836
 6643TIP3    H119935   4.758   4.921   2.362 -0.1477 -0.1073 -0.1576
 6643TIP3    H219936   4.618   4.958   2.320 -0.4727 -0.8328  0.2673
 6644TIP3   OH219937   0.177   3.513   4.523 -0.1346  0.0543  0.2016
 6644TIP3    H119938   0.180   3.433   4.574 -2.8762 -0.4969 -0.3186
 6644TIP3    H219939   0.191   3.583   4.587  2.2367 -0.7447  0.6689
 6645TIP3   OH219940   4.273   2.597   2.522 -0.1024  0.1860 -0.1801
 6645TIP3    H119941   4.263   2.532   2.591  0.4908  0.6387  0.3372
 6645TIP3    H219942   4.224   2.673   2.552  0.7281  0.6350  0.0833
   6.34455   5.98170   5.18030   0.00000   0.00000  -2.11485   0.00000  -2.11485  -2.99085
