Title t= 225.00000 step= 112500
19942
    1ASP      N    1   0.454   1.685   3.498
    1ASP    HT1    2   0.398   1.690   3.586
    1ASP    HT2    3   0.412   1.599   3.459
    1ASP    HT3    4   0.436   1.764   3.432
    1ASP     CA    5   0.603   1.672   3.531
    1ASP     HA    6   0.640   1.769   3.560
    1ASP     CB    7   0.615   1.563   3.650
    1ASP    HB1    8   0.546   1.476   3.638
    1ASP    HB2    9   0.574   1.603   3.745
    1ASP     CG   10   0.754   1.513   3.681
    1ASP    OD1   11   0.773   1.410   3.752
    1ASP    OD2   12   0.846   1.592   3.657
    1ASP      C   13   0.681   1.629   3.402
    1ASP      O   14   0.747   1.712   3.345
    2ALA      N   15   0.658   1.508   3.349
    2ALA     HN   16   0.588   1.454   3.395
    2ALA     CA   17   0.711   1.450   3.225
    2ALA     HA   18   0.818   1.464   3.231
    2ALA     CB   19   0.660   1.307   3.209
    2ALA    HB1   20   0.678   1.256   3.306
    2ALA    HB2   21   0.714   1.251   3.129
    2ALA    HB3   22   0.553   1.308   3.177
    2ALA      C   23   0.665   1.528   3.092
    2ALA      O   24   0.557   1.588   3.096
    3ASP      N   25   0.747   1.542   2.984
    3ASP     HN   26   0.841   1.510   2.993
    3ASP     CA   27   0.708   1.587   2.856
    3ASP     HA   28   0.654   1.681   2.861
    3ASP     CB   29   0.837   1.618   2.792
    3ASP    HB1   30   0.812   1.647   2.688
    3ASP    HB2   31   0.911   1.536   2.780
    3ASP     CG   32   0.903   1.741   2.846
    3ASP    OD1   33   1.027   1.737   2.854
    3ASP    OD2   34   0.842   1.845   2.879
    3ASP      C   35   0.627   1.487   2.781
    3ASP      O   36   0.625   1.366   2.813
    4GLY      N   37   0.547   1.523   2.675
    4GLY     HN   38   0.525   1.618   2.654
    4GLY     CA   39   0.469   1.427   2.589
    4GLY    HA1   40   0.429   1.488   2.509
    4GLY    HA2   41   0.395   1.390   2.657
    4GLY      C   42   0.552   1.317   2.518
    4GLY      O   43   0.676   1.314   2.521
    5PRO      N   44   0.486   1.215   2.458
    5PRO     CD   45   0.344   1.178   2.474
    5PRO    HD1   46   0.297   1.259   2.414
    5PRO    HD2   47   0.306   1.192   2.578
    5PRO     CA   48   0.546   1.147   2.341
    5PRO     HA   49   0.621   1.078   2.378
    5PRO     CB   50   0.428   1.068   2.280
    5PRO    HB1   51   0.468   0.974   2.239
    5PRO    HB2   52   0.382   1.121   2.194
    5PRO     CG   53   0.319   1.058   2.394
    5PRO    HG1   54   0.217   1.054   2.351
    5PRO    HG2   55   0.334   0.967   2.456
    5PRO      C   56   0.616   1.228   2.240
    5PRO      O   57   0.553   1.331   2.201
    6GLY      N   58   0.723   1.175   2.184
    6GLY     HN   59   0.740   1.081   2.215
    6GLY     CA   60   0.819   1.228   2.082
    6GLY    HA1   61   0.922   1.197   2.093
    6GLY    HA2   62   0.808   1.335   2.091
    6GLY      C   63   0.781   1.189   1.934
    6GLY      O   64   0.672   1.151   1.892
    7ASP      N   65   0.882   1.189   1.845
    7ASP     HN   66   0.962   1.238   1.878
    7ASP     CA   67   0.893   1.119   1.716
    7ASP     HA   68   0.819   1.157   1.647
    7ASP     CB   69   1.034   1.146   1.646
    7ASP    HB1   70   1.117   1.128   1.717
    7ASP    HB2   71   1.055   1.247   1.606
    7ASP     CG   72   1.058   1.060   1.519
    7ASP    OD1   73   1.172   1.031   1.489
    7ASP    OD2   74   0.967   1.033   1.439
    7ASP      C   75   0.860   0.970   1.729
    7ASP      O   76   0.913   0.890   1.805
    8PRO      N   77   0.763   0.914   1.650
    8PRO     CD   78   0.679   0.977   1.540
    8PRO    HD1   79   0.742   1.032   1.467
    8PRO    HD2   80   0.615   1.052   1.590
    8PRO     CA   81   0.722   0.776   1.664
    8PRO     HA   82   0.733   0.743   1.766
    8PRO     CB   83   0.578   0.778   1.605
    8PRO    HB1   84   0.516   0.834   1.678
    8PRO    HB2   85   0.529   0.680   1.589
    8PRO     CG   86   0.596   0.862   1.477
    8PRO    HG1   87   0.649   0.810   1.395
    8PRO    HG2   88   0.505   0.912   1.438
    8PRO      C   89   0.814   0.675   1.592
    8PRO      O   90   0.791   0.553   1.585
    9ASP      N   91   0.935   0.721   1.561
    9ASP     HN   92   0.949   0.820   1.561
    9ASP     CA   93   1.044   0.642   1.512
    9ASP     HA   94   1.013   0.538   1.516
    9ASP     CB   95   1.096   0.681   1.373
    9ASP    HB1   96   1.193   0.628   1.355
    9ASP    HB2   97   1.104   0.789   1.347
    9ASP     CG   98   1.003   0.628   1.263
    9ASP    OD1   99   1.000   0.692   1.151
    9ASP    OD2  100   0.939   0.520   1.283
    9ASP      C  101   1.160   0.651   1.614
    9ASP      O  102   1.273   0.615   1.590
   10ALA      N  103   1.130   0.690   1.740
   10ALA     HN  104   1.035   0.701   1.769
   10ALA     CA  105   1.222   0.717   1.847
   10ALA     HA  106   1.313   0.664   1.823
   10ALA     CB  107   1.240   0.873   1.848
   10ALA    HB1  108   1.334   0.902   1.900
   10ALA    HB2  109   1.145   0.911   1.891
   10ALA    HB3  110   1.240   0.910   1.743
   10ALA      C  111   1.171   0.670   1.984
   10ALA      O  112   1.056   0.694   2.020
   11GLY      N  113   1.257   0.603   2.063
   11GLY     HN  114   1.351   0.586   2.032
   11GLY     CA  115   1.222   0.537   2.194
   11GLY    HA1  116   1.160   0.598   2.257
   11GLY    HA2  117   1.314   0.509   2.242
   11GLY      C  118   1.146   0.405   2.175
   11GLY    OT1  119   1.035   0.400   2.232
   11GLY    OT2  120   1.189   0.311   2.109
   12LIT    LIT  121   3.949   4.630   4.861
   13LIT    LIT  122   0.985   2.811   2.305
   14LIT    LIT  123   2.777   0.290   4.061
   15LIT    LIT  124   3.851   5.360   4.898
   16LIT    LIT  125   4.050   5.921   3.559
   17LIT    LIT  126   2.311   4.315   3.457
   18LIT    LIT  127   5.982   5.604   2.763
   19LIT    LIT  128   1.086   0.202   0.828
   20LIT    LIT  129   4.094   5.390   0.026
   21LIT    LIT  130   1.368   5.294   2.689
   22LIT    LIT  131   3.632   3.406   1.068
   23LIT    LIT  132   2.584   1.418   2.128
   24LIT    LIT  133   1.525   5.381   4.489
   25LIT    LIT  134   4.553   0.152   1.199
   26LIT    LIT  135   3.016   2.160   5.090
   27LIT    LIT  136   4.378   5.903   2.776
   28LIT    LIT  137   0.911   1.509   3.842
   29LIT    LIT  138   3.205   4.275   3.087
   30LIT    LIT  139   1.353   2.073   1.865
   31LIT    LIT  140   4.991   1.813   4.480
   32LIT    LIT  141   2.065   4.938   2.318
   33LIT    LIT  142   5.314   1.962   3.076
   34CLA    CLA  143   5.288   2.108   2.014
   35CLA    CLA  144   5.366   0.120   3.846
   36CLA    CLA  145   3.910   0.029   3.174
   37CLA    CLA  146   1.803   0.207   4.464
   38CLA    CLA  147   1.711   2.198   5.055
   39CLA    CLA  148   3.461   5.218   5.195
   40CLA    CLA  149   4.058   2.875   0.616
   41CLA    CLA  150   1.747   3.897   0.980
   42CLA    CLA  151   3.474   3.608   1.622
   43CLA    CLA  152   2.299   2.628   1.872
   44CLA    CLA  153   5.493   3.913   4.598
   45CLA    CLA  154   0.472   5.334   2.635
   46CLA    CLA  155   2.700   5.813   3.479
   47CLA    CLA  156   3.045   2.376   5.125
   48CLA    CLA  157   3.496   4.289   4.538
   49CLA    CLA  158   5.384   5.710   1.592
   50CLA    CLA  159   2.633   1.632   2.519
   51CLA    CLA  160   0.257   5.838   0.788
   52TIP3   OH2  161   5.970   1.033   1.791
   52TIP3    H1  162   6.057   1.011   1.826
   52TIP3    H2  163   5.944   0.955   1.742
   53TIP3   OH2  164   0.245   1.017   1.952
   53TIP3    H1  165   0.242   1.109   1.977
   53TIP3    H2  166   0.198   1.013   1.869
   54TIP3   OH2  167   0.075   2.063   3.336
   54TIP3    H1  168   0.125   2.136   3.371
   54TIP3    H2  169   0.016   2.103   3.272
   55TIP3   OH2  170   2.532   4.482   1.707
   55TIP3    H1  171   2.610   4.467   1.653
   55TIP3    H2  172   2.461   4.440   1.659
   56TIP3   OH2  173   4.207   1.844   1.075
   56TIP3    H1  174   4.156   1.766   1.051
   56TIP3    H2  175   4.298   1.812   1.080
   57TIP3   OH2  176   5.337   1.105   4.452
   57TIP3    H1  177   5.264   1.075   4.506
   57TIP3    H2  178   5.382   1.024   4.426
   58TIP3   OH2  179   6.248   3.997   1.418
   58TIP3    H1  180   6.286   3.944   1.348
   58TIP3    H2  181   6.319   4.005   1.483
   59TIP3   OH2  182   5.372   2.797   3.678
   59TIP3    H1  183   5.463   2.825   3.669
   59TIP3    H2  184   5.350   2.817   3.769
   60TIP3   OH2  185   1.863   0.158   0.559
   60TIP3    H1  186   1.825   0.185   0.642
   60TIP3    H2  187   1.957   0.162   0.573
   61TIP3   OH2  188   5.942   2.089   1.052
   61TIP3    H1  189   5.853   2.115   1.076
   61TIP3    H2  190   5.996   2.119   1.124
   62TIP3   OH2  191   4.265   5.186   2.892
   62TIP3    H1  192   4.187   5.175   2.947
   62TIP3    H2  193   4.230   5.200   2.804
   63TIP3   OH2  194   4.553   3.512   1.265
   63TIP3    H1  195   4.510   3.430   1.242
   63TIP3    H2  196   4.530   3.527   1.356
   64TIP3   OH2  197   3.892   5.226   1.666
   64TIP3    H1  198   3.966   5.167   1.672
   64TIP3    H2  199   3.929   5.308   1.633
   65TIP3   OH2  200   5.594   3.321   4.934
   65TIP3    H1  201   5.594   3.379   5.010
   65TIP3    H2  202   5.504   3.287   4.929
   66TIP3   OH2  203   4.878   2.549   3.667
   66TIP3    H1  204   4.920   2.466   3.689
   66TIP3    H2  205   4.784   2.531   3.674
   67TIP3   OH2  206   2.117   5.915   0.215
   67TIP3    H1  207   2.151   5.898   0.303
   67TIP3    H2  208   2.102   6.009   0.212
   68TIP3   OH2  209   1.726   0.866   0.554
   68TIP3    H1  210   1.707   0.950   0.512
   68TIP3    H2  211   1.646   0.815   0.542
   69TIP3   OH2  212   4.948   0.981   5.024
   69TIP3    H1  213   4.938   1.075   5.012
   69TIP3    H2  214   4.915   0.942   4.944
   70TIP3   OH2  215   2.483   5.726   3.262
   70TIP3    H1  216   2.480   5.632   3.243
   70TIP3    H2  217   2.570   5.740   3.300
   71TIP3   OH2  218   3.897   3.958   2.632
   71TIP3    H1  219   3.887   4.039   2.582
   71TIP3    H2  220   3.836   3.967   2.705
   72TIP3   OH2  221   5.106   5.239   0.958
   72TIP3    H1  222   5.196   5.264   0.979
   72TIP3    H2  223   5.114   5.185   0.879
   73TIP3   OH2  224   0.773   5.826   1.627
   73TIP3    H1  225   0.729   5.744   1.650
   73TIP3    H2  226   0.852   5.799   1.581
   74TIP3   OH2  227   2.664   5.904   4.485
   74TIP3    H1  228   2.714   5.859   4.417
   74TIP3    H2  229   2.649   5.837   4.552
   75TIP3   OH2  230   4.679   4.107   1.532
   75TIP3    H1  231   4.649   4.026   1.490
   75TIP3    H2  232   4.769   4.117   1.503
   76TIP3   OH2  233   0.688   0.103   0.676
   76TIP3    H1  234   0.663   0.026   0.624
   76TIP3    H2  235   0.619   0.167   0.658
   77TIP3   OH2  236   0.163   1.590   4.079
   77TIP3    H1  237   0.229   1.658   4.067
   77TIP3    H2  238   0.091   1.636   4.124
   78TIP3   OH2  239   0.728   1.963   2.666
   78TIP3    H1  240   0.659   2.021   2.697
   78TIP3    H2  241   0.749   1.908   2.742
   79TIP3   OH2  242   5.983   0.488   0.776
   79TIP3    H1  243   6.034   0.565   0.750
   79TIP3    H2  244   5.892   0.519   0.779
   80TIP3   OH2  245   4.169   1.346   5.026
   80TIP3    H1  246   4.080   1.355   4.992
   80TIP3    H2  247   4.170   1.259   5.067
   81TIP3   OH2  248   1.292   3.613   3.574
   81TIP3    H1  249   1.221   3.616   3.637
   81TIP3    H2  250   1.267   3.678   3.507
   82TIP3   OH2  251   0.726   0.719   3.526
   82TIP3    H1  252   0.659   0.726   3.594
   82TIP3    H2  253   0.808   0.705   3.574
   83TIP3   OH2  254   0.234   1.904   3.944
   83TIP3    H1  255   0.145   1.918   3.913
   83TIP3    H2  256   0.245   1.968   4.015
   84TIP3   OH2  257   2.911   3.092   0.074
   84TIP3    H1  258   2.931   3.180   0.044
   84TIP3    H2  259   2.992   3.043   0.060
   85TIP3   OH2  260   2.942   4.392   5.008
   85TIP3    H1  261   2.895   4.318   4.969
   85TIP3    H2  262   2.980   4.356   5.088
   86TIP3   OH2  263   5.344   0.721   0.906
   86TIP3    H1  264   5.372   0.748   0.819
   86TIP3    H2  265   5.272   0.659   0.890
   87TIP3   OH2  266   4.512   4.650   2.100
   87TIP3    H1  267   4.458   4.572   2.092
   87TIP3    H2  268   4.450   4.720   2.121
   88TIP3   OH2  269   5.652   1.855   1.488
   88TIP3    H1  270   5.697   1.940   1.497
   88TIP3    H2  271   5.702   1.796   1.545
   89TIP3   OH2  272   1.219   3.465   4.746
   89TIP3    H1  273   1.242   3.558   4.748
   89TIP3    H2  274   1.123   3.465   4.739
   90TIP3   OH2  275   2.696   4.391   1.506
   90TIP3    H1  276   2.781   4.359   1.536
   90TIP3    H2  277   2.639   4.314   1.506
   91TIP3   OH2  278   6.122   0.193   4.588
   91TIP3    H1  279   6.129   0.144   4.506
   91TIP3    H2  280   6.108   0.126   4.655
   92TIP3   OH2  281   4.966   0.937   0.289
   92TIP3    H1  282   4.954   1.018   0.240
   92TIP3    H2  283   4.986   0.871   0.223
   93TIP3   OH2  284   4.725   5.310   0.902
   93TIP3    H1  285   4.799   5.325   0.843
   93TIP3    H2  286   4.722   5.388   0.958
   94TIP3   OH2  287   4.162   5.812   3.440
   94TIP3    H1  288   4.180   5.718   3.447
   94TIP3    H2  289   4.242   5.850   3.405
   95TIP3   OH2  290   1.704   5.714   2.148
   95TIP3    H1  291   1.645   5.753   2.084
   95TIP3    H2  292   1.694   5.620   2.136
   96TIP3   OH2  293   5.218   1.256   5.080
   96TIP3    H1  294   5.295   1.312   5.079
   96TIP3    H2  295   5.200   1.241   5.173
   97TIP3   OH2  296   4.028   1.165   0.457
   97TIP3    H1  297   4.086   1.218   0.512
   97TIP3    H2  298   3.944   1.165   0.503
   98TIP3   OH2  299   5.435   5.101   0.161
   98TIP3    H1  300   5.463   5.033   0.101
   98TIP3    H2  301   5.493   5.091   0.237
   99TIP3   OH2  302   1.963   1.612   2.484
   99TIP3    H1  303   1.955   1.523   2.451
   99TIP3    H2  304   1.908   1.664   2.425
  100TIP3   OH2  305   5.129   1.987   5.067
  100TIP3    H1  306   5.195   2.002   5.135
  100TIP3    H2  307   5.179   1.955   4.992
  101TIP3   OH2  308   4.997   4.031   2.783
  101TIP3    H1  309   5.031   4.057   2.869
  101TIP3    H2  310   4.995   3.936   2.786
  102TIP3   OH2  311   0.460   2.653   4.502
  102TIP3    H1  312   0.528   2.679   4.564
  102TIP3    H2  313   0.499   2.667   4.416
  103TIP3   OH2  314   2.681   0.996   2.916
  103TIP3    H1  315   2.757   0.945   2.944
  103TIP3    H2  316   2.684   0.993   2.820
  104TIP3   OH2  317   0.063   1.367   2.151
  104TIP3    H1  318   0.080   1.461   2.159
  104TIP3    H2  319   0.107   1.341   2.070
  105TIP3   OH2  320   1.132   2.571   0.922
  105TIP3    H1  321   1.107   2.571   0.829
  105TIP3    H2  322   1.210   2.515   0.925
  106TIP3   OH2  323   0.406   3.413   1.242
  106TIP3    H1  324   0.395   3.468   1.165
  106TIP3    H2  325   0.317   3.400   1.275
  107TIP3   OH2  326   2.102   5.817   4.958
  107TIP3    H1  327   2.164   5.884   4.988
  107TIP3    H2  328   2.134   5.736   4.999
  108TIP3   OH2  329   6.059   2.824   3.487
  108TIP3    H1  330   6.143   2.852   3.524
  108TIP3    H2  331   6.013   2.906   3.468
  109TIP3   OH2  332   2.197   1.787   0.765
  109TIP3    H1  333   2.204   1.872   0.809
  109TIP3    H2  334   2.159   1.729   0.832
  110TIP3   OH2  335   4.087   5.569   3.714
  110TIP3    H1  336   4.090   5.478   3.686
  110TIP3    H2  337   3.996   5.582   3.743
  111TIP3   OH2  338   0.415   5.339   2.182
  111TIP3    H1  339   0.322   5.319   2.185
  111TIP3    H2  340   0.426   5.390   2.102
  112TIP3   OH2  341   5.421   1.643   2.929
  112TIP3    H1  342   5.440   1.641   2.836
  112TIP3    H2  343   5.497   1.602   2.970
  113TIP3   OH2  344   1.215   5.724   4.008
  113TIP3    H1  345   1.274   5.797   3.989
  113TIP3    H2  346   1.162   5.714   3.929
  114TIP3   OH2  347   0.862   2.945   2.212
  114TIP3    H1  348   0.835   3.024   2.259
  114TIP3    H2  349   0.922   2.977   2.145
  115TIP3   OH2  350   0.570   0.276   3.799
  115TIP3    H1  351   0.531   0.333   3.866
  115TIP3    H2  352   0.496   0.248   3.745
  116TIP3   OH2  353   5.871   5.483   0.611
  116TIP3    H1  354   5.830   5.428   0.544
  116TIP3    H2  355   5.935   5.536   0.562
  117TIP3   OH2  356   3.422   4.161   2.648
  117TIP3    H1  357   3.392   4.107   2.721
  117TIP3    H2  358   3.451   4.098   2.582
  118TIP3   OH2  359   3.781   4.774   2.672
  118TIP3    H1  360   3.844   4.845   2.686
  118TIP3    H2  361   3.830   4.694   2.692
  119TIP3   OH2  362   4.482   5.883   2.348
  119TIP3    H1  363   4.459   5.846   2.263
  119TIP3    H2  364   4.486   5.977   2.333
  120TIP3   OH2  365   0.275   2.832   0.769
  120TIP3    H1  366   0.265   2.795   0.857
  120TIP3    H2  367   0.220   2.777   0.713
  121TIP3   OH2  368   0.485   1.624   4.908
  121TIP3    H1  369   0.427   1.680   4.959
  121TIP3    H2  370   0.433   1.544   4.893
  122TIP3   OH2  371   4.384   5.845   3.219
  122TIP3    H1  372   4.348   5.890   3.142
  122TIP3    H2  373   4.369   5.752   3.202
  123TIP3   OH2  374   2.191   5.276   0.400
  123TIP3    H1  375   2.197   5.192   0.446
  123TIP3    H2  376   2.210   5.253   0.308
  124TIP3   OH2  377   1.716   5.050   0.647
  124TIP3    H1  378   1.807   5.023   0.635
  124TIP3    H2  379   1.690   5.085   0.562
  125TIP3   OH2  380   3.135   4.096   1.507
  125TIP3    H1  381   3.177   4.062   1.586
  125TIP3    H2  382   3.060   4.039   1.492
  126TIP3   OH2  383   2.187   4.898   1.734
  126TIP3    H1  384   2.279   4.910   1.714
  126TIP3    H2  385   2.148   4.985   1.722
  127TIP3   OH2  386   2.296   3.944   3.351
  127TIP3    H1  387   2.266   4.009   3.413
  127TIP3    H2  388   2.275   3.860   3.391
  128TIP3   OH2  389   6.292   3.866   0.803
  128TIP3    H1  390   6.368   3.920   0.827
  128TIP3    H2  391   6.221   3.928   0.791
  129TIP3   OH2  392   5.899   0.777   3.435
  129TIP3    H1  393   5.986   0.812   3.456
  129TIP3    H2  394   5.843   0.811   3.504
  130TIP3   OH2  395   1.592   5.336   3.575
  130TIP3    H1  396   1.658   5.282   3.618
  130TIP3    H2  397   1.595   5.308   3.484
  131TIP3   OH2  398   0.874   5.571   1.432
  131TIP3    H1  399   0.914   5.647   1.391
  131TIP3    H2  400   0.781   5.578   1.411
  132TIP3   OH2  401   3.046   0.445   0.461
  132TIP3    H1  402   3.029   0.468   0.370
  132TIP3    H2  403   3.076   0.526   0.502
  133TIP3   OH2  404   4.115   2.002   5.089
  133TIP3    H1  405   4.164   1.922   5.104
  133TIP3    H2  406   4.106   2.007   4.994
  134TIP3   OH2  407   5.088   2.891   1.009
  134TIP3    H1  408   5.090   2.795   1.017
  134TIP3    H2  409   5.092   2.922   1.099
  135TIP3   OH2  410   0.967   2.660   2.840
  135TIP3    H1  411   0.934   2.684   2.926
  135TIP3    H2  412   0.990   2.744   2.799
  136TIP3   OH2  413   6.223   1.864   3.696
  136TIP3    H1  414   6.152   1.908   3.742
  136TIP3    H2  415   6.300   1.917   3.713
  137TIP3   OH2  416   0.464   5.427   4.714
  137TIP3    H1  417   0.403   5.438   4.787
  137TIP3    H2  418   0.414   5.378   4.649
  138TIP3   OH2  419   2.724   1.801   4.181
  138TIP3    H1  420   2.644   1.852   4.189
  138TIP3    H2  421   2.705   1.737   4.113
  139TIP3   OH2  422   0.307   5.264   3.292
  139TIP3    H1  423   0.310   5.305   3.379
  139TIP3    H2  424   0.330   5.335   3.232
  140TIP3   OH2  425   1.727   4.793   4.676
  140TIP3    H1  426   1.690   4.763   4.759
  140TIP3    H2  427   1.794   4.729   4.654
  141TIP3   OH2  428   4.603   1.212   4.177
  141TIP3    H1  429   4.664   1.171   4.116
  141TIP3    H2  430   4.586   1.298   4.139
  142TIP3   OH2  431   1.848   3.704   2.331
  142TIP3    H1  432   1.846   3.707   2.426
  142TIP3    H2  433   1.762   3.736   2.304
  143TIP3   OH2  434   0.445   1.808   3.246
  143TIP3    H1  435   0.526   1.781   3.204
  143TIP3    H2  436   0.391   1.842   3.175
  144TIP3   OH2  437   4.074   4.766   4.779
  144TIP3    H1  438   4.135   4.818   4.830
  144TIP3    H2  439   4.108   4.771   4.689
  145TIP3   OH2  440   5.268   5.836   4.407
  145TIP3    H1  441   5.237   5.842   4.316
  145TIP3    H2  442   5.356   5.874   4.404
  146TIP3   OH2  443   2.386   0.200   2.245
  146TIP3    H1  444   2.405   0.215   2.338
  146TIP3    H2  445   2.472   0.186   2.205
  147TIP3   OH2  446   2.335   2.763   0.431
  147TIP3    H1  447   2.326   2.706   0.507
  147TIP3    H2  448   2.413   2.730   0.386
  148TIP3   OH2  449   5.876   2.047   3.358
  148TIP3    H1  450   5.900   2.056   3.450
  148TIP3    H2  451   5.797   1.993   3.359
  149TIP3   OH2  452   5.074   5.646   4.432
  149TIP3    H1  453   5.022   5.631   4.352
  149TIP3    H2  454   5.119   5.729   4.416
  150TIP3   OH2  455   5.118   5.393   4.136
  150TIP3    H1  456   5.100   5.485   4.152
  150TIP3    H2  457   5.153   5.390   4.046
  151TIP3   OH2  458   5.714   1.968   1.759
  151TIP3    H1  459   5.732   2.031   1.828
  151TIP3    H2  460   5.639   1.918   1.792
  152TIP3   OH2  461   2.491   0.702   0.388
  152TIP3    H1  462   2.476   0.686   0.295
  152TIP3    H2  463   2.471   0.619   0.431
  153TIP3   OH2  464   0.012   3.610   3.208
  153TIP3    H1  465   0.089   3.554   3.209
  153TIP3    H2  466   0.036   3.684   3.153
  154TIP3   OH2  467   2.167   2.787   4.547
  154TIP3    H1  468   2.119   2.782   4.629
  154TIP3    H2  469   2.257   2.806   4.572
  155TIP3   OH2  470   6.026   0.633   5.113
  155TIP3    H1  471   6.043   0.558   5.171
  155TIP3    H2  472   6.029   0.709   5.170
  156TIP3   OH2  473   1.152   4.222   0.272
  156TIP3    H1  474   1.185   4.133   0.284
  156TIP3    H2  475   1.067   4.210   0.230
  157TIP3   OH2  476   4.889   0.083   0.054
  157TIP3    H1  477   4.949   0.020   0.093
  157TIP3    H2  478   4.833   0.031  -0.004
  158TIP3   OH2  479   4.182   0.104   1.555
  158TIP3    H1  480   4.145   0.123   1.469
  158TIP3    H2  481   4.109   0.066   1.605
  159TIP3   OH2  482   2.346   5.343   0.159
  159TIP3    H1  483   2.320   5.420   0.108
  159TIP3    H2  484   2.369   5.278   0.093
  160TIP3   OH2  485   3.619   0.747   5.209
  160TIP3    H1  486   3.641   0.666   5.164
  160TIP3    H2  487   3.536   0.774   5.170
  161TIP3   OH2  488   5.695   0.929   1.661
  161TIP3    H1  489   5.699   0.840   1.696
  161TIP3    H2  490   5.660   0.982   1.733
  162TIP3   OH2  491   3.607   2.258   4.696
  162TIP3    H1  492   3.574   2.309   4.622
  162TIP3    H2  493   3.697   2.290   4.709
  163TIP3   OH2  494   4.931   0.356   3.588
  163TIP3    H1  495   4.948   0.261   3.585
  163TIP3    H2  496   4.962   0.382   3.675
  164TIP3   OH2  497   1.793   5.830   3.766
  164TIP3    H1  498   1.760   5.744   3.793
  164TIP3    H2  499   1.742   5.853   3.688
  165TIP3   OH2  500   3.480   2.714   2.680
  165TIP3    H1  501   3.568   2.689   2.652
  165TIP3    H2  502   3.426   2.703   2.602
  166TIP3   OH2  503   2.425   5.393   1.181
  166TIP3    H1  504   2.494   5.434   1.129
  166TIP3    H2  505   2.344   5.429   1.145
  167TIP3   OH2  506   0.042   1.191   1.583
  167TIP3    H1  507  -0.042   1.211   1.541
  167TIP3    H2  508   0.060   1.267   1.638
  168TIP3   OH2  509   0.655   1.162   0.791
  168TIP3    H1  510   0.595   1.142   0.862
  168TIP3    H2  511   0.613   1.124   0.713
  169TIP3   OH2  512   5.363   0.296   4.657
  169TIP3    H1  513   5.274   0.263   4.670
  169TIP3    H2  514   5.387   0.265   4.569
  170TIP3   OH2  515   4.984   1.008   1.875
  170TIP3    H1  516   5.043   0.941   1.840
  170TIP3    H2  517   4.899   0.965   1.880
  171TIP3   OH2  518   3.268   4.770   0.869
  171TIP3    H1  519   3.318   4.698   0.831
  171TIP3    H2  520   3.265   4.751   0.962
  172TIP3   OH2  521   3.403   1.324   0.296
  172TIP3    H1  522   3.372   1.234   0.283
  172TIP3    H2  523   3.355   1.375   0.230
  173TIP3   OH2  524   2.546   4.282   2.536
  173TIP3    H1  525   2.606   4.356   2.531
  173TIP3    H2  526   2.589   4.218   2.592
  174TIP3   OH2  527   5.113   0.171   4.645
  174TIP3    H1  528   5.153   0.093   4.608
  174TIP3    H2  529   5.041   0.192   4.585
  175TIP3   OH2  530   2.356   4.655   0.829
  175TIP3    H1  531   2.267   4.667   0.796
  175TIP3    H2  532   2.389   4.578   0.783
  176TIP3   OH2  533   2.281   1.735   3.595
  176TIP3    H1  534   2.331   1.675   3.542
  176TIP3    H2  535   2.189   1.713   3.577
  177TIP3   OH2  536   2.314   5.885   4.618
  177TIP3    H1  537   2.282   5.806   4.662
  177TIP3    H2  538   2.408   5.884   4.635
  178TIP3   OH2  539   4.751   1.153   2.330
  178TIP3    H1  540   4.680   1.098   2.362
  178TIP3    H2  541   4.734   1.164   2.237
  179TIP3   OH2  542   1.137   4.449   1.155
  179TIP3    H1  543   1.150   4.503   1.077
  179TIP3    H2  544   1.060   4.396   1.136
  180TIP3   OH2  545   0.942   3.672   1.013
  180TIP3    H1  546   1.025   3.716   1.034
  180TIP3    H2  547   0.942   3.594   1.069
  181TIP3   OH2  548   3.620   0.113   0.222
  181TIP3    H1  549   3.685   0.074   0.163
  181TIP3    H2  550   3.560   0.159   0.164
  182TIP3   OH2  551   4.942   0.897   1.165
  182TIP3    H1  552   4.929   0.922   1.257
  182TIP3    H2  553   4.880   0.950   1.116
  183TIP3   OH2  554   4.499   3.343   0.095
  183TIP3    H1  555   4.411   3.379   0.080
  183TIP3    H2  556   4.515   3.358   0.189
  184TIP3   OH2  557   2.125   3.453   1.386
  184TIP3    H1  558   2.138   3.510   1.310
  184TIP3    H2  559   2.214   3.427   1.412
  185TIP3   OH2  560   2.061   3.037   2.992
  185TIP3    H1  561   2.137   2.984   2.969
  185TIP3    H2  562   1.986   2.978   2.979
  186TIP3   OH2  563   2.116   4.658   2.996
  186TIP3    H1  564   2.199   4.694   2.967
  186TIP3    H2  565   2.095   4.590   2.931
  187TIP3   OH2  566   6.299   1.075   4.850
  187TIP3    H1  567   6.380   1.092   4.801
  187TIP3    H2  568   6.229   1.103   4.791
  188TIP3   OH2  569   1.528   2.151   1.804
  188TIP3    H1  570   1.530   2.193   1.718
  188TIP3    H2  571   1.598   2.086   1.800
  189TIP3   OH2  572   2.595   5.802   0.816
  189TIP3    H1  573   2.561   5.892   0.814
  189TIP3    H2  574   2.526   5.752   0.859
  190TIP3   OH2  575   1.927   0.912   3.517
  190TIP3    H1  576   1.876   0.841   3.478
  190TIP3    H2  577   1.863   0.966   3.562
  191TIP3   OH2  578   5.103   0.616   3.160
  191TIP3    H1  579   5.197   0.612   3.173
  191TIP3    H2  580   5.066   0.598   3.247
  192TIP3   OH2  581   2.750   3.462   1.003
  192TIP3    H1  582   2.692   3.476   1.077
  192TIP3    H2  583   2.830   3.425   1.041
  193TIP3   OH2  584   4.612   2.174   3.216
  193TIP3    H1  585   4.653   2.198   3.299
  193TIP3    H2  586   4.667   2.214   3.149
  194TIP3   OH2  587   1.369   4.648   5.043
  194TIP3    H1  588   1.444   4.589   5.053
  194TIP3    H2  589   1.333   4.627   4.957
  195TIP3   OH2  590   4.513   0.634   0.354
  195TIP3    H1  591   4.593   0.686   0.346
  195TIP3    H2  592   4.542   0.551   0.394
  196TIP3   OH2  593   2.672   5.495   0.830
  196TIP3    H1  594   2.725   5.560   0.783
  196TIP3    H2  595   2.727   5.417   0.835
  197TIP3   OH2  596   4.156   2.191   3.616
  197TIP3    H1  597   4.068   2.228   3.612
  197TIP3    H2  598   4.144   2.099   3.595
  198TIP3   OH2  599   3.840   5.873   3.210
  198TIP3    H1  600   3.924   5.916   3.198
  198TIP3    H2  601   3.775   5.943   3.202
  199TIP3   OH2  602   4.060   2.544   0.362
  199TIP3    H1  603   4.023   2.558   0.449
  199TIP3    H2  604   4.070   2.449   0.355
  200TIP3   OH2  605   3.762   1.152   1.135
  200TIP3    H1  606   3.692   1.133   1.072
  200TIP3    H2  607   3.825   1.081   1.122
  201TIP3   OH2  608   5.398   2.557   3.972
  201TIP3    H1  609   5.343   2.489   3.932
  201TIP3    H2  610   5.338   2.608   4.026
  202TIP3   OH2  611   3.311   4.000   2.194
  202TIP3    H1  612   3.341   4.043   2.274
  202TIP3    H2  613   3.276   3.916   2.223
  203TIP3   OH2  614   4.035   3.003   2.566
  203TIP3    H1  615   3.957   3.042   2.528
  203TIP3    H2  616   4.008   2.914   2.591
  204TIP3   OH2  617   5.491   4.074   1.407
  204TIP3    H1  618   5.490   3.979   1.395
  204TIP3    H2  619   5.573   4.091   1.454
  205TIP3   OH2  620   3.644   1.171   4.321
  205TIP3    H1  621   3.709   1.109   4.288
  205TIP3    H2  622   3.611   1.132   4.401
  206TIP3   OH2  623   1.094   5.445   0.959
  206TIP3    H1  624   1.085   5.528   1.005
  206TIP3    H2  625   1.043   5.383   1.011
  207TIP3   OH2  626   3.523   3.641   4.947
  207TIP3    H1  627   3.572   3.699   4.889
  207TIP3    H2  628   3.581   3.566   4.961
  208TIP3   OH2  629   2.826   0.029   3.499
  208TIP3    H1  630   2.786   0.115   3.490
  208TIP3    H2  631   2.824  -0.008   3.410
  209TIP3   OH2  632   1.529   4.562   0.694
  209TIP3    H1  633   1.583   4.487   0.721
  209TIP3    H2  634   1.479   4.584   0.773
  210TIP3   OH2  635   1.715   5.681   2.546
  210TIP3    H1  636   1.746   5.596   2.517
  210TIP3    H2  637   1.788   5.718   2.595
  211TIP3   OH2  638   1.839   3.599   3.076
  211TIP3    H1  639   1.839   3.622   2.984
  211TIP3    H2  640   1.929   3.611   3.105
  212TIP3   OH2  641   4.573   0.719   0.892
  212TIP3    H1  642   4.579   0.792   0.831
  212TIP3    H2  643   4.664   0.702   0.918
  213TIP3   OH2  644   0.509   1.148   4.611
  213TIP3    H1  645   0.556   1.228   4.586
  213TIP3    H2  646   0.496   1.157   4.705
  214TIP3   OH2  647   1.862   3.705   1.233
  214TIP3    H1  648   1.806   3.698   1.310
  214TIP3    H2  649   1.812   3.759   1.172
  215TIP3   OH2  650   3.165   4.019   0.970
  215TIP3    H1  651   3.175   3.924   0.967
  215TIP3    H2  652   3.173   4.041   1.063
  216TIP3   OH2  653   0.477   1.801   4.664
  216TIP3    H1  654   0.410   1.733   4.670
  216TIP3    H2  655   0.546   1.763   4.610
  217TIP3   OH2  656   6.226   4.014   4.759
  217TIP3    H1  657   6.239   4.032   4.853
  217TIP3    H2  658   6.226   3.918   4.753
  218TIP3   OH2  659   4.575   0.483   3.361
  218TIP3    H1  660   4.536   0.488   3.274
  218TIP3    H2  661   4.656   0.532   3.354
  219TIP3   OH2  662   3.923   4.375   0.280
  219TIP3    H1  663   3.829   4.391   0.291
  219TIP3    H2  664   3.941   4.301   0.338
  220TIP3   OH2  665   2.890   1.001   1.147
  220TIP3    H1  666   2.985   0.987   1.152
  220TIP3    H2  667   2.858   0.981   1.235
  221TIP3   OH2  668   6.066   4.630   1.563
  221TIP3    H1  669   6.148   4.672   1.537
  221TIP3    H2  670   6.075   4.619   1.658
  222TIP3   OH2  671   1.728   3.161   2.372
  222TIP3    H1  672   1.670   3.086   2.384
  222TIP3    H2  673   1.807   3.138   2.421
  223TIP3   OH2  674   2.711   5.169   1.017
  223TIP3    H1  675   2.711   5.120   0.935
  223TIP3    H2  676   2.803   5.177   1.041
  224TIP3   OH2  677   2.679   1.445   3.542
  224TIP3    H1  678   2.701   1.357   3.510
  224TIP3    H2  679   2.756   1.498   3.522
  225TIP3   OH2  680   1.114   0.224   4.497
  225TIP3    H1  681   1.147   0.300   4.449
  225TIP3    H2  682   1.034   0.199   4.449
  226TIP3   OH2  683   1.912   1.179   4.525
  226TIP3    H1  684   1.890   1.103   4.471
  226TIP3    H2  685   1.924   1.144   4.613
  227TIP3   OH2  686   5.303   5.589   1.896
  227TIP3    H1  687   5.220   5.626   1.927
  227TIP3    H2  688   5.324   5.639   1.817
  228TIP3   OH2  689   2.155   3.595   4.424
  228TIP3    H1  690   2.242   3.564   4.448
  228TIP3    H2  691   2.137   3.553   4.340
  229TIP3   OH2  692   1.808   2.403   2.214
  229TIP3    H1  693   1.728   2.437   2.254
  229TIP3    H2  694   1.778   2.350   2.141
  230TIP3   OH2  695   5.923   1.758   4.134
  230TIP3    H1  696   5.852   1.730   4.192
  230TIP3    H2  697   5.976   1.679   4.122
  231TIP3   OH2  698   6.045   2.397   2.587
  231TIP3    H1  699   5.992   2.451   2.528
  231TIP3    H2  700   6.055   2.314   2.540
  232TIP3   OH2  701   1.546   2.461   2.356
  232TIP3    H1  702   1.544   2.369   2.385
  232TIP3    H2  703   1.468   2.500   2.395
  233TIP3   OH2  704   5.079   2.464   2.884
  233TIP3    H1  705   5.148   2.466   2.951
  233TIP3    H2  706   5.068   2.371   2.864
  234TIP3   OH2  707   4.360   5.509   4.518
  234TIP3    H1  708   4.397   5.589   4.479
  234TIP3    H2  709   4.352   5.448   4.445
  235TIP3   OH2  710   1.364   5.056   1.802
  235TIP3    H1  711   1.396   5.074   1.714
  235TIP3    H2  712   1.271   5.035   1.790
  236TIP3   OH2  713   2.134   0.919   3.315
  236TIP3    H1  714   2.057   0.915   3.373
  236TIP3    H2  715   2.149   0.828   3.290
  237TIP3   OH2  716   6.077   3.985   1.713
  237TIP3    H1  717   6.099   4.000   1.622
  237TIP3    H2  718   6.011   4.051   1.734
  238TIP3   OH2  719   1.696   0.703   1.148
  238TIP3    H1  720   1.628   0.764   1.117
  238TIP3    H2  721   1.730   0.663   1.068
  239TIP3   OH2  722   3.491   4.760   2.695
  239TIP3    H1  723   3.479   4.701   2.769
  239TIP3    H2  724   3.585   4.779   2.693
  240TIP3   OH2  725   2.488   0.225   2.516
  240TIP3    H1  726   2.563   0.283   2.505
  240TIP3    H2  727   2.518   0.158   2.578
  241TIP3   OH2  728   1.281   5.161   4.701
  241TIP3    H1  729   1.351   5.097   4.712
  241TIP3    H2  730   1.238   5.164   4.786
  242TIP3   OH2  731   2.894   4.524   1.057
  242TIP3    H1  732   2.878   4.430   1.052
  242TIP3    H2  733   2.840   4.561   0.987
  243TIP3   OH2  734   4.381   4.707   3.477
  243TIP3    H1  735   4.433   4.715   3.398
  243TIP3    H2  736   4.362   4.614   3.484
  244TIP3   OH2  737   1.914   5.903   1.744
  244TIP3    H1  738   1.823   5.928   1.735
  244TIP3    H2  739   1.927   5.893   1.838
  245TIP3   OH2  740   6.073   5.934   0.358
  245TIP3    H1  741   6.159   5.894   0.345
  245TIP3    H2  742   6.088   6.006   0.419
  246TIP3   OH2  743   6.111   0.461   0.091
  246TIP3    H1  744   6.058   0.406   0.149
  246TIP3    H2  745   6.185   0.405   0.067
  247TIP3   OH2  746   3.784   3.136   2.466
  247TIP3    H1  747   3.709   3.088   2.500
  247TIP3    H2  748   3.792   3.213   2.523
  248TIP3   OH2  749   3.450   3.112   2.860
  248TIP3    H1  750   3.531   3.077   2.825
  248TIP3    H2  751   3.389   3.038   2.857
  249TIP3   OH2  752   1.111   2.077   2.426
  249TIP3    H1  753   1.077   2.064   2.515
  249TIP3    H2  754   1.175   2.148   2.435
  250TIP3   OH2  755   0.659   4.318   2.139
  250TIP3    H1  756   0.584   4.377   2.132
  250TIP3    H2  757   0.667   4.279   2.052
  251TIP3   OH2  758   2.821   1.673   0.603
  251TIP3    H1  759   2.781   1.752   0.640
  251TIP3    H2  760   2.881   1.706   0.536
  252TIP3   OH2  761   4.511   2.875   1.539
  252TIP3    H1  762   4.576   2.808   1.561
  252TIP3    H2  763   4.468   2.895   1.622
  253TIP3   OH2  764   2.457   4.633   0.522
  253TIP3    H1  765   2.482   4.543   0.547
  253TIP3    H2  766   2.458   4.632   0.427
  254TIP3   OH2  767   1.829   4.877   3.203
  254TIP3    H1  768   1.744   4.904   3.168
  254TIP3    H2  769   1.830   4.782   3.194
  255TIP3   OH2  770   2.458   1.262   3.469
  255TIP3    H1  771   2.492   1.352   3.470
  255TIP3    H2  772   2.492   1.224   3.388
  256TIP3   OH2  773   5.560   5.005   1.612
  256TIP3    H1  774   5.545   5.094   1.643
  256TIP3    H2  775   5.492   4.953   1.654
  257TIP3   OH2  776   3.859   0.593   3.740
  257TIP3    H1  777   3.894   0.662   3.797
  257TIP3    H2  778   3.764   0.605   3.745
  258TIP3   OH2  779   4.826   2.559   4.551
  258TIP3    H1  780   4.897   2.540   4.489
  258TIP3    H2  781   4.829   2.487   4.614
  259TIP3   OH2  782   1.990   3.617   3.547
  259TIP3    H1  783   1.999   3.546   3.611
  259TIP3    H2  784   1.910   3.663   3.573
  260TIP3   OH2  785   1.943   4.640   1.740
  260TIP3    H1  786   1.961   4.560   1.690
  260TIP3    H2  787   2.013   4.643   1.806
  261TIP3   OH2  788   3.190   4.417   2.447
  261TIP3    H1  789   3.219   4.387   2.533
  261TIP3    H2  790   3.095   4.429   2.457
  262TIP3   OH2  791   1.015   3.667   3.094
  262TIP3    H1  792   0.920   3.675   3.081
  262TIP3    H2  793   1.040   3.749   3.137
  263TIP3   OH2  794   3.025   1.823   2.134
  263TIP3    H1  795   2.988   1.735   2.141
  263TIP3    H2  796   2.990   1.857   2.051
  264TIP3   OH2  797   5.239   4.675   2.633
  264TIP3    H1  798   5.274   4.601   2.582
  264TIP3    H2  799   5.315   4.732   2.647
  265TIP3   OH2  800   5.913   5.171   0.245
  265TIP3    H1  801   5.873   5.088   0.272
  265TIP3    H2  802   5.993   5.145   0.199
  266TIP3   OH2  803   2.617   1.758   3.699
  266TIP3    H1  804   2.537   1.724   3.657
  266TIP3    H2  805   2.585   1.824   3.760
  267TIP3   OH2  806   6.077   0.848   0.600
  267TIP3    H1  807   6.075   0.826   0.693
  267TIP3    H2  808   6.067   0.764   0.556
  268TIP3   OH2  809   3.648   3.011   3.778
  268TIP3    H1  810   3.563   3.002   3.735
  268TIP3    H2  811   3.653   2.936   3.837
  269TIP3   OH2  812   1.476   3.683   3.064
  269TIP3    H1  813   1.458   3.607   3.119
  269TIP3    H2  814   1.556   3.658   3.016
  270TIP3   OH2  815   5.951   1.734   1.980
  270TIP3    H1  816   6.029   1.789   1.984
  270TIP3    H2  817   5.985   1.647   1.957
  271TIP3   OH2  818   3.408   5.919   2.979
  271TIP3    H1  819   3.359   5.930   2.897
  271TIP3    H2  820   3.422   5.825   2.986
  272TIP3   OH2  821   4.390   3.270   1.492
  272TIP3    H1  822   4.377   3.208   1.420
  272TIP3    H2  823   4.360   3.224   1.570
  273TIP3   OH2  824   3.575   3.482   0.907
  273TIP3    H1  825   3.579   3.479   0.812
  273TIP3    H2  826   3.561   3.574   0.928
  274TIP3   OH2  827   1.166   5.900   1.294
  274TIP3    H1  828   1.218   5.919   1.372
  274TIP3    H2  829   1.220   5.932   1.221
  275TIP3   OH2  830   5.054   5.190   2.333
  275TIP3    H1  831   5.136   5.239   2.323
  275TIP3    H2  832   5.063   5.115   2.273
  276TIP3   OH2  833   3.895   4.840   1.860
  276TIP3    H1  834   3.827   4.847   1.927
  276TIP3    H2  835   3.916   4.747   1.857
  277TIP3   OH2  836   3.731   4.116   1.410
  277TIP3    H1  837   3.788   4.040   1.416
  277TIP3    H2  838   3.653   4.083   1.365
  278TIP3   OH2  839   0.459   4.167   1.002
  278TIP3    H1  840   0.545   4.148   1.039
  278TIP3    H2  841   0.460   4.125   0.916
  279TIP3   OH2  842   6.318   4.275   0.941
  279TIP3    H1  843   6.234   4.296   0.900
  279TIP3    H2  844   6.295   4.250   1.031
  280TIP3   OH2  845   0.604   4.596   5.147
  280TIP3    H1  846   0.667   4.644   5.199
  280TIP3    H2  847   0.519   4.635   5.170
  281TIP3   OH2  848   1.928   5.454   4.813
  281TIP3    H1  849   1.913   5.501   4.731
  281TIP3    H2  850   2.023   5.439   4.814
  282TIP3   OH2  851   1.538   4.699   1.227
  282TIP3    H1  852   1.569   4.609   1.217
  282TIP3    H2  853   1.612   4.745   1.267
  283TIP3   OH2  854   4.369   4.380   2.143
  283TIP3    H1  855   4.329   4.441   2.205
  283TIP3    H2  856   4.294   4.339   2.098
  284TIP3   OH2  857   5.936   1.001   2.852
  284TIP3    H1  858   6.016   1.025   2.805
  284TIP3    H2  859   5.909   1.082   2.896
  285TIP3   OH2  860   1.579   3.815   0.192
  285TIP3    H1  861   1.580   3.720   0.202
  285TIP3    H2  862   1.634   3.848   0.264
  286TIP3   OH2  863   3.606   0.010   0.829
  286TIP3    H1  864   3.647   0.052   0.905
  286TIP3    H2  865   3.548  -0.056   0.866
  287TIP3   OH2  866   1.200   5.657   0.362
  287TIP3    H1  867   1.205   5.604   0.442
  287TIP3    H2  868   1.248   5.737   0.384
  288TIP3   OH2  869   2.819   3.021   3.033
  288TIP3    H1  870   2.793   3.113   3.035
  288TIP3    H2  871   2.803   2.990   3.122
  289TIP3   OH2  872   0.624   1.114   2.746
  289TIP3    H1  873   0.549   1.074   2.790
  289TIP3    H2  874   0.610   1.208   2.754
  290TIP3   OH2  875   0.405   4.433   4.182
  290TIP3    H1  876   0.457   4.478   4.249
  290TIP3    H2  877   0.441   4.344   4.181
  291TIP3   OH2  878   0.677   4.680   1.932
  291TIP3    H1  879   0.604   4.729   1.969
  291TIP3    H2  880   0.755   4.731   1.956
  292TIP3   OH2  881   1.185   1.270   3.655
  292TIP3    H1  882   1.249   1.228   3.597
  292TIP3    H2  883   1.228   1.352   3.682
  293TIP3   OH2  884   2.999   0.898   2.201
  293TIP3    H1  885   3.038   0.934   2.282
  293TIP3    H2  886   3.061   0.832   2.172
  294TIP3   OH2  887   5.550   4.504   1.975
  294TIP3    H1  888   5.629   4.476   1.928
  294TIP3    H2  889   5.500   4.423   1.986
  295TIP3   OH2  890   5.058   0.170   3.161
  295TIP3    H1  891   5.078   0.087   3.205
  295TIP3    H2  892   5.142   0.214   3.153
  296TIP3   OH2  893   5.018   1.757   5.157
  296TIP3    H1  894   4.967   1.787   5.233
  296TIP3    H2  895   5.011   1.830   5.095
  297TIP3   OH2  896   5.116   5.586   0.865
  297TIP3    H1  897   5.131   5.550   0.777
  297TIP3    H2  898   5.140   5.515   0.924
  298TIP3   OH2  899   3.714   4.440   0.823
  298TIP3    H1  900   3.660   4.393   0.760
  298TIP3    H2  901   3.800   4.446   0.782
  299TIP3   OH2  902   5.281   2.354   3.104
  299TIP3    H1  903   5.228   2.328   3.179
  299TIP3    H2  904   5.291   2.449   3.113
  300TIP3   OH2  905   4.527   2.395   1.605
  300TIP3    H1  906   4.594   2.460   1.625
  300TIP3    H2  907   4.444   2.438   1.626
  301TIP3   OH2  908   0.736   3.724   3.322
  301TIP3    H1  909   0.645   3.726   3.352
  301TIP3    H2  910   0.735   3.666   3.246
  302TIP3   OH2  911   3.898   0.927   4.786
  302TIP3    H1  912   3.848   1.007   4.770
  302TIP3    H2  913   3.912   0.925   4.881
  303TIP3   OH2  914   4.436   1.186   1.640
  303TIP3    H1  915   4.441   1.169   1.545
  303TIP3    H2  916   4.364   1.131   1.670
  304TIP3   OH2  917   0.854   2.426   0.637
  304TIP3    H1  918   0.790   2.413   0.707
  304TIP3    H2  919   0.916   2.354   0.646
  305TIP3   OH2  920   3.901   5.070   1.308
  305TIP3    H1  921   3.987   5.111   1.316
  305TIP3    H2  922   3.920   4.977   1.294
  306TIP3   OH2  923   4.559   4.810   2.961
  306TIP3    H1  924   4.550   4.876   2.893
  306TIP3    H2  925   4.651   4.815   2.987
  307TIP3   OH2  926   0.187   1.373   0.262
  307TIP3    H1  927   0.269   1.324   0.250
  307TIP3    H2  928   0.118   1.312   0.236
  308TIP3   OH2  929   3.611   1.081   3.699
  308TIP3    H1  930   3.606   1.171   3.668
  308TIP3    H2  931   3.694   1.048   3.664
  309TIP3   OH2  932   4.613   3.857   3.322
  309TIP3    H1  933   4.541   3.803   3.356
  309TIP3    H2  934   4.686   3.797   3.312
  310TIP3   OH2  935   4.359   5.440   4.792
  310TIP3    H1  936   4.340   5.445   4.698
  310TIP3    H2  937   4.426   5.372   4.799
  311TIP3   OH2  938   5.647   2.562   0.171
  311TIP3    H1  939   5.674   2.578   0.081
  311TIP3    H2  940   5.633   2.650   0.208
  312TIP3   OH2  941   3.843   2.636   4.517
  312TIP3    H1  942   3.790   2.621   4.596
  312TIP3    H2  943   3.899   2.710   4.539
  313TIP3   OH2  944   5.757   5.176   1.914
  313TIP3    H1  945   5.817   5.182   1.840
  313TIP3    H2  946   5.791   5.240   1.977
  314TIP3   OH2  947   2.818   4.612   0.814
  314TIP3    H1  948   2.875   4.662   0.755
  314TIP3    H2  949   2.764   4.679   0.856
  315TIP3   OH2  950   2.967   5.037   2.138
  315TIP3    H1  951   3.034   5.069   2.197
  315TIP3    H2  952   2.939   5.114   2.089
  316TIP3   OH2  953   4.529   0.737   4.058
  316TIP3    H1  954   4.510   0.818   4.012
  316TIP3    H2  955   4.503   0.668   3.998
  317TIP3   OH2  956   2.011   1.342   3.176
  317TIP3    H1  957   1.996   1.299   3.091
  317TIP3    H2  958   2.050   1.274   3.230
  318TIP3   OH2  959   3.853   1.197   1.425
  318TIP3    H1  960   3.867   1.109   1.462
  318TIP3    H2  961   3.807   1.181   1.342
  319TIP3   OH2  962   3.167   2.418   1.056
  319TIP3    H1  963   3.140   2.482   0.990
  319TIP3    H2  964   3.240   2.370   1.015
  320TIP3   OH2  965   1.336   1.987   0.449
  320TIP3    H1  966   1.328   2.080   0.467
  320TIP3    H2  967   1.292   1.944   0.523
  321TIP3   OH2  968   5.437   3.481   1.051
  321TIP3    H1  969   5.470   3.566   1.081
  321TIP3    H2  970   5.363   3.503   0.994
  322TIP3   OH2  971   5.987   2.404   0.327
  322TIP3    H1  972   5.915   2.456   0.363
  322TIP3    H2  973   6.066   2.446   0.360
  323TIP3   OH2  974   4.336   0.983   0.214
  323TIP3    H1  975   4.417   0.934   0.229
  323TIP3    H2  976   4.318   1.026   0.297
  324TIP3   OH2  977   5.883   2.247   0.103
  324TIP3    H1  978   5.929   2.302   0.166
  324TIP3    H2  979   5.918   2.159   0.118
  325TIP3   OH2  980   5.306   5.757   2.319
  325TIP3    H1  981   5.243   5.816   2.278
  325TIP3    H2  982   5.391   5.786   2.286
  326TIP3   OH2  983   0.206   4.576   4.038
  326TIP3    H1  984   0.245   4.655   4.076
  326TIP3    H2  985   0.243   4.504   4.089
  327TIP3   OH2  986   5.147   3.455   2.121
  327TIP3    H1  987   5.077   3.520   2.127
  327TIP3    H2  988   5.129   3.393   2.191
  328TIP3   OH2  989   4.317   3.083   1.262
  328TIP3    H1  990   4.338   3.085   1.168
  328TIP3    H2  991   4.251   3.014   1.270
  329TIP3   OH2  992   4.385   5.288   1.719
  329TIP3    H1  993   4.405   5.362   1.776
  329TIP3    H2  994   4.309   5.246   1.761
  330TIP3   OH2  995   1.832   1.355   0.189
  330TIP3    H1  996   1.818   1.329   0.280
  330TIP3    H2  997   1.813   1.449   0.187
  331TIP3   OH2  998   2.071   1.325   0.785
  331TIP3    H1  999   2.093   1.269   0.711
  331TIP3    H2 1000   2.149   1.380   0.796
  332TIP3   OH2 1001   0.522   5.686   2.940
  332TIP3    H1 1002   0.428   5.697   2.950
  332TIP3    H2 1003   0.548   5.759   2.883
  333TIP3   OH2 1004   5.492   5.837   0.447
  333TIP3    H1 1005   5.465   5.830   0.355
  333TIP3    H2 1006   5.488   5.747   0.480
  334TIP3   OH2 1007   2.151   4.115   4.148
  334TIP3    H1 1008   2.119   4.034   4.189
  334TIP3    H2 1009   2.244   4.118   4.172
  335TIP3   OH2 1010   2.127   5.512   2.426
  335TIP3    H1 1011   2.183   5.521   2.503
  335TIP3    H2 1012   2.170   5.447   2.372
  336TIP3   OH2 1013   2.954   5.240   1.955
  336TIP3    H1 1014   2.946   5.331   1.983
  336TIP3    H2 1015   3.000   5.244   1.872
  337TIP3   OH2 1016   4.174   2.172   4.366
  337TIP3    H1 1017   4.109   2.122   4.318
  337TIP3    H2 1018   4.123   2.227   4.425
  338TIP3   OH2 1019   4.374   1.388   3.346
  338TIP3    H1 1020   4.365   1.298   3.377
  338TIP3    H2 1021   4.462   1.414   3.372
  339TIP3   OH2 1022   3.783   5.481   0.174
  339TIP3    H1 1023   3.706   5.424   0.172
  339TIP3    H2 1024   3.824   5.461   0.258
  340TIP3   OH2 1025   4.630   2.757   4.513
  340TIP3    H1 1026   4.655   2.838   4.558
  340TIP3    H2 1027   4.707   2.701   4.521
  341TIP3   OH2 1028   3.703   2.301   1.489
  341TIP3    H1 1029   3.677   2.227   1.434
  341TIP3    H2 1030   3.771   2.266   1.546
  342TIP3   OH2 1031   0.245   2.304   1.382
  342TIP3    H1 1032   0.255   2.399   1.388
  342TIP3    H2 1033   0.156   2.292   1.348
  343TIP3   OH2 1034   1.963   4.377   0.716
  343TIP3    H1 1035   1.903   4.402   0.646
  343TIP3    H2 1036   1.961   4.281   0.716
  344TIP3   OH2 1037   4.609   1.654   1.610
  344TIP3    H1 1038   4.566   1.660   1.525
  344TIP3    H2 1039   4.631   1.561   1.618
  345TIP3   OH2 1040   0.355   1.609   0.453
  345TIP3    H1 1041   0.398   1.643   0.375
  345TIP3    H2 1042   0.377   1.516   0.456
  346TIP3   OH2 1043   0.951   1.472   1.438
  346TIP3    H1 1044   0.932   1.398   1.380
  346TIP3    H2 1045   1.046   1.474   1.445
  347TIP3   OH2 1046   0.643   5.066   2.655
  347TIP3    H1 1047   0.592   5.147   2.661
  347TIP3    H2 1048   0.698   5.079   2.577
  348TIP3   OH2 1049   0.695   1.400   1.521
  348TIP3    H1 1050   0.646   1.444   1.452
  348TIP3    H2 1051   0.787   1.416   1.499
  349TIP3   OH2 1052   5.870   1.023   2.598
  349TIP3    H1 1053   5.874   1.022   2.693
  349TIP3    H2 1054   5.952   0.983   2.570
  350TIP3   OH2 1055   3.977   2.018   1.305
  350TIP3    H1 1056   4.039   2.090   1.289
  350TIP3    H2 1057   4.003   1.983   1.390
  351TIP3   OH2 1058   2.669   3.969   1.860
  351TIP3    H1 1059   2.711   4.001   1.940
  351TIP3    H2 1060   2.676   4.043   1.799
  352TIP3   OH2 1061   0.175   0.892   3.263
  352TIP3    H1 1062   0.175   0.798   3.245
  352TIP3    H2 1063   0.234   0.902   3.337
  353TIP3   OH2 1064   3.861   0.168   0.315
  353TIP3    H1 1065   3.768   0.160   0.294
  353TIP3    H2 1066   3.872   0.259   0.343
  354TIP3   OH2 1067   4.020   2.027   4.198
  354TIP3    H1 1068   4.073   2.010   4.120
  354TIP3    H2 1069   3.947   2.080   4.167
  355TIP3   OH2 1070   3.651   3.096   1.599
  355TIP3    H1 1071   3.561   3.068   1.613
  355TIP3    H2 1072   3.663   3.170   1.658
  356TIP3   OH2 1073   5.794   3.879   4.690
  356TIP3    H1 1074   5.800   3.784   4.674
  356TIP3    H2 1075   5.707   3.902   4.661
  357TIP3   OH2 1076   3.609   0.659   3.431
  357TIP3    H1 1077   3.701   0.649   3.454
  357TIP3    H2 1078   3.605   0.741   3.381
  358TIP3   OH2 1079   5.752   1.454   1.466
  358TIP3    H1 1080   5.761   1.413   1.379
  358TIP3    H2 1081   5.787   1.389   1.526
  359TIP3   OH2 1082   4.278   5.384   0.070
  359TIP3    H1 1083   4.307   5.417   0.156
  359TIP3    H2 1084   4.343   5.316   0.049
  360TIP3   OH2 1085   4.926   1.899   0.696
  360TIP3    H1 1086   4.990   1.910   0.625
  360TIP3    H2 1087   4.934   1.979   0.748
  361TIP3   OH2 1088   3.989   3.819   2.276
  361TIP3    H1 1089   4.029   3.798   2.360
  361TIP3    H2 1090   3.943   3.739   2.251
  362TIP3   OH2 1091   3.250   5.253   2.964
  362TIP3    H1 1092   3.334   5.249   2.918
  362TIP3    H2 1093   3.262   5.322   3.030
  363TIP3   OH2 1094   1.557   1.860   0.289
  363TIP3    H1 1095   1.472   1.882   0.327
  363TIP3    H2 1096   1.563   1.914   0.211
  364TIP3   OH2 1097   0.396   1.397   0.756
  364TIP3    H1 1098   0.343   1.361   0.685
  364TIP3    H2 1099   0.484   1.402   0.720
  365TIP3   OH2 1100   1.679   3.657   1.424
  365TIP3    H1 1101   1.632   3.582   1.387
  365TIP3    H2 1102   1.672   3.645   1.518
  366TIP3   OH2 1103   2.644   3.268   1.394
  366TIP3    H1 1104   2.726   3.253   1.441
  366TIP3    H2 1105   2.640   3.198   1.329
  367TIP3   OH2 1106   3.429   3.864   4.319
  367TIP3    H1 1107   3.393   3.778   4.343
  367TIP3    H2 1108   3.377   3.927   4.369
  368TIP3   OH2 1109   3.157   1.966   2.884
  368TIP3    H1 1110   3.173   2.056   2.855
  368TIP3    H2 1111   3.156   1.971   2.980
  369TIP3   OH2 1112   1.892   0.582   5.059
  369TIP3    H1 1113   1.893   0.487   5.060
  369TIP3    H2 1114   1.982   0.608   5.078
  370TIP3   OH2 1115   3.746   1.723   2.878
  370TIP3    H1 1116   3.661   1.696   2.914
  370TIP3    H2 1117   3.791   1.765   2.951
  371TIP3   OH2 1118   2.075   2.192   1.862
  371TIP3    H1 1119   2.155   2.200   1.913
  371TIP3    H2 1120   2.056   2.281   1.832
  372TIP3   OH2 1121   0.310   4.146   3.830
  372TIP3    H1 1122   0.255   4.115   3.758
  372TIP3    H2 1123   0.295   4.240   3.832
  373TIP3   OH2 1124   1.584   4.079   3.744
  373TIP3    H1 1125   1.514   4.073   3.809
  373TIP3    H2 1126   1.552   4.028   3.670
  374TIP3   OH2 1127   2.157   4.941   4.363
  374TIP3    H1 1128   2.079   4.926   4.416
  374TIP3    H2 1129   2.147   4.882   4.289
  375TIP3   OH2 1130   3.707   1.607   0.535
  375TIP3    H1 1131   3.739   1.530   0.489
  375TIP3    H2 1132   3.615   1.615   0.510
  376TIP3   OH2 1133   5.814   0.711   2.830
  376TIP3    H1 1134   5.830   0.678   2.918
  376TIP3    H2 1135   5.883   0.777   2.816
  377TIP3   OH2 1136   6.017   5.631   0.369
  377TIP3    H1 1137   6.095   5.601   0.416
  377TIP3    H2 1138   6.051   5.690   0.301
  378TIP3   OH2 1139   2.036   2.586   4.368
  378TIP3    H1 1140   2.102   2.566   4.302
  378TIP3    H2 1141   2.069   2.664   4.413
  379TIP3   OH2 1142   4.561   4.085   1.173
  379TIP3    H1 1143   4.570   4.047   1.261
  379TIP3    H2 1144   4.541   4.010   1.117
  380TIP3   OH2 1145   2.889   2.891   3.671
  380TIP3    H1 1146   2.892   2.859   3.761
  380TIP3    H2 1147   2.901   2.986   3.679
  381TIP3   OH2 1148   0.503   0.089   0.893
  381TIP3    H1 1149   0.577   0.055   0.842
  381TIP3    H2 1150   0.530   0.077   0.984
  382TIP3   OH2 1151   2.949   2.389   2.938
  382TIP3    H1 1152   2.927   2.481   2.927
  382TIP3    H2 1153   2.868   2.348   2.969
  383TIP3   OH2 1154   1.647   0.353   2.248
  383TIP3    H1 1155   1.675   0.410   2.177
  383TIP3    H2 1156   1.719   0.291   2.258
  384TIP3   OH2 1157   4.226   1.050   4.794
  384TIP3    H1 1158   4.163   1.065   4.865
  384TIP3    H2 1159   4.230   0.955   4.785
  385TIP3   OH2 1160   5.224   5.297   3.723
  385TIP3    H1 1161   5.157   5.230   3.732
  385TIP3    H2 1162   5.180   5.378   3.748
  386TIP3   OH2 1163   3.916   1.326   4.916
  386TIP3    H1 1164   3.859   1.403   4.917
  386TIP3    H2 1165   3.860   1.255   4.885
  387TIP3   OH2 1166   1.659   4.948   2.230
  387TIP3    H1 1167   1.732   4.970   2.173
  387TIP3    H2 1168   1.610   5.030   2.240
  388TIP3   OH2 1169   5.654   1.560   4.765
  388TIP3    H1 1170   5.644   1.638   4.819
  388TIP3    H2 1171   5.657   1.487   4.827
  389TIP3   OH2 1172   3.811   5.118   1.879
  389TIP3    H1 1173   3.818   5.024   1.862
  389TIP3    H2 1174   3.834   5.158   1.795
  390TIP3   OH2 1175   0.668   1.415   0.694
  390TIP3    H1 1176   0.663   1.337   0.749
  390TIP3    H2 1177   0.697   1.382   0.609
  391TIP3   OH2 1178   2.142   0.712   2.371
  391TIP3    H1 1179   2.121   0.767   2.446
  391TIP3    H2 1180   2.057   0.682   2.338
  392TIP3   OH2 1181   2.959   5.084   5.032
  392TIP3    H1 1182   3.050   5.060   5.050
  392TIP3    H2 1183   2.960   5.122   4.944
  393TIP3   OH2 1184   2.363   2.767   3.080
  393TIP3    H1 1185   2.372   2.861   3.097
  393TIP3    H2 1186   2.303   2.737   3.149
  394TIP3   OH2 1187   3.556   1.868   3.360
  394TIP3    H1 1188   3.537   1.952   3.402
  394TIP3    H2 1189   3.603   1.891   3.280
  395TIP3   OH2 1190   5.244   2.874   1.565
  395TIP3    H1 1191   5.296   2.931   1.621
  395TIP3    H2 1192   5.269   2.785   1.592
  396TIP3   OH2 1193   4.246   4.192   3.141
  396TIP3    H1 1194   4.324   4.181   3.086
  396TIP3    H2 1195   4.239   4.109   3.189
  397TIP3   OH2 1196   3.438   2.518   0.480
  397TIP3    H1 1197   3.502   2.572   0.526
  397TIP3    H2 1198   3.406   2.574   0.409
  398TIP3   OH2 1199   4.566   3.895   2.904
  398TIP3    H1 1200   4.577   3.839   2.827
  398TIP3    H2 1201   4.552   3.833   2.976
  399TIP3   OH2 1202   2.926   3.027   2.195
  399TIP3    H1 1203   3.009   2.981   2.180
  399TIP3    H2 1204   2.872   2.964   2.243
  400TIP3   OH2 1205   4.632   5.677   0.923
  400TIP3    H1 1206   4.723   5.660   0.947
  400TIP3    H2 1207   4.583   5.662   1.004
  401TIP3   OH2 1208   4.853   0.832   3.932
  401TIP3    H1 1209   4.770   0.871   3.959
  401TIP3    H2 1210   4.886   0.787   4.010
  402TIP3   OH2 1211   3.547   0.924   0.338
  402TIP3    H1 1212   3.461   0.891   0.312
  402TIP3    H2 1213   3.580   0.969   0.261
  403TIP3   OH2 1214   3.202   1.918   3.156
  403TIP3    H1 1215   3.261   1.980   3.198
  403TIP3    H2 1216   3.237   1.832   3.180
  404TIP3   OH2 1217   4.926   5.816   1.405
  404TIP3    H1 1218   4.998   5.824   1.468
  404TIP3    H2 1219   4.885   5.903   1.405
  405TIP3   OH2 1220   1.155   4.807   0.613
  405TIP3    H1 1221   1.164   4.711   0.620
  405TIP3    H2 1222   1.203   4.840   0.689
  406TIP3   OH2 1223   1.252   1.502   0.024
  406TIP3    H1 1224   1.327   1.539   0.071
  406TIP3    H2 1225   1.286   1.482  -0.064
  407TIP3   OH2 1226   0.516   3.443   0.250
  407TIP3    H1 1227   0.487   3.404   0.167
  407TIP3    H2 1228   0.440   3.493   0.280
  408TIP3   OH2 1229   2.412   0.421   2.922
  408TIP3    H1 1230   2.462   0.345   2.951
  408TIP3    H2 1231   2.365   0.392   2.844
  409TIP3   OH2 1232   0.456   2.409   0.701
  409TIP3    H1 1233   0.439   2.334   0.644
  409TIP3    H2 1234   0.485   2.478   0.642
  410TIP3   OH2 1235   4.984   1.731   4.043
  410TIP3    H1 1236   4.908   1.691   4.085
  410TIP3    H2 1237   5.055   1.669   4.059
  411TIP3   OH2 1238   4.303   2.147   4.657
  411TIP3    H1 1239   4.331   2.207   4.587
  411TIP3    H2 1240   4.383   2.102   4.683
  412TIP3   OH2 1241   1.790   1.973   4.177
  412TIP3    H1 1242   1.699   1.996   4.157
  412TIP3    H2 1243   1.810   1.904   4.114
  413TIP3   OH2 1244   5.403   0.689   4.839
  413TIP3    H1 1245   5.403   0.604   4.882
  413TIP3    H2 1246   5.351   0.745   4.896
  414TIP3   OH2 1247   3.429   5.846   3.801
  414TIP3    H1 1248   3.361   5.909   3.824
  414TIP3    H2 1249   3.382   5.775   3.757
  415TIP3   OH2 1250   4.487   3.804   0.482
  415TIP3    H1 1251   4.507   3.881   0.428
  415TIP3    H2 1252   4.571   3.759   0.491
  416TIP3   OH2 1253   0.063   0.341   0.079
  416TIP3    H1 1254   0.135   0.280   0.062
  416TIP3    H2 1255   0.090   0.388   0.158
  417TIP3   OH2 1256   4.742   2.770   3.999
  417TIP3    H1 1257   4.692   2.704   3.951
  417TIP3    H2 1258   4.696   2.779   4.082
  418TIP3   OH2 1259   4.991   3.091   0.474
  418TIP3    H1 1260   5.065   3.031   0.472
  418TIP3    H2 1261   5.010   3.149   0.548
  419TIP3   OH2 1262   3.532   0.963   4.529
  419TIP3    H1 1263   3.452   0.913   4.546
  419TIP3    H2 1264   3.552   1.007   4.611
  420TIP3   OH2 1265   0.269   0.010   3.435
  420TIP3    H1 1266   0.220  -0.012   3.515
  420TIP3    H2 1267   0.213  -0.021   3.364
  421TIP3   OH2 1268   2.934   0.543   0.224
  421TIP3    H1 1269   2.901   0.475   0.166
  421TIP3    H2 1270   2.863   0.608   0.228
  422TIP3   OH2 1271   5.517   3.690   4.360
  422TIP3    H1 1272   5.549   3.744   4.432
  422TIP3    H2 1273   5.459   3.749   4.310
  423TIP3   OH2 1274   3.026   5.389   0.079
  423TIP3    H1 1275   2.954   5.404   0.018
  423TIP3    H2 1276   2.987   5.400   0.166
  424TIP3   OH2 1277   3.220   2.335   4.319
  424TIP3    H1 1278   3.171   2.253   4.319
  424TIP3    H2 1279   3.214   2.367   4.410
  425TIP3   OH2 1280   0.946   2.064   2.967
  425TIP3    H1 1281   0.919   1.979   2.932
  425TIP3    H2 1282   1.012   2.043   3.033
  426TIP3   OH2 1283   2.504   1.779   2.051
  426TIP3    H1 1284   2.480   1.845   1.986
  426TIP3    H2 1285   2.553   1.828   2.118
  427TIP3   OH2 1286   0.420   3.935   1.144
  427TIP3    H1 1287   0.486   3.920   1.076
  427TIP3    H2 1288   0.398   4.028   1.136
  428TIP3   OH2 1289   5.094   4.003   3.969
  428TIP3    H1 1290   5.186   4.003   3.994
  428TIP3    H2 1291   5.068   3.911   3.975
  429TIP3   OH2 1292   3.224   5.858   3.434
  429TIP3    H1 1293   3.228   5.948   3.464
  429TIP3    H2 1294   3.260   5.860   3.345
  430TIP3   OH2 1295   5.139   5.483   2.683
  430TIP3    H1 1296   5.088   5.493   2.602
  430TIP3    H2 1297   5.163   5.572   2.707
  431TIP3   OH2 1298   0.558   5.404   1.098
  431TIP3    H1 1299   0.537   5.428   1.188
  431TIP3    H2 1300   0.510   5.468   1.045
  432TIP3   OH2 1301   1.928   3.198   1.594
  432TIP3    H1 1302   2.002   3.155   1.635
  432TIP3    H2 1303   1.942   3.291   1.611
  433TIP3   OH2 1304   0.249   4.347   0.380
  433TIP3    H1 1305   0.325   4.365   0.436
  433TIP3    H2 1306   0.211   4.433   0.362
  434TIP3   OH2 1307   0.993   1.930   4.308
  434TIP3    H1 1308   1.008   2.023   4.295
  434TIP3    H2 1309   1.038   1.909   4.390
  435TIP3   OH2 1310   0.450   2.422   5.145
  435TIP3    H1 1311   0.446   2.475   5.224
  435TIP3    H2 1312   0.543   2.420   5.122
  436TIP3   OH2 1313   2.167   3.956   4.726
  436TIP3    H1 1314   2.217   3.896   4.783
  436TIP3    H2 1315   2.214   3.954   4.643
  437TIP3   OH2 1316   1.028   2.239   4.361
  437TIP3    H1 1317   1.086   2.313   4.343
  437TIP3    H2 1318   1.029   2.230   4.456
  438TIP3   OH2 1319   0.150   3.378   4.125
  438TIP3    H1 1320   0.134   3.298   4.175
  438TIP3    H2 1321   0.238   3.366   4.088
  439TIP3   OH2 1322   5.054   3.294   0.246
  439TIP3    H1 1323   4.973   3.289   0.297
  439TIP3    H2 1324   5.101   3.369   0.283
  440TIP3   OH2 1325   5.020   3.338   0.980
  440TIP3    H1 1326   5.050   3.422   0.943
  440TIP3    H2 1327   4.933   3.326   0.944
  441TIP3   OH2 1328   2.038   1.678   3.514
  441TIP3    H1 1329   1.946   1.697   3.496
  441TIP3    H2 1330   2.057   1.599   3.463
  442TIP3   OH2 1331   2.400   4.082   2.973
  442TIP3    H1 1332   2.439   3.998   2.995
  442TIP3    H2 1333   2.321   4.086   3.027
  443TIP3   OH2 1334   5.496   1.863   4.258
  443TIP3    H1 1335   5.589   1.883   4.242
  443TIP3    H2 1336   5.497   1.790   4.320
  444TIP3   OH2 1337   5.425   1.574   2.628
  444TIP3    H1 1338   5.375   1.494   2.615
  444TIP3    H2 1339   5.447   1.604   2.540
  445TIP3   OH2 1340   5.615   2.472   1.828
  445TIP3    H1 1341   5.598   2.378   1.835
  445TIP3    H2 1342   5.635   2.486   1.736
  446TIP3   OH2 1343   1.179   3.064   5.090
  446TIP3    H1 1344   1.220   3.127   5.149
  446TIP3    H2 1345   1.186   3.104   5.003
  447TIP3   OH2 1346   2.605   4.373   3.139
  447TIP3    H1 1347   2.611   4.326   3.056
  447TIP3    H2 1348   2.693   4.407   3.154
  448TIP3   OH2 1349   4.797   2.895   0.410
  448TIP3    H1 1350   4.863   2.964   0.406
  448TIP3    H2 1351   4.743   2.919   0.485
  449TIP3   OH2 1352   6.141   4.856   0.740
  449TIP3    H1 1353   6.229   4.892   0.739
  449TIP3    H2 1354   6.108   4.877   0.828
  450TIP3   OH2 1355   5.322   1.301   3.079
  450TIP3    H1 1356   5.413   1.329   3.072
  450TIP3    H2 1357   5.272   1.365   3.027
  451TIP3   OH2 1358   4.098   3.684   2.485
  451TIP3    H1 1359   4.176   3.728   2.450
  451TIP3    H2 1360   4.102   3.596   2.448
  452TIP3   OH2 1361   0.930   4.386   0.870
  452TIP3    H1 1362   0.988   4.459   0.891
  452TIP3    H2 1363   0.945   4.323   0.940
  453TIP3   OH2 1364   4.087   1.901   2.262
  453TIP3    H1 1365   4.049   1.961   2.325
  453TIP3    H2 1366   4.063   1.814   2.293
  454TIP3   OH2 1367   0.258   3.718   1.281
  454TIP3    H1 1368   0.338   3.680   1.317
  454TIP3    H2 1369   0.289   3.779   1.214
  455TIP3   OH2 1370   1.767   4.809   1.381
  455TIP3    H1 1371   1.719   4.815   1.463
  455TIP3    H2 1372   1.856   4.784   1.406
  456TIP3   OH2 1373   6.368   4.629   2.880
  456TIP3    H1 1374   6.328   4.655   2.963
  456TIP3    H2 1375   6.297   4.586   2.831
  457TIP3   OH2 1376   2.890   2.530   0.479
  457TIP3    H1 1377   2.815   2.491   0.434
  457TIP3    H2 1378   2.851   2.574   0.555
  458TIP3   OH2 1379   4.034   1.747   4.907
  458TIP3    H1 1380   4.059   1.676   4.848
  458TIP3    H2 1381   4.074   1.825   4.869
  459TIP3   OH2 1382   0.179   3.000   4.188
  459TIP3    H1 1383   0.119   3.068   4.220
  459TIP3    H2 1384   0.141   2.918   4.220
  460TIP3   OH2 1385   0.387   0.110   5.143
  460TIP3    H1 1386   0.327   0.090   5.214
  460TIP3    H2 1387   0.472   0.079   5.173
  461TIP3   OH2 1388   1.398   0.146   4.480
  461TIP3    H1 1389   1.466   0.188   4.534
  461TIP3    H2 1390   1.316   0.184   4.510
  462TIP3   OH2 1391   5.094   4.465   4.594
  462TIP3    H1 1392   5.008   4.422   4.590
  462TIP3    H2 1393   5.132   4.434   4.676
  463TIP3   OH2 1394   2.323   1.312   4.068
  463TIP3    H1 1395   2.368   1.381   4.116
  463TIP3    H2 1396   2.364   1.231   4.099
  464TIP3   OH2 1397   3.762   2.519   3.467
  464TIP3    H1 1398   3.757   2.480   3.380
  464TIP3    H2 1399   3.763   2.613   3.451
  465TIP3   OH2 1400   0.455   4.854   5.073
  465TIP3    H1 1401   0.449   4.930   5.131
  465TIP3    H2 1402   0.496   4.888   4.993
  466TIP3   OH2 1403   4.710   1.852   0.238
  466TIP3    H1 1404   4.707   1.865   0.333
  466TIP3    H2 1405   4.803   1.842   0.218
  467TIP3   OH2 1406   4.039   2.812   3.494
  467TIP3    H1 1407   4.103   2.852   3.434
  467TIP3    H2 1408   4.047   2.865   3.574
  468TIP3   OH2 1409   5.157   4.025   3.386
  468TIP3    H1 1410   5.237   4.077   3.398
  468TIP3    H2 1411   5.094   4.087   3.349
  469TIP3   OH2 1412   6.277   4.973   1.344
  469TIP3    H1 1413   6.334   4.932   1.279
  469TIP3    H2 1414   6.198   4.998   1.295
  470TIP3   OH2 1415   2.932   4.467   1.718
  470TIP3    H1 1416   2.994   4.400   1.749
  470TIP3    H2 1417   2.874   4.482   1.793
  471TIP3   OH2 1418   6.278   0.439   1.914
  471TIP3    H1 1419   6.321   0.498   1.975
  471TIP3    H2 1420   6.252   0.494   1.841
  472TIP3   OH2 1421   1.483   5.005   3.404
  472TIP3    H1 1422   1.544   4.990   3.476
  472TIP3    H2 1423   1.398   5.018   3.446
  473TIP3   OH2 1424   0.940   0.924   3.102
  473TIP3    H1 1425   0.931   0.876   3.020
  473TIP3    H2 1426   1.021   0.891   3.140
  474TIP3   OH2 1427   3.126   4.833   4.221
  474TIP3    H1 1428   3.164   4.885   4.292
  474TIP3    H2 1429   3.201   4.789   4.181
  475TIP3   OH2 1430   5.984   0.063   0.134
  475TIP3    H1 1431   5.972  -0.010   0.196
  475TIP3    H2 1432   6.032   0.024   0.060
  476TIP3   OH2 1433   3.719   4.121   0.611
  476TIP3    H1 1434   3.652   4.059   0.583
  476TIP3    H2 1435   3.731   4.102   0.704
  477TIP3   OH2 1436   6.165   5.109   2.275
  477TIP3    H1 1437   6.157   5.182   2.336
  477TIP3    H2 1438   6.218   5.044   2.321
  478TIP3   OH2 1439   5.487   3.648   4.784
  478TIP3    H1 1440   5.523   3.730   4.750
  478TIP3    H2 1441   5.516   3.581   4.723
  479TIP3   OH2 1442   5.746   4.420   1.796
  479TIP3    H1 1443   5.677   4.354   1.789
  479TIP3    H2 1444   5.728   4.482   1.726
  480TIP3   OH2 1445   4.295   5.515   2.816
  480TIP3    H1 1446   4.324   5.424   2.816
  480TIP3    H2 1447   4.315   5.547   2.729
  481TIP3   OH2 1448   2.060   0.351   4.560
  481TIP3    H1 1449   1.983   0.297   4.578
  481TIP3    H2 1450   2.134   0.291   4.567
  482TIP3   OH2 1451   0.339   5.313   0.785
  482TIP3    H1 1452   0.408   5.260   0.825
  482TIP3    H2 1453   0.295   5.356   0.858
  483TIP3   OH2 1454   3.746   0.571   1.081
  483TIP3    H1 1455   3.665   0.526   1.058
  483TIP3    H2 1456   3.796   0.506   1.131
  484TIP3   OH2 1457   0.311   1.497   3.123
  484TIP3    H1 1458   0.268   1.572   3.164
  484TIP3    H2 1459   0.403   1.522   3.118
  485TIP3   OH2 1460   1.069   3.858   0.737
  485TIP3    H1 1461   1.076   3.880   0.644
  485TIP3    H2 1462   1.108   3.771   0.745
  486TIP3   OH2 1463   0.438   4.504   2.166
  486TIP3    H1 1464   0.419   4.554   2.245
  486TIP3    H2 1465   0.381   4.541   2.099
  487TIP3   OH2 1466   3.956   4.982   2.737
  487TIP3    H1 1467   3.972   5.060   2.685
  487TIP3    H2 1468   4.044   4.951   2.761
  488TIP3   OH2 1469   3.149   0.202   1.065
  488TIP3    H1 1470   3.129   0.258   0.990
  488TIP3    H2 1471   3.234   0.232   1.096
  489TIP3   OH2 1472   1.661   2.422   4.435
  489TIP3    H1 1473   1.671   2.430   4.340
  489TIP3    H2 1474   1.702   2.338   4.456
  490TIP3   OH2 1475   3.917   1.524   2.855
  490TIP3    H1 1476   3.851   1.593   2.849
  490TIP3    H2 1477   3.871   1.449   2.892
  491TIP3   OH2 1478   2.997   2.615   3.573
  491TIP3    H1 1479   3.049   2.598   3.495
  491TIP3    H2 1480   2.976   2.709   3.567
  492TIP3   OH2 1481   2.939   1.510   3.490
  492TIP3    H1 1482   2.988   1.463   3.422
  492TIP3    H2 1483   3.006   1.556   3.541
  493TIP3   OH2 1484   0.723   1.709   1.999
  493TIP3    H1 1485   0.752   1.778   1.940
  493TIP3    H2 1486   0.630   1.726   2.012
  494TIP3   OH2 1487   0.205   4.776   2.565
  494TIP3    H1 1488   0.148   4.787   2.641
  494TIP3    H2 1489   0.223   4.865   2.535
  495TIP3   OH2 1490   4.109   0.393   2.384
  495TIP3    H1 1491   4.052   0.324   2.417
  495TIP3    H2 1492   4.156   0.424   2.461
  496TIP3   OH2 1493   1.544   2.152   3.553
  496TIP3    H1 1494   1.575   2.083   3.494
  496TIP3    H2 1495   1.478   2.199   3.501
  497TIP3   OH2 1496   4.972   0.165   4.404
  497TIP3    H1 1497   4.877   0.168   4.410
  497TIP3    H2 1498   4.989   0.105   4.331
  498TIP3   OH2 1499   3.649   5.624   2.820
  498TIP3    H1 1500   3.665   5.718   2.820
  498TIP3    H2 1501   3.675   5.595   2.907
  499TIP3   OH2 1502   4.088   0.497   0.223
  499TIP3    H1 1503   4.046   0.457   0.299
  499TIP3    H2 1504   4.152   0.557   0.260
  500TIP3   OH2 1505   6.114   5.749   1.573
  500TIP3    H1 1506   6.090   5.803   1.498
  500TIP3    H2 1507   6.032   5.735   1.620
  501TIP3   OH2 1508   1.638   4.009   5.127
  501TIP3    H1 1509   1.670   4.092   5.093
  501TIP3    H2 1510   1.548   4.028   5.155
  502TIP3   OH2 1511   2.214   2.484   4.216
  502TIP3    H1 1512   2.278   2.510   4.149
  502TIP3    H2 1513   2.139   2.453   4.165
  503TIP3   OH2 1514   3.648   1.168   5.010
  503TIP3    H1 1515   3.682   1.091   4.965
  503TIP3    H2 1516   3.674   1.156   5.102
  504TIP3   OH2 1517   1.471   5.676   0.670
  504TIP3    H1 1518   1.464   5.607   0.736
  504TIP3    H2 1519   1.390   5.726   0.678
  505TIP3   OH2 1520   0.323   2.444   3.595
  505TIP3    H1 1521   0.309   2.494   3.515
  505TIP3    H2 1522   0.239   2.403   3.613
  506TIP3   OH2 1523   2.229   5.191   3.978
  506TIP3    H1 1524   2.201   5.112   3.931
  506TIP3    H2 1525   2.258   5.251   3.909
  507TIP3   OH2 1526   4.068   1.022   5.019
  507TIP3    H1 1527   4.000   1.026   5.086
  507TIP3    H2 1528   4.142   0.979   5.062
  508TIP3   OH2 1529   2.325   0.610   0.664
  508TIP3    H1 1530   2.373   0.554   0.602
  508TIP3    H2 1531   2.261   0.655   0.609
  509TIP3   OH2 1532   1.230   3.167   3.517
  509TIP3    H1 1533   1.277   3.151   3.435
  509TIP3    H2 1534   1.177   3.245   3.500
  510TIP3   OH2 1535   4.106   0.756   1.137
  510TIP3    H1 1536   4.118   0.733   1.230
  510TIP3    H2 1537   4.146   0.843   1.129
  511TIP3   OH2 1538   0.747   3.608   0.273
  511TIP3    H1 1539   0.681   3.540   0.285
  511TIP3    H2 1540   0.717   3.657   0.197
  512TIP3   OH2 1541   0.739   4.631   2.263
  512TIP3    H1 1542   0.668   4.657   2.204
  512TIP3    H2 1543   0.805   4.594   2.205
  513TIP3   OH2 1544   3.232   4.104   4.185
  513TIP3    H1 1545   3.261   4.020   4.149
  513TIP3    H2 1546   3.224   4.089   4.279
  514TIP3   OH2 1547   4.028   3.955   2.024
  514TIP3    H1 1548   4.033   3.901   2.103
  514TIP3    H2 1549   4.119   3.977   2.004
  515TIP3   OH2 1550   5.460   5.544   2.948
  515TIP3    H1 1551   5.471   5.634   2.915
  515TIP3    H2 1552   5.380   5.547   2.999
  516TIP3   OH2 1553   2.128   1.860   2.557
  516TIP3    H1 1554   2.198   1.853   2.622
  516TIP3    H2 1555   2.064   1.794   2.583
  517TIP3   OH2 1556   2.176   0.821   2.768
  517TIP3    H1 1557   2.123   0.873   2.708
  517TIP3    H2 1558   2.116   0.753   2.800
  518TIP3   OH2 1559   2.638   1.190   4.092
  518TIP3    H1 1560   2.695   1.163   4.021
  518TIP3    H2 1561   2.572   1.121   4.099
  519TIP3   OH2 1562   5.580   5.295   5.050
  519TIP3    H1 1563   5.556   5.204   5.034
  519TIP3    H2 1564   5.675   5.292   5.066
  520TIP3   OH2 1565   3.031   0.888   0.800
  520TIP3    H1 1566   3.027   0.951   0.872
  520TIP3    H2 1567   3.076   0.812   0.836
  521TIP3   OH2 1568   3.417   1.965   0.375
  521TIP3    H1 1569   3.459   1.904   0.437
  521TIP3    H2 1570   3.360   2.019   0.430
  522TIP3   OH2 1571   2.106   4.823   3.221
  522TIP3    H1 1572   2.026   4.875   3.214
  522TIP3    H2 1573   2.105   4.766   3.144
  523TIP3   OH2 1574   3.032   5.110   0.391
  523TIP3    H1 1575   3.094   5.153   0.332
  523TIP3    H2 1576   2.947   5.121   0.347
  524TIP3   OH2 1577   0.166   2.437   0.516
  524TIP3    H1 1578   0.159   2.400   0.604
  524TIP3    H2 1579   0.235   2.385   0.474
  525TIP3   OH2 1580   5.706   5.652   5.058
  525TIP3    H1 1581   5.722   5.563   5.026
  525TIP3    H2 1582   5.674   5.700   4.982
  526TIP3   OH2 1583   1.622   0.893   3.173
  526TIP3    H1 1584   1.586   0.812   3.138
  526TIP3    H2 1585   1.662   0.937   3.098
  527TIP3   OH2 1586   1.524   0.148   4.890
  527TIP3    H1 1587   1.506   0.093   4.813
  527TIP3    H2 1588   1.573   0.222   4.855
  528TIP3   OH2 1589   1.442   0.388   1.305
  528TIP3    H1 1590   1.355   0.395   1.345
  528TIP3    H2 1591   1.432   0.431   1.220
  529TIP3   OH2 1592   4.648   4.178   2.499
  529TIP3    H1 1593   4.554   4.159   2.508
  529TIP3    H2 1594   4.691   4.114   2.556
  530TIP3   OH2 1595   2.981   4.238   4.099
  530TIP3    H1 1596   3.043   4.168   4.121
  530TIP3    H2 1597   2.961   4.279   4.184
  531TIP3   OH2 1598   0.925   1.906   1.934
  531TIP3    H1 1599   0.915   2.001   1.923
  531TIP3    H2 1600   0.897   1.890   2.024
  532TIP3   OH2 1601   2.330   1.999   1.319
  532TIP3    H1 1602   2.242   2.026   1.295
  532TIP3    H2 1603   2.366   2.074   1.367
  533TIP3   OH2 1604   0.382   3.507   0.663
  533TIP3    H1 1605   0.429   3.451   0.601
  533TIP3    H2 1606   0.341   3.445   0.724
  534TIP3   OH2 1607   2.612   5.613   0.152
  534TIP3    H1 1608   2.664   5.572   0.222
  534TIP3    H2 1609   2.663   5.690   0.126
  535TIP3   OH2 1610   0.711   2.686   3.809
  535TIP3    H1 1611   0.718   2.680   3.904
  535TIP3    H2 1612   0.623   2.652   3.790
  536TIP3   OH2 1613   4.277   0.627   0.651
  536TIP3    H1 1614   4.310   0.711   0.619
  536TIP3    H2 1615   4.307   0.623   0.742
  537TIP3   OH2 1616   1.075   2.700   0.377
  537TIP3    H1 1617   1.133   2.775   0.363
  537TIP3    H2 1618   0.986   2.736   0.367
  538TIP3   OH2 1619   0.354   0.146   1.581
  538TIP3    H1 1620   0.406   0.222   1.605
  538TIP3    H2 1621   0.264   0.175   1.588
  539TIP3   OH2 1622   0.191   4.853   3.259
  539TIP3    H1 1623   0.105   4.823   3.286
  539TIP3    H2 1624   0.174   4.909   3.183
  540TIP3   OH2 1625   0.528   0.042   2.817
  540TIP3    H1 1626   0.601   0.053   2.756
  540TIP3    H2 1627   0.559   0.081   2.898
  541TIP3   OH2 1628   4.926   5.365   0.732
  541TIP3    H1 1629   4.895   5.292   0.678
  541TIP3    H2 1630   5.021   5.360   0.727
  542TIP3   OH2 1631   2.656   1.560   1.987
  542TIP3    H1 1632   2.592   1.631   1.987
  542TIP3    H2 1633   2.706   1.573   1.907
  543TIP3   OH2 1634   1.927   3.261   2.859
  543TIP3    H1 1635   1.934   3.187   2.920
  543TIP3    H2 1636   1.838   3.256   2.826
  544TIP3   OH2 1637   4.964   0.712   5.188
  544TIP3    H1 1638   4.971   0.798   5.145
  544TIP3    H2 1639   4.903   0.663   5.133
  545TIP3   OH2 1640   2.530   2.344   2.189
  545TIP3    H1 1641   2.437   2.321   2.193
  545TIP3    H2 1642   2.558   2.314   2.103
  546TIP3   OH2 1643   0.178   4.189   1.992
  546TIP3    H1 1644   0.087   4.199   2.019
  546TIP3    H2 1645   0.204   4.275   1.960
  547TIP3   OH2 1646   2.965   1.819   4.059
  547TIP3    H1 1647   2.903   1.778   3.998
  547TIP3    H2 1648   2.910   1.860   4.125
  548TIP3   OH2 1649   2.058   1.163   3.682
  548TIP3    H1 1650   2.071   1.088   3.741
  548TIP3    H2 1651   2.096   1.237   3.729
  549TIP3   OH2 1652   1.918   0.223   2.313
  549TIP3    H1 1653   1.972   0.159   2.361
  549TIP3    H2 1654   1.980   0.273   2.261
  550TIP3   OH2 1655   0.324   5.949   3.656
  550TIP3    H1 1656   0.331   6.001   3.737
  550TIP3    H2 1657   0.234   5.962   3.628
  551TIP3   OH2 1658   2.082   3.797   1.408
  551TIP3    H1 1659   2.028   3.739   1.354
  551TIP3    H2 1660   2.075   3.883   1.367
  552TIP3   OH2 1661   1.118   3.181   2.641
  552TIP3    H1 1662   1.172   3.146   2.570
  552TIP3    H2 1663   1.064   3.248   2.599
  553TIP3   OH2 1664   2.572   4.310   4.908
  553TIP3    H1 1665   2.483   4.342   4.922
  553TIP3    H2 1666   2.561   4.237   4.846
  554TIP3   OH2 1667   2.338   4.797   2.899
  554TIP3    H1 1668   2.341   4.840   2.814
  554TIP3    H2 1669   2.415   4.828   2.945
  555TIP3   OH2 1670   4.747   1.660   2.838
  555TIP3    H1 1671   4.792   1.578   2.814
  555TIP3    H2 1672   4.699   1.639   2.918
  556TIP3   OH2 1673   4.708   5.912   0.611
  556TIP3    H1 1674   4.710   5.962   0.529
  556TIP3    H2 1675   4.617   5.918   0.641
  557TIP3   OH2 1676   5.920   2.972   2.569
  557TIP3    H1 1677   5.916   3.031   2.494
  557TIP3    H2 1678   5.908   3.029   2.645
  558TIP3   OH2 1679   1.509   1.610   0.462
  558TIP3    H1 1680   1.415   1.615   0.444
  558TIP3    H2 1681   1.533   1.519   0.446
  559TIP3   OH2 1682   0.535   4.896   3.877
  559TIP3    H1 1683   0.509   4.925   3.790
  559TIP3    H2 1684   0.504   4.806   3.883
  560TIP3   OH2 1685   1.891   1.039   2.342
  560TIP3    H1 1686   1.871   1.130   2.364
  560TIP3    H2 1687   1.839   1.022   2.264
  561TIP3   OH2 1688   2.827   3.167   0.783
  561TIP3    H1 1689   2.922   3.172   0.797
  561TIP3    H2 1690   2.806   3.074   0.796
  562TIP3   OH2 1691   2.679   4.236   2.268
  562TIP3    H1 1692   2.767   4.251   2.303
  562TIP3    H2 1693   2.620   4.265   2.337
  563TIP3   OH2 1694   0.254   5.756   3.025
  563TIP3    H1 1695   0.189   5.792   2.966
  563TIP3    H2 1696   0.250   5.813   3.102
  564TIP3   OH2 1697   3.074   0.035   5.108
  564TIP3    H1 1698   2.997   0.088   5.088
  564TIP3    H2 1699   3.052  -0.010   5.189
  565TIP3   OH2 1700   6.163   0.282   3.223
  565TIP3    H1 1701   6.114   0.270   3.142
  565TIP3    H2 1702   6.160   0.376   3.240
  566TIP3   OH2 1703   5.487   5.079   4.693
  566TIP3    H1 1704   5.540   5.125   4.628
  566TIP3    H2 1705   5.398   5.113   4.681
  567TIP3   OH2 1706   3.294   5.676   0.456
  567TIP3    H1 1707   3.248   5.753   0.490
  567TIP3    H2 1708   3.353   5.711   0.389
  568TIP3   OH2 1709   2.739   5.535   0.391
  568TIP3    H1 1710   2.662   5.559   0.442
  568TIP3    H2 1711   2.768   5.452   0.428
  569TIP3   OH2 1712   2.104   0.513   1.072
  569TIP3    H1 1713   2.133   0.589   1.123
  569TIP3    H2 1714   2.079   0.551   0.987
  570TIP3   OH2 1715   4.887   2.828   2.051
  570TIP3    H1 1716   4.941   2.755   2.082
  570TIP3    H2 1717   4.887   2.820   1.956
  571TIP3   OH2 1718   1.384   1.560   3.470
  571TIP3    H1 1719   1.422   1.598   3.391
  571TIP3    H2 1720   1.302   1.608   3.482
  572TIP3   OH2 1721   5.602   0.383   0.354
  572TIP3    H1 1722   5.576   0.449   0.290
  572TIP3    H2 1723   5.603   0.430   0.438
  573TIP3   OH2 1724   5.601   1.259   4.528
  573TIP3    H1 1725   5.539   1.185   4.529
  573TIP3    H2 1726   5.673   1.229   4.583
  574TIP3   OH2 1727   1.876   0.728   2.028
  574TIP3    H1 1728   1.870   0.662   1.959
  574TIP3    H2 1729   1.966   0.762   2.022
  575TIP3   OH2 1730   0.118   3.711   1.513
  575TIP3    H1 1731   0.138   3.703   1.419
  575TIP3    H2 1732   0.130   3.805   1.531
  576TIP3   OH2 1733   0.792   0.119   4.469
  576TIP3    H1 1734   0.779   0.110   4.564
  576TIP3    H2 1735   0.714   0.081   4.430
  577TIP3   OH2 1736   1.930   3.830   1.742
  577TIP3    H1 1737   1.905   3.802   1.830
  577TIP3    H2 1738   2.011   3.783   1.724
  578TIP3   OH2 1739   5.336   2.827   2.404
  578TIP3    H1 1740   5.352   2.801   2.495
  578TIP3    H2 1741   5.267   2.893   2.410
  579TIP3   OH2 1742   0.418   4.551   1.644
  579TIP3    H1 1743   0.363   4.589   1.575
  579TIP3    H2 1744   0.484   4.618   1.662
  580TIP3   OH2 1745   5.199   1.899   0.277
  580TIP3    H1 1746   5.236   1.823   0.323
  580TIP3    H2 1747   5.129   1.929   0.334
  581TIP3   OH2 1748   2.133   2.813   3.551
  581TIP3    H1 1749   2.138   2.729   3.504
  581TIP3    H2 1750   2.205   2.810   3.613
  582TIP3   OH2 1751   6.077   1.721   0.862
  582TIP3    H1 1752   6.138   1.655   0.830
  582TIP3    H2 1753   6.021   1.740   0.786
  583TIP3   OH2 1754   0.463   1.239   0.212
  583TIP3    H1 1755   0.477   1.300   0.139
  583TIP3    H2 1756   0.551   1.210   0.236
  584TIP3   OH2 1757   4.940   1.255   3.661
  584TIP3    H1 1758   4.914   1.227   3.573
  584TIP3    H2 1759   4.960   1.174   3.707
  585TIP3   OH2 1760   4.178   4.455   0.805
  585TIP3    H1 1761   4.141   4.368   0.817
  585TIP3    H2 1762   4.222   4.475   0.888
  586TIP3   OH2 1763   6.260   2.029   3.121
  586TIP3    H1 1764   6.276   2.051   3.029
  586TIP3    H2 1765   6.298   1.941   3.131
  587TIP3   OH2 1766   2.534   5.231   0.380
  587TIP3    H1 1767   2.489   5.293   0.322
  587TIP3    H2 1768   2.492   5.147   0.363
  588TIP3   OH2 1769   5.523   0.266   3.635
  588TIP3    H1 1770   5.461   0.222   3.693
  588TIP3    H2 1771   5.550   0.198   3.573
  589TIP3   OH2 1772   2.149   2.386   1.481
  589TIP3    H1 1773   2.190   2.338   1.553
  589TIP3    H2 1774   2.137   2.475   1.515
  590TIP3   OH2 1775   2.311   2.562   0.641
  590TIP3    H1 1776   2.365   2.511   0.702
  590TIP3    H2 1777   2.263   2.497   0.590
  591TIP3   OH2 1778   2.222   0.204   3.606
  591TIP3    H1 1779   2.185   0.272   3.550
  591TIP3    H2 1780   2.317   0.217   3.601
  592TIP3   OH2 1781   3.068   3.114   1.250
  592TIP3    H1 1782   3.004   3.117   1.321
  592TIP3    H2 1783   3.021   3.072   1.177
  593TIP3   OH2 1784   6.079   2.017   3.857
  593TIP3    H1 1785   6.017   1.996   3.926
  593TIP3    H2 1786   6.064   2.110   3.839
  594TIP3   OH2 1787   0.425   3.125   4.123
  594TIP3    H1 1788   0.485   3.051   4.126
  594TIP3    H2 1789   0.345   3.092   4.167
  595TIP3   OH2 1790   0.909   3.599   3.478
  595TIP3    H1 1791   0.853   3.659   3.430
  595TIP3    H2 1792   0.932   3.647   3.558
  596TIP3   OH2 1793  -0.061   4.773   1.507
  596TIP3    H1 1794   0.034   4.784   1.504
  596TIP3    H2 1795  -0.095   4.842   1.450
  597TIP3   OH2 1796   0.797   5.276   1.615
  597TIP3    H1 1797   0.778   5.257   1.707
  597TIP3    H2 1798   0.879   5.325   1.617
  598TIP3   OH2 1799   4.907   4.158   0.512
  598TIP3    H1 1800   4.876   4.173   0.423
  598TIP3    H2 1801   4.862   4.224   0.564
  599TIP3   OH2 1802   3.943   5.715   3.938
  599TIP3    H1 1803   4.012   5.758   3.988
  599TIP3    H2 1804   3.875   5.695   4.003
  600TIP3   OH2 1805   0.175   3.381   4.804
  600TIP3    H1 1806   0.263   3.414   4.787
  600TIP3    H2 1807   0.162   3.393   4.898
  601TIP3   OH2 1808   3.565   0.833   0.624
  601TIP3    H1 1809   3.557   0.858   0.532
  601TIP3    H2 1810   3.616   0.752   0.623
  602TIP3   OH2 1811   1.447   5.052   1.008
  602TIP3    H1 1812   1.432   5.145   1.027
  602TIP3    H2 1813   1.413   5.006   1.084
  603TIP3   OH2 1814   1.824   1.503   1.084
  603TIP3    H1 1815   1.786   1.567   1.145
  603TIP3    H2 1816   1.765   1.504   1.009
  604TIP3   OH2 1817   4.838   4.696   2.695
  604TIP3    H1 1818   4.749   4.671   2.669
  604TIP3    H2 1819   4.871   4.747   2.621
  605TIP3   OH2 1820   0.416   0.703   1.180
  605TIP3    H1 1821   0.366   0.630   1.218
  605TIP3    H2 1822   0.507   0.673   1.181
  606TIP3   OH2 1823   0.372   0.376   3.010
  606TIP3    H1 1824   0.463   0.377   2.982
  606TIP3    H2 1825   0.370   0.315   3.084
  607TIP3   OH2 1826   1.098   1.170   4.420
  607TIP3    H1 1827   1.019   1.118   4.431
  607TIP3    H2 1828   1.094   1.200   4.329
  608TIP3   OH2 1829   5.603   1.374   2.749
  608TIP3    H1 1830   5.579   1.458   2.710
  608TIP3    H2 1831   5.687   1.353   2.710
  609TIP3   OH2 1832   6.147   5.182   5.117
  609TIP3    H1 1833   6.195   5.199   5.198
  609TIP3    H2 1834   6.072   5.129   5.144
  610TIP3   OH2 1835   5.922   5.587   3.992
  610TIP3    H1 1836   5.888   5.521   3.932
  610TIP3    H2 1837   5.919   5.544   4.078
  611TIP3   OH2 1838   4.541   4.871   3.699
  611TIP3    H1 1839   4.519   4.811   3.628
  611TIP3    H2 1840   4.635   4.860   3.710
  612TIP3   OH2 1841   4.458   0.254   2.060
  612TIP3    H1 1842   4.377   0.238   2.107
  612TIP3    H2 1843   4.481   0.344   2.080
  613TIP3   OH2 1844   3.967   0.240   4.869
  613TIP3    H1 1845   4.049   0.283   4.842
  613TIP3    H2 1846   3.986   0.206   4.957
  614TIP3   OH2 1847   1.453   1.325   4.781
  614TIP3    H1 1848   1.412   1.345   4.865
  614TIP3    H2 1849   1.444   1.230   4.772
  615TIP3   OH2 1850   3.246   1.889   2.440
  615TIP3    H1 1851   3.233   1.797   2.419
  615TIP3    H2 1852   3.159   1.921   2.461
  616TIP3   OH2 1853   1.774   1.748   3.219
  616TIP3    H1 1854   1.786   1.683   3.287
  616TIP3    H2 1855   1.813   1.828   3.255
  617TIP3   OH2 1856   6.256   0.836   1.357
  617TIP3    H1 1857   6.318   0.797   1.418
  617TIP3    H2 1858   6.194   0.765   1.338
  618TIP3   OH2 1859   4.207   5.270   0.838
  618TIP3    H1 1860   4.153   5.286   0.760
  618TIP3    H2 1861   4.153   5.214   0.894
  619TIP3   OH2 1862   2.795   2.776   1.944
  619TIP3    H1 1863   2.771   2.728   1.864
  619TIP3    H2 1864   2.880   2.815   1.924
  620TIP3   OH2 1865   2.454   2.509   3.761
  620TIP3    H1 1866   2.533   2.562   3.756
  620TIP3    H2 1867   2.461   2.448   3.688
  621TIP3   OH2 1868   4.477   5.628   3.954
  621TIP3    H1 1869   4.568   5.599   3.942
  621TIP3    H2 1870   4.482   5.695   4.022
  622TIP3   OH2 1871   2.127   1.976   0.964
  622TIP3    H1 1872   2.087   2.019   0.888
  622TIP3    H2 1873   2.054   1.932   1.008
  623TIP3   OH2 1874   4.916   0.778   2.803
  623TIP3    H1 1875   4.911   0.695   2.850
  623TIP3    H2 1876   4.971   0.833   2.859
  624TIP3   OH2 1877   3.699   4.762   2.074
  624TIP3    H1 1878   3.702   4.672   2.107
  624TIP3    H2 1879   3.606   4.784   2.073
  625TIP3   OH2 1880   5.839   0.333   3.320
  625TIP3    H1 1881   5.745   0.353   3.316
  625TIP3    H2 1882   5.875   0.399   3.380
  626TIP3   OH2 1883   2.695   1.270   0.123
  626TIP3    H1 1884   2.601   1.281   0.108
  626TIP3    H2 1885   2.721   1.348   0.173
  627TIP3   OH2 1886   0.611   5.017   4.294
  627TIP3    H1 1887   0.528   5.026   4.247
  627TIP3    H2 1888   0.678   5.017   4.225
  628TIP3   OH2 1889   5.507   5.866   1.884
  628TIP3    H1 1890   5.462   5.831   1.808
  628TIP3    H2 1891   5.580   5.806   1.899
  629TIP3   OH2 1892   0.198   1.672   3.333
  629TIP3    H1 1893   0.254   1.749   3.341
  629TIP3    H2 1894   0.110   1.704   3.353
  630TIP3   OH2 1895   3.276   5.763   1.163
  630TIP3    H1 1896   3.285   5.830   1.095
  630TIP3    H2 1897   3.182   5.755   1.176
  631TIP3   OH2 1898   5.339   0.805   0.239
  631TIP3    H1 1899   5.378   0.891   0.226
  631TIP3    H2 1900   5.290   0.788   0.158
  632TIP3   OH2 1901   3.638   4.497   2.147
  632TIP3    H1 1902   3.675   4.409   2.148
  632TIP3    H2 1903   3.567   4.494   2.211
  633TIP3   OH2 1904   2.534   1.596   1.580
  633TIP3    H1 1905   2.491   1.545   1.649
  633TIP3    H2 1906   2.472   1.666   1.559
  634TIP3   OH2 1907   5.067   0.229   4.105
  634TIP3    H1 1908   4.974   0.207   4.094
  634TIP3    H2 1909   5.109   0.192   4.027
  635TIP3   OH2 1910   4.295   3.637   0.285
  635TIP3    H1 1911   4.213   3.597   0.313
  635TIP3    H2 1912   4.307   3.711   0.345
  636TIP3   OH2 1913   0.683   2.402   0.847
  636TIP3    H1 1914   0.608   2.393   0.788
  636TIP3    H2 1915   0.645   2.433   0.929
  637TIP3   OH2 1916   2.809   3.623   1.774
  637TIP3    H1 1917   2.768   3.549   1.818
  637TIP3    H2 1918   2.888   3.641   1.826
  638TIP3   OH2 1919   5.649   1.115   4.969
  638TIP3    H1 1920   5.706   1.066   5.029
  638TIP3    H2 1921   5.568   1.065   4.967
  639TIP3   OH2 1922   3.840   2.108   4.501
  639TIP3    H1 1923   3.890   2.188   4.518
  639TIP3    H2 1924   3.806   2.121   4.412
  640TIP3   OH2 1925   3.442   5.778   0.082
  640TIP3    H1 1926   3.462   5.691   0.047
  640TIP3    H2 1927   3.412   5.828   0.006
  641TIP3   OH2 1928   6.181   4.315   3.007
  641TIP3    H1 1929   6.139   4.246   2.957
  641TIP3    H2 1930   6.198   4.384   2.942
  642TIP3   OH2 1931   3.894   4.021   3.360
  642TIP3    H1 1932   3.990   4.011   3.359
  642TIP3    H2 1933   3.877   4.087   3.293
  643TIP3   OH2 1934   6.203   2.824   2.133
  643TIP3    H1 1935   6.254   2.829   2.214
  643TIP3    H2 1936   6.259   2.866   2.068
  644TIP3   OH2 1937   1.735   5.445   2.117
  644TIP3    H1 1938   1.678   5.369   2.106
  644TIP3    H2 1939   1.788   5.447   2.037
  645TIP3   OH2 1940   5.300   2.216   0.464
  645TIP3    H1 1941   5.218   2.258   0.437
  645TIP3    H2 1942   5.274   2.126   0.486
  646TIP3   OH2 1943   6.080   2.873   0.534
  646TIP3    H1 1944   6.009   2.848   0.593
  646TIP3    H2 1945   6.045   2.949   0.487
  647TIP3   OH2 1946   3.790   2.569   4.276
  647TIP3    H1 1947   3.837   2.563   4.359
  647TIP3    H2 1948   3.711   2.619   4.296
  648TIP3   OH2 1949   0.678   2.019   4.948
  648TIP3    H1 1950   0.588   2.022   4.915
  648TIP3    H2 1951   0.671   2.050   5.039
  649TIP3   OH2 1952   5.398   5.711   4.671
  649TIP3    H1 1953   5.333   5.642   4.684
  649TIP3    H2 1954   5.367   5.758   4.593
  650TIP3   OH2 1955   0.138   4.412   3.170
  650TIP3    H1 1956   0.203   4.476   3.144
  650TIP3    H2 1957   0.062   4.464   3.197
  651TIP3   OH2 1958   3.076   0.623   0.929
  651TIP3    H1 1959   3.171   0.629   0.941
  651TIP3    H2 1960   3.043   0.594   1.014
  652TIP3   OH2 1961   0.699   0.745   4.156
  652TIP3    H1 1962   0.710   0.714   4.066
  652TIP3    H2 1963   0.604   0.745   4.169
  653TIP3   OH2 1964   4.625   2.738   3.626
  653TIP3    H1 1965   4.715   2.769   3.640
  653TIP3    H2 1966   4.628   2.690   3.544
  654TIP3   OH2 1967   2.358   2.705   1.323
  654TIP3    H1 1968   2.366   2.611   1.308
  654TIP3    H2 1969   2.309   2.713   1.405
  655TIP3   OH2 1970   4.527   1.145   1.372
  655TIP3    H1 1971   4.502   1.073   1.314
  655TIP3    H2 1972   4.620   1.132   1.388
  656TIP3   OH2 1973   4.199   0.782   0.085
  656TIP3    H1 1974   4.240   0.863   0.116
  656TIP3    H2 1975   4.181   0.732   0.165
  657TIP3   OH2 1976   5.102   0.007   2.062
  657TIP3    H1 1977   5.091   0.102   2.055
  657TIP3    H2 1978   5.188  -0.004   2.103
  658TIP3   OH2 1979   4.620   3.020   1.328
  658TIP3    H1 1980   4.542   3.022   1.273
  658TIP3    H2 1981   4.592   2.975   1.408
  659TIP3   OH2 1982   0.266   0.456   1.176
  659TIP3    H1 1983   0.306   0.420   1.097
  659TIP3    H2 1984   0.172   0.459   1.156
  660TIP3   OH2 1985   4.135   2.960   4.854
  660TIP3    H1 1986   4.190   3.038   4.848
  660TIP3    H2 1987   4.169   2.911   4.929
  661TIP3   OH2 1988   0.794   4.565   2.929
  661TIP3    H1 1989   0.852   4.580   2.855
  661TIP3    H2 1990   0.732   4.499   2.899
  662TIP3   OH2 1991   1.406   5.876   3.348
  662TIP3    H1 1992   1.351   5.910   3.418
  662TIP3    H2 1993   1.495   5.876   3.385
  663TIP3   OH2 1994   2.302   4.808   3.689
  663TIP3    H1 1995   2.246   4.733   3.705
  663TIP3    H2 1996   2.264   4.851   3.612
  664TIP3   OH2 1997   4.782   0.438   4.386
  664TIP3    H1 1998   4.773   0.343   4.396
  664TIP3    H2 1999   4.692   0.469   4.371
  665TIP3   OH2 2000   4.676   1.026   1.773
  665TIP3    H1 2001   4.715   0.954   1.724
  665TIP3    H2 2002   4.605   1.057   1.716
  666TIP3   OH2 2003   5.492   4.806   2.729
  666TIP3    H1 2004   5.559   4.785   2.793
  666TIP3    H2 2005   5.427   4.857   2.778
  667TIP3   OH2 2006   2.361   1.614   1.071
  667TIP3    H1 2007   2.268   1.614   1.048
  667TIP3    H2 2008   2.406   1.612   0.987
  668TIP3   OH2 2009   3.012   4.014   2.286
  668TIP3    H1 2010   2.941   4.064   2.328
  668TIP3    H2 2011   3.069   3.988   2.359
  669TIP3   OH2 2012   0.173   3.195   0.311
  669TIP3    H1 2013   0.154   3.289   0.317
  669TIP3    H2 2014   0.267   3.188   0.326
  670TIP3   OH2 2015   3.396   3.607   0.369
  670TIP3    H1 2016   3.423   3.523   0.332
  670TIP3    H2 2017   3.301   3.601   0.378
  671TIP3   OH2 2018   2.443   4.971   0.401
  671TIP3    H1 2019   2.476   4.881   0.402
  671TIP3    H2 2020   2.347   4.962   0.400
  672TIP3   OH2 2021   1.468   4.865   4.217
  672TIP3    H1 2022   1.524   4.874   4.295
  672TIP3    H2 2023   1.468   4.952   4.178
  673TIP3   OH2 2024   3.767   4.813   3.687
  673TIP3    H1 2025   3.780   4.741   3.626
  673TIP3    H2 2026   3.784   4.892   3.635
  674TIP3   OH2 2027   5.642   2.997   3.992
  674TIP3    H1 2028   5.628   2.902   3.982
  674TIP3    H2 2029   5.633   3.031   3.903
  675TIP3   OH2 2030   5.946   1.673   1.496
  675TIP3    H1 2031   5.904   1.700   1.578
  675TIP3    H2 2032   5.887   1.608   1.458
  676TIP3   OH2 2033   2.153   5.630   2.897
  676TIP3    H1 2034   2.139   5.546   2.940
  676TIP3    H2 2035   2.184   5.688   2.966
  677TIP3   OH2 2036   2.677   0.049   1.847
  677TIP3    H1 2037   2.682  -0.038   1.808
  677TIP3    H2 2038   2.592   0.051   1.890
  678TIP3   OH2 2039   5.903   0.118   3.719
  678TIP3    H1 2040   5.870   0.028   3.711
  678TIP3    H2 2041   5.838   0.171   3.674
  679TIP3   OH2 2042   5.313   2.370   2.403
  679TIP3    H1 2043   5.377   2.348   2.470
  679TIP3    H2 2044   5.352   2.444   2.356
  680TIP3   OH2 2045   5.199   1.189   1.303
  680TIP3    H1 2046   5.224   1.275   1.337
  680TIP3    H2 2047   5.108   1.178   1.330
  681TIP3   OH2 2048   0.548   3.865   1.385
  681TIP3    H1 2049   0.480   3.895   1.325
  681TIP3    H2 2050   0.508   3.793   1.434
  682TIP3   OH2 2051   3.731   0.565   1.670
  682TIP3    H1 2052   3.666   0.505   1.633
  682TIP3    H2 2053   3.679   0.625   1.725
  683TIP3   OH2 2054   4.412   4.160   2.328
  683TIP3    H1 2055   4.397   4.236   2.272
  683TIP3    H2 2056   4.422   4.087   2.267
  684TIP3   OH2 2057   2.852   5.188   3.723
  684TIP3    H1 2058   2.854   5.276   3.758
  684TIP3    H2 2059   2.795   5.194   3.646
  685TIP3   OH2 2060   4.231   3.466   3.170
  685TIP3    H1 2061   4.317   3.429   3.149
  685TIP3    H2 2062   4.196   3.493   3.086
  686TIP3   OH2 2063   2.126   3.857   2.975
  686TIP3    H1 2064   2.167   3.902   2.901
  686TIP3    H2 2065   2.044   3.905   2.990
  687TIP3   OH2 2066   3.055   1.710   2.931
  687TIP3    H1 2067   3.068   1.803   2.914
  687TIP3    H2 2068   2.983   1.685   2.873
  688TIP3   OH2 2069   1.147   2.492   4.381
  688TIP3    H1 2070   1.092   2.522   4.453
  688TIP3    H2 2071   1.237   2.508   4.411
  689TIP3   OH2 2072   0.594   1.835   1.079
  689TIP3    H1 2073   0.648   1.755   1.076
  689TIP3    H2 2074   0.512   1.810   1.036
  690TIP3   OH2 2075   0.329   1.396   1.021
  690TIP3    H1 2076   0.260   1.451   1.057
  690TIP3    H2 2077   0.334   1.420   0.929
  691TIP3   OH2 2078   4.053   2.375   4.120
  691TIP3    H1 2079   4.022   2.399   4.208
  691TIP3    H2 2080   4.010   2.291   4.102
  692TIP3   OH2 2081   3.983   0.855   3.421
  692TIP3    H1 2082   3.955   0.764   3.420
  692TIP3    H2 2083   4.054   0.859   3.357
  693TIP3   OH2 2084   2.270   4.913   0.787
  693TIP3    H1 2085   2.307   4.998   0.810
  693TIP3    H2 2086   2.332   4.849   0.820
  694TIP3   OH2 2087   4.094   2.286   5.078
  694TIP3    H1 2088   4.163   2.234   5.036
  694TIP3    H2 2089   4.112   2.376   5.050
  695TIP3   OH2 2090   3.511   2.354   2.104
  695TIP3    H1 2091   3.471   2.364   2.191
  695TIP3    H2 2092   3.589   2.301   2.120
  696TIP3   OH2 2093   5.757   4.394   1.068
  696TIP3    H1 2094   5.805   4.476   1.068
  696TIP3    H2 2095   5.695   4.402   1.141
  697TIP3   OH2 2096   2.426   4.589   3.249
  697TIP3    H1 2097   2.436   4.654   3.180
  697TIP3    H2 2098   2.466   4.510   3.214
  698TIP3   OH2 2099   1.950   0.089   3.404
  698TIP3    H1 2100   1.865   0.115   3.440
  698TIP3    H2 2101   1.976   0.163   3.349
  699TIP3   OH2 2102   5.782   4.021   3.537
  699TIP3    H1 2103   5.705   4.040   3.591
  699TIP3    H2 2104   5.836   4.100   3.544
  700TIP3   OH2 2105   1.628   0.610   1.410
  700TIP3    H1 2106   1.549   0.567   1.378
  700TIP3    H2 2107   1.650   0.674   1.342
  701TIP3   OH2 2108   2.446   3.947   1.661
  701TIP3    H1 2109   2.472   3.942   1.753
  701TIP3    H2 2110   2.445   3.855   1.632
  702TIP3   OH2 2111   3.551   5.465   3.468
  702TIP3    H1 2112   3.469   5.429   3.503
  702TIP3    H2 2113   3.537   5.560   3.470
  703TIP3   OH2 2114   3.316   0.420   3.683
  703TIP3    H1 2115   3.354   0.433   3.597
  703TIP3    H2 2116   3.391   0.417   3.743
  704TIP3   OH2 2117   4.335   2.269   0.395
  704TIP3    H1 2118   4.318   2.352   0.440
  704TIP3    H2 2119   4.362   2.209   0.464
  705TIP3   OH2 2120   4.551   2.367   4.624
  705TIP3    H1 2121   4.630   2.405   4.662
  705TIP3    H2 2122   4.483   2.433   4.638
  706TIP3   OH2 2123   3.460   2.701   1.987
  706TIP3    H1 2124   3.449   2.678   1.895
  706TIP3    H2 2125   3.513   2.630   2.023
  707TIP3   OH2 2126   5.025   2.035   0.944
  707TIP3    H1 2127   5.099   2.096   0.948
  707TIP3    H2 2128   5.063   1.949   0.960
  708TIP3   OH2 2129   4.929   4.166   1.429
  708TIP3    H1 2130   4.937   4.099   1.361
  708TIP3    H2 2131   4.938   4.249   1.382
  709TIP3   OH2 2132   4.017   5.586   3.358
  709TIP3    H1 2133   3.997   5.662   3.411
  709TIP3    H2 2134   3.963   5.515   3.394
  710TIP3   OH2 2135   1.830   1.928   0.367
  710TIP3    H1 2136   1.745   1.891   0.342
  710TIP3    H2 2137   1.867   1.864   0.427
  711TIP3   OH2 2138   2.128   3.474   5.031
  711TIP3    H1 2139   2.115   3.485   5.125
  711TIP3    H2 2140   2.152   3.382   5.021
  712TIP3   OH2 2141   6.276   5.601   1.422
  712TIP3    H1 2142   6.247   5.678   1.471
  712TIP3    H2 2143   6.244   5.527   1.473
  713TIP3   OH2 2144   0.952   5.236   4.819
  713TIP3    H1 2145   0.856   5.234   4.809
  713TIP3    H2 2146   0.970   5.174   4.889
  714TIP3   OH2 2147   1.464   3.995   2.836
  714TIP3    H1 2148   1.438   3.911   2.798
  714TIP3    H2 2149   1.508   3.972   2.917
  715TIP3   OH2 2150   2.123   0.702   3.946
  715TIP3    H1 2151   2.124   0.756   3.868
  715TIP3    H2 2152   2.041   0.724   3.990
  716TIP3   OH2 2153   1.934   5.735   3.113
  716TIP3    H1 2154   1.881   5.815   3.116
  716TIP3    H2 2155   2.024   5.766   3.123
  717TIP3   OH2 2156   4.880   5.532   1.532
  717TIP3    H1 2157   4.935   5.501   1.460
  717TIP3    H2 2158   4.943   5.557   1.600
  718TIP3   OH2 2159   5.138   3.816   0.261
  718TIP3    H1 2160   5.056   3.778   0.294
  718TIP3    H2 2161   5.110   3.894   0.212
  719TIP3   OH2 2162   0.116   1.727   4.817
  719TIP3    H1 2163   0.191   1.786   4.824
  719TIP3    H2 2164   0.135   1.674   4.740
  720TIP3   OH2 2165   5.073   3.870   3.633
  720TIP3    H1 2166   5.081   3.917   3.550
  720TIP3    H2 2167   4.978   3.859   3.646
  721TIP3   OH2 2168   0.885   5.597   3.030
  721TIP3    H1 2169   0.807   5.592   2.975
  721TIP3    H2 2170   0.856   5.570   3.117
  722TIP3   OH2 2171   2.475   4.409   1.057
  722TIP3    H1 2172   2.546   4.395   1.121
  722TIP3    H2 2173   2.408   4.347   1.083
  723TIP3   OH2 2174   3.457   4.006   1.332
  723TIP3    H1 2175   3.411   4.063   1.393
  723TIP3    H2 2176   3.472   4.061   1.255
  724TIP3   OH2 2177   4.335   2.278   4.916
  724TIP3    H1 2178   4.313   2.248   4.828
  724TIP3    H2 2179   4.338   2.373   4.908
  725TIP3   OH2 2180   4.538   5.243   4.856
  725TIP3    H1 2181   4.607   5.304   4.834
  725TIP3    H2 2182   4.583   5.166   4.890
  726TIP3   OH2 2183   5.498   1.589   1.448
  726TIP3    H1 2184   5.574   1.533   1.461
  726TIP3    H2 2185   5.529   1.677   1.466
  727TIP3   OH2 2186   3.387   3.753   3.330
  727TIP3    H1 2187   3.316   3.814   3.310
  727TIP3    H2 2188   3.390   3.693   3.256
  728TIP3   OH2 2189   5.910   5.288   3.033
  728TIP3    H1 2190   5.828   5.301   3.080
  728TIP3    H2 2191   5.885   5.243   2.952
  729TIP3   OH2 2192   4.093   2.278   0.255
  729TIP3    H1 2193   4.171   2.253   0.304
  729TIP3    H2 2194   4.028   2.212   0.278
  730TIP3   OH2 2195   5.328   3.826   1.144
  730TIP3    H1 2196   5.284   3.743   1.127
  730TIP3    H2 2197   5.421   3.803   1.151
  731TIP3   OH2 2198   3.202   5.009   3.517
  731TIP3    H1 2199   3.173   5.032   3.606
  731TIP3    H2 2200   3.128   5.031   3.461
  732TIP3   OH2 2201   3.801   3.468   1.600
  732TIP3    H1 2202   3.737   3.538   1.583
  732TIP3    H2 2203   3.840   3.491   1.684
  733TIP3   OH2 2204   5.090   2.842   3.202
  733TIP3    H1 2205   5.137   2.850   3.284
  733TIP3    H2 2206   5.008   2.798   3.225
  734TIP3   OH2 2207   4.075   5.482   4.055
  734TIP3    H1 2208   4.015   5.475   3.981
  734TIP3    H2 2209   4.018   5.483   4.132
  735TIP3   OH2 2210   5.866   2.174   2.788
  735TIP3    H1 2211   5.858   2.269   2.801
  735TIP3    H2 2212   5.942   2.149   2.841
  736TIP3   OH2 2213   2.581   4.895   4.395
  736TIP3    H1 2214   2.538   4.873   4.312
  736TIP3    H2 2215   2.650   4.829   4.405
  737TIP3   OH2 2216   4.614   0.252   4.925
  737TIP3    H1 2217   4.587   0.270   4.835
  737TIP3    H2 2218   4.678   0.181   4.918
  738TIP3   OH2 2219   5.326   1.244   3.461
  738TIP3    H1 2220   5.279   1.199   3.391
  738TIP3    H2 2221   5.286   1.331   3.466
  739TIP3   OH2 2222   1.711   5.907   2.371
  739TIP3    H1 2223   1.698   5.837   2.435
  739TIP3    H2 2224   1.715   5.862   2.287
  740TIP3   OH2 2225   2.190   2.424   3.788
  740TIP3    H1 2226   2.172   2.336   3.822
  740TIP3    H2 2227   2.285   2.426   3.777
  741TIP3   OH2 2228   2.316   3.213   1.119
  741TIP3    H1 2229   2.387   3.273   1.098
  741TIP3    H2 2230   2.349   3.127   1.094
  742TIP3   OH2 2231   2.886   4.317   4.343
  742TIP3    H1 2232   2.871   4.308   4.437
  742TIP3    H2 2233   2.936   4.398   4.335
  743TIP3   OH2 2234   0.669   1.507   1.226
  743TIP3    H1 2235   0.684   1.419   1.192
  743TIP3    H2 2236   0.698   1.565   1.155
  744TIP3   OH2 2237   4.568   0.401   0.669
  744TIP3    H1 2238   4.661   0.380   0.664
  744TIP3    H2 2239   4.537   0.394   0.579
  745TIP3   OH2 2240   0.337   2.304   4.352
  745TIP3    H1 2241   0.273   2.371   4.376
  745TIP3    H2 2242   0.403   2.352   4.302
  746TIP3   OH2 2243   2.960   3.317   4.551
  746TIP3    H1 2244   2.920   3.237   4.584
  746TIP3    H2 2245   3.051   3.293   4.535
  747TIP3   OH2 2246   3.881   0.603   1.419
  747TIP3    H1 2247   3.864   0.692   1.388
  747TIP3    H2 2248   3.850   0.603   1.510
  748TIP3   OH2 2249   1.089   0.395   1.079
  748TIP3    H1 2250   1.177   0.433   1.089
  748TIP3    H2 2251   1.038   0.434   1.149
  749TIP3   OH2 2252   3.299   1.296   1.553
  749TIP3    H1 2253   3.290   1.391   1.557
  749TIP3    H2 2254   3.252   1.271   1.473
  750TIP3   OH2 2255   6.334   0.435   1.079
  750TIP3    H1 2256   6.363   0.378   1.007
  750TIP3    H2 2257   6.243   0.455   1.058
  751TIP3   OH2 2258   3.525   0.389   1.611
  751TIP3    H1 2259   3.470   0.390   1.690
  751TIP3    H2 2260   3.501   0.308   1.566
  752TIP3   OH2 2261   4.578   2.615   3.860
  752TIP3    H1 2262   4.492   2.574   3.853
  752TIP3    H2 2263   4.591   2.657   3.775
  753TIP3   OH2 2264   3.257   1.956   4.522
  753TIP3    H1 2265   3.338   1.905   4.532
  753TIP3    H2 2266   3.187   1.896   4.550
  754TIP3   OH2 2267   0.900   1.490   2.479
  754TIP3    H1 2268   0.835   1.424   2.503
  754TIP3    H2 2269   0.868   1.526   2.397
  755TIP3   OH2 2270   4.436   1.076   0.974
  755TIP3    H1 2271   4.532   1.080   0.965
  755TIP3    H2 2272   4.404   1.134   0.906
  756TIP3   OH2 2273   1.387   3.772   1.452
  756TIP3    H1 2274   1.412   3.699   1.395
  756TIP3    H2 2275   1.354   3.839   1.392
  757TIP3   OH2 2276   5.274   5.911   3.716
  757TIP3    H1 2277   5.182   5.915   3.741
  757TIP3    H2 2278   5.300   6.002   3.706
  758TIP3   OH2 2279   4.167   5.725   2.245
  758TIP3    H1 2280   4.158   5.750   2.153
  758TIP3    H2 2281   4.178   5.808   2.291
  759TIP3   OH2 2282   0.770   1.830   4.717
  759TIP3    H1 2283   0.734   1.753   4.761
  759TIP3    H2 2284   0.762   1.900   4.781
  760TIP3   OH2 2285   2.120   1.549   1.667
  760TIP3    H1 2286   2.212   1.528   1.652
  760TIP3    H2 2287   2.077   1.464   1.673
  761TIP3   OH2 2288   1.089   2.577   0.661
  761TIP3    H1 2289   1.133   2.596   0.578
  761TIP3    H2 2290   1.002   2.547   0.635
  762TIP3   OH2 2291   3.152   2.966   0.578
  762TIP3    H1 2292   3.241   2.934   0.595
  762TIP3    H2 2293   3.155   2.997   0.487
  763TIP3   OH2 2294   3.997   4.469   4.764
  763TIP3    H1 2295   4.034   4.469   4.675
  763TIP3    H2 2296   4.021   4.384   4.800
  764TIP3   OH2 2297   5.987   5.564   3.641
  764TIP3    H1 2298   5.927   5.495   3.668
  764TIP3    H2 2299   5.961   5.586   3.552
  765TIP3   OH2 2300   2.351   3.814   0.066
  765TIP3    H1 2301   2.397   3.741   0.107
  765TIP3    H2 2302   2.357   3.885   0.131
  766TIP3   OH2 2303   1.101   0.325   2.472
  766TIP3    H1 2304   1.070   0.346   2.384
  766TIP3    H2 2305   1.168   0.391   2.490
  767TIP3   OH2 2306   5.700   1.709   2.419
  767TIP3    H1 2307   5.763   1.641   2.395
  767TIP3    H2 2308   5.616   1.677   2.385
  768TIP3   OH2 2309   0.047   1.254   4.243
  768TIP3    H1 2310   0.142   1.265   4.245
  768TIP3    H2 2311   0.030   1.206   4.161
  769TIP3   OH2 2312   3.749   3.316   2.689
  769TIP3    H1 2313   3.721   3.407   2.687
  769TIP3    H2 2314   3.678   3.269   2.732
  770TIP3   OH2 2315   1.079   5.694   1.108
  770TIP3    H1 2316   1.019   5.765   1.083
  770TIP3    H2 2317   1.124   5.727   1.186
  771TIP3   OH2 2318   5.791   5.389   3.833
  771TIP3    H1 2319   5.735   5.420   3.762
  771TIP3    H2 2320   5.730   5.364   3.902
  772TIP3   OH2 2321   3.085   1.815   3.649
  772TIP3    H1 2322   3.064   1.906   3.632
  772TIP3    H2 2323   3.173   1.817   3.686
  773TIP3   OH2 2324   1.006   1.673   0.545
  773TIP3    H1 2325   1.021   1.762   0.575
  773TIP3    H2 2326   0.936   1.681   0.480
  774TIP3   OH2 2327   5.525   4.234   1.767
  774TIP3    H1 2328   5.432   4.225   1.789
  774TIP3    H2 2329   5.562   4.148   1.785
  775TIP3   OH2 2330   4.532   5.819   1.623
  775TIP3    H1 2331   4.593   5.883   1.660
  775TIP3    H2 2332   4.587   5.765   1.566
  776TIP3   OH2 2333   1.463   5.689   1.560
  776TIP3    H1 2334   1.397   5.756   1.581
  776TIP3    H2 2335   1.414   5.607   1.559
  777TIP3   OH2 2336   0.784   1.369   0.455
  777TIP3    H1 2337   0.758   1.328   0.373
  777TIP3    H2 2338   0.817   1.455   0.430
  778TIP3   OH2 2339   5.124   2.301   3.333
  778TIP3    H1 2340   5.045   2.345   3.361
  778TIP3    H2 2341   5.195   2.344   3.381
  779TIP3   OH2 2342   5.207   4.057   1.102
  779TIP3    H1 2343   5.260   4.104   1.038
  779TIP3    H2 2344   5.241   3.967   1.100
  780TIP3   OH2 2345   0.612   5.630   0.044
  780TIP3    H1 2346   0.671   5.705   0.041
  780TIP3    H2 2347   0.604   5.602  -0.048
  781TIP3   OH2 2348   2.202   0.325   1.915
  781TIP3    H1 2349   2.289   0.365   1.915
  781TIP3    H2 2350   2.203   0.266   1.840
  782TIP3   OH2 2351   4.621   3.186   0.904
  782TIP3    H1 2352   4.681   3.253   0.872
  782TIP3    H2 2353   4.675   3.107   0.912
  783TIP3   OH2 2354   2.602   2.283   4.560
  783TIP3    H1 2355   2.674   2.296   4.622
  783TIP3    H2 2356   2.529   2.254   4.613
  784TIP3   OH2 2357   3.610   3.698   1.042
  784TIP3    H1 2358   3.705   3.700   1.031
  784TIP3    H2 2359   3.587   3.788   1.067
  785TIP3   OH2 2360   1.114   2.201   0.230
  785TIP3    H1 2361   1.182   2.192   0.163
  785TIP3    H2 2362   1.111   2.115   0.272
  786TIP3   OH2 2363   5.947   4.244   1.301
  786TIP3    H1 2364   5.878   4.279   1.358
  786TIP3    H2 2365   5.909   4.165   1.264
  787TIP3   OH2 2366   1.757   1.184   3.081
  787TIP3    H1 2367   1.796   1.269   3.061
  787TIP3    H2 2368   1.663   1.196   3.066
  788TIP3   OH2 2369   1.081   2.982   0.739
  788TIP3    H1 2370   1.031   2.997   0.819
  788TIP3    H2 2371   1.160   3.035   0.749
  789TIP3   OH2 2372   0.869   5.806   4.420
  789TIP3    H1 2373   0.773   5.800   4.416
  789TIP3    H2 2374   0.899   5.721   4.390
  790TIP3   OH2 2375   0.884   3.191   2.467
  790TIP3    H1 2376   0.906   3.233   2.383
  790TIP3    H2 2377   0.788   3.191   2.468
  791TIP3   OH2 2378   1.723   0.341   4.857
  791TIP3    H1 2379   1.813   0.327   4.887
  791TIP3    H2 2380   1.709   0.435   4.866
  792TIP3   OH2 2381   5.198   3.529   2.990
  792TIP3    H1 2382   5.246   3.480   3.057
  792TIP3    H2 2383   5.142   3.588   3.039
  793TIP3   OH2 2384   1.232   2.203   1.762
  793TIP3    H1 2385   1.188   2.288   1.763
  793TIP3    H2 2386   1.175   2.147   1.710
  794TIP3   OH2 2387   4.532   1.535   0.698
  794TIP3    H1 2388   4.598   1.471   0.727
  794TIP3    H2 2389   4.560   1.560   0.610
  795TIP3   OH2 2390   5.765   5.225   3.359
  795TIP3    H1 2391   5.709   5.283   3.307
  795TIP3    H2 2392   5.741   5.243   3.450
  796TIP3   OH2 2393   0.576   5.911   2.779
  796TIP3    H1 2394   0.482   5.925   2.766
  796TIP3    H2 2395   0.613   5.999   2.774
  797TIP3   OH2 2396   4.957   2.124   1.993
  797TIP3    H1 2397   4.962   2.087   1.905
  797TIP3    H2 2398   5.047   2.149   2.015
  798TIP3   OH2 2399   1.726   0.948   4.815
  798TIP3    H1 2400   1.713   0.908   4.730
  798TIP3    H2 2401   1.820   0.963   4.821
  799TIP3   OH2 2402   3.441   0.196   3.083
  799TIP3    H1 2403   3.409   0.159   3.165
  799TIP3    H2 2404   3.376   0.170   3.017
  800TIP3   OH2 2405   0.302   1.809   5.048
  800TIP3    H1 2406   0.298   1.886   5.105
  800TIP3    H2 2407   0.238   1.748   5.086
  801TIP3   OH2 2408   4.538   3.474   0.335
  801TIP3    H1 2409   4.460   3.523   0.309
  801TIP3    H2 2410   4.527   3.460   0.429
  802TIP3   OH2 2411   6.300   3.290   2.247
  802TIP3    H1 2412   6.265   3.237   2.318
  802TIP3    H2 2413   6.312   3.228   2.175
  803TIP3   OH2 2414   6.167   5.387   4.039
  803TIP3    H1 2415   6.129   5.315   4.089
  803TIP3    H2 2416   6.109   5.462   4.057
  804TIP3   OH2 2417   5.277   1.676   4.081
  804TIP3    H1 2418   5.300   1.678   4.174
  804TIP3    H2 2419   5.322   1.600   4.046
  805TIP3   OH2 2420   2.446   2.032   0.417
  805TIP3    H1 2421   2.418   1.944   0.395
  805TIP3    H2 2422   2.506   2.057   0.347
  806TIP3   OH2 2423   2.916   4.105   4.885
  806TIP3    H1 2424   2.988   4.101   4.949
  806TIP3    H2 2425   2.923   4.022   4.837
  807TIP3   OH2 2426   0.111   2.628   1.898
  807TIP3    H1 2427   0.114   2.564   1.827
  807TIP3    H2 2428   0.109   2.575   1.978
  808TIP3   OH2 2429   5.706   0.388   2.573
  808TIP3    H1 2430   5.649   0.359   2.502
  808TIP3    H2 2431   5.653   0.449   2.624
  809TIP3   OH2 2432   2.806   5.803   2.023
  809TIP3    H1 2433   2.784   5.803   1.930
  809TIP3    H2 2434   2.862   5.879   2.035
  810TIP3   OH2 2435   0.016   0.628   1.505
  810TIP3    H1 2436   0.012   0.544   1.460
  810TIP3    H2 2437   0.097   0.625   1.556
  811TIP3   OH2 2438   1.811   2.533   0.987
  811TIP3    H1 2439   1.759   2.577   0.920
  811TIP3    H2 2440   1.864   2.603   1.026
  812TIP3   OH2 2441   0.465   3.096   1.665
  812TIP3    H1 2442   0.510   3.125   1.586
  812TIP3    H2 2443   0.407   3.168   1.688
  813TIP3   OH2 2444   3.353   0.191   1.683
  813TIP3    H1 2445   3.262   0.218   1.672
  813TIP3    H2 2446   3.360   0.168   1.776
  814TIP3   OH2 2447   5.189   2.325   3.922
  814TIP3    H1 2448   5.116   2.301   3.864
  814TIP3    H2 2449   5.154   2.314   4.010
  815TIP3   OH2 2450   3.031   2.021   1.242
  815TIP3    H1 2451   2.984   2.100   1.218
  815TIP3    H2 2452   2.970   1.950   1.224
  816TIP3   OH2 2453   5.631   3.364   3.713
  816TIP3    H1 2454   5.570   3.381   3.642
  816TIP3    H2 2455   5.666   3.450   3.736
  817TIP3   OH2 2456   3.036   2.174   0.919
  817TIP3    H1 2457   3.043   2.245   0.855
  817TIP3    H2 2458   3.117   2.124   0.910
  818TIP3   OH2 2459   5.022   5.203   1.638
  818TIP3    H1 2460   5.042   5.115   1.605
  818TIP3    H2 2461   4.935   5.222   1.601
  819TIP3   OH2 2462   4.972   1.977   0.435
  819TIP3    H1 2463   4.885   2.009   0.415
  819TIP3    H2 2464   5.022   2.055   0.458
  820TIP3   OH2 2465   1.408   4.725   0.950
  820TIP3    H1 2466   1.430   4.685   1.034
  820TIP3    H2 2467   1.484   4.777   0.927
  821TIP3   OH2 2468   0.481   0.211   4.539
  821TIP3    H1 2469   0.566   0.218   4.582
  821TIP3    H2 2470   0.417   0.231   4.608
  822TIP3   OH2 2471   3.861   6.015   1.582
  822TIP3    H1 2472   3.816   5.930   1.586
  822TIP3    H2 2473   3.942   6.000   1.631
  823TIP3   OH2 2474   6.143   0.063   5.094
  823TIP3    H1 2475   6.215   0.081   5.154
  823TIP3    H2 2476   6.163  -0.023   5.058
  824TIP3   OH2 2477   4.854   3.911   0.114
  824TIP3    H1 2478   4.859   3.900   0.019
  824TIP3    H2 2479   4.823   3.827   0.147
  825TIP3   OH2 2480   5.378   0.898   1.197
  825TIP3    H1 2481   5.464   0.909   1.237
  825TIP3    H2 2482   5.363   0.803   1.200
  826TIP3   OH2 2483   6.009   1.644   3.677
  826TIP3    H1 2484   5.928   1.670   3.633
  826TIP3    H2 2485   6.072   1.712   3.655
  827TIP3   OH2 2486   2.534   1.284   2.514
  827TIP3    H1 2487   2.534   1.369   2.558
  827TIP3    H2 2488   2.478   1.298   2.437
  828TIP3   OH2 2489   4.508   3.913   0.978
  828TIP3    H1 2490   4.452   3.897   0.903
  828TIP3    H2 2491   4.518   3.827   1.019
  829TIP3   OH2 2492   3.833   3.877   1.437
  829TIP3    H1 2493   3.769   3.863   1.507
  829TIP3    H2 2494   3.801   3.825   1.364
  830TIP3   OH2 2495   5.350   3.692   3.961
  830TIP3    H1 2496   5.339   3.782   3.991
  830TIP3    H2 2497   5.434   3.664   3.998
  831TIP3   OH2 2498   0.860   1.112   2.561
  831TIP3    H1 2499   0.785   1.170   2.576
  831TIP3    H2 2500   0.932   1.153   2.610
  832TIP3   OH2 2501   6.259   0.497   2.888
  832TIP3    H1 2502   6.293   0.504   2.977
  832TIP3    H2 2503   6.326   0.448   2.840
  833TIP3   OH2 2504   2.154   5.625   2.192
  833TIP3    H1 2505   2.245   5.614   2.221
  833TIP3    H2 2506   2.102   5.601   2.269
  834TIP3   OH2 2507   1.071   5.394   2.941
  834TIP3    H1 2508   1.101   5.362   3.026
  834TIP3    H2 2509   1.023   5.474   2.961
  835TIP3   OH2 2510   6.179   1.066   2.730
  835TIP3    H1 2511   6.205   1.096   2.817
  835TIP3    H2 2512   6.242   1.105   2.670
  836TIP3   OH2 2513   2.633   2.512   2.684
  836TIP3    H1 2514   2.718   2.468   2.679
  836TIP3    H2 2515   2.573   2.445   2.713
  837TIP3   OH2 2516   0.059   3.358   5.053
  837TIP3    H1 2517   0.074   3.394   5.141
  837TIP3    H2 2518  -0.035   3.340   5.051
  838TIP3   OH2 2519   4.690   0.191   3.131
  838TIP3    H1 2520   4.749   0.116   3.127
  838TIP3    H2 2521   4.643   0.181   3.214
  839TIP3   OH2 2522   2.713   4.126   4.182
  839TIP3    H1 2523   2.762   4.203   4.212
  839TIP3    H2 2524   2.732   4.121   4.089
  840TIP3   OH2 2525   2.229   3.576   2.578
  840TIP3    H1 2526   2.319   3.593   2.606
  840TIP3    H2 2527   2.209   3.489   2.614
  841TIP3   OH2 2528   5.905   1.158   2.213
  841TIP3    H1 2529   5.931   1.074   2.176
  841TIP3    H2 2530   5.818   1.143   2.249
  842TIP3   OH2 2531   2.154   5.632   1.799
  842TIP3    H1 2532   2.163   5.681   1.717
  842TIP3    H2 2533   2.244   5.607   1.822
  843TIP3   OH2 2534   2.194   1.331   5.144
  843TIP3    H1 2535   2.193   1.335   5.048
  843TIP3    H2 2536   2.183   1.238   5.164
  844TIP3   OH2 2537   3.171   0.334   1.470
  844TIP3    H1 2538   3.103   0.308   1.408
  844TIP3    H2 2539   3.243   0.367   1.415
  845TIP3   OH2 2540   4.736   3.096   3.891
  845TIP3    H1 2541   4.793   3.054   3.955
  845TIP3    H2 2542   4.668   3.031   3.872
  846TIP3   OH2 2543   5.046   1.218   4.138
  846TIP3    H1 2544   5.077   1.248   4.223
  846TIP3    H2 2545   5.116   1.161   4.105
  847TIP3   OH2 2546   0.218   3.543   2.762
  847TIP3    H1 2547   0.147   3.564   2.702
  847TIP3    H2 2548   0.261   3.627   2.779
  848TIP3   OH2 2549   4.384   3.795   1.253
  848TIP3    H1 2550   4.464   3.819   1.301
  848TIP3    H2 2551   4.354   3.715   1.296
  849TIP3   OH2 2552   4.146   3.987   2.963
  849TIP3    H1 2553   4.223   3.953   3.009
  849TIP3    H2 2554   4.181   4.059   2.910
  850TIP3   OH2 2555   4.253   2.870   5.071
  850TIP3    H1 2556   4.331   2.842   5.118
  850TIP3    H2 2557   4.202   2.919   5.136
  851TIP3   OH2 2558   5.855   0.038   0.920
  851TIP3    H1 2559   5.811  -0.030   0.972
  851TIP3    H2 2560   5.859   0.114   0.979
  852TIP3   OH2 2561   5.369   0.051   2.428
  852TIP3    H1 2562   5.430   0.026   2.498
  852TIP3    H2 2563   5.286   0.066   2.474
  853TIP3   OH2 2564   4.004   1.039   1.092
  853TIP3    H1 2565   4.030   1.116   1.142
  853TIP3    H2 2566   4.008   1.067   1.000
  854TIP3   OH2 2567   3.981   4.292   1.836
  854TIP3    H1 2568   4.008   4.256   1.752
  854TIP3    H2 2569   3.893   4.257   1.851
  855TIP3   OH2 2570   0.923   4.706   4.032
  855TIP3    H1 2571   0.856   4.655   4.078
  855TIP3    H2 2572   1.004   4.686   4.078
  856TIP3   OH2 2573   1.183   4.793   4.186
  856TIP3    H1 2574   1.121   4.821   4.253
  856TIP3    H2 2575   1.266   4.832   4.213
  857TIP3   OH2 2576   4.097   5.281   1.349
  857TIP3    H1 2577   4.011   5.312   1.377
  857TIP3    H2 2578   4.114   5.328   1.267
  858TIP3   OH2 2579   4.440   1.221   1.907
  858TIP3    H1 2580   4.364   1.194   1.959
  858TIP3    H2 2581   4.425   1.181   1.821
  859TIP3   OH2 2582   0.895   1.243   1.308
  859TIP3    H1 2583   0.826   1.210   1.251
  859TIP3    H2 2584   0.922   1.167   1.361
  860TIP3   OH2 2585   0.389   1.783   2.961
  860TIP3    H1 2586   0.445   1.716   3.000
  860TIP3    H2 2587   0.445   1.861   2.958
  861TIP3   OH2 2588   1.243   3.242   2.164
  861TIP3    H1 2589   1.338   3.238   2.162
  861TIP3    H2 2590   1.216   3.166   2.215
  862TIP3   OH2 2591   2.475   3.521   0.906
  862TIP3    H1 2592   2.431   3.531   0.991
  862TIP3    H2 2593   2.544   3.586   0.907
  863TIP3   OH2 2594   5.031   0.773   0.078
  863TIP3    H1 2595   4.993   0.781  -0.010
  863TIP3    H2 2596   5.012   0.683   0.104
  864TIP3   OH2 2597   3.194   4.977   1.637
  864TIP3    H1 2598   3.275   5.007   1.596
  864TIP3    H2 2599   3.166   4.903   1.583
  865TIP3   OH2 2600   0.623   2.804   5.125
  865TIP3    H1 2601   0.583   2.808   5.038
  865TIP3    H2 2602   0.714   2.781   5.108
  866TIP3   OH2 2603   1.619   4.509   5.027
  866TIP3    H1 2604   1.639   4.598   4.999
  866TIP3    H2 2605   1.658   4.454   4.959
  867TIP3   OH2 2606   5.439   4.340   0.574
  867TIP3    H1 2607   5.483   4.305   0.652
  867TIP3    H2 2608   5.426   4.432   0.594
  868TIP3   OH2 2609   0.517   2.854   4.777
  868TIP3    H1 2610   0.428   2.828   4.802
  868TIP3    H2 2611   0.517   2.950   4.785
  869TIP3   OH2 2612   5.077   5.087   0.722
  869TIP3    H1 2613   5.037   5.036   0.792
  869TIP3    H2 2614   5.007   5.101   0.658
  870TIP3   OH2 2615   5.948   4.598   1.108
  870TIP3    H1 2616   6.041   4.586   1.093
  870TIP3    H2 2617   5.941   4.625   1.199
  871TIP3   OH2 2618   5.348   1.901   2.268
  871TIP3    H1 2619   5.329   1.955   2.191
  871TIP3    H2 2620   5.426   1.941   2.307
  872TIP3   OH2 2621   3.466   3.167   2.378
  872TIP3    H1 2622   3.487   3.260   2.380
  872TIP3    H2 2623   3.456   3.146   2.285
  873TIP3   OH2 2624   3.781   1.573   2.007
  873TIP3    H1 2625   3.823   1.491   2.033
  873TIP3    H2 2626   3.823   1.640   2.061
  874TIP3   OH2 2627   3.756   5.703   1.237
  874TIP3    H1 2628   3.691   5.750   1.186
  874TIP3    H2 2629   3.819   5.770   1.263
  875TIP3   OH2 2630   0.275   5.487   3.034
  875TIP3    H1 2631   0.240   5.430   2.966
  875TIP3    H2 2632   0.256   5.576   3.004
  876TIP3   OH2 2633   1.300   4.262   0.961
  876TIP3    H1 2634   1.330   4.171   0.953
  876TIP3    H2 2635   1.334   4.291   1.045
  877TIP3   OH2 2636   2.449   4.121   4.685
  877TIP3    H1 2637   2.499   4.071   4.749
  877TIP3    H2 2638   2.409   4.054   4.629
  878TIP3   OH2 2639   5.087   4.732   0.658
  878TIP3    H1 2640   5.101   4.689   0.573
  878TIP3    H2 2641   5.018   4.795   0.641
  879TIP3   OH2 2642   2.002   5.296   1.226
  879TIP3    H1 2643   1.932   5.323   1.167
  879TIP3    H2 2644   1.959   5.240   1.291
  880TIP3   OH2 2645   4.497   0.392   3.093
  880TIP3    H1 2646   4.405   0.371   3.076
  880TIP3    H2 2647   4.546   0.316   3.062
  881TIP3   OH2 2648   5.611   3.563   1.339
  881TIP3    H1 2649   5.527   3.561   1.383
  881TIP3    H2 2650   5.591   3.595   1.251
  882TIP3   OH2 2651   6.360   0.196   4.916
  882TIP3    H1 2652   6.359   0.203   5.011
  882TIP3    H2 2653   6.398   0.110   4.899
  883TIP3   OH2 2654   3.578   1.643   3.482
  883TIP3    H1 2655   3.600   1.571   3.422
  883TIP3    H2 2656   3.571   1.720   3.425
  884TIP3   OH2 2657   4.617   2.093   3.790
  884TIP3    H1 2658   4.536   2.113   3.836
  884TIP3    H2 2659   4.623   1.998   3.794
  885TIP3   OH2 2660   0.986   0.455   3.490
  885TIP3    H1 2661   1.022   0.456   3.401
  885TIP3    H2 2662   1.062   0.463   3.547
  886TIP3   OH2 2663   1.228   1.392   1.453
  886TIP3    H1 2664   1.242   1.389   1.358
  886TIP3    H2 2665   1.274   1.314   1.486
  887TIP3   OH2 2666   3.780   2.921   2.075
  887TIP3    H1 2667   3.865   2.878   2.074
  887TIP3    H2 2668   3.758   2.934   1.983
  888TIP3   OH2 2669   0.483   2.783   2.109
  888TIP3    H1 2670   0.471   2.857   2.049
  888TIP3    H2 2671   0.444   2.812   2.191
  889TIP3   OH2 2672   4.854   0.475   4.904
  889TIP3    H1 2673   4.835   0.394   4.951
  889TIP3    H2 2674   4.945   0.496   4.929
  890TIP3   OH2 2675   0.635   0.753   5.119
  890TIP3    H1 2676   0.540   0.753   5.104
  890TIP3    H2 2677   0.672   0.786   5.037
  891TIP3   OH2 2678   1.938   2.938   4.456
  891TIP3    H1 2679   1.888   2.892   4.523
  891TIP3    H2 2680   2.027   2.907   4.466
  892TIP3   OH2 2681   1.005   0.674   4.562
  892TIP3    H1 2682   1.095   0.646   4.578
  892TIP3    H2 2683   0.976   0.621   4.487
  893TIP3   OH2 2684   3.149   2.368   0.403
  893TIP3    H1 2685   3.070   2.408   0.366
  893TIP3    H2 2686   3.191   2.437   0.453
  894TIP3   OH2 2687   2.384   4.267   3.269
  894TIP3    H1 2688   2.313   4.238   3.212
  894TIP3    H2 2689   2.453   4.295   3.210
  895TIP3   OH2 2690   5.899   5.715   1.751
  895TIP3    H1 2691   5.869   5.738   1.839
  895TIP3    H2 2692   5.831   5.750   1.693
  896TIP3   OH2 2693   4.971   4.511   0.035
  896TIP3    H1 2694   4.984   4.417   0.052
  896TIP3    H2 2695   5.059   4.544   0.018
  897TIP3   OH2 2696   2.572   2.715   2.500
  897TIP3    H1 2697   2.608   2.639   2.546
  897TIP3    H2 2698   2.543   2.680   2.415
  898TIP3   OH2 2699   1.633   0.637   0.168
  898TIP3    H1 2700   1.567   0.569   0.151
  898TIP3    H2 2701   1.604   0.679   0.249
  899TIP3   OH2 2702   1.000   5.214   0.803
  899TIP3    H1 2703   0.990   5.308   0.818
  899TIP3    H2 2704   1.000   5.204   0.708
  900TIP3   OH2 2705   5.857   0.676   1.092
  900TIP3    H1 2706   5.858   0.759   1.044
  900TIP3    H2 2707   5.765   0.656   1.104
  901TIP3   OH2 2708   2.171   2.086   0.097
  901TIP3    H1 2709   2.091   2.035   0.114
  901TIP3    H2 2710   2.237   2.020   0.075
  902TIP3   OH2 2711   2.891   1.408   0.667
  902TIP3    H1 2712   2.897   1.504   0.674
  902TIP3    H2 2713   2.871   1.379   0.756
  903TIP3   OH2 2714   2.389   5.811   0.424
  903TIP3    H1 2715   2.440   5.730   0.428
  903TIP3    H2 2716   2.312   5.794   0.477
  904TIP3   OH2 2717   2.294   2.347   0.453
  904TIP3    H1 2718   2.313   2.321   0.543
  904TIP3    H2 2719   2.263   2.267   0.412
  905TIP3   OH2 2720   0.476   3.412   4.795
  905TIP3    H1 2721   0.516   3.441   4.712
  905TIP3    H2 2722   0.494   3.318   4.798
  906TIP3   OH2 2723   3.005   1.675   2.462
  906TIP3    H1 2724   2.959   1.661   2.379
  906TIP3    H2 2725   2.949   1.736   2.510
  907TIP3   OH2 2726   2.046   2.677   0.321
  907TIP3    H1 2727   2.090   2.616   0.262
  907TIP3    H2 2728   2.116   2.712   0.376
  908TIP3   OH2 2729   1.825   1.343   4.115
  908TIP3    H1 2730   1.746   1.372   4.162
  908TIP3    H2 2731   1.798   1.338   4.024
  909TIP3   OH2 2732   3.755   1.652   1.742
  909TIP3    H1 2733   3.742   1.746   1.755
  909TIP3    H2 2734   3.795   1.621   1.823
  910TIP3   OH2 2735   5.417   3.591   0.738
  910TIP3    H1 2736   5.498   3.586   0.789
  910TIP3    H2 2737   5.428   3.668   0.683
  911TIP3   OH2 2738   1.970   3.080   2.467
  911TIP3    H1 2739   2.053   3.073   2.420
  911TIP3    H2 2740   1.992   3.055   2.557
  912TIP3   OH2 2741   5.208   5.171   4.256
  912TIP3    H1 2742   5.149   5.239   4.223
  912TIP3    H2 2743   5.188   5.094   4.203
  913TIP3   OH2 2744   0.556   2.817   3.564
  913TIP3    H1 2745   0.627   2.853   3.510
  913TIP3    H2 2746   0.575   2.724   3.570
  914TIP3   OH2 2747   2.795   0.684   1.183
  914TIP3    H1 2748   2.743   0.764   1.170
  914TIP3    H2 2749   2.729   0.615   1.188
  915TIP3   OH2 2750   5.342   1.634   5.019
  915TIP3    H1 2751   5.422   1.673   4.984
  915TIP3    H2 2752   5.372   1.557   5.068
  916TIP3   OH2 2753   3.181   5.609   0.790
  916TIP3    H1 2754   3.264   5.644   0.759
  916TIP3    H2 2755   3.205   5.557   0.867
  917TIP3   OH2 2756   5.924   2.976   4.380
  917TIP3    H1 2757   5.964   2.920   4.448
  917TIP3    H2 2758   5.850   3.017   4.424
  918TIP3   OH2 2759   1.237   5.664   5.030
  918TIP3    H1 2760   1.223   5.758   5.019
  918TIP3    H2 2761   1.329   5.655   5.051
  919TIP3   OH2 2762   2.478   3.088   4.024
  919TIP3    H1 2763   2.463   3.169   4.072
  919TIP3    H2 2764   2.391   3.048   4.016
  920TIP3   OH2 2765   4.455   2.448   2.918
  920TIP3    H1 2766   4.371   2.469   2.877
  920TIP3    H2 2767   4.443   2.362   2.957
  921TIP3   OH2 2768   4.095   5.929   3.121
  921TIP3    H1 2769   4.135   6.000   3.170
  921TIP3    H2 2770   4.144   5.925   3.039
  922TIP3   OH2 2771   1.353   3.004   1.065
  922TIP3    H1 2772   1.301   3.083   1.074
  922TIP3    H2 2773   1.343   2.959   1.149
  923TIP3   OH2 2774   1.561   5.806   3.095
  923TIP3    H1 2775   1.632   5.866   3.118
  923TIP3    H2 2776   1.485   5.839   3.143
  924TIP3   OH2 2777   1.137   2.130   3.557
  924TIP3    H1 2778   1.080   2.093   3.625
  924TIP3    H2 2779   1.191   2.194   3.604
  925TIP3   OH2 2780   1.184   1.434   2.192
  925TIP3    H1 2781   1.178   1.527   2.173
  925TIP3    H2 2782   1.143   1.391   2.117
  926TIP3   OH2 2783   3.073   2.042   0.158
  926TIP3    H1 2784   3.159   2.082   0.148
  926TIP3    H2 2785   3.088   1.948   0.144
  927TIP3   OH2 2786   1.606   1.501   0.880
  927TIP3    H1 2787   1.533   1.439   0.885
  927TIP3    H2 2788   1.675   1.454   0.833
  928TIP3   OH2 2789   3.711   5.807   3.736
  928TIP3    H1 2790   3.617   5.796   3.751
  928TIP3    H2 2791   3.753   5.772   3.815
  929TIP3   OH2 2792   3.903   0.612   0.060
  929TIP3    H1 2793   3.975   0.580   0.114
  929TIP3    H2 2794   3.824   0.581   0.105
  930TIP3   OH2 2795   4.452   5.847   0.110
  930TIP3    H1 2796   4.357   5.845   0.120
  930TIP3    H2 2797   4.472   5.773   0.053
  931TIP3   OH2 2798   1.502   1.375   0.310
  931TIP3    H1 2799   1.566   1.304   0.319
  931TIP3    H2 2800   1.417   1.331   0.317
  932TIP3   OH2 2801   2.452   0.721   4.947
  932TIP3    H1 2802   2.429   0.691   4.859
  932TIP3    H2 2803   2.519   0.659   4.977
  933TIP3   OH2 2804   2.270   4.642   0.016
  933TIP3    H1 2805   2.239   4.551   0.014
  933TIP3    H2 2806   2.228   4.680   0.094
  934TIP3   OH2 2807   3.264   2.012   1.082
  934TIP3    H1 2808   3.334   1.974   1.135
  934TIP3    H2 2809   3.187   2.012   1.139
  935TIP3   OH2 2810   3.053   4.148   0.185
  935TIP3    H1 2811   3.049   4.159   0.280
  935TIP3    H2 2812   3.075   4.055   0.173
  936TIP3   OH2 2813   3.652   3.579   2.702
  936TIP3    H1 2814   3.691   3.649   2.649
  936TIP3    H2 2815   3.559   3.602   2.707
  937TIP3   OH2 2816   0.002   2.216   0.897
  937TIP3    H1 2817   0.096   2.227   0.889
  937TIP3    H2 2818  -0.020   2.150   0.831
  938TIP3   OH2 2819   4.883   0.017   2.887
  938TIP3    H1 2820   4.827   0.021   2.964
  938TIP3    H2 2821   4.909   0.108   2.872
  939TIP3   OH2 2822   1.525   1.928   4.134
  939TIP3    H1 2823   1.471   2.000   4.168
  939TIP3    H2 2824   1.461   1.863   4.104
  940TIP3   OH2 2825   5.293   2.004   3.266
  940TIP3    H1 2826   5.219   2.053   3.302
  940TIP3    H2 2827   5.353   1.995   3.340
  941TIP3   OH2 2828   6.291   0.042   0.268
  941TIP3    H1 2829   6.249   0.052   0.354
  941TIP3    H2 2830   6.296   0.131   0.234
  942TIP3   OH2 2831   2.781   2.223   4.348
  942TIP3    H1 2832   2.846   2.289   4.372
  942TIP3    H2 2833   2.708   2.239   4.408
  943TIP3   OH2 2834   3.766   1.604   4.613
  943TIP3    H1 2835   3.862   1.607   4.623
  943TIP3    H2 2836   3.750   1.644   4.528
  944TIP3   OH2 2837   6.301   3.817   0.010
  944TIP3    H1 2838   6.253   3.735   0.017
  944TIP3    H2 2839   6.386   3.792  -0.026
  945TIP3   OH2 2840   3.554   2.658   4.648
  945TIP3    H1 2841   3.536   2.604   4.725
  945TIP3    H2 2842   3.573   2.745   4.683
  946TIP3   OH2 2843   3.273   3.173   0.992
  946TIP3    H1 2844   3.228   3.199   0.912
  946TIP3    H2 2845   3.355   3.222   0.990
  947TIP3   OH2 2846   3.556   0.168   3.861
  947TIP3    H1 2847   3.605   0.154   3.779
  947TIP3    H2 2848   3.551   0.081   3.900
  948TIP3   OH2 2849   3.094   2.779   0.303
  948TIP3    H1 2850   3.140   2.860   0.281
  948TIP3    H2 2851   3.017   2.808   0.352
  949TIP3   OH2 2852   5.459   5.400   4.812
  949TIP3    H1 2853   5.474   5.386   4.905
  949TIP3    H2 2854   5.364   5.405   4.803
  950TIP3   OH2 2855   6.020   5.212   3.799
  950TIP3    H1 2856   5.939   5.258   3.778
  950TIP3    H2 2857   6.070   5.274   3.853
  951TIP3   OH2 2858   4.010   5.257   0.161
  951TIP3    H1 2859   3.983   5.309   0.236
  951TIP3    H2 2860   3.996   5.166   0.187
  952TIP3   OH2 2861   6.354   3.453   3.660
  952TIP3    H1 2862   6.431   3.431   3.713
  952TIP3    H2 2863   6.293   3.493   3.723
  953TIP3   OH2 2864   3.245   5.288   1.813
  953TIP3    H1 2865   3.330   5.264   1.848
  953TIP3    H2 2866   3.264   5.327   1.728
  954TIP3   OH2 2867   3.149   2.570   4.072
  954TIP3    H1 2868   3.126   2.580   3.980
  954TIP3    H2 2869   3.073   2.604   4.119
  955TIP3   OH2 2870   1.271   3.063   1.426
  955TIP3    H1 2871   1.213   3.129   1.463
  955TIP3    H2 2872   1.214   3.010   1.370
  956TIP3   OH2 2873   4.418   4.020   5.189
  956TIP3    H1 2874   4.468   4.084   5.238
  956TIP3    H2 2875   4.366   4.072   5.127
  957TIP3   OH2 2876   3.735   1.249   4.019
  957TIP3    H1 2877   3.687   1.167   4.012
  957TIP3    H2 2878   3.827   1.224   4.010
  958TIP3   OH2 2879   1.196   1.473   0.717
  958TIP3    H1 2880   1.180   1.430   0.633
  958TIP3    H2 2881   1.189   1.567   0.697
  959TIP3   OH2 2882   5.335   4.290   1.418
  959TIP3    H1 2883   5.424   4.323   1.430
  959TIP3    H2 2884   5.345   4.195   1.417
  960TIP3   OH2 2885   0.754   1.743   1.407
  960TIP3    H1 2886   0.766   1.654   1.373
  960TIP3    H2 2887   0.693   1.784   1.346
  961TIP3   OH2 2888   1.362   4.294   2.589
  961TIP3    H1 2889   1.355   4.242   2.509
  961TIP3    H2 2890   1.310   4.373   2.572
  962TIP3   OH2 2891   2.484   1.258   1.106
  962TIP3    H1 2892   2.452   1.286   1.021
  962TIP3    H2 2893   2.579   1.270   1.102
  963TIP3   OH2 2894   2.889   2.919   0.407
  963TIP3    H1 2895   2.826   2.867   0.457
  963TIP3    H2 2896   2.858   3.009   0.417
  964TIP3   OH2 2897   4.547   3.263   4.713
  964TIP3    H1 2898   4.546   3.311   4.630
  964TIP3    H2 2899   4.559   3.330   4.780
  965TIP3   OH2 2900   3.758   4.375   1.537
  965TIP3    H1 2901   3.790   4.305   1.480
  965TIP3    H2 2902   3.716   4.437   1.478
  966TIP3   OH2 2903   4.151   3.423   4.542
  966TIP3    H1 2904   4.186   3.417   4.631
  966TIP3    H2 2905   4.126   3.515   4.533
  967TIP3   OH2 2906   2.609   3.059   5.089
  967TIP3    H1 2907   2.647   3.094   5.009
  967TIP3    H2 2908   2.588   2.968   5.068
  968TIP3   OH2 2909   5.523   2.209   3.508
  968TIP3    H1 2910   5.474   2.127   3.504
  968TIP3    H2 2911   5.460   2.277   3.485
  969TIP3   OH2 2912   4.837   1.158   3.437
  969TIP3    H1 2913   4.867   1.133   3.349
  969TIP3    H2 2914   4.773   1.091   3.461
  970TIP3   OH2 2915   0.987   4.113   3.589
  970TIP3    H1 2916   1.032   4.081   3.668
  970TIP3    H2 2917   1.034   4.072   3.517
  971TIP3   OH2 2918   3.291   0.403   4.080
  971TIP3    H1 2919   3.380   0.369   4.073
  971TIP3    H2 2920   3.236   0.330   4.050
  972TIP3   OH2 2921   2.799   4.257   1.064
  972TIP3    H1 2922   2.752   4.312   1.126
  972TIP3    H2 2923   2.759   4.171   1.073
  973TIP3   OH2 2924   5.254   4.852   0.892
  973TIP3    H1 2925   5.231   4.782   0.831
  973TIP3    H2 2926   5.225   4.932   0.849
  974TIP3   OH2 2927   1.494   3.462   3.221
  974TIP3    H1 2928   1.507   3.471   3.316
  974TIP3    H2 2929   1.573   3.418   3.190
  975TIP3   OH2 2930   3.909   2.772   0.346
  975TIP3    H1 2931   3.959   2.810   0.418
  975TIP3    H2 2932   3.953   2.689   0.327
  976TIP3   OH2 2933   4.916   2.464   1.072
  976TIP3    H1 2934   4.910   2.376   1.035
  976TIP3    H2 2935   4.842   2.469   1.133
  977TIP3   OH2 2936   4.252   0.320   4.889
  977TIP3    H1 2937   4.289   0.244   4.845
  977TIP3    H2 2938   4.283   0.312   4.980
  978TIP3   OH2 2939   6.176   5.790   3.127
  978TIP3    H1 2940   6.160   5.734   3.052
  978TIP3    H2 2941   6.139   5.875   3.103
  979TIP3   OH2 2942   1.903   4.503   1.029
  979TIP3    H1 2943   1.827   4.487   1.086
  979TIP3    H2 2944   1.901   4.597   1.013
  980TIP3   OH2 2945   3.400   2.391   2.929
  980TIP3    H1 2946   3.376   2.467   2.982
  980TIP3    H2 2947   3.485   2.364   2.962
  981TIP3   OH2 2948   1.906   2.873   0.155
  981TIP3    H1 2949   1.977   2.818   0.187
  981TIP3    H2 2950   1.884   2.836   0.069
  982TIP3   OH2 2951   1.136   5.140   1.119
  982TIP3    H1 2952   1.083   5.151   1.198
  982TIP3    H2 2953   1.087   5.077   1.066
  983TIP3   OH2 2954   2.207   0.263   4.901
  983TIP3    H1 2955   2.287   0.263   4.954
  983TIP3    H2 2956   2.237   0.246   4.812
  984TIP3   OH2 2957   0.251   2.118   2.880
  984TIP3    H1 2958   0.227   2.167   2.959
  984TIP3    H2 2959   0.168   2.105   2.835
  985TIP3   OH2 2960   0.679   2.252   1.699
  985TIP3    H1 2961   0.671   2.208   1.784
  985TIP3    H2 2962   0.728   2.332   1.718
  986TIP3   OH2 2963   1.853   3.284   5.059
  986TIP3    H1 2964   1.767   3.309   5.091
  986TIP3    H2 2965   1.904   3.365   5.061
  987TIP3   OH2 2966   1.372   5.913   2.558
  987TIP3    H1 2967   1.452   5.874   2.594
  987TIP3    H2 2968   1.374   6.004   2.588
  988TIP3   OH2 2969   1.272   3.133   2.915
  988TIP3    H1 2970   1.240   3.207   2.863
  988TIP3    H2 2971   1.326   3.083   2.855
  989TIP3   OH2 2972   4.733   5.498   3.974
  989TIP3    H1 2973   4.733   5.407   3.947
  989TIP3    H2 2974   4.797   5.540   3.916
  990TIP3   OH2 2975   0.604   5.595   1.309
  990TIP3    H1 2976   0.510   5.616   1.311
  990TIP3    H2 2977   0.637   5.642   1.233
  991TIP3   OH2 2978   2.127   4.340   3.401
  991TIP3    H1 2979   2.059   4.314   3.464
  991TIP3    H2 2980   2.079   4.364   3.322
  992TIP3   OH2 2981   2.156   5.979   2.286
  992TIP3    H1 2982   2.119   5.942   2.366
  992TIP3    H2 2983   2.147   5.909   2.222
  993TIP3   OH2 2984   4.381   4.441   1.768
  993TIP3    H1 2985   4.474   4.463   1.777
  993TIP3    H2 2986   4.335   4.513   1.812
  994TIP3   OH2 2987   4.186   3.292   4.885
  994TIP3    H1 2988   4.193   3.372   4.937
  994TIP3    H2 2989   4.270   3.247   4.899
  995TIP3   OH2 2990   5.925   3.705   2.049
  995TIP3    H1 2991   5.998   3.643   2.055
  995TIP3    H2 2992   5.850   3.657   2.083
  996TIP3   OH2 2993   2.033   1.682   0.302
  996TIP3    H1 2994   2.057   1.631   0.379
  996TIP3    H2 2995   2.060   1.771   0.323
  997TIP3   OH2 2996   0.141   4.071   1.213
  997TIP3    H1 2997   0.101   3.987   1.233
  997TIP3    H2 2998   0.172   4.104   1.298
  998TIP3   OH2 2999   4.709   4.766   0.883
  998TIP3    H1 3000   4.734   4.727   0.967
  998TIP3    H2 3001   4.699   4.859   0.901
  999TIP3   OH2 3002   2.658   0.591   5.091
  999TIP3    H1 3003   2.632   0.582   5.183
  999TIP3    H2 3004   2.753   0.581   5.091
 1000TIP3   OH2 3005   1.486   1.709   3.255
 1000TIP3    H1 3006   1.463   1.718   3.163
 1000TIP3    H2 3007   1.582   1.715   3.256
 1001TIP3   OH2 3008   2.610   3.386   1.714
 1001TIP3    H1 3009   2.616   3.293   1.735
 1001TIP3    H2 3010   2.669   3.398   1.639
 1002TIP3   OH2 3011   3.556   5.257   4.371
 1002TIP3    H1 3012   3.626   5.255   4.306
 1002TIP3    H2 3013   3.478   5.281   4.321
 1003TIP3   OH2 3014   5.405   4.912   3.569
 1003TIP3    H1 3015   5.420   4.868   3.485
 1003TIP3    H2 3016   5.360   4.993   3.546
 1004TIP3   OH2 3017   1.480   5.267   0.752
 1004TIP3    H1 3018   1.488   5.173   0.767
 1004TIP3    H2 3019   1.510   5.279   0.662
 1005TIP3   OH2 3020   4.496   2.260   2.586
 1005TIP3    H1 3021   4.458   2.347   2.583
 1005TIP3    H2 3022   4.591   2.275   2.590
 1006TIP3   OH2 3023   4.232   3.957   3.254
 1006TIP3    H1 3024   4.191   3.872   3.268
 1006TIP3    H2 3025   4.287   3.971   3.331
 1007TIP3   OH2 3026   5.758   4.595   0.371
 1007TIP3    H1 3027   5.757   4.679   0.325
 1007TIP3    H2 3028   5.815   4.611   0.446
 1008TIP3   OH2 3029   2.295   2.547   2.746
 1008TIP3    H1 3030   2.365   2.485   2.725
 1008TIP3    H2 3031   2.257   2.570   2.662
 1009TIP3   OH2 3032   3.713   5.636   0.620
 1009TIP3    H1 3033   3.682   5.675   0.702
 1009TIP3    H2 3034   3.641   5.648   0.558
 1010TIP3   OH2 3035   4.120   1.279   1.473
 1010TIP3    H1 3036   4.119   1.361   1.523
 1010TIP3    H2 3037   4.027   1.260   1.457
 1011TIP3   OH2 3038   0.995   3.768   0.224
 1011TIP3    H1 3039   0.962   3.839   0.169
 1011TIP3    H2 3040   0.952   3.689   0.191
 1012TIP3   OH2 3041   0.320   3.020   4.485
 1012TIP3    H1 3042   0.325   2.941   4.538
 1012TIP3    H2 3043   0.256   2.999   4.417
 1013TIP3   OH2 3044   0.156   3.808   0.413
 1013TIP3    H1 3045   0.244   3.807   0.450
 1013TIP3    H2 3046   0.166   3.855   0.330
 1014TIP3   OH2 3047   2.642   1.000   0.122
 1014TIP3    H1 3048   2.692   1.078   0.145
 1014TIP3    H2 3049   2.643   0.999   0.026
 1015TIP3   OH2 3050   0.083   0.319   3.441
 1015TIP3    H1 3051   0.130   0.398   3.414
 1015TIP3    H2 3052   0.006   0.352   3.486
 1016TIP3   OH2 3053   4.508   0.761   5.160
 1016TIP3    H1 3054   4.518   0.749   5.065
 1016TIP3    H2 3055   4.501   0.672   5.194
 1017TIP3   OH2 3056   5.950   0.308   1.714
 1017TIP3    H1 3057   5.998   0.233   1.751
 1017TIP3    H2 3058   5.869   0.311   1.765
 1018TIP3   OH2 3059   5.721   5.358   2.097
 1018TIP3    H1 3060   5.641   5.328   2.139
 1018TIP3    H2 3061   5.784   5.368   2.168
 1019TIP3   OH2 3062   1.443   2.172   0.876
 1019TIP3    H1 3063   1.387   2.095   0.882
 1019TIP3    H2 3064   1.505   2.152   0.806
 1020TIP3   OH2 3065   0.220   4.396   3.810
 1020TIP3    H1 3066   0.197   4.434   3.726
 1020TIP3    H2 3067   0.223   4.470   3.870
 1021TIP3   OH2 3068   6.182   2.730   0.302
 1021TIP3    H1 3069   6.134   2.797   0.350
 1021TIP3    H2 3070   6.220   2.675   0.370
 1022TIP3   OH2 3071   0.069   5.524   3.567
 1022TIP3    H1 3072  -0.003   5.471   3.533
 1022TIP3    H2 3073   0.126   5.537   3.491
 1023TIP3   OH2 3074   0.938   1.787   2.345
 1023TIP3    H1 3075   0.864   1.730   2.367
 1023TIP3    H2 3076   0.899   1.856   2.291
 1024TIP3   OH2 3077   2.495   5.026   0.030
 1024TIP3    H1 3078   2.580   5.053  -0.005
 1024TIP3    H2 3079   2.512   5.008   0.123
 1025TIP3   OH2 3080   6.059   5.945   4.699
 1025TIP3    H1 3081   6.075   6.009   4.629
 1025TIP3    H2 3082   5.964   5.944   4.710
 1026TIP3   OH2 3083   0.106   5.984   0.173
 1026TIP3    H1 3084   0.159   5.906   0.190
 1026TIP3    H2 3085   0.017   5.957   0.195
 1027TIP3   OH2 3086   4.792   3.525   2.975
 1027TIP3    H1 3087   4.728   3.456   2.991
 1027TIP3    H2 3088   4.847   3.526   3.053
 1028TIP3   OH2 3089   4.800   3.331   0.374
 1028TIP3    H1 3090   4.721   3.277   0.372
 1028TIP3    H2 3091   4.769   3.418   0.401
 1029TIP3   OH2 3092   0.439   4.047   0.733
 1029TIP3    H1 3093   0.344   4.039   0.739
 1029TIP3    H2 3094   0.473   3.962   0.763
 1030TIP3   OH2 3095   3.613   0.692   3.724
 1030TIP3    H1 3096   3.527   0.697   3.765
 1030TIP3    H2 3097   3.596   0.708   3.631
 1031TIP3   OH2 3098   4.969   0.506   0.175
 1031TIP3    H1 3099   4.901   0.448   0.140
 1031TIP3    H2 3100   4.953   0.508   0.269
 1032TIP3   OH2 3101   6.126   4.928   4.331
 1032TIP3    H1 3102   6.044   4.879   4.336
 1032TIP3    H2 3103   6.171   4.891   4.255
 1033TIP3   OH2 3104   2.735   3.407   0.726
 1033TIP3    H1 3105   2.766   3.316   0.726
 1033TIP3    H2 3106   2.765   3.443   0.809
 1034TIP3   OH2 3107   1.020   0.729   0.624
 1034TIP3    H1 3108   1.104   0.749   0.665
 1034TIP3    H2 3109   0.955   0.767   0.683
 1035TIP3   OH2 3110   3.426   4.831   2.090
 1035TIP3    H1 3111   3.378   4.757   2.126
 1035TIP3    H2 3112   3.373   4.859   2.015
 1036TIP3   OH2 3113   3.385   0.483   2.397
 1036TIP3    H1 3114   3.457   0.540   2.369
 1036TIP3    H2 3115   3.339   0.461   2.317
 1037TIP3   OH2 3116   2.038   0.557   1.809
 1037TIP3    H1 3117   2.116   0.518   1.848
 1037TIP3    H2 3118   2.071   0.602   1.731
 1038TIP3   OH2 3119   2.534   0.200   3.044
 1038TIP3    H1 3120   2.527   0.107   3.065
 1038TIP3    H2 3121   2.628   0.217   3.042
 1039TIP3   OH2 3122   3.025   3.752   4.037
 1039TIP3    H1 3123   2.986   3.756   3.950
 1039TIP3    H2 3124   2.958   3.787   4.095
 1040TIP3   OH2 3125   3.653   5.196   1.357
 1040TIP3    H1 3126   3.665   5.289   1.338
 1040TIP3    H2 3127   3.742   5.160   1.357
 1041TIP3   OH2 3128   2.139   3.452   0.077
 1041TIP3    H1 3129   2.049   3.460   0.109
 1041TIP3    H2 3130   2.192   3.453   0.156
 1042TIP3   OH2 3131   4.040   1.412   0.257
 1042TIP3    H1 3132   3.986   1.359   0.198
 1042TIP3    H2 3133   3.977   1.449   0.319
 1043TIP3   OH2 3134   2.170   4.623   2.495
 1043TIP3    H1 3135   2.180   4.529   2.480
 1043TIP3    H2 3136   2.260   4.656   2.505
 1044TIP3   OH2 3137   5.190   3.430   4.282
 1044TIP3    H1 3138   5.160   3.521   4.278
 1044TIP3    H2 3139   5.132   3.382   4.223
 1045TIP3   OH2 3140   3.277   0.830   0.340
 1045TIP3    H1 3141   3.207   0.851   0.402
 1045TIP3    H2 3142   3.305   0.742   0.365
 1046TIP3   OH2 3143   2.256   4.414   1.775
 1046TIP3    H1 3144   2.226   4.503   1.793
 1046TIP3    H2 3145   2.190   4.379   1.715
 1047TIP3   OH2 3146   3.555   0.751   1.758
 1047TIP3    H1 3147   3.487   0.693   1.723
 1047TIP3    H2 3148   3.598   0.787   1.681
 1048TIP3   OH2 3149   3.183   4.032   4.970
 1048TIP3    H1 3150   3.278   4.042   4.980
 1048TIP3    H2 3151   3.151   4.011   5.057
 1049TIP3   OH2 3152   4.376   5.063   4.709
 1049TIP3    H1 3153   4.442   5.005   4.672
 1049TIP3    H2 3154   4.427   5.128   4.759
 1050TIP3   OH2 3155   1.966   0.536   3.132
 1050TIP3    H1 3156   1.971   0.486   3.213
 1050TIP3    H2 3157   1.906   0.486   3.076
 1051TIP3   OH2 3158   4.776   1.553   1.340
 1051TIP3    H1 3159   4.835   1.602   1.282
 1051TIP3    H2 3160   4.786   1.595   1.425
 1052TIP3   OH2 3161   2.091   0.503   4.329
 1052TIP3    H1 3162   2.076   0.468   4.417
 1052TIP3    H2 3163   2.121   0.428   4.278
 1053TIP3   OH2 3164   4.883   4.680   3.198
 1053TIP3    H1 3165   4.875   4.705   3.290
 1053TIP3    H2 3166   4.923   4.755   3.155
 1054TIP3   OH2 3167   5.195   5.037   4.868
 1054TIP3    H1 3168   5.146   5.075   4.795
 1054TIP3    H2 3169   5.224   5.112   4.919
 1055TIP3   OH2 3170   5.699   0.994   1.924
 1055TIP3    H1 3171   5.788   1.006   1.957
 1055TIP3    H2 3172   5.652   1.071   1.956
 1056TIP3   OH2 3173   5.919   5.851   0.154
 1056TIP3    H1 3174   5.946   5.906   0.227
 1056TIP3    H2 3175   5.850   5.795   0.190
 1057TIP3   OH2 3176   3.223   1.935   4.023
 1057TIP3    H1 3177   3.208   2.029   4.017
 1057TIP3    H2 3178   3.138   1.899   4.051
 1058TIP3   OH2 3179   3.329   3.900   2.756
 1058TIP3    H1 3180   3.368   3.829   2.706
 1058TIP3    H2 3181   3.371   3.895   2.842
 1059TIP3   OH2 3182   4.522   1.935   2.421
 1059TIP3    H1 3183   4.507   1.867   2.487
 1059TIP3    H2 3184   4.617   1.944   2.417
 1060TIP3   OH2 3185   5.990   2.601   0.512
 1060TIP3    H1 3186   6.021   2.690   0.495
 1060TIP3    H2 3187   5.982   2.596   0.607
 1061TIP3   OH2 3188   2.851   0.081   0.284
 1061TIP3    H1 3189   2.936   0.080   0.239
 1061TIP3    H2 3190   2.872   0.060   0.376
 1062TIP3   OH2 3191   6.309   1.249   3.489
 1062TIP3    H1 3192   6.287   1.338   3.465
 1062TIP3    H2 3193   6.279   1.240   3.579
 1063TIP3   OH2 3194   4.180   2.930   2.958
 1063TIP3    H1 3195   4.090   2.908   2.933
 1063TIP3    H2 3196   4.232   2.856   2.927
 1064TIP3   OH2 3197   5.608   0.709   5.137
 1064TIP3    H1 3198   5.684   0.666   5.176
 1064TIP3    H2 3199   5.533   0.671   5.183
 1065TIP3   OH2 3200   3.110   4.418   3.186
 1065TIP3    H1 3201   3.163   4.472   3.244
 1065TIP3    H2 3202   3.020   4.447   3.201
 1066TIP3   OH2 3203   4.317   3.132   4.264
 1066TIP3    H1 3204   4.348   3.051   4.305
 1066TIP3    H2 3205   4.330   3.119   4.171
 1067TIP3   OH2 3206   3.347   0.674   1.607
 1067TIP3    H1 3207   3.291   0.597   1.613
 1067TIP3    H2 3208   3.297   0.737   1.556
 1068TIP3   OH2 3209   3.959   3.162   1.196
 1068TIP3    H1 3210   3.911   3.162   1.279
 1068TIP3    H2 3211   3.998   3.074   1.191
 1069TIP3   OH2 3212   3.482   4.252   1.590
 1069TIP3    H1 3213   3.446   4.339   1.606
 1069TIP3    H2 3214   3.568   4.268   1.551
 1070TIP3   OH2 3215   5.890   1.658   3.400
 1070TIP3    H1 3216   5.816   1.719   3.399
 1070TIP3    H2 3217   5.962   1.706   3.360
 1071TIP3   OH2 3218   5.451   5.616   2.591
 1071TIP3    H1 3219   5.412   5.534   2.624
 1071TIP3    H2 3220   5.386   5.650   2.529
 1072TIP3   OH2 3221   1.526   4.255   3.058
 1072TIP3    H1 3222   1.471   4.282   2.985
 1072TIP3    H2 3223   1.472   4.269   3.136
 1073TIP3   OH2 3224   0.593   5.642   2.336
 1073TIP3    H1 3225   0.641   5.680   2.262
 1073TIP3    H2 3226   0.601   5.547   2.323
 1074TIP3   OH2 3227   6.008   3.532   3.144
 1074TIP3    H1 3228   6.006   3.484   3.227
 1074TIP3    H2 3229   6.075   3.599   3.157
 1075TIP3   OH2 3230   2.632   3.055   2.319
 1075TIP3    H1 3231   2.599   2.987   2.378
 1075TIP3    H2 3232   2.627   3.016   2.232
 1076TIP3   OH2 3233   4.336   3.981   3.498
 1076TIP3    H1 3234   4.403   4.049   3.505
 1076TIP3    H2 3235   4.370   3.909   3.552
 1077TIP3   OH2 3236   1.628   0.079   5.166
 1077TIP3    H1 3237   1.679   0.068   5.086
 1077TIP3    H2 3238   1.537   0.077   5.138
 1078TIP3   OH2 3239   4.629   0.413   3.838
 1078TIP3    H1 3240   4.703   0.471   3.819
 1078TIP3    H2 3241   4.621   0.359   3.759
 1079TIP3   OH2 3242   5.165   0.545   1.843
 1079TIP3    H1 3243   5.183   0.556   1.749
 1079TIP3    H2 3244   5.120   0.626   1.868
 1080TIP3   OH2 3245   0.625   0.112   1.388
 1080TIP3    H1 3246   0.559   0.166   1.345
 1080TIP3    H2 3247   0.685   0.176   1.428
 1081TIP3   OH2 3248   5.724   3.686   2.905
 1081TIP3    H1 3249   5.683   3.758   2.953
 1081TIP3    H2 3250   5.651   3.640   2.864
 1082TIP3   OH2 3251   5.437   2.591   2.280
 1082TIP3    H1 3252   5.413   2.675   2.320
 1082TIP3    H2 3253   5.465   2.614   2.192
 1083TIP3   OH2 3254   1.549   3.975  -0.010
 1083TIP3    H1 3255   1.526   3.903   0.048
 1083TIP3    H2 3256   1.635   4.004   0.020
 1084TIP3   OH2 3257   5.297   1.514   3.627
 1084TIP3    H1 3258   5.241   1.523   3.550
 1084TIP3    H2 3259   5.264   1.436   3.671
 1085TIP3   OH2 3260   3.717   0.253   2.163
 1085TIP3    H1 3261   3.718   0.164   2.126
 1085TIP3    H2 3262   3.759   0.244   2.248
 1086TIP3   OH2 3263   3.164   0.648   4.374
 1086TIP3    H1 3264   3.109   0.687   4.442
 1086TIP3    H2 3265   3.224   0.591   4.421
 1087TIP3   OH2 3266   3.065   4.453   3.885
 1087TIP3    H1 3267   3.037   4.536   3.923
 1087TIP3    H2 3268   3.016   4.387   3.934
 1088TIP3   OH2 3269   3.467   1.394   5.007
 1088TIP3    H1 3270   3.535   1.333   4.982
 1088TIP3    H2 3271   3.406   1.343   5.061
 1089TIP3   OH2 3272   4.195   0.227   2.177
 1089TIP3    H1 3273   4.200   0.146   2.228
 1089TIP3    H2 3274   4.191   0.296   2.242
 1090TIP3   OH2 3275   3.991   5.912   0.818
 1090TIP3    H1 3276   3.905   5.936   0.854
 1090TIP3    H2 3277   3.972   5.838   0.759
 1091TIP3   OH2 3278   5.179   1.099   3.253
 1091TIP3    H1 3279   5.201   1.030   3.191
 1091TIP3    H2 3280   5.175   1.179   3.199
 1092TIP3   OH2 3281   6.258   1.497   2.737
 1092TIP3    H1 3282   6.162   1.490   2.737
 1092TIP3    H2 3283   6.276   1.590   2.742
 1093TIP3   OH2 3284   6.205   0.843   3.345
 1093TIP3    H1 3285   6.171   0.910   3.405
 1093TIP3    H2 3286   6.299   0.856   3.346
 1094TIP3   OH2 3287   4.410   3.007   4.640
 1094TIP3    H1 3288   4.437   2.940   4.702
 1094TIP3    H2 3289   4.466   3.082   4.659
 1095TIP3   OH2 3290   1.355   4.937   2.887
 1095TIP3    H1 3291   1.354   4.857   2.939
 1095TIP3    H2 3292   1.303   4.917   2.809
 1096TIP3   OH2 3293   6.263   1.850   1.026
 1096TIP3    H1 3294   6.206   1.819   0.956
 1096TIP3    H2 3295   6.296   1.771   1.067
 1097TIP3   OH2 3296   4.145   2.111   0.596
 1097TIP3    H1 3297   4.143   2.202   0.627
 1097TIP3    H2 3298   4.174   2.061   0.673
 1098TIP3   OH2 3299   1.902   0.025   4.003
 1098TIP3    H1 3300   1.830  -0.014   3.952
 1098TIP3    H2 3301   1.972   0.038   3.939
 1099TIP3   OH2 3302   1.321   1.137   4.125
 1099TIP3    H1 3303   1.364   1.155   4.042
 1099TIP3    H2 3304   1.245   1.195   4.126
 1100TIP3   OH2 3305   0.931   2.462   1.873
 1100TIP3    H1 3306   0.998   2.468   1.805
 1100TIP3    H2 3307   0.860   2.519   1.842
 1101TIP3   OH2 3308   4.475   5.230   2.128
 1101TIP3    H1 3309   4.465   5.136   2.145
 1101TIP3    H2 3310   4.542   5.235   2.060
 1102TIP3   OH2 3311   1.658   5.148   1.331
 1102TIP3    H1 3312   1.594   5.144   1.260
 1102TIP3    H2 3313   1.703   5.064   1.328
 1103TIP3   OH2 3314   3.354   3.754   1.906
 1103TIP3    H1 3315   3.363   3.850   1.910
 1103TIP3    H2 3316   3.377   3.731   1.816
 1104TIP3   OH2 3317   3.197   2.059   2.218
 1104TIP3    H1 3318   3.255   2.038   2.292
 1104TIP3    H2 3319   3.156   1.976   2.195
 1105TIP3   OH2 3320   1.602   2.349   0.483
 1105TIP3    H1 3321   1.621   2.256   0.480
 1105TIP3    H2 3322   1.555   2.367   0.401
 1106TIP3   OH2 3323   1.396   2.306   3.353
 1106TIP3    H1 3324   1.302   2.291   3.344
 1106TIP3    H2 3325   1.435   2.259   3.279
 1107TIP3   OH2 3326   0.484   0.205   2.545
 1107TIP3    H1 3327   0.570   0.170   2.564
 1107TIP3    H2 3328   0.501   0.288   2.501
 1108TIP3   OH2 3329   2.671   4.085   2.676
 1108TIP3    H1 3330   2.702   4.089   2.767
 1108TIP3    H2 3331   2.603   4.017   2.678
 1109TIP3   OH2 3332   3.540   5.768   3.488
 1109TIP3    H1 3333   3.548   5.861   3.506
 1109TIP3    H2 3334   3.458   5.742   3.530
 1110TIP3   OH2 3335   2.756   1.246   1.765
 1110TIP3    H1 3336   2.846   1.244   1.730
 1110TIP3    H2 3337   2.702   1.212   1.694
 1111TIP3   OH2 3338   3.112   3.910   0.073
 1111TIP3    H1 3339   3.120   3.960  -0.008
 1111TIP3    H2 3340   3.056   3.835   0.050
 1112TIP3   OH2 3341   5.792   5.176   2.828
 1112TIP3    H1 3342   5.708   5.218   2.846
 1112TIP3    H2 3343   5.779   5.134   2.742
 1113TIP3   OH2 3344   1.360   4.927   1.256
 1113TIP3    H1 3345   1.424   4.861   1.284
 1113TIP3    H2 3346   1.277   4.879   1.253
 1114TIP3   OH2 3347   5.701   5.103   4.394
 1114TIP3    H1 3348   5.753   5.067   4.322
 1114TIP3    H2 3349   5.711   5.198   4.385
 1115TIP3   OH2 3350   5.996   5.009   1.793
 1115TIP3    H1 3351   6.071   4.955   1.819
 1115TIP3    H2 3352   6.035   5.078   1.739
 1116TIP3   OH2 3353   3.403   0.996   3.339
 1116TIP3    H1 3354   3.395   0.923   3.278
 1116TIP3    H2 3355   3.362   1.070   3.294
 1117TIP3   OH2 3356   6.316   1.030   1.142
 1117TIP3    H1 3357   6.385   0.982   1.097
 1117TIP3    H2 3358   6.278   0.967   1.203
 1118TIP3   OH2 3359   5.707   1.194   1.034
 1118TIP3    H1 3360   5.680   1.191   0.942
 1118TIP3    H2 3361   5.632   1.161   1.083
 1119TIP3   OH2 3362   1.526   0.739   4.293
 1119TIP3    H1 3363   1.477   0.712   4.216
 1119TIP3    H2 3364   1.476   0.813   4.328
 1120TIP3   OH2 3365   0.760   1.591   3.965
 1120TIP3    H1 3366   0.786   1.682   3.981
 1120TIP3    H2 3367   0.699   1.571   4.036
 1121TIP3   OH2 3368   1.356   2.609   5.069
 1121TIP3    H1 3369   1.347   2.690   5.018
 1121TIP3    H2 3370   1.447   2.584   5.057
 1122TIP3   OH2 3371   3.669   5.035   0.698
 1122TIP3    H1 3372   3.601   4.979   0.661
 1122TIP3    H2 3373   3.742   5.028   0.636
 1123TIP3   OH2 3374   1.927   0.588   4.157
 1123TIP3    H1 3375   1.926   0.504   4.111
 1123TIP3    H2 3376   1.999   0.581   4.219
 1124TIP3   OH2 3377   3.379   4.339   1.899
 1124TIP3    H1 3378   3.472   4.330   1.919
 1124TIP3    H2 3379   3.376   4.398   1.824
 1125TIP3   OH2 3380   3.093   1.295   2.703
 1125TIP3    H1 3381   3.008   1.268   2.669
 1125TIP3    H2 3382   3.117   1.228   2.766
 1126TIP3   OH2 3383   3.202   2.978   1.457
 1126TIP3    H1 3384   3.119   2.955   1.499
 1126TIP3    H2 3385   3.176   3.003   1.368
 1127TIP3   OH2 3386   5.724   4.227   2.876
 1127TIP3    H1 3387   5.753   4.141   2.847
 1127TIP3    H2 3388   5.634   4.233   2.846
 1128TIP3   OH2 3389   4.515   5.461   1.893
 1128TIP3    H1 3390   4.565   5.417   1.961
 1128TIP3    H2 3391   4.580   5.482   1.826
 1129TIP3   OH2 3392   2.798   4.766   2.418
 1129TIP3    H1 3393   2.767   4.806   2.500
 1129TIP3    H2 3394   2.890   4.744   2.436
 1130TIP3   OH2 3395   1.669   1.083   5.162
 1130TIP3    H1 3396   1.681   0.994   5.129
 1130TIP3    H2 3397   1.639   1.070   5.252
 1131TIP3   OH2 3398   3.464   2.316   0.273
 1131TIP3    H1 3399   3.424   2.381   0.330
 1131TIP3    H2 3400   3.537   2.361   0.232
 1132TIP3   OH2 3401   0.625   0.044   3.074
 1132TIP3    H1 3402   0.704   0.098   3.077
 1132TIP3    H2 3403   0.555   0.101   3.106
 1133TIP3   OH2 3404   0.214   5.761   2.679
 1133TIP3    H1 3405   0.152   5.702   2.637
 1133TIP3    H2 3406   0.296   5.748   2.630
 1134TIP3   OH2 3407   2.930   4.155   0.467
 1134TIP3    H1 3408   2.836   4.148   0.483
 1134TIP3    H2 3409   2.971   4.121   0.547
 1135TIP3   OH2 3410   3.138   5.131   3.763
 1135TIP3    H1 3411   3.150   5.099   3.852
 1135TIP3    H2 3412   3.043   5.147   3.756
 1136TIP3   OH2 3413   4.786   5.473   3.249
 1136TIP3    H1 3414   4.795   5.385   3.286
 1136TIP3    H2 3415   4.742   5.523   3.318
 1137TIP3   OH2 3416   5.378   2.945   4.573
 1137TIP3    H1 3417   5.457   2.900   4.603
 1137TIP3    H2 3418   5.411   3.011   4.511
 1138TIP3   OH2 3419   2.354   3.218   2.590
 1138TIP3    H1 3420   2.410   3.244   2.517
 1138TIP3    H2 3421   2.396   3.139   2.625
 1139TIP3   OH2 3422   4.221   0.112   3.271
 1139TIP3    H1 3423   4.146   0.072   3.228
 1139TIP3    H2 3424   4.183   0.164   3.342
 1140TIP3   OH2 3425   5.661   5.116   1.386
 1140TIP3    H1 3426   5.625   5.076   1.465
 1140TIP3    H2 3427   5.648   5.050   1.318
 1141TIP3   OH2 3428   5.735   1.946   4.783
 1141TIP3    H1 3429   5.770   1.951   4.872
 1141TIP3    H2 3430   5.811   1.922   4.730
 1142TIP3   OH2 3431   3.781   4.473   2.443
 1142TIP3    H1 3432   3.765   4.557   2.398
 1142TIP3    H2 3433   3.704   4.459   2.496
 1143TIP3   OH2 3434   0.391   0.017   1.837
 1143TIP3    H1 3435   0.410   0.075   1.763
 1143TIP3    H2 3436   0.471  -0.035   1.847
 1144TIP3   OH2 3437   5.302   2.703   1.928
 1144TIP3    H1 3438   5.265   2.615   1.937
 1144TIP3    H2 3439   5.235   2.761   1.964
 1145TIP3   OH2 3440   0.515   4.304   3.625
 1145TIP3    H1 3441   0.454   4.299   3.551
 1145TIP3    H2 3442   0.466   4.268   3.699
 1146TIP3   OH2 3443   2.105   4.281   2.057
 1146TIP3    H1 3444   2.120   4.375   2.050
 1146TIP3    H2 3445   2.038   4.273   2.125
 1147TIP3   OH2 3446   5.120   5.791   0.347
 1147TIP3    H1 3447   5.129   5.878   0.308
 1147TIP3    H2 3448   5.196   5.742   0.313
 1148TIP3   OH2 3449   3.712   5.732   0.099
 1148TIP3    H1 3450   3.721   5.639   0.078
 1148TIP3    H2 3451   3.749   5.777   0.023
 1149TIP3   OH2 3452   1.861   1.351   2.647
 1149TIP3    H1 3453   1.799   1.285   2.678
 1149TIP3    H2 3454   1.943   1.302   2.634
 1150TIP3   OH2 3455   1.623   5.440   4.652
 1150TIP3    H1 3456   1.679   5.518   4.647
 1150TIP3    H2 3457   1.659   5.390   4.726
 1151TIP3   OH2 3458   3.826   4.332   4.320
 1151TIP3    H1 3459   3.732   4.317   4.307
 1151TIP3    H2 3460   3.861   4.246   4.345
 1152TIP3   OH2 3461   2.558   5.576   3.664
 1152TIP3    H1 3462   2.533   5.512   3.596
 1152TIP3    H2 3463   2.561   5.660   3.618
 1153TIP3   OH2 3464   1.627   1.121   0.421
 1153TIP3    H1 3465   1.643   1.181   0.494
 1153TIP3    H2 3466   1.534   1.100   0.429
 1154TIP3   OH2 3467   0.256   2.090   4.177
 1154TIP3    H1 3468   0.165   2.108   4.152
 1154TIP3    H2 3469   0.278   2.160   4.238
 1155TIP3   OH2 3470   5.890   0.234   1.112
 1155TIP3    H1 3471   5.974   0.269   1.140
 1155TIP3    H2 3472   5.825   0.292   1.153
 1156TIP3   OH2 3473   5.308   2.526   4.310
 1156TIP3    H1 3474   5.273   2.549   4.224
 1156TIP3    H2 3475   5.401   2.511   4.294
 1157TIP3   OH2 3476   5.255   1.263   3.784
 1157TIP3    H1 3477   5.281   1.183   3.831
 1157TIP3    H2 3478   5.159   1.256   3.778
 1158TIP3   OH2 3479   6.190   5.051   4.560
 1158TIP3    H1 3480   6.168   5.020   4.472
 1158TIP3    H2 3481   6.130   5.004   4.617
 1159TIP3   OH2 3482   3.561   3.425   2.361
 1159TIP3    H1 3483   3.559   3.503   2.305
 1159TIP3    H2 3484   3.516   3.452   2.441
 1160TIP3   OH2 3485   4.674   2.742   2.423
 1160TIP3    H1 3486   4.635   2.706   2.503
 1160TIP3    H2 3487   4.672   2.669   2.361
 1161TIP3   OH2 3488   1.489   5.456   0.151
 1161TIP3    H1 3489   1.432   5.382   0.171
 1161TIP3    H2 3490   1.578   5.421   0.159
 1162TIP3   OH2 3491   1.612   2.808   2.244
 1162TIP3    H1 3492   1.672   2.872   2.207
 1162TIP3    H2 3493   1.614   2.825   2.339
 1163TIP3   OH2 3494   2.185   1.514   3.341
 1163TIP3    H1 3495   2.196   1.521   3.246
 1163TIP3    H2 3496   2.169   1.420   3.356
 1164TIP3   OH2 3497   2.762   1.471   1.481
 1164TIP3    H1 3498   2.675   1.511   1.484
 1164TIP3    H2 3499   2.804   1.509   1.404
 1165TIP3   OH2 3500   2.251   1.206   2.839
 1165TIP3    H1 3501   2.346   1.219   2.847
 1165TIP3    H2 3502   2.230   1.139   2.904
 1166TIP3   OH2 3503   5.610   2.993   1.674
 1166TIP3    H1 3504   5.677   2.930   1.701
 1166TIP3    H2 3505   5.566   3.018   1.755
 1167TIP3   OH2 3506   2.566   1.596   4.044
 1167TIP3    H1 3507   2.580   1.545   4.124
 1167TIP3    H2 3508   2.563   1.530   3.974
 1168TIP3   OH2 3509   2.379   3.283   4.193
 1168TIP3    H1 3510   2.391   3.361   4.247
 1168TIP3    H2 3511   2.327   3.224   4.248
 1169TIP3   OH2 3512   1.364   0.353   0.461
 1169TIP3    H1 3513   1.406   0.388   0.382
 1169TIP3    H2 3514   1.289   0.303   0.428
 1170TIP3   OH2 3515   4.331   1.801   4.979
 1170TIP3    H1 3516   4.313   1.712   4.949
 1170TIP3    H2 3517   4.387   1.838   4.910
 1171TIP3   OH2 3518   2.584   2.076   0.158
 1171TIP3    H1 3519   2.660   2.051   0.105
 1171TIP3    H2 3520   2.610   2.158   0.199
 1172TIP3   OH2 3521   5.218   1.745   1.371
 1172TIP3    H1 3522   5.282   1.680   1.343
 1172TIP3    H2 3523   5.265   1.828   1.369
 1173TIP3   OH2 3524   3.073   3.130   2.663
 1173TIP3    H1 3525   3.091   3.036   2.665
 1173TIP3    H2 3526   3.151   3.169   2.624
 1174TIP3   OH2 3527   0.642   3.539   1.089
 1174TIP3    H1 3528   0.627   3.533   0.994
 1174TIP3    H2 3529   0.617   3.629   1.111
 1175TIP3   OH2 3530   4.753   3.989   2.660
 1175TIP3    H1 3531   4.691   3.997   2.732
 1175TIP3    H2 3532   4.838   4.006   2.699
 1176TIP3   OH2 3533   5.571   5.053   3.753
 1176TIP3    H1 3534   5.500   5.057   3.688
 1176TIP3    H2 3535   5.556   4.970   3.798
 1177TIP3   OH2 3536   4.881   0.428   1.357
 1177TIP3    H1 3537   4.854   0.381   1.436
 1177TIP3    H2 3538   4.933   0.364   1.308
 1178TIP3   OH2 3539   1.187   3.682   2.849
 1178TIP3    H1 3540   1.211   3.593   2.826
 1178TIP3    H2 3541   1.152   3.676   2.938
 1179TIP3   OH2 3542   0.876   3.553   4.134
 1179TIP3    H1 3543   0.791   3.553   4.088
 1179TIP3    H2 3544   0.908   3.463   4.124
 1180TIP3   OH2 3545   5.401   5.311   4.526
 1180TIP3    H1 3546   5.476   5.365   4.551
 1180TIP3    H2 3547   5.414   5.294   4.433
 1181TIP3   OH2 3548   2.715   4.055   4.465
 1181TIP3    H1 3549   2.690   4.071   4.373
 1181TIP3    H2 3550   2.650   3.991   4.496
 1182TIP3   OH2 3551   1.140   5.759   2.437
 1182TIP3    H1 3552   1.056   5.796   2.466
 1182TIP3    H2 3553   1.205   5.825   2.462
 1183TIP3   OH2 3554   2.415   0.337   3.896
 1183TIP3    H1 3555   2.338   0.369   3.943
 1183TIP3    H2 3556   2.416   0.386   3.814
 1184TIP3   OH2 3557   5.649   3.559   3.151
 1184TIP3    H1 3558   5.576   3.609   3.115
 1184TIP3    H2 3559   5.723   3.620   3.148
 1185TIP3   OH2 3560   4.439   4.834   0.000
 1185TIP3    H1 3561   4.432   4.785   0.082
 1185TIP3    H2 3562   4.444   4.767  -0.068
 1186TIP3   OH2 3563   0.273   3.592   4.229
 1186TIP3    H1 3564   0.321   3.565   4.307
 1186TIP3    H2 3565   0.251   3.509   4.185
 1187TIP3   OH2 3566   5.940   4.698   2.429
 1187TIP3    H1 3567   5.919   4.757   2.501
 1187TIP3    H2 3568   5.963   4.755   2.356
 1188TIP3   OH2 3569   6.297   5.083   2.020
 1188TIP3    H1 3570   6.310   4.996   1.983
 1188TIP3    H2 3571   6.247   5.068   2.100
 1189TIP3   OH2 3572   1.211   1.038   3.477
 1189TIP3    H1 3573   1.303   1.039   3.452
 1189TIP3    H2 3574   1.168   1.094   3.413
 1190TIP3   OH2 3575   5.627   0.169   4.014
 1190TIP3    H1 3576   5.662   0.082   3.995
 1190TIP3    H2 3577   5.537   0.166   3.984
 1191TIP3   OH2 3578   5.251   2.233   4.226
 1191TIP3    H1 3579   5.297   2.185   4.295
 1191TIP3    H2 3580   5.296   2.207   4.146
 1192TIP3   OH2 3581   3.022   0.322   1.910
 1192TIP3    H1 3582   3.041   0.237   1.871
 1192TIP3    H2 3583   3.057   0.317   1.999
 1193TIP3   OH2 3584   4.453   3.740   1.816
 1193TIP3    H1 3585   4.535   3.706   1.779
 1193TIP3    H2 3586   4.467   3.738   1.911
 1194TIP3   OH2 3587   3.052   2.062   2.554
 1194TIP3    H1 3588   3.073   2.110   2.635
 1194TIP3    H2 3589   2.977   2.008   2.577
 1195TIP3   OH2 3590   6.328   2.921   2.795
 1195TIP3    H1 3591   6.370   2.881   2.871
 1195TIP3    H2 3592   6.235   2.897   2.803
 1196TIP3   OH2 3593   0.624   5.024   3.600
 1196TIP3    H1 3594   0.712   5.025   3.563
 1196TIP3    H2 3595   0.566   5.043   3.527
 1197TIP3   OH2 3596   0.061   2.851   5.142
 1197TIP3    H1 3597  -0.017   2.848   5.197
 1197TIP3    H2 3598   0.134   2.851   5.205
 1198TIP3   OH2 3599   0.601   0.371   1.727
 1198TIP3    H1 3600   0.667   0.313   1.690
 1198TIP3    H2 3601   0.646   0.454   1.742
 1199TIP3   OH2 3602   6.008   0.819   1.595
 1199TIP3    H1 3603   6.090   0.825   1.546
 1199TIP3    H2 3604   5.940   0.833   1.529
 1200TIP3   OH2 3605   2.598   4.912   3.380
 1200TIP3    H1 3606   2.589   5.000   3.415
 1200TIP3    H2 3607   2.508   4.886   3.358
 1201TIP3   OH2 3608   4.904   5.520   3.578
 1201TIP3    H1 3609   4.876   5.592   3.522
 1201TIP3    H2 3610   4.934   5.453   3.516
 1202TIP3   OH2 3611   2.280   4.287   4.413
 1202TIP3    H1 3612   2.309   4.366   4.457
 1202TIP3    H2 3613   2.359   4.249   4.376
 1203TIP3   OH2 3614   5.860   2.984   1.237
 1203TIP3    H1 3615   5.949   2.994   1.269
 1203TIP3    H2 3616   5.827   3.073   1.229
 1204TIP3   OH2 3617   4.860   3.879   0.622
 1204TIP3    H1 3618   4.905   3.945   0.569
 1204TIP3    H2 3619   4.790   3.928   0.666
 1205TIP3   OH2 3620   2.210   1.665   3.877
 1205TIP3    H1 3621   2.242   1.751   3.905
 1205TIP3    H2 3622   2.227   1.664   3.782
 1206TIP3   OH2 3623   0.501   1.682   0.671
 1206TIP3    H1 3624   0.545   1.598   0.677
 1206TIP3    H2 3625   0.440   1.672   0.597
 1207TIP3   OH2 3626   2.551   3.866   3.260
 1207TIP3    H1 3627   2.604   3.879   3.339
 1207TIP3    H2 3628   2.464   3.897   3.285
 1208TIP3   OH2 3629   4.574   2.140   3.522
 1208TIP3    H1 3630   4.519   2.218   3.524
 1208TIP3    H2 3631   4.593   2.122   3.613
 1209TIP3   OH2 3632   0.444   5.184   0.203
 1209TIP3    H1 3633   0.435   5.094   0.172
 1209TIP3    H2 3634   0.369   5.196   0.261
 1210TIP3   OH2 3635   1.090   0.705   3.996
 1210TIP3    H1 3636   1.106   0.611   3.998
 1210TIP3    H2 3637   1.172   0.743   3.964
 1211TIP3   OH2 3638   4.048   5.112   2.063
 1211TIP3    H1 3639   4.117   5.117   1.998
 1211TIP3    H2 3640   3.969   5.140   2.017
 1212TIP3   OH2 3641   4.251   0.206   3.877
 1212TIP3    H1 3642   4.320   0.204   3.811
 1212TIP3    H2 3643   4.222   0.116   3.885
 1213TIP3   OH2 3644   6.007   4.188   3.664
 1213TIP3    H1 3645   6.064   4.264   3.654
 1213TIP3    H2 3646   6.065   4.119   3.697
 1214TIP3   OH2 3647   1.455   3.096   4.460
 1214TIP3    H1 3648   1.404   3.019   4.436
 1214TIP3    H2 3649   1.392   3.168   4.454
 1215TIP3   OH2 3650   4.407   5.453   0.306
 1215TIP3    H1 3651   4.475   5.514   0.335
 1215TIP3    H2 3652   4.346   5.450   0.380
 1216TIP3   OH2 3653   5.577   1.612   0.715
 1216TIP3    H1 3654   5.548   1.629   0.805
 1216TIP3    H2 3655   5.602   1.520   0.715
 1217TIP3   OH2 3656   5.773   2.178   2.508
 1217TIP3    H1 3657   5.848   2.170   2.567
 1217TIP3    H2 3658   5.729   2.259   2.537
 1218TIP3   OH2 3659   4.593   3.399   3.139
 1218TIP3    H1 3660   4.682   3.369   3.157
 1218TIP3    H2 3661   4.539   3.352   3.202
 1219TIP3   OH2 3662   3.915   4.803   1.269
 1219TIP3    H1 3663   3.856   4.826   1.197
 1219TIP3    H2 3664   3.868   4.830   1.348
 1220TIP3   OH2 3665   6.178   0.650   4.874
 1220TIP3    H1 3666   6.137   0.704   4.942
 1220TIP3    H2 3667   6.254   0.611   4.916
 1221TIP3   OH2 3668   4.182   1.134   1.965
 1221TIP3    H1 3669   4.174   1.191   1.889
 1221TIP3    H2 3670   4.092   1.127   1.999
 1222TIP3   OH2 3671   3.469   1.606   0.412
 1222TIP3    H1 3672   3.487   1.519   0.376
 1222TIP3    H2 3673   3.382   1.599   0.451
 1223TIP3   OH2 3674   2.871   1.587   4.803
 1223TIP3    H1 3675   2.795   1.545   4.844
 1223TIP3    H2 3676   2.837   1.626   4.723
 1224TIP3   OH2 3677   4.612   1.750   4.869
 1224TIP3    H1 3678   4.618   1.658   4.896
 1224TIP3    H2 3679   4.692   1.790   4.904
 1225TIP3   OH2 3680   5.917   1.541   2.344
 1225TIP3    H1 3681   5.916   1.446   2.358
 1225TIP3    H2 3682   6.009   1.562   2.328
 1226TIP3   OH2 3683   4.482   5.661   3.518
 1226TIP3    H1 3684   4.407   5.610   3.487
 1226TIP3    H2 3685   4.450   5.705   3.596
 1227TIP3   OH2 3686   4.058   4.187   1.571
 1227TIP3    H1 3687   3.972   4.154   1.597
 1227TIP3    H2 3688   4.091   4.121   1.510
 1228TIP3   OH2 3689   3.308   0.831   4.610
 1228TIP3    H1 3690   3.350   0.794   4.688
 1228TIP3    H2 3691   3.226   0.869   4.643
 1229TIP3   OH2 3692   2.044   1.056   4.741
 1229TIP3    H1 3693   2.040   0.964   4.766
 1229TIP3    H2 3694   2.133   1.068   4.706
 1230TIP3   OH2 3695   3.468   3.329   1.441
 1230TIP3    H1 3696   3.525   3.405   1.457
 1230TIP3    H2 3697   3.455   3.291   1.528
 1231TIP3   OH2 3698   0.133   2.948   0.196
 1231TIP3    H1 3699   0.126   3.042   0.210
 1231TIP3    H2 3700   0.138   2.910   0.283
 1232TIP3   OH2 3701   5.550   1.522   0.454
 1232TIP3    H1 3702   5.588   1.547   0.538
 1232TIP3    H2 3703   5.625   1.515   0.395
 1233TIP3   OH2 3704   5.690   2.869   3.205
 1233TIP3    H1 3705   5.734   2.944   3.245
 1233TIP3    H2 3706   5.762   2.817   3.167
 1234TIP3   OH2 3707   5.459   1.119   2.291
 1234TIP3    H1 3708   5.551   1.117   2.317
 1234TIP3    H2 3709   5.461   1.131   2.196
 1235TIP3   OH2 3710   0.759   4.228   1.893
 1235TIP3    H1 3711   0.850   4.230   1.862
 1235TIP3    H2 3712   0.720   4.307   1.856
 1236TIP3   OH2 3713   2.336   2.786   0.859
 1236TIP3    H1 3714   2.324   2.776   0.764
 1236TIP3    H2 3715   2.263   2.738   0.897
 1237TIP3   OH2 3716   0.204   1.600   0.731
 1237TIP3    H1 3717   0.175   1.570   0.645
 1237TIP3    H2 3718   0.285   1.552   0.747
 1238TIP3   OH2 3719   5.266   4.376   3.041
 1238TIP3    H1 3720   5.193   4.416   3.088
 1238TIP3    H2 3721   5.233   4.366   2.951
 1239TIP3   OH2 3722   3.509   1.612   2.528
 1239TIP3    H1 3723   3.494   1.564   2.610
 1239TIP3    H2 3724   3.424   1.609   2.483
 1240TIP3   OH2 3725   2.859   1.375   3.151
 1240TIP3    H1 3726   2.842   1.377   3.057
 1240TIP3    H2 3727   2.888   1.464   3.172
 1241TIP3   OH2 3728   1.818   5.966   2.872
 1241TIP3    H1 3729   1.770   6.034   2.825
 1241TIP3    H2 3730   1.800   5.984   2.964
 1242TIP3   OH2 3731   0.362   5.137   4.883
 1242TIP3    H1 3732   0.392   5.227   4.872
 1242TIP3    H2 3733   0.422   5.100   4.948
 1243TIP3   OH2 3734   1.535   4.157   1.553
 1243TIP3    H1 3735   1.475   4.191   1.487
 1243TIP3    H2 3736   1.526   4.062   1.548
 1244TIP3   OH2 3737   2.121   0.820   1.965
 1244TIP3    H1 3738   2.177   0.801   2.040
 1244TIP3    H2 3739   2.157   0.765   1.895
 1245TIP3   OH2 3740   5.931   4.227   1.674
 1245TIP3    H1 3741   5.887   4.260   1.753
 1245TIP3    H2 3742   5.909   4.291   1.606
 1246TIP3   OH2 3743   1.986   0.766   4.834
 1246TIP3    H1 3744   2.029   0.748   4.918
 1246TIP3    H2 3745   2.022   0.700   4.775
 1247TIP3   OH2 3746   1.887   1.889   4.618
 1247TIP3    H1 3747   1.829   1.814   4.627
 1247TIP3    H2 3748   1.845   1.959   4.669
 1248TIP3   OH2 3749   1.198   1.913   2.245
 1248TIP3    H1 3750   1.154   1.958   2.317
 1248TIP3    H2 3751   1.129   1.859   2.206
 1249TIP3   OH2 3752   0.825   3.937   0.887
 1249TIP3    H1 3753   0.806   3.971   0.799
 1249TIP3    H2 3754   0.901   3.881   0.875
 1250TIP3   OH2 3755   5.750   5.028   2.590
 1250TIP3    H1 3756   5.817   4.961   2.602
 1250TIP3    H2 3757   5.756   5.052   2.497
 1251TIP3   OH2 3758   5.761   0.898   0.713
 1251TIP3    H1 3759   5.695   0.968   0.711
 1251TIP3    H2 3760   5.831   0.929   0.656
 1252TIP3   OH2 3761   2.171   1.278   1.775
 1252TIP3    H1 3762   2.148   1.247   1.863
 1252TIP3    H2 3763   2.220   1.205   1.737
 1253TIP3   OH2 3764   5.508   4.943   2.264
 1253TIP3    H1 3765   5.584   4.999   2.278
 1253TIP3    H2 3766   5.500   4.893   2.345
 1254TIP3   OH2 3767   0.789   4.214   0.400
 1254TIP3    H1 3768   0.839   4.201   0.481
 1254TIP3    H2 3769   0.715   4.153   0.408
 1255TIP3   OH2 3770   4.241   5.247   4.006
 1255TIP3    H1 3771   4.197   5.329   4.029
 1255TIP3    H2 3772   4.286   5.267   3.924
 1256TIP3   OH2 3773   4.792   1.371   4.397
 1256TIP3    H1 3774   4.719   1.379   4.459
 1256TIP3    H2 3775   4.822   1.280   4.408
 1257TIP3   OH2 3776   1.347   4.817   2.629
 1257TIP3    H1 3777   1.421   4.810   2.568
 1257TIP3    H2 3778   1.274   4.776   2.583
 1258TIP3   OH2 3779   2.519   3.344   4.832
 1258TIP3    H1 3780   2.554   3.430   4.854
 1258TIP3    H2 3781   2.506   3.347   4.737
 1259TIP3   OH2 3782   4.185   4.005   1.415
 1259TIP3    H1 3783   4.238   3.997   1.494
 1259TIP3    H2 3784   4.233   3.953   1.350
 1260TIP3   OH2 3785   5.807   3.292   4.542
 1260TIP3    H1 3786   5.713   3.310   4.535
 1260TIP3    H2 3787   5.812   3.202   4.572
 1261TIP3   OH2 3788   2.185   2.311   3.374
 1261TIP3    H1 3789   2.168   2.341   3.285
 1261TIP3    H2 3790   2.131   2.232   3.384
 1262TIP3   OH2 3791   6.326   2.042   2.786
 1262TIP3    H1 3792   6.318   1.978   2.714
 1262TIP3    H2 3793   6.344   2.125   2.742
 1263TIP3   OH2 3794   2.921   3.139   1.748
 1263TIP3    H1 3795   2.876   3.161   1.830
 1263TIP3    H2 3796   2.956   3.051   1.763
 1264TIP3   OH2 3797   1.655   1.657   2.164
 1264TIP3    H1 3798   1.581   1.691   2.214
 1264TIP3    H2 3799   1.642   1.690   2.076
 1265TIP3   OH2 3800   6.254   4.298   4.126
 1265TIP3    H1 3801   6.235   4.343   4.209
 1265TIP3    H2 3802   6.346   4.271   4.133
 1266TIP3   OH2 3803   2.415   5.698   1.044
 1266TIP3    H1 3804   2.456   5.705   1.130
 1266TIP3    H2 3805   2.323   5.717   1.059
 1267TIP3   OH2 3806   5.521   4.388   3.176
 1267TIP3    H1 3807   5.437   4.365   3.136
 1267TIP3    H2 3808   5.503   4.392   3.270
 1268TIP3   OH2 3809   3.794   2.299   2.536
 1268TIP3    H1 3810   3.726   2.232   2.539
 1268TIP3    H2 3811   3.827   2.304   2.626
 1269TIP3   OH2 3812   4.709   0.937   1.462
 1269TIP3    H1 3813   4.687   0.900   1.377
 1269TIP3    H2 3814   4.650   0.895   1.524
 1270TIP3   OH2 3815   2.382   4.240   1.297
 1270TIP3    H1 3816   2.421   4.235   1.385
 1270TIP3    H2 3817   2.326   4.317   1.300
 1271TIP3   OH2 3818   3.275   1.148   2.969
 1271TIP3    H1 3819   3.249   1.077   2.910
 1271TIP3    H2 3820   3.363   1.124   2.998
 1272TIP3   OH2 3821   3.478   4.079   3.463
 1272TIP3    H1 3822   3.524   4.136   3.525
 1272TIP3    H2 3823   3.491   4.120   3.378
 1273TIP3   OH2 3824   4.618   4.147   1.873
 1273TIP3    H1 3825   4.687   4.095   1.913
 1273TIP3    H2 3826   4.611   4.113   1.784
 1274TIP3   OH2 3827   4.630   3.479   1.861
 1274TIP3    H1 3828   4.635   3.386   1.840
 1274TIP3    H2 3829   4.617   3.482   1.956
 1275TIP3   OH2 3830   2.865   2.464   1.354
 1275TIP3    H1 3831   2.896   2.405   1.284
 1275TIP3    H2 3832   2.829   2.539   1.307
 1276TIP3   OH2 3833   1.813   3.779   4.398
 1276TIP3    H1 3834   1.780   3.721   4.467
 1276TIP3    H2 3835   1.807   3.726   4.318
 1277TIP3   OH2 3836   3.745   0.750   2.320
 1277TIP3    H1 3837   3.735   0.845   2.312
 1277TIP3    H2 3838   3.838   0.734   2.303
 1278TIP3   OH2 3839   2.951   1.152  -0.019
 1278TIP3    H1 3840   2.870   1.144  -0.070
 1278TIP3    H2 3841   2.926   1.207   0.056
 1279TIP3   OH2 3842   1.460   0.830   2.628
 1279TIP3    H1 3843   1.447   0.914   2.585
 1279TIP3    H2 3844   1.422   0.766   2.568
 1280TIP3   OH2 3845   2.435   1.316   0.100
 1280TIP3    H1 3846   2.382   1.330   0.021
 1280TIP3    H2 3847   2.383   1.354   0.171
 1281TIP3   OH2 3848   3.385   0.545   0.388
 1281TIP3    H1 3849   3.388   0.453   0.415
 1281TIP3    H2 3850   3.476   0.567   0.370
 1282TIP3   OH2 3851   2.740   0.574   3.496
 1282TIP3    H1 3852   2.669   0.632   3.523
 1282TIP3    H2 3853   2.789   0.558   3.577
 1283TIP3   OH2 3854   4.264   3.320   0.324
 1283TIP3    H1 3855   4.240   3.236   0.285
 1283TIP3    H2 3856   4.247   3.309   0.417
 1284TIP3   OH2 3857   3.927   1.491   3.859
 1284TIP3    H1 3858   3.840   1.525   3.880
 1284TIP3    H2 3859   3.920   1.463   3.768
 1285TIP3   OH2 3860   3.241   3.914   0.400
 1285TIP3    H1 3861   3.288   3.904   0.318
 1285TIP3    H2 3862   3.305   3.953   0.460
 1286TIP3   OH2 3863   0.743   3.506   1.883
 1286TIP3    H1 3864   0.740   3.552   1.967
 1286TIP3    H2 3865   0.652   3.478   1.868
 1287TIP3   OH2 3866   4.472   1.401   4.491
 1287TIP3    H1 3867   4.399   1.359   4.537
 1287TIP3    H2 3868   4.454   1.384   4.398
 1288TIP3   OH2 3869   4.102   0.687   1.689
 1288TIP3    H1 3870   4.169   0.634   1.731
 1288TIP3    H2 3871   4.027   0.682   1.748
 1289TIP3   OH2 3872   4.593   5.590   3.053
 1289TIP3    H1 3873   4.677   5.585   3.099
 1289TIP3    H2 3874   4.610   5.548   2.968
 1290TIP3   OH2 3875   4.351   3.920   4.677
 1290TIP3    H1 3876   4.390   3.964   4.602
 1290TIP3    H2 3877   4.365   3.827   4.661
 1291TIP3   OH2 3878   4.960   1.026   1.430
 1291TIP3    H1 3879   4.870   0.993   1.423
 1291TIP3    H2 3880   4.953   1.104   1.486
 1292TIP3   OH2 3881   5.783   0.620   4.057
 1292TIP3    H1 3882   5.876   0.598   4.066
 1292TIP3    H2 3883   5.755   0.639   4.146
 1293TIP3   OH2 3884   0.446   1.562   2.172
 1293TIP3    H1 3885   0.501   1.486   2.189
 1293TIP3    H2 3886   0.413   1.549   2.083
 1294TIP3   OH2 3887   1.827   0.037   4.954
 1294TIP3    H1 3888   1.890   0.108   4.938
 1294TIP3    H2 3889   1.801   0.008   4.866
 1295TIP3   OH2 3890   2.172   2.719   1.535
 1295TIP3    H1 3891   2.120   2.723   1.615
 1295TIP3    H2 3892   2.127   2.778   1.474
 1296TIP3   OH2 3893   6.074   3.816   2.271
 1296TIP3    H1 3894   6.042   3.821   2.181
 1296TIP3    H2 3895   6.031   3.739   2.308
 1297TIP3   OH2 3896   1.823   4.672   0.350
 1297TIP3    H1 3897   1.736   4.656   0.387
 1297TIP3    H2 3898   1.807   4.727   0.274
 1298TIP3   OH2 3899   5.904   3.140   3.926
 1298TIP3    H1 3900   5.907   3.207   3.995
 1298TIP3    H2 3901   5.823   3.092   3.944
 1299TIP3   OH2 3902   1.808   2.590   4.855
 1299TIP3    H1 3903   1.786   2.641   4.778
 1299TIP3    H2 3904   1.813   2.499   4.823
 1300TIP3   OH2 3905   3.956   1.151   3.831
 1300TIP3    H1 3906   3.943   1.236   3.873
 1300TIP3    H2 3907   4.049   1.148   3.811
 1301TIP3   OH2 3908   0.745   2.805   2.019
 1301TIP3    H1 3909   0.656   2.790   2.051
 1301TIP3    H2 3910   0.792   2.842   2.094
 1302TIP3   OH2 3911   2.450   1.625   4.677
 1302TIP3    H1 3912   2.535   1.587   4.699
 1302TIP3    H2 3913   2.471   1.710   4.638
 1303TIP3   OH2 3914   1.125   5.445   4.859
 1303TIP3    H1 3915   1.073   5.502   4.916
 1303TIP3    H2 3916   1.061   5.386   4.820
 1304TIP3   OH2 3917   3.022   4.852   3.209
 1304TIP3    H1 3918   3.076   4.920   3.168
 1304TIP3    H2 3919   3.038   4.862   3.303
 1305TIP3   OH2 3920   1.747   1.664   2.936
 1305TIP3    H1 3921   1.732   1.690   3.027
 1305TIP3    H2 3922   1.690   1.722   2.885
 1306TIP3   OH2 3923   3.718   0.188   1.161
 1306TIP3    H1 3924   3.776   0.175   1.086
 1306TIP3    H2 3925   3.737   0.276   1.191
 1307TIP3   OH2 3926   1.471   5.547   5.078
 1307TIP3    H1 3927   1.452   5.486   5.006
 1307TIP3    H2 3928   1.566   5.557   5.075
 1308TIP3   OH2 3929   0.658   1.928   0.650
 1308TIP3    H1 3930   0.619   1.970   0.728
 1308TIP3    H2 3931   0.607   1.847   0.639
 1309TIP3   OH2 3932   1.941   2.283   2.938
 1309TIP3    H1 3933   1.860   2.309   2.894
 1309TIP3    H2 3934   1.918   2.202   2.985
 1310TIP3   OH2 3935   1.655   5.546   2.807
 1310TIP3    H1 3936   1.644   5.618   2.745
 1310TIP3    H2 3937   1.720   5.489   2.765
 1311TIP3   OH2 3938   1.637   4.103   2.137
 1311TIP3    H1 3939   1.550   4.137   2.116
 1311TIP3    H2 3940   1.684   4.104   2.053
 1312TIP3   OH2 3941   2.377   2.414   1.298
 1312TIP3    H1 3942   2.313   2.392   1.366
 1312TIP3    H2 3943   2.439   2.340   1.298
 1313TIP3   OH2 3944   5.944   4.509   3.620
 1313TIP3    H1 3945   6.036   4.485   3.610
 1313TIP3    H2 3946   5.941   4.555   3.704
 1314TIP3   OH2 3947   1.759   0.355   1.670
 1314TIP3    H1 3948   1.799   0.415   1.607
 1314TIP3    H2 3949   1.670   0.387   1.681
 1315TIP3   OH2 3950   3.869   5.386   3.175
 1315TIP3    H1 3951   3.851   5.415   3.265
 1315TIP3    H2 3952   3.888   5.467   3.127
 1316TIP3   OH2 3953   0.382   2.528   1.886
 1316TIP3    H1 3954   0.458   2.570   1.928
 1316TIP3    H2 3955   0.315   2.596   1.883
 1317TIP3   OH2 3956   1.795   4.293   0.409
 1317TIP3    H1 3957   1.699   4.290   0.417
 1317TIP3    H2 3958   1.826   4.229   0.473
 1318TIP3   OH2 3959   0.136   0.872   2.166
 1318TIP3    H1 3960   0.165   0.936   2.100
 1318TIP3    H2 3961   0.049   0.903   2.192
 1319TIP3   OH2 3962   6.093   4.001   4.522
 1319TIP3    H1 3963   6.094   3.908   4.545
 1319TIP3    H2 3964   6.127   4.045   4.600
 1320TIP3   OH2 3965   1.654   2.292   0.180
 1320TIP3    H1 3966   1.717   2.363   0.192
 1320TIP3    H2 3967   1.571   2.328   0.210
 1321TIP3   OH2 3968   2.407   5.801   1.533
 1321TIP3    H1 3969   2.501   5.785   1.539
 1321TIP3    H2 3970   2.372   5.725   1.487
 1322TIP3   OH2 3971   5.845   5.310   1.422
 1322TIP3    H1 3972   5.780   5.244   1.399
 1322TIP3    H2 3973   5.817   5.344   1.507
 1323TIP3   OH2 3974   2.191   5.010   0.519
 1323TIP3    H1 3975   2.210   4.990   0.610
 1323TIP3    H2 3976   2.112   4.960   0.499
 1324TIP3   OH2 3977   5.842   4.188   4.711
 1324TIP3    H1 3978   5.878   4.186   4.799
 1324TIP3    H2 3979   5.886   4.116   4.665
 1325TIP3   OH2 3980   2.247   0.723   0.892
 1325TIP3    H1 3981   2.300   0.671   0.831
 1325TIP3    H2 3982   2.247   0.811   0.854
 1326TIP3   OH2 3983   0.288   2.627   3.361
 1326TIP3    H1 3984   0.285   2.703   3.420
 1326TIP3    H2 3985   0.252   2.659   3.278
 1327TIP3   OH2 3986   3.642   3.861   1.644
 1327TIP3    H1 3987   3.565   3.806   1.654
 1327TIP3    H2 3988   3.704   3.828   1.709
 1328TIP3   OH2 3989   4.255   5.499   3.471
 1328TIP3    H1 3990   4.186   5.450   3.515
 1328TIP3    H2 3991   4.230   5.499   3.379
 1329TIP3   OH2 3992   4.882   4.273   2.740
 1329TIP3    H1 3993   4.940   4.197   2.742
 1329TIP3    H2 3994   4.938   4.345   2.710
 1330TIP3   OH2 3995   5.484   4.615   0.399
 1330TIP3    H1 3996   5.579   4.613   0.407
 1330TIP3    H2 3997   5.464   4.541   0.341
 1331TIP3   OH2 3998   1.050   1.634   3.898
 1331TIP3    H1 3999   1.064   1.682   3.980
 1331TIP3    H2 4000   1.125   1.659   3.843
 1332TIP3   OH2 4001   1.250   2.842   0.068
 1332TIP3    H1 4002   1.340   2.837   0.036
 1332TIP3    H2 4003   1.202   2.884  -0.003
 1333TIP3   OH2 4004   1.798   2.516   0.180
 1333TIP3    H1 4005   1.781   2.564   0.099
 1333TIP3    H2 4006   1.823   2.584   0.243
 1334TIP3   OH2 4007   0.160   4.002   0.631
 1334TIP3    H1 4008   0.145   4.093   0.605
 1334TIP3    H2 4009   0.134   3.950   0.555
 1335TIP3   OH2 4010   5.807   2.315   4.919
 1335TIP3    H1 4011   5.861   2.332   4.841
 1335TIP3    H2 4012   5.868   2.322   4.992
 1336TIP3   OH2 4013   5.859   3.769   3.601
 1336TIP3    H1 4014   5.911   3.783   3.680
 1336TIP3    H2 4015   5.806   3.849   3.593
 1337TIP3   OH2 4016   3.945   4.957   4.985
 1337TIP3    H1 4017   3.904   5.031   4.941
 1337TIP3    H2 4018   4.037   4.961   4.958
 1338TIP3   OH2 4019   0.331   3.244   2.470
 1338TIP3    H1 4020   0.303   3.220   2.558
 1338TIP3    H2 4021   0.358   3.336   2.477
 1339TIP3   OH2 4022   1.986   0.058   4.268
 1339TIP3    H1 4023   1.924   0.102   4.326
 1339TIP3    H2 4024   1.937   0.041   4.188
 1340TIP3   OH2 4025   3.183   3.982   3.482
 1340TIP3    H1 4026   3.268   3.984   3.526
 1340TIP3    H2 4027   3.159   4.075   3.475
 1341TIP3   OH2 4028   1.237   0.307   4.123
 1341TIP3    H1 4029   1.247   0.363   4.200
 1341TIP3    H2 4030   1.322   0.265   4.111
 1342TIP3   OH2 4031   0.280   4.659   1.073
 1342TIP3    H1 4032   0.354   4.660   1.134
 1342TIP3    H2 4033   0.266   4.567   1.052
 1343TIP3   OH2 4034   1.819   4.999   1.638
 1343TIP3    H1 4035   1.746   5.061   1.638
 1343TIP3    H2 4036   1.777   4.913   1.647
 1344TIP3   OH2 4037   3.665   4.172   4.798
 1344TIP3    H1 4038   3.710   4.117   4.733
 1344TIP3    H2 4039   3.624   4.241   4.746
 1345TIP3   OH2 4040   0.212   0.731   2.399
 1345TIP3    H1 4041   0.293   0.686   2.373
 1345TIP3    H2 4042   0.205   0.803   2.337
 1346TIP3   OH2 4043   5.350   5.705   0.239
 1346TIP3    H1 4044   5.308   5.698   0.153
 1346TIP3    H2 4045   5.398   5.623   0.249
 1347TIP3   OH2 4046   1.214   1.779   3.033
 1347TIP3    H1 4047   1.163   1.778   2.952
 1347TIP3    H2 4048   1.151   1.757   3.101
 1348TIP3   OH2 4049   1.693   3.459   0.673
 1348TIP3    H1 4050   1.659   3.490   0.757
 1348TIP3    H2 4051   1.777   3.420   0.694
 1349TIP3   OH2 4052   2.995   0.869   3.739
 1349TIP3    H1 4053   3.053   0.936   3.773
 1349TIP3    H2 4054   3.048   0.821   3.675
 1350TIP3   OH2 4055   1.400   4.455   4.321
 1350TIP3    H1 4056   1.431   4.532   4.368
 1350TIP3    H2 4057   1.474   4.393   4.325
 1351TIP3   OH2 4058   2.358   1.833   2.707
 1351TIP3    H1 4059   2.414   1.893   2.659
 1351TIP3    H2 4060   2.370   1.749   2.663
 1352TIP3   OH2 4061   5.191   3.629   0.994
 1352TIP3    H1 4062   5.119   3.604   1.052
 1352TIP3    H2 4063   5.151   3.687   0.930
 1353TIP3   OH2 4064   5.193   0.986   4.066
 1353TIP3    H1 4065   5.127   0.936   4.114
 1353TIP3    H2 4066   5.274   0.972   4.116
 1354TIP3   OH2 4067   2.957   1.687   0.218
 1354TIP3    H1 4068   3.030   1.628   0.238
 1354TIP3    H2 4069   2.981   1.730   0.137
 1355TIP3   OH2 4070   6.146   5.581   2.634
 1355TIP3    H1 4071   6.229   5.548   2.669
 1355TIP3    H2 4072   6.154   5.569   2.539
 1356TIP3   OH2 4073   1.144   2.824   1.568
 1356TIP3    H1 4074   1.109   2.870   1.492
 1356TIP3    H2 4075   1.238   2.817   1.551
 1357TIP3   OH2 4076   3.512   1.534   4.444
 1357TIP3    H1 4077   3.582   1.517   4.380
 1357TIP3    H2 4078   3.465   1.451   4.451
 1358TIP3   OH2 4079   6.276   3.261   2.594
 1358TIP3    H1 4080   6.310   3.338   2.549
 1358TIP3    H2 4081   6.198   3.293   2.640
 1359TIP3   OH2 4082   0.057   0.780   3.999
 1359TIP3    H1 4083   0.012   0.740   4.074
 1359TIP3    H2 4084  -0.013   0.811   3.942
 1360TIP3   OH2 4085   5.710   2.253   0.845
 1360TIP3    H1 4086   5.656   2.332   0.842
 1360TIP3    H2 4087   5.702   2.221   0.935
 1361TIP3   OH2 4088   4.539   4.337   1.454
 1361TIP3    H1 4089   4.586   4.410   1.494
 1361TIP3    H2 4090   4.569   4.260   1.502
 1362TIP3   OH2 4091   3.747   1.735   2.606
 1362TIP3    H1 4092   3.742   1.729   2.702
 1362TIP3    H2 4093   3.668   1.691   2.575
 1363TIP3   OH2 4094   0.230   2.204   1.621
 1363TIP3    H1 4095   0.239   2.235   1.531
 1363TIP3    H2 4096   0.171   2.268   1.662
 1364TIP3   OH2 4097   4.521   2.096   5.002
 1364TIP3    H1 4098   4.463   2.171   4.987
 1364TIP3    H2 4099   4.530   2.055   4.916
 1365TIP3   OH2 4100   6.355   0.695   0.534
 1365TIP3    H1 4101   6.275   0.660   0.495
 1365TIP3    H2 4102   6.362   0.650   0.619
 1366TIP3   OH2 4103   4.180   3.983   0.807
 1366TIP3    H1 4104   4.116   3.940   0.863
 1366TIP3    H2 4105   4.252   3.921   0.800
 1367TIP3   OH2 4106   5.586   2.122   2.820
 1367TIP3    H1 4107   5.603   2.029   2.835
 1367TIP3    H2 4108   5.673   2.162   2.814
 1368TIP3   OH2 4109   4.302   4.791   4.446
 1368TIP3    H1 4110   4.361   4.839   4.387
 1368TIP3    H2 4111   4.225   4.772   4.393
 1369TIP3   OH2 4112   0.936   2.827   3.518
 1369TIP3    H1 4113   0.911   2.754   3.575
 1369TIP3    H2 4114   1.022   2.855   3.550
 1370TIP3   OH2 4115   5.644   3.255   1.622
 1370TIP3    H1 4116   5.626   3.162   1.633
 1370TIP3    H2 4117   5.713   3.274   1.686
 1371TIP3   OH2 4118   4.439   5.280   3.360
 1371TIP3    H1 4119   4.415   5.370   3.383
 1371TIP3    H2 4120   4.360   5.243   3.321
 1372TIP3   OH2 4121   1.619   1.112   0.798
 1372TIP3    H1 4122   1.545   1.056   0.822
 1372TIP3    H2 4123   1.694   1.070   0.841
 1373TIP3   OH2 4124   0.704   4.370   1.507
 1373TIP3    H1 4125   0.709   4.275   1.521
 1373TIP3    H2 4126   0.706   4.407   1.595
 1374TIP3   OH2 4127   2.652   3.874   3.990
 1374TIP3    H1 4128   2.693   3.815   3.926
 1374TIP3    H2 4129   2.703   3.955   3.984
 1375TIP3   OH2 4130   6.307   5.114   3.506
 1375TIP3    H1 4131   6.368   5.147   3.572
 1375TIP3    H2 4132   6.296   5.188   3.445
 1376TIP3   OH2 4133   0.561   0.928   0.390
 1376TIP3    H1 4134   0.537   0.966   0.474
 1376TIP3    H2 4135   0.650   0.896   0.402
 1377TIP3   OH2 4136   4.026   4.232   0.761
 1377TIP3    H1 4137   4.083   4.156   0.771
 1377TIP3    H2 4138   3.978   4.236   0.844
 1378TIP3   OH2 4139   4.968   2.996   3.612
 1378TIP3    H1 4140   4.943   2.936   3.681
 1378TIP3    H2 4141   4.998   3.075   3.658
 1379TIP3   OH2 4142   5.722   2.875   2.010
 1379TIP3    H1 4143   5.703   2.823   2.088
 1379TIP3    H2 4144   5.638   2.882   1.965
 1380TIP3   OH2 4145   2.656   4.320   0.190
 1380TIP3    H1 4146   2.565   4.337   0.166
 1380TIP3    H2 4147   2.657   4.326   0.286
 1381TIP3   OH2 4148   1.453   4.486   1.534
 1381TIP3    H1 4149   1.396   4.531   1.470
 1381TIP3    H2 4150   1.524   4.450   1.481
 1382TIP3   OH2 4151   2.553   2.875   3.893
 1382TIP3    H1 4152   2.536   2.891   3.800
 1382TIP3    H2 4153   2.504   2.944   3.939
 1383TIP3   OH2 4154   2.532   5.594   0.578
 1383TIP3    H1 4155   2.551   5.570   0.669
 1383TIP3    H2 4156   2.453   5.545   0.556
 1384TIP3   OH2 4157   6.004   4.528   0.193
 1384TIP3    H1 4158   5.950   4.551   0.268
 1384TIP3    H2 4159   6.049   4.448   0.219
 1385TIP3   OH2 4160   4.684   5.678   1.411
 1385TIP3    H1 4161   4.773   5.678   1.446
 1385TIP3    H2 4162   4.696   5.669   1.316
 1386TIP3   OH2 4163   1.530   5.381   2.577
 1386TIP3    H1 4164   1.534   5.418   2.489
 1386TIP3    H2 4165   1.620   5.384   2.609
 1387TIP3   OH2 4166   1.487   3.803   1.134
 1387TIP3    H1 4167   1.453   3.742   1.069
 1387TIP3    H2 4168   1.568   3.836   1.096
 1388TIP3   OH2 4169   4.246   5.564   5.024
 1388TIP3    H1 4170   4.279   5.501   5.087
 1388TIP3    H2 4171   4.277   5.533   4.939
 1389TIP3   OH2 4172   3.068   0.295   3.732
 1389TIP3    H1 4173   3.110   0.242   3.800
 1389TIP3    H2 4174   3.137   0.354   3.701
 1390TIP3   OH2 4175   6.171   0.171   1.449
 1390TIP3    H1 4176   6.093   0.187   1.502
 1390TIP3    H2 4177   6.147   0.099   1.391
 1391TIP3   OH2 4178   2.465   2.279   1.554
 1391TIP3    H1 4179   2.539   2.285   1.615
 1391TIP3    H2 4180   2.412   2.207   1.588
 1392TIP3   OH2 4181   0.665   4.672   4.854
 1392TIP3    H1 4182   0.680   4.764   4.875
 1392TIP3    H2 4183   0.614   4.638   4.928
 1393TIP3   OH2 4184   2.220   3.016   0.562
 1393TIP3    H1 4185   2.280   2.945   0.537
 1393TIP3    H2 4186   2.174   3.038   0.480
 1394TIP3   OH2 4187   2.760   4.543   4.126
 1394TIP3    H1 4188   2.737   4.571   4.215
 1394TIP3    H2 4189   2.833   4.600   4.101
 1395TIP3   OH2 4190   2.570   1.620   0.462
 1395TIP3    H1 4191   2.646   1.621   0.521
 1395TIP3    H2 4192   2.606   1.592   0.378
 1396TIP3   OH2 4193   4.284   1.536   4.825
 1396TIP3    H1 4194   4.258   1.479   4.897
 1396TIP3    H2 4195   4.213   1.527   4.761
 1397TIP3   OH2 4196   0.799   2.332   2.479
 1397TIP3    H1 4197   0.707   2.352   2.461
 1397TIP3    H2 4198   0.827   2.400   2.540
 1398TIP3   OH2 4199   6.234   2.094   0.684
 1398TIP3    H1 4200   6.206   2.117   0.596
 1398TIP3    H2 4201   6.153   2.089   0.735
 1399TIP3   OH2 4202   5.911   1.739   3.033
 1399TIP3    H1 4203   5.964   1.761   3.109
 1399TIP3    H2 4204   5.835   1.796   3.039
 1400TIP3   OH2 4205   5.999   3.277   3.704
 1400TIP3    H1 4206   6.024   3.353   3.756
 1400TIP3    H2 4207   5.965   3.214   3.768
 1401TIP3   OH2 4208   1.779   0.253   0.804
 1401TIP3    H1 4209   1.727   0.205   0.868
 1401TIP3    H2 4210   1.868   0.252   0.838
 1402TIP3   OH2 4211   0.814   3.790   1.298
 1402TIP3    H1 4212   0.791   3.813   1.208
 1402TIP3    H2 4213   0.736   3.811   1.349
 1403TIP3   OH2 4214   0.079   5.498   1.744
 1403TIP3    H1 4215   0.018   5.553   1.793
 1403TIP3    H2 4216   0.054   5.409   1.766
 1404TIP3   OH2 4217   2.507   5.335   2.883
 1404TIP3    H1 4218   2.424   5.287   2.883
 1404TIP3    H2 4219   2.565   5.283   2.827
 1405TIP3   OH2 4220   3.367   1.590   4.181
 1405TIP3    H1 4221   3.384   1.501   4.150
 1405TIP3    H2 4222   3.379   1.586   4.276
 1406TIP3   OH2 4223   1.626   2.823   1.109
 1406TIP3    H1 4224   1.572   2.744   1.106
 1406TIP3    H2 4225   1.647   2.841   1.017
 1407TIP3   OH2 4226   3.018   5.806   2.712
 1407TIP3    H1 4227   2.946   5.767   2.662
 1407TIP3    H2 4228   2.981   5.824   2.798
 1408TIP3   OH2 4229   5.132   0.989   0.504
 1408TIP3    H1 4230   5.072   0.973   0.431
 1408TIP3    H2 4231   5.186   1.063   0.475
 1409TIP3   OH2 4232   0.821   0.721   2.469
 1409TIP3    H1 4233   0.861   0.660   2.407
 1409TIP3    H2 4234   0.808   0.669   2.548
 1410TIP3   OH2 4235   3.579   5.848   1.062
 1410TIP3    H1 4236   3.583   5.761   1.022
 1410TIP3    H2 4237   3.486   5.871   1.061
 1411TIP3   OH2 4238   3.258   3.316   1.271
 1411TIP3    H1 4239   3.193   3.247   1.282
 1411TIP3    H2 4240   3.321   3.302   1.343
 1412TIP3   OH2 4241   5.203   4.629   0.357
 1412TIP3    H1 4242   5.165   4.699   0.304
 1412TIP3    H2 4243   5.297   4.643   0.350
 1413TIP3   OH2 4244   0.547   1.373   3.921
 1413TIP3    H1 4245   0.527   1.464   3.939
 1413TIP3    H2 4246   0.626   1.375   3.868
 1414TIP3   OH2 4247   0.729   0.038   3.453
 1414TIP3    H1 4248   0.773   0.040   3.367
 1414TIP3    H2 4249   0.742   0.125   3.489
 1415TIP3   OH2 4250   1.199   4.521   2.596
 1415TIP3    H1 4251   1.164   4.546   2.681
 1415TIP3    H2 4252   1.154   4.578   2.534
 1416TIP3   OH2 4253   5.477   0.484   1.863
 1416TIP3    H1 4254   5.511   0.541   1.931
 1416TIP3    H2 4255   5.401   0.532   1.828
 1417TIP3   OH2 4256   4.036   5.564   0.091
 1417TIP3    H1 4257   3.945   5.580   0.116
 1417TIP3    H2 4258   4.084   5.641   0.121
 1418TIP3   OH2 4259   0.798   5.348   2.129
 1418TIP3    H1 4260   0.819   5.441   2.120
 1418TIP3    H2 4261   0.732   5.345   2.198
 1419TIP3   OH2 4262   2.077   2.525   3.567
 1419TIP3    H1 4263   2.123   2.506   3.649
 1419TIP3    H2 4264   2.030   2.445   3.546
 1420TIP3   OH2 4265   2.688   2.884   3.301
 1420TIP3    H1 4266   2.689   2.789   3.289
 1420TIP3    H2 4267   2.602   2.911   3.271
 1421TIP3   OH2 4268   0.802   2.222   1.263
 1421TIP3    H1 4269   0.794   2.163   1.338
 1421TIP3    H2 4270   0.769   2.306   1.294
 1422TIP3   OH2 4271   0.231   0.432   2.337
 1422TIP3    H1 4272   0.151   0.436   2.286
 1422TIP3    H2 4273   0.297   0.473   2.281
 1423TIP3   OH2 4274   5.138   1.251   0.902
 1423TIP3    H1 4275   5.171   1.177   0.954
 1423TIP3    H2 4276   5.145   1.326   0.961
 1424TIP3   OH2 4277   4.548   3.672   3.099
 1424TIP3    H1 4278   4.491   3.676   3.176
 1424TIP3    H2 4279   4.601   3.593   3.112
 1425TIP3   OH2 4280   2.947   4.858   1.199
 1425TIP3    H1 4281   2.943   4.860   1.103
 1425TIP3    H2 4282   2.869   4.808   1.225
 1426TIP3   OH2 4283   3.172   2.760   1.220
 1426TIP3    H1 4284   3.116   2.801   1.154
 1426TIP3    H2 4285   3.111   2.731   1.288
 1427TIP3   OH2 4286   4.342   2.792   2.303
 1427TIP3    H1 4287   4.404   2.744   2.248
 1427TIP3    H2 4288   4.264   2.738   2.305
 1428TIP3   OH2 4289   5.542   0.425   3.395
 1428TIP3    H1 4290   5.451   0.435   3.368
 1428TIP3    H2 4291   5.538   0.401   3.487
 1429TIP3   OH2 4292   1.929   2.245   2.548
 1429TIP3    H1 4293   1.873   2.169   2.542
 1429TIP3    H2 4294   1.878   2.316   2.509
 1430TIP3   OH2 4295   3.887   1.812   3.825
 1430TIP3    H1 4296   3.815   1.762   3.788
 1430TIP3    H2 4297   3.855   1.902   3.830
 1431TIP3   OH2 4298   1.842   1.796   2.303
 1431TIP3    H1 4299   1.873   1.854   2.234
 1431TIP3    H2 4300   1.781   1.736   2.259
 1432TIP3   OH2 4301   1.365   3.930   3.618
 1432TIP3    H1 4302   1.320   3.856   3.576
 1432TIP3    H2 4303   1.305   3.960   3.685
 1433TIP3   OH2 4304   2.741   4.895   2.197
 1433TIP3    H1 4305   2.828   4.935   2.197
 1433TIP3    H2 4306   2.741   4.838   2.274
 1434TIP3   OH2 4307   0.305   0.880   4.603
 1434TIP3    H1 4308   0.381   0.863   4.547
 1434TIP3    H2 4309   0.334   0.854   4.691
 1435TIP3   OH2 4310   4.377   3.776   3.686
 1435TIP3    H1 4311   4.348   3.771   3.777
 1435TIP3    H2 4312   4.472   3.766   3.691
 1436TIP3   OH2 4313   2.080   5.025   0.138
 1436TIP3    H1 4314   2.132   5.066   0.069
 1436TIP3    H2 4315   2.134   4.952   0.169
 1437TIP3   OH2 4316   2.684   2.318   2.986
 1437TIP3    H1 4317   2.633   2.240   2.964
 1437TIP3    H2 4318   2.635   2.360   3.056
 1438TIP3   OH2 4319   3.671   2.261   1.814
 1438TIP3    H1 4320   3.585   2.291   1.844
 1438TIP3    H2 4321   3.652   2.188   1.755
 1439TIP3   OH2 4322   4.357   4.411   3.539
 1439TIP3    H1 4323   4.358   4.426   3.633
 1439TIP3    H2 4324   4.417   4.338   3.525
 1440TIP3   OH2 4325   5.930   3.623   4.248
 1440TIP3    H1 4326   6.017   3.619   4.286
 1440TIP3    H2 4327   5.924   3.712   4.212
 1441TIP3   OH2 4328   1.059   3.488   2.154
 1441TIP3    H1 4329   1.150   3.516   2.162
 1441TIP3    H2 4330   1.054   3.446   2.068
 1442TIP3   OH2 4331   6.020   0.479   4.622
 1442TIP3    H1 4332   5.963   0.485   4.699
 1442TIP3    H2 4333   6.050   0.388   4.623
 1443TIP3   OH2 4334   4.159   4.846   0.748
 1443TIP3    H1 4335   4.244   4.871   0.784
 1443TIP3    H2 4336   4.103   4.834   0.825
 1444TIP3   OH2 4337   6.017   3.352   2.687
 1444TIP3    H1 4338   5.986   3.378   2.774
 1444TIP3    H2 4339   5.963   3.403   2.626
 1445TIP3   OH2 4340   2.552   2.172   3.796
 1445TIP3    H1 4341   2.549   2.095   3.738
 1445TIP3    H2 4342   2.508   2.241   3.746
 1446TIP3   OH2 4343   0.555   0.453   2.446
 1446TIP3    H1 4344   0.611   0.412   2.380
 1446TIP3    H2 4345   0.526   0.535   2.406
 1447TIP3   OH2 4346   3.464   4.029   4.961
 1447TIP3    H1 4347   3.512   4.080   5.026
 1447TIP3    H2 4348   3.512   4.041   4.879
 1448TIP3   OH2 4349   4.946   2.695   0.023
 1448TIP3    H1 4350   4.880   2.716  -0.043
 1448TIP3    H2 4351   4.954   2.775   0.075
 1449TIP3   OH2 4352   6.210   5.108   3.014
 1449TIP3    H1 4353   6.177   5.040   3.072
 1449TIP3    H2 4354   6.304   5.112   3.032
 1450TIP3   OH2 4355   2.948   0.720   3.363
 1450TIP3    H1 4356   2.877   0.669   3.400
 1450TIP3    H2 4357   3.027   0.669   3.382
 1451TIP3   OH2 4358   0.844   0.895   1.267
 1451TIP3    H1 4359   0.894   0.940   1.335
 1451TIP3    H2 4360   0.908   0.836   1.226
 1452TIP3   OH2 4361   4.686   4.556   1.557
 1452TIP3    H1 4362   4.661   4.527   1.645
 1452TIP3    H2 4363   4.769   4.602   1.570
 1453TIP3   OH2 4364   2.318   2.158   1.000
 1453TIP3    H1 4365   2.258   2.085   0.987
 1453TIP3    H2 4366   2.274   2.213   1.065
 1454TIP3   OH2 4367   6.085   0.104   1.866
 1454TIP3    H1 4368   6.166   0.139   1.902
 1454TIP3    H2 4369   6.110   0.024   1.821
 1455TIP3   OH2 4370   2.108   2.140   4.838
 1455TIP3    H1 4371   2.151   2.060   4.867
 1455TIP3    H2 4372   2.066   2.115   4.755
 1456TIP3   OH2 4373   5.536   3.170   2.162
 1456TIP3    H1 4374   5.464   3.218   2.121
 1456TIP3    H2 4375   5.553   3.217   2.243
 1457TIP3   OH2 4376   1.576   3.986   2.543
 1457TIP3    H1 4377   1.554   3.977   2.636
 1457TIP3    H2 4378   1.670   4.007   2.544
 1458TIP3   OH2 4379   1.894   4.224   4.126
 1458TIP3    H1 4380   1.973   4.209   4.177
 1458TIP3    H2 4381   1.838   4.148   4.145
 1459TIP3   OH2 4382   0.846   3.578   0.783
 1459TIP3    H1 4383   0.908   3.506   0.792
 1459TIP3    H2 4384   0.864   3.635   0.858
 1460TIP3   OH2 4385   3.432   5.415   4.690
 1460TIP3    H1 4386   3.422   5.510   4.686
 1460TIP3    H2 4387   3.511   5.401   4.742
 1461TIP3   OH2 4388   1.904   1.731   4.334
 1461TIP3    H1 4389   1.891   1.678   4.413
 1461TIP3    H2 4390   1.876   1.819   4.359
 1462TIP3   OH2 4391   0.238   1.032   4.119
 1462TIP3    H1 4392   0.301   1.059   4.185
 1462TIP3    H2 4393   0.291   0.991   4.050
 1463TIP3   OH2 4394   5.734   3.773   2.320
 1463TIP3    H1 4395   5.706   3.687   2.288
 1463TIP3    H2 4396   5.808   3.754   2.378
 1464TIP3   OH2 4397   3.133   2.028   5.011
 1464TIP3    H1 4398   3.127   1.933   5.006
 1464TIP3    H2 4399   3.217   2.045   5.053
 1465TIP3   OH2 4400   0.169   5.575   0.295
 1465TIP3    H1 4401   0.182   5.533   0.380
 1465TIP3    H2 4402   0.246   5.550   0.244
 1466TIP3   OH2 4403   4.300   5.707   0.459
 1466TIP3    H1 4404   4.393   5.685   0.461
 1466TIP3    H2 4405   4.256   5.627   0.488
 1467TIP3   OH2 4406   0.137   0.300   4.175
 1467TIP3    H1 4407   0.168   0.284   4.264
 1467TIP3    H2 4408   0.049   0.262   4.173
 1468TIP3   OH2 4409   6.001   4.120   2.180
 1468TIP3    H1 4410   6.089   4.082   2.177
 1468TIP3    H2 4411   5.968   4.097   2.266
 1469TIP3   OH2 4412   3.395   3.245   3.870
 1469TIP3    H1 4413   3.488   3.255   3.889
 1469TIP3    H2 4414   3.355   3.221   3.954
 1470TIP3   OH2 4415   3.526   1.550   1.655
 1470TIP3    H1 4416   3.554   1.505   1.575
 1470TIP3    H2 4417   3.605   1.595   1.686
 1471TIP3   OH2 4418   2.812   5.710   4.371
 1471TIP3    H1 4419   2.813   5.627   4.419
 1471TIP3    H2 4420   2.823   5.685   4.280
 1472TIP3   OH2 4421   1.883   3.420   1.234
 1472TIP3    H1 4422   1.904   3.481   1.305
 1472TIP3    H2 4423   1.957   3.426   1.174
 1473TIP3   OH2 4424   3.626   1.344   3.598
 1473TIP3    H1 4425   3.539   1.331   3.562
 1473TIP3    H2 4426   3.617   1.420   3.656
 1474TIP3   OH2 4427   1.221   3.393   1.045
 1474TIP3    H1 4428   1.268   3.387   1.129
 1474TIP3    H2 4429   1.263   3.465   0.999
 1475TIP3   OH2 4430   0.036   3.625   1.057
 1475TIP3    H1 4431   0.121   3.584   1.076
 1475TIP3    H2 4432  -0.024   3.587   1.121
 1476TIP3   OH2 4433   1.069   3.294   1.477
 1476TIP3    H1 4434   1.097   3.364   1.537
 1476TIP3    H2 4435   1.076   3.334   1.390
 1477TIP3   OH2 4436   5.889   2.308   3.887
 1477TIP3    H1 4437   5.915   2.277   3.973
 1477TIP3    H2 4438   5.800   2.275   3.875
 1478TIP3   OH2 4439   3.186   3.526   4.026
 1478TIP3    H1 4440   3.124   3.579   4.075
 1478TIP3    H2 4441   3.270   3.542   4.070
 1479TIP3   OH2 4442   2.686   0.876   4.788
 1479TIP3    H1 4443   2.743   0.901   4.716
 1479TIP3    H2 4444   2.616   0.824   4.748
 1480TIP3   OH2 4445   1.811   3.928   2.938
 1480TIP3    H1 4446   1.733   3.956   2.986
 1480TIP3    H2 4447   1.781   3.854   2.885
 1481TIP3   OH2 4448   5.488   1.919   4.626
 1481TIP3    H1 4449   5.459   1.829   4.641
 1481TIP3    H2 4450   5.572   1.925   4.673
 1482TIP3   OH2 4451   4.846   1.671   3.830
 1482TIP3    H1 4452   4.895   1.689   3.749
 1482TIP3    H2 4453   4.907   1.694   3.900
 1483TIP3   OH2 4454   4.930   4.438   1.857
 1483TIP3    H1 4455   4.943   4.364   1.915
 1483TIP3    H2 4456   4.988   4.506   1.891
 1484TIP3   OH2 4457   4.610   1.684   3.333
 1484TIP3    H1 4458   4.614   1.595   3.370
 1484TIP3    H2 4459   4.655   1.739   3.397
 1485TIP3   OH2 4460   1.192   0.133   0.979
 1485TIP3    H1 4461   1.148   0.167   1.058
 1485TIP3    H2 4462   1.200   0.039   0.995
 1486TIP3   OH2 4463   3.761   4.958   0.286
 1486TIP3    H1 4464   3.815   4.976   0.209
 1486TIP3    H2 4465   3.738   4.865   0.278
 1487TIP3   OH2 4466   3.964   2.494   0.615
 1487TIP3    H1 4467   3.917   2.413   0.633
 1487TIP3    H2 4468   3.916   2.561   0.665
 1488TIP3   OH2 4469   3.146   5.930   4.528
 1488TIP3    H1 4470   3.224   5.889   4.563
 1488TIP3    H2 4471   3.089   5.858   4.503
 1489TIP3   OH2 4472   4.313   0.731   2.720
 1489TIP3    H1 4473   4.403   0.744   2.749
 1489TIP3    H2 4474   4.261   0.792   2.772
 1490TIP3   OH2 4475   4.537   2.240   1.087
 1490TIP3    H1 4476   4.467   2.283   1.039
 1490TIP3    H2 4477   4.535   2.280   1.174
 1491TIP3   OH2 4478   1.013   2.078   0.472
 1491TIP3    H1 4479   1.025   2.009   0.537
 1491TIP3    H2 4480   1.092   2.132   0.478
 1492TIP3   OH2 4481   3.430   2.315   2.653
 1492TIP3    H1 4482   3.497   2.304   2.720
 1492TIP3    H2 4483   3.409   2.226   2.624
 1493TIP3   OH2 4484   2.958   5.844   2.382
 1493TIP3    H1 4485   2.925   5.830   2.293
 1493TIP3    H2 4486   3.025   5.778   2.394
 1494TIP3   OH2 4487   1.870   4.537   5.150
 1494TIP3    H1 4488   1.869   4.631   5.133
 1494TIP3    H2 4489   1.784   4.507   5.121
 1495TIP3   OH2 4490   5.736   5.085   2.305
 1495TIP3    H1 4491   5.810   5.098   2.246
 1495TIP3    H2 4492   5.712   5.173   2.334
 1496TIP3   OH2 4493   3.594   2.654   0.633
 1496TIP3    H1 4494   3.667   2.691   0.683
 1496TIP3    H2 4495   3.526   2.638   0.699
 1497TIP3   OH2 4496   4.834   3.898   3.111
 1497TIP3    H1 4497   4.833   3.864   3.022
 1497TIP3    H2 4498   4.744   3.889   3.142
 1498TIP3   OH2 4499   2.701   5.914   3.147
 1498TIP3    H1 4500   2.707   5.820   3.132
 1498TIP3    H2 4501   2.725   5.925   3.240
 1499TIP3   OH2 4502   2.247   5.611   1.398
 1499TIP3    H1 4503   2.223   5.617   1.306
 1499TIP3    H2 4504   2.182   5.666   1.443
 1500TIP3   OH2 4505   3.789   5.087   0.945
 1500TIP3    H1 4506   3.784   5.052   0.856
 1500TIP3    H2 4507   3.760   5.015   1.001
 1501TIP3   OH2 4508   1.117   5.872   2.697
 1501TIP3    H1 4509   1.197   5.892   2.647
 1501TIP3    H2 4510   1.149   5.844   2.783
 1502TIP3   OH2 4511   3.341   5.467   3.991
 1502TIP3    H1 4512   3.333   5.545   4.046
 1502TIP3    H2 4513   3.374   5.400   4.050
 1503TIP3   OH2 4514   5.725   5.695   1.970
 1503TIP3    H1 4515   5.680   5.622   1.928
 1503TIP3    H2 4516   5.753   5.661   2.055
 1504TIP3   OH2 4517   1.052   5.468   2.072
 1504TIP3    H1 4518   1.025   5.377   2.082
 1504TIP3    H2 4519   1.022   5.511   2.153
 1505TIP3   OH2 4520   0.646   3.165   4.840
 1505TIP3    H1 4521   0.613   3.163   4.930
 1505TIP3    H2 4522   0.738   3.137   4.848
 1506TIP3   OH2 4523   3.079   4.511   3.569
 1506TIP3    H1 4524   3.070   4.530   3.662
 1506TIP3    H2 4525   2.989   4.499   3.539
 1507TIP3   OH2 4526   5.540   5.490   1.460
 1507TIP3    H1 4527   5.489   5.551   1.513
 1507TIP3    H2 4528   5.569   5.423   1.523
 1508TIP3   OH2 4529   5.854   3.571   4.683
 1508TIP3    H1 4530   5.884   3.575   4.774
 1508TIP3    H2 4531   5.899   3.495   4.646
 1509TIP3   OH2 4532   5.935   2.487   4.221
 1509TIP3    H1 4533   5.948   2.517   4.311
 1509TIP3    H2 4534   5.928   2.567   4.169
 1510TIP3   OH2 4535   1.312   3.655   0.959
 1510TIP3    H1 4536   1.253   3.617   0.893
 1510TIP3    H2 4537   1.395   3.665   0.913
 1511TIP3   OH2 4538   5.123   1.717   3.273
 1511TIP3    H1 4539   5.028   1.712   3.261
 1511TIP3    H2 4540   5.136   1.787   3.337
 1512TIP3   OH2 4541   1.962   5.857   4.712
 1512TIP3    H1 4542   2.007   5.938   4.687
 1512TIP3    H2 4543   2.001   5.833   4.796
 1513TIP3   OH2 4544   5.644   4.850   0.831
 1513TIP3    H1 4545   5.690   4.875   0.911
 1513TIP3    H2 4546   5.663   4.756   0.821
 1514TIP3   OH2 4547   4.315   1.097   4.091
 1514TIP3    H1 4548   4.323   1.087   4.186
 1514TIP3    H2 4549   4.404   1.087   4.058
 1515TIP3   OH2 4550   1.502   1.925   2.268
 1515TIP3    H1 4551   1.417   1.932   2.312
 1515TIP3    H2 4552   1.566   1.937   2.338
 1516TIP3   OH2 4553   3.756   4.764   2.393
 1516TIP3    H1 4554   3.776   4.773   2.486
 1516TIP3    H2 4555   3.660   4.764   2.389
 1517TIP3   OH2 4556   2.302  -0.024   3.227
 1517TIP3    H1 4557   2.288  -0.072   3.309
 1517TIP3    H2 4558   2.310   0.067   3.254
 1518TIP3   OH2 4559   1.347   4.094   2.111
 1518TIP3    H1 4560   1.324   4.099   2.204
 1518TIP3    H2 4561   1.266   4.070   2.067
 1519TIP3   OH2 4562   4.662   4.847   4.010
 1519TIP3    H1 4563   4.609   4.780   4.053
 1519TIP3    H2 4564   4.688   4.905   4.081
 1520TIP3   OH2 4565   6.116   0.842   4.662
 1520TIP3    H1 4566   6.211   0.851   4.657
 1520TIP3    H2 4567   6.102   0.763   4.715
 1521TIP3   OH2 4568   5.602   2.903   0.802
 1521TIP3    H1 4569   5.512   2.896   0.834
 1521TIP3    H2 4570   5.593   2.936   0.712
 1522TIP3   OH2 4571   0.742   0.362   1.365
 1522TIP3    H1 4572   0.742   0.386   1.457
 1522TIP3    H2 4573   0.811   0.416   1.326
 1523TIP3   OH2 4574   4.148   2.816   1.534
 1523TIP3    H1 4575   4.231   2.777   1.508
 1523TIP3    H2 4576   4.157   2.831   1.628
 1524TIP3   OH2 4577   2.907   4.324  -0.002
 1524TIP3    H1 4578   2.828   4.354   0.043
 1524TIP3    H2 4579   2.958   4.278   0.065
 1525TIP3   OH2 4580   1.595   2.504   5.012
 1525TIP3    H1 4581   1.637   2.422   5.038
 1525TIP3    H2 4582   1.652   2.540   4.945
 1526TIP3   OH2 4583   4.398   3.041   2.744
 1526TIP3    H1 4584   4.371   3.081   2.662
 1526TIP3    H2 4585   4.339   2.966   2.754
 1527TIP3   OH2 4586   2.890   1.040   3.458
 1527TIP3    H1 4587   2.910   0.950   3.430
 1527TIP3    H2 4588   2.976   1.082   3.465
 1528TIP3   OH2 4589   2.713   4.724   1.359
 1528TIP3    H1 4590   2.662   4.784   1.305
 1528TIP3    H2 4591   2.683   4.740   1.448
 1529TIP3   OH2 4592   1.069   0.768   2.601
 1529TIP3    H1 4593   1.088   0.862   2.598
 1529TIP3    H2 4594   0.985   0.759   2.558
 1530TIP3   OH2 4595   0.964   1.526   0.019
 1530TIP3    H1 4596   1.057   1.548   0.028
 1530TIP3    H2 4597   0.941   1.552  -0.070
 1531TIP3   OH2 4598   0.487   3.163   3.459
 1531TIP3    H1 4599   0.399   3.200   3.464
 1531TIP3    H2 4600   0.534   3.221   3.398
 1532TIP3   OH2 4601   4.352   3.514   2.309
 1532TIP3    H1 4602   4.264   3.478   2.294
 1532TIP3    H2 4603   4.375   3.485   2.397
 1533TIP3   OH2 4604   4.485   0.214   3.326
 1533TIP3    H1 4605   4.489   0.309   3.326
 1533TIP3    H2 4606   4.400   0.194   3.286
 1534TIP3   OH2 4607   3.250   4.637   2.274
 1534TIP3    H1 4608   3.191   4.613   2.202
 1534TIP3    H2 4609   3.222   4.583   2.348
 1535TIP3   OH2 4610   6.278   0.963   4.361
 1535TIP3    H1 4611   6.251   0.903   4.291
 1535TIP3    H2 4612   6.310   1.041   4.314
 1536TIP3   OH2 4613   1.930   1.783   4.911
 1536TIP3    H1 4614   1.920   1.844   4.984
 1536TIP3    H2 4615   1.898   1.832   4.835
 1537TIP3   OH2 4616   3.377   1.735   3.642
 1537TIP3    H1 4617   3.459   1.709   3.599
 1537TIP3    H2 4618   3.396   1.727   3.736
 1538TIP3   OH2 4619   5.329   3.261   5.000
 1538TIP3    H1 4620   5.256   3.202   5.019
 1538TIP3    H2 4621   5.287   3.346   4.987
 1539TIP3   OH2 4622   4.550   5.213   2.953
 1539TIP3    H1 4623   4.455   5.224   2.949
 1539TIP3    H2 4624   4.568   5.188   3.044
 1540TIP3   OH2 4625   2.402   5.844   1.792
 1540TIP3    H1 4626   2.408   5.834   1.698
 1540TIP3    H2 4627   2.408   5.939   1.807
 1541TIP3   OH2 4628   3.408   3.427   4.517
 1541TIP3    H1 4629   3.483   3.395   4.568
 1541TIP3    H2 4630   3.342   3.359   4.526
 1542TIP3   OH2 4631   1.980   5.202   2.643
 1542TIP3    H1 4632   1.919   5.191   2.570
 1542TIP3    H2 4633   1.948   5.141   2.710
 1543TIP3   OH2 4634   4.959   5.215   1.201
 1543TIP3    H1 4635   4.887   5.268   1.167
 1543TIP3    H2 4636   5.021   5.209   1.129
 1544TIP3   OH2 4637   4.660   3.215   3.481
 1544TIP3    H1 4638   4.591   3.280   3.491
 1544TIP3    H2 4639   4.618   3.131   3.499
 1545TIP3   OH2 4640   0.994   4.414   4.277
 1545TIP3    H1 4641   0.929   4.414   4.206
 1545TIP3    H2 4642   0.996   4.323   4.306
 1546TIP3   OH2 4643   3.431   3.801   3.827
 1546TIP3    H1 4644   3.405   3.880   3.779
 1546TIP3    H2 4645   3.400   3.816   3.916
 1547TIP3   OH2 4646   2.428   3.127   1.612
 1547TIP3    H1 4647   2.429   3.038   1.648
 1547TIP3    H2 4648   2.402   3.182   1.686
 1548TIP3   OH2 4649   3.181   3.505   1.624
 1548TIP3    H1 4650   3.139   3.590   1.636
 1548TIP3    H2 4651   3.274   3.526   1.612
 1549TIP3   OH2 4652   6.309   0.639   2.187
 1549TIP3    H1 4653   6.383   0.700   2.184
 1549TIP3    H2 4654   6.285   0.635   2.280
 1550TIP3   OH2 4655   1.367   5.517   2.040
 1550TIP3    H1 4656   1.310   5.518   2.117
 1550TIP3    H2 4657   1.405   5.430   2.039
 1551TIP3   OH2 4658   6.202   3.612   4.334
 1551TIP3    H1 4659   6.169   3.672   4.401
 1551TIP3    H2 4660   6.219   3.531   4.382
 1552TIP3   OH2 4661   3.203   5.691   3.129
 1552TIP3    H1 4662   3.134   5.756   3.120
 1552TIP3    H2 4663   3.223   5.665   3.039
 1553TIP3   OH2 4664   4.640   0.326   3.570
 1553TIP3    H1 4665   4.619   0.358   3.482
 1553TIP3    H2 4666   4.731   0.298   3.565
 1554TIP3   OH2 4667   5.997   4.276   0.956
 1554TIP3    H1 4668   5.907   4.258   0.983
 1554TIP3    H2 4669   6.047   4.277   1.037
 1555TIP3   OH2 4670   1.039   2.438   3.961
 1555TIP3    H1 4671   0.963   2.383   3.941
 1555TIP3    H2 4672   1.069   2.407   4.046
 1556TIP3   OH2 4673   0.766   2.057   1.460
 1556TIP3    H1 4674   0.744   2.094   1.545
 1556TIP3    H2 4675   0.690   2.003   1.438
 1557TIP3   OH2 4676   2.824   4.253   2.880
 1557TIP3    H1 4677   2.731   4.268   2.892
 1557TIP3    H2 4678   2.850   4.312   2.809
 1558TIP3   OH2 4679   2.213   1.031   4.418
 1558TIP3    H1 4680   2.306   1.014   4.405
 1558TIP3    H2 4681   2.171   0.947   4.398
 1559TIP3   OH2 4682   2.897   0.245   4.846
 1559TIP3    H1 4683   2.878   0.190   4.921
 1559TIP3    H2 4684   2.886   0.188   4.770
 1560TIP3   OH2 4685   5.236   2.890   3.890
 1560TIP3    H1 4686   5.194   2.908   3.974
 1560TIP3    H2 4687   5.165   2.862   3.833
 1561TIP3   OH2 4688   1.505   2.621   1.708
 1561TIP3    H1 4689   1.437   2.590   1.768
 1561TIP3    H2 4690   1.572   2.553   1.711
 1562TIP3   OH2 4691   3.333   0.147   4.321
 1562TIP3    H1 4692   3.393   0.090   4.369
 1562TIP3    H2 4693   3.385   0.176   4.245
 1563TIP3   OH2 4694   5.527   0.634   2.111
 1563TIP3    H1 4695   5.515   0.727   2.092
 1563TIP3    H2 4696   5.619   0.617   2.088
 1564TIP3   OH2 4697   4.415   5.234   2.456
 1564TIP3    H1 4698   4.498   5.214   2.498
 1564TIP3    H2 4699   4.424   5.200   2.367
 1565TIP3   OH2 4700   1.703   4.302   2.416
 1565TIP3    H1 4701   1.636   4.282   2.351
 1565TIP3    H2 4702   1.658   4.291   2.500
 1566TIP3   OH2 4703   2.417   5.557   1.889
 1566TIP3    H1 4704   2.505   5.526   1.868
 1566TIP3    H2 4705   2.421   5.652   1.878
 1567TIP3   OH2 4706   4.364   3.223   5.204
 1567TIP3    H1 4707   4.332   3.149   5.255
 1567TIP3    H2 4708   4.368   3.190   5.114
 1568TIP3   OH2 4709   3.004   2.250   3.295
 1568TIP3    H1 4710   3.057   2.293   3.228
 1568TIP3    H2 4711   2.952   2.185   3.247
 1569TIP3   OH2 4712   4.775   3.297   0.073
 1569TIP3    H1 4713   4.824   3.307   0.154
 1569TIP3    H2 4714   4.683   3.293   0.101
 1570TIP3   OH2 4715   5.899   3.140   0.063
 1570TIP3    H1 4716   5.871   3.064   0.012
 1570TIP3    H2 4717   5.832   3.206   0.046
 1571TIP3   OH2 4718   3.880   3.065   0.233
 1571TIP3    H1 4719   3.852   3.061   0.142
 1571TIP3    H2 4720   3.814   3.014   0.281
 1572TIP3   OH2 4721   3.818   4.839   1.528
 1572TIP3    H1 4722   3.778   4.776   1.587
 1572TIP3    H2 4723   3.779   4.923   1.552
 1573TIP3   OH2 4724   4.564   5.503   1.589
 1573TIP3    H1 4725   4.594   5.421   1.550
 1573TIP3    H2 4726   4.612   5.571   1.542
 1574TIP3   OH2 4727   2.881   5.814   3.755
 1574TIP3    H1 4728   2.920   5.737   3.797
 1574TIP3    H2 4729   2.851   5.782   3.670
 1575TIP3   OH2 4730   0.143   2.121   2.029
 1575TIP3    H1 4731   0.085   2.197   2.040
 1575TIP3    H2 4732   0.229   2.159   2.013
 1576TIP3   OH2 4733   1.978   2.307   5.026
 1576TIP3    H1 4734   2.025   2.258   4.959
 1576TIP3    H2 4735   1.889   2.271   5.024
 1577TIP3   OH2 4736   3.504   4.732   1.607
 1577TIP3    H1 4737   3.584   4.692   1.642
 1577TIP3    H2 4738   3.478   4.795   1.674
 1578TIP3   OH2 4739   0.375   5.328   4.474
 1578TIP3    H1 4740   0.338   5.395   4.416
 1578TIP3    H2 4741   0.309   5.259   4.475
 1579TIP3   OH2 4742   5.333   3.479   2.646
 1579TIP3    H1 4743   5.340   3.505   2.554
 1579TIP3    H2 4744   5.282   3.398   2.644
 1580TIP3   OH2 4745   2.831   1.227   5.145
 1580TIP3    H1 4746   2.841   1.157   5.210
 1580TIP3    H2 4747   2.763   1.196   5.086
 1581TIP3   OH2 4748   5.759   1.678   1.731
 1581TIP3    H1 4749   5.676   1.702   1.771
 1581TIP3    H2 4750   5.824   1.691   1.801
 1582TIP3   OH2 4751   2.119   1.759   2.042
 1582TIP3    H1 4752   2.026   1.747   2.021
 1582TIP3    H2 4753   2.126   1.850   2.069
 1583TIP3   OH2 4754   5.511   2.441   0.827
 1583TIP3    H1 4755   5.463   2.523   0.837
 1583TIP3    H2 4756   5.451   2.384   0.779
 1584TIP3   OH2 4757   5.625   1.019   3.963
 1584TIP3    H1 4758   5.717   0.998   3.945
 1584TIP3    H2 4759   5.618   1.013   4.058
 1585TIP3   OH2 4760   5.390   0.660   3.147
 1585TIP3    H1 4761   5.390   0.713   3.227
 1585TIP3    H2 4762   5.431   0.716   3.081
 1586TIP3   OH2 4763   2.719   5.451   4.688
 1586TIP3    H1 4764   2.725   5.467   4.593
 1586TIP3    H2 4765   2.663   5.374   4.695
 1587TIP3   OH2 4766   2.126   3.355   2.691
 1587TIP3    H1 4767   2.055   3.316   2.741
 1587TIP3    H2 4768   2.179   3.281   2.663
 1588TIP3   OH2 4769   5.233   5.328   3.289
 1588TIP3    H1 4770   5.156   5.336   3.233
 1588TIP3    H2 4771   5.250   5.417   3.320
 1589TIP3   OH2 4772   1.098   2.520   5.029
 1589TIP3    H1 4773   1.061   2.467   5.099
 1589TIP3    H2 4774   1.190   2.530   5.052
 1590TIP3   OH2 4775   1.123   1.803   4.105
 1590TIP3    H1 4776   1.087   1.831   4.189
 1590TIP3    H2 4777   1.216   1.790   4.122
 1591TIP3   OH2 4778   1.786   0.946   0.939
 1591TIP3    H1 4779   1.783   0.971   1.031
 1591TIP3    H2 4780   1.749   0.857   0.938
 1592TIP3   OH2 4781   5.185   1.846   3.001
 1592TIP3    H1 4782   5.182   1.759   2.962
 1592TIP3    H2 4783   5.104   1.888   2.973
 1593TIP3   OH2 4784   6.285   0.547   4.586
 1593TIP3    H1 4785   6.312   0.639   4.584
 1593TIP3    H2 4786   6.194   0.549   4.617
 1594TIP3   OH2 4787   4.440   2.545   2.198
 1594TIP3    H1 4788   4.528   2.525   2.166
 1594TIP3    H2 4789   4.411   2.465   2.242
 1595TIP3   OH2 4790   3.091   0.136   3.494
 1595TIP3    H1 4791   3.056   0.055   3.532
 1595TIP3    H2 4792   3.074   0.203   3.560
 1596TIP3   OH2 4793   1.802   1.611   0.173
 1596TIP3    H1 4794   1.884   1.653   0.200
 1596TIP3    H2 4795   1.762   1.673   0.113
 1597TIP3   OH2 4796   3.382   0.994   0.748
 1597TIP3    H1 4797   3.444   0.936   0.702
 1597TIP3    H2 4798   3.336   1.040   0.678
 1598TIP3   OH2 4799   5.923   1.265   5.059
 1598TIP3    H1 4800   5.953   1.266   5.150
 1598TIP3    H2 4801   5.944   1.177   5.028
 1599TIP3   OH2 4802   6.042   4.212   0.444
 1599TIP3    H1 4803   6.088   4.248   0.520
 1599TIP3    H2 4804   5.959   4.259   0.442
 1600TIP3   OH2 4805   0.567   4.094   4.877
 1600TIP3    H1 4806   0.511   4.162   4.841
 1600TIP3    H2 4807   0.645   4.095   4.820
 1601TIP3   OH2 4808   1.480   0.353   1.637
 1601TIP3    H1 4809   1.438   0.337   1.552
 1601TIP3    H2 4810   1.438   0.434   1.669
 1602TIP3   OH2 4811   5.834   0.834   3.840
 1602TIP3    H1 4812   5.805   0.832   3.749
 1602TIP3    H2 4813   5.812   0.748   3.875
 1603TIP3   OH2 4814   4.478   4.999   1.840
 1603TIP3    H1 4815   4.516   5.035   1.760
 1603TIP3    H2 4816   4.551   4.998   1.902
 1604TIP3   OH2 4817   3.828   0.884   5.099
 1604TIP3    H1 4818   3.761   0.821   5.126
 1604TIP3    H2 4819   3.850   0.931   5.180
 1605TIP3   OH2 4820   3.030   5.367   4.088
 1605TIP3    H1 4821   3.082   5.287   4.091
 1605TIP3    H2 4822   2.940   5.338   4.098
 1606TIP3   OH2 4823   2.727   5.520   4.961
 1606TIP3    H1 4824   2.784   5.450   4.993
 1606TIP3    H2 4825   2.740   5.519   4.866
 1607TIP3   OH2 4826   4.014   4.574   5.046
 1607TIP3    H1 4827   3.978   4.499   5.093
 1607TIP3    H2 4828   4.094   4.597   5.094
 1608TIP3   OH2 4829   3.263   5.943   2.161
 1608TIP3    H1 4830   3.337   5.990   2.122
 1608TIP3    H2 4831   3.263   5.971   2.253
 1609TIP3   OH2 4832   4.988   3.386   4.083
 1609TIP3    H1 4833   4.899   3.416   4.102
 1609TIP3    H2 4834   5.007   3.420   3.996
 1610TIP3   OH2 4835   0.207   3.002   1.405
 1610TIP3    H1 4836   0.302   3.001   1.393
 1610TIP3    H2 4837   0.193   2.970   1.494
 1611TIP3   OH2 4838   6.233   1.491   0.797
 1611TIP3    H1 4839   6.298   1.560   0.786
 1611TIP3    H2 4840   6.257   1.425   0.731
 1612TIP3   OH2 4841   5.815   3.312   1.828
 1612TIP3    H1 4842   5.812   3.264   1.911
 1612TIP3    H2 4843   5.819   3.404   1.854
 1613TIP3   OH2 4844   4.828   0.993   0.618
 1613TIP3    H1 4845   4.839   0.898   0.617
 1613TIP3    H2 4846   4.895   1.024   0.679
 1614TIP3   OH2 4847   3.485   0.736   2.217
 1614TIP3    H1 4848   3.571   0.715   2.254
 1614TIP3    H2 4849   3.504   0.802   2.150
 1615TIP3   OH2 4850   4.808   0.239   4.006
 1615TIP3    H1 4851   4.786   0.151   3.974
 1615TIP3    H2 4852   4.750   0.297   3.957
 1616TIP3   OH2 4853   4.204   0.485   2.900
 1616TIP3    H1 4854   4.220   0.396   2.931
 1616TIP3    H2 4855   4.219   0.481   2.806
 1617TIP3   OH2 4856   0.457   2.153   2.168
 1617TIP3    H1 4857   0.387   2.166   2.232
 1617TIP3    H2 4858   0.436   2.213   2.097
 1618TIP3   OH2 4859   5.243   1.379   2.611
 1618TIP3    H1 4860   5.263   1.304   2.667
 1618TIP3    H2 4861   5.228   1.341   2.525
 1619TIP3   OH2 4862   4.196   1.884   4.484
 1619TIP3    H1 4863   4.173   1.902   4.393
 1619TIP3    H2 4864   4.165   1.961   4.532
 1620TIP3   OH2 4865   1.918   2.868   3.790
 1620TIP3    H1 4866   1.920   2.877   3.885
 1620TIP3    H2 4867   1.846   2.924   3.761
 1621TIP3   OH2 4868   2.536   0.287   0.060
 1621TIP3    H1 4869   2.445   0.268   0.082
 1621TIP3    H2 4870   2.532   0.321  -0.029
 1622TIP3   OH2 4871   5.195   1.467   3.348
 1622TIP3    H1 4872   5.192   1.425   3.262
 1622TIP3    H2 4873   5.152   1.552   3.336
 1623TIP3   OH2 4874   5.898   5.590   1.051
 1623TIP3    H1 4875   5.819   5.581   1.103
 1623TIP3    H2 4876   5.968   5.553   1.105
 1624TIP3   OH2 4877   2.423   0.072   3.922
 1624TIP3    H1 4878   2.427   0.163   3.894
 1624TIP3    H2 4879   2.383   0.075   4.009
 1625TIP3   OH2 4880   1.735   3.086   3.756
 1625TIP3    H1 4881   1.767   3.119   3.672
 1625TIP3    H2 4882   1.700   3.164   3.800
 1626TIP3   OH2 4883   5.032   4.293   4.226
 1626TIP3    H1 4884   5.084   4.254   4.296
 1626TIP3    H2 4885   4.986   4.366   4.267
 1627TIP3   OH2 4886   0.692   3.295   4.002
 1627TIP3    H1 4887   0.726   3.319   3.916
 1627TIP3    H2 4888   0.619   3.237   3.984
 1628TIP3   OH2 4889   6.067   1.506   1.874
 1628TIP3    H1 4890   6.102   1.499   1.785
 1628TIP3    H2 4891   6.110   1.434   1.922
 1629TIP3   OH2 4892   4.749   3.124   2.703
 1629TIP3    H1 4893   4.675   3.177   2.734
 1629TIP3    H2 4894   4.762   3.151   2.612
 1630TIP3   OH2 4895   0.593   3.402   2.213
 1630TIP3    H1 4896   0.609   3.311   2.185
 1630TIP3    H2 4897   0.681   3.437   2.230
 1631TIP3   OH2 4898   1.819   5.105   0.150
 1631TIP3    H1 4899   1.781   5.039   0.208
 1631TIP3    H2 4900   1.902   5.066   0.122
 1632TIP3   OH2 4901   4.039   3.797   0.512
 1632TIP3    H1 4902   4.048   3.731   0.443
 1632TIP3    H2 4903   4.067   3.879   0.471
 1633TIP3   OH2 4904   3.625   0.672   0.255
 1633TIP3    H1 4905   3.695   0.718   0.299
 1633TIP3    H2 4906   3.591   0.735   0.191
 1634TIP3   OH2 4907   0.654   0.934   3.137
 1634TIP3    H1 4908   0.726   0.872   3.127
 1634TIP3    H2 4909   0.679   0.988   3.211
 1635TIP3   OH2 4910   1.058   3.127   4.493
 1635TIP3    H1 4911   0.980   3.181   4.482
 1635TIP3    H2 4912   1.034   3.063   4.560
 1636TIP3   OH2 4913   0.336   2.876   0.032
 1636TIP3    H1 4914   0.392   2.909   0.102
 1636TIP3    H2 4915   0.248   2.875   0.070
 1637TIP3   OH2 4916   4.355   2.168   3.820
 1637TIP3    H1 4917   4.323   2.231   3.885
 1637TIP3    H2 4918   4.311   2.193   3.739
 1638TIP3   OH2 4919   5.645   1.880   3.344
 1638TIP3    H1 4920   5.562   1.856   3.302
 1638TIP3    H2 4921   5.631   1.861   3.437
 1639TIP3   OH2 4922   0.426   4.819   4.360
 1639TIP3    H1 4923   0.411   4.880   4.432
 1639TIP3    H2 4924   0.519   4.828   4.341
 1640TIP3   OH2 4925   2.106   1.136   3.966
 1640TIP3    H1 4926   2.196   1.113   3.990
 1640TIP3    H2 4927   2.076   1.193   4.036
 1641TIP3   OH2 4928   4.856   5.260   3.394
 1641TIP3    H1 4929   4.855   5.207   3.315
 1641TIP3    H2 4930   4.818   5.204   3.461
 1642TIP3   OH2 4931   3.874   0.989   3.616
 1642TIP3    H1 4932   3.931   1.066   3.614
 1642TIP3    H2 4933   3.916   0.926   3.558
 1643TIP3   OH2 4934   4.338   2.336   3.476
 1643TIP3    H1 4935   4.254   2.299   3.504
 1643TIP3    H2 4936   4.329   2.430   3.491
 1644TIP3   OH2 4937   4.852   0.273   2.850
 1644TIP3    H1 4938   4.866   0.294   2.758
 1644TIP3    H2 4939   4.766   0.310   2.870
 1645TIP3   OH2 4940   4.508   5.008   2.767
 1645TIP3    H1 4941   4.539   5.032   2.680
 1645TIP3    H2 4942   4.506   5.090   2.816
 1646TIP3   OH2 4943   4.069   2.476   2.051
 1646TIP3    H1 4944   4.010   2.468   2.125
 1646TIP3    H2 4945   4.021   2.439   1.977
 1647TIP3   OH2 4946   0.833   3.012   1.678
 1647TIP3    H1 4947   0.925   2.984   1.676
 1647TIP3    H2 4948   0.837   3.104   1.705
 1648TIP3   OH2 4949   4.392   1.222   0.747
 1648TIP3    H1 4950   4.482   1.189   0.744
 1648TIP3    H2 4951   4.351   1.185   0.669
 1649TIP3   OH2 4952   4.319   1.466   3.901
 1649TIP3    H1 4953   4.314   1.551   3.859
 1649TIP3    H2 4954   4.253   1.469   3.970
 1650TIP3   OH2 4955   0.524   4.056   2.833
 1650TIP3    H1 4956   0.457   4.100   2.886
 1650TIP3    H2 4957   0.504   3.963   2.842
 1651TIP3   OH2 4958   2.810   2.772   2.330
 1651TIP3    H1 4959   2.865   2.695   2.344
 1651TIP3    H2 4960   2.727   2.750   2.373
 1652TIP3   OH2 4961   4.654   2.459   0.812
 1652TIP3    H1 4962   4.666   2.484   0.904
 1652TIP3    H2 4963   4.609   2.375   0.815
 1653TIP3   OH2 4964   2.031   2.368   0.114
 1653TIP3    H1 4965   1.964   2.429   0.144
 1653TIP3    H2 4966   2.114   2.414   0.128
 1654TIP3   OH2 4967   6.293   5.499   0.875
 1654TIP3    H1 4968   6.204   5.471   0.856
 1654TIP3    H2 4969   6.321   5.546   0.797
 1655TIP3   OH2 4970   4.701   3.007   4.629
 1655TIP3    H1 4971   4.716   3.057   4.709
 1655TIP3    H2 4972   4.788   2.990   4.594
 1656TIP3   OH2 4973   3.185   3.765   2.243
 1656TIP3    H1 4974   3.124   3.756   2.316
 1656TIP3    H2 4975   3.231   3.681   2.239
 1657TIP3   OH2 4976   2.683   2.626   3.686
 1657TIP3    H1 4977   2.676   2.715   3.652
 1657TIP3    H2 4978   2.753   2.587   3.633
 1658TIP3   OH2 4979   2.401   5.951   3.453
 1658TIP3    H1 4980   2.389   6.041   3.422
 1658TIP3    H2 4981   2.486   5.925   3.418
 1659TIP3   OH2 4982   3.669   3.997   4.265
 1659TIP3    H1 4983   3.589   3.951   4.289
 1659TIP3    H2 4984   3.692   3.962   4.179
 1660TIP3   OH2 4985   2.952   5.074   2.501
 1660TIP3    H1 4986   3.022   5.079   2.436
 1660TIP3    H2 4987   2.912   5.161   2.500
 1661TIP3   OH2 4988   1.334   2.302   4.962
 1661TIP3    H1 4989   1.406   2.287   4.900
 1661TIP3    H2 4990   1.337   2.227   5.021
 1662TIP3   OH2 4991   0.566   0.812   3.766
 1662TIP3    H1 4992   0.614   0.895   3.766
 1662TIP3    H2 4993   0.487   0.831   3.816
 1663TIP3   OH2 4994   2.386   5.163   2.090
 1663TIP3    H1 4995   2.302   5.151   2.044
 1663TIP3    H2 4996   2.436   5.085   2.068
 1664TIP3   OH2 4997   0.341   5.928   1.114
 1664TIP3    H1 4998   0.288   5.936   1.034
 1664TIP3    H2 4999   0.422   5.974   1.095
 1665TIP3   OH2 5000   3.238   2.488   2.265
 1665TIP3    H1 5001   3.200   2.403   2.289
 1665TIP3    H2 5002   3.326   2.486   2.304
 1666TIP3   OH2 5003   3.529   2.289   4.016
 1666TIP3    H1 5004   3.566   2.237   4.087
 1666TIP3    H2 5005   3.435   2.273   4.020
 1667TIP3   OH2 5006   1.861   4.092   2.560
 1667TIP3    H1 5007   1.920   4.029   2.519
 1667TIP3    H2 5008   1.866   4.169   2.504
 1668TIP3   OH2 5009   1.477   0.476   3.321
 1668TIP3    H1 5010   1.397   0.527   3.335
 1668TIP3    H2 5011   1.484   0.420   3.399
 1669TIP3   OH2 5012   2.097   0.447   0.563
 1669TIP3    H1 5013   2.123   0.465   0.473
 1669TIP3    H2 5014   2.142   0.366   0.586
 1670TIP3   OH2 5015   3.581   2.277   0.525
 1670TIP3    H1 5016   3.549   2.266   0.436
 1670TIP3    H2 5017   3.564   2.368   0.546
 1671TIP3   OH2 5018   6.102   2.447   4.466
 1671TIP3    H1 5019   6.136   2.484   4.384
 1671TIP3    H2 5020   6.122   2.354   4.461
 1672TIP3   OH2 5021   2.462   3.606   0.639
 1672TIP3    H1 5022   2.507   3.582   0.720
 1672TIP3    H2 5023   2.489   3.540   0.575
 1673TIP3   OH2 5024   0.245   4.498   2.661
 1673TIP3    H1 5025   0.160   4.461   2.638
 1673TIP3    H2 5026   0.228   4.591   2.675
 1674TIP3   OH2 5027   1.544   2.085   0.614
 1674TIP3    H1 5028   1.499   2.026   0.552
 1674TIP3    H2 5029   1.637   2.073   0.595
 1675TIP3   OH2 5030   3.642   0.621   4.137
 1675TIP3    H1 5031   3.618   0.576   4.056
 1675TIP3    H2 5032   3.673   0.707   4.109
 1676TIP3   OH2 5033   5.235   5.401   1.693
 1676TIP3    H1 5034   5.249   5.417   1.787
 1676TIP3    H2 5035   5.166   5.335   1.690
 1677TIP3   OH2 5036   2.179   5.358   4.833
 1677TIP3    H1 5037   2.247   5.326   4.774
 1677TIP3    H2 5038   2.214   5.340   4.921
 1678TIP3   OH2 5039   2.373   0.400   1.097
 1678TIP3    H1 5040   2.405   0.385   1.008
 1678TIP3    H2 5041   2.293   0.451   1.086
 1679TIP3   OH2 5042   3.897   2.275   3.510
 1679TIP3    H1 5043   3.870   2.366   3.504
 1679TIP3    H2 5044   3.928   2.254   3.422
 1680TIP3   OH2 5045   6.020   5.447   1.250
 1680TIP3    H1 5046   5.956   5.392   1.296
 1680TIP3    H2 5047   6.094   5.389   1.233
 1681TIP3   OH2 5048   1.092   3.516   1.628
 1681TIP3    H1 5049   1.106   3.533   1.721
 1681TIP3    H2 5050   1.034   3.587   1.599
 1682TIP3   OH2 5051   1.696   0.790   4.588
 1682TIP3    H1 5052   1.605   0.781   4.560
 1682TIP3    H2 5053   1.737   0.707   4.562
 1683TIP3   OH2 5054   5.580   3.004   2.767
 1683TIP3    H1 5055   5.568   3.006   2.862
 1683TIP3    H2 5056   5.647   3.070   2.750
 1684TIP3   OH2 5057   1.256   0.542   2.554
 1684TIP3    H1 5058   1.200   0.617   2.575
 1684TIP3    H2 5059   1.340   0.581   2.530
 1685TIP3   OH2 5060   1.510   0.248   0.216
 1685TIP3    H1 5061   1.575   0.289   0.273
 1685TIP3    H2 5062   1.485   0.168   0.261
 1686TIP3   OH2 5063   4.201   4.877   2.811
 1686TIP3    H1 5064   4.253   4.796   2.819
 1686TIP3    H2 5065   4.258   4.945   2.846
 1687TIP3   OH2 5066   2.112   5.562   4.274
 1687TIP3    H1 5067   2.201   5.557   4.238
 1687TIP3    H2 5068   2.107   5.649   4.313
 1688TIP3   OH2 5069   3.151   2.606   0.536
 1688TIP3    H1 5070   3.087   2.655   0.484
 1688TIP3    H2 5071   3.198   2.673   0.586
 1689TIP3   OH2 5072   4.880   1.065   3.133
 1689TIP3    H1 5073   4.949   1.001   3.118
 1689TIP3    H2 5074   4.901   1.138   3.075
 1690TIP3   OH2 5075   2.445   0.658   0.109
 1690TIP3    H1 5076   2.458   0.729   0.047
 1690TIP3    H2 5077   2.384   0.599   0.065
 1691TIP3   OH2 5078   4.527   0.747   1.629
 1691TIP3    H1 5079   4.541   0.654   1.644
 1691TIP3    H2 5080   4.485   0.778   1.710
 1692TIP3   OH2 5081   1.905   2.339   0.387
 1692TIP3    H1 5082   1.840   2.387   0.336
 1692TIP3    H2 5083   1.968   2.307   0.321
 1693TIP3   OH2 5084   0.525   2.433   4.234
 1693TIP3    H1 5085   0.614   2.397   4.235
 1693TIP3    H2 5086   0.536   2.526   4.254
 1694TIP3   OH2 5087   5.829   4.998   4.183
 1694TIP3    H1 5088   5.857   4.916   4.223
 1694TIP3    H2 5089   5.911   5.041   4.158
 1695TIP3   OH2 5090   3.712   3.940   2.845
 1695TIP3    H1 5091   3.779   3.907   2.905
 1695TIP3    H2 5092   3.631   3.899   2.875
 1696TIP3   OH2 5093   1.800   0.369   3.714
 1696TIP3    H1 5094   1.878   0.328   3.751
 1696TIP3    H2 5095   1.732   0.302   3.719
 1697TIP3   OH2 5096   5.071   3.246   4.469
 1697TIP3    H1 5097   5.124   3.222   4.545
 1697TIP3    H2 5098   5.118   3.319   4.429
 1698TIP3   OH2 5099   3.557   1.631   1.152
 1698TIP3    H1 5100   3.627   1.627   1.216
 1698TIP3    H2 5101   3.478   1.650   1.203
 1699TIP3   OH2 5102   5.946   5.420   4.236
 1699TIP3    H1 5103   5.865   5.409   4.285
 1699TIP3    H2 5104   6.011   5.369   4.285
 1700TIP3   OH2 5105   0.587   3.183   1.420
 1700TIP3    H1 5106   0.536   3.222   1.349
 1700TIP3    H2 5107   0.653   3.131   1.376
 1701TIP3   OH2 5108   2.158   1.229   3.385
 1701TIP3    H1 5109   2.252   1.238   3.401
 1701TIP3    H2 5110   2.124   1.188   3.465
 1702TIP3   OH2 5111   1.528   2.222   4.804
 1702TIP3    H1 5112   1.579   2.222   4.885
 1702TIP3    H2 5113   1.593   2.210   4.734
 1703TIP3   OH2 5114   3.644   5.634   0.914
 1703TIP3    H1 5115   3.556   5.607   0.887
 1703TIP3    H2 5116   3.683   5.556   0.953
 1704TIP3   OH2 5117   1.230   2.589   2.502
 1704TIP3    H1 5118   1.227   2.522   2.434
 1704TIP3    H2 5119   1.234   2.539   2.584
 1705TIP3   OH2 5120   4.235   0.858   3.861
 1705TIP3    H1 5121   4.315   0.811   3.885
 1705TIP3    H2 5122   4.194   0.803   3.795
 1706TIP3   OH2 5123   1.109   1.304   4.165
 1706TIP3    H1 5124   1.089   1.332   4.076
 1706TIP3    H2 5125   1.036   1.338   4.217
 1707TIP3   OH2 5126   2.112   3.425   1.916
 1707TIP3    H1 5127   2.058   3.405   1.992
 1707TIP3    H2 5128   2.186   3.476   1.952
 1708TIP3   OH2 5129   0.790   2.292   3.497
 1708TIP3    H1 5130   0.863   2.279   3.438
 1708TIP3    H2 5131   0.712   2.281   3.442
 1709TIP3   OH2 5132   5.825   2.802   2.352
 1709TIP3    H1 5133   5.740   2.832   2.320
 1709TIP3    H2 5134   5.881   2.880   2.351
 1710TIP3   OH2 5135   1.263   1.916   1.768
 1710TIP3    H1 5136   1.211   1.842   1.800
 1710TIP3    H2 5137   1.279   1.896   1.676
 1711TIP3   OH2 5138   1.979   4.455   0.284
 1711TIP3    H1 5139   1.940   4.538   0.311
 1711TIP3    H2 5140   1.913   4.389   0.308
 1712TIP3   OH2 5141   2.049   2.916   2.129
 1712TIP3    H1 5142   2.025   2.830   2.093
 1712TIP3    H2 5143   2.053   2.902   2.224
 1713TIP3   OH2 5144   1.090   5.540   3.418
 1713TIP3    H1 5145   1.007   5.523   3.373
 1713TIP3    H2 5146   1.070   5.610   3.480
 1714TIP3   OH2 5147   1.544   5.780   4.549
 1714TIP3    H1 5148   1.484   5.776   4.623
 1714TIP3    H2 5149   1.596   5.700   4.556
 1715TIP3   OH2 5150   1.734   4.285   1.743
 1715TIP3    H1 5151   1.782   4.225   1.800
 1715TIP3    H2 5152   1.710   4.233   1.666
 1716TIP3   OH2 5153   2.140   1.047   3.070
 1716TIP3    H1 5154   2.166   1.022   3.159
 1716TIP3    H2 5155   2.060   0.997   3.055
 1717TIP3   OH2 5156   4.615   3.555   4.610
 1717TIP3    H1 5157   4.666   3.597   4.540
 1717TIP3    H2 5158   4.676   3.494   4.651
 1718TIP3   OH2 5159   3.995   3.398   0.791
 1718TIP3    H1 5160   3.987   3.306   0.768
 1718TIP3    H2 5161   3.921   3.416   0.849
 1719TIP3   OH2 5162   2.290   0.829   4.727
 1719TIP3    H1 5163   2.232   0.753   4.728
 1719TIP3    H2 5164   2.359   0.806   4.665
 1720TIP3   OH2 5165   0.469   0.425   1.496
 1720TIP3    H1 5166   0.531   0.438   1.425
 1720TIP3    H2 5167   0.522   0.431   1.576
 1721TIP3   OH2 5168   3.006   3.236   4.265
 1721TIP3    H1 5169   2.921   3.207   4.231
 1721TIP3    H2 5170   3.061   3.246   4.187
 1722TIP3   OH2 5171   5.950   4.635   3.888
 1722TIP3    H1 5172   5.991   4.574   3.950
 1722TIP3    H2 5173   6.016   4.703   3.874
 1723TIP3   OH2 5174   2.263   4.018   4.458
 1723TIP3    H1 5175   2.269   4.109   4.427
 1723TIP3    H2 5176   2.207   3.975   4.394
 1724TIP3   OH2 5177   2.936   2.056   3.116
 1724TIP3    H1 5178   2.876   2.020   3.183
 1724TIP3    H2 5179   3.014   2.001   3.122
 1725TIP3   OH2 5180   1.849   5.467   2.390
 1725TIP3    H1 5181   1.945   5.469   2.391
 1725TIP3    H2 5182   1.826   5.489   2.299
 1726TIP3   OH2 5183   5.327   4.042  -0.011
 1726TIP3    H1 5184   5.328   4.056   0.084
 1726TIP3    H2 5185   5.285   4.121  -0.046
 1727TIP3   OH2 5186   5.450   4.793   3.327
 1727TIP3    H1 5187   5.385   4.769   3.262
 1727TIP3    H2 5188   5.496   4.868   3.288
 1728TIP3   OH2 5189   3.078   2.394   3.710
 1728TIP3    H1 5190   3.024   2.332   3.661
 1728TIP3    H2 5191   3.050   2.480   3.680
 1729TIP3   OH2 5192   4.625   2.421   3.629
 1729TIP3    H1 5193   4.564   2.464   3.570
 1729TIP3    H2 5194   4.576   2.348   3.666
 1730TIP3   OH2 5195   1.055   5.849   0.783
 1730TIP3    H1 5196   0.988   5.913   0.762
 1730TIP3    H2 5197   1.126   5.867   0.721
 1731TIP3   OH2 5198   1.339   4.044   1.202
 1731TIP3    H1 5199   1.390   3.963   1.202
 1731TIP3    H2 5200   1.272   4.031   1.135
 1732TIP3   OH2 5201   0.267   5.792  -0.024
 1732TIP3    H1 5202   0.315   5.714  -0.052
 1732TIP3    H2 5203   0.286   5.799   0.070
 1733TIP3   OH2 5204   4.705   2.365   0.218
 1733TIP3    H1 5205   4.659   2.407   0.145
 1733TIP3    H2 5206   4.731   2.437   0.275
 1734TIP3   OH2 5207   6.284   0.409   1.359
 1734TIP3    H1 5208   6.319   0.376   1.276
 1734TIP3    H2 5209   6.245   0.333   1.401
 1735TIP3   OH2 5210   6.268   1.195   3.758
 1735TIP3    H1 5211   6.307   1.159   3.837
 1735TIP3    H2 5212   6.224   1.275   3.787
 1736TIP3   OH2 5213   2.995   3.374   1.099
 1736TIP3    H1 5214   3.011   3.415   1.184
 1736TIP3    H2 5215   3.020   3.282   1.112
 1737TIP3   OH2 5216   2.587   3.800   0.237
 1737TIP3    H1 5217   2.580   3.878   0.181
 1737TIP3    H2 5218   2.585   3.835   0.326
 1738TIP3   OH2 5219   4.975   2.423   0.789
 1738TIP3    H1 5220   4.951   2.511   0.818
 1738TIP3    H2 5221   4.932   2.364   0.851
 1739TIP3   OH2 5222   3.121   0.429   3.045
 1739TIP3    H1 5223   3.213   0.457   3.044
 1739TIP3    H2 5224   3.121   0.345   2.999
 1740TIP3   OH2 5225   0.132   5.653   4.610
 1740TIP3    H1 5226   0.063   5.688   4.667
 1740TIP3    H2 5227   0.092   5.578   4.568
 1741TIP3   OH2 5228   5.678   3.086   3.389
 1741TIP3    H1 5229   5.590   3.107   3.420
 1741TIP3    H2 5230   5.701   3.156   3.328
 1742TIP3   OH2 5231   5.089   4.088   0.166
 1742TIP3    H1 5232   5.125   4.111   0.252
 1742TIP3    H2 5233   5.006   4.135   0.161
 1743TIP3   OH2 5234   4.219   2.527   3.051
 1743TIP3    H1 5235   4.162   2.573   3.112
 1743TIP3    H2 5236   4.238   2.443   3.093
 1744TIP3   OH2 5237   0.215   3.424   3.278
 1744TIP3    H1 5238   0.264   3.380   3.208
 1744TIP3    H2 5239   0.225   3.365   3.353
 1745TIP3   OH2 5240   3.860   1.542   0.763
 1745TIP3    H1 5241   3.829   1.572   0.848
 1745TIP3    H2 5242   3.800   1.582   0.700
 1746TIP3   OH2 5243   3.508   0.154   4.971
 1746TIP3    H1 5244   3.526   0.222   5.036
 1746TIP3    H2 5245   3.546   0.074   5.008
 1747TIP3   OH2 5246   1.968   5.378   3.906
 1747TIP3    H1 5247   1.935   5.288   3.912
 1747TIP3    H2 5248   2.049   5.371   3.855
 1748TIP3   OH2 5249   3.194   3.890   3.163
 1748TIP3    H1 5250   3.170   3.834   3.089
 1748TIP3    H2 5251   3.117   3.945   3.178
 1749TIP3   OH2 5252   2.461   3.313   3.343
 1749TIP3    H1 5253   2.460   3.401   3.305
 1749TIP3    H2 5254   2.384   3.311   3.400
 1750TIP3   OH2 5255   4.474   5.184   0.844
 1750TIP3    H1 5256   4.393   5.234   0.851
 1750TIP3    H2 5257   4.543   5.245   0.870
 1751TIP3   OH2 5258   0.848   3.891   4.522
 1751TIP3    H1 5259   0.935   3.932   4.522
 1751TIP3    H2 5260   0.863   3.803   4.489
 1752TIP3   OH2 5261   5.888   4.034   2.446
 1752TIP3    H1 5262   5.815   3.978   2.419
 1752TIP3    H2 5263   5.847   4.108   2.490
 1753TIP3   OH2 5264   1.309   2.348   1.128
 1753TIP3    H1 5265   1.323   2.322   1.037
 1753TIP3    H2 5266   1.361   2.428   1.138
 1754TIP3   OH2 5267   3.116   4.794   0.291
 1754TIP3    H1 5268   3.180   4.723   0.293
 1754TIP3    H2 5269   3.138   4.849   0.366
 1755TIP3   OH2 5270   2.289   2.736   3.840
 1755TIP3    H1 5271   2.360   2.751   3.777
 1755TIP3    H2 5272   2.303   2.645   3.869
 1756TIP3   OH2 5273   5.571   5.030   0.376
 1756TIP3    H1 5274   5.656   4.987   0.379
 1756TIP3    H2 5275   5.509   4.962   0.404
 1757TIP3   OH2 5276   2.457   5.844   3.000
 1757TIP3    H1 5277   2.507   5.818   3.077
 1757TIP3    H2 5278   2.506   5.809   2.926
 1758TIP3   OH2 5279   5.207   3.121   3.475
 1758TIP3    H1 5280   5.186   3.095   3.385
 1758TIP3    H2 5281   5.151   3.065   3.529
 1759TIP3   OH2 5282   0.547   2.751   3.151
 1759TIP3    H1 5283   0.545   2.656   3.153
 1759TIP3    H2 5284   0.608   2.776   3.221
 1760TIP3   OH2 5285   4.245   3.734   2.838
 1760TIP3    H1 5286   4.176   3.788   2.875
 1760TIP3    H2 5287   4.285   3.789   2.770
 1761TIP3   OH2 5288   6.097   1.563   4.069
 1761TIP3    H1 5289   6.118   1.548   3.977
 1761TIP3    H2 5290   6.180   1.586   4.110
 1762TIP3   OH2 5291   1.483   0.817   0.439
 1762TIP3    H1 5292   1.441   0.757   0.378
 1762TIP3    H2 5293   1.418   0.831   0.508
 1763TIP3   OH2 5294   5.967   1.301   0.396
 1763TIP3    H1 5295   6.000   1.370   0.453
 1763TIP3    H2 5296   6.034   1.292   0.328
 1764TIP3   OH2 5297   1.978   5.204   5.107
 1764TIP3    H1 5298   1.978   5.135   5.173
 1764TIP3    H2 5299   2.071   5.225   5.095
 1765TIP3   OH2 5300   4.248   3.857   0.041
 1765TIP3    H1 5301   4.335   3.860   0.081
 1765TIP3    H2 5302   4.249   3.778  -0.013
 1766TIP3   OH2 5303   5.916   5.678   1.368
 1766TIP3    H1 5304   5.827   5.660   1.337
 1766TIP3    H2 5305   5.972   5.619   1.317
 1767TIP3   OH2 5306   0.060   0.028   0.767
 1767TIP3    H1 5307   0.135  -0.022   0.798
 1767TIP3    H2 5308  -0.014  -0.033   0.775
 1768TIP3   OH2 5309   2.572   4.662   3.022
 1768TIP3    H1 5310   2.593   4.641   2.931
 1768TIP3    H2 5311   2.656   4.653   3.068
 1769TIP3   OH2 5312   5.334   2.954   0.925
 1769TIP3    H1 5313   5.254   2.921   0.965
 1769TIP3    H2 5314   5.324   3.049   0.928
 1770TIP3   OH2 5315   2.851   0.714   0.495
 1770TIP3    H1 5316   2.821   0.711   0.405
 1770TIP3    H2 5317   2.796   0.651   0.541
 1771TIP3   OH2 5318   3.515   1.328   1.280
 1771TIP3    H1 5319   3.526   1.258   1.214
 1771TIP3    H2 5320   3.468   1.397   1.234
 1772TIP3   OH2 5321   4.252   3.193   2.532
 1772TIP3    H1 5322   4.250   3.223   2.441
 1772TIP3    H2 5323   4.184   3.126   2.537
 1773TIP3   OH2 5324   1.736   1.652   4.648
 1773TIP3    H1 5325   1.796   1.593   4.603
 1773TIP3    H2 5326   1.736   1.622   4.739
 1774TIP3   OH2 5327   5.929   2.285   1.829
 1774TIP3    H1 5328   5.881   2.334   1.895
 1774TIP3    H2 5329   6.019   2.282   1.861
 1775TIP3   OH2 5330   2.890   1.334   4.625
 1775TIP3    H1 5331   2.952   1.401   4.653
 1775TIP3    H2 5332   2.810   1.383   4.605
 1776TIP3   OH2 5333   3.945   4.999   0.100
 1776TIP3    H1 5334   3.919   5.070   0.042
 1776TIP3    H2 5335   4.021   4.959   0.056
 1777TIP3   OH2 5336   4.587   2.714   4.220
 1777TIP3    H1 5337   4.581   2.620   4.200
 1777TIP3    H2 5338   4.580   2.718   4.315
 1778TIP3   OH2 5339   1.313   3.619   4.096
 1778TIP3    H1 5340   1.280   3.605   4.185
 1778TIP3    H2 5341   1.274   3.548   4.045
 1779TIP3   OH2 5342   3.467   5.667   3.250
 1779TIP3    H1 5343   3.380   5.675   3.211
 1779TIP3    H2 5344   3.470   5.734   3.318
 1780TIP3   OH2 5345   2.574   5.966   1.207
 1780TIP3    H1 5346   2.553   5.895   1.268
 1780TIP3    H2 5347   2.663   5.946   1.177
 1781TIP3   OH2 5348   6.268   1.637   4.981
 1781TIP3    H1 5349   6.306   1.558   5.020
 1781TIP3    H2 5350   6.331   1.664   4.915
 1782TIP3   OH2 5351   1.969   2.178   4.589
 1782TIP3    H1 5352   1.916   2.142   4.518
 1782TIP3    H2 5353   2.042   2.220   4.545
 1783TIP3   OH2 5354   1.238   0.437   4.362
 1783TIP3    H1 5355   1.324   0.475   4.381
 1783TIP3    H2 5356   1.184   0.511   4.336
 1784TIP3   OH2 5357   5.767   3.216   1.145
 1784TIP3    H1 5358   5.711   3.256   1.212
 1784TIP3    H2 5359   5.712   3.214   1.067
 1785TIP3   OH2 5360   4.261   4.268   3.863
 1785TIP3    H1 5361   4.207   4.202   3.818
 1785TIP3    H2 5362   4.351   4.237   3.852
 1786TIP3   OH2 5363   1.746   3.418   0.964
 1786TIP3    H1 5364   1.811   3.419   1.033
 1786TIP3    H2 5365   1.712   3.328   0.963
 1787TIP3   OH2 5366   3.775   5.390   0.740
 1787TIP3    H1 5367   3.740   5.389   0.829
 1787TIP3    H2 5368   3.750   5.476   0.705
 1788TIP3   OH2 5369   6.232   2.995   3.283
 1788TIP3    H1 5370   6.167   3.029   3.345
 1788TIP3    H2 5371   6.282   3.072   3.256
 1789TIP3   OH2 5372   4.554   3.291   2.773
 1789TIP3    H1 5373   4.517   3.369   2.815
 1789TIP3    H2 5374   4.490   3.222   2.790
 1790TIP3   OH2 5375   5.811   1.259   1.673
 1790TIP3    H1 5376   5.856   1.215   1.745
 1790TIP3    H2 5377   5.735   1.300   1.714
 1791TIP3   OH2 5378   1.894   4.668   3.476
 1791TIP3    H1 5379   1.922   4.659   3.385
 1791TIP3    H2 5380   1.814   4.615   3.482
 1792TIP3   OH2 5381   5.508   3.354   0.393
 1792TIP3    H1 5382   5.528   3.429   0.337
 1792TIP3    H2 5383   5.589   3.339   0.442
 1793TIP3   OH2 5384   0.680   0.102   4.088
 1793TIP3    H1 5385   0.615   0.157   4.045
 1793TIP3    H2 5386   0.632   0.058   4.158
 1794TIP3   OH2 5387   0.334   0.747   3.900
 1794TIP3    H1 5388   0.244   0.758   3.931
 1794TIP3    H2 5389   0.379   0.702   3.972
 1795TIP3   OH2 5390   5.818   3.504   0.506
 1795TIP3    H1 5391   5.889   3.550   0.551
 1795TIP3    H2 5392   5.825   3.533   0.415
 1796TIP3   OH2 5393   3.203   5.313   2.101
 1796TIP3    H1 5394   3.221   5.301   2.008
 1796TIP3    H2 5395   3.170   5.402   2.108
 1797TIP3   OH2 5396   1.988   1.885   0.091
 1797TIP3    H1 5397   1.927   1.887   0.165
 1797TIP3    H2 5398   1.933   1.897   0.014
 1798TIP3   OH2 5399   5.322   3.973   5.101
 1798TIP3    H1 5400   5.251   4.033   5.126
 1798TIP3    H2 5401   5.347   4.003   5.013
 1799TIP3   OH2 5402   5.789   5.085   4.941
 1799TIP3    H1 5403   5.802   4.999   4.903
 1799TIP3    H2 5404   5.811   5.146   4.871
 1800TIP3   OH2 5405   2.882   3.127   1.432
 1800TIP3    H1 5406   2.806   3.074   1.455
 1800TIP3    H2 5407   2.917   3.156   1.516
 1801TIP3   OH2 5408   4.005   0.767   4.295
 1801TIP3    H1 5409   4.086   0.743   4.251
 1801TIP3    H2 5410   3.955   0.685   4.300
 1802TIP3   OH2 5411   1.814   2.523   0.596
 1802TIP3    H1 5412   1.727   2.500   0.562
 1802TIP3    H2 5413   1.871   2.453   0.564
 1803TIP3   OH2 5414   2.172   3.097   0.848
 1803TIP3    H1 5415   2.221   3.179   0.849
 1803TIP3    H2 5416   2.158   3.078   0.755
 1804TIP3   OH2 5417   5.088   3.766   0.742
 1804TIP3    H1 5418   5.132   3.762   0.657
 1804TIP3    H2 5419   4.996   3.784   0.721
 1805TIP3   OH2 5420   4.605   3.828   5.089
 1805TIP3    H1 5421   4.644   3.841   5.002
 1805TIP3    H2 5422   4.551   3.906   5.103
 1806TIP3   OH2 5423   5.349   4.093   3.040
 1806TIP3    H1 5424   5.299   4.168   3.074
 1806TIP3    H2 5425   5.408   4.131   2.975
 1807TIP3   OH2 5426   1.026   2.401   1.612
 1807TIP3    H1 5427   1.030   2.322   1.559
 1807TIP3    H2 5428   0.985   2.466   1.556
 1808TIP3   OH2 5429   4.197   5.812   2.890
 1808TIP3    H1 5430   4.169   5.724   2.914
 1808TIP3    H2 5431   4.119   5.852   2.852
 1809TIP3   OH2 5432   4.102   1.535   1.052
 1809TIP3    H1 5433   4.022   1.518   1.002
 1809TIP3    H2 5434   4.172   1.499   0.998
 1810TIP3   OH2 5435  -0.003   3.839   1.236
 1810TIP3    H1 5436  -0.083   3.829   1.186
 1810TIP3    H2 5437   0.058   3.775   1.199
 1811TIP3   OH2 5438   1.911   0.477   0.140
 1811TIP3    H1 5439   1.884   0.559   0.183
 1811TIP3    H2 5440   1.890   0.491   0.047
 1812TIP3   OH2 5441   1.241   2.207   0.563
 1812TIP3    H1 5442   1.236   2.208   0.659
 1812TIP3    H2 5443   1.255   2.298   0.539
 1813TIP3   OH2 5444   1.270   3.901   4.264
 1813TIP3    H1 5445   1.221   3.977   4.232
 1813TIP3    H2 5446   1.226   3.877   4.345
 1814TIP3   OH2 5447   3.607   3.050   1.244
 1814TIP3    H1 5448   3.605   3.036   1.338
 1814TIP3    H2 5449   3.535   2.997   1.210
 1815TIP3   OH2 5450   4.808   4.068   3.547
 1815TIP3    H1 5451   4.865   4.131   3.592
 1815TIP3    H2 5452   4.819   4.089   3.454
 1816TIP3   OH2 5453   5.202   5.641   1.338
 1816TIP3    H1 5454   5.255   5.638   1.418
 1816TIP3    H2 5455   5.147   5.718   1.349
 1817TIP3   OH2 5456   4.697   3.641   1.647
 1817TIP3    H1 5457   4.674   3.576   1.713
 1817TIP3    H2 5458   4.791   3.631   1.634
 1818TIP3   OH2 5459   5.663   2.440   2.335
 1818TIP3    H1 5460   5.626   2.356   2.309
 1818TIP3    H2 5461   5.593   2.504   2.318
 1819TIP3   OH2 5462   0.624   5.042   0.721
 1819TIP3    H1 5463   0.634   5.116   0.661
 1819TIP3    H2 5464   0.616   5.081   0.808
 1820TIP3   OH2 5465   2.843   4.010   2.061
 1820TIP3    H1 5466   2.908   3.986   2.127
 1820TIP3    H2 5467   2.841   4.106   2.064
 1821TIP3   OH2 5468   4.119   1.481   4.416
 1821TIP3    H1 5469   4.175   1.443   4.348
 1821TIP3    H2 5470   4.044   1.516   4.369
 1822TIP3   OH2 5471   1.245   0.574   4.740
 1822TIP3    H1 5472   1.254   0.481   4.759
 1822TIP3    H2 5473   1.172   0.603   4.795
 1823TIP3   OH2 5474   2.887   4.233   4.628
 1823TIP3    H1 5475   2.830   4.162   4.599
 1823TIP3    H2 5476   2.917   4.205   4.714
 1824TIP3   OH2 5477   4.525   2.864   4.862
 1824TIP3    H1 5478   4.615   2.839   4.840
 1824TIP3    H2 5479   4.518   2.846   4.956
 1825TIP3   OH2 5480   1.854   4.455   0.036
 1825TIP3    H1 5481   1.807   4.385   0.081
 1825TIP3    H2 5482   1.916   4.487   0.102
 1826TIP3   OH2 5483   4.533   1.497   4.940
 1826TIP3    H1 5484   4.564   1.436   4.873
 1826TIP3    H2 5485   4.443   1.519   4.914
 1827TIP3   OH2 5486   2.637   3.251   3.726
 1827TIP3    H1 5487   2.703   3.208   3.672
 1827TIP3    H2 5488   2.564   3.189   3.729
 1828TIP3   OH2 5489   4.973   0.936   4.265
 1828TIP3    H1 5490   4.938   1.022   4.288
 1828TIP3    H2 5491   5.002   0.899   4.348
 1829TIP3   OH2 5492   1.381   4.838   0.176
 1829TIP3    H1 5493   1.295   4.802   0.154
 1829TIP3    H2 5494   1.440   4.802   0.109
 1830TIP3   OH2 5495   4.382   0.555   3.906
 1830TIP3    H1 5496   4.459   0.498   3.902
 1830TIP3    H2 5497   4.341   0.546   3.820
 1831TIP3   OH2 5498   3.126   2.945   0.980
 1831TIP3    H1 5499   3.077   2.970   0.902
 1831TIP3    H2 5500   3.184   3.020   0.998
 1832TIP3   OH2 5501   3.533   1.110   0.966
 1832TIP3    H1 5502   3.481   1.067   0.898
 1832TIP3    H2 5503   3.522   1.204   0.948
 1833TIP3   OH2 5504   5.240   5.502   2.315
 1833TIP3    H1 5505   5.151   5.495   2.350
 1833TIP3    H2 5506   5.266   5.592   2.334
 1834TIP3   OH2 5507   4.109   2.112   1.886
 1834TIP3    H1 5508   4.142   2.093   1.973
 1834TIP3    H2 5509   4.022   2.072   1.884
 1835TIP3   OH2 5510   0.249   0.668   0.398
 1835TIP3    H1 5511   0.319   0.646   0.460
 1835TIP3    H2 5512   0.170   0.673   0.452
 1836TIP3   OH2 5513   5.444   3.732   3.248
 1836TIP3    H1 5514   5.499   3.797   3.292
 1836TIP3    H2 5515   5.361   3.735   3.295
 1837TIP3   OH2 5516   6.285   2.300   5.166
 1837TIP3    H1 5517   6.358   2.244   5.140
 1837TIP3    H2 5518   6.326   2.381   5.197
 1838TIP3   OH2 5519   1.140   3.651   1.913
 1838TIP3    H1 5520   1.052   3.689   1.914
 1838TIP3    H2 5521   1.194   3.717   1.869
 1839TIP3   OH2 5522   5.619   1.352   0.675
 1839TIP3    H1 5523   5.560   1.341   0.749
 1839TIP3    H2 5524   5.584   1.295   0.607
 1840TIP3   OH2 5525   5.277   1.212   0.425
 1840TIP3    H1 5526   5.278   1.281   0.358
 1840TIP3    H2 5527   5.304   1.256   0.505
 1841TIP3   OH2 5528   0.219   0.913   1.119
 1841TIP3    H1 5529   0.234   1.000   1.084
 1841TIP3    H2 5530   0.307   0.877   1.134
 1842TIP3   OH2 5531   0.081   1.451   3.845
 1842TIP3    H1 5532   0.098   1.473   3.936
 1842TIP3    H2 5533  -0.014   1.461   3.835
 1843TIP3   OH2 5534   2.300   3.687   3.716
 1843TIP3    H1 5535   2.309   3.674   3.810
 1843TIP3    H2 5536   2.224   3.633   3.692
 1844TIP3   OH2 5537   3.342   4.926   2.863
 1844TIP3    H1 5538   3.416   4.888   2.817
 1844TIP3    H2 5539   3.304   4.989   2.801
 1845TIP3   OH2 5540   0.895   3.867   3.840
 1845TIP3    H1 5541   0.824   3.847   3.780
 1845TIP3    H2 5542   0.852   3.893   3.922
 1846TIP3   OH2 5543   1.652   4.773   4.953
 1846TIP3    H1 5544   1.593   4.848   4.956
 1846TIP3    H2 5545   1.718   4.790   5.020
 1847TIP3   OH2 5546   4.982   5.722   3.356
 1847TIP3    H1 5547   4.892   5.753   3.366
 1847TIP3    H2 5548   5.031   5.799   3.329
 1848TIP3   OH2 5549   4.227   4.227   2.535
 1848TIP3    H1 5550   4.214   4.146   2.584
 1848TIP3    H2 5551   4.318   4.222   2.504
 1849TIP3   OH2 5552   1.309   5.767   0.941
 1849TIP3    H1 5553   1.331   5.676   0.920
 1849TIP3    H2 5554   1.214   5.767   0.950
 1850TIP3   OH2 5555   3.160   2.556   3.355
 1850TIP3    H1 5556   3.227   2.489   3.367
 1850TIP3    H2 5557   3.131   2.545   3.264
 1851TIP3   OH2 5558   4.118   6.014   0.547
 1851TIP3    H1 5559   4.074   5.929   0.543
 1851TIP3    H2 5560   4.135   6.027   0.641
 1852TIP3   OH2 5561   1.574   2.009   2.931
 1852TIP3    H1 5562   1.635   1.974   2.866
 1852TIP3    H2 5563   1.525   1.933   2.961
 1853TIP3   OH2 5564   0.950   3.026   4.159
 1853TIP3    H1 5565   1.007   2.961   4.200
 1853TIP3    H2 5566   0.976   3.026   4.067
 1854TIP3   OH2 5567   5.119   0.311   2.003
 1854TIP3    H1 5568   5.213   0.300   1.988
 1854TIP3    H2 5569   5.095   0.386   1.947
 1855TIP3   OH2 5570   1.750   0.608   0.903
 1855TIP3    H1 5571   1.839   0.595   0.871
 1855TIP3    H2 5572   1.695   0.558   0.844
 1856TIP3   OH2 5573   6.048   0.377   2.037
 1856TIP3    H1 5574   6.134   0.405   2.004
 1856TIP3    H2 5575   6.015   0.318   1.969
 1857TIP3   OH2 5576   0.103   1.994   4.597
 1857TIP3    H1 5577   0.180   2.049   4.611
 1857TIP3    H2 5578   0.057   1.995   4.681
 1858TIP3   OH2 5579   3.307   5.691   3.621
 1858TIP3    H1 5580   3.248   5.616   3.626
 1858TIP3    H2 5581   3.258   5.757   3.571
 1859TIP3   OH2 5582   0.343   0.781   0.159
 1859TIP3    H1 5583   0.435   0.764   0.180
 1859TIP3    H2 5584   0.294   0.741   0.231
 1860TIP3   OH2 5585   2.439   2.296   2.716
 1860TIP3    H1 5586   2.459   2.252   2.799
 1860TIP3    H2 5587   2.345   2.280   2.703
 1861TIP3   OH2 5588   5.104   4.869   3.286
 1861TIP3    H1 5589   5.122   4.960   3.260
 1861TIP3    H2 5590   5.174   4.818   3.243
 1862TIP3   OH2 5591   3.220   5.037   2.651
 1862TIP3    H1 5592   3.213   4.944   2.628
 1862TIP3    H2 5593   3.268   5.076   2.578
 1863TIP3   OH2 5594   2.988   1.993   4.727
 1863TIP3    H1 5595   2.923   2.010   4.795
 1863TIP3    H2 5596   3.072   2.010   4.769
 1864TIP3   OH2 5597   2.018   3.746   0.072
 1864TIP3    H1 5598   2.089   3.700   0.116
 1864TIP3    H2 5599   2.061   3.798   0.005
 1865TIP3   OH2 5600   0.070   3.145   3.058
 1865TIP3    H1 5601  -0.023   3.134   3.038
 1865TIP3    H2 5602   0.094   3.227   3.014
 1866TIP3   OH2 5603   1.688   1.483   4.872
 1866TIP3    H1 5604   1.612   1.426   4.859
 1866TIP3    H2 5605   1.763   1.423   4.872
 1867TIP3   OH2 5606   0.817   1.780   4.452
 1867TIP3    H1 5607   0.883   1.823   4.397
 1867TIP3    H2 5608   0.803   1.840   4.524
 1868TIP3   OH2 5609   1.169   0.181   0.344
 1868TIP3    H1 5610   1.188   0.155   0.254
 1868TIP3    H2 5611   1.077   0.159   0.356
 1869TIP3   OH2 5612   4.897   5.739   5.023
 1869TIP3    H1 5613   4.890   5.711   5.114
 1869TIP3    H2 5614   4.831   5.688   4.977
 1870TIP3   OH2 5615   3.195   3.434   0.700
 1870TIP3    H1 5616   3.287   3.418   0.680
 1870TIP3    H2 5617   3.164   3.487   0.626
 1871TIP3   OH2 5618   5.738   4.255   2.219
 1871TIP3    H1 5619   5.726   4.225   2.309
 1871TIP3    H2 5620   5.824   4.220   2.194
 1872TIP3   OH2 5621   5.724   4.573   4.376
 1872TIP3    H1 5622   5.761   4.505   4.433
 1872TIP3    H2 5623   5.666   4.623   4.433
 1873TIP3   OH2 5624   2.143   2.146   0.370
 1873TIP3    H1 5625   2.115   2.145   0.278
 1873TIP3    H2 5626   2.160   2.054   0.390
 1874TIP3   OH2 5627   4.761   2.152   0.381
 1874TIP3    H1 5628   4.757   2.215   0.308
 1874TIP3    H2 5629   4.749   2.205   0.459
 1875TIP3   OH2 5630   6.051   0.480   4.072
 1875TIP3    H1 5631   6.105   0.485   4.150
 1875TIP3    H2 5632   5.994   0.404   4.087
 1876TIP3   OH2 5633   4.838   1.802   1.513
 1876TIP3    H1 5634   4.930   1.791   1.537
 1876TIP3    H2 5635   4.792   1.805   1.597
 1877TIP3   OH2 5636   2.716   3.962   1.058
 1877TIP3    H1 5637   2.759   3.971   0.973
 1877TIP3    H2 5638   2.747   3.878   1.092
 1878TIP3   OH2 5639   0.543   2.903   4.058
 1878TIP3    H1 5640   0.510   2.851   3.984
 1878TIP3    H2 5641   0.615   2.954   4.020
 1879TIP3   OH2 5642   1.561   3.471   4.081
 1879TIP3    H1 5643   1.479   3.519   4.096
 1879TIP3    H2 5644   1.569   3.414   4.157
 1880TIP3   OH2 5645   1.091   0.635   4.267
 1880TIP3    H1 5646   1.092   0.677   4.182
 1880TIP3    H2 5647   0.999   0.613   4.283
 1881TIP3   OH2 5648   6.121   5.830   0.707
 1881TIP3    H1 5649   6.128   5.735   0.702
 1881TIP3    H2 5650   6.032   5.850   0.678
 1882TIP3   OH2 5651   4.912   3.697   0.397
 1882TIP3    H1 5652   4.952   3.617   0.432
 1882TIP3    H2 5653   4.877   3.742   0.473
 1883TIP3   OH2 5654   5.623   1.876   1.203
 1883TIP3    H1 5655   5.633   1.887   1.297
 1883TIP3    H2 5656   5.690   1.812   1.179
 1884TIP3   OH2 5657   3.711   3.316   0.138
 1884TIP3    H1 5658   3.685   3.391   0.085
 1884TIP3    H2 5659   3.698   3.240   0.080
 1885TIP3   OH2 5660   3.009   2.880   4.620
 1885TIP3    H1 5661   3.022   2.877   4.526
 1885TIP3    H2 5662   3.021   2.790   4.649
 1886TIP3   OH2 5663   2.982   1.364   2.384
 1886TIP3    H1 5664   2.992   1.446   2.432
 1886TIP3    H2 5665   3.064   1.353   2.336
 1887TIP3   OH2 5666   6.106   3.868   1.071
 1887TIP3    H1 5667   6.125   3.961   1.068
 1887TIP3    H2 5668   6.123   3.837   0.982
 1888TIP3   OH2 5669   1.203   4.186   4.288
 1888TIP3    H1 5670   1.215   4.183   4.193
 1888TIP3    H2 5671   1.289   4.210   4.322
 1889TIP3   OH2 5672   0.086   5.511   4.054
 1889TIP3    H1 5673   0.098   5.563   3.975
 1889TIP3    H2 5674   0.007   5.459   4.037
 1890TIP3   OH2 5675   1.914   5.085   3.900
 1890TIP3    H1 5676   1.937   5.000   3.864
 1890TIP3    H2 5677   1.865   5.065   3.980
 1891TIP3   OH2 5678   0.618   5.146   4.520
 1891TIP3    H1 5679   0.527   5.126   4.541
 1891TIP3    H2 5680   0.628   5.120   4.428
 1892TIP3   OH2 5681   0.999   4.185   1.055
 1892TIP3    H1 5682   1.087   4.183   1.018
 1892TIP3    H2 5683   0.996   4.110   1.115
 1893TIP3   OH2 5684   4.596   0.077   0.774
 1893TIP3    H1 5685   4.501   0.083   0.767
 1893TIP3    H2 5686   4.625   0.069   0.683
 1894TIP3   OH2 5687   4.712   5.760   3.396
 1894TIP3    H1 5688   4.676   5.832   3.344
 1894TIP3    H2 5689   4.639   5.698   3.404
 1895TIP3   OH2 5690   0.793   4.881   3.326
 1895TIP3    H1 5691   0.709   4.925   3.317
 1895TIP3    H2 5692   0.852   4.949   3.358
 1896TIP3   OH2 5693   1.097   2.604   1.293
 1896TIP3    H1 5694   1.045   2.579   1.217
 1896TIP3    H2 5695   1.033   2.610   1.364
 1897TIP3   OH2 5696   3.087   2.621   4.677
 1897TIP3    H1 5697   3.134   2.545   4.643
 1897TIP3    H2 5698   3.128   2.637   4.762
 1898TIP3   OH2 5699   1.277   3.166   0.726
 1898TIP3    H1 5700   1.242   3.231   0.665
 1898TIP3    H2 5701   1.372   3.179   0.723
 1899TIP3   OH2 5702   4.309   3.733   3.941
 1899TIP3    H1 5703   4.229   3.771   3.977
 1899TIP3    H2 5704   4.318   3.649   3.986
 1900TIP3   OH2 5705   5.860   2.766   4.190
 1900TIP3    H1 5706   5.807   2.819   4.129
 1900TIP3    H2 5707   5.877   2.825   4.264
 1901TIP3   OH2 5708   5.286   5.815   0.937
 1901TIP3    H1 5709   5.306   5.822   0.844
 1901TIP3    H2 5710   5.218   5.748   0.942
 1902TIP3   OH2 5711   5.123   4.153   0.716
 1902TIP3    H1 5712   5.038   4.158   0.673
 1902TIP3    H2 5713   5.123   4.226   0.778
 1903TIP3   OH2 5714   0.180   3.714   4.457
 1903TIP3    H1 5715   0.205   3.690   4.368
 1903TIP3    H2 5716   0.089   3.744   4.450
 1904TIP3   OH2 5717   1.314   3.090   2.426
 1904TIP3    H1 5718   1.309   3.011   2.479
 1904TIP3    H2 5719   1.335   3.059   2.338
 1905TIP3   OH2 5720   2.385   3.312   4.564
 1905TIP3    H1 5721   2.417   3.221   4.566
 1905TIP3    H2 5722   2.293   3.305   4.589
 1906TIP3   OH2 5723   0.639   5.404   5.074
 1906TIP3    H1 5724   0.668   5.494   5.063
 1906TIP3    H2 5725   0.547   5.411   5.096
 1907TIP3   OH2 5726   0.194   3.074   5.028
 1907TIP3    H1 5727   0.137   3.001   5.052
 1907TIP3    H2 5728   0.136   3.151   5.033
 1908TIP3   OH2 5729   4.088   2.568   3.321
 1908TIP3    H1 5730   4.103   2.563   3.415
 1908TIP3    H2 5731   4.036   2.647   3.309
 1909TIP3   OH2 5732   4.250   0.475   2.638
 1909TIP3    H1 5733   4.330   0.425   2.656
 1909TIP3    H2 5734   4.281   0.566   2.630
 1910TIP3   OH2 5735   5.362   2.663   0.892
 1910TIP3    H1 5736   5.379   2.757   0.892
 1910TIP3    H2 5737   5.282   2.653   0.945
 1911TIP3   OH2 5738   0.562   3.862   0.935
 1911TIP3    H1 5739   0.648   3.901   0.920
 1911TIP3    H2 5740   0.572   3.771   0.906
 1912TIP3   OH2 5741   4.836   0.476   3.149
 1912TIP3    H1 5742   4.897   0.473   3.223
 1912TIP3    H2 5743   4.810   0.385   3.136
 1913TIP3   OH2 5744   0.541   1.927   1.371
 1913TIP3    H1 5745   0.462   1.876   1.352
 1913TIP3    H2 5746   0.524   2.012   1.330
 1914TIP3   OH2 5747   4.334   5.718   3.745
 1914TIP3    H1 5748   4.244   5.689   3.737
 1914TIP3    H2 5749   4.369   5.671   3.820
 1915TIP3   OH2 5750   3.876   5.837   3.502
 1915TIP3    H1 5751   3.818   5.824   3.427
 1915TIP3    H2 5752   3.819   5.828   3.579
 1916TIP3   OH2 5753   5.429   2.108   4.422
 1916TIP3    H1 5754   5.450   2.078   4.511
 1916TIP3    H2 5755   5.461   2.038   4.365
 1917TIP3   OH2 5756   5.763   0.565   3.727
 1917TIP3    H1 5757   5.692   0.628   3.718
 1917TIP3    H2 5758   5.745   0.519   3.809
 1918TIP3   OH2 5759   5.561   1.305   4.129
 1918TIP3    H1 5760   5.612   1.231   4.097
 1918TIP3    H2 5761   5.626   1.362   4.171
 1919TIP3   OH2 5762   3.765   1.916   1.542
 1919TIP3    H1 5763   3.715   1.966   1.477
 1919TIP3    H2 5764   3.737   1.952   1.626
 1920TIP3   OH2 5765   1.114   3.992   1.981
 1920TIP3    H1 5766   1.038   4.050   1.986
 1920TIP3    H2 5767   1.078   3.905   1.965
 1921TIP3   OH2 5768   3.559   2.836   2.935
 1921TIP3    H1 5769   3.620   2.907   2.914
 1921TIP3    H2 5770   3.566   2.776   2.861
 1922TIP3   OH2 5771   1.954   2.913   0.789
 1922TIP3    H1 5772   2.020   2.974   0.823
 1922TIP3    H2 5773   2.002   2.831   0.777
 1923TIP3   OH2 5774   4.219   4.428   3.273
 1923TIP3    H1 5775   4.260   4.393   3.351
 1923TIP3    H2 5776   4.237   4.363   3.205
 1924TIP3   OH2 5777   4.097   4.577   0.427
 1924TIP3    H1 5778   4.176   4.586   0.481
 1924TIP3    H2 5779   4.125   4.525   0.353
 1925TIP3   OH2 5780   2.624   2.431   0.688
 1925TIP3    H1 5781   2.580   2.346   0.692
 1925TIP3    H2 5782   2.625   2.461   0.779
 1926TIP3   OH2 5783   1.611   4.005   3.077
 1926TIP3    H1 5784   1.597   3.973   3.166
 1926TIP3    H2 5785   1.568   4.091   3.075
 1927TIP3   OH2 5786   3.267   4.896   0.582
 1927TIP3    H1 5787   3.352   4.911   0.540
 1927TIP3    H2 5788   3.280   4.919   0.673
 1928TIP3   OH2 5789   1.565   1.870   2.543
 1928TIP3    H1 5790   1.490   1.929   2.549
 1928TIP3    H2 5791   1.532   1.791   2.502
 1929TIP3   OH2 5792   0.159   5.740   1.586
 1929TIP3    H1 5793   0.157   5.758   1.492
 1929TIP3    H2 5794   0.123   5.651   1.595
 1930TIP3   OH2 5795   1.216   1.357   4.636
 1930TIP3    H1 5796   1.230   1.315   4.551
 1930TIP3    H2 5797   1.303   1.359   4.677
 1931TIP3   OH2 5798   4.097   1.988   4.788
 1931TIP3    H1 5799   4.173   2.020   4.740
 1931TIP3    H2 5800   4.022   2.033   4.748
 1932TIP3   OH2 5801   3.966   1.619   3.204
 1932TIP3    H1 5802   3.878   1.598   3.173
 1932TIP3    H2 5803   4.017   1.539   3.188
 1933TIP3   OH2 5804   5.889   5.867   4.419
 1933TIP3    H1 5805   5.951   5.939   4.432
 1933TIP3    H2 5806   5.906   5.837   4.330
 1934TIP3   OH2 5807   3.334   1.066   4.017
 1934TIP3    H1 5808   3.291   1.054   3.932
 1934TIP3    H2 5809   3.294   1.002   4.074
 1935TIP3   OH2 5810   3.538   0.909   2.022
 1935TIP3    H1 5811   3.581   0.988   1.990
 1935TIP3    H2 5812   3.559   0.841   1.958
 1936TIP3   OH2 5813   1.938   5.119   4.759
 1936TIP3    H1 5814   1.844   5.132   4.775
 1936TIP3    H2 5815   1.977   5.205   4.776
 1937TIP3   OH2 5816   1.664   5.398   0.959
 1937TIP3    H1 5817   1.596   5.397   1.025
 1937TIP3    H2 5818   1.627   5.349   0.885
 1938TIP3   OH2 5819   0.605   4.514   3.119
 1938TIP3    H1 5820   0.541   4.584   3.131
 1938TIP3    H2 5821   0.633   4.492   3.208
 1939TIP3   OH2 5822   4.156   3.115   4.015
 1939TIP3    H1 5823   4.069   3.078   4.034
 1939TIP3    H2 5824   4.140   3.209   4.005
 1940TIP3   OH2 5825   0.505   0.707   3.314
 1940TIP3    H1 5826   0.546   0.794   3.310
 1940TIP3    H2 5827   0.449   0.710   3.391
 1941TIP3   OH2 5828   5.723   1.386   0.048
 1941TIP3    H1 5829   5.643   1.379  -0.005
 1941TIP3    H2 5830   5.786   1.430  -0.009
 1942TIP3   OH2 5831   0.326   0.290   3.938
 1942TIP3    H1 5832   0.275   0.310   4.015
 1942TIP3    H2 5833   0.274   0.323   3.865
 1943TIP3   OH2 5834   0.885   0.183   0.836
 1943TIP3    H1 5835   0.832   0.160   0.760
 1943TIP3    H2 5836   0.820   0.204   0.904
 1944TIP3   OH2 5837   1.458   4.659   4.024
 1944TIP3    H1 5838   1.384   4.599   4.023
 1944TIP3    H2 5839   1.435   4.724   4.090
 1945TIP3   OH2 5840   3.070   0.359   0.867
 1945TIP3    H1 5841   3.106   0.446   0.881
 1945TIP3    H2 5842   2.975   0.371   0.870
 1946TIP3   OH2 5843   3.556   4.534   4.708
 1946TIP3    H1 5844   3.579   4.453   4.662
 1946TIP3    H2 5845   3.533   4.595   4.638
 1947TIP3   OH2 5846   2.085   2.380   0.649
 1947TIP3    H1 5847   2.159   2.343   0.697
 1947TIP3    H2 5848   2.058   2.310   0.589
 1948TIP3   OH2 5849   5.914   4.243   3.286
 1948TIP3    H1 5850   5.852   4.313   3.304
 1948TIP3    H2 5851   5.946   4.217   3.372
 1949TIP3   OH2 5852   0.718   4.461   3.959
 1949TIP3    H1 5853   0.690   4.372   3.940
 1949TIP3    H2 5854   0.771   4.487   3.884
 1950TIP3   OH2 5855   1.952   0.306   5.022
 1950TIP3    H1 5856   2.031   0.300   4.970
 1950TIP3    H2 5857   1.967   0.249   5.097
 1951TIP3   OH2 5858   4.441   0.286   2.647
 1951TIP3    H1 5859   4.456   0.229   2.571
 1951TIP3    H2 5860   4.502   0.254   2.713
 1952TIP3   OH2 5861   3.491   5.637   1.879
 1952TIP3    H1 5862   3.516   5.677   1.796
 1952TIP3    H2 5863   3.574   5.617   1.922
 1953TIP3   OH2 5864   5.407   4.415   4.366
 1953TIP3    H1 5865   5.374   4.502   4.342
 1953TIP3    H2 5866   5.492   4.431   4.407
 1954TIP3   OH2 5867   2.671   0.305   1.729
 1954TIP3    H1 5868   2.713   0.315   1.644
 1954TIP3    H2 5869   2.668   0.210   1.743
 1955TIP3   OH2 5870   5.743   5.688   0.334
 1955TIP3    H1 5871   5.828   5.643   0.343
 1955TIP3    H2 5872   5.687   5.646   0.399
 1956TIP3   OH2 5873   2.309   2.142   2.460
 1956TIP3    H1 5874   2.289   2.113   2.549
 1956TIP3    H2 5875   2.351   2.067   2.419
 1957TIP3   OH2 5876   6.073   2.641   3.250
 1957TIP3    H1 5877   6.092   2.708   3.315
 1957TIP3    H2 5878   6.158   2.617   3.215
 1958TIP3   OH2 5879   1.718   4.146   4.477
 1958TIP3    H1 5880   1.808   4.147   4.445
 1958TIP3    H2 5881   1.718   4.079   4.546
 1959TIP3   OH2 5882   4.298   3.612   4.913
 1959TIP3    H1 5883   4.208   3.644   4.920
 1959TIP3    H2 5884   4.320   3.584   5.002
 1960TIP3   OH2 5885   3.619   5.331   1.705
 1960TIP3    H1 5886   3.652   5.379   1.781
 1960TIP3    H2 5887   3.696   5.289   1.668
 1961TIP3   OH2 5888   1.903   4.135   2.805
 1961TIP3    H1 5889   1.884   4.056   2.855
 1961TIP3    H2 5890   1.917   4.105   2.716
 1962TIP3   OH2 5891   0.542   4.293   5.129
 1962TIP3    H1 5892   0.610   4.235   5.165
 1962TIP3    H2 5893   0.583   4.380   5.129
 1963TIP3   OH2 5894   5.180   1.880   2.522
 1963TIP3    H1 5895   5.241   1.892   2.448
 1963TIP3    H2 5896   5.095   1.869   2.481
 1964TIP3   OH2 5897   4.954   4.318   0.879
 1964TIP3    H1 5898   4.909   4.263   0.944
 1964TIP3    H2 5899   4.888   4.381   0.851
 1965TIP3   OH2 5900   3.776   4.502   1.122
 1965TIP3    H1 5901   3.819   4.542   1.047
 1965TIP3    H2 5902   3.843   4.498   1.190
 1966TIP3   OH2 5903   0.943   3.880   3.345
 1966TIP3    H1 5904   0.872   3.818   3.331
 1966TIP3    H2 5905   0.928   3.949   3.281
 1967TIP3   OH2 5906   5.057   3.731   3.129
 1967TIP3    H1 5907   4.977   3.778   3.154
 1967TIP3    H2 5908   5.114   3.739   3.205
 1968TIP3   OH2 5909   1.369   4.073   4.555
 1968TIP3    H1 5910   1.405   4.101   4.471
 1968TIP3    H2 5911   1.433   4.011   4.590
 1969TIP3   OH2 5912   5.308   1.351   4.309
 1969TIP3    H1 5913   5.386   1.348   4.253
 1969TIP3    H2 5914   5.320   1.280   4.371
 1970TIP3   OH2 5915   1.231   1.736   1.114
 1970TIP3    H1 5916   1.174   1.714   1.040
 1970TIP3    H2 5917   1.294   1.664   1.117
 1971TIP3   OH2 5918   5.892   2.320   1.549
 1971TIP3    H1 5919   5.831   2.394   1.551
 1971TIP3    H2 5920   5.916   2.307   1.641
 1972TIP3   OH2 5921   6.210   5.284   4.688
 1972TIP3    H1 5922   6.281   5.276   4.752
 1972TIP3    H2 5923   6.197   5.194   4.656
 1973TIP3   OH2 5924   0.601   4.427   1.004
 1973TIP3    H1 5925   0.576   4.338   0.980
 1973TIP3    H2 5926   0.622   4.422   1.097
 1974TIP3   OH2 5927   2.599   2.200   1.010
 1974TIP3    H1 5928   2.517   2.163   0.979
 1974TIP3    H2 5929   2.595   2.190   1.105
 1975TIP3   OH2 5930   5.295   3.675   4.571
 1975TIP3    H1 5931   5.359   3.740   4.598
 1975TIP3    H2 5932   5.337   3.628   4.499
 1976TIP3   OH2 5933   5.408   0.193   4.409
 1976TIP3    H1 5934   5.369   0.109   4.383
 1976TIP3    H2 5935   5.367   0.257   4.351
 1977TIP3   OH2 5936   3.700   1.510   5.173
 1977TIP3    H1 5937   3.706   1.522   5.079
 1977TIP3    H2 5938   3.773   1.559   5.209
 1978TIP3   OH2 5939   4.773   0.028   2.622
 1978TIP3    H1 5940   4.793   0.121   2.638
 1978TIP3    H2 5941   4.787  -0.014   2.707
 1979TIP3   OH2 5942   1.890   4.754   0.919
 1979TIP3    H1 5943   1.799   4.781   0.902
 1979TIP3    H2 5944   1.915   4.803   0.996
 1980TIP3   OH2 5945   3.087   2.274   2.344
 1980TIP3    H1 5946   3.077   2.233   2.430
 1980TIP3    H2 5947   3.092   2.200   2.283
 1981TIP3   OH2 5948   5.153   4.600   4.335
 1981TIP3    H1 5949   5.061   4.580   4.315
 1981TIP3    H2 5950   5.167   4.564   4.422
 1982TIP3   OH2 5951   2.177   5.407   3.090
 1982TIP3    H1 5952   2.084   5.423   3.074
 1982TIP3    H2 5953   2.189   5.314   3.068
 1983TIP3   OH2 5954   4.459   5.825   4.572
 1983TIP3    H1 5955   4.401   5.901   4.580
 1983TIP3    H2 5956   4.446   5.795   4.482
 1984TIP3   OH2 5957   5.454   1.495   1.865
 1984TIP3    H1 5958   5.482   1.410   1.831
 1984TIP3    H2 5959   5.517   1.514   1.935
 1985TIP3   OH2 5960   3.619   4.165   2.027
 1985TIP3    H1 5961   3.702   4.169   2.075
 1985TIP3    H2 5962   3.642   4.191   1.938
 1986TIP3   OH2 5963   1.236   1.193   3.087
 1986TIP3    H1 5964   1.152   1.192   3.133
 1986TIP3    H2 5965   1.215   1.163   2.998
 1987TIP3   OH2 5966   4.360   4.659   2.890
 1987TIP3    H1 5967   4.449   4.683   2.916
 1987TIP3    H2 5968   4.309   4.666   2.971
 1988TIP3   OH2 5969   4.806   3.412   4.396
 1988TIP3    H1 5970   4.772   3.413   4.307
 1988TIP3    H2 5971   4.844   3.499   4.409
 1989TIP3   OH2 5972   3.420   2.329   1.699
 1989TIP3    H1 5973   3.404   2.401   1.638
 1989TIP3    H2 5974   3.398   2.365   1.785
 1990TIP3   OH2 5975   2.442   3.049   4.539
 1990TIP3    H1 5976   2.524   3.060   4.490
 1990TIP3    H2 5977   2.466   2.993   4.613
 1991TIP3   OH2 5978   2.323   0.265   3.240
 1991TIP3    H1 5979   2.362   0.319   3.309
 1991TIP3    H2 5980   2.392   0.256   3.174
 1992TIP3   OH2 5981   5.311   0.358   4.218
 1992TIP3    H1 5982   5.392   0.396   4.183
 1992TIP3    H2 5983   5.258   0.340   4.141
 1993TIP3   OH2 5984   1.194   2.673   4.009
 1993TIP3    H1 5985   1.129   2.604   3.999
 1993TIP3    H2 5986   1.278   2.631   3.989
 1994TIP3   OH2 5987   5.881   4.791   2.150
 1994TIP3    H1 5988   5.807   4.801   2.091
 1994TIP3    H2 5989   5.908   4.880   2.171
 1995TIP3   OH2 5990   4.856   5.748   3.905
 1995TIP3    H1 5991   4.793   5.820   3.900
 1995TIP3    H2 5992   4.899   5.748   3.820
 1996TIP3   OH2 5993   2.528   3.389   0.012
 1996TIP3    H1 5994   2.488   3.303   0.027
 1996TIP3    H2 5995   2.497   3.442   0.086
 1997TIP3   OH2 5996   4.058   4.231   5.154
 1997TIP3    H1 5997   4.019   4.144   5.163
 1997TIP3    H2 5998   4.036   4.274   5.237
 1998TIP3   OH2 5999   4.918   5.640   4.207
 1998TIP3    H1 6000   4.847   5.576   4.202
 1998TIP3    H2 6001   4.887   5.715   4.157
 1999TIP3   OH2 6002   2.500   2.584   1.604
 1999TIP3    H1 6003   2.451   2.506   1.580
 1999TIP3    H2 6004   2.438   2.636   1.655
 2000TIP3   OH2 6005   0.630   2.307   2.750
 2000TIP3    H1 6006   0.710   2.299   2.801
 2000TIP3    H2 6007   0.647   2.378   2.688
 2001TIP3   OH2 6008   3.008   3.641  -0.020
 2001TIP3    H1 6009   2.927   3.693  -0.024
 2001TIP3    H2 6010   2.983   3.562   0.029
 2002TIP3   OH2 6011   5.108   0.489   2.207
 2002TIP3    H1 6012   5.116   0.433   2.130
 2002TIP3    H2 6013   5.197   0.521   2.223
 2003TIP3   OH2 6014   4.125   0.773   1.406
 2003TIP3    H1 6015   4.215   0.805   1.395
 2003TIP3    H2 6016   4.125   0.730   1.491
 2004TIP3   OH2 6017   0.179   4.922   2.174
 2004TIP3    H1 6018   0.146   4.842   2.214
 2004TIP3    H2 6019   0.201   4.897   2.084
 2005TIP3   OH2 6020   5.072   0.605   0.816
 2005TIP3    H1 6021   5.036   0.602   0.905
 2005TIP3    H2 6022   5.030   0.681   0.776
 2006TIP3   OH2 6023   0.085   5.896   1.937
 2006TIP3    H1 6024   0.042   5.815   1.911
 2006TIP3    H2 6025   0.057   5.961   1.872
 2007TIP3   OH2 6026   4.017   1.064   0.803
 2007TIP3    H1 6027   4.041   1.143   0.756
 2007TIP3    H2 6028   3.926   1.047   0.777
 2008TIP3   OH2 6029   0.115   0.147   1.218
 2008TIP3    H1 6030   0.026   0.131   1.187
 2008TIP3    H2 6031   0.165   0.167   1.139
 2009TIP3   OH2 6032   5.470   5.106   2.602
 2009TIP3    H1 6033   5.550   5.053   2.604
 2009TIP3    H2 6034   5.426   5.086   2.684
 2010TIP3   OH2 6035   3.234   1.124   0.557
 2010TIP3    H1 6036   3.276   1.130   0.472
 2010TIP3    H2 6037   3.146   1.161   0.544
 2011TIP3   OH2 6038   5.685   0.967   3.188
 2011TIP3    H1 6039   5.695   0.988   3.281
 2011TIP3    H2 6040   5.653   1.047   3.148
 2012TIP3   OH2 6041   3.488   0.054   1.091
 2012TIP3    H1 6042   3.430   0.104   1.149
 2012TIP3    H2 6043   3.576   0.069   1.126
 2013TIP3   OH2 6044   5.574   1.459   2.118
 2013TIP3    H1 6045   5.662   1.421   2.117
 2013TIP3    H2 6046   5.589   1.553   2.117
 2014TIP3   OH2 6047   5.049   4.639   1.466
 2014TIP3    H1 6048   5.004   4.562   1.430
 2014TIP3    H2 6049   4.979   4.695   1.499
 2015TIP3   OH2 6050   5.091   0.449   4.350
 2015TIP3    H1 6051   5.001   0.443   4.381
 2015TIP3    H2 6052   5.120   0.358   4.342
 2016TIP3   OH2 6053   4.052   4.071   4.048
 2016TIP3    H1 6054   3.973   4.092   4.000
 2016TIP3    H2 6055   4.115   4.139   4.022
 2017TIP3   OH2 6056   2.365   1.560   2.633
 2017TIP3    H1 6057   2.324   1.496   2.574
 2017TIP3    H2 6058   2.456   1.564   2.605
 2018TIP3   OH2 6059   1.161   5.775   0.118
 2018TIP3    H1 6060   1.157   5.759   0.213
 2018TIP3    H2 6061   1.191   5.692   0.082
 2019TIP3   OH2 6062   3.485   0.447   1.887
 2019TIP3    H1 6063   3.573   0.481   1.904
 2019TIP3    H2 6064   3.428   0.523   1.899
 2020TIP3   OH2 6065   1.597   0.176   0.981
 2020TIP3    H1 6066   1.646   0.204   1.059
 2020TIP3    H2 6067   1.574   0.085   1.000
 2021TIP3   OH2 6068   1.516   1.899   4.532
 2021TIP3    H1 6069   1.523   1.860   4.619
 2021TIP3    H2 6070   1.482   1.828   4.477
 2022TIP3   OH2 6071   1.898   1.791   3.995
 2022TIP3    H1 6072   1.944   1.718   4.037
 2022TIP3    H2 6073   1.967   1.854   3.975
 2023TIP3   OH2 6074   5.673   2.198   1.116
 2023TIP3    H1 6075   5.687   2.292   1.129
 2023TIP3    H2 6076   5.635   2.168   1.199
 2024TIP3   OH2 6077   2.696   4.218   1.771
 2024TIP3    H1 6078   2.627   4.284   1.781
 2024TIP3    H2 6079   2.751   4.229   1.848
 2025TIP3   OH2 6080   3.137   1.482   4.528
 2025TIP3    H1 6081   3.094   1.496   4.443
 2025TIP3    H2 6082   3.142   1.570   4.566
 2026TIP3   OH2 6083   4.408   4.067   2.059
 2026TIP3    H1 6084   4.328   4.104   2.020
 2026TIP3    H2 6085   4.474   4.077   1.990
 2027TIP3   OH2 6086   5.777   0.292   2.109
 2027TIP3    H1 6087   5.757   0.200   2.126
 2027TIP3    H2 6088   5.872   0.298   2.119
 2028TIP3   OH2 6089   4.911   4.458   4.955
 2028TIP3    H1 6090   4.949   4.544   4.973
 2028TIP3    H2 6091   4.986   4.400   4.945
 2029TIP3   OH2 6092   5.938   0.642   2.205
 2029TIP3    H1 6093   6.005   0.575   2.188
 2029TIP3    H2 6094   5.867   0.620   2.145
 2030TIP3   OH2 6095   2.325   5.256   3.447
 2030TIP3    H1 6096   2.303   5.215   3.531
 2030TIP3    H2 6097   2.247   5.244   3.393
 2031TIP3   OH2 6098   4.015   2.513   1.521
 2031TIP3    H1 6099   3.965   2.491   1.442
 2031TIP3    H2 6100   4.057   2.597   1.500
 2032TIP3   OH2 6101   0.639   4.481   4.448
 2032TIP3    H1 6102   0.641   4.392   4.483
 2032TIP3    H2 6103   0.584   4.530   4.509
 2033TIP3   OH2 6104   6.279   2.477   0.396
 2033TIP3    H1 6105   6.318   2.416   0.459
 2033TIP3    H2 6106   6.353   2.528   0.363
 2034TIP3   OH2 6107   5.810   2.656   3.422
 2034TIP3    H1 6108   5.867   2.732   3.437
 2034TIP3    H2 6109   5.869   2.587   3.393
 2035TIP3   OH2 6110   2.789   5.228   4.078
 2035TIP3    H1 6111   2.820   5.153   4.026
 2035TIP3    H2 6112   2.725   5.270   4.022
 2036TIP3   OH2 6113   5.599   2.175   4.801
 2036TIP3    H1 6114   5.630   2.085   4.810
 2036TIP3    H2 6115   5.665   2.228   4.846
 2037TIP3   OH2 6116   0.669   0.938   1.051
 2037TIP3    H1 6117   0.729   0.925   1.125
 2037TIP3    H2 6118   0.596   0.989   1.088
 2038TIP3   OH2 6119   6.131   3.055   1.306
 2038TIP3    H1 6120   6.104   3.141   1.274
 2038TIP3    H2 6121   6.221   3.045   1.274
 2039TIP3   OH2 6122   1.155   2.432   3.233
 2039TIP3    H1 6123   1.121   2.433   3.323
 2039TIP3    H2 6124   1.088   2.479   3.183
 2040TIP3   OH2 6125   2.845   2.555   4.573
 2040TIP3    H1 6126   2.868   2.508   4.493
 2040TIP3    H2 6127   2.928   2.569   4.618
 2041TIP3   OH2 6128   2.751   3.771   5.052
 2041TIP3    H1 6129   2.817   3.725   5.104
 2041TIP3    H2 6130   2.800   3.811   4.980
 2042TIP3   OH2 6131   5.204   1.666   0.740
 2042TIP3    H1 6132   5.260   1.591   0.759
 2042TIP3    H2 6133   5.115   1.636   0.759
 2043TIP3   OH2 6134   2.770   1.637   1.754
 2043TIP3    H1 6135   2.731   1.608   1.671
 2043TIP3    H2 6136   2.857   1.597   1.754
 2044TIP3   OH2 6137   4.482   0.585   3.613
 2044TIP3    H1 6138   4.526   0.502   3.598
 2044TIP3    H2 6139   4.432   0.601   3.534
 2045TIP3   OH2 6140   3.734   1.690   1.389
 2045TIP3    H1 6141   3.765   1.748   1.458
 2045TIP3    H2 6142   3.792   1.614   1.394
 2046TIP3   OH2 6143   2.667   3.937   3.503
 2046TIP3    H1 6144   2.696   3.995   3.574
 2046TIP3    H2 6145   2.650   3.853   3.547
 2047TIP3   OH2 6146   4.058   2.864   4.365
 2047TIP3    H1 6147   4.147   2.854   4.399
 2047TIP3    H2 6148   4.054   2.802   4.291
 2048TIP3   OH2 6149   5.672   5.601   2.261
 2048TIP3    H1 6150   5.620   5.559   2.192
 2048TIP3    H2 6151   5.762   5.599   2.229
 2049TIP3   OH2 6152   1.797   2.503   2.516
 2049TIP3    H1 6153   1.708   2.492   2.484
 2049TIP3    H2 6154   1.812   2.598   2.515
 2050TIP3   OH2 6155   5.601   2.135   0.632
 2050TIP3    H1 6156   5.567   2.209   0.581
 2050TIP3    H2 6157   5.663   2.175   0.693
 2051TIP3   OH2 6158   5.614   2.836   3.560
 2051TIP3    H1 6159   5.651   2.751   3.585
 2051TIP3    H2 6160   5.647   2.851   3.471
 2052TIP3   OH2 6161   0.146   4.438   4.322
 2052TIP3    H1 6162   0.217   4.467   4.379
 2052TIP3    H2 6163   0.188   4.375   4.263
 2053TIP3   OH2 6164   2.202   5.147   3.672
 2053TIP3    H1 6165   2.130   5.185   3.721
 2053TIP3    H2 6166   2.161   5.085   3.612
 2054TIP3   OH2 6167   2.182   2.624   2.511
 2054TIP3    H1 6168   2.237   2.693   2.474
 2054TIP3    H2 6169   2.132   2.591   2.436
 2055TIP3   OH2 6170   0.531   0.009   4.318
 2055TIP3    H1 6171   0.478  -0.041   4.256
 2055TIP3    H2 6172   0.468   0.046   4.379
 2056TIP3   OH2 6173   2.761   1.913   0.705
 2056TIP3    H1 6174   2.773   2.002   0.672
 2056TIP3    H2 6175   2.748   1.924   0.799
 2057TIP3   OH2 6176   1.822   2.168   4.376
 2057TIP3    H1 6177   1.855   2.238   4.320
 2057TIP3    H2 6178   1.810   2.094   4.317
 2058TIP3   OH2 6179   1.383   5.692   4.740
 2058TIP3    H1 6180   1.327   5.666   4.667
 2058TIP3    H2 6181   1.329   5.678   4.818
 2059TIP3   OH2 6182   4.773   2.438   2.410
 2059TIP3    H1 6183   4.829   2.383   2.355
 2059TIP3    H2 6184   4.773   2.394   2.495
 2060TIP3   OH2 6185   4.507   4.159   3.909
 2060TIP3    H1 6186   4.583   4.212   3.888
 2060TIP3    H2 6187   4.525   4.073   3.871
 2061TIP3   OH2 6188   1.076   4.178   0.594
 2061TIP3    H1 6189   1.162   4.194   0.631
 2061TIP3    H2 6190   1.042   4.265   0.572
 2062TIP3   OH2 6191   5.701   2.017   2.033
 2062TIP3    H1 6192   5.650   2.091   2.066
 2062TIP3    H2 6193   5.752   1.987   2.109
 2063TIP3   OH2 6194   3.818   2.403   2.224
 2063TIP3    H1 6195   3.768   2.442   2.152
 2063TIP3    H2 6196   3.777   2.318   2.238
 2064TIP3   OH2 6197   2.172   5.768   1.137
 2064TIP3    H1 6198   2.113   5.795   1.207
 2064TIP3    H2 6199   2.115   5.733   1.069
 2065TIP3   OH2 6200   5.615   1.177   2.962
 2065TIP3    H1 6201   5.633   1.186   2.869
 2065TIP3    H2 6202   5.700   1.193   3.004
 2066TIP3   OH2 6203   0.663   0.101   4.947
 2066TIP3    H1 6204   0.679   0.007   4.957
 2066TIP3    H2 6205   0.568   0.108   4.935
 2067TIP3   OH2 6206   5.782   4.816   4.854
 2067TIP3    H1 6207   5.744   4.748   4.798
 2067TIP3    H2 6208   5.782   4.777   4.941
 2068TIP3   OH2 6209   6.297   5.512   4.376
 2068TIP3    H1 6210   6.389   5.498   4.352
 2068TIP3    H2 6211   6.272   5.591   4.329
 2069TIP3   OH2 6212   1.222   5.924   3.706
 2069TIP3    H1 6213   1.302   5.878   3.731
 2069TIP3    H2 6214   1.250   5.985   3.637
 2070TIP3   OH2 6215   4.073   2.321   1.237
 2070TIP3    H1 6216   4.132   2.371   1.292
 2070TIP3    H2 6217   3.988   2.362   1.250
 2071TIP3   OH2 6218   3.703   1.891   4.189
 2071TIP3    H1 6219   3.610   1.883   4.172
 2071TIP3    H2 6220   3.744   1.825   4.134
 2072TIP3   OH2 6221   0.717   2.018   0.069
 2072TIP3    H1 6222   0.631   2.034   0.028
 2072TIP3    H2 6223   0.780   2.048   0.004
 2073TIP3   OH2 6224   0.618   3.628   4.078
 2073TIP3    H1 6225   0.656   3.658   4.161
 2073TIP3    H2 6226   0.533   3.672   4.073
 2074TIP3   OH2 6227   4.789   4.745   4.243
 2074TIP3    H1 6228   4.840   4.720   4.166
 2074TIP3    H2 6229   4.848   4.803   4.292
 2075TIP3   OH2 6230   5.014   3.789   1.746
 2075TIP3    H1 6231   5.058   3.864   1.706
 2075TIP3    H2 6232   5.002   3.727   1.673
 2076TIP3   OH2 6233   0.195   2.808   3.966
 2076TIP3    H1 6234   0.254   2.817   3.892
 2076TIP3    H2 6235   0.206   2.889   4.016
 2077TIP3   OH2 6236   6.353   1.834   0.694
 2077TIP3    H1 6237   6.272   1.805   0.653
 2077TIP3    H2 6238   6.332   1.920   0.731
 2078TIP3   OH2 6239   3.385   0.963   3.594
 2078TIP3    H1 6240   3.391   0.976   3.499
 2078TIP3    H2 6241   3.456   1.017   3.630
 2079TIP3   OH2 6242   1.301   5.554   4.204
 2079TIP3    H1 6243   1.221   5.580   4.251
 2079TIP3    H2 6244   1.297   5.602   4.122
 2080TIP3   OH2 6245   3.822   1.044   3.029
 2080TIP3    H1 6246   3.916   1.047   3.016
 2080TIP3    H2 6247   3.808   0.972   3.091
 2081TIP3   OH2 6248   1.808   3.151   4.334
 2081TIP3    H1 6249   1.834   3.165   4.243
 2081TIP3    H2 6250   1.840   3.064   4.355
 2082TIP3   OH2 6251   2.286   5.898   3.744
 2082TIP3    H1 6252   2.210   5.933   3.791
 2082TIP3    H2 6253   2.255   5.815   3.707
 2083TIP3   OH2 6254   1.018   0.616   4.889
 2083TIP3    H1 6255   0.973   0.597   4.971
 2083TIP3    H2 6256   0.997   0.707   4.870
 2084TIP3   OH2 6257   0.676   2.645   4.878
 2084TIP3    H1 6258   0.604   2.700   4.847
 2084TIP3    H2 6259   0.741   2.649   4.808
 2085TIP3   OH2 6260   1.601   5.984   2.078
 2085TIP3    H1 6261   1.690   5.950   2.088
 2085TIP3    H2 6262   1.583   5.977   1.984
 2086TIP3   OH2 6263   4.557   2.644   2.640
 2086TIP3    H1 6264   4.514   2.562   2.616
 2086TIP3    H2 6265   4.487   2.699   2.674
 2087TIP3   OH2 6266   4.444   4.802   3.207
 2087TIP3    H1 6267   4.455   4.897   3.212
 2087TIP3    H2 6268   4.497   4.776   3.131
 2088TIP3   OH2 6269   4.187   1.067   1.625
 2088TIP3    H1 6270   4.167   1.140   1.566
 2088TIP3    H2 6271   4.103   1.022   1.637
 2089TIP3   OH2 6272   0.613   5.272   2.350
 2089TIP3    H1 6273   0.570   5.301   2.430
 2089TIP3    H2 6274   0.550   5.291   2.280
 2090TIP3   OH2 6275   5.333   5.593   3.230
 2090TIP3    H1 6276   5.403   5.652   3.202
 2090TIP3    H2 6277   5.259   5.614   3.173
 2091TIP3   OH2 6278   2.130   4.001   3.592
 2091TIP3    H1 6279   2.087   4.003   3.677
 2091TIP3    H2 6280   2.065   4.037   3.532
 2092TIP3   OH2 6281   4.863   0.594   3.823
 2092TIP3    H1 6282   4.902   0.533   3.886
 2092TIP3    H2 6283   4.852   0.676   3.872
 2093TIP3   OH2 6284   3.339   1.587   2.096
 2093TIP3    H1 6285   3.417   1.549   2.056
 2093TIP3    H2 6286   3.333   1.675   2.059
 2094TIP3   OH2 6287   1.981   1.689   2.738
 2094TIP3    H1 6288   1.954   1.621   2.799
 2094TIP3    H2 6289   1.990   1.644   2.654
 2095TIP3   OH2 6290   0.153   1.621   2.156
 2095TIP3    H1 6291   0.143   1.683   2.084
 2095TIP3    H2 6292   0.247   1.622   2.175
 2096TIP3   OH2 6293   1.954   3.130   0.274
 2096TIP3    H1 6294   1.949   3.050   0.223
 2096TIP3    H2 6295   1.867   3.138   0.315
 2097TIP3   OH2 6296   4.216   5.466   0.522
 2097TIP3    H1 6297   4.247   5.378   0.500
 2097TIP3    H2 6298   4.142   5.452   0.581
 2098TIP3   OH2 6299   6.009   1.524   0.526
 2098TIP3    H1 6300   5.960   1.605   0.540
 2098TIP3    H2 6301   6.069   1.520   0.601
 2099TIP3   OH2 6302   3.256   3.295   2.519
 2099TIP3    H1 6303   3.294   3.373   2.478
 2099TIP3    H2 6304   3.311   3.223   2.488
 2100TIP3   OH2 6305   6.272   0.631   0.258
 2100TIP3    H1 6306   6.196   0.577   0.236
 2100TIP3    H2 6307   6.337   0.569   0.292
 2101TIP3   OH2 6308   6.067   5.327   1.860
 2101TIP3    H1 6309   6.029   5.396   1.806
 2101TIP3    H2 6310   6.142   5.296   1.809
 2102TIP3   OH2 6311   5.109   2.379   5.078
 2102TIP3    H1 6312   5.141   2.394   5.168
 2102TIP3    H2 6313   5.026   2.333   5.090
 2103TIP3   OH2 6314   5.610   4.883   1.214
 2103TIP3    H1 6315   5.543   4.833   1.168
 2103TIP3    H2 6316   5.692   4.859   1.170
 2104TIP3   OH2 6317   4.433   3.465   2.574
 2104TIP3    H1 6318   4.372   3.500   2.639
 2104TIP3    H2 6319   4.469   3.386   2.615
 2105TIP3   OH2 6320   4.689   1.096   1.110
 2105TIP3    H1 6321   4.682   1.125   1.020
 2105TIP3    H2 6322   4.712   1.175   1.159
 2106TIP3   OH2 6323   3.051   0.604   4.119
 2106TIP3    H1 6324   3.091   0.587   4.034
 2106TIP3    H2 6325   3.114   0.570   4.183
 2107TIP3   OH2 6326   4.252   2.163   2.723
 2107TIP3    H1 6327   4.343   2.181   2.699
 2107TIP3    H2 6328   4.202   2.177   2.643
 2108TIP3   OH2 6329   1.611   0.588   3.786
 2108TIP3    H1 6330   1.684   0.527   3.792
 2108TIP3    H2 6331   1.635   0.661   3.843
 2109TIP3   OH2 6332   4.082   4.251   4.880
 2109TIP3    H1 6333   4.158   4.193   4.871
 2109TIP3    H2 6334   4.063   4.251   4.974
 2110TIP3   OH2 6335   2.527   5.246   2.580
 2110TIP3    H1 6336   2.531   5.155   2.553
 2110TIP3    H2 6337   2.436   5.272   2.565
 2111TIP3   OH2 6338   2.109   1.617   0.014
 2111TIP3    H1 6339   2.189   1.662  -0.016
 2111TIP3    H2 6340   2.078   1.669   0.088
 2112TIP3   OH2 6341   5.208   4.859   4.491
 2112TIP3    H1 6342   5.189   4.801   4.418
 2112TIP3    H2 6343   5.288   4.905   4.466
 2113TIP3   OH2 6344   5.553   3.362   2.362
 2113TIP3    H1 6345   5.511   3.292   2.412
 2113TIP3    H2 6346   5.489   3.434   2.365
 2114TIP3   OH2 6347   4.107   5.805   1.077
 2114TIP3    H1 6348   4.109   5.884   1.023
 2114TIP3    H2 6349   4.153   5.739   1.025
 2115TIP3   OH2 6350   3.672   0.878   1.566
 2115TIP3    H1 6351   3.617   0.955   1.551
 2115TIP3    H2 6352   3.742   0.885   1.501
 2116TIP3   OH2 6353   4.106   2.710   4.149
 2116TIP3    H1 6354   4.100   2.654   4.072
 2116TIP3    H2 6355   4.155   2.659   4.213
 2117TIP3   OH2 6356   1.750   4.428   4.809
 2117TIP3    H1 6357   1.727   4.438   4.717
 2117TIP3    H2 6358   1.841   4.458   4.815
 2118TIP3   OH2 6359   0.782   0.304   4.276
 2118TIP3    H1 6360   0.769   0.252   4.197
 2118TIP3    H2 6361   0.791   0.240   4.346
 2119TIP3   OH2 6362   0.210   1.920   0.499
 2119TIP3    H1 6363   0.171   1.909   0.585
 2119TIP3    H2 6364   0.165   1.855   0.444
 2120TIP3   OH2 6365   3.944   0.553   2.197
 2120TIP3    H1 6366   4.028   0.590   2.224
 2120TIP3    H2 6367   3.941   0.467   2.239
 2121TIP3   OH2 6368   4.308   4.848   3.835
 2121TIP3    H1 6369   4.389   4.813   3.799
 2121TIP3    H2 6370   4.254   4.770   3.851
 2122TIP3   OH2 6371   2.720   5.182   1.683
 2122TIP3    H1 6372   2.688   5.191   1.773
 2122TIP3    H2 6373   2.805   5.138   1.692
 2123TIP3   OH2 6374   5.202   2.012   0.623
 2123TIP3    H1 6375   5.207   1.920   0.647
 2123TIP3    H2 6376   5.250   2.058   0.692
 2124TIP3   OH2 6377   0.828   3.169   1.303
 2124TIP3    H1 6378   0.836   3.188   1.210
 2124TIP3    H2 6379   0.874   3.241   1.346
 2125TIP3   OH2 6380   0.124   4.160   4.623
 2125TIP3    H1 6381   0.211   4.176   4.660
 2125TIP3    H2 6382   0.075   4.116   4.693
 2126TIP3   OH2 6383   3.728   4.143   1.768
 2126TIP3    H1 6384   3.691   4.192   1.695
 2126TIP3    H2 6385   3.686   4.057   1.763
 2127TIP3   OH2 6386   5.501   4.346   3.916
 2127TIP3    H1 6387   5.578   4.325   3.863
 2127TIP3    H2 6388   5.509   4.289   3.993
 2128TIP3   OH2 6389   2.146   3.537   4.151
 2128TIP3    H1 6390   2.154   3.471   4.082
 2128TIP3    H2 6391   2.194   3.613   4.118
 2129TIP3   OH2 6392   2.165   0.146   2.699
 2129TIP3    H1 6393   2.214   0.228   2.706
 2129TIP3    H2 6394   2.099   0.152   2.768
 2130TIP3   OH2 6395   3.030   1.897   1.884
 2130TIP3    H1 6396   2.949   1.939   1.856
 2130TIP3    H2 6397   3.079   1.882   1.803
 2131TIP3   OH2 6398   5.721   2.426   2.650
 2131TIP3    H1 6399   5.768   2.497   2.607
 2131TIP3    H2 6400   5.728   2.445   2.744
 2132TIP3   OH2 6401   2.667   4.822   1.675
 2132TIP3    H1 6402   2.599   4.880   1.708
 2132TIP3    H2 6403   2.748   4.871   1.684
 2133TIP3   OH2 6404   3.241   5.761   1.937
 2133TIP3    H1 6405   3.335   5.750   1.926
 2133TIP3    H2 6406   3.232   5.803   2.023
 2134TIP3   OH2 6407   6.121   5.301   4.398
 2134TIP3    H1 6408   6.131   5.269   4.487
 2134TIP3    H2 6409   6.174   5.381   4.395
 2135TIP3   OH2 6410   1.322   3.310   3.730
 2135TIP3    H1 6411   1.290   3.250   3.663
 2135TIP3    H2 6412   1.378   3.372   3.683
 2136TIP3   OH2 6413   5.221   4.321   2.069
 2136TIP3    H1 6414   5.144   4.275   2.102
 2136TIP3    H2 6415   5.292   4.257   2.075
 2137TIP3   OH2 6416   5.257   2.668   0.497
 2137TIP3    H1 6417   5.257   2.637   0.407
 2137TIP3    H2 6418   5.348   2.662   0.525
 2138TIP3   OH2 6419   4.758   0.295   0.157
 2138TIP3    H1 6420   4.825   0.232   0.129
 2138TIP3    H2 6421   4.679   0.242   0.168
 2139TIP3   OH2 6422   6.122   3.151   2.967
 2139TIP3    H1 6423   6.114   3.087   2.896
 2139TIP3    H2 6424   6.039   3.144   3.014
 2140TIP3   OH2 6425   1.401   1.324   0.837
 2140TIP3    H1 6426   1.340   1.396   0.821
 2140TIP3    H2 6427   1.347   1.256   0.877
 2141TIP3   OH2 6428   3.805   0.680   2.859
 2141TIP3    H1 6429   3.863   0.739   2.908
 2141TIP3    H2 6430   3.848   0.671   2.774
 2142TIP3   OH2 6431   4.088   2.381   2.437
 2142TIP3    H1 6432   4.103   2.293   2.401
 2142TIP3    H2 6433   3.995   2.383   2.458
 2143TIP3   OH2 6434   4.875   2.859   1.461
 2143TIP3    H1 6435   4.833   2.780   1.427
 2143TIP3    H2 6436   4.947   2.876   1.401
 2144TIP3   OH2 6437   2.814   4.435   3.506
 2144TIP3    H1 6438   2.753   4.506   3.523
 2144TIP3    H2 6439   2.763   4.355   3.517
 2145TIP3   OH2 6440   5.290   4.557   2.220
 2145TIP3    H1 6441   5.236   4.490   2.178
 2145TIP3    H2 6442   5.279   4.634   2.165
 2146TIP3   OH2 6443   2.467   3.837   1.069
 2146TIP3    H1 6444   2.562   3.841   1.081
 2146TIP3    H2 6445   2.431   3.857   1.155
 2147TIP3   OH2 6446   3.737   4.024   0.251
 2147TIP3    H1 6447   3.816   4.019   0.304
 2147TIP3    H2 6448   3.687   3.946   0.274
 2148TIP3   OH2 6449   6.378   2.132   4.026
 2148TIP3    H1 6450   6.388   2.129   3.930
 2148TIP3    H2 6451   6.304   2.191   4.040
 2149TIP3   OH2 6452   4.510   4.457   0.151
 2149TIP3    H1 6453   4.436   4.514   0.171
 2149TIP3    H2 6454   4.480   4.403   0.077
 2150TIP3   OH2 6455   1.737   3.996   4.158
 2150TIP3    H1 6456   1.802   3.941   4.115
 2150TIP3    H2 6457   1.665   3.936   4.179
 2151TIP3   OH2 6458   2.911   5.497   2.063
 2151TIP3    H1 6459   2.913   5.591   2.047
 2151TIP3    H2 6460   2.952   5.486   2.149
 2152TIP3   OH2 6461   5.009   4.641   3.738
 2152TIP3    H1 6462   5.102   4.663   3.744
 2152TIP3    H2 6463   5.007   4.559   3.689
 2153TIP3   OH2 6464   0.498   4.163   0.460
 2153TIP3    H1 6465   0.478   4.104   0.533
 2153TIP3    H2 6466   0.526   4.245   0.502
 2154TIP3   OH2 6467   4.759   1.408   0.880
 2154TIP3    H1 6468   4.750   1.469   0.953
 2154TIP3    H2 6469   4.831   1.443   0.828
 2155TIP3   OH2 6470   5.810   0.240   4.482
 2155TIP3    H1 6471   5.823   0.333   4.461
 2155TIP3    H2 6472   5.867   0.225   4.558
 2156TIP3   OH2 6473   1.602   3.249   5.137
 2156TIP3    H1 6474   1.509   3.255   5.157
 2156TIP3    H2 6475   1.633   3.175   5.189
 2157TIP3   OH2 6476   3.642   5.292   0.521
 2157TIP3    H1 6477   3.669   5.324   0.607
 2157TIP3    H2 6478   3.619   5.200   0.536
 2158TIP3   OH2 6479   4.842   3.829   1.026
 2158TIP3    H1 6480   4.759   3.782   1.024
 2158TIP3    H2 6481   4.837   3.890   0.952
 2159TIP3   OH2 6482   5.365   3.688   3.687
 2159TIP3    H1 6483   5.356   3.666   3.779
 2159TIP3    H2 6484   5.275   3.701   3.656
 2160TIP3   OH2 6485   0.954   3.846   2.289
 2160TIP3    H1 6486   1.008   3.792   2.348
 2160TIP3    H2 6487   0.953   3.932   2.330
 2161TIP3   OH2 6488   0.939   4.545   2.107
 2161TIP3    H1 6489   1.016   4.540   2.051
 2161TIP3    H2 6490   0.935   4.459   2.149
 2162TIP3   OH2 6491   3.776   3.280   1.023
 2162TIP3    H1 6492   3.761   3.213   0.956
 2162TIP3    H2 6493   3.854   3.250   1.069
 2163TIP3   OH2 6494   1.040   0.071   1.190
 2163TIP3    H1 6495   1.053  -0.011   1.142
 2163TIP3    H2 6496   1.090   0.059   1.271
 2164TIP3   OH2 6497   3.548   2.993   2.586
 2164TIP3    H1 6498   3.476   2.930   2.594
 2164TIP3    H2 6499   3.525   3.045   2.508
 2165TIP3   OH2 6500   5.298   0.327   0.828
 2165TIP3    H1 6501   5.288   0.409   0.778
 2165TIP3    H2 6502   5.296   0.259   0.761
 2166TIP3   OH2 6503   0.884   2.970   0.955
 2166TIP3    H1 6504   0.835   3.043   0.993
 2166TIP3    H2 6505   0.886   2.904   1.025
 2167TIP3   OH2 6506   3.728   5.107   3.779
 2167TIP3    H1 6507   3.767   5.150   3.703
 2167TIP3    H2 6508   3.635   5.128   3.773
 2168TIP3   OH2 6509   3.710   0.507   2.035
 2168TIP3    H1 6510   3.759   0.560   2.098
 2168TIP3    H2 6511   3.717   0.418   2.067
 2169TIP3   OH2 6512   2.740   5.049   0.301
 2169TIP3    H1 6513   2.719   4.960   0.330
 2169TIP3    H2 6514   2.675   5.103   0.345
 2170TIP3   OH2 6515   2.052   0.275   0.866
 2170TIP3    H1 6516   2.080   0.363   0.889
 2170TIP3    H2 6517   2.099   0.255   0.785
 2171TIP3   OH2 6518   3.775   0.942   0.758
 2171TIP3    H1 6519   3.702   0.891   0.725
 2171TIP3    H2 6520   3.822   0.882   0.816
 2172TIP3   OH2 6521   3.348   2.135   3.208
 2172TIP3    H1 6522   3.303   2.210   3.169
 2172TIP3    H2 6523   3.340   2.150   3.303
 2173TIP3   OH2 6524   2.987   5.491   2.971
 2173TIP3    H1 6525   2.958   5.583   2.972
 2173TIP3    H2 6526   3.038   5.483   2.891
 2174TIP3   OH2 6527   3.175   1.638   0.888
 2174TIP3    H1 6528   3.201   1.551   0.857
 2174TIP3    H2 6529   3.256   1.676   0.923
 2175TIP3   OH2 6530   3.554   4.494   0.009
 2175TIP3    H1 6531   3.531   4.436   0.081
 2175TIP3    H2 6532   3.632   4.455  -0.030
 2176TIP3   OH2 6533   2.725   3.344   3.250
 2176TIP3    H1 6534   2.716   3.435   3.222
 2176TIP3    H2 6535   2.645   3.326   3.299
 2177TIP3   OH2 6536   2.327   1.770   1.497
 2177TIP3    H1 6537   2.280   1.700   1.451
 2177TIP3    H2 6538   2.345   1.835   1.429
 2178TIP3   OH2 6539   1.707   5.194   2.869
 2178TIP3    H1 6540   1.682   5.179   2.778
 2178TIP3    H2 6541   1.624   5.207   2.915
 2179TIP3   OH2 6542   3.354   2.807   3.334
 2179TIP3    H1 6543   3.294   2.807   3.408
 2179TIP3    H2 6544   3.442   2.805   3.373
 2180TIP3   OH2 6545   2.171   1.863   4.253
 2180TIP3    H1 6546   2.079   1.843   4.270
 2180TIP3    H2 6547   2.211   1.777   4.239
 2181TIP3   OH2 6548   3.082   1.401   4.853
 2181TIP3    H1 6549   3.160   1.445   4.816
 2181TIP3    H2 6550   3.014   1.468   4.850
 2182TIP3   OH2 6551   6.299   2.060   2.314
 2182TIP3    H1 6552   6.377   2.016   2.280
 2182TIP3    H2 6553   6.301   2.146   2.274
 2183TIP3   OH2 6554   1.435   5.927   4.011
 2183TIP3    H1 6555   1.439   5.894   4.100
 2183TIP3    H2 6556   1.512   5.890   3.968
 2184TIP3   OH2 6557   0.631   3.831   3.721
 2184TIP3    H1 6558   0.608   3.888   3.795
 2184TIP3    H2 6559   0.553   3.831   3.665
 2185TIP3   OH2 6560   4.071   3.487   2.290
 2185TIP3    H1 6561   3.994   3.456   2.339
 2185TIP3    H2 6562   4.048   3.472   2.198
 2186TIP3   OH2 6563   1.241   1.908  -0.030
 2186TIP3    H1 6564   1.287   1.989  -0.008
 2186TIP3    H2 6565   1.219   1.869   0.054
 2187TIP3   OH2 6566   0.024   5.938   0.612
 2187TIP3    H1 6567  -0.060   5.914   0.649
 2187TIP3    H2 6568   0.088   5.917   0.681
 2188TIP3   OH2 6569   6.155   0.606   1.711
 2188TIP3    H1 6570   6.228   0.603   1.650
 2188TIP3    H2 6571   6.101   0.678   1.680
 2189TIP3   OH2 6572   0.112   5.140   4.760
 2189TIP3    H1 6573   0.200   5.153   4.794
 2189TIP3    H2 6574   0.063   5.102   4.833
 2190TIP3   OH2 6575   0.926   5.874   0.495
 2190TIP3    H1 6576   0.991   5.826   0.547
 2190TIP3    H2 6577   0.977   5.942   0.450
 2191TIP3   OH2 6578   4.997   3.360   2.901
 2191TIP3    H1 6579   5.081   3.404   2.919
 2191TIP3    H2 6580   4.938   3.431   2.877
 2192TIP3   OH2 6581   1.607   5.900   0.535
 2192TIP3    H1 6582   1.616   5.870   0.445
 2192TIP3    H2 6583   1.539   5.843   0.572
 2193TIP3   OH2 6584   2.141   1.383   3.833
 2193TIP3    H1 6585   2.171   1.330   3.907
 2193TIP3    H2 6586   2.136   1.472   3.867
 2194TIP3   OH2 6587   1.050   4.383   3.012
 2194TIP3    H1 6588   0.978   4.438   3.044
 2194TIP3    H2 6589   1.007   4.306   2.976
 2195TIP3   OH2 6590   3.767   5.018   3.519
 2195TIP3    H1 6591   3.680   5.056   3.510
 2195TIP3    H2 6592   3.805   5.022   3.431
 2196TIP3   OH2 6593   4.088   5.903   1.685
 2196TIP3    H1 6594   4.175   5.919   1.722
 2196TIP3    H2 6595   4.105   5.855   1.604
 2197TIP3   OH2 6596   5.374   1.687   4.649
 2197TIP3    H1 6597   5.377   1.595   4.675
 2197TIP3    H2 6598   5.281   1.704   4.633
 2198TIP3   OH2 6599   1.775   5.609   3.364
 2198TIP3    H1 6600   1.823   5.594   3.446
 2198TIP3    H2 6601   1.843   5.605   3.297
 2199TIP3   OH2 6602   2.630   0.592   2.730
 2199TIP3    H1 6603   2.535   0.596   2.721
 2199TIP3    H2 6604   2.646   0.617   2.821
 2200TIP3   OH2 6605   0.718   1.088   5.107
 2200TIP3    H1 6606   0.740   1.177   5.135
 2200TIP3    H2 6607   0.670   1.050   5.180
 2201TIP3   OH2 6608   2.517   1.239   2.920
 2201TIP3    H1 6609   2.562   1.180   2.980
 2201TIP3    H2 6610   2.573   1.317   2.918
 2202TIP3   OH2 6611   5.194   4.220   4.447
 2202TIP3    H1 6612   5.260   4.285   4.422
 2202TIP3    H2 6613   5.181   4.235   4.541
 2203TIP3   OH2 6614   1.089   3.674   2.447
 2203TIP3    H1 6615   1.022   3.667   2.515
 2203TIP3    H2 6616   1.128   3.586   2.443
 2204TIP3   OH2 6617   3.512   3.276   1.142
 2204TIP3    H1 6618   3.544   3.197   1.184
 2204TIP3    H2 6619   3.426   3.292   1.181
 2205TIP3   OH2 6620   6.102   0.593   0.491
 2205TIP3    H1 6621   6.128   0.501   0.502
 2205TIP3    H2 6622   6.007   0.591   0.489
 2206TIP3   OH2 6623   2.261   2.507   0.215
 2206TIP3    H1 6624   2.289   2.466   0.297
 2206TIP3    H2 6625   2.343   2.523   0.167
 2207TIP3   OH2 6626   1.404   5.411   1.578
 2207TIP3    H1 6627   1.345   5.344   1.545
 2207TIP3    H2 6628   1.485   5.398   1.529
 2208TIP3   OH2 6629   4.900   1.506   0.495
 2208TIP3    H1 6630   4.978   1.514   0.440
 2208TIP3    H2 6631   4.832   1.473   0.436
 2209TIP3   OH2 6632   1.516   2.219   2.471
 2209TIP3    H1 6633   1.471   2.182   2.547
 2209TIP3    H2 6634   1.596   2.168   2.464
 2210TIP3   OH2 6635   4.905   5.661   1.012
 2210TIP3    H1 6636   4.979   5.636   0.957
 2210TIP3    H2 6637   4.920   5.753   1.032
 2211TIP3   OH2 6638   3.203   2.674   4.916
 2211TIP3    H1 6639   3.292   2.685   4.948
 2211TIP3    H2 6640   3.150   2.665   4.996
 2212TIP3   OH2 6641   1.052   1.009   0.069
 2212TIP3    H1 6642   1.044   1.103   0.086
 2212TIP3    H2 6643   0.996   0.968   0.136
 2213TIP3   OH2 6644   2.776   0.387   2.041
 2213TIP3    H1 6645   2.833   0.372   1.966
 2213TIP3    H2 6646   2.779   0.305   2.090
 2214TIP3   OH2 6647   4.506   2.020   0.542
 2214TIP3    H1 6648   4.422   1.975   0.533
 2214TIP3    H2 6649   4.493   2.080   0.616
 2215TIP3   OH2 6650   3.535   5.855   1.719
 2215TIP3    H1 6651   3.620   5.833   1.681
 2215TIP3    H2 6652   3.480   5.876   1.643
 2216TIP3   OH2 6653   2.037   2.057   2.377
 2216TIP3    H1 6654   2.015   2.133   2.432
 2216TIP3    H2 6655   2.064   1.990   2.440
 2217TIP3   OH2 6656   0.842   0.565   4.336
 2217TIP3    H1 6657   0.830   0.479   4.294
 2217TIP3    H2 6658   0.788   0.624   4.284
 2218TIP3   OH2 6659   1.828   0.532   0.542
 2218TIP3    H1 6660   1.830   0.627   0.554
 2218TIP3    H2 6661   1.920   0.506   0.544
 2219TIP3   OH2 6662   4.904   3.275   1.808
 2219TIP3    H1 6663   4.945   3.219   1.743
 2219TIP3    H2 6664   4.810   3.259   1.797
 2220TIP3   OH2 6665   4.346   5.581   3.170
 2220TIP3    H1 6666   4.423   5.561   3.117
 2220TIP3    H2 6667   4.275   5.531   3.130
 2221TIP3   OH2 6668   2.966   5.104   3.388
 2221TIP3    H1 6669   2.972   5.130   3.296
 2221TIP3    H2 6670   2.881   5.138   3.416
 2222TIP3   OH2 6671   4.117   2.534   3.604
 2222TIP3    H1 6672   4.057   2.491   3.664
 2222TIP3    H2 6673   4.083   2.623   3.596
 2223TIP3   OH2 6674   5.949   5.403   4.805
 2223TIP3    H1 6675   5.960   5.481   4.751
 2223TIP3    H2 6676   6.028   5.352   4.791
 2224TIP3   OH2 6677   1.472   1.343   2.498
 2224TIP3    H1 6678   1.548   1.374   2.449
 2224TIP3    H2 6679   1.404   1.407   2.478
 2225TIP3   OH2 6680   0.937   4.427   0.574
 2225TIP3    H1 6681   0.869   4.444   0.508
 2225TIP3    H2 6682   0.890   4.425   0.657
 2226TIP3   OH2 6683   2.200   4.658   1.853
 2226TIP3    H1 6684   2.199   4.747   1.819
 2226TIP3    H2 6685   2.254   4.662   1.931
 2227TIP3   OH2 6686   4.866   5.768   2.980
 2227TIP3    H1 6687   4.881   5.804   2.893
 2227TIP3    H2 6688   4.835   5.842   3.032
 2228TIP3   OH2 6689   1.319   0.005   3.893
 2228TIP3    H1 6690   1.229   0.013   3.923
 2228TIP3    H2 6691   1.313  -0.004   3.798
 2229TIP3   OH2 6692   1.127   3.310   1.940
 2229TIP3    H1 6693   1.184   3.282   1.868
 2229TIP3    H2 6694   1.156   3.257   2.014
 2230TIP3   OH2 6695   2.031   2.665   2.031
 2230TIP3    H1 6696   2.007   2.574   2.013
 2230TIP3    H2 6697   2.119   2.674   1.994
 2231TIP3   OH2 6698   2.912   5.603   0.719
 2231TIP3    H1 6699   3.000   5.612   0.756
 2231TIP3    H2 6700   2.904   5.509   0.700
 2232TIP3   OH2 6701   6.213   3.048   2.418
 2232TIP3    H1 6702   6.275   2.978   2.399
 2232TIP3    H2 6703   6.240   3.082   2.503
 2233TIP3   OH2 6704   2.305   4.353   4.950
 2233TIP3    H1 6705   2.265   4.390   5.029
 2233TIP3    H2 6706   2.305   4.258   4.967
 2234TIP3   OH2 6707   0.896   1.081   3.864
 2234TIP3    H1 6708   0.801   1.089   3.865
 2234TIP3    H2 6709   0.917   1.027   3.940
 2235TIP3   OH2 6710   3.806   1.378   3.373
 2235TIP3    H1 6711   3.897   1.390   3.400
 2235TIP3    H2 6712   3.756   1.378   3.455
 2236TIP3   OH2 6713   1.460   2.534   2.856
 2236TIP3    H1 6714   1.445   2.476   2.931
 2236TIP3    H2 6715   1.516   2.483   2.797
 2237TIP3   OH2 6716   4.802   4.750   5.172
 2237TIP3    H1 6717   4.745   4.820   5.140
 2237TIP3    H2 6718   4.891   4.780   5.153
 2238TIP3   OH2 6719   5.460   3.309   4.265
 2238TIP3    H1 6720   5.392   3.377   4.260
 2238TIP3    H2 6721   5.542   3.355   4.252
 2239TIP3   OH2 6722   5.868   0.922   0.977
 2239TIP3    H1 6723   5.874   1.008   1.018
 2239TIP3    H2 6724   5.821   0.938   0.895
 2240TIP3   OH2 6725   5.092   1.650   1.593
 2240TIP3    H1 6726   5.149   1.575   1.606
 2240TIP3    H2 6727   5.143   1.710   1.538
 2241TIP3   OH2 6728   3.502   4.469   3.560
 2241TIP3    H1 6729   3.582   4.517   3.581
 2241TIP3    H2 6730   3.504   4.391   3.615
 2242TIP3   OH2 6731   3.210   1.543   0.539
 2242TIP3    H1 6732   3.174   1.619   0.584
 2242TIP3    H2 6733   3.214   1.475   0.606
 2243TIP3   OH2 6734   1.788   3.826   3.506
 2243TIP3    H1 6735   1.860   3.817   3.444
 2243TIP3    H2 6736   1.720   3.873   3.458
 2244TIP3   OH2 6737   1.578   2.929   3.037
 2244TIP3    H1 6738   1.558   3.022   3.035
 2244TIP3    H2 6739   1.605   2.912   3.128
 2245TIP3   OH2 6740   2.492   4.463   2.230
 2245TIP3    H1 6741   2.512   4.406   2.155
 2245TIP3    H2 6742   2.397   4.471   2.229
 2246TIP3   OH2 6743  -0.018   0.192   3.844
 2246TIP3    H1 6744   0.037   0.124   3.806
 2246TIP3    H2 6745   0.010   0.273   3.802
 2247TIP3   OH2 6746   4.875   3.389   4.719
 2247TIP3    H1 6747   4.908   3.373   4.631
 2247TIP3    H2 6748   4.927   3.463   4.751
 2248TIP3   OH2 6749   2.920   4.811   3.491
 2248TIP3    H1 6750   2.855   4.743   3.508
 2248TIP3    H2 6751   2.868   4.890   3.476
 2249TIP3   OH2 6752   1.883   2.774   2.624
 2249TIP3    H1 6753   1.937   2.850   2.648
 2249TIP3    H2 6754   1.945   2.701   2.620
 2250TIP3   OH2 6755   5.373   3.938   4.091
 2250TIP3    H1 6756   5.440   4.006   4.087
 2250TIP3    H2 6757   5.339   3.943   4.180
 2251TIP3   OH2 6758   5.999   4.504   0.794
 2251TIP3    H1 6759   6.008   4.419   0.838
 2251TIP3    H2 6760   6.077   4.553   0.821
 2252TIP3   OH2 6761   3.532   3.941   0.527
 2252TIP3    H1 6762   3.573   3.886   0.461
 2252TIP3    H2 6763   3.466   3.885   0.568
 2253TIP3   OH2 6764   3.345   4.175   3.179
 2253TIP3    H1 6765   3.436   4.205   3.187
 2253TIP3    H2 6766   3.348   4.083   3.204
 2254TIP3   OH2 6767   4.778   1.287   1.282
 2254TIP3    H1 6768   4.859   1.287   1.334
 2254TIP3    H2 6769   4.742   1.375   1.293
 2255TIP3   OH2 6770   2.749   0.687   1.445
 2255TIP3    H1 6771   2.658   0.675   1.474
 2255TIP3    H2 6772   2.744   0.687   1.350
 2256TIP3   OH2 6773   5.668   4.571   2.338
 2256TIP3    H1 6774   5.663   4.497   2.278
 2256TIP3    H2 6775   5.757   4.604   2.328
 2257TIP3   OH2 6776   1.934   1.082   5.075
 2257TIP3    H1 6777   1.843   1.095   5.100
 2257TIP3    H2 6778   1.958   0.998   5.115
 2258TIP3   OH2 6779   2.895   2.638   2.864
 2258TIP3    H1 6780   2.806   2.674   2.869
 2258TIP3    H2 6781   2.919   2.646   2.772
 2259TIP3   OH2 6782   6.248   4.911   1.774
 2259TIP3    H1 6783   6.230   4.898   1.680
 2259TIP3    H2 6784   6.339   4.939   1.777
 2260TIP3   OH2 6785   5.697   0.216   1.589
 2260TIP3    H1 6786   5.686   0.282   1.657
 2260TIP3    H2 6787   5.790   0.194   1.590
 2261TIP3   OH2 6788   5.545   0.715   3.788
 2261TIP3    H1 6789   5.537   0.670   3.872
 2261TIP3    H2 6790   5.456   0.739   3.765
 2262TIP3   OH2 6791   3.621   4.575   1.394
 2262TIP3    H1 6792   3.629   4.586   1.299
 2262TIP3    H2 6793   3.557   4.641   1.420
 2263TIP3   OH2 6794   6.278   5.778   4.804
 2263TIP3    H1 6795   6.205   5.819   4.758
 2263TIP3    H2 6796   6.322   5.851   4.848
 2264TIP3   OH2 6797   5.623   0.204   2.837
 2264TIP3    H1 6798   5.662   0.256   2.908
 2264TIP3    H2 6799   5.539   0.245   2.821
 2265TIP3   OH2 6800   3.495   1.786   4.558
 2265TIP3    H1 6801   3.566   1.829   4.510
 2265TIP3    H2 6802   3.511   1.693   4.546
 2266TIP3   OH2 6803   2.385   3.460   2.039
 2266TIP3    H1 6804   2.404   3.497   1.953
 2266TIP3    H2 6805   2.453   3.495   2.096
 2267TIP3   OH2 6806  -0.025   4.830   4.155
 2267TIP3    H1 6807  -0.015   4.793   4.068
 2267TIP3    H2 6808   0.063   4.858   4.179
 2268TIP3   OH2 6809   1.022   4.439   3.553
 2268TIP3    H1 6810   1.047   4.347   3.565
 2268TIP3    H2 6811   0.940   4.447   3.602
 2269TIP3   OH2 6812   1.376   4.310   1.230
 2269TIP3    H1 6813   1.366   4.215   1.241
 2269TIP3    H2 6814   1.287   4.342   1.217
 2270TIP3   OH2 6815   5.751   3.029   4.580
 2270TIP3    H1 6816   5.675   3.059   4.530
 2270TIP3    H2 6817   5.724   2.945   4.616
 2271TIP3   OH2 6818   2.464   2.953   2.684
 2271TIP3    H1 6819   2.544   2.930   2.730
 2271TIP3    H2 6820   2.449   2.879   2.624
 2272TIP3   OH2 6821   1.223   5.556   0.612
 2272TIP3    H1 6822   1.135   5.527   0.636
 2272TIP3    H2 6823   1.276   5.538   0.690
 2273TIP3   OH2 6824   6.214   5.754   4.271
 2273TIP3    H1 6825   6.127   5.755   4.231
 2273TIP3    H2 6826   6.233   5.847   4.289
 2274TIP3   OH2 6827   0.405   0.625   5.021
 2274TIP3    H1 6828   0.317   0.588   5.013
 2274TIP3    H2 6829   0.453   0.561   5.074
 2275TIP3   OH2 6830   5.176   2.643   4.097
 2275TIP3    H1 6831   5.166   2.734   4.124
 2275TIP3    H2 6832   5.086   2.614   4.076
 2276TIP3   OH2 6833   3.339   2.967   4.356
 2276TIP3    H1 6834   3.432   2.987   4.367
 2276TIP3    H2 6835   3.318   2.910   4.430
 2277TIP3   OH2 6836   3.460   2.844   1.163
 2277TIP3    H1 6837   3.368   2.828   1.186
 2277TIP3    H2 6838   3.472   2.802   1.078
 2278TIP3   OH2 6839   1.901   1.547   5.054
 2278TIP3    H1 6840   1.913   1.621   4.994
 2278TIP3    H2 6841   1.907   1.470   4.998
 2279TIP3   OH2 6842   2.351   2.733   4.273
 2279TIP3    H1 6843   2.304   2.650   4.278
 2279TIP3    H2 6844   2.444   2.708   4.271
 2280TIP3   OH2 6845   0.648   1.163   4.116
 2280TIP3    H1 6846   0.616   1.204   4.035
 2280TIP3    H2 6847   0.570   1.150   4.169
 2281TIP3   OH2 6848   3.202   0.715   0.053
 2281TIP3    H1 6849   3.234   0.792   0.007
 2281TIP3    H2 6850   3.149   0.749   0.124
 2282TIP3   OH2 6851   4.994   2.111   2.528
 2282TIP3    H1 6852   5.020   2.085   2.440
 2282TIP3    H2 6853   5.074   2.147   2.567
 2283TIP3   OH2 6854   4.648   5.121   2.548
 2283TIP3    H1 6855   4.658   5.060   2.474
 2283TIP3    H2 6856   4.734   5.162   2.556
 2284TIP3   OH2 6857   0.043   1.293   2.603
 2284TIP3    H1 6858   0.004   1.293   2.516
 2284TIP3    H2 6859   0.005   1.370   2.646
 2285TIP3   OH2 6860   3.401   4.485   4.924
 2285TIP3    H1 6861   3.469   4.497   4.858
 2285TIP3    H2 6862   3.326   4.450   4.876
 2286TIP3   OH2 6863   3.406   5.070   1.472
 2286TIP3    H1 6864   3.335   5.130   1.448
 2286TIP3    H2 6865   3.479   5.096   1.417
 2287TIP3   OH2 6866   2.392   3.930   1.312
 2287TIP3    H1 6867   2.423   3.875   1.383
 2287TIP3    H2 6868   2.317   3.977   1.349
 2288TIP3   OH2 6869   2.162   3.988   2.675
 2288TIP3    H1 6870   2.094   3.961   2.613
 2288TIP3    H2 6871   2.243   3.954   2.637
 2289TIP3   OH2 6872   0.427   3.384   4.036
 2289TIP3    H1 6873   0.453   3.300   4.072
 2289TIP3    H2 6874   0.506   3.438   4.041
 2290TIP3   OH2 6875   3.440   1.840   1.521
 2290TIP3    H1 6876   3.526   1.800   1.511
 2290TIP3    H2 6877   3.427   1.889   1.439
 2291TIP3   OH2 6878   1.052   1.705   4.757
 2291TIP3    H1 6879   1.069   1.676   4.847
 2291TIP3    H2 6880   0.960   1.733   4.758
 2292TIP3   OH2 6881   2.409   2.463   3.074
 2292TIP3    H1 6882   2.433   2.555   3.061
 2292TIP3    H2 6883   2.347   2.444   3.004
 2293TIP3   OH2 6884   5.067   0.165   0.849
 2293TIP3    H1 6885   5.145   0.220   0.854
 2293TIP3    H2 6886   5.049   0.157   0.755
 2294TIP3   OH2 6887   0.705   1.385   4.598
 2294TIP3    H1 6888   0.659   1.455   4.552
 2294TIP3    H2 6889   0.798   1.407   4.590
 2295TIP3   OH2 6890   4.790   0.772   1.718
 2295TIP3    H1 6891   4.721   0.715   1.685
 2295TIP3    H2 6892   4.865   0.754   1.661
 2296TIP3   OH2 6893   6.087   3.703   4.554
 2296TIP3    H1 6894   6.140   3.680   4.630
 2296TIP3    H2 6895   5.997   3.682   4.580
 2297TIP3   OH2 6896   1.039   2.943   1.330
 2297TIP3    H1 6897   0.972   3.009   1.347
 2297TIP3    H2 6898   0.999   2.885   1.264
 2298TIP3   OH2 6899   1.454   2.228   2.811
 2298TIP3    H1 6900   1.511   2.158   2.845
 2298TIP3    H2 6901   1.389   2.241   2.881
 2299TIP3   OH2 6902   5.986   1.225   3.576
 2299TIP3    H1 6903   5.994   1.300   3.517
 2299TIP3    H2 6904   5.946   1.260   3.655
 2300TIP3   OH2 6905   5.253   0.386   0.169
 2300TIP3    H1 6906   5.288   0.432   0.092
 2300TIP3    H2 6907   5.159   0.402   0.166
 2301TIP3   OH2 6908   5.123   3.074   5.012
 2301TIP3    H1 6909   5.052   3.074   5.076
 2301TIP3    H2 6910   5.102   3.000   4.954
 2302TIP3   OH2 6911   4.504   4.511   3.796
 2302TIP3    H1 6912   4.599   4.500   3.801
 2302TIP3    H2 6913   4.478   4.538   3.884
 2303TIP3   OH2 6914   5.628   2.960   0.049
 2303TIP3    H1 6915   5.543   2.917   0.053
 2303TIP3    H2 6916   5.674   2.914  -0.021
 2304TIP3   OH2 6917   0.466   2.216   3.127
 2304TIP3    H1 6918   0.504   2.143   3.079
 2304TIP3    H2 6919   0.427   2.272   3.060
 2305TIP3   OH2 6920   3.419   5.186   1.127
 2305TIP3    H1 6921   3.351   5.204   1.192
 2305TIP3    H2 6922   3.500   5.182   1.178
 2306TIP3   OH2 6923   5.895   2.547   2.395
 2306TIP3    H1 6924   5.843   2.628   2.393
 2306TIP3    H2 6925   5.830   2.477   2.386
 2307TIP3   OH2 6926   1.664   1.263   3.360
 2307TIP3    H1 6927   1.714   1.226   3.288
 2307TIP3    H2 6928   1.608   1.329   3.318
 2308TIP3   OH2 6929   3.244   1.954   0.810
 2308TIP3    H1 6930   3.245   1.923   0.901
 2308TIP3    H2 6931   3.329   1.996   0.798
 2309TIP3   OH2 6932   6.027   2.345   5.056
 2309TIP3    H1 6933   6.084   2.342   4.979
 2309TIP3    H2 6934   6.078   2.303   5.126
 2310TIP3   OH2 6935   2.217   4.094   3.890
 2310TIP3    H1 6936   2.194   4.157   3.822
 2310TIP3    H2 6937   2.186   4.134   3.971
 2311TIP3   OH2 6938   1.690   4.812   2.678
 2311TIP3    H1 6939   1.610   4.761   2.676
 2311TIP3    H2 6940   1.759   4.750   2.656
 2312TIP3   OH2 6941   4.390   3.411   4.080
 2312TIP3    H1 6942   4.464   3.351   4.072
 2312TIP3    H2 6943   4.383   3.427   4.174
 2313TIP3   OH2 6944   5.377   0.251   1.161
 2313TIP3    H1 6945   5.423   0.234   1.243
 2313TIP3    H2 6946   5.286   0.265   1.188
 2314TIP3   OH2 6947   2.292   4.489   1.326
 2314TIP3    H1 6948   2.329   4.530   1.247
 2314TIP3    H2 6949   2.311   4.551   1.396
 2315TIP3   OH2 6950   4.698   4.395   4.765
 2315TIP3    H1 6951   4.770   4.396   4.829
 2315TIP3    H2 6952   4.628   4.347   4.808
 2316TIP3   OH2 6953   0.583   5.616   1.599
 2316TIP3    H1 6954   0.527   5.693   1.609
 2316TIP3    H2 6955   0.556   5.576   1.517
 2317TIP3   OH2 6956   5.910   0.293   2.401
 2317TIP3    H1 6957   5.868   0.338   2.474
 2317TIP3    H2 6958   6.003   0.294   2.422
 2318TIP3   OH2 6959   1.024   3.060   3.044
 2318TIP3    H1 6960   1.104   3.084   2.997
 2318TIP3    H2 6961   1.012   3.130   3.108
 2319TIP3   OH2 6962   0.773   4.156   2.359
 2319TIP3    H1 6963   0.736   4.218   2.295
 2319TIP3    H2 6964   0.723   4.172   2.439
 2320TIP3   OH2 6965   0.339   0.586   1.846
 2320TIP3    H1 6966   0.285   0.548   1.915
 2320TIP3    H2 6967   0.396   0.648   1.892
 2321TIP3   OH2 6968   0.097   3.361   1.274
 2321TIP3    H1 6969   0.025   3.406   1.229
 2321TIP3    H2 6970   0.082   3.268   1.256
 2322TIP3   OH2 6971   4.752   1.378   0.261
 2322TIP3    H1 6972   4.833   1.338   0.228
 2322TIP3    H2 6973   4.682   1.328   0.217
 2323TIP3   OH2 6974   4.611   2.114   2.208
 2323TIP3    H1 6975   4.557   2.042   2.175
 2323TIP3    H2 6976   4.688   2.071   2.245
 2324TIP3   OH2 6977   5.945   4.376   5.048
 2324TIP3    H1 6978   5.902   4.397   4.966
 2324TIP3    H2 6979   5.975   4.286   5.038
 2325TIP3   OH2 6980   0.126   5.128   2.717
 2325TIP3    H1 6981   0.194   5.092   2.660
 2325TIP3    H2 6982   0.094   5.053   2.767
 2326TIP3   OH2 6983   6.013   5.930   1.384
 2326TIP3    H1 6984   5.971   5.844   1.374
 2326TIP3    H2 6985   6.008   5.969   1.297
 2327TIP3   OH2 6986   0.716   2.978   3.857
 2327TIP3    H1 6987   0.682   2.894   3.826
 2327TIP3    H2 6988   0.659   3.044   3.818
 2328TIP3   OH2 6989   4.889   4.805   2.176
 2328TIP3    H1 6990   4.856   4.753   2.102
 2328TIP3    H2 6991   4.941   4.874   2.136
 2329TIP3   OH2 6992   3.795   0.206   2.708
 2329TIP3    H1 6993   3.727   0.188   2.773
 2329TIP3    H2 6994   3.827   0.293   2.731
 2330TIP3   OH2 6995   3.199   4.348   0.729
 2330TIP3    H1 6996   3.149   4.284   0.780
 2330TIP3    H2 6997   3.148   4.360   0.649
 2331TIP3   OH2 6998   2.732   4.461   4.611
 2331TIP3    H1 6999   2.793   4.394   4.642
 2331TIP3    H2 7000   2.654   4.411   4.587
 2332TIP3   OH2 7001   0.630   5.242   0.489
 2332TIP3    H1 7002   0.594   5.330   0.473
 2332TIP3    H2 7003   0.600   5.190   0.415
 2333TIP3   OH2 7004   1.791   4.672   1.992
 2333TIP3    H1 7005   1.780   4.605   1.925
 2333TIP3    H2 7006   1.714   4.728   1.982
 2334TIP3   OH2 7007   4.788   2.867   4.909
 2334TIP3    H1 7008   4.880   2.851   4.886
 2334TIP3    H2 7009   4.776   2.961   4.895
 2335TIP3   OH2 7010   2.688   5.499   1.840
 2335TIP3    H1 7011   2.696   5.587   1.877
 2335TIP3    H2 7012   2.769   5.486   1.791
 2336TIP3   OH2 7013   0.002   1.096   4.010
 2336TIP3    H1 7014   0.086   1.051   4.021
 2336TIP3    H2 7015  -0.058   1.027   3.982
 2337TIP3   OH2 7016   6.198   5.525   0.546
 2337TIP3    H1 7017   6.189   5.433   0.520
 2337TIP3    H2 7018   6.292   5.539   0.553
 2338TIP3   OH2 7019   4.012   4.103   4.357
 2338TIP3    H1 7020   4.069   4.158   4.303
 2338TIP3    H2 7021   3.974   4.040   4.295
 2339TIP3   OH2 7022   2.786   1.947   4.406
 2339TIP3    H1 7023   2.755   1.905   4.325
 2339TIP3    H2 7024   2.790   2.040   4.384
 2340TIP3   OH2 7025   5.554   2.657   2.031
 2340TIP3    H1 7026   5.615   2.624   1.966
 2340TIP3    H2 7027   5.470   2.661   1.986
 2341TIP3   OH2 7028   5.897   4.739   1.381
 2341TIP3    H1 7029   5.960   4.690   1.435
 2341TIP3    H2 7030   5.840   4.782   1.444
 2342TIP3   OH2 7031   1.778   1.667   1.569
 2342TIP3    H1 7032   1.688   1.642   1.547
 2342TIP3    H2 7033   1.821   1.585   1.594
 2343TIP3   OH2 7034   5.223   0.677   4.164
 2343TIP3    H1 7035   5.247   0.652   4.253
 2343TIP3    H2 7036   5.164   0.607   4.134
 2344TIP3   OH2 7037   2.609   1.129   0.624
 2344TIP3    H1 7038   2.673   1.064   0.653
 2344TIP3    H2 7039   2.576   1.096   0.541
 2345TIP3   OH2 7040   2.197   2.823   2.882
 2345TIP3    H1 7041   2.266   2.805   2.947
 2345TIP3    H2 7042   2.158   2.737   2.864
 2346TIP3   OH2 7043   5.130   4.938   4.144
 2346TIP3    H1 7044   5.191   4.866   4.158
 2346TIP3    H2 7045   5.067   4.930   4.216
 2347TIP3   OH2 7046   5.238   3.832   2.335
 2347TIP3    H1 7047   5.321   3.862   2.373
 2347TIP3    H2 7048   5.175   3.838   2.408
 2348TIP3   OH2 7049   1.469   1.748   2.911
 2348TIP3    H1 7050   1.484   1.684   2.841
 2348TIP3    H2 7051   1.379   1.733   2.939
 2349TIP3   OH2 7052   4.116   0.034   1.176
 2349TIP3    H1 7053   4.066   0.114   1.190
 2349TIP3    H2 7054   4.065  -0.035   1.220
 2350TIP3   OH2 7055   5.197   2.634   4.989
 2350TIP3    H1 7056   5.193   2.539   5.000
 2350TIP3    H2 7057   5.209   2.647   4.895
 2351TIP3   OH2 7058   5.018   0.509   4.064
 2351TIP3    H1 7059   4.944   0.550   4.110
 2351TIP3    H2 7060   5.033   0.427   4.111
 2352TIP3   OH2 7061   3.037   5.978   1.429
 2352TIP3    H1 7062   3.058   5.915   1.360
 2352TIP3    H2 7063   3.118   5.985   1.480
 2353TIP3   OH2 7064   1.408   0.469   0.090
 2353TIP3    H1 7065   1.453   0.391   0.123
 2353TIP3    H2 7066   1.364   0.439   0.011
 2354TIP3   OH2 7067   2.808   1.848   3.246
 2354TIP3    H1 7068   2.771   1.798   3.319
 2354TIP3    H2 7069   2.798   1.790   3.170
 2355TIP3   OH2 7070   4.956   1.243   1.688
 2355TIP3    H1 7071   4.956   1.155   1.727
 2355TIP3    H2 7072   4.987   1.300   1.759
 2356TIP3   OH2 7073   5.770   1.377   4.287
 2356TIP3    H1 7074   5.788   1.381   4.381
 2356TIP3    H2 7075   5.857   1.375   4.246
 2357TIP3   OH2 7076   0.123   0.493   5.007
 2357TIP3    H1 7077   0.076   0.488   5.091
 2357TIP3    H2 7078   0.071   0.439   4.947
 2358TIP3   OH2 7079   5.092   3.093   1.663
 2358TIP3    H1 7080   5.145   3.023   1.626
 2358TIP3    H2 7081   5.123   3.173   1.620
 2359TIP3   OH2 7082   0.134   0.670   0.039
 2359TIP3    H1 7083   0.085   0.672   0.122
 2359TIP3    H2 7084   0.216   0.714   0.058
 2360TIP3   OH2 7085   3.100   0.962   4.742
 2360TIP3    H1 7086   3.072   0.942   4.831
 2360TIP3    H2 7087   3.019   0.980   4.694
 2361TIP3   OH2 7088   2.137   3.058   1.699
 2361TIP3    H1 7089   2.203   3.111   1.744
 2361TIP3    H2 7090   2.186   3.010   1.632
 2362TIP3   OH2 7091   1.222   5.053   3.531
 2362TIP3    H1 7092   1.191   5.140   3.504
 2362TIP3    H2 7093   1.189   5.043   3.621
 2363TIP3   OH2 7094   1.952   5.232   0.691
 2363TIP3    H1 7095   1.896   5.219   0.614
 2363TIP3    H2 7096   1.994   5.147   0.705
 2364TIP3   OH2 7097   0.871   4.651   3.209
 2364TIP3    H1 7098   0.821   4.629   3.130
 2364TIP3    H2 7099   0.832   4.733   3.239
 2365TIP3   OH2 7100   1.299   1.404   4.351
 2365TIP3    H1 7101   1.339   1.330   4.305
 2365TIP3    H2 7102   1.223   1.428   4.298
 2366TIP3   OH2 7103   4.678   5.425   4.698
 2366TIP3    H1 7104   4.713   5.501   4.652
 2366TIP3    H2 7105   4.661   5.361   4.630
 2367TIP3   OH2 7106   4.666   3.575   0.692
 2367TIP3    H1 7107   4.638   3.631   0.765
 2367TIP3    H2 7108   4.590   3.519   0.675
 2368TIP3   OH2 7109   0.817   1.627   1.054
 2368TIP3    H1 7110   0.830   1.619   0.960
 2368TIP3    H2 7111   0.904   1.608   1.092
 2369TIP3   OH2 7112   2.804   0.665   2.527
 2369TIP3    H1 7113   2.735   0.684   2.463
 2369TIP3    H2 7114   2.756   0.633   2.603
 2370TIP3   OH2 7115   0.366   4.181   2.263
 2370TIP3    H1 7116   0.288   4.173   2.318
 2370TIP3    H2 7117   0.369   4.273   2.239
 2371TIP3   OH2 7118   5.615   1.501   3.016
 2371TIP3    H1 7119   5.664   1.450   2.952
 2371TIP3    H2 7120   5.624   1.452   3.098
 2372TIP3   OH2 7121   5.814   2.314   2.106
 2372TIP3    H1 7122   5.752   2.320   2.178
 2372TIP3    H2 7123   5.888   2.265   2.142
 2373TIP3   OH2 7124   0.644   2.160   0.384
 2373TIP3    H1 7125   0.582   2.089   0.369
 2373TIP3    H2 7126   0.657   2.161   0.479
 2374TIP3   OH2 7127   6.197   1.921   4.132
 2374TIP3    H1 7128   6.214   2.008   4.095
 2374TIP3    H2 7129   6.103   1.908   4.122
 2375TIP3   OH2 7130   1.817   1.370   3.836
 2375TIP3    H1 7131   1.898   1.326   3.861
 2375TIP3    H2 7132   1.827   1.384   3.742
 2376TIP3   OH2 7133   3.554   2.098   0.751
 2376TIP3    H1 7134   3.534   2.172   0.693
 2376TIP3    H2 7135   3.546   2.021   0.695
 2377TIP3   OH2 7136   3.992   4.516   1.318
 2377TIP3    H1 7137   3.943   4.585   1.363
 2377TIP3    H2 7138   4.061   4.492   1.380
 2378TIP3   OH2 7139   4.048   1.198   4.129
 2378TIP3    H1 7140   4.125   1.149   4.101
 2378TIP3    H2 7141   4.007   1.143   4.195
 2379TIP3   OH2 7142   4.050   2.566   3.907
 2379TIP3    H1 7143   3.969   2.568   3.856
 2379TIP3    H2 7144   4.039   2.494   3.968
 2380TIP3   OH2 7145   4.839   1.538   4.190
 2380TIP3    H1 7146   4.826   1.472   4.259
 2380TIP3    H2 7147   4.759   1.533   4.138
 2381TIP3   OH2 7148   0.117   5.152   4.484
 2381TIP3    H1 7149   0.034   5.144   4.437
 2381TIP3    H2 7150   0.092   5.171   4.575
 2382TIP3   OH2 7151   3.586   1.241   0.036
 2382TIP3    H1 7152   3.582   1.266  -0.056
 2382TIP3    H2 7153   3.505   1.276   0.074
 2383TIP3   OH2 7154   1.997   4.958   0.742
 2383TIP3    H1 7155   1.946   4.891   0.788
 2383TIP3    H2 7156   2.088   4.933   0.757
 2384TIP3   OH2 7157   6.064   0.814   2.414
 2384TIP3    H1 7158   6.042   0.759   2.489
 2384TIP3    H2 7159   6.028   0.767   2.339
 2385TIP3   OH2 7160   1.488   1.132   2.975
 2385TIP3    H1 7161   1.431   1.152   3.049
 2385TIP3    H2 7162   1.456   1.188   2.904
 2386TIP3   OH2 7163   6.209   4.298   0.235
 2386TIP3    H1 7164   6.267   4.233   0.194
 2386TIP3    H2 7165   6.152   4.246   0.292
 2387TIP3   OH2 7166   0.648   5.360   0.074
 2387TIP3    H1 7167   0.624   5.451   0.093
 2387TIP3    H2 7168   0.571   5.309   0.100
 2388TIP3   OH2 7169   2.550   2.819   5.025
 2388TIP3    H1 7170   2.473   2.774   5.059
 2388TIP3    H2 7171   2.607   2.749   4.993
 2389TIP3   OH2 7172   2.816   0.139   5.087
 2389TIP3    H1 7173   2.740   0.082   5.096
 2389TIP3    H2 7174   2.795   0.216   5.139
 2390TIP3   OH2 7175   3.208   5.400   5.064
 2390TIP3    H1 7176   3.241   5.339   5.131
 2390TIP3    H2 7177   3.172   5.473   5.114
 2391TIP3   OH2 7178   4.722   5.108   3.617
 2391TIP3    H1 7179   4.676   5.156   3.686
 2391TIP3    H2 7180   4.658   5.045   3.584
 2392TIP3   OH2 7181   3.359   2.688   0.294
 2392TIP3    H1 7182   3.401   2.722   0.215
 2392TIP3    H2 7183   3.274   2.655   0.263
 2393TIP3   OH2 7184   1.613   4.287   0.769
 2393TIP3    H1 7185   1.597   4.208   0.717
 2393TIP3    H2 7186   1.648   4.254   0.852
 2394TIP3   OH2 7187   5.423   0.010   1.013
 2394TIP3    H1 7188   5.449   0.018   0.921
 2394TIP3    H2 7189   5.399   0.099   1.039
 2395TIP3   OH2 7190   0.074   1.631   2.468
 2395TIP3    H1 7191   0.125   1.579   2.530
 2395TIP3    H2 7192   0.140   1.668   2.409
 2396TIP3   OH2 7193   2.561   2.602   2.260
 2396TIP3    H1 7194   2.636   2.619   2.203
 2396TIP3    H2 7195   2.535   2.512   2.239
 2397TIP3   OH2 7196   1.480   3.388   1.935
 2397TIP3    H1 7197   1.440   3.323   1.878
 2397TIP3    H2 7198   1.556   3.344   1.973
 2398TIP3   OH2 7199   4.492   2.956   4.347
 2398TIP3    H1 7200   4.529   2.936   4.434
 2398TIP3    H2 7201   4.520   2.883   4.292
 2399TIP3   OH2 7202   4.489   0.150   2.380
 2399TIP3    H1 7203   4.555   0.117   2.319
 2399TIP3    H2 7204   4.407   0.111   2.350
 2400TIP3   OH2 7205   0.408   2.389   2.918
 2400TIP3    H1 7206   0.480   2.431   2.870
 2400TIP3    H2 7207   0.375   2.323   2.857
 2401TIP3   OH2 7208   1.474   2.793   4.470
 2401TIP3    H1 7209   1.394   2.828   4.507
 2401TIP3    H2 7210   1.458   2.699   4.462
 2402TIP3   OH2 7211   5.547   0.858   0.443
 2402TIP3    H1 7212   5.571   0.768   0.465
 2402TIP3    H2 7213   5.615   0.888   0.383
 2403TIP3   OH2 7214   4.078   5.318   3.593
 2403TIP3    H1 7215   4.123   5.252   3.646
 2403TIP3    H2 7216   4.004   5.271   3.555
 2404TIP3   OH2 7217   5.363   2.199   0.145
 2404TIP3    H1 7218   5.317   2.279   0.120
 2404TIP3    H2 7219   5.453   2.228   0.161
 2405TIP3   OH2 7220   2.449   4.199   1.551
 2405TIP3    H1 7221   2.480   4.113   1.580
 2405TIP3    H2 7222   2.361   4.206   1.588
 2406TIP3   OH2 7223   1.175   0.332   1.404
 2406TIP3    H1 7224   1.200   0.249   1.364
 2406TIP3    H2 7225   1.097   0.360   1.355
 2407TIP3   OH2 7226   2.495   1.024   0.357
 2407TIP3    H1 7227   2.530   1.044   0.271
 2407TIP3    H2 7228   2.519   0.933   0.374
 2408TIP3   OH2 7229   0.726   5.677   2.046
 2408TIP3    H1 7230   0.631   5.685   2.044
 2408TIP3    H2 7231   0.749   5.632   1.965
 2409TIP3   OH2 7232   4.249   3.038   0.391
 2409TIP3    H1 7233   4.169   2.988   0.408
 2409TIP3    H2 7234   4.311   2.973   0.356
 2410TIP3   OH2 7235   0.512   2.996   0.637
 2410TIP3    H1 7236   0.558   3.002   0.553
 2410TIP3    H2 7237   0.424   2.967   0.613
 2411TIP3   OH2 7238   5.324   2.438   3.470
 2411TIP3    H1 7239   5.408   2.471   3.503
 2411TIP3    H2 7240   5.261   2.457   3.540
 2412TIP3   OH2 7241   1.046   2.156   1.472
 2412TIP3    H1 7242   1.101   2.123   1.401
 2412TIP3    H2 7243   0.971   2.095   1.474
 2413TIP3   OH2 7244   1.020   4.292   2.249
 2413TIP3    H1 7245   1.091   4.232   2.224
 2413TIP3    H2 7246   0.963   4.239   2.305
 2414TIP3   OH2 7247   0.829   4.675   3.514
 2414TIP3    H1 7248   0.838   4.738   3.442
 2414TIP3    H2 7249   0.870   4.718   3.589
 2415TIP3   OH2 7250   3.140   3.724   2.950
 2415TIP3    H1 7251   3.116   3.632   2.938
 2415TIP3    H2 7252   3.229   3.730   2.915
 2416TIP3   OH2 7253   2.829   2.515   3.915
 2416TIP3    H1 7254   2.916   2.555   3.911
 2416TIP3    H2 7255   2.779   2.557   3.846
 2417TIP3   OH2 7256   3.416   0.115   4.727
 2417TIP3    H1 7257   3.444   0.134   4.817
 2417TIP3    H2 7258   3.353   0.184   4.706
 2418TIP3   OH2 7259   1.673   5.725   0.869
 2418TIP3    H1 7260   1.599   5.688   0.821
 2418TIP3    H2 7261   1.701   5.800   0.817
 2419TIP3   OH2 7262   4.794   1.263   2.939
 2419TIP3    H1 7263   4.779   1.339   2.883
 2419TIP3    H2 7264   4.802   1.190   2.878
 2420TIP3   OH2 7265   4.959   4.937   0.916
 2420TIP3    H1 7266   4.939   4.843   0.923
 2420TIP3    H2 7267   4.890   4.980   0.966
 2421TIP3   OH2 7268   5.385   1.963   1.456
 2421TIP3    H1 7269   5.371   2.047   1.500
 2421TIP3    H2 7270   5.478   1.944   1.469
 2422TIP3   OH2 7271   5.047   2.872   4.817
 2422TIP3    H1 7272   5.125   2.820   4.799
 2422TIP3    H2 7273   5.021   2.907   4.731
 2423TIP3   OH2 7274   2.645   2.089   2.022
 2423TIP3    H1 7275   2.697   2.080   2.102
 2423TIP3    H2 7276   2.708   2.073   1.952
 2424TIP3   OH2 7277   1.955   1.688   1.361
 2424TIP3    H1 7278   1.945   1.685   1.456
 2424TIP3    H2 7279   1.867   1.672   1.327
 2425TIP3   OH2 7280   4.202   0.883   0.512
 2425TIP3    H1 7281   4.138   0.915   0.576
 2425TIP3    H2 7282   4.261   0.957   0.497
 2426TIP3   OH2 7283   2.364   4.469   2.786
 2426TIP3    H1 7284   2.342   4.386   2.745
 2426TIP3    H2 7285   2.284   4.494   2.833
 2427TIP3   OH2 7286   5.292   4.709   3.696
 2427TIP3    H1 7287   5.361   4.645   3.713
 2427TIP3    H2 7288   5.334   4.777   3.644
 2428TIP3   OH2 7289   4.093   4.535   1.074
 2428TIP3    H1 7290   4.079   4.442   1.057
 2428TIP3    H2 7291   4.089   4.543   1.170
 2429TIP3   OH2 7292   1.536   3.497   3.507
 2429TIP3    H1 7293   1.462   3.551   3.535
 2429TIP3    H2 7294   1.612   3.536   3.552
 2430TIP3   OH2 7295   5.349   3.153   3.837
 2430TIP3    H1 7296   5.416   3.149   3.768
 2430TIP3    H2 7297   5.347   3.065   3.874
 2431TIP3   OH2 7298   2.168   4.410   3.851
 2431TIP3    H1 7299   2.144   4.497   3.818
 2431TIP3    H2 7300   2.131   4.407   3.939
 2432TIP3   OH2 7301   4.722   4.341   0.586
 2432TIP3    H1 7302   4.634   4.338   0.548
 2432TIP3    H2 7303   4.735   4.432   0.610
 2433TIP3   OH2 7304   1.929   5.775   1.291
 2433TIP3    H1 7305   1.895   5.709   1.231
 2433TIP3    H2 7306   1.872   5.770   1.368
 2434TIP3   OH2 7307   2.795   3.615   3.430
 2434TIP3    H1 7308   2.700   3.630   3.426
 2434TIP3    H2 7309   2.803   3.526   3.463
 2435TIP3   OH2 7310   5.967   3.141   0.629
 2435TIP3    H1 7311   5.919   3.121   0.710
 2435TIP3    H2 7312   6.056   3.158   0.659
 2436TIP3   OH2 7313   5.737   0.819   4.348
 2436TIP3    H1 7314   5.702   0.771   4.423
 2436TIP3    H2 7315   5.827   0.838   4.371
 2437TIP3   OH2 7316   5.313   0.552   4.465
 2437TIP3    H1 7317   5.294   0.502   4.545
 2437TIP3    H2 7318   5.250   0.521   4.401
 2438TIP3   OH2 7319   5.008   2.866   0.731
 2438TIP3    H1 7320   5.031   2.885   0.822
 2438TIP3    H2 7321   4.925   2.818   0.736
 2439TIP3   OH2 7322   2.976   4.783   3.765
 2439TIP3    H1 7323   3.069   4.765   3.775
 2439TIP3    H2 7324   2.967   4.811   3.674
 2440TIP3   OH2 7325   5.065   0.053   3.883
 2440TIP3    H1 7326   5.043  -0.029   3.838
 2440TIP3    H2 7327   5.157   0.068   3.862
 2441TIP3   OH2 7328   0.497   3.735   2.867
 2441TIP3    H1 7329   0.496   3.771   2.956
 2441TIP3    H2 7330   0.552   3.657   2.873
 2442TIP3   OH2 7331   2.225   3.769   1.954
 2442TIP3    H1 7332   2.222   3.698   2.018
 2442TIP3    H2 7333   2.218   3.726   1.869
 2443TIP3   OH2 7334   6.350   3.251   1.006
 2443TIP3    H1 7335   6.271   3.214   0.966
 2443TIP3    H2 7336   6.379   3.185   1.069
 2444TIP3   OH2 7337   3.791   2.635   2.988
 2444TIP3    H1 7338   3.746   2.575   3.049
 2444TIP3    H2 7339   3.824   2.705   3.043
 2445TIP3   OH2 7340   0.217   0.882   0.638
 2445TIP3    H1 7341   0.127   0.892   0.605
 2445TIP3    H2 7342   0.243   0.795   0.607
 2446TIP3   OH2 7343   2.187   3.733   1.666
 2446TIP3    H1 7344   2.263   3.678   1.648
 2446TIP3    H2 7345   2.159   3.764   1.580
 2447TIP3   OH2 7346   1.611   2.243   1.073
 2447TIP3    H1 7347   1.645   2.305   1.008
 2447TIP3    H2 7348   1.525   2.217   1.038
 2448TIP3   OH2 7349   2.111   4.046   0.384
 2448TIP3    H1 7350   2.174   4.072   0.317
 2448TIP3    H2 7351   2.164   4.039   0.464
 2449TIP3   OH2 7352   0.096   4.896   0.886
 2449TIP3    H1 7353   0.111   4.805   0.860
 2449TIP3    H2 7354   0.099   4.945   0.804
 2450TIP3   OH2 7355   5.773   0.028   4.327
 2450TIP3    H1 7356   5.683   0.009   4.353
 2450TIP3    H2 7357   5.791   0.114   4.365
 2451TIP3   OH2 7358   2.368   5.054   4.508
 2451TIP3    H1 7359   2.306   4.991   4.471
 2451TIP3    H2 7360   2.453   5.028   4.474
 2452TIP3   OH2 7361   0.969   5.323   3.609
 2452TIP3    H1 7362   0.886   5.371   3.606
 2452TIP3    H2 7363   1.026   5.377   3.663
 2453TIP3   OH2 7364   3.971   0.395   4.563
 2453TIP3    H1 7365   3.876   0.391   4.553
 2453TIP3    H2 7366   4.003   0.437   4.483
 2454TIP3   OH2 7367   2.678   3.650   4.527
 2454TIP3    H1 7368   2.634   3.734   4.530
 2454TIP3    H2 7369   2.693   3.627   4.619
 2455TIP3   OH2 7370   3.592   4.756   3.338
 2455TIP3    H1 7371   3.666   4.804   3.302
 2455TIP3    H2 7372   3.531   4.824   3.367
 2456TIP3   OH2 7373   4.729   1.892   3.477
 2456TIP3    H1 7374   4.671   1.965   3.455
 2456TIP3    H2 7375   4.710   1.873   3.568
 2457TIP3   OH2 7376   5.546   5.316   3.934
 2457TIP3    H1 7377   5.461   5.354   3.955
 2457TIP3    H2 7378   5.529   5.222   3.926
 2458TIP3   OH2 7379   3.924   0.749   3.112
 2458TIP3    H1 7380   3.864   0.782   3.179
 2458TIP3    H2 7381   3.978   0.684   3.157
 2459TIP3   OH2 7382   4.284   2.048   0.827
 2459TIP3    H1 7383   4.209   2.061   0.885
 2459TIP3    H2 7384   4.322   1.965   0.855
 2460TIP3   OH2 7385   3.711   3.671   2.273
 2460TIP3    H1 7386   3.688   3.762   2.253
 2460TIP3    H2 7387   3.698   3.624   2.191
 2461TIP3   OH2 7388   4.592   5.068   3.886
 2461TIP3    H1 7389   4.570   4.994   3.828
 2461TIP3    H2 7390   4.611   5.027   3.970
 2462TIP3   OH2 7391   1.424   0.678   2.420
 2462TIP3    H1 7392   1.358   0.676   2.350
 2462TIP3    H2 7393   1.507   0.684   2.374
 2463TIP3   OH2 7394   4.191   4.448   1.514
 2463TIP3    H1 7395   4.139   4.376   1.550
 2463TIP3    H2 7396   4.248   4.475   1.585
 2464TIP3   OH2 7397   0.328   3.526   1.003
 2464TIP3    H1 7398   0.300   3.606   0.959
 2464TIP3    H2 7399   0.298   3.456   0.945
 2465TIP3   OH2 7400   1.208   1.264   4.942
 2465TIP3    H1 7401   1.115   1.286   4.943
 2465TIP3    H2 7402   1.225   1.230   4.854
 2466TIP3   OH2 7403   5.900   0.067   5.192
 2466TIP3    H1 7404   5.989   0.050   5.162
 2466TIP3    H2 7405   5.901   0.158   5.221
 2467TIP3   OH2 7406   0.564   3.712   4.367
 2467TIP3    H1 7407   0.572   3.616   4.366
 2467TIP3    H2 7408   0.547   3.733   4.459
 2468TIP3   OH2 7409   5.088   2.167   0.231
 2468TIP3    H1 7410   5.170   2.137   0.192
 2468TIP3    H2 7411   5.078   2.257   0.200
 2469TIP3   OH2 7412   2.413   4.668   2.615
 2469TIP3    H1 7413   2.372   4.611   2.680
 2469TIP3    H2 7414   2.507   4.654   2.625
 2470TIP3   OH2 7415   0.795   2.062   2.423
 2470TIP3    H1 7416   0.809   2.156   2.435
 2470TIP3    H2 7417   0.774   2.030   2.510
 2471TIP3   OH2 7418   2.918   0.903   3.010
 2471TIP3    H1 7419   2.986   0.970   3.010
 2471TIP3    H2 7420   2.963   0.822   3.035
 2472TIP3   OH2 7421   2.960   2.422   4.358
 2472TIP3    H1 7422   3.053   2.404   4.342
 2472TIP3    H2 7423   2.941   2.499   4.306
 2473TIP3   OH2 7424   2.079   4.617   3.671
 2473TIP3    H1 7425   2.019   4.657   3.608
 2473TIP3    H2 7426   2.066   4.522   3.660
 2474TIP3   OH2 7427   3.658   2.975   3.326
 2474TIP3    H1 7428   3.594   3.016   3.268
 2474TIP3    H2 7429   3.683   3.044   3.388
 2475TIP3   OH2 7430   5.159   2.180   2.290
 2475TIP3    H1 7431   5.201   2.252   2.337
 2475TIP3    H2 7432   5.196   2.184   2.202
 2476TIP3   OH2 7433   1.473   5.127   2.695
 2476TIP3    H1 7434   1.462   5.050   2.750
 2476TIP3    H2 7435   1.546   5.106   2.637
 2477TIP3   OH2 7436   3.058   2.078   3.514
 2477TIP3    H1 7437   3.052   2.124   3.430
 2477TIP3    H2 7438   2.968   2.071   3.545
 2478TIP3   OH2 7439   2.444   4.275   2.001
 2478TIP3    H1 7440   2.418   4.185   2.019
 2478TIP3    H2 7441   2.381   4.305   1.935
 2479TIP3   OH2 7442   3.885   5.934   1.223
 2479TIP3    H1 7443   3.856   6.009   1.171
 2479TIP3    H2 7444   3.974   5.917   1.193
 2480TIP3   OH2 7445   0.321   1.361   4.158
 2480TIP3    H1 7446   0.317   1.322   4.071
 2480TIP3    H2 7447   0.249   1.424   4.158
 2481TIP3   OH2 7448   5.213   5.427   0.573
 2481TIP3    H1 7449   5.168   5.511   0.555
 2481TIP3    H2 7450   5.198   5.376   0.493
 2482TIP3   OH2 7451   0.342   1.690   3.768
 2482TIP3    H1 7452   0.334   1.753   3.840
 2482TIP3    H2 7453   0.256   1.648   3.764
 2483TIP3   OH2 7454   1.572   5.157   4.162
 2483TIP3    H1 7455   1.550   5.180   4.072
 2483TIP3    H2 7456   1.661   5.121   4.156
 2484TIP3   OH2 7457   1.893   3.031   5.040
 2484TIP3    H1 7458   1.989   3.032   5.035
 2484TIP3    H2 7459   1.868   3.124   5.047
 2485TIP3   OH2 7460   1.061   2.476   3.507
 2485TIP3    H1 7461   0.990   2.510   3.561
 2485TIP3    H2 7462   1.138   2.480   3.563
 2486TIP3   OH2 7463   0.366   3.131   0.922
 2486TIP3    H1 7464   0.300   3.195   0.895
 2486TIP3    H2 7465   0.375   3.074   0.846
 2487TIP3   OH2 7466   2.233   0.322   4.169
 2487TIP3    H1 7467   2.300   0.341   4.234
 2487TIP3    H2 7468   2.240   0.228   4.153
 2488TIP3   OH2 7469   3.928   4.554   2.676
 2488TIP3    H1 7470   3.908   4.489   2.609
 2488TIP3    H2 7471   4.023   4.567   2.668
 2489TIP3   OH2 7472   4.880   2.273   2.233
 2489TIP3    H1 7473   4.961   2.249   2.279
 2489TIP3    H2 7474   4.896   2.247   2.142
 2490TIP3   OH2 7475   3.012   5.529   0.353
 2490TIP3    H1 7476   2.928   5.569   0.376
 2490TIP3    H2 7477   3.016   5.449   0.406
 2491TIP3   OH2 7478   1.005   1.497   3.487
 2491TIP3    H1 7479   1.026   1.578   3.440
 2491TIP3    H2 7480   0.954   1.527   3.563
 2492TIP3   OH2 7481   4.221   0.678   2.131
 2492TIP3    H1 7482   4.267   0.640   2.207
 2492TIP3    H2 7483   4.283   0.742   2.096
 2493TIP3   OH2 7484   2.983   3.542   4.328
 2493TIP3    H1 7485   2.930   3.531   4.249
 2493TIP3    H2 7486   2.976   3.458   4.373
 2494TIP3   OH2 7487   1.023   5.188   1.366
 2494TIP3    H1 7488   1.093   5.130   1.396
 2494TIP3    H2 7489   1.023   5.261   1.428
 2495TIP3   OH2 7490   2.071   0.759   4.425
 2495TIP3    H1 7491   2.068   0.673   4.383
 2495TIP3    H2 7492   2.078   0.740   4.519
 2496TIP3   OH2 7493   5.368   0.419   4.890
 2496TIP3    H1 7494   5.390   0.369   4.811
 2496TIP3    H2 7495   5.416   0.374   4.960
 2497TIP3   OH2 7496   1.900   3.846   3.240
 2497TIP3    H1 7497   1.966   3.777   3.234
 2497TIP3    H2 7498   1.837   3.826   3.171
 2498TIP3   OH2 7499   0.037   2.309   2.708
 2498TIP3    H1 7500   0.101   2.369   2.669
 2498TIP3    H2 7501  -0.015   2.365   2.766
 2499TIP3   OH2 7502   2.061   3.333   0.409
 2499TIP3    H1 7503   2.060   3.271   0.336
 2499TIP3    H2 7504   2.012   3.289   0.479
 2500TIP3   OH2 7505   4.670   0.095   2.154
 2500TIP3    H1 7506   4.743   0.133   2.104
 2500TIP3    H2 7507   4.593   0.142   2.123
 2501TIP3   OH2 7508   5.798   3.992   0.867
 2501TIP3    H1 7509   5.709   4.004   0.902
 2501TIP3    H2 7510   5.796   3.904   0.828
 2502TIP3   OH2 7511   0.860   2.251   3.926
 2502TIP3    H1 7512   0.785   2.193   3.913
 2502TIP3    H2 7513   0.934   2.192   3.939
 2503TIP3   OH2 7514   4.159   4.856   2.072
 2503TIP3    H1 7515   4.112   4.940   2.073
 2503TIP3    H2 7516   4.097   4.793   2.108
 2504TIP3   OH2 7517   5.025   1.948   2.291
 2504TIP3    H1 7518   5.039   1.887   2.219
 2504TIP3    H2 7519   5.091   2.016   2.278
 2505TIP3   OH2 7520   2.537   3.849   2.922
 2505TIP3    H1 7521   2.592   3.771   2.923
 2505TIP3    H2 7522   2.497   3.849   2.835
 2506TIP3   OH2 7523   0.911   4.153   3.150
 2506TIP3    H1 7524   0.871   4.182   3.232
 2506TIP3    H2 7525   0.852   4.185   3.082
 2507TIP3   OH2 7526   1.552   0.270   4.258
 2507TIP3    H1 7527   1.493   0.277   4.333
 2507TIP3    H2 7528   1.639   0.263   4.296
 2508TIP3   OH2 7529   3.931   3.099   1.877
 2508TIP3    H1 7530   3.860   3.146   1.922
 2508TIP3    H2 7531   3.953   3.155   1.802
 2509TIP3   OH2 7532   4.110   0.518   3.945
 2509TIP3    H1 7533   4.116   0.584   3.876
 2509TIP3    H2 7534   4.201   0.499   3.969
 2510TIP3   OH2 7535   2.590   4.668   1.004
 2510TIP3    H1 7536   2.522   4.606   1.031
 2510TIP3    H2 7537   2.577   4.745   1.060
 2511TIP3   OH2 7538   6.211   4.702   3.096
 2511TIP3    H1 7539   6.139   4.643   3.119
 2511TIP3    H2 7540   6.198   4.778   3.153
 2512TIP3   OH2 7541   3.166   5.021   4.438
 2512TIP3    H1 7542   3.122   4.966   4.503
 2512TIP3    H2 7543   3.227   5.074   4.489
 2513TIP3   OH2 7544   1.258   2.735   1.957
 2513TIP3    H1 7545   1.309   2.813   1.937
 2513TIP3    H2 7546   1.315   2.681   2.011
 2514TIP3   OH2 7547   2.398   3.536   1.194
 2514TIP3    H1 7548   2.421   3.616   1.243
 2514TIP3    H2 7549   2.426   3.465   1.251
 2515TIP3   OH2 7550   1.595   3.645   0.878
 2515TIP3    H1 7551   1.664   3.710   0.891
 2515TIP3    H2 7552   1.604   3.586   0.953
 2516TIP3   OH2 7553   0.164   3.932   3.370
 2516TIP3    H1 7554   0.182   3.916   3.277
 2516TIP3    H2 7555   0.076   3.970   3.371
 2517TIP3   OH2 7556   6.087   3.102   0.960
 2517TIP3    H1 7557   5.996   3.075   0.946
 2517TIP3    H2 7558   6.130   3.083   0.877
 2518TIP3   OH2 7559   5.510   2.194   1.805
 2518TIP3    H1 7560   5.431   2.170   1.854
 2518TIP3    H2 7561   5.554   2.110   1.789
 2519TIP3   OH2 7562   4.745   3.142   4.343
 2519TIP3    H1 7563   4.679   3.112   4.404
 2519TIP3    H2 7564   4.782   3.221   4.384
 2520TIP3   OH2 7565   1.697   3.627   1.996
 2520TIP3    H1 7566   1.635   3.669   2.055
 2520TIP3    H2 7567   1.684   3.533   2.012
 2521TIP3   OH2 7568   3.061   1.516   4.276
 2521TIP3    H1 7569   3.099   1.598   4.244
 2521TIP3    H2 7570   2.968   1.523   4.254
 2522TIP3   OH2 7571   2.093   1.332   1.466
 2522TIP3    H1 7572   2.120   1.306   1.554
 2522TIP3    H2 7573   2.174   1.337   1.416
 2523TIP3   OH2 7574   2.104   3.744   0.937
 2523TIP3    H1 7575   2.099   3.820   0.995
 2523TIP3    H2 7576   2.181   3.759   0.883
 2524TIP3   OH2 7577   6.233   4.333   1.694
 2524TIP3    H1 7578   6.251   4.358   1.785
 2524TIP3    H2 7579   6.138   4.339   1.686
 2525TIP3   OH2 7580   1.841   5.611   1.104
 2525TIP3    H1 7581   1.769   5.549   1.093
 2525TIP3    H2 7582   1.857   5.644   1.016
 2526TIP3   OH2 7583   0.269   2.734   2.838
 2526TIP3    H1 7584   0.278   2.749   2.932
 2526TIP3    H2 7585   0.218   2.654   2.831
 2527TIP3   OH2 7586   1.206   1.553   2.836
 2527TIP3    H1 7587   1.142   1.624   2.829
 2527TIP3    H2 7588   1.196   1.521   2.926
 2528TIP3   OH2 7589   3.945   3.679   3.505
 2528TIP3    H1 7590   3.999   3.725   3.569
 2528TIP3    H2 7591   3.855   3.703   3.528
 2529TIP3   OH2 7592   5.437   3.505   3.512
 2529TIP3    H1 7593   5.454   3.546   3.427
 2529TIP3    H2 7594   5.438   3.578   3.574
 2530TIP3   OH2 7595   2.028   1.859   2.945
 2530TIP3    H1 7596   2.030   1.821   2.857
 2530TIP3    H2 7597   2.029   1.784   3.004
 2531TIP3   OH2 7598   4.304   5.536   1.551
 2531TIP3    H1 7599   4.391   5.532   1.590
 2531TIP3    H2 7600   4.285   5.629   1.544
 2532TIP3   OH2 7601   1.329   0.509   1.076
 2532TIP3    H1 7602   1.347   0.472   0.989
 2532TIP3    H2 7603   1.337   0.604   1.063
 2533TIP3   OH2 7604   5.506   5.878   2.174
 2533TIP3    H1 7605   5.504   5.863   2.080
 2533TIP3    H2 7606   5.599   5.883   2.196
 2534TIP3   OH2 7607   2.679   5.781   5.059
 2534TIP3    H1 7608   2.687   5.694   5.020
 2534TIP3    H2 7609   2.605   5.773   5.119
 2535TIP3   OH2 7610   2.253   5.240   1.334
 2535TIP3    H1 7611   2.168   5.253   1.293
 2535TIP3    H2 7612   2.309   5.307   1.296
 2536TIP3   OH2 7613   5.749   1.691   5.182
 2536TIP3    H1 7614   5.816   1.666   5.119
 2536TIP3    H2 7615   5.741   1.616   5.241
 2537TIP3   OH2 7616   1.191   4.534   0.639
 2537TIP3    H1 7617   1.111   4.487   0.614
 2537TIP3    H2 7618   1.256   4.464   0.649
 2538TIP3   OH2 7619   2.648   3.410   5.150
 2538TIP3    H1 7620   2.614   3.399   5.238
 2538TIP3    H2 7621   2.576   3.382   5.093
 2539TIP3   OH2 7622   5.160   4.228   4.740
 2539TIP3    H1 7623   5.173   4.217   4.835
 2539TIP3    H2 7624   5.140   4.139   4.709
 2540TIP3   OH2 7625   5.262   3.730   0.490
 2540TIP3    H1 7626   5.251   3.758   0.399
 2540TIP3    H2 7627   5.347   3.766   0.516
 2541TIP3   OH2 7628   2.472   0.377   1.928
 2541TIP3    H1 7629   2.496   0.416   2.011
 2541TIP3    H2 7630   2.552   0.377   1.876
 2542TIP3   OH2 7631   4.442   3.527   0.897
 2542TIP3    H1 7632   4.384   3.486   0.962
 2542TIP3    H2 7633   4.440   3.468   0.822
 2543TIP3   OH2 7634   4.381   0.616   2.344
 2543TIP3    H1 7635   4.439   0.687   2.371
 2543TIP3    H2 7636   4.437   0.539   2.340
 2544TIP3   OH2 7637   4.062   2.636   2.526
 2544TIP3    H1 7638   4.088   2.544   2.517
 2544TIP3    H2 7639   3.973   2.639   2.493
 2545TIP3   OH2 7640   6.105   2.160   0.421
 2545TIP3    H1 7641   6.175   2.200   0.369
 2545TIP3    H2 7642   6.038   2.229   0.429
 2546TIP3   OH2 7643   3.170   0.839   1.208
 2546TIP3    H1 7644   3.256   0.825   1.249
 2546TIP3    H2 7645   3.130   0.752   1.209
 2547TIP3   OH2 7646   1.255   1.442   1.751
 2547TIP3    H1 7647   1.232   1.455   1.659
 2547TIP3    H2 7648   1.292   1.353   1.754
 2548TIP3   OH2 7649   1.158   2.952   3.690
 2548TIP3    H1 7650   1.187   2.973   3.778
 2548TIP3    H2 7651   1.196   3.021   3.635
 2549TIP3   OH2 7652   3.099   0.627   2.426
 2549TIP3    H1 7653   3.129   0.632   2.336
 2549TIP3    H2 7654   3.018   0.678   2.428
 2550TIP3   OH2 7655   2.542   2.153   0.658
 2550TIP3    H1 7656   2.637   2.146   0.646
 2550TIP3    H2 7657   2.505   2.104   0.585
 2551TIP3   OH2 7658   1.224   5.315   3.457
 2551TIP3    H1 7659   1.176   5.397   3.467
 2551TIP3    H2 7660   1.315   5.341   3.448
 2552TIP3   OH2 7661   0.779   6.004   1.995
 2552TIP3    H1 7662   0.709   6.032   1.935
 2552TIP3    H2 7663   0.768   5.910   2.002
 2553TIP3   OH2 7664   5.700   4.823   2.965
 2553TIP3    H1 7665   5.696   4.788   3.054
 2553TIP3    H2 7666   5.690   4.917   2.977
 2554TIP3   OH2 7667   6.256   5.168   0.146
 2554TIP3    H1 7668   6.249   5.263   0.136
 2554TIP3    H2 7669   6.263   5.135   0.057
 2555TIP3   OH2 7670   4.506   5.168   1.143
 2555TIP3    H1 7671   4.440   5.156   1.210
 2555TIP3    H2 7672   4.506   5.262   1.125
 2556TIP3   OH2 7673   4.123   0.542   3.195
 2556TIP3    H1 7674   4.052   0.480   3.178
 2556TIP3    H2 7675   4.168   0.550   3.111
 2557TIP3   OH2 7676   4.928   5.000   5.201
 2557TIP3    H1 7677   4.934   5.010   5.106
 2557TIP3    H2 7678   5.017   5.016   5.232
 2558TIP3   OH2 7679   3.176   2.872   3.142
 2558TIP3    H1 7680   3.233   2.835   3.209
 2558TIP3    H2 7681   3.116   2.929   3.190
 2559TIP3   OH2 7682   5.867   3.229   3.042
 2559TIP3    H1 7683   5.846   3.247   3.134
 2559TIP3    H2 7684   5.832   3.304   2.994
 2560TIP3   OH2 7685   2.697   0.650   2.014
 2560TIP3    H1 7686   2.757   0.582   2.046
 2560TIP3    H2 7687   2.693   0.635   1.919
 2561TIP3   OH2 7688   3.683   2.810   4.004
 2561TIP3    H1 7689   3.638   2.818   4.088
 2561TIP3    H2 7690   3.656   2.725   3.970
 2562TIP3   OH2 7691   3.633   5.848   4.830
 2562TIP3    H1 7692   3.638   5.766   4.780
 2562TIP3    H2 7693   3.588   5.909   4.773
 2563TIP3   OH2 7694   3.772   3.763   4.495
 2563TIP3    H1 7695   3.808   3.756   4.407
 2563TIP3    H2 7696   3.727   3.847   4.496
 2564TIP3   OH2 7697   5.221   3.387   3.727
 2564TIP3    H1 7698   5.267   3.316   3.771
 2564TIP3    H2 7699   5.283   3.419   3.662
 2565TIP3   OH2 7700   1.200   3.574   1.370
 2565TIP3    H1 7701   1.177   3.629   1.295
 2565TIP3    H2 7702   1.126   3.584   1.430
 2566TIP3   OH2 7703   5.570   3.003   1.353
 2566TIP3    H1 7704   5.625   3.053   1.413
 2566TIP3    H2 7705   5.535   3.067   1.291
 2567TIP3   OH2 7706   4.555   4.661   2.671
 2567TIP3    H1 7707   4.519   4.685   2.585
 2567TIP3    H2 7708   4.480   4.627   2.719
 2568TIP3   OH2 7709   4.647   4.913   2.352
 2568TIP3    H1 7710   4.578   4.936   2.291
 2568TIP3    H2 7711   4.713   4.869   2.299
 2569TIP3   OH2 7712   6.319   1.597   1.580
 2569TIP3    H1 7713   6.296   1.547   1.502
 2569TIP3    H2 7714   6.352   1.531   1.642
 2570TIP3   OH2 7715   4.994   4.252   3.656
 2570TIP3    H1 7716   5.050   4.293   3.590
 2570TIP3    H2 7717   5.022   4.292   3.739
 2571TIP3   OH2 7718   3.864   2.166   4.008
 2571TIP3    H1 7719   3.854   2.148   3.915
 2571TIP3    H2 7720   3.800   2.235   4.026
 2572TIP3   OH2 7721   4.018   2.017   2.524
 2572TIP3    H1 7722   4.047   1.951   2.588
 2572TIP3    H2 7723   4.099   2.061   2.497
 2573TIP3   OH2 7724   0.490   4.242   3.171
 2573TIP3    H1 7725   0.453   4.230   3.083
 2573TIP3    H2 7726   0.534   4.327   3.167
 2574TIP3   OH2 7727   1.090   2.437   4.783
 2574TIP3    H1 7728   1.102   2.452   4.877
 2574TIP3    H2 7729   1.056   2.347   4.778
 2575TIP3   OH2 7730   0.925   2.197   0.845
 2575TIP3    H1 7731   0.990   2.206   0.914
 2575TIP3    H2 7732   0.841   2.189   0.891
 2576TIP3   OH2 7733   3.327   2.007   1.747
 2576TIP3    H1 7734   3.293   2.096   1.733
 2576TIP3    H2 7735   3.326   1.967   1.661
 2577TIP3   OH2 7736   6.178   4.397   1.392
 2577TIP3    H1 7737   6.148   4.429   1.477
 2577TIP3    H2 7738   6.106   4.342   1.360
 2578TIP3   OH2 7739   4.403   0.172   3.658
 2578TIP3    H1 7740   4.449   0.205   3.582
 2578TIP3    H2 7741   4.432   0.081   3.667
 2579TIP3   OH2 7742   4.994   3.726   3.968
 2579TIP3    H1 7743   4.898   3.728   3.976
 2579TIP3    H2 7744   5.013   3.645   3.922
 2580TIP3   OH2 7745   1.334   4.904   5.092
 2580TIP3    H1 7746   1.274   4.892   5.166
 2580TIP3    H2 7747   1.356   4.815   5.064
 2581TIP3   OH2 7748   4.575   2.516   0.016
 2581TIP3    H1 7749   4.481   2.499   0.020
 2581TIP3    H2 7750   4.586   2.598   0.065
 2582TIP3   OH2 7751   4.394   1.865   1.485
 2582TIP3    H1 7752   4.357   1.912   1.411
 2582TIP3    H2 7753   4.379   1.772   1.465
 2583TIP3   OH2 7754   2.592   2.563   4.338
 2583TIP3    H1 7755   2.659   2.550   4.271
 2583TIP3    H2 7756   2.618   2.506   4.410
 2584TIP3   OH2 7757   3.733   0.172   3.640
 2584TIP3    H1 7758   3.805   0.187   3.579
 2584TIP3    H2 7759   3.777   0.160   3.725
 2585TIP3   OH2 7760   0.934   4.085   5.209
 2585TIP3    H1 7761   0.902   4.143   5.141
 2585TIP3    H2 7762   0.944   4.000   5.166
 2586TIP3   OH2 7763   3.550   0.693   2.980
 2586TIP3    H1 7764   3.506   0.725   2.901
 2586TIP3    H2 7765   3.643   0.694   2.958
 2587TIP3   OH2 7766   0.320   1.385   4.999
 2587TIP3    H1 7767   0.314   1.364   5.092
 2587TIP3    H2 7768   0.354   1.306   4.958
 2588TIP3   OH2 7769   3.848   2.492   3.727
 2588TIP3    H1 7770   3.785   2.459   3.791
 2588TIP3    H2 7771   3.797   2.500   3.646
 2589TIP3   OH2 7772   0.350   1.434   3.414
 2589TIP3    H1 7773   0.299   1.412   3.336
 2589TIP3    H2 7774   0.300   1.398   3.487
 2590TIP3   OH2 7775   6.078   2.532   2.151
 2590TIP3    H1 7776   6.172   2.545   2.166
 2590TIP3    H2 7777   6.036   2.566   2.230
 2591TIP3   OH2 7778   5.942   3.906   3.085
 2591TIP3    H1 7779   5.906   3.986   3.124
 2591TIP3    H2 7780   5.948   3.844   3.158
 2592TIP3   OH2 7781   4.290   3.822   2.086
 2592TIP3    H1 7782   4.333   3.895   2.042
 2592TIP3    H2 7783   4.344   3.804   2.163
 2593TIP3   OH2 7784   3.924   5.794   0.572
 2593TIP3    H1 7785   3.862   5.723   0.589
 2593TIP3    H2 7786   3.884   5.844   0.501
 2594TIP3   OH2 7787   1.919   5.386   0.420
 2594TIP3    H1 7788   1.920   5.478   0.448
 2594TIP3    H2 7789   2.011   5.360   0.421
 2595TIP3   OH2 7790   5.399   2.415   1.096
 2595TIP3    H1 7791   5.353   2.478   1.151
 2595TIP3    H2 7792   5.463   2.468   1.048
 2596TIP3   OH2 7793   6.010   0.059   2.272
 2596TIP3    H1 7794   6.009  -0.009   2.340
 2596TIP3    H2 7795   5.974   0.136   2.316
 2597TIP3   OH2 7796   4.408   4.937   4.238
 2597TIP3    H1 7797   4.435   4.868   4.178
 2597TIP3    H2 7798   4.328   4.973   4.199
 2598TIP3   OH2 7799   5.410   0.876   4.327
 2598TIP3    H1 7800   5.488   0.833   4.363
 2598TIP3    H2 7801   5.374   0.812   4.266
 2599TIP3   OH2 7802   2.747   3.171   4.150
 2599TIP3    H1 7803   2.724   3.085   4.115
 2599TIP3    H2 7804   2.734   3.162   4.245
 2600TIP3   OH2 7805   4.787   5.868   3.633
 2600TIP3    H1 7806   4.837   5.927   3.577
 2600TIP3    H2 7807   4.751   5.802   3.573
 2601TIP3   OH2 7808   4.060   5.761   5.041
 2601TIP3    H1 7809   4.127   5.693   5.032
 2601TIP3    H2 7810   4.004   5.749   4.964
 2602TIP3   OH2 7811   0.197   1.331   4.517
 2602TIP3    H1 7812   0.281   1.326   4.472
 2602TIP3    H2 7813   0.198   1.258   4.579
 2603TIP3   OH2 7814   5.709   2.639   0.801
 2603TIP3    H1 7815   5.638   2.597   0.752
 2603TIP3    H2 7816   5.686   2.732   0.802
 2604TIP3   OH2 7817   0.681   5.221   4.802
 2604TIP3    H1 7818   0.633   5.207   4.720
 2604TIP3    H2 7819   0.641   5.299   4.840
 2605TIP3   OH2 7820   0.391   5.183   2.912
 2605TIP3    H1 7821   0.412   5.239   2.986
 2605TIP3    H2 7822   0.427   5.229   2.836
 2606TIP3   OH2 7823   0.943   5.166   2.305
 2606TIP3    H1 7824   0.931   5.241   2.246
 2606TIP3    H2 7825   0.892   5.189   2.383
 2607TIP3   OH2 7826   4.001   0.740   0.689
 2607TIP3    H1 7827   4.074   0.686   0.656
 2607TIP3    H2 7828   3.981   0.702   0.774
 2608TIP3   OH2 7829   4.205   1.493   2.885
 2608TIP3    H1 7830   4.236   1.456   2.967
 2608TIP3    H2 7831   4.110   1.487   2.890
 2609TIP3   OH2 7832   0.802   5.707   2.728
 2609TIP3    H1 7833   0.725   5.755   2.698
 2609TIP3    H2 7834   0.769   5.619   2.750
 2610TIP3   OH2 7835   5.330   4.467   2.478
 2610TIP3    H1 7836   5.343   4.507   2.392
 2610TIP3    H2 7837   5.317   4.374   2.460
 2611TIP3   OH2 7838   2.716   0.904   2.138
 2611TIP3    H1 7839   2.711   0.822   2.089
 2611TIP3    H2 7840   2.810   0.916   2.155
 2612TIP3   OH2 7841   3.187   2.989   3.493
 2612TIP3    H1 7842   3.175   3.068   3.441
 2612TIP3    H2 7843   3.116   2.931   3.467
 2613TIP3   OH2 7844   3.355   3.600   2.452
 2613TIP3    H1 7845   3.284   3.620   2.513
 2613TIP3    H2 7846   3.383   3.685   2.418
 2614TIP3   OH2 7847   0.056   5.709   5.182
 2614TIP3    H1 7848  -0.025   5.747   5.214
 2614TIP3    H2 7849   0.030   5.656   5.106
 2615TIP3   OH2 7850   2.912   4.914   1.723
 2615TIP3    H1 7851   2.993   4.953   1.689
 2615TIP3    H2 7852   2.937   4.882   1.810
 2616TIP3   OH2 7853   0.485   3.651   3.376
 2616TIP3    H1 7854   0.427   3.679   3.306
 2616TIP3    H2 7855   0.457   3.703   3.452
 2617TIP3   OH2 7856   3.904   1.991   1.049
 2617TIP3    H1 7857   3.954   1.993   1.130
 2617TIP3    H2 7858   3.944   2.058   0.994
 2618TIP3   OH2 7859   6.244   5.823   2.145
 2618TIP3    H1 7860   6.174   5.861   2.092
 2618TIP3    H2 7861   6.325   5.851   2.102
 2619TIP3   OH2 7862   2.357   5.918   2.659
 2619TIP3    H1 7863   2.409   5.975   2.602
 2619TIP3    H2 7864   2.414   5.843   2.677
 2620TIP3   OH2 7865   2.752   0.292   1.453
 2620TIP3    H1 7866   2.707   0.211   1.430
 2620TIP3    H2 7867   2.829   0.294   1.395
 2621TIP3   OH2 7868   3.382   4.528   0.825
 2621TIP3    H1 7869   3.312   4.465   0.809
 2621TIP3    H2 7870   3.448   4.507   0.759
 2622TIP3   OH2 7871   5.837   2.745   2.898
 2622TIP3    H1 7872   5.827   2.710   2.809
 2622TIP3    H2 7873   5.747   2.762   2.926
 2623TIP3   OH2 7874   3.121   3.617   0.531
 2623TIP3    H1 7875   3.035   3.622   0.573
 2623TIP3    H2 7876   3.170   3.689   0.570
 2624TIP3   OH2 7877   3.542   2.786   0.119
 2624TIP3    H1 7878   3.554   2.851   0.050
 2624TIP3    H2 7879   3.584   2.707   0.085
 2625TIP3   OH2 7880   0.772   2.319   4.760
 2625TIP3    H1 7881   0.820   2.253   4.710
 2625TIP3    H2 7882   0.684   2.282   4.770
 2626TIP3   OH2 7883   0.097   3.057   1.165
 2626TIP3    H1 7884   0.141   3.050   1.249
 2626TIP3    H2 7885   0.102   2.969   1.127
 2627TIP3   OH2 7886   5.453   0.512   1.337
 2627TIP3    H1 7887   5.409   0.538   1.256
 2627TIP3    H2 7888   5.386   0.465   1.386
 2628TIP3   OH2 7889   2.570   3.415   0.496
 2628TIP3    H1 7890   2.642   3.380   0.548
 2628TIP3    H2 7891   2.606   3.423   0.408
 2629TIP3   OH2 7892   3.384   1.887   2.740
 2629TIP3    H1 7893   3.388   1.926   2.653
 2629TIP3    H2 7894   3.299   1.913   2.775
 2630TIP3   OH2 7895   0.488   4.565   0.094
 2630TIP3    H1 7896   0.395   4.553   0.112
 2630TIP3    H2 7897   0.525   4.476   0.097
 2631TIP3   OH2 7898   4.132   0.056   0.902
 2631TIP3    H1 7899   4.135  -0.036   0.875
 2631TIP3    H2 7900   4.102   0.053   0.993
 2632TIP3   OH2 7901   1.278   3.305   4.504
 2632TIP3    H1 7902   1.212   3.240   4.482
 2632TIP3    H2 7903   1.253   3.335   4.592
 2633TIP3   OH2 7904   0.470   5.946   4.204
 2633TIP3    H1 7905   0.385   5.904   4.192
 2633TIP3    H2 7906   0.521   5.885   4.257
 2634TIP3   OH2 7907   1.083   3.839   5.105
 2634TIP3    H1 7908   1.042   3.788   5.035
 2634TIP3    H2 7909   1.177   3.830   5.089
 2635TIP3   OH2 7910   5.602   4.643   4.141
 2635TIP3    H1 7911   5.667   4.613   4.205
 2635TIP3    H2 7912   5.517   4.625   4.182
 2636TIP3   OH2 7913   0.618   1.604   4.449
 2636TIP3    H1 7914   0.697   1.652   4.424
 2636TIP3    H2 7915   0.546   1.664   4.430
 2637TIP3   OH2 7916   2.270   2.534   1.057
 2637TIP3    H1 7917   2.312   2.490   1.130
 2637TIP3    H2 7918   2.186   2.490   1.047
 2638TIP3   OH2 7919   3.328   3.528   3.482
 2638TIP3    H1 7920   3.325   3.534   3.578
 2638TIP3    H2 7921   3.389   3.597   3.455
 2639TIP3   OH2 7922   0.247   0.248   0.717
 2639TIP3    H1 7923   0.186   0.175   0.731
 2639TIP3    H2 7924   0.192   0.319   0.683
 2640TIP3   OH2 7925   3.689   2.823   2.319
 2640TIP3    H1 7926   3.729   2.848   2.236
 2640TIP3    H2 7927   3.761   2.787   2.371
 2641TIP3   OH2 7928   0.205   5.717   2.101
 2641TIP3    H1 7929   0.194   5.797   2.050
 2641TIP3    H2 7930   0.295   5.689   2.083
 2642TIP3   OH2 7931   2.921   0.404   2.841
 2642TIP3    H1 7932   2.896   0.477   2.897
 2642TIP3    H2 7933   3.004   0.431   2.802
 2643TIP3   OH2 7934   1.283   2.806   1.250
 2643TIP3    H1 7935   1.320   2.776   1.333
 2643TIP3    H2 7936   1.201   2.758   1.242
 2644TIP3   OH2 7937   6.374   0.056   4.621
 2644TIP3    H1 7938   6.381   0.022   4.710
 2644TIP3    H2 7939   6.306   0.123   4.626
 2645TIP3   OH2 7940   5.134   0.071   0.348
 2645TIP3    H1 7941   5.135   0.042   0.257
 2645TIP3    H2 7942   5.221   0.106   0.364
 2646TIP3   OH2 7943   4.582   2.893   0.598
 2646TIP3    H1 7944   4.515   2.829   0.576
 2646TIP3    H2 7945   4.534   2.968   0.631
 2647TIP3   OH2 7946   3.533   4.105   3.906
 2647TIP3    H1 7947   3.489   4.158   3.972
 2647TIP3    H2 7948   3.492   4.019   3.912
 2648TIP3   OH2 7949   0.305   3.279   1.758
 2648TIP3    H1 7950   0.373   3.335   1.795
 2648TIP3    H2 7951   0.255   3.336   1.699
 2649TIP3   OH2 7952   0.543   4.641   3.603
 2649TIP3    H1 7953   0.636   4.662   3.611
 2649TIP3    H2 7954   0.512   4.633   3.693
 2650TIP3   OH2 7955   1.542   5.183   0.439
 2650TIP3    H1 7956   1.459   5.151   0.474
 2650TIP3    H2 7957   1.518   5.223   0.355
 2651TIP3   OH2 7958   1.341   2.361   3.041
 2651TIP3    H1 7959   1.290   2.400   3.112
 2651TIP3    H2 7960   1.409   2.310   3.085
 2652TIP3   OH2 7961   1.493   0.099   0.660
 2652TIP3    H1 7962   1.491   0.097   0.564
 2652TIP3    H2 7963   1.438   0.174   0.683
 2653TIP3   OH2 7964   2.446   1.838   3.948
 2653TIP3    H1 7965   2.491   1.758   3.974
 2653TIP3    H2 7966   2.446   1.893   4.027
 2654TIP3   OH2 7967   3.598   3.340   1.718
 2654TIP3    H1 7968   3.538   3.412   1.733
 2654TIP3    H2 7969   3.670   3.379   1.668
 2655TIP3   OH2 7970   6.048   5.138   1.523
 2655TIP3    H1 7971   6.060   5.055   1.475
 2655TIP3    H2 7972   5.975   5.181   1.478
 2656TIP3   OH2 7973   1.306   3.407   0.337
 2656TIP3    H1 7974   1.244   3.399   0.410
 2656TIP3    H2 7975   1.391   3.387   0.375
 2657TIP3   OH2 7976   5.186   5.122   4.582
 2657TIP3    H1 7977   5.208   5.171   4.503
 2657TIP3    H2 7978   5.192   5.030   4.555
 2658TIP3   OH2 7979   4.074   4.899   3.097
 2658TIP3    H1 7980   4.116   4.828   3.145
 2658TIP3    H2 7981   4.114   4.896   3.010
 2659TIP3   OH2 7982   2.993   3.333   3.281
 2659TIP3    H1 7983   3.021   3.423   3.300
 2659TIP3    H2 7984   2.902   3.329   3.310
 2660TIP3   OH2 7985   5.746   1.892   0.909
 2660TIP3    H1 7986   5.748   1.987   0.914
 2660TIP3    H2 7987   5.790   1.862   0.988
 2661TIP3   OH2 7988   0.708   4.775   2.644
 2661TIP3    H1 7989   0.688   4.868   2.640
 2661TIP3    H2 7990   0.645   4.740   2.707
 2662TIP3   OH2 7991   3.867   2.491   1.289
 2662TIP3    H1 7992   3.784   2.447   1.305
 2662TIP3    H2 7993   3.842   2.580   1.265
 2663TIP3   OH2 7994   1.762   5.374   0.182
 2663TIP3    H1 7995   1.776   5.284   0.153
 2663TIP3    H2 7996   1.817   5.382   0.260
 2664TIP3   OH2 7997   0.723   4.256   0.735
 2664TIP3    H1 7998   0.787   4.301   0.791
 2664TIP3    H2 7999   0.774   4.189   0.690
 2665TIP3   OH2 8000   2.524   5.722   2.711
 2665TIP3    H1 8001   2.568   5.663   2.773
 2665TIP3    H2 8002   2.579   5.720   2.633
 2666TIP3   OH2 8003   3.830   4.268   2.196
 2666TIP3    H1 8004   3.863   4.356   2.211
 2666TIP3    H2 8005   3.908   4.212   2.203
 2667TIP3   OH2 8006   1.680   1.177   1.753
 2667TIP3    H1 8007   1.729   1.094   1.754
 2667TIP3    H2 8008   1.690   1.210   1.664
 2668TIP3   OH2 8009   4.866   4.930   3.431
 2668TIP3    H1 8010   4.958   4.905   3.435
 2668TIP3    H2 8011   4.826   4.888   3.507
 2669TIP3   OH2 8012   2.730   1.929   1.236
 2669TIP3    H1 8013   2.636   1.914   1.221
 2669TIP3    H2 8014   2.763   1.958   1.151
 2670TIP3   OH2 8015   2.418   4.110   4.230
 2670TIP3    H1 8016   2.491   4.049   4.245
 2670TIP3    H2 8017   2.448   4.166   4.158
 2671TIP3   OH2 8018   1.599   2.924   1.365
 2671TIP3    H1 8019   1.655   3.001   1.367
 2671TIP3    H2 8020   1.620   2.881   1.282
 2672TIP3   OH2 8021   5.510   5.072   2.010
 2672TIP3    H1 8022   5.507   4.995   2.067
 2672TIP3    H2 8023   5.603   5.094   2.004
 2673TIP3   OH2 8024   4.536   2.984   3.469
 2673TIP3    H1 8025   4.573   2.980   3.381
 2673TIP3    H2 8026   4.555   2.899   3.507
 2674TIP3   OH2 8027   5.784   4.298   0.505
 2674TIP3    H1 8028   5.745   4.302   0.593
 2674TIP3    H2 8029   5.715   4.328   0.447
 2675TIP3   OH2 8030   5.908   0.489   4.919
 2675TIP3    H1 8031   5.977   0.422   4.914
 2675TIP3    H2 8032   5.948   0.561   4.967
 2676TIP3   OH2 8033   1.009   3.787   4.831
 2676TIP3    H1 8034   1.098   3.790   4.795
 2676TIP3    H2 8035   0.960   3.734   4.768
 2677TIP3   OH2 8036   0.858   4.429   4.787
 2677TIP3    H1 8037   0.812   4.511   4.810
 2677TIP3    H2 8038   0.899   4.447   4.703
 2678TIP3   OH2 8039   0.655   4.844   1.135
 2678TIP3    H1 8040   0.661   4.939   1.140
 2678TIP3    H2 8041   0.572   4.828   1.090
 2679TIP3   OH2 8042   5.729   4.242   2.529
 2679TIP3    H1 8043   5.714   4.333   2.555
 2679TIP3    H2 8044   5.676   4.191   2.590
 2680TIP3   OH2 8045   1.200   5.468   3.727
 2680TIP3    H1 8046   1.248   5.436   3.803
 2680TIP3    H2 8047   1.267   5.502   3.667
 2681TIP3   OH2 8048   4.863   2.940   2.503
 2681TIP3    H1 8049   4.856   2.905   2.591
 2681TIP3    H2 8050   4.795   2.894   2.453
 2682TIP3   OH2 8051   0.374   5.808   3.403
 2682TIP3    H1 8052   0.389   5.724   3.446
 2682TIP3    H2 8053   0.325   5.859   3.467
 2683TIP3   OH2 8054   5.230   5.500   4.631
 2683TIP3    H1 8055   5.281   5.425   4.600
 2683TIP3    H2 8056   5.197   5.542   4.551
 2684TIP3   OH2 8057   2.787   1.748   3.505
 2684TIP3    H1 8058   2.729   1.748   3.581
 2684TIP3    H2 8059   2.863   1.695   3.532
 2685TIP3   OH2 8060   0.258   3.058   3.230
 2685TIP3    H1 8061   0.182   3.085   3.178
 2685TIP3    H2 8062   0.327   3.119   3.205
 2686TIP3   OH2 8063   5.596   0.561   2.757
 2686TIP3    H1 8064   5.664   0.626   2.776
 2686TIP3    H2 8065   5.558   0.539   2.842
 2687TIP3   OH2 8066   5.630   3.050   3.723
 2687TIP3    H1 8067   5.633   2.977   3.661
 2687TIP3    H2 8068   5.679   3.120   3.680
 2688TIP3   OH2 8069   0.077   4.507   1.247
 2688TIP3    H1 8070   0.124   4.426   1.228
 2688TIP3    H2 8071   0.006   4.480   1.306
 2689TIP3   OH2 8072   4.887   5.060   0.256
 2689TIP3    H1 8073   4.808   5.013   0.226
 2689TIP3    H2 8074   4.855   5.147   0.280
 2690TIP3   OH2 8075   1.559   4.947   3.699
 2690TIP3    H1 8076   1.527   4.862   3.728
 2690TIP3    H2 8077   1.633   4.926   3.641
 2691TIP3   OH2 8078   1.835   3.058   1.136
 2691TIP3    H1 8079   1.833   3.136   1.191
 2691TIP3    H2 8080   1.917   3.015   1.160
 2692TIP3   OH2 8081   1.951   5.076   1.387
 2692TIP3    H1 8082   2.036   5.031   1.392
 2692TIP3    H2 8083   1.901   5.041   1.460
 2693TIP3   OH2 8084   1.832   3.990   0.066
 2693TIP3    H1 8085   1.875   3.979  -0.019
 2693TIP3    H2 8086   1.857   3.912   0.115
 2694TIP3   OH2 8087   6.032   4.932   1.249
 2694TIP3    H1 8088   5.965   4.992   1.216
 2694TIP3    H2 8089   5.983   4.859   1.286
 2695TIP3   OH2 8090   4.871   0.266   1.585
 2695TIP3    H1 8091   4.924   0.239   1.660
 2695TIP3    H2 8092   4.840   0.185   1.546
 2696TIP3   OH2 8093   6.341   1.616   1.183
 2696TIP3    H1 8094   6.270   1.615   1.247
 2696TIP3    H2 8095   6.368   1.525   1.175
 2697TIP3   OH2 8096   3.820   0.588   4.364
 2697TIP3    H1 8097   3.756   0.567   4.296
 2697TIP3    H2 8098   3.783   0.663   4.410
 2698TIP3   OH2 8099   4.422   5.865   1.335
 2698TIP3    H1 8100   4.400   5.952   1.302
 2698TIP3    H2 8101   4.443   5.880   1.428
 2699TIP3   OH2 8102   4.503   1.874   2.061
 2699TIP3    H1 8103   4.477   1.844   1.974
 2699TIP3    H2 8104   4.598   1.884   2.056
 2700TIP3   OH2 8105   1.111   5.110   1.684
 2700TIP3    H1 8106   1.039   5.097   1.745
 2700TIP3    H2 8107   1.110   5.204   1.666
 2701TIP3   OH2 8108   0.899   4.148   1.470
 2701TIP3    H1 8109   0.935   4.104   1.547
 2701TIP3    H2 8110   0.945   4.232   1.466
 2702TIP3   OH2 8111   5.466   5.788   2.830
 2702TIP3    H1 8112   5.520   5.867   2.830
 2702TIP3    H2 8113   5.479   5.751   2.742
 2703TIP3   OH2 8114   2.476   1.065   4.387
 2703TIP3    H1 8115   2.440   1.043   4.301
 2703TIP3    H2 8116   2.569   1.082   4.370
 2704TIP3   OH2 8117   0.104   0.973   1.722
 2704TIP3    H1 8118   0.089   1.054   1.673
 2704TIP3    H2 8119   0.107   0.905   1.655
 2705TIP3   OH2 8120   0.028   0.125   3.252
 2705TIP3    H1 8121   0.094   0.159   3.313
 2705TIP3    H2 8122  -0.025   0.202   3.229
 2706TIP3   OH2 8123   4.131   1.756   0.756
 2706TIP3    H1 8124   4.212   1.770   0.805
 2706TIP3    H2 8125   4.092   1.678   0.795
 2707TIP3   OH2 8126   2.124   4.247   4.726
 2707TIP3    H1 8127   2.163   4.161   4.712
 2707TIP3    H2 8128   2.195   4.301   4.761
 2708TIP3   OH2 8129   4.019   5.187   3.054
 2708TIP3    H1 8130   3.986   5.101   3.029
 2708TIP3    H2 8131   3.944   5.232   3.093
 2709TIP3   OH2 8132   5.002   1.031   0.813
 2709TIP3    H1 8133   5.074   0.991   0.861
 2709TIP3    H2 8134   5.006   1.124   0.835
 2710TIP3   OH2 8135   4.165   5.036   3.626
 2710TIP3    H1 8136   4.244   5.011   3.673
 2710TIP3    H2 8137   4.169   4.987   3.544
 2711TIP3   OH2 8138   3.486   4.931   4.740
 2711TIP3    H1 8139   3.478   5.022   4.768
 2711TIP3    H2 8140   3.494   4.881   4.822
 2712TIP3   OH2 8141   1.428   3.863   1.943
 2712TIP3    H1 8142   1.515   3.882   1.976
 2712TIP3    H2 8143   1.371   3.928   1.986
 2713TIP3   OH2 8144   4.970   2.264   3.734
 2713TIP3    H1 8145   5.024   2.185   3.736
 2713TIP3    H2 8146   4.928   2.267   3.819
 2714TIP3   OH2 8147   3.791   0.819   4.515
 2714TIP3    H1 8148   3.823   0.846   4.428
 2714TIP3    H2 8149   3.712   0.871   4.529
 2715TIP3   OH2 8150   2.944   1.148   4.178
 2715TIP3    H1 8151   3.015   1.207   4.152
 2715TIP3    H2 8152   2.915   1.108   4.096
 2716TIP3   OH2 8153   6.180   0.778   1.999
 2716TIP3    H1 8154   6.215   0.739   2.078
 2716TIP3    H2 8155   6.101   0.728   1.980
 2717TIP3   OH2 8156   1.528   5.853   2.786
 2717TIP3    H1 8157   1.581   5.888   2.858
 2717TIP3    H2 8158   1.499   5.768   2.816
 2718TIP3   OH2 8159   1.366   0.542   0.668
 2718TIP3    H1 8160   1.447   0.509   0.706
 2718TIP3    H2 8161   1.353   0.489   0.589
 2719TIP3   OH2 8162   4.271   2.103   2.455
 2719TIP3    H1 8163   4.319   2.039   2.402
 2719TIP3    H2 8164   4.328   2.180   2.456
 2720TIP3   OH2 8165   6.047   5.462   0.823
 2720TIP3    H1 8166   5.991   5.451   0.746
 2720TIP3    H2 8167   5.988   5.500   0.890
 2721TIP3   OH2 8168   4.596   3.751   2.104
 2721TIP3    H1 8169   4.582   3.830   2.157
 2721TIP3    H2 8170   4.690   3.752   2.084
 2722TIP3   OH2 8171   4.695   4.033   0.797
 2722TIP3    H1 8172   4.635   4.080   0.740
 2722TIP3    H2 8173   4.640   3.968   0.842
 2723TIP3   OH2 8174   5.487   3.456   1.774
 2723TIP3    H1 8175   5.536   3.537   1.761
 2723TIP3    H2 8176   5.529   3.393   1.716
 2724TIP3   OH2 8177   6.235   4.498   0.412
 2724TIP3    H1 8178   6.302   4.557   0.378
 2724TIP3    H2 8179   6.255   4.413   0.373
 2725TIP3   OH2 8180   4.931   2.081   3.232
 2725TIP3    H1 8181   4.893   2.153   3.182
 2725TIP3    H2 8182   4.986   2.124   3.298
 2726TIP3   OH2 8183   5.523   5.452   0.271
 2726TIP3    H1 8184   5.599   5.421   0.320
 2726TIP3    H2 8185   5.451   5.397   0.301
 2727TIP3   OH2 8186   3.765   3.246   3.210
 2727TIP3    H1 8187   3.683   3.197   3.210
 2727TIP3    H2 8188   3.742   3.333   3.177
 2728TIP3   OH2 8189   0.082   1.141   3.271
 2728TIP3    H1 8190   0.046   1.145   3.360
 2728TIP3    H2 8191   0.110   1.050   3.260
 2729TIP3   OH2 8192   1.602   5.692   3.979
 2729TIP3    H1 8193   1.646   5.620   3.933
 2729TIP3    H2 8194   1.615   5.673   4.072
 2730TIP3   OH2 8195   4.134   5.212   5.048
 2730TIP3    H1 8196   4.196   5.141   5.033
 2730TIP3    H2 8197   4.165   5.256   5.127
 2731TIP3   OH2 8198   0.196   3.793   5.119
 2731TIP3    H1 8199   0.115   3.804   5.167
 2731TIP3    H2 8200   0.227   3.706   5.144
 2732TIP3   OH2 8201   4.728   0.750   3.052
 2732TIP3    H1 8202   4.739   0.659   3.080
 2732TIP3    H2 8203   4.814   0.790   3.065
 2733TIP3   OH2 8204   6.146   2.235   4.124
 2733TIP3    H1 8205   6.105   2.194   4.200
 2733TIP3    H2 8206   6.122   2.327   4.131
 2734TIP3   OH2 8207   4.845   0.711   4.200
 2734TIP3    H1 8208   4.880   0.792   4.237
 2734TIP3    H2 8209   4.760   0.700   4.242
 2735TIP3   OH2 8210   0.091   0.226   1.556
 2735TIP3    H1 8211  -0.004   0.214   1.546
 2735TIP3    H2 8212   0.113   0.294   1.492
 2736TIP3   OH2 8213   4.380   5.004   0.281
 2736TIP3    H1 8214   4.297   4.961   0.258
 2736TIP3    H2 8215   4.408   4.959   0.361
 2737TIP3   OH2 8216   3.284   2.522   1.320
 2737TIP3    H1 8217   3.247   2.457   1.259
 2737TIP3    H2 8218   3.246   2.605   1.292
 2738TIP3   OH2 8219   6.247   4.544   4.295
 2738TIP3    H1 8220   6.330   4.500   4.313
 2738TIP3    H2 8221   6.263   4.636   4.318
 2739TIP3   OH2 8222   6.106   4.000   0.173
 2739TIP3    H1 8223   6.195   4.025   0.146
 2739TIP3    H2 8224   6.117   3.913   0.211
 2740TIP3   OH2 8225   2.106   5.833   2.033
 2740TIP3    H1 8226   2.167   5.812   1.962
 2740TIP3    H2 8227   2.119   5.762   2.097
 2741TIP3   OH2 8228   1.385   2.527   4.766
 2741TIP3    H1 8229   1.451   2.503   4.831
 2741TIP3    H2 8230   1.315   2.463   4.777
 2742TIP3   OH2 8231   5.920   1.797   1.117
 2742TIP3    H1 8232   5.916   1.845   1.200
 2742TIP3    H2 8233   5.986   1.844   1.065
 2743TIP3   OH2 8234   2.683   0.977   1.841
 2743TIP3    H1 8235   2.699   1.071   1.847
 2743TIP3    H2 8236   2.657   0.951   1.930
 2744TIP3   OH2 8237   3.033   5.622   4.203
 2744TIP3    H1 8238   3.085   5.664   4.135
 2744TIP3    H2 8239   3.001   5.542   4.162
 2745TIP3   OH2 8240   2.919   5.467   1.697
 2745TIP3    H1 8241   3.005   5.508   1.709
 2745TIP3    H2 8242   2.939   5.373   1.690
 2746TIP3   OH2 8243   3.668   3.142   3.539
 2746TIP3    H1 8244   3.682   3.102   3.625
 2746TIP3    H2 8245   3.688   3.235   3.553
 2747TIP3   OH2 8246   5.694   5.733   2.525
 2747TIP3    H1 8247   5.720   5.697   2.439
 2747TIP3    H2 8248   5.613   5.687   2.546
 2748TIP3   OH2 8249   2.588   4.806   0.732
 2748TIP3    H1 8250   2.529   4.781   0.803
 2748TIP3    H2 8251   2.572   4.742   0.663
 2749TIP3   OH2 8252   6.070   1.171   4.635
 2749TIP3    H1 8253   6.138   1.211   4.581
 2749TIP3    H2 8254   6.041   1.095   4.585
 2750TIP3   OH2 8255   6.336   2.802   3.052
 2750TIP3    H1 8256   6.279   2.853   3.109
 2750TIP3    H2 8257   6.424   2.819   3.086
 2751TIP3   OH2 8258   4.713   3.674   3.941
 2751TIP3    H1 8259   4.650   3.720   3.997
 2751TIP3    H2 8260   4.710   3.721   3.858
 2752TIP3   OH2 8261   1.713   2.617   3.059
 2752TIP3    H1 8262   1.653   2.599   3.131
 2752TIP3    H2 8263   1.666   2.588   2.981
 2753TIP3   OH2 8264   1.204   1.906   4.887
 2753TIP3    H1 8265   1.125   1.915   4.941
 2753TIP3    H2 8266   1.187   1.959   4.809
 2754TIP3   OH2 8267   5.195   2.585   2.529
 2754TIP3    H1 8268   5.195   2.653   2.462
 2754TIP3    H2 8269   5.190   2.503   2.480
 2755TIP3   OH2 8270   0.903   0.895   4.042
 2755TIP3    H1 8271   0.842   0.839   4.090
 2755TIP3    H2 8272   0.986   0.847   4.044
 2756TIP3   OH2 8273   1.817   5.424   5.125
 2756TIP3    H1 8274   1.864   5.365   5.067
 2756TIP3    H2 8275   1.759   5.368   5.176
 2757TIP3   OH2 8276   6.105   0.662   2.694
 2757TIP3    H1 8277   6.145   0.598   2.753
 2757TIP3    H2 8278   6.171   0.731   2.684
 2758TIP3   OH2 8279   4.798   2.995   0.941
 2758TIP3    H1 8280   4.784   2.912   0.986
 2758TIP3    H2 8281   4.891   2.995   0.920
 2759TIP3   OH2 8282   1.878   0.522   1.476
 2759TIP3    H1 8283   1.793   0.539   1.436
 2759TIP3    H2 8284   1.923   0.465   1.413
 2760TIP3   OH2 8285   4.905   1.896   2.944
 2760TIP3    H1 8286   4.833   1.952   2.973
 2760TIP3    H2 8287   4.862   1.816   2.913
 2761TIP3   OH2 8288   2.098   4.940   4.978
 2761TIP3    H1 8289   2.048   4.978   4.905
 2761TIP3    H2 8290   2.159   5.009   5.003
 2762TIP3   OH2 8291   6.147   2.565   1.727
 2762TIP3    H1 8292   6.079   2.626   1.698
 2762TIP3    H2 8293   6.153   2.501   1.656
 2763TIP3   OH2 8294   2.962   2.870   1.546
 2763TIP3    H1 8295   2.995   2.783   1.568
 2763TIP3    H2 8296   2.870   2.869   1.572
 2764TIP3   OH2 8297   4.571   0.197   2.868
 2764TIP3    H1 8298   4.621   0.208   2.949
 2764TIP3    H2 8299   4.537   0.108   2.873
 2765TIP3   OH2 8300   1.807   5.123   3.348
 2765TIP3    H1 8301   1.742   5.192   3.356
 2765TIP3    H2 8302   1.786   5.079   3.265
 2766TIP3   OH2 8303   1.400   0.838   1.201
 2766TIP3    H1 8304   1.406   0.833   1.296
 2766TIP3    H2 8305   1.347   0.917   1.184
 2767TIP3   OH2 8306   2.954   2.906   4.346
 2767TIP3    H1 8307   3.007   2.939   4.274
 2767TIP3    H2 8308   2.894   2.977   4.367
 2768TIP3   OH2 8309   3.908   1.800   2.053
 2768TIP3    H1 8310   3.877   1.887   2.028
 2768TIP3    H2 8311   3.963   1.816   2.129
 2769TIP3   OH2 8312   2.902   5.943   4.219
 2769TIP3    H1 8313   2.906   5.883   4.294
 2769TIP3    H2 8314   2.872   5.888   4.146
 2770TIP3   OH2 8315   3.302   0.808   2.536
 2770TIP3    H1 8316   3.370   0.754   2.497
 2770TIP3    H2 8317   3.221   0.759   2.523
 2771TIP3   OH2 8318   1.889   0.952   3.081
 2771TIP3    H1 8319   1.864   0.923   3.169
 2771TIP3    H2 8320   1.839   1.033   3.068
 2772TIP3   OH2 8321   0.649   1.119   3.788
 2772TIP3    H1 8322   0.562   1.099   3.823
 2772TIP3    H2 8323   0.633   1.190   3.725
 2773TIP3   OH2 8324   0.519   0.617   4.531
 2773TIP3    H1 8325   0.475   0.554   4.588
 2773TIP3    H2 8326   0.529   0.571   4.448
 2774TIP3   OH2 8327   4.022   5.498   2.237
 2774TIP3    H1 8328   4.013   5.495   2.142
 2774TIP3    H2 8329   4.096   5.557   2.252
 2775TIP3   OH2 8330   0.731   5.842   0.691
 2775TIP3    H1 8331   0.781   5.881   0.619
 2775TIP3    H2 8332   0.694   5.917   0.738
 2776TIP3   OH2 8333   1.781   4.342   2.975
 2776TIP3    H1 8334   1.798   4.283   2.903
 2776TIP3    H2 8335   1.694   4.318   3.006
 2777TIP3   OH2 8336   0.333   5.658   3.671
 2777TIP3    H1 8337   0.330   5.754   3.667
 2777TIP3    H2 8338   0.241   5.631   3.666
 2778TIP3   OH2 8339   4.726   4.973   1.974
 2778TIP3    H1 8340   4.747   4.884   1.946
 2778TIP3    H2 8341   4.812   5.015   1.985
 2779TIP3   OH2 8342   3.365   3.064   4.952
 2779TIP3    H1 8343   3.336   3.007   5.023
 2779TIP3    H2 8344   3.292   3.064   4.890
 2780TIP3   OH2 8345   0.295   3.970   4.361
 2780TIP3    H1 8346   0.327   4.038   4.420
 2780TIP3    H2 8347   0.297   3.890   4.414
 2781TIP3   OH2 8348   4.542   0.989   4.392
 2781TIP3    H1 8349   4.574   1.070   4.351
 2781TIP3    H2 8350   4.451   1.007   4.413
 2782TIP3   OH2 8351   5.678   3.914   4.097
 2782TIP3    H1 8352   5.642   3.826   4.102
 2782TIP3    H2 8353   5.705   3.934   4.186
 2783TIP3   OH2 8354   5.962   5.970   2.993
 2783TIP3    H1 8355   5.978   6.027   2.918
 2783TIP3    H2 8356   5.888   5.915   2.967
 2784TIP3   OH2 8357   3.286   2.451   0.076
 2784TIP3    H1 8358   3.322   2.393   0.143
 2784TIP3    H2 8359   3.347   2.443   0.002
 2785TIP3   OH2 8360   4.525   3.806   0.026
 2785TIP3    H1 8361   4.541   3.790  -0.067
 2785TIP3    H2 8362   4.569   3.734   0.071
 2786TIP3   OH2 8363   1.570   0.032   2.237
 2786TIP3    H1 8364   1.639   0.068   2.182
 2786TIP3    H2 8365   1.496   0.090   2.224
 2787TIP3   OH2 8366   5.602   4.243   0.785
 2787TIP3    H1 8367   5.653   4.167   0.758
 2787TIP3    H2 8368   5.555   4.213   0.863
 2788TIP3   OH2 8369   5.128   3.144   2.183
 2788TIP3    H1 8370   5.170   3.198   2.116
 2788TIP3    H2 8371   5.034   3.156   2.169
 2789TIP3   OH2 8372   4.598   5.079   0.609
 2789TIP3    H1 8373   4.560   4.991   0.604
 2789TIP3    H2 8374   4.551   5.121   0.680
 2790TIP3   OH2 8375   6.072   1.356   4.230
 2790TIP3    H1 8376   6.102   1.425   4.171
 2790TIP3    H2 8377   6.145   1.342   4.291
 2791TIP3   OH2 8378   5.244   0.436   3.429
 2791TIP3    H1 8379   5.151   0.455   3.442
 2791TIP3    H2 8380   5.260   0.357   3.479
 2792TIP3   OH2 8381   0.399   0.234   1.264
 2792TIP3    H1 8382   0.363   0.311   1.220
 2792TIP3    H2 8383   0.343   0.222   1.341
 2793TIP3   OH2 8384   1.023   1.453   3.090
 2793TIP3    H1 8385   1.058   1.470   3.177
 2793TIP3    H2 8386   1.037   1.359   3.077
 2794TIP3   OH2 8387   5.730   4.490   2.643
 2794TIP3    H1 8388   5.748   4.534   2.726
 2794TIP3    H2 8389   5.727   4.561   2.579
 2795TIP3   OH2 8390   3.000   3.808   4.557
 2795TIP3    H1 8391   2.924   3.835   4.506
 2795TIP3    H2 8392   3.043   3.741   4.503
 2796TIP3   OH2 8393   0.723   3.603   3.092
 2796TIP3    H1 8394   0.627   3.602   3.090
 2796TIP3    H2 8395   0.748   3.515   3.063
 2797TIP3   OH2 8396   0.527   1.964   3.483
 2797TIP3    H1 8397   0.523   2.059   3.469
 2797TIP3    H2 8398   0.436   1.938   3.494
 2798TIP3   OH2 8399   0.211   2.516   2.623
 2798TIP3    H1 8400   0.288   2.572   2.612
 2798TIP3    H2 8401   0.139   2.576   2.642
 2799TIP3   OH2 8402   1.814   4.548   2.383
 2799TIP3    H1 8403   1.732   4.596   2.396
 2799TIP3    H2 8404   1.792   4.457   2.402
 2800TIP3   OH2 8405   3.914   3.305   0.378
 2800TIP3    H1 8406   3.942   3.257   0.455
 2800TIP3    H2 8407   3.876   3.238   0.321
 2801TIP3   OH2 8408   1.194   5.146   2.420
 2801TIP3    H1 8409   1.111   5.140   2.373
 2801TIP3    H2 8410   1.200   5.238   2.446
 2802TIP3   OH2 8411   4.003   5.653   3.088
 2802TIP3    H1 8412   4.021   5.627   3.178
 2802TIP3    H2 8413   3.981   5.746   3.093
 2803TIP3   OH2 8414   3.392   0.212   2.511
 2803TIP3    H1 8415   3.361   0.184   2.425
 2803TIP3    H2 8416   3.410   0.305   2.501
 2804TIP3   OH2 8417   2.109   0.135   1.115
 2804TIP3    H1 8418   2.112   0.199   1.045
 2804TIP3    H2 8419   2.089   0.052   1.071
 2805TIP3   OH2 8420   6.292   2.727   4.564
 2805TIP3    H1 8421   6.197   2.741   4.559
 2805TIP3    H2 8422   6.314   2.747   4.654
 2806TIP3   OH2 8423   0.870   0.578   0.964
 2806TIP3    H1 8424   0.893   0.630   1.041
 2806TIP3    H2 8425   0.930   0.503   0.966
 2807TIP3   OH2 8426   0.547   2.753   1.009
 2807TIP3    H1 8427   0.590   2.760   0.924
 2807TIP3    H2 8428   0.536   2.659   1.022
 2808TIP3   OH2 8429   3.147   3.587   0.234
 2808TIP3    H1 8430   3.163   3.659   0.173
 2808TIP3    H2 8431   3.074   3.618   0.289
 2809TIP3   OH2 8432   2.486   1.959   4.218
 2809TIP3    H1 8433   2.452   1.942   4.306
 2809TIP3    H2 8434   2.470   2.052   4.204
 2810TIP3   OH2 8435   2.616   5.215   4.307
 2810TIP3    H1 8436   2.651   5.190   4.222
 2810TIP3    H2 8437   2.521   5.219   4.294
 2811TIP3   OH2 8438   0.768   4.403   2.694
 2811TIP3    H1 8439   0.725   4.373   2.614
 2811TIP3    H2 8440   0.853   4.358   2.695
 2812TIP3   OH2 8441   0.567   3.901   3.117
 2812TIP3    H1 8442   0.566   3.971   3.182
 2812TIP3    H2 8443   0.660   3.892   3.094
 2813TIP3   OH2 8444   4.554   1.712   2.642
 2813TIP3    H1 8445   4.638   1.700   2.688
 2813TIP3    H2 8446   4.493   1.737   2.711
 2814TIP3   OH2 8447   0.241   5.420   0.535
 2814TIP3    H1 8448   0.329   5.447   0.510
 2814TIP3    H2 8449   0.252   5.375   0.619
 2815TIP3   OH2 8450   2.477   0.552   2.184
 2815TIP3    H1 8451   2.499   0.573   2.275
 2815TIP3    H2 8452   2.558   0.567   2.136
 2816TIP3   OH2 8453   1.659   4.406   4.547
 2816TIP3    H1 8454   1.693   4.438   4.464
 2816TIP3    H2 8455   1.682   4.313   4.548
 2817TIP3   OH2 8456   4.838   2.273   3.055
 2817TIP3    H1 8457   4.916   2.280   3.000
 2817TIP3    H2 8458   4.783   2.346   3.027
 2818TIP3   OH2 8459   3.558   4.269   4.212
 2818TIP3    H1 8460   3.480   4.320   4.233
 2818TIP3    H2 8461   3.549   4.189   4.263
 2819TIP3   OH2 8462   5.003   0.824   4.502
 2819TIP3    H1 8463   5.075   0.761   4.510
 2819TIP3    H2 8464   4.937   0.792   4.563
 2820TIP3   OH2 8465   0.876   2.693   3.095
 2820TIP3    H1 8466   0.841   2.606   3.114
 2820TIP3    H2 8467   0.837   2.749   3.162
 2821TIP3   OH2 8468   0.595   0.336   3.488
 2821TIP3    H1 8469   0.661   0.362   3.423
 2821TIP3    H2 8470   0.646   0.309   3.564
 2822TIP3   OH2 8471   1.658   2.759   4.089
 2822TIP3    H1 8472   1.591   2.795   4.147
 2822TIP3    H2 8473   1.611   2.745   4.006
 2823TIP3   OH2 8474   4.487   3.292   1.127
 2823TIP3    H1 8475   4.414   3.232   1.114
 2823TIP3    H2 8476   4.545   3.278   1.052
 2824TIP3   OH2 8477   2.212   5.798   3.140
 2824TIP3    H1 8478   2.185   5.883   3.173
 2824TIP3    H2 8479   2.304   5.810   3.113
 2825TIP3   OH2 8480   2.317   3.001   2.041
 2825TIP3    H1 8481   2.368   2.926   2.068
 2825TIP3    H2 8482   2.226   2.972   2.048
 2826TIP3   OH2 8483   3.919   3.737   1.161
 2826TIP3    H1 8484   4.003   3.769   1.128
 2826TIP3    H2 8485   3.942   3.671   1.226
 2827TIP3   OH2 8486   4.640   4.346   1.203
 2827TIP3    H1 8487   4.627   4.350   1.297
 2827TIP3    H2 8488   4.591   4.269   1.174
 2828TIP3   OH2 8489   5.679   4.626   3.178
 2828TIP3    H1 8490   5.624   4.548   3.182
 2828TIP3    H2 8491   5.696   4.648   3.270
 2829TIP3   OH2 8492   4.861   2.815   3.437
 2829TIP3    H1 8493   4.925   2.862   3.490
 2829TIP3    H2 8494   4.807   2.884   3.398
 2830TIP3   OH2 8495   3.445   2.167   4.278
 2830TIP3    H1 8496   3.354   2.197   4.279
 2830TIP3    H2 8497   3.440   2.075   4.254
 2831TIP3   OH2 8498   4.810   3.582   3.613
 2831TIP3    H1 8499   4.894   3.549   3.580
 2831TIP3    H2 8500   4.779   3.514   3.673
 2832TIP3   OH2 8501   1.959   5.749   4.083
 2832TIP3    H1 8502   1.864   5.759   4.090
 2832TIP3    H2 8503   1.972   5.656   4.066
 2833TIP3   OH2 8504   0.475   2.097   3.939
 2833TIP3    H1 8505   0.434   2.038   4.003
 2833TIP3    H2 8506   0.552   2.049   3.910
 2834TIP3   OH2 8507   5.122   5.915   2.024
 2834TIP3    H1 8508   5.064   5.967   2.081
 2834TIP3    H2 8509   5.207   5.959   2.032
 2835TIP3   OH2 8510   5.457   3.055   1.891
 2835TIP3    H1 8511   5.389   2.997   1.928
 2835TIP3    H2 8512   5.443   3.139   1.935
 2836TIP3   OH2 8513   5.379   5.409   0.979
 2836TIP3    H1 8514   5.381   5.376   1.069
 2836TIP3    H2 8515   5.408   5.500   0.987
 2837TIP3   OH2 8516   6.129   0.461   4.365
 2837TIP3    H1 8517   6.063   0.490   4.428
 2837TIP3    H2 8518   6.211   0.458   4.416
 2838TIP3   OH2 8519   1.524   2.255   1.530
 2838TIP3    H1 8520   1.593   2.286   1.471
 2838TIP3    H2 8521   1.447   2.308   1.507
 2839TIP3   OH2 8522   3.317   2.147   0.118
 2839TIP3    H1 8523   3.329   2.176   0.028
 2839TIP3    H2 8524   3.389   2.188   0.167
 2840TIP3   OH2 8525   2.457   2.141   4.750
 2840TIP3    H1 8526   2.401   2.075   4.791
 2840TIP3    H2 8527   2.540   2.136   4.796
 2841TIP3   OH2 8528   0.857   3.907   3.035
 2841TIP3    H1 8529   0.827   3.886   2.946
 2841TIP3    H2 8530   0.892   3.995   3.028
 2842TIP3   OH2 8531   3.065   1.286   0.213
 2842TIP3    H1 8532   3.121   1.215   0.182
 2842TIP3    H2 8533   3.050   1.266   0.306
 2843TIP3   OH2 8534   1.650   4.936   0.281
 2843TIP3    H1 8535   1.567   4.896   0.256
 2843TIP3    H2 8536   1.626   5.003   0.345
 2844TIP3   OH2 8537   0.999   4.795   4.776
 2844TIP3    H1 8538   0.965   4.883   4.760
 2844TIP3    H2 8539   1.022   4.795   4.869
 2845TIP3   OH2 8540   2.859   5.080   4.372
 2845TIP3    H1 8541   2.859   5.011   4.305
 2845TIP3    H2 8542   2.766   5.098   4.387
 2846TIP3   OH2 8543   1.512   0.147   1.844
 2846TIP3    H1 8544   1.462   0.069   1.819
 2846TIP3    H2 8545   1.522   0.196   1.763
 2847TIP3   OH2 8546   5.358   4.543   4.935
 2847TIP3    H1 8547   5.414   4.592   4.995
 2847TIP3    H2 8548   5.324   4.608   4.874
 2848TIP3   OH2 8549   5.542   3.088   4.409
 2848TIP3    H1 8550   5.583   3.058   4.328
 2848TIP3    H2 8551   5.525   3.181   4.394
 2849TIP3   OH2 8552   3.386   2.247   1.013
 2849TIP3    H1 8553   3.474   2.218   0.988
 2849TIP3    H2 8554   3.347   2.171   1.057
 2850TIP3   OH2 8555   5.581   1.496   3.671
 2850TIP3    H1 8556   5.491   1.528   3.679
 2850TIP3    H2 8557   5.583   1.417   3.724
 2851TIP3   OH2 8558   4.021   4.793   0.974
 2851TIP3    H1 8559   4.055   4.724   1.031
 2851TIP3    H2 8560   3.945   4.754   0.931
 2852TIP3   OH2 8561   5.163   2.020   3.697
 2852TIP3    H1 8562   5.126   1.962   3.630
 2852TIP3    H2 8563   5.117   1.996   3.777
 2853TIP3   OH2 8564   3.112   3.225   2.000
 2853TIP3    H1 8565   3.022   3.229   1.966
 2853TIP3    H2 8566   3.167   3.230   1.922
 2854TIP3   OH2 8567   3.212   1.336   2.195
 2854TIP3    H1 8568   3.273   1.408   2.178
 2854TIP3    H2 8569   3.250   1.261   2.149
 2855TIP3   OH2 8570   6.218   1.869   1.725
 2855TIP3    H1 8571   6.254   1.923   1.655
 2855TIP3    H2 8572   6.202   1.784   1.685
 2856TIP3   OH2 8573   6.237   1.286   1.929
 2856TIP3    H1 8574   6.248   1.191   1.922
 2856TIP3    H2 8575   6.261   1.305   2.020
 2857TIP3   OH2 8576   2.744   0.762   0.224
 2857TIP3    H1 8577   2.651   0.738   0.231
 2857TIP3    H2 8578   2.743   0.845   0.177
 2858TIP3   OH2 8579   4.854   3.708   2.789
 2858TIP3    H1 8580   4.912   3.658   2.732
 2858TIP3    H2 8581   4.848   3.656   2.869
 2859TIP3   OH2 8582   2.229   0.500  -0.021
 2859TIP3    H1 8583   2.192   0.518   0.065
 2859TIP3    H2 8584   2.229   0.405  -0.028
 2860TIP3   OH2 8585   3.714   4.868   1.108
 2860TIP3    H1 8586   3.656   4.839   1.179
 2860TIP3    H2 8587   3.722   4.791   1.051
 2861TIP3   OH2 8588   4.378   2.299   3.121
 2861TIP3    H1 8589   4.454   2.260   3.164
 2861TIP3    H2 8590   4.339   2.227   3.071
 2862TIP3   OH2 8591   5.895   1.311   3.819
 2862TIP3    H1 8592   5.894   1.260   3.900
 2862TIP3    H2 8593   5.802   1.321   3.796
 2863TIP3   OH2 8594   5.371   3.809   1.546
 2863TIP3    H1 8595   5.387   3.771   1.633
 2863TIP3    H2 8596   5.343   3.899   1.564
 2864TIP3   OH2 8597   2.707   1.771   2.263
 2864TIP3    H1 8598   2.669   1.714   2.330
 2864TIP3    H2 8599   2.749   1.711   2.201
 2865TIP3   OH2 8600   4.882   5.162   4.394
 2865TIP3    H1 8601   4.921   5.242   4.426
 2865TIP3    H2 8602   4.809   5.145   4.454
 2866TIP3   OH2 8603   0.727   2.210   2.996
 2866TIP3    H1 8604   0.803   2.158   2.969
 2866TIP3    H2 8605   0.713   2.187   3.088
 2867TIP3   OH2 8606   5.843   4.410   1.497
 2867TIP3    H1 8607   5.853   4.505   1.491
 2867TIP3    H2 8608   5.748   4.396   1.505
 2868TIP3   OH2 8609   1.231   5.376   1.823
 2868TIP3    H1 8610   1.247   5.440   1.892
 2868TIP3    H2 8611   1.290   5.402   1.752
 2869TIP3   OH2 8612   6.304   5.913   0.924
 2869TIP3    H1 8613   6.230   5.882   0.872
 2869TIP3    H2 8614   6.377   5.858   0.897
 2870TIP3   OH2 8615   1.007   3.014   2.009
 2870TIP3    H1 8616   0.946   3.079   1.975
 2870TIP3    H2 8617   1.063   2.992   1.935
 2871TIP3   OH2 8618   4.625   1.345   4.724
 2871TIP3    H1 8619   4.589   1.376   4.641
 2871TIP3    H2 8620   4.578   1.264   4.742
 2872TIP3   OH2 8621   1.110   5.086   4.005
 2872TIP3    H1 8622   1.115   5.013   4.067
 2872TIP3    H2 8623   1.073   5.158   4.056
 2873TIP3   OH2 8624   5.432   0.131   1.421
 2873TIP3    H1 8625   5.520   0.105   1.394
 2873TIP3    H2 8626   5.445   0.176   1.505
 2874TIP3   OH2 8627   4.637   5.341   0.075
 2874TIP3    H1 8628   4.652   5.297   0.158
 2874TIP3    H2 8629   4.562   5.295   0.037
 2875TIP3   OH2 8630   6.260   4.167   2.713
 2875TIP3    H1 8631   6.251   4.113   2.634
 2875TIP3    H2 8632   6.242   4.107   2.785
 2876TIP3   OH2 8633   1.664   5.356   3.277
 2876TIP3    H1 8634   1.645   5.391   3.190
 2876TIP3    H2 8635   1.690   5.433   3.328
 2877TIP3   OH2 8636   4.597   5.483   2.439
 2877TIP3    H1 8637   4.593   5.393   2.408
 2877TIP3    H2 8638   4.630   5.532   2.364
 2878TIP3   OH2 8639   2.809   0.480   4.190
 2878TIP3    H1 8640   2.790   0.494   4.283
 2878TIP3    H2 8641   2.898   0.515   4.178
 2879TIP3   OH2 8642   0.668   0.136   2.059
 2879TIP3    H1 8643   0.590   0.185   2.032
 2879TIP3    H2 8644   0.741   0.189   2.027
 2880TIP3   OH2 8645   5.809   4.479   2.935
 2880TIP3    H1 8646   5.791   4.388   2.914
 2880TIP3    H2 8647   5.727   4.513   2.970
 2881TIP3   OH2 8648   3.812   4.183   3.948
 2881TIP3    H1 8649   3.736   4.200   4.003
 2881TIP3    H2 8650   3.778   4.129   3.876
 2882TIP3   OH2 8651   2.244   0.065   4.176
 2882TIP3    H1 8652   2.280  -0.021   4.197
 2882TIP3    H2 8653   2.161   0.068   4.223
 2883TIP3   OH2 8654   0.086   3.528   2.301
 2883TIP3    H1 8655   0.171   3.516   2.258
 2883TIP3    H2 8656   0.046   3.441   2.299
 2884TIP3   OH2 8657   4.518   5.249   1.458
 2884TIP3    H1 8658   4.467   5.270   1.536
 2884TIP3    H2 8659   4.466   5.183   1.412
 2885TIP3   OH2 8660   1.454   3.513   2.317
 2885TIP3    H1 8661   1.430   3.518   2.224
 2885TIP3    H2 8662   1.543   3.478   2.317
 2886TIP3   OH2 8663   1.066   0.215   2.854
 2886TIP3    H1 8664   1.009   0.288   2.878
 2886TIP3    H2 8665   1.151   0.254   2.838
 2887TIP3   OH2 8666   4.806   2.295   0.597
 2887TIP3    H1 8667   4.759   2.345   0.663
 2887TIP3    H2 8668   4.898   2.318   0.610
 2888TIP3   OH2 8669   6.034   2.341   3.652
 2888TIP3    H1 8670   6.099   2.410   3.667
 2888TIP3    H2 8671   5.994   2.327   3.737
 2889TIP3   OH2 8672   0.281   2.091   1.076
 2889TIP3    H1 8673   0.301   1.998   1.064
 2889TIP3    H2 8674   0.281   2.127   0.988
 2890TIP3   OH2 8675   5.016   4.510   2.672
 2890TIP3    H1 8676   5.071   4.572   2.625
 2890TIP3    H2 8677   4.942   4.562   2.702
 2891TIP3   OH2 8678   4.505   1.349   2.368
 2891TIP3    H1 8679   4.558   1.321   2.293
 2891TIP3    H2 8680   4.549   1.429   2.398
 2892TIP3   OH2 8681   1.165   3.960   3.786
 2892TIP3    H1 8682   1.215   3.943   3.866
 2892TIP3    H2 8683   1.079   3.922   3.803
 2893TIP3   OH2 8684   4.825   3.673   4.444
 2893TIP3    H1 8685   4.780   3.732   4.384
 2893TIP3    H2 8686   4.908   3.718   4.463
 2894TIP3   OH2 8687   3.702   5.649   3.096
 2894TIP3    H1 8688   3.759   5.718   3.131
 2894TIP3    H2 8689   3.635   5.637   3.163
 2895TIP3   OH2 8690   2.151   0.843   3.678
 2895TIP3    H1 8691   2.175   0.763   3.632
 2895TIP3    H2 8692   2.059   0.856   3.656
 2896TIP3   OH2 8693   2.656   3.081   1.196
 2896TIP3    H1 8694   2.643   3.012   1.261
 2896TIP3    H2 8695   2.588   3.067   1.131
 2897TIP3   OH2 8696   5.676   5.615   1.248
 2897TIP3    H1 8697   5.630   5.588   1.327
 2897TIP3    H2 8698   5.606   5.640   1.187
 2898TIP3   OH2 8699   1.416   4.905   4.777
 2898TIP3    H1 8700   1.332   4.886   4.734
 2898TIP3    H2 8701   1.395   4.908   4.870
 2899TIP3   OH2 8702   1.179   4.574   4.838
 2899TIP3    H1 8703   1.094   4.617   4.825
 2899TIP3    H2 8704   1.211   4.558   4.749
 2900TIP3   OH2 8705   5.152   1.798   0.994
 2900TIP3    H1 8706   5.150   1.742   0.916
 2900TIP3    H2 8707   5.243   1.825   1.002
 2901TIP3   OH2 8708   2.471   0.647   1.569
 2901TIP3    H1 8709   2.409   0.599   1.514
 2901TIP3    H2 8710   2.418   0.681   1.641
 2902TIP3   OH2 8711   3.698   3.495   0.379
 2902TIP3    H1 8712   3.782   3.453   0.362
 2902TIP3    H2 8713   3.635   3.445   0.327
 2903TIP3   OH2 8714   5.021   2.184   2.868
 2903TIP3    H1 8715   5.096   2.171   2.810
 2903TIP3    H2 8716   4.996   2.096   2.895
 2904TIP3   OH2 8717   2.814   3.191   1.991
 2904TIP3    H1 8718   2.841   3.112   2.037
 2904TIP3    H2 8719   2.719   3.193   1.999
 2905TIP3   OH2 8720   5.377   0.472   3.843
 2905TIP3    H1 8721   5.398   0.394   3.792
 2905TIP3    H2 8722   5.423   0.459   3.926
 2906TIP3   OH2 8723   1.758   4.230   0.153
 2906TIP3    H1 8724   1.794   4.142   0.143
 2906TIP3    H2 8725   1.735   4.236   0.246
 2907TIP3   OH2 8726   2.471   5.447   5.092
 2907TIP3    H1 8727   2.524   5.412   5.021
 2907TIP3    H2 8728   2.534   5.470   5.160
 2908TIP3   OH2 8729   2.154   3.969   2.198
 2908TIP3    H1 8730   2.089   4.032   2.168
 2908TIP3    H2 8731   2.212   3.957   2.123
 2909TIP3   OH2 8732   3.693   2.036   1.299
 2909TIP3    H1 8733   3.773   1.990   1.324
 2909TIP3    H2 8734   3.717   2.085   1.220
 2910TIP3   OH2 8735   2.251   4.970   2.694
 2910TIP3    H1 8736   2.258   5.063   2.676
 2910TIP3    H2 8737   2.171   4.962   2.746
 2911TIP3   OH2 8738   5.971   4.117   4.956
 2911TIP3    H1 8739   6.063   4.091   4.965
 2911TIP3    H2 8740   5.923   4.035   4.946
 2912TIP3   OH2 8741   6.285   5.483   3.118
 2912TIP3    H1 8742   6.221   5.452   3.053
 2912TIP3    H2 8743   6.334   5.552   3.073
 2913TIP3   OH2 8744   1.247   5.404   2.556
 2913TIP3    H1 8745   1.169   5.452   2.582
 2913TIP3    H2 8746   1.291   5.461   2.493
 2914TIP3   OH2 8747   3.376   1.263   1.862
 2914TIP3    H1 8748   3.297   1.240   1.911
 2914TIP3    H2 8749   3.348   1.266   1.770
 2915TIP3   OH2 8750   3.724   4.891   4.341
 2915TIP3    H1 8751   3.634   4.907   4.311
 2915TIP3    H2 8752   3.720   4.805   4.382
 2916TIP3   OH2 8753   2.398   2.935   1.135
 2916TIP3    H1 8754   2.384   2.895   1.049
 2916TIP3    H2 8755   2.365   2.870   1.197
 2917TIP3   OH2 8756   0.818   0.512   1.894
 2917TIP3    H1 8757   0.896   0.568   1.895
 2917TIP3    H2 8758   0.843   0.436   1.948
 2918TIP3   OH2 8759   6.165   0.181   2.647
 2918TIP3    H1 8760   6.195   0.183   2.557
 2918TIP3    H2 8761   6.120   0.265   2.659
 2919TIP3   OH2 8762   1.131   0.316   4.823
 2919TIP3    H1 8763   1.153   0.228   4.853
 2919TIP3    H2 8764   1.079   0.303   4.744
 2920TIP3   OH2 8765   5.168   3.400   3.271
 2920TIP3    H1 8766   5.152   3.306   3.267
 2920TIP3    H2 8767   5.263   3.408   3.264
 2921TIP3   OH2 8768   5.511   0.254   5.084
 2921TIP3    H1 8769   5.572   0.328   5.083
 2921TIP3    H2 8770   5.528   0.210   5.167
 2922TIP3   OH2 8771   3.097   1.272   1.084
 2922TIP3    H1 8772   3.112   1.187   1.042
 2922TIP3    H2 8773   3.017   1.306   1.043
 2923TIP3   OH2 8774   0.430   1.109   4.282
 2923TIP3    H1 8775   0.439   1.037   4.344
 2923TIP3    H2 8776   0.441   1.188   4.335
 2924TIP3   OH2 8777   1.654   0.633   2.158
 2924TIP3    H1 8778   1.717   0.696   2.125
 2924TIP3    H2 8779   1.619   0.591   2.080
 2925TIP3   OH2 8780   1.281   2.855   2.558
 2925TIP3    H1 8781   1.296   2.832   2.650
 2925TIP3    H2 8782   1.281   2.772   2.512
 2926TIP3   OH2 8783   4.814   5.451   1.146
 2926TIP3    H1 8784   4.855   5.453   1.233
 2926TIP3    H2 8785   4.848   5.528   1.102
 2927TIP3   OH2 8786   2.162   1.849   4.580
 2927TIP3    H1 8787   2.127   1.768   4.616
 2927TIP3    H2 8788   2.085   1.903   4.562
 2928TIP3   OH2 8789   2.979   4.684   4.017
 2928TIP3    H1 8790   3.047   4.745   4.046
 2928TIP3    H2 8791   2.958   4.713   3.928
 2929TIP3   OH2 8792   5.536   5.331   2.353
 2929TIP3    H1 8793   5.533   5.426   2.348
 2929TIP3    H2 8794   5.522   5.311   2.445
 2930TIP3   OH2 8795   3.508   1.110   1.572
 2930TIP3    H1 8796   3.576   1.153   1.623
 2930TIP3    H2 8797   3.440   1.177   1.561
 2931TIP3   OH2 8798   4.913   0.772   4.824
 2931TIP3    H1 8799   4.973   0.716   4.874
 2931TIP3    H2 8800   4.863   0.711   4.770
 2932TIP3   OH2 8801   0.706   1.985   3.861
 2932TIP3    H1 8802   0.748   1.977   3.776
 2932TIP3    H2 8803   0.751   1.922   3.917
 2933TIP3   OH2 8804   1.609   1.587   3.881
 2933TIP3    H1 8805   1.635   1.605   3.971
 2933TIP3    H2 8806   1.671   1.520   3.851
 2934TIP3   OH2 8807   2.176   4.145  -0.004
 2934TIP3    H1 8808   2.227   4.080   0.044
 2934TIP3    H2 8809   2.142   4.098  -0.079
 2935TIP3   OH2 8810   2.169   2.117   4.175
 2935TIP3    H1 8811   2.237   2.171   4.215
 2935TIP3    H2 8812   2.187   2.028   4.207
 2936TIP3   OH2 8813   1.764   4.916   3.512
 2936TIP3    H1 8814   1.772   4.979   3.440
 2936TIP3    H2 8815   1.799   4.835   3.477
 2937TIP3   OH2 8816   3.098   3.573   3.311
 2937TIP3    H1 8817   3.190   3.567   3.337
 2937TIP3    H2 8818   3.053   3.610   3.387
 2938TIP3   OH2 8819   5.861   1.752   0.626
 2938TIP3    H1 8820   5.864   1.847   0.619
 2938TIP3    H2 8821   5.787   1.734   0.684
 2939TIP3   OH2 8822   1.600   1.385   4.247
 2939TIP3    H1 8823   1.585   1.386   4.342
 2939TIP3    H2 8824   1.584   1.475   4.220
 2940TIP3   OH2 8825   1.100   0.450   3.931
 2940TIP3    H1 8826   1.153   0.398   3.991
 2940TIP3    H2 8827   1.020   0.399   3.918
 2941TIP3   OH2 8828   3.206   5.412   3.746
 2941TIP3    H1 8829   3.176   5.322   3.757
 2941TIP3    H2 8830   3.265   5.427   3.820
 2942TIP3   OH2 8831   1.105   2.807   4.228
 2942TIP3    H1 8832   1.178   2.835   4.284
 2942TIP3    H2 8833   1.148   2.761   4.155
 2943TIP3   OH2 8834   2.749   4.316   2.016
 2943TIP3    H1 8835   2.800   4.394   2.039
 2943TIP3    H2 8836   2.697   4.297   2.094
 2944TIP3   OH2 8837   6.217   3.773   0.338
 2944TIP3    H1 8838   6.188   3.836   0.405
 2944TIP3    H2 8839   6.312   3.780   0.339
 2945TIP3   OH2 8840   4.789   5.545   1.802
 2945TIP3    H1 8841   4.796   5.517   1.711
 2945TIP3    H2 8842   4.818   5.637   1.801
 2946TIP3   OH2 8843   1.715   5.680   4.216
 2946TIP3    H1 8844   1.761   5.606   4.176
 2946TIP3    H2 8845   1.773   5.709   4.286
 2947TIP3   OH2 8846   1.934   0.096   1.858
 2947TIP3    H1 8847   1.921   0.173   1.802
 2947TIP3    H2 8848   1.995   0.041   1.808
 2948TIP3   OH2 8849   0.878   3.080   0.321
 2948TIP3    H1 8850   0.834   3.165   0.329
 2948TIP3    H2 8851   0.929   3.087   0.241
 2949TIP3   OH2 8852   1.541   1.209   1.080
 2949TIP3    H1 8853   1.483   1.159   1.022
 2949TIP3    H2 8854   1.606   1.248   1.021
 2950TIP3   OH2 8855   3.746   2.410   3.213
 2950TIP3    H1 8856   3.840   2.399   3.198
 2950TIP3    H2 8857   3.704   2.341   3.162
 2951TIP3   OH2 8858   3.454   3.148   0.680
 2951TIP3    H1 8859   3.413   3.187   0.602
 2951TIP3    H2 8860   3.463   3.055   0.657
 2952TIP3   OH2 8861   0.359   5.199   1.473
 2952TIP3    H1 8862   0.319   5.165   1.393
 2952TIP3    H2 8863   0.344   5.294   1.468
 2953TIP3   OH2 8864   6.162   4.149   1.155
 2953TIP3    H1 8865   6.091   4.187   1.207
 2953TIP3    H2 8866   6.216   4.103   1.219
 2954TIP3   OH2 8867   3.971   4.816   0.554
 2954TIP3    H1 8868   4.028   4.814   0.630
 2954TIP3    H2 8869   3.983   4.731   0.513
 2955TIP3   OH2 8870   2.558   2.122   3.402
 2955TIP3    H1 8871   2.542   2.046   3.346
 2955TIP3    H2 8872   2.567   2.195   3.342
 2956TIP3   OH2 8873   0.495   3.348   2.782
 2956TIP3    H1 8874   0.435   3.372   2.711
 2956TIP3    H2 8875   0.483   3.254   2.792
 2957TIP3   OH2 8876   4.171   3.947   2.622
 2957TIP3    H1 8877   4.187   3.906   2.537
 2957TIP3    H2 8878   4.078   3.932   2.639
 2958TIP3   OH2 8879   2.055   1.944   5.140
 2958TIP3    H1 8880   2.123   2.005   5.110
 2958TIP3    H2 8881   2.103   1.863   5.159
 2959TIP3   OH2 8882   0.289   2.800   3.109
 2959TIP3    H1 8883   0.377   2.764   3.115
 2959TIP3    H2 8884   0.287   2.872   3.172
 2960TIP3   OH2 8885   0.319   5.973   2.793
 2960TIP3    H1 8886   0.277   5.902   2.746
 2960TIP3    H2 8887   0.262   6.049   2.780
 2961TIP3   OH2 8888   5.970   4.420   2.430
 2961TIP3    H1 8889   5.909   4.372   2.485
 2961TIP3    H2 8890   5.973   4.508   2.468
 2962TIP3   OH2 8891   1.301   1.676   2.015
 2962TIP3    H1 8892   1.265   1.690   1.927
 2962TIP3    H2 8893   1.292   1.761   2.058
 2963TIP3   OH2 8894   4.964   3.609   1.126
 2963TIP3    H1 8895   4.895   3.673   1.107
 2963TIP3    H2 8896   4.926   3.550   1.190
 2964TIP3   OH2 8897   1.344   3.782   2.343
 2964TIP3    H1 8898   1.393   3.721   2.289
 2964TIP3    H2 8899   1.253   3.755   2.333
 2965TIP3   OH2 8900   2.456   3.895   2.637
 2965TIP3    H1 8901   2.476   3.803   2.656
 2965TIP3    H2 8902   2.444   3.898   2.542
 2966TIP3   OH2 8903   3.415   0.206   0.076
 2966TIP3    H1 8904   3.381   0.296   0.081
 2966TIP3    H2 8905   3.357   0.162   0.014
 2967TIP3   OH2 8906   2.728   5.051   0.716
 2967TIP3    H1 8907   2.814   5.057   0.674
 2967TIP3    H2 8908   2.707   4.958   0.714
 2968TIP3   OH2 8909   0.642   5.380   4.350
 2968TIP3    H1 8910   0.591   5.339   4.420
 2968TIP3    H2 8911   0.586   5.371   4.272
 2969TIP3   OH2 8912   3.367   3.873   0.177
 2969TIP3    H1 8913   3.432   3.911   0.119
 2969TIP3    H2 8914   3.283   3.887   0.132
 2970TIP3   OH2 8915   3.416   5.936   2.652
 2970TIP3    H1 8916   3.494   5.923   2.598
 2970TIP3    H2 8917   3.437   6.010   2.708
 2971TIP3   OH2 8918   6.271   0.990   2.360
 2971TIP3    H1 8919   6.193   0.936   2.364
 2971TIP3    H2 8920   6.322   0.965   2.437
 2972TIP3   OH2 8921   5.130   0.974   2.707
 2972TIP3    H1 8922   5.112   1.068   2.714
 2972TIP3    H2 8923   5.226   0.968   2.705
 2973TIP3   OH2 8924   6.292   0.926   0.280
 2973TIP3    H1 8925   6.336   0.938   0.364
 2973TIP3    H2 8926   6.280   0.832   0.272
 2974TIP3   OH2 8927   1.400   0.349   3.081
 2974TIP3    H1 8928   1.362   0.434   3.058
 2974TIP3    H2 8929   1.447   0.365   3.163
 2975TIP3   OH2 8930   1.393   5.056   2.240
 2975TIP3    H1 8931   1.394   4.961   2.244
 2975TIP3    H2 8932   1.341   5.084   2.316
 2976TIP3   OH2 8933   0.068   5.303   1.347
 2976TIP3    H1 8934   0.025   5.233   1.297
 2976TIP3    H2 8935   0.007   5.321   1.419
 2977TIP3   OH2 8936   1.235   4.976   0.818
 2977TIP3    H1 8937   1.316   4.978   0.870
 2977TIP3    H2 8938   1.171   5.022   0.872
 2978TIP3   OH2 8939   4.501   0.122   1.410
 2978TIP3    H1 8940   4.510   0.029   1.428
 2978TIP3    H2 8941   4.461   0.158   1.490
 2979TIP3   OH2 8942   0.622   5.946   1.135
 2979TIP3    H1 8943   0.715   5.966   1.146
 2979TIP3    H2 8944   0.588   5.943   1.225
 2980TIP3   OH2 8945   2.416   0.404   4.345
 2980TIP3    H1 8946   2.475   0.380   4.416
 2980TIP3    H2 8947   2.404   0.499   4.354
 2981TIP3   OH2 8948   5.735   5.329   0.426
 2981TIP3    H1 8949   5.718   5.269   0.499
 2981TIP3    H2 8950   5.789   5.280   0.365
 2982TIP3   OH2 8951   4.207   5.053   4.505
 2982TIP3    H1 8952   4.237   4.963   4.492
 2982TIP3    H2 8953   4.244   5.079   4.589
 2983TIP3   OH2 8954   3.518   5.020   0.413
 2983TIP3    H1 8955   3.459   5.043   0.341
 2983TIP3    H2 8956   3.598   4.991   0.370
 2984TIP3   OH2 8957   0.070   2.574   2.278
 2984TIP3    H1 8958   0.071   2.505   2.345
 2984TIP3    H2 8959   0.091   2.654   2.325
 2985TIP3   OH2 8960   3.820   5.420   3.451
 2985TIP3    H1 8961   3.840   5.441   3.542
 2985TIP3    H2 8962   3.729   5.447   3.439
 2986TIP3   OH2 8963   1.316   2.130   1.328
 2986TIP3    H1 8964   1.307   2.173   1.413
 2986TIP3    H2 8965   1.338   2.201   1.267
 2987TIP3   OH2 8966   3.460   4.895   3.743
 2987TIP3    H1 8967   3.471   4.948   3.664
 2987TIP3    H2 8968   3.533   4.833   3.740
 2988TIP3   OH2 8969   1.353   2.986   3.295
 2988TIP3    H1 8970   1.343   3.056   3.232
 2988TIP3    H2 8971   1.294   2.917   3.265
 2989TIP3   OH2 8972   2.214   1.650   2.289
 2989TIP3    H1 8973   2.181   1.714   2.352
 2989TIP3    H2 8974   2.184   1.681   2.204
 2990TIP3   OH2 8975   0.430   3.233   0.419
 2990TIP3    H1 8976   0.452   3.232   0.512
 2990TIP3    H2 8977   0.464   3.317   0.388
 2991TIP3   OH2 8978   6.065   3.720   0.821
 2991TIP3    H1 8979   6.045   3.665   0.745
 2991TIP3    H2 8980   6.147   3.764   0.797
 2992TIP3   OH2 8981   3.067   2.612   2.060
 2992TIP3    H1 8982   2.980   2.573   2.050
 2992TIP3    H2 8983   3.110   2.557   2.125
 2993TIP3   OH2 8984   1.702   0.771   3.409
 2993TIP3    H1 8985   1.680   0.826   3.334
 2993TIP3    H2 8986   1.618   0.733   3.436
 2994TIP3   OH2 8987   1.232   2.355   3.703
 2994TIP3    H1 8988   1.235   2.445   3.736
 2994TIP3    H2 8989   1.277   2.303   3.770
 2995TIP3   OH2 8990   3.815   5.103   4.050
 2995TIP3    H1 8991   3.885   5.038   4.059
 2995TIP3    H2 8992   3.763   5.072   3.976
 2996TIP3   OH2 8993   4.795   4.170   0.226
 2996TIP3    H1 8994   4.720   4.226   0.203
 2996TIP3    H2 8995   4.777   4.087   0.182
 2997TIP3   OH2 8996   1.625   1.720   1.907
 2997TIP3    H1 8997   1.575   1.658   1.853
 2997TIP3    H2 8998   1.710   1.726   1.864
 2998TIP3   OH2 8999   2.589   0.869   1.154
 2998TIP3    H1 9000   2.566   0.941   1.212
 2998TIP3    H2 9001   2.549   0.892   1.070
 2999TIP3   OH2 9002   5.566   1.140   0.518
 2999TIP3    H1 9003   5.628   1.155   0.446
 2999TIP3    H2 9004   5.526   1.056   0.498
 3000TIP3   OH2 9005   5.237   3.904   2.885
 3000TIP3    H1 9006   5.272   3.977   2.936
 3000TIP3    H2 9007   5.195   3.848   2.950
 3001TIP3   OH2 9008   0.443   3.775   2.140
 3001TIP3    H1 9009   0.484   3.799   2.056
 3001TIP3    H2 9010   0.496   3.821   2.205
 3002TIP3   OH2 9011   2.194   2.940   3.295
 3002TIP3    H1 9012   2.127   2.960   3.229
 3002TIP3    H2 9013   2.144   2.907   3.370
 3003TIP3   OH2 9014   6.197   4.482   5.123
 3003TIP3    H1 9015   6.198   4.567   5.079
 3003TIP3    H2 9016   6.121   4.437   5.087
 3004TIP3   OH2 9017   5.525   2.638   0.568
 3004TIP3    H1 9018   5.586   2.689   0.516
 3004TIP3    H2 9019   5.549   2.547   0.550
 3005TIP3   OH2 9020   0.442   4.312   2.568
 3005TIP3    H1 9021   0.508   4.364   2.523
 3005TIP3    H2 9022   0.386   4.377   2.612
 3006TIP3   OH2 9023   3.390   4.738   4.536
 3006TIP3    H1 9024   3.417   4.795   4.464
 3006TIP3    H2 9025   3.406   4.789   4.615
 3007TIP3   OH2 9026   4.762   1.816   0.899
 3007TIP3    H1 9027   4.809   1.844   0.821
 3007TIP3    H2 9028   4.795   1.872   0.969
 3008TIP3   OH2 9029   0.731   3.298   0.334
 3008TIP3    H1 9030   0.658   3.345   0.295
 3008TIP3    H2 9031   0.767   3.358   0.399
 3009TIP3   OH2 9032   0.500   5.929   5.129
 3009TIP3    H1 9033   0.552   5.919   5.208
 3009TIP3    H2 9034   0.500   5.842   5.089
 3010TIP3   OH2 9035   6.290   4.314   4.438
 3010TIP3    H1 9036   6.356   4.369   4.396
 3010TIP3    H2 9037   6.341   4.250   4.488
 3011TIP3   OH2 9038   5.595   1.533   4.509
 3011TIP3    H1 9039   5.568   1.442   4.518
 3011TIP3    H2 9040   5.606   1.564   4.599
 3012TIP3   OH2 9041   0.581   2.722   4.270
 3012TIP3    H1 9042   0.675   2.714   4.256
 3012TIP3    H2 9043   0.555   2.799   4.219
 3013TIP3   OH2 9044   2.723   0.203   2.783
 3013TIP3    H1 9045   2.770   0.262   2.725
 3013TIP3    H2 9046   2.694   0.259   2.856
 3014TIP3   OH2 9047   4.987   0.136   0.596
 3014TIP3    H1 9048   5.007   0.149   0.503
 3014TIP3    H2 9049   4.965   0.043   0.602
 3015TIP3   OH2 9050   2.349   0.948   3.867
 3015TIP3    H1 9051   2.400   1.017   3.825
 3015TIP3    H2 9052   2.292   0.915   3.798
 3016TIP3   OH2 9053   1.270   5.912   0.623
 3016TIP3    H1 9054   1.323   5.933   0.546
 3016TIP3    H2 9055   1.309   5.963   0.694
 3017TIP3   OH2 9056   2.790   0.282   3.063
 3017TIP3    H1 9057   2.843   0.321   2.993
 3017TIP3    H2 9058   2.847   0.280   3.139
 3018TIP3   OH2 9059   6.088   3.180   4.254
 3018TIP3    H1 9060   6.039   3.232   4.190
 3018TIP3    H2 9061   6.021   3.146   4.314
 3019TIP3   OH2 9062   0.170   0.175   2.430
 3019TIP3    H1 9063   0.258   0.145   2.451
 3019TIP3    H2 9064   0.182   0.267   2.405
 3020TIP3   OH2 9065   4.772   2.838   1.169
 3020TIP3    H1 9066   4.717   2.896   1.222
 3020TIP3    H2 9067   4.840   2.808   1.229
 3021TIP3   OH2 9068   3.284   3.743   5.014
 3021TIP3    H1 9069   3.361   3.706   4.973
 3021TIP3    H2 9070   3.316   3.818   5.063
 3022TIP3   OH2 9071   3.964   3.167   0.640
 3022TIP3    H1 9072   3.990   3.077   0.621
 3022TIP3    H2 9073   3.878   3.159   0.681
 3023TIP3   OH2 9074   3.821   3.230   1.431
 3023TIP3    H1 9075   3.798   3.315   1.468
 3023TIP3    H2 9076   3.775   3.166   1.485
 3024TIP3   OH2 9077   2.267   1.413   2.412
 3024TIP3    H1 9078   2.247   1.491   2.359
 3024TIP3    H2 9079   2.230   1.340   2.361
 3025TIP3   OH2 9080   0.783   2.033   3.601
 3025TIP3    H1 9081   0.716   2.007   3.537
 3025TIP3    H2 9082   0.811   2.119   3.572
 3026TIP3   OH2 9083   3.710   1.539   4.879
 3026TIP3    H1 9084   3.641   1.482   4.846
 3026TIP3    H2 9085   3.726   1.601   4.807
 3027TIP3   OH2 9086   1.803   2.705   1.346
 3027TIP3    H1 9087   1.895   2.682   1.358
 3027TIP3    H2 9088   1.790   2.702   1.251
 3028TIP3   OH2 9089   3.597   1.027   3.969
 3028TIP3    H1 9090   3.611   1.032   3.874
 3028TIP3    H2 9091   3.503   1.037   3.981
 3029TIP3   OH2 9092   6.216   2.642   0.047
 3029TIP3    H1 9093   6.141   2.611  -0.003
 3029TIP3    H2 9094   6.182   2.655   0.136
 3030TIP3   OH2 9095   4.366   4.501   1.309
 3030TIP3    H1 9096   4.302   4.490   1.379
 3030TIP3    H2 9097   4.426   4.427   1.320
 3031TIP3   OH2 9098   3.615   1.966   1.782
 3031TIP3    H1 9099   3.602   1.936   1.872
 3031TIP3    H2 9100   3.528   1.990   1.752
 3032TIP3   OH2 9101   1.746   1.914   2.737
 3032TIP3    H1 9102   1.677   1.892   2.674
 3032TIP3    H2 9103   1.821   1.860   2.709
 3033TIP3   OH2 9104   4.637   1.909   3.143
 3033TIP3    H1 9105   4.698   1.844   3.177
 3033TIP3    H2 9106   4.665   1.992   3.183
 3034TIP3   OH2 9107   2.331   4.804   3.375
 3034TIP3    H1 9108   2.356   4.719   3.339
 3034TIP3    H2 9109   2.247   4.823   3.334
 3035TIP3   OH2 9110   2.117   3.455   1.080
 3035TIP3    H1 9111   2.103   3.538   1.035
 3035TIP3    H2 9112   2.207   3.431   1.058
 3036TIP3   OH2 9113   2.005   3.212   4.124
 3036TIP3    H1 9114   2.053   3.247   4.199
 3036TIP3    H2 9115   2.030   3.120   4.122
 3037TIP3   OH2 9116   0.886   2.618   2.341
 3037TIP3    H1 9117   0.861   2.590   2.429
 3037TIP3    H2 9118   0.879   2.539   2.287
 3038TIP3   OH2 9119   3.325   0.438   4.522
 3038TIP3    H1 9120   3.376   0.495   4.580
 3038TIP3    H2 9121   3.391   0.391   4.471
 3039TIP3   OH2 9122   1.436   5.094   3.914
 3039TIP3    H1 9123   1.455   5.070   3.823
 3039TIP3    H2 9124   1.389   5.019   3.949
 3040TIP3   OH2 9125   4.966   4.332   2.436
 3040TIP3    H1 9126   4.991   4.395   2.368
 3040TIP3    H2 9127   4.902   4.379   2.490
 3041TIP3   OH2 9128   6.154   1.742   2.738
 3041TIP3    H1 9129   6.079   1.737   2.679
 3041TIP3    H2 9130   6.225   1.776   2.683
 3042TIP3   OH2 9131   0.170   4.429   0.864
 3042TIP3    H1 9132   0.250   4.381   0.886
 3042TIP3    H2 9133   0.102   4.387   0.916
 3043TIP3   OH2 9134   1.003   4.276   2.708
 3043TIP3    H1 9135   0.991   4.183   2.725
 3043TIP3    H2 9136   1.009   4.282   2.613
 3044TIP3   OH2 9137   3.485   4.528   2.911
 3044TIP3    H1 9138   3.581   4.536   2.907
 3044TIP3    H2 9139   3.463   4.552   3.001
 3045TIP3   OH2 9140   4.223   1.695   4.173
 3045TIP3    H1 9141   4.171   1.627   4.130
 3045TIP3    H2 9142   4.221   1.671   4.265
 3046TIP3   OH2 9143   2.334   1.400   0.714
 3046TIP3    H1 9144   2.421   1.427   0.742
 3046TIP3    H2 9145   2.348   1.320   0.663
 3047TIP3   OH2 9146   2.293   1.108   2.011
 3047TIP3    H1 9147   2.306   1.030   2.065
 3047TIP3    H2 9148   2.303   1.076   1.921
 3048TIP3   OH2 9149   2.930   2.295   1.155
 3048TIP3    H1 9150   2.883   2.244   1.089
 3048TIP3    H2 9151   3.000   2.338   1.106
 3049TIP3   OH2 9152   0.982   3.746   1.514
 3049TIP3    H1 9153   0.940   3.742   1.428
 3049TIP3    H2 9154   0.909   3.749   1.576
 3050TIP3   OH2 9155   1.323   1.070   0.898
 3050TIP3    H1 9156   1.286   1.000   0.844
 3050TIP3    H2 9157   1.276   1.065   0.981
 3051TIP3   OH2 9158   1.684   4.193   1.032
 3051TIP3    H1 9159   1.713   4.192   1.123
 3051TIP3    H2 9160   1.710   4.108   0.997
 3052TIP3   OH2 9161   3.885   0.796   0.331
 3052TIP3    H1 9162   3.914   0.795   0.423
 3052TIP3    H2 9163   3.887   0.888   0.306
 3053TIP3   OH2 9164   1.680   2.681   0.783
 3053TIP3    H1 9165   1.719   2.612   0.730
 3053TIP3    H2 9166   1.586   2.670   0.771
 3054TIP3   OH2 9167   5.897   3.611   1.432
 3054TIP3    H1 9168   5.939   3.552   1.369
 3054TIP3    H2 9169   5.804   3.594   1.422
 3055TIP3   OH2 9170   5.564   0.823   2.978
 3055TIP3    H1 9171   5.630   0.843   3.044
 3055TIP3    H2 9172   5.605   0.849   2.895
 3056TIP3   OH2 9173   6.140   1.517   1.373
 3056TIP3    H1 9174   6.136   1.426   1.402
 3056TIP3    H2 9175   6.064   1.559   1.412
 3057TIP3   OH2 9176   0.259   0.233   0.993
 3057TIP3    H1 9177   0.341   0.182   0.994
 3057TIP3    H2 9178   0.233   0.234   0.901
 3058TIP3   OH2 9179   1.050   5.057   3.738
 3058TIP3    H1 9180   1.061   5.099   3.823
 3058TIP3    H2 9181   1.037   5.129   3.676
 3059TIP3   OH2 9182   0.786   0.214   1.139
 3059TIP3    H1 9183   0.880   0.199   1.128
 3059TIP3    H2 9184   0.779   0.268   1.218
 3060TIP3   OH2 9185   2.353   1.350   1.359
 3060TIP3    H1 9186   2.326   1.437   1.327
 3060TIP3    H2 9187   2.417   1.320   1.295
 3061TIP3   OH2 9188   5.640   2.537   1.549
 3061TIP3    H1 9189   5.730   2.569   1.556
 3061TIP3    H2 9190   5.609   2.573   1.466
 3062TIP3   OH2 9191   4.267   0.224   4.414
 3062TIP3    H1 9192   4.282   0.193   4.325
 3062TIP3    H2 9193   4.255   0.319   4.404
 3063TIP3   OH2 9194   4.151   5.800   1.428
 3063TIP3    H1 9195   4.230   5.792   1.375
 3063TIP3    H2 9196   4.092   5.732   1.395
 3064TIP3   OH2 9197   1.988   4.784   4.150
 3064TIP3    H1 9198   1.948   4.783   4.063
 3064TIP3    H2 9199   2.006   4.692   4.168
 3065TIP3   OH2 9200   6.027   1.416   3.365
 3065TIP3    H1 9201   6.082   1.418   3.286
 3065TIP3    H2 9202   5.993   1.505   3.372
 3066TIP3   OH2 9203   4.021   3.251   1.641
 3066TIP3    H1 9204   4.062   3.333   1.670
 3066TIP3    H2 9205   3.964   3.277   1.568
 3067TIP3   OH2 9206   5.476   1.684   0.130
 3067TIP3    H1 9207   5.501   1.629   0.204
 3067TIP3    H2 9208   5.497   1.773   0.159
 3068TIP3   OH2 9209   5.955   4.656   1.827
 3068TIP3    H1 9210   5.899   4.732   1.812
 3068TIP3    H2 9211   5.895   4.582   1.830
 3069TIP3   OH2 9212   5.569   3.283   1.347
 3069TIP3    H1 9213   5.552   3.376   1.336
 3069TIP3    H2 9214   5.585   3.272   1.441
 3070TIP3   OH2 9215   4.106   0.482   4.287
 3070TIP3    H1 9216   4.026   0.459   4.238
 3070TIP3    H2 9217   4.177   0.442   4.236
 3071TIP3   OH2 9218   0.766   0.534   3.302
 3071TIP3    H1 9219   0.816   0.510   3.380
 3071TIP3    H2 9220   0.709   0.606   3.332
 3072TIP3   OH2 9221   0.946   4.520   4.538
 3072TIP3    H1 9222   0.940   4.478   4.452
 3072TIP3    H2 9223   1.028   4.569   4.535
 3073TIP3   OH2 9224   5.769   1.874   2.750
 3073TIP3    H1 9225   5.848   1.825   2.775
 3073TIP3    H2 9226   5.803   1.952   2.705
 3074TIP3   OH2 9227   2.478   3.713   4.963
 3074TIP3    H1 9228   2.490   3.781   5.030
 3074TIP3    H2 9229   2.420   3.649   5.004
 3075TIP3   OH2 9230   3.108   1.777   0.642
 3075TIP3    H1 9231   3.085   1.736   0.725
 3075TIP3    H2 9232   3.177   1.839   0.664
 3076TIP3   OH2 9233   0.621   0.679   2.071
 3076TIP3    H1 9234   0.619   0.768   2.035
 3076TIP3    H2 9235   0.707   0.645   2.046
 3077TIP3   OH2 9236   1.729   4.257   3.333
 3077TIP3    H1 9237   1.708   4.335   3.385
 3077TIP3    H2 9238   1.644   4.227   3.300
 3078TIP3   OH2 9239   4.791   3.209   3.229
 3078TIP3    H1 9240   4.749   3.134   3.187
 3078TIP3    H2 9241   4.778   3.194   3.323
 3079TIP3   OH2 9242   1.997   5.748   0.890
 3079TIP3    H1 9243   2.054   5.693   0.837
 3079TIP3    H2 9244   1.915   5.752   0.840
 3080TIP3   OH2 9245   0.843   5.008   4.676
 3080TIP3    H1 9246   0.751   5.026   4.655
 3080TIP3    H2 9247   0.888   5.091   4.663
 3081TIP3   OH2 9248   2.106   5.076   1.048
 3081TIP3    H1 9249   2.042   5.134   1.007
 3081TIP3    H2 9250   2.191   5.105   1.012
 3082TIP3   OH2 9251   3.242   2.527   2.714
 3082TIP3    H1 9252   3.300   2.454   2.693
 3082TIP3    H2 9253   3.297   2.590   2.759
 3083TIP3   OH2 9254   1.974   3.856   4.011
 3083TIP3    H1 9255   1.949   3.796   3.941
 3083TIP3    H2 9256   1.990   3.939   3.967
 3084TIP3   OH2 9257   1.453   0.326   3.534
 3084TIP3    H1 9258   1.417   0.238   3.520
 3084TIP3    H2 9259   1.453   0.337   3.629
 3085TIP3   OH2 9260   4.149   1.970   3.135
 3085TIP3    H1 9261   4.188   2.007   3.214
 3085TIP3    H2 9262   4.218   1.974   3.069
 3086TIP3   OH2 9263   2.715   4.630   2.771
 3086TIP3    H1 9264   2.750   4.705   2.722
 3086TIP3    H2 9265   2.792   4.578   2.794
 3087TIP3   OH2 9266   2.000   1.924   3.685
 3087TIP3    H1 9267   2.000   1.955   3.776
 3087TIP3    H2 9268   2.007   1.829   3.692
 3088TIP3   OH2 9269   1.926   1.501   4.511
 3088TIP3    H1 9270   1.875   1.420   4.510
 3088TIP3    H2 9271   2.002   1.480   4.565
 3089TIP3   OH2 9272   2.248   2.152   3.816
 3089TIP3    H1 9273   2.251   2.142   3.721
 3089TIP3    H2 9274   2.334   2.123   3.846
 3090TIP3   OH2 9275   6.060   1.475   4.835
 3090TIP3    H1 9276   6.052   1.386   4.869
 3090TIP3    H2 9277   6.154   1.487   4.821
 3091TIP3   OH2 9278   1.525   5.888   4.280
 3091TIP3    H1 9279   1.507   5.885   4.374
 3091TIP3    H2 9280   1.584   5.815   4.264
 3092TIP3   OH2 9281   3.766   4.678   4.851
 3092TIP3    H1 9282   3.730   4.727   4.925
 3092TIP3    H2 9283   3.688   4.647   4.804
 3093TIP3   OH2 9284   3.578   2.157   3.664
 3093TIP3    H1 9285   3.494   2.138   3.623
 3093TIP3    H2 9286   3.561   2.233   3.719
 3094TIP3   OH2 9287   2.855   2.205   0.657
 3094TIP3    H1 9288   2.892   2.285   0.696
 3094TIP3    H2 9289   2.843   2.227   0.565
 3095TIP3   OH2 9290   3.389   5.785   4.601
 3095TIP3    H1 9291   3.439   5.865   4.585
 3095TIP3    H2 9292   3.445   5.714   4.571
 3096TIP3   OH2 9293   1.874   1.275   1.319
 3096TIP3    H1 9294   1.959   1.290   1.360
 3096TIP3    H2 9295   1.870   1.339   1.247
 3097TIP3   OH2 9296   5.996   4.401   4.430
 3097TIP3    H1 9297   6.041   4.483   4.408
 3097TIP3    H2 9298   6.064   4.334   4.424
 3098TIP3   OH2 9299   4.855   0.121   1.822
 3098TIP3    H1 9300   4.759   0.123   1.827
 3098TIP3    H2 9301   4.883   0.181   1.891
 3099TIP3   OH2 9302   1.401   3.742   2.654
 3099TIP3    H1 9303   1.314   3.725   2.689
 3099TIP3    H2 9304   1.387   3.754   2.560
 3100TIP3   OH2 9305   2.698   1.451   1.102
 3100TIP3    H1 9306   2.749   1.480   1.178
 3100TIP3    H2 9307   2.635   1.522   1.087
 3101TIP3   OH2 9308   0.910   2.105   4.627
 3101TIP3    H1 9309   0.883   2.015   4.648
 3101TIP3    H2 9310   0.998   2.113   4.665
 3102TIP3   OH2 9311   2.620   1.391   0.717
 3102TIP3    H1 9312   2.699   1.397   0.662
 3102TIP3    H2 9313   2.592   1.300   0.709
 3103TIP3   OH2 9314   0.488   4.615   3.885
 3103TIP3    H1 9315   0.415   4.560   3.914
 3103TIP3    H2 9316   0.566   4.571   3.916
 3104TIP3   OH2 9317   4.707   1.404   1.625
 3104TIP3    H1 9318   4.797   1.372   1.637
 3104TIP3    H2 9319   4.655   1.325   1.611
 3105TIP3   OH2 9320   5.788   5.900   4.680
 3105TIP3    H1 9321   5.753   5.919   4.593
 3105TIP3    H2 9322   5.741   5.822   4.708
 3106TIP3   OH2 9323   4.662   4.227   4.346
 3106TIP3    H1 9324   4.721   4.216   4.272
 3106TIP3    H2 9325   4.705   4.180   4.418
 3107TIP3   OH2 9326   2.011   0.740  -0.011
 3107TIP3    H1 9327   2.057   0.788   0.058
 3107TIP3    H2 9328   1.919   0.739   0.017
 3108TIP3   OH2 9329   1.514   2.620   2.092
 3108TIP3    H1 9330   1.512   2.545   2.151
 3108TIP3    H2 9331   1.571   2.683   2.136
 3109TIP3   OH2 9332   0.011   5.959   1.692
 3109TIP3    H1 9333   0.039   5.876   1.655
 3109TIP3    H2 9334  -0.050   5.995   1.627
 3110TIP3   OH2 9335   3.747   5.368   4.529
 3110TIP3    H1 9336   3.813   5.299   4.532
 3110TIP3    H2 9337   3.676   5.331   4.477
 3111TIP3   OH2 9338   3.939   1.376   2.101
 3111TIP3    H1 9339   3.961   1.294   2.147
 3111TIP3    H2 9340   3.992   1.442   2.145
 3112TIP3   OH2 9341   1.477   4.013   0.859
 3112TIP3    H1 9342   1.513   4.010   0.770
 3112TIP3    H2 9343   1.547   3.979   0.915
 3113TIP3   OH2 9344   0.453   5.428   1.927
 3113TIP3    H1 9345   0.384   5.484   1.893
 3113TIP3    H2 9346   0.446   5.347   1.875
 3114TIP3   OH2 9347   4.146   3.112   4.562
 3114TIP3    H1 9348   4.235   3.111   4.597
 3114TIP3    H2 9349   4.142   3.192   4.510
 3115TIP3   OH2 9350   0.809   2.618   4.049
 3115TIP3    H1 9351   0.865   2.696   4.047
 3115TIP3    H2 9352   0.831   2.574   4.131
 3116TIP3   OH2 9353   3.604   4.989   1.656
 3116TIP3    H1 9354   3.580   5.035   1.736
 3116TIP3    H2 9355   3.539   5.018   1.592
 3117TIP3   OH2 9356   4.566   0.103   0.217
 3117TIP3    H1 9357   4.537   0.027   0.166
 3117TIP3    H2 9358   4.487   0.133   0.263
 3118TIP3   OH2 9359   5.882   3.448   3.505
 3118TIP3    H1 9360   5.912   3.375   3.560
 3118TIP3    H2 9361   5.951   3.514   3.513
 3119TIP3   OH2 9362   2.479   0.292   3.483
 3119TIP3    H1 9363   2.563   0.246   3.490
 3119TIP3    H2 9364   2.494   0.376   3.527
 3120TIP3   OH2 9365   4.792   4.164   1.036
 3120TIP3    H1 9366   4.719   4.151   1.097
 3120TIP3    H2 9367   4.759   4.129   0.953
 3121TIP3   OH2 9368   2.812   5.856   0.630
 3121TIP3    H1 9369   2.841   5.765   0.635
 3121TIP3    H2 9370   2.736   5.860   0.688
 3122TIP3   OH2 9371   5.148   1.531   0.277
 3122TIP3    H1 9372   5.213   1.585   0.321
 3122TIP3    H2 9373   5.140   1.570   0.189
 3123TIP3   OH2 9374   6.060   0.249   4.919
 3123TIP3    H1 9375   6.155   0.254   4.917
 3123TIP3    H2 9376   6.040   0.194   4.995
 3124TIP3   OH2 9377   6.351   3.873   3.854
 3124TIP3    H1 9378   6.296   3.849   3.928
 3124TIP3    H2 9379   6.354   3.969   3.856
 3125TIP3   OH2 9380   3.935   0.850   3.839
 3125TIP3    H1 9381   4.029   0.858   3.821
 3125TIP3    H2 9382   3.900   0.936   3.819
 3126TIP3   OH2 9383   6.112   3.617   0.572
 3126TIP3    H1 9384   6.188   3.583   0.620
 3126TIP3    H2 9385   6.146   3.638   0.485
 3127TIP3   OH2 9386   5.397   4.095   0.255
 3127TIP3    H1 9387   5.486   4.112   0.286
 3127TIP3    H2 9388   5.340   4.127   0.325
 3128TIP3   OH2 9389   0.246   5.674   4.979
 3128TIP3    H1 9390   0.217   5.754   4.935
 3128TIP3    H2 9391   0.206   5.678   5.066
 3129TIP3   OH2 9392   1.255   4.772   2.136
 3129TIP3    H1 9393   1.192   4.844   2.127
 3129TIP3    H2 9394   1.212   4.698   2.094
 3130TIP3   OH2 9395   3.112   4.030   2.653
 3130TIP3    H1 9396   3.193   4.005   2.697
 3130TIP3    H2 9397   3.067   3.947   2.637
 3131TIP3   OH2 9398   1.363   0.658   3.714
 3131TIP3    H1 9399   1.441   0.614   3.748
 3131TIP3    H2 9400   1.353   0.735   3.769
 3132TIP3   OH2 9401   2.302   1.612   4.152
 3132TIP3    H1 9402   2.395   1.611   4.127
 3132TIP3    H2 9403   2.255   1.611   4.069
 3133TIP3   OH2 9404   4.623   2.706   0.193
 3133TIP3    H1 9405   4.622   2.657   0.275
 3133TIP3    H2 9406   4.689   2.774   0.207
 3134TIP3   OH2 9407   5.119   2.333   4.735
 3134TIP3    H1 9408   5.151   2.325   4.645
 3134TIP3    H2 9409   5.198   2.328   4.789
 3135TIP3   OH2 9410   4.319   5.934   1.794
 3135TIP3    H1 9411   4.363   6.014   1.820
 3135TIP3    H2 9412   4.378   5.894   1.730
 3136TIP3   OH2 9413   6.054   5.069   4.058
 3136TIP3    H1 9414   6.137   5.037   4.024
 3136TIP3    H2 9415   6.003   5.092   3.980
 3137TIP3   OH2 9416   2.847   3.286   3.016
 3137TIP3    H1 9417   2.826   3.312   3.105
 3137TIP3    H2 9418   2.927   3.336   2.995
 3138TIP3   OH2 9419   1.633   4.899   0.904
 3138TIP3    H1 9420   1.583   4.975   0.932
 3138TIP3    H2 9421   1.647   4.912   0.811
 3139TIP3   OH2 9422   3.522   4.191   1.161
 3139TIP3    H1 9423   3.464   4.200   1.085
 3139TIP3    H2 9424   3.548   4.281   1.181
 3140TIP3   OH2 9425   5.255   4.497   3.923
 3140TIP3    H1 9426   5.193   4.424   3.914
 3140TIP3    H2 9427   5.340   4.459   3.902
 3141TIP3   OH2 9428   4.132   0.939   3.192
 3141TIP3    H1 9429   4.095   0.875   3.131
 3141TIP3    H2 9430   4.226   0.939   3.173
 3142TIP3   OH2 9431   3.313   3.869   4.063
 3142TIP3    H1 9432   3.344   3.823   4.141
 3142TIP3    H2 9433   3.236   3.820   4.035
 3143TIP3   OH2 9434   1.919   3.762   5.145
 3143TIP3    H1 9435   1.857   3.746   5.074
 3143TIP3    H2 9436   1.954   3.676   5.167
 3144TIP3   OH2 9437   5.593   5.358   2.795
 3144TIP3    H1 9438   5.527   5.342   2.727
 3144TIP3    H2 9439   5.552   5.422   2.853
 3145TIP3   OH2 9440   2.554   5.501   2.507
 3145TIP3    H1 9441   2.603   5.467   2.433
 3145TIP3    H2 9442   2.557   5.430   2.572
 3146TIP3   OH2 9443   3.354   0.661   0.896
 3146TIP3    H1 9444   3.430   0.717   0.914
 3146TIP3    H2 9445   3.355   0.649   0.801
 3147TIP3   OH2 9446   0.104   2.780   4.323
 3147TIP3    H1 9447   0.091   2.813   4.412
 3147TIP3    H2 9448   0.039   2.711   4.313
 3148TIP3   OH2 9449   5.936   0.458   1.482
 3148TIP3    H1 9450   5.846   0.492   1.482
 3148TIP3    H2 9451   5.947   0.418   1.568
 3149TIP3   OH2 9452   6.088   1.641   4.442
 3149TIP3    H1 9453   6.034   1.562   4.439
 3149TIP3    H2 9454   6.074   1.676   4.530
 3150TIP3   OH2 9455   0.309   3.692   1.769
 3150TIP3    H1 9456   0.224   3.700   1.813
 3150TIP3    H2 9457   0.289   3.700   1.676
 3151TIP3   OH2 9458   3.066   1.585   3.810
 3151TIP3    H1 9459   2.994   1.645   3.828
 3151TIP3    H2 9460   3.137   1.616   3.865
 3152TIP3   OH2 9461   4.882   3.225   2.093
 3152TIP3    H1 9462   4.893   3.235   1.999
 3152TIP3    H2 9463   4.822   3.295   2.118
 3153TIP3   OH2 9464   0.779   0.846   0.501
 3153TIP3    H1 9465   0.775   0.753   0.520
 3153TIP3    H2 9466   0.867   0.873   0.529
 3154TIP3   OH2 9467   2.208   4.064   1.601
 3154TIP3    H1 9468   2.274   4.001   1.629
 3154TIP3    H2 9469   2.161   4.087   1.682
 3155TIP3   OH2 9470   0.384   4.049   1.830
 3155TIP3    H1 9471   0.358   4.097   1.751
 3155TIP3    H2 9472   0.347   4.099   1.902
 3156TIP3   OH2 9473   4.043   3.241   3.280
 3156TIP3    H1 9474   4.092   3.305   3.228
 3156TIP3    H2 9475   3.951   3.259   3.259
 3157TIP3   OH2 9476   5.115   2.977   2.399
 3157TIP3    H1 9477   5.031   2.972   2.444
 3157TIP3    H2 9478   5.103   3.042   2.330
 3158TIP3   OH2 9479   1.699   1.726   1.191
 3158TIP3    H1 9480   1.637   1.758   1.125
 3158TIP3    H2 9481   1.646   1.719   1.271
 3159TIP3   OH2 9482   5.405   1.047   1.489
 3159TIP3    H1 9483   5.348   0.971   1.498
 3159TIP3    H2 9484   5.359   1.104   1.427
 3160TIP3   OH2 9485   1.691   3.422   2.356
 3160TIP3    H1 9486   1.780   3.458   2.357
 3160TIP3    H2 9487   1.703   3.327   2.362
 3161TIP3   OH2 9488   0.083   4.835   4.582
 3161TIP3    H1 9489   0.043   4.919   4.603
 3161TIP3    H2 9490   0.120   4.847   4.494
 3162TIP3   OH2 9491   1.478   4.673   4.469
 3162TIP3    H1 9492   1.568   4.641   4.477
 3162TIP3    H2 9493   1.487   4.764   4.441
 3163TIP3   OH2 9494   4.354   1.595   1.429
 3163TIP3    H1 9495   4.327   1.536   1.500
 3163TIP3    H2 9496   4.341   1.544   1.350
 3164TIP3   OH2 9497   3.850   2.043   1.913
 3164TIP3    H1 9498   3.824   2.133   1.896
 3164TIP3    H2 9499   3.798   1.991   1.852
 3165TIP3   OH2 9500   4.866   3.744   1.420
 3165TIP3    H1 9501   4.886   3.660   1.378
 3165TIP3    H2 9502   4.909   3.809   1.364
 3166TIP3   OH2 9503   6.168   2.935   4.149
 3166TIP3    H1 9504   6.150   3.025   4.178
 3166TIP3    H2 9505   6.127   2.880   4.215
 3167TIP3   OH2 9506   0.072   0.288   2.151
 3167TIP3    H1 9507   0.015   0.219   2.116
 3167TIP3    H2 9508   0.160   0.253   2.143
 3168TIP3   OH2 9509   5.588   0.256   0.076
 3168TIP3    H1 9510   5.528   0.246   0.150
 3168TIP3    H2 9511   5.548   0.324   0.022
 3169TIP3   OH2 9512   0.763   4.223   3.390
 3169TIP3    H1 9513   0.838   4.217   3.450
 3169TIP3    H2 9514   0.723   4.307   3.411
 3170TIP3   OH2 9515   2.603   4.143   0.790
 3170TIP3    H1 9516   2.545   4.101   0.853
 3170TIP3    H2 9517   2.581   4.236   0.794
 3171TIP3   OH2 9518   2.063   2.004   3.953
 3171TIP3    H1 9519   2.118   2.059   3.897
 3171TIP3    H2 9520   2.071   2.043   4.040
 3172TIP3   OH2 9521   2.270   4.372   2.405
 3172TIP3    H1 9522   2.231   4.298   2.359
 3172TIP3    H2 9523   2.363   4.349   2.413
 3173TIP3   OH2 9524   0.497   4.796   2.158
 3173TIP3    H1 9525   0.459   4.736   2.222
 3173TIP3    H2 9526   0.491   4.882   2.200
 3174TIP3   OH2 9527   2.548   0.927   2.361
 3174TIP3    H1 9528   2.595   0.963   2.436
 3174TIP3    H2 9529   2.602   0.950   2.286
 3175TIP3   OH2 9530   1.933   3.987   4.865
 3175TIP3    H1 9531   2.028   3.999   4.859
 3175TIP3    H2 9532   1.920   3.893   4.872
 3176TIP3   OH2 9533   5.019   4.429   3.147
 3176TIP3    H1 9534   4.938   4.389   3.116
 3176TIP3    H2 9535   5.014   4.520   3.119
 3177TIP3   OH2 9536   5.925   1.421   4.532
 3177TIP3    H1 9537   5.847   1.437   4.586
 3177TIP3    H2 9538   5.983   1.369   4.587
 3178TIP3   OH2 9539   4.527   0.257   4.646
 3178TIP3    H1 9540   4.563   0.343   4.667
 3178TIP3    H2 9541   4.446   0.275   4.598
 3179TIP3   OH2 9542   3.030   5.845   0.954
 3179TIP3    H1 9543   3.049   5.784   0.883
 3179TIP3    H2 9544   3.062   5.930   0.923
 3180TIP3   OH2 9545   4.171   4.083   0.308
 3180TIP3    H1 9546   4.113   4.018   0.268
 3180TIP3    H2 9547   4.114   4.135   0.365
 3181TIP3   OH2 9548   3.924   5.676   1.835
 3181TIP3    H1 9549   3.942   5.582   1.845
 3181TIP3    H2 9550   3.839   5.689   1.879
 3182TIP3   OH2 9551   5.125   2.766   4.440
 3182TIP3    H1 9552   5.202   2.776   4.383
 3182TIP3    H2 9553   5.157   2.716   4.515
 3183TIP3   OH2 9554   1.523   3.580   4.433
 3183TIP3    H1 9555   1.573   3.510   4.390
 3183TIP3    H2 9556   1.575   3.603   4.510
 3184TIP3   OH2 9557   1.866   1.845   0.746
 3184TIP3    H1 9558   1.781   1.855   0.703
 3184TIP3    H2 9559   1.852   1.880   0.834
 3185TIP3   OH2 9560   4.144   5.676   4.668
 3185TIP3    H1 9561   4.109   5.614   4.603
 3185TIP3    H2 9562   4.237   5.654   4.673
 3186TIP3   OH2 9563   4.436   1.513  -0.028
 3186TIP3    H1 9564   4.435   1.582  -0.094
 3186TIP3    H2 9565   4.500   1.542   0.037
 3187TIP3   OH2 9566   2.295   1.470   0.277
 3187TIP3    H1 9567   2.310   1.498   0.367
 3187TIP3    H2 9568   2.204   1.494   0.259
 3188TIP3   OH2 9569   0.523   2.109   0.809
 3188TIP3    H1 9570   0.453   2.166   0.841
 3188TIP3    H2 9571   0.595   2.123   0.871
 3189TIP3   OH2 9572   3.505   4.765   4.958
 3189TIP3    H1 9573   3.453   4.685   4.944
 3189TIP3    H2 9574   3.461   4.810   5.030
 3190TIP3   OH2 9575   3.099   5.318   4.799
 3190TIP3    H1 9576   3.120   5.325   4.892
 3190TIP3    H2 9577   3.132   5.399   4.761
 3191TIP3   OH2 9578   3.855   0.119   3.870
 3191TIP3    H1 9579   3.849   0.118   3.966
 3191TIP3    H2 9580   3.907   0.041   3.849
 3192TIP3   OH2 9581   2.386   5.599   4.166
 3192TIP3    H1 9582   2.470   5.575   4.125
 3192TIP3    H2 9583   2.386   5.695   4.165
 3193TIP3   OH2 9584   2.042   2.927   1.435
 3193TIP3    H1 9585   1.962   2.955   1.480
 3193TIP3    H2 9586   2.073   3.006   1.391
 3194TIP3   OH2 9587   3.612   0.241   3.314
 3194TIP3    H1 9588   3.554   0.232   3.239
 3194TIP3    H2 9589   3.698   0.214   3.282
 3195TIP3   OH2 9590   1.020   4.403   1.484
 3195TIP3    H1 9591   1.084   4.474   1.494
 3195TIP3    H2 9592   0.944   4.446   1.445
 3196TIP3   OH2 9593   3.933   1.704   4.083
 3196TIP3    H1 9594   3.893   1.721   3.998
 3196TIP3    H2 9595   3.970   1.788   4.109
 3197TIP3   OH2 9596   0.725   0.338   5.140
 3197TIP3    H1 9597   0.645   0.360   5.188
 3197TIP3    H2 9598   0.694   0.299   5.058
 3198TIP3   OH2 9599   2.096   2.147   1.290
 3198TIP3    H1 9600   2.025   2.089   1.318
 3198TIP3    H2 9601   2.089   2.224   1.347
 3199TIP3   OH2 9602   2.178   0.798   0.567
 3199TIP3    H1 9603   2.117   0.822   0.637
 3199TIP3    H2 9604   2.124   0.753   0.503
 3200TIP3   OH2 9605   3.173   4.510   2.031
 3200TIP3    H1 9606   3.181   4.414   2.031
 3200TIP3    H2 9607   3.245   4.540   1.976
 3201TIP3   OH2 9608   5.958   4.870   2.634
 3201TIP3    H1 9609   6.050   4.895   2.647
 3201TIP3    H2 9610   5.937   4.817   2.710
 3202TIP3   OH2 9611   0.852   5.543   4.050
 3202TIP3    H1 9612   0.906   5.582   3.981
 3202TIP3    H2 9613   0.762   5.558   4.022
 3203TIP3   OH2 9614   5.929   2.632   4.891
 3203TIP3    H1 9615   5.922   2.596   4.802
 3203TIP3    H2 9616   5.839   2.653   4.916
 3204TIP3   OH2 9617   4.316   2.601   3.786
 3204TIP3    H1 9618   4.256   2.629   3.855
 3204TIP3    H2 9619   4.259   2.570   3.716
 3205TIP3   OH2 9620   4.680   2.101   0.028
 3205TIP3    H1 9621   4.760   2.130   0.073
 3205TIP3    H2 9622   4.610   2.114   0.092
 3206TIP3   OH2 9623   6.125   2.136   3.338
 3206TIP3    H1 9624   6.040   2.096   3.319
 3206TIP3    H2 9625   6.178   2.119   3.260
 3207TIP3   OH2 9626   3.754   4.600   1.694
 3207TIP3    H1 9627   3.759   4.528   1.631
 3207TIP3    H2 9628   3.835   4.594   1.745
 3208TIP3   OH2 9629   2.299   1.933   4.861
 3208TIP3    H1 9630   2.242   1.863   4.829
 3208TIP3    H2 9631   2.350   1.892   4.930
 3209TIP3   OH2 9632   4.418   2.042   3.035
 3209TIP3    H1 9633   4.496   2.014   3.083
 3209TIP3    H2 9634   4.445   2.042   2.943
 3210TIP3   OH2 9635   3.413   2.380   3.395
 3210TIP3    H1 9636   3.393   2.409   3.484
 3210TIP3    H2 9637   3.509   2.372   3.393
 3211TIP3   OH2 9638   5.356   2.874   4.997
 3211TIP3    H1 9639   5.306   2.822   5.060
 3211TIP3    H2 9640   5.325   2.964   5.009
 3212TIP3   OH2 9641   3.245   2.794   1.667
 3212TIP3    H1 9642   3.233   2.821   1.576
 3212TIP3    H2 9643   3.339   2.777   1.676
 3213TIP3   OH2 9644   4.464   3.423   3.544
 3213TIP3    H1 9645   4.385   3.374   3.525
 3213TIP3    H2 9646   4.457   3.445   3.637
 3214TIP3   OH2 9647   5.821   4.045   1.174
 3214TIP3    H1 9648   5.730   4.074   1.161
 3214TIP3    H2 9649   5.848   4.015   1.087
 3215TIP3   OH2 9650   1.334   4.627   1.734
 3215TIP3    H1 9651   1.309   4.709   1.692
 3215TIP3    H2 9652   1.390   4.584   1.670
 3216TIP3   OH2 9653   2.060   5.143   1.697
 3216TIP3    H1 9654   1.970   5.124   1.673
 3216TIP3    H2 9655   2.080   5.226   1.654
 3217TIP3   OH2 9656   1.104   4.796   1.216
 3217TIP3    H1 9657   1.012   4.773   1.228
 3217TIP3    H2 9658   1.118   4.792   1.121
 3218TIP3   OH2 9659   3.009   4.199   0.846
 3218TIP3    H1 9660   3.066   4.136   0.890
 3218TIP3    H2 9661   2.945   4.224   0.913
 3219TIP3   OH2 9662   2.114   5.790   0.469
 3219TIP3    H1 9663   2.078   5.751   0.389
 3219TIP3    H2 9664   2.053   5.764   0.538
 3220TIP3   OH2 9665   1.136   0.742   2.859
 3220TIP3    H1 9666   1.124   0.837   2.868
 3220TIP3    H2 9667   1.139   0.728   2.764
 3221TIP3   OH2 9668   3.254   1.074   0.205
 3221TIP3    H1 9669   3.264   0.994   0.257
 3221TIP3    H2 9670   3.282   1.050   0.117
 3222TIP3   OH2 9671   5.122   5.533   3.743
 3222TIP3    H1 9672   5.182   5.558   3.672
 3222TIP3    H2 9673   5.036   5.528   3.701
 3223TIP3   OH2 9674   4.388   6.000   3.742
 3223TIP3    H1 9675   4.479   5.982   3.766
 3223TIP3    H2 9676   4.347   5.913   3.736
 3224TIP3   OH2 9677   5.433   1.570   1.142
 3224TIP3    H1 9678   5.512   1.516   1.136
 3224TIP3    H2 9679   5.443   1.635   1.073
 3225TIP3   OH2 9680   5.904   4.021   2.792
 3225TIP3    H1 9681   5.935   3.946   2.742
 3225TIP3    H2 9682   5.884   3.986   2.879
 3226TIP3   OH2 9683   2.002   1.054   1.980
 3226TIP3    H1 9684   2.074   0.992   1.973
 3226TIP3    H2 9685   1.927   1.002   2.009
 3227TIP3   OH2 9686   5.987   1.928   4.382
 3227TIP3    H1 9687   5.980   1.899   4.473
 3227TIP3    H2 9688   5.999   1.848   4.332
 3228TIP3   OH2 9689   2.645   6.015   4.915
 3228TIP3    H1 9690   2.639   5.949   4.984
 3228TIP3    H2 9691   2.686   5.969   4.841
 3229TIP3   OH2 9692   1.336   1.982   3.336
 3229TIP3    H1 9693   1.257   1.938   3.368
 3229TIP3    H2 9694   1.406   1.917   3.348
 3230TIP3   OH2 9695   0.863   2.705   4.299
 3230TIP3    H1 9696   0.893   2.650   4.371
 3230TIP3    H2 9697   0.934   2.768   4.286
 3231TIP3   OH2 9698   3.418   1.891   4.220
 3231TIP3    H1 9699   3.403   1.798   4.237
 3231TIP3    H2 9700   3.358   1.912   4.148
 3232TIP3   OH2 9701   3.037   1.299   3.805
 3232TIP3    H1 9702   3.045   1.392   3.785
 3232TIP3    H2 9703   3.052   1.293   3.900
 3233TIP3   OH2 9704   1.128   5.102   0.165
 3233TIP3    H1 9705   1.039   5.135   0.155
 3233TIP3    H2 9706   1.123   5.040   0.238
 3234TIP3   OH2 9707   5.458   5.016   0.753
 3234TIP3    H1 9708   5.530   4.953   0.759
 3234TIP3    H2 9709   5.414   5.010   0.838
 3235TIP3   OH2 9710   1.675   5.399   1.445
 3235TIP3    H1 9711   1.676   5.307   1.420
 3235TIP3    H2 9712   1.767   5.425   1.446
 3236TIP3   OH2 9713   6.040   3.115   1.824
 3236TIP3    H1 9714   5.973   3.179   1.800
 3236TIP3    H2 9715   6.021   3.094   1.916
 3237TIP3   OH2 9716   5.271   2.001   4.765
 3237TIP3    H1 9717   5.361   1.988   4.735
 3237TIP3    H2 9718   5.268   2.093   4.792
 3238TIP3   OH2 9719   3.022   5.776   1.235
 3238TIP3    H1 9720   3.013   5.800   1.143
 3238TIP3    H2 9721   2.953   5.712   1.250
 3239TIP3   OH2 9722   2.455   3.801   4.205
 3239TIP3    H1 9723   2.531   3.808   4.147
 3239TIP3    H2 9724   2.481   3.734   4.269
 3240TIP3   OH2 9725   5.349   0.847   0.666
 3240TIP3    H1 9726   5.419   0.865   0.603
 3240TIP3    H2 9727   5.270   0.882   0.625
 3241TIP3   OH2 9728   2.316   2.278   0.755
 3241TIP3    H1 9729   2.334   2.267   0.848
 3241TIP3    H2 9730   2.362   2.206   0.713
 3242TIP3   OH2 9731   6.083   0.614   1.346
 3242TIP3    H1 9732   6.129   0.535   1.318
 3242TIP3    H2 9733   6.015   0.583   1.405
 3243TIP3   OH2 9734   1.095   5.337   3.197
 3243TIP3    H1 9735   1.138   5.326   3.282
 3243TIP3    H2 9736   1.021   5.276   3.199
 3244TIP3   OH2 9737   2.251   4.588   2.187
 3244TIP3    H1 9738   2.243   4.550   2.275
 3244TIP3    H2 9739   2.164   4.576   2.148
 3245TIP3   OH2 9740   2.761   3.367   3.949
 3245TIP3    H1 9741   2.734   3.297   4.009
 3245TIP3    H2 9742   2.723   3.342   3.865
 3246TIP3   OH2 9743   3.404   4.516   3.989
 3246TIP3    H1 9744   3.337   4.449   3.981
 3246TIP3    H2 9745   3.400   4.543   4.081
 3247TIP3   OH2 9746   3.915   0.385   4.099
 3247TIP3    H1 9747   3.859   0.318   4.061
 3247TIP3    H2 9748   3.968   0.417   4.025
 3248TIP3   OH2 9749   4.425   4.333   0.377
 3248TIP3    H1 9750   4.367   4.382   0.436
 3248TIP3    H2 9751   4.424   4.383   0.295
 3249TIP3   OH2 9752   4.593   2.659   3.368
 3249TIP3    H1 9753   4.511   2.703   3.345
 3249TIP3    H2 9754   4.619   2.615   3.288
 3250TIP3   OH2 9755   0.819   4.976   0.319
 3250TIP3    H1 9756   0.799   5.052   0.265
 3250TIP3    H2 9757   0.767   4.905   0.283
 3251TIP3   OH2 9758   5.421   4.791   4.691
 3251TIP3    H1 9759   5.386   4.805   4.779
 3251TIP3    H2 9760   5.470   4.871   4.671
 3252TIP3   OH2 9761   0.796   3.237   4.536
 3252TIP3    H1 9762   0.797   3.197   4.449
 3252TIP3    H2 9763   0.731   3.187   4.585
 3253TIP3   OH2 9764   3.183   4.800   4.759
 3253TIP3    H1 9765   3.120   4.802   4.687
 3253TIP3    H2 9766   3.181   4.709   4.789
 3254TIP3   OH2 9767   5.376   2.827   0.191
 3254TIP3    H1 9768   5.291   2.865   0.213
 3254TIP3    H2 9769   5.369   2.735   0.218
 3255TIP3   OH2 9770   3.643   1.266   1.769
 3255TIP3    H1 9771   3.652   1.347   1.719
 3255TIP3    H2 9772   3.554   1.270   1.804
 3256TIP3   OH2 9773   4.261   1.574   0.521
 3256TIP3    H1 9774   4.353   1.600   0.517
 3256TIP3    H2 9775   4.215   1.655   0.543
 3257TIP3   OH2 9776   3.527   4.366   0.622
 3257TIP3    H1 9777   3.585   4.385   0.548
 3257TIP3    H2 9778   3.468   4.298   0.590
 3258TIP3   OH2 9779   3.343   2.391   3.650
 3258TIP3    H1 9780   3.249   2.394   3.672
 3258TIP3    H2 9781   3.383   2.454   3.710
 3259TIP3   OH2 9782   3.107   2.090   4.312
 3259TIP3    H1 9783   3.116   2.002   4.350
 3259TIP3    H2 9784   3.013   2.100   4.297
 3260TIP3   OH2 9785   3.820   1.452   1.084
 3260TIP3    H1 9786   3.766   1.375   1.066
 3260TIP3    H2 9787   3.855   1.436   1.172
 3261TIP3   OH2 9788   4.818   2.306   3.977
 3261TIP3    H1 9789   4.831   2.261   4.061
 3261TIP3    H2 9790   4.728   2.285   3.953
 3262TIP3   OH2 9791   3.227   0.907   1.881
 3262TIP3    H1 9792   3.156   0.935   1.822
 3262TIP3    H2 9793   3.305   0.910   1.827
 3263TIP3   OH2 9794   1.567   2.544   3.277
 3263TIP3    H1 9795   1.558   2.515   3.367
 3263TIP3    H2 9796   1.477   2.550   3.244
 3264TIP3   OH2 9797   5.955   3.588   4.960
 3264TIP3    H1 9798   6.045   3.613   4.981
 3264TIP3    H2 9799   5.940   3.508   5.011
 3265TIP3   OH2 9800   4.222   2.449   4.682
 3265TIP3    H1 9801   4.277   2.527   4.689
 3265TIP3    H2 9802   4.181   2.440   4.768
 3266TIP3   OH2 9803   0.289   1.210   1.208
 3266TIP3    H1 9804   0.341   1.288   1.189
 3266TIP3    H2 9805   0.315   1.185   1.297
 3267TIP3   OH2 9806   2.837   1.440   4.024
 3267TIP3    H1 9807   2.773   1.383   3.980
 3267TIP3    H2 9808   2.834   1.413   4.115
 3268TIP3   OH2 9809   5.867   5.389   5.077
 3268TIP3    H1 9810   5.903   5.327   5.141
 3268TIP3    H2 9811   5.903   5.361   4.993
 3269TIP3   OH2 9812   4.166   5.757   1.974
 3269TIP3    H1 9813   4.218   5.802   1.908
 3269TIP3    H2 9814   4.087   5.730   1.926
 3270TIP3   OH2 9815   6.278   3.169   0.469
 3270TIP3    H1 9816   6.361   3.164   0.421
 3270TIP3    H2 9817   6.212   3.140   0.405
 3271TIP3   OH2 9818   4.827   2.508   4.979
 3271TIP3    H1 9819   4.904   2.458   5.007
 3271TIP3    H2 9820   4.823   2.493   4.884
 3272TIP3   OH2 9821   5.532   2.357   0.467
 3272TIP3    H1 9822   5.563   2.302   0.395
 3272TIP3    H2 9823   5.438   2.336   0.473
 3273TIP3   OH2 9824   3.867   3.622   0.139
 3273TIP3    H1 9825   3.781   3.615   0.098
 3273TIP3    H2 9826   3.929   3.627   0.065
 3274TIP3   OH2 9827   0.324   3.770   3.133
 3274TIP3    H1 9828   0.413   3.804   3.125
 3274TIP3    H2 9829   0.275   3.811   3.062
 3275TIP3   OH2 9830   3.385   0.483   1.395
 3275TIP3    H1 9831   3.431   0.505   1.477
 3275TIP3    H2 9832   3.375   0.567   1.350
 3276TIP3   OH2 9833   1.826   4.089   1.927
 3276TIP3    H1 9834   1.912   4.109   1.891
 3276TIP3    H2 9835   1.831   3.997   1.952
 3277TIP3   OH2 9836   4.411   1.810   0.135
 3277TIP3    H1 9837   4.405   1.796   0.040
 3277TIP3    H2 9838   4.485   1.870   0.145
 3278TIP3   OH2 9839   2.806   3.639   0.251
 3278TIP3    H1 9840   2.812   3.681   0.337
 3278TIP3    H2 9841   2.749   3.698   0.200
 3279TIP3   OH2 9842   5.209   0.856   1.508
 3279TIP3    H1 9843   5.144   0.902   1.455
 3279TIP3    H2 9844   5.158   0.804   1.570
 3280TIP3   OH2 9845   1.242   3.582   4.393
 3280TIP3    H1 9846   1.221   3.501   4.439
 3280TIP3    H2 9847   1.335   3.596   4.409
 3281TIP3   OH2 9848   6.059   1.124   3.253
 3281TIP3    H1 9849   6.086   1.194   3.311
 3281TIP3    H2 9850   6.014   1.061   3.310
 3282TIP3   OH2 9851   1.623   2.174   3.812
 3282TIP3    H1 9852   1.578   2.163   3.729
 3282TIP3    H2 9853   1.649   2.085   3.837
 3283TIP3   OH2 9854   6.235   2.110   1.110
 3283TIP3    H1 9855   6.284   2.162   1.047
 3283TIP3    H2 9856   6.235   2.021   1.073
 3284TIP3   OH2 9857   5.908   2.564   4.629
 3284TIP3    H1 9858   5.826   2.531   4.594
 3284TIP3    H2 9859   5.976   2.512   4.586
 3285TIP3   OH2 9860   4.736   2.263   1.897
 3285TIP3    H1 9861   4.762   2.197   1.962
 3285TIP3    H2 9862   4.678   2.216   1.838
 3286TIP3   OH2 9863   0.411   5.653   0.993
 3286TIP3    H1 9864   0.337   5.623   1.045
 3286TIP3    H2 9865   0.373   5.713   0.929
 3287TIP3   OH2 9866   0.754   4.909   4.060
 3287TIP3    H1 9867   0.823   4.842   4.058
 3287TIP3    H2 9868   0.684   4.874   4.005
 3288TIP3   OH2 9869   2.062   2.806   4.796
 3288TIP3    H1 9870   1.969   2.786   4.785
 3288TIP3    H2 9871   2.090   2.755   4.872
 3289TIP3   OH2 9872   1.183   5.102   4.950
 3289TIP3    H1 9873   1.225   5.029   4.994
 3289TIP3    H2 9874   1.181   5.172   5.016
 3290TIP3   OH2 9875   2.595   5.571   3.940
 3290TIP3    H1 9876   2.567   5.480   3.934
 3290TIP3    H2 9877   2.591   5.603   3.850
 3291TIP3   OH2 9878   2.659   0.076   2.288
 3291TIP3    H1 9879   2.724   0.099   2.355
 3291TIP3    H2 9880   2.582   0.049   2.338
 3292TIP3   OH2 9881   2.384   1.921   0.040
 3292TIP3    H1 9882   2.382   1.829   0.066
 3292TIP3    H2 9883   2.455   1.959   0.091
 3293TIP3   OH2 9884   2.993   0.786   2.678
 3293TIP3    H1 9885   2.919   0.776   2.618
 3293TIP3    H2 9886   3.030   0.698   2.684
 3294TIP3   OH2 9887   0.208   3.130   2.730
 3294TIP3    H1 9888   0.161   3.046   2.738
 3294TIP3    H2 9889   0.144   3.196   2.758
 3295TIP3   OH2 9890   6.332   0.623   0.793
 3295TIP3    H1 9891   6.247   0.666   0.780
 3295TIP3    H2 9892   6.364   0.658   0.876
 3296TIP3   OH2 9893   5.539   2.711   1.343
 3296TIP3    H1 9894   5.555   2.799   1.375
 3296TIP3    H2 9895   5.574   2.711   1.254
 3297TIP3   OH2 9896   0.238   5.129   3.691
 3297TIP3    H1 9897   0.277   5.065   3.632
 3297TIP3    H2 9898   0.297   5.203   3.690
 3298TIP3   OH2 9899   4.103   2.841   1.257
 3298TIP3    H1 9900   4.075   2.831   1.348
 3298TIP3    H2 9901   4.068   2.764   1.213
 3299TIP3   OH2 9902   0.873   5.214   0.156
 3299TIP3    H1 9903   0.901   5.299   0.188
 3299TIP3    H2 9904   0.795   5.232   0.103
 3300TIP3   OH2 9905   1.414   2.604   1.099
 3300TIP3    H1 9906   1.369   2.683   1.129
 3300TIP3    H2 9907   1.374   2.586   1.013
 3301TIP3   OH2 9908   3.204   1.531   3.574
 3301TIP3    H1 9909   3.262   1.607   3.581
 3301TIP3    H2 9910   3.152   1.534   3.654
 3302TIP3   OH2 9911   6.314   3.965   1.839
 3302TIP3    H1 9912   6.220   3.954   1.821
 3302TIP3    H2 9913   6.319   4.043   1.894
 3303TIP3   OH2 9914   2.963   2.595   1.566
 3303TIP3    H1 9915   3.034   2.546   1.607
 3303TIP3    H2 9916   2.937   2.541   1.491
 3304TIP3   OH2 9917   0.475   3.510   3.064
 3304TIP3    H1 9918   0.392   3.537   3.103
 3304TIP3    H2 9919   0.451   3.444   2.999
 3305TIP3   OH2 9920   4.228   3.448   0.072
 3305TIP3    H1 9921   4.246   3.457   0.166
 3305TIP3    H2 9922   4.203   3.356   0.061
 3306TIP3   OH2 9923   2.203   3.036   4.798
 3306TIP3    H1 9924   2.132   2.971   4.801
 3306TIP3    H2 9925   2.282   2.984   4.785
 3307TIP3   OH2 9926   5.291   4.917   1.785
 3307TIP3    H1 9927   5.329   4.841   1.829
 3307TIP3    H2 9928   5.300   4.989   1.847
 3308TIP3   OH2 9929   4.223   3.222   0.577
 3308TIP3    H1 9930   4.246   3.144   0.528
 3308TIP3    H2 9931   4.128   3.219   0.586
 3309TIP3   OH2 9932   4.243   0.439   4.630
 3309TIP3    H1 9933   4.260   0.427   4.724
 3309TIP3    H2 9934   4.156   0.402   4.616
 3310TIP3   OH2 9935   1.865   1.076   1.522
 3310TIP3    H1 9936   1.776   1.054   1.495
 3310TIP3    H2 9937   1.894   1.141   1.459
 3311TIP3   OH2 9938   5.875   2.012   4.061
 3311TIP3    H1 9939   5.834   2.066   4.129
 3311TIP3    H2 9940   5.884   1.926   4.101
 3312TIP3   OH2 9941   3.401   1.940   5.137
 3312TIP3    H1 9942   3.462   1.987   5.081
 3312TIP3    H2 9943   3.437   1.851   5.144
 3313TIP3   OH2 9944   5.248   2.955   0.546
 3313TIP3    H1 9945   5.193   2.966   0.624
 3313TIP3    H2 9946   5.250   2.860   0.532
 3314TIP3   OH2 9947   4.826   5.073   3.193
 3314TIP3    H1 9948   4.819   5.018   3.115
 3314TIP3    H2 9949   4.864   5.015   3.259
 3315TIP3   OH2 9950   2.814   2.024   0.996
 3315TIP3    H1 9951   2.890   2.082   0.986
 3315TIP3    H2 9952   2.739   2.079   0.974
 3316TIP3   OH2 9953   3.554   1.074   2.963
 3316TIP3    H1 9954   3.645   1.083   2.992
 3316TIP3    H2 9955   3.545   0.981   2.942
 3317TIP3   OH2 9956   3.728   5.238   4.809
 3317TIP3    H1 9957   3.735   5.208   4.718
 3317TIP3    H2 9958   3.654   5.189   4.845
 3318TIP3   OH2 9959   0.827   5.024   5.082
 3318TIP3    H1 9960   0.905   4.969   5.079
 3318TIP3    H2 9961   0.857   5.107   5.120
 3319TIP3   OH2 9962   3.020   2.928   4.917
 3319TIP3    H1 9963   2.961   2.892   4.850
 3319TIP3    H2 9964   3.093   2.865   4.921
 3320TIP3   OH2 9965   4.287   2.105   3.331
 3320TIP3    H1 9966   4.354   2.105   3.263
 3320TIP3    H2 9967   4.311   2.178   3.388
 3321TIP3   OH2 9968   4.723   3.869   4.273
 3321TIP3    H1 9969   4.760   3.946   4.229
 3321TIP3    H2 9970   4.642   3.850   4.225
 3322TIP3   OH2 9971   2.404   1.055   1.278
 3322TIP3    H1 9972   2.327   1.033   1.225
 3322TIP3    H2 9973   2.445   1.127   1.231
 3323TIP3   OH2 9974   2.164   5.405   1.543
 3323TIP3    H1 9975   2.174   5.324   1.492
 3323TIP3    H2 9976   2.198   5.474   1.485
 3324TIP3   OH2 9977   0.647   0.951   3.406
 3324TIP3    H1 9978   0.667   0.885   3.472
 3324TIP3    H2 9979   0.707   1.024   3.426
 3325TIP3   OH2 9980   2.121   5.199   4.507
 3325TIP3    H1 9981   2.213   5.202   4.482
 3325TIP3    H2 9982   2.107   5.110   4.540
 3326TIP3   OH2 9983   4.284   4.156   1.778
 3326TIP3    H1 9984   4.211   4.189   1.727
 3326TIP3    H2 9985   4.331   4.234   1.807
 3327TIP3   OH2 9986   4.261   1.359   3.098
 3327TIP3    H1 9987   4.173   1.332   3.124
 3327TIP3    H2 9988   4.304   1.385   3.179
 3328TIP3   OH2 9989   4.443   3.664   4.383
 3328TIP3    H1 9990   4.397   3.675   4.466
 3328TIP3    H2 9991   4.476   3.574   4.386
 3329TIP3   OH2 9992   1.992   4.536   2.171
 3329TIP3    H1 9993   1.927   4.551   2.103
 3329TIP3    H2 9994   1.944   4.546   2.253
 3330TIP3   OH2 9995   6.027   4.950   4.777
 3330TIP3    H1 9996   5.940   4.977   4.749
 3330TIP3    H2 9997   6.016   4.921   4.868
 3331TIP3   OH2 9998   2.459   0.434   0.490
 3331TIP3    H1 9999   2.551   0.457   0.487
 3331TIP3    H210000   2.456   0.341   0.466
 3332TIP3   OH210001   1.253   0.807   0.746
 3332TIP3    H110002   1.306   0.737   0.707
 3332TIP3    H210003   1.228   0.773   0.832
 3333TIP3   OH210004   5.152   4.907   0.292
 3333TIP3    H110005   5.067   4.946   0.313
 3333TIP3    H210006   5.214   4.953   0.348
 3334TIP3   OH210007   4.800   5.389   2.036
 3334TIP3    H110008   4.850   5.313   2.009
 3334TIP3    H210009   4.809   5.451   1.963
 3335TIP3   OH210010   5.303   1.716   0.436
 3335TIP3    H110011   5.274   1.643   0.492
 3335TIP3    H210012   5.361   1.767   0.492
 3336TIP3   OH210013   2.610   3.216   2.890
 3336TIP3    H110014   2.684   3.243   2.945
 3336TIP3    H210015   2.651   3.181   2.811
 3337TIP3   OH210016   2.411   1.661   0.106
 3337TIP3    H110017   2.394   1.588   0.166
 3337TIP3    H210018   2.486   1.633   0.055
 3338TIP3   OH210019   2.456   2.871   1.737
 3338TIP3    H110020   2.545   2.844   1.757
 3338TIP3    H210021   2.400   2.809   1.784
 3339TIP3   OH210022   2.146   0.331   2.170
 3339TIP3    H110023   2.229   0.308   2.210
 3339TIP3    H210024   2.156   0.308   2.077
 3340TIP3   OH210025   4.412   4.691   4.977
 3340TIP3    H110026   4.393   4.688   4.884
 3340TIP3    H210027   4.494   4.642   4.987
 3341TIP3   OH210028   1.348   2.050   2.624
 3341TIP3    H110029   1.368   2.101   2.702
 3341TIP3    H210030   1.268   2.002   2.645
 3342TIP3   OH210031   5.902   0.836   1.341
 3342TIP3    H110032   5.931   0.917   1.299
 3342TIP3    H210033   5.964   0.770   1.310
 3343TIP3   OH210034   4.395   4.688   0.243
 3343TIP3    H110035   4.445   4.706   0.323
 3343TIP3    H210036   4.306   4.717   0.264
 3344TIP3   OH210037   5.557   4.450   1.269
 3344TIP3    H110038   5.471   4.481   1.241
 3344TIP3    H210039   5.593   4.522   1.322
 3345TIP3   OH210040   4.198   2.678   0.812
 3345TIP3    H110041   4.276   2.734   0.810
 3345TIP3    H210042   4.131   2.727   0.765
 3346TIP3   OH210043   5.337   3.779   2.651
 3346TIP3    H110044   5.347   3.688   2.678
 3346TIP3    H210045   5.312   3.825   2.732
 3347TIP3   OH210046   0.832   3.286   5.115
 3347TIP3    H110047   0.748   3.297   5.071
 3347TIP3    H210048   0.810   3.253   5.202
 3348TIP3   OH210049   1.735   0.376   2.731
 3348TIP3    H110050   1.804   0.330   2.683
 3348TIP3    H210051   1.666   0.390   2.666
 3349TIP3   OH210052   4.951   5.387   4.539
 3349TIP3    H110053   4.877   5.444   4.519
 3349TIP3    H210054   5.017   5.446   4.577
 3350TIP3   OH210055   4.427   5.274   3.826
 3350TIP3    H110056   4.493   5.339   3.801
 3350TIP3    H210057   4.478   5.199   3.856
 3351TIP3   OH210058   4.410   3.209   3.262
 3351TIP3    H110059   4.364   3.159   3.195
 3351TIP3    H210060   4.435   3.144   3.328
 3352TIP3   OH210061   4.946   1.270   5.010
 3352TIP3    H110062   4.931   1.360   4.979
 3352TIP3    H210063   5.035   1.271   5.044
 3353TIP3   OH210064   1.849   3.157   3.505
 3353TIP3    H110065   1.910   3.211   3.454
 3353TIP3    H210066   1.858   3.069   3.467
 3354TIP3   OH210067   4.873   5.477   0.023
 3354TIP3    H110068   4.949   5.435  -0.019
 3354TIP3    H210069   4.797   5.432  -0.013
 3355TIP3   OH210070   1.528   0.561   1.928
 3355TIP3    H110071   1.571   0.581   1.845
 3355TIP3    H210072   1.468   0.489   1.908
 3356TIP3   OH210073   2.673   4.098   0.511
 3356TIP3    H110074   2.625   4.073   0.590
 3356TIP3    H210075   2.620   4.168   0.472
 3357TIP3   OH210076   2.183   2.320   4.451
 3357TIP3    H110077   2.267   2.353   4.421
 3357TIP3    H210078   2.121   2.343   4.382
 3358TIP3   OH210079   3.735   0.875   3.297
 3358TIP3    H110080   3.810   0.876   3.358
 3358TIP3    H210081   3.688   0.957   3.316
 3359TIP3   OH210082   2.392   3.987   1.960
 3359TIP3    H110083   2.483   3.977   1.988
 3359TIP3    H210084   2.361   3.898   1.948
 3360TIP3   OH210085   6.047   4.892   5.075
 3360TIP3    H110086   6.023   4.881   5.168
 3360TIP3    H210087   6.098   4.815   5.054
 3361TIP3   OH210088   3.081   5.489   1.411
 3361TIP3    H110089   3.007   5.439   1.377
 3361TIP3    H210090   3.054   5.515   1.499
 3362TIP3   OH210091   0.226   5.484   4.291
 3362TIP3    H110092   0.181   5.476   4.207
 3362TIP3    H210093   0.317   5.503   4.267
 3363TIP3   OH210094   5.695   5.776   1.599
 3363TIP3    H110095   5.611   5.731   1.610
 3363TIP3    H210096   5.697   5.801   1.506
 3364TIP3   OH210097   2.593   1.211   4.983
 3364TIP3    H110098   2.544   1.187   5.061
 3364TIP3    H210099   2.549   1.165   4.912
 3365TIP3   OH210100   5.680   1.727   2.055
 3365TIP3    H110101   5.642   1.808   2.021
 3365TIP3    H210102   5.775   1.741   2.051
 3366TIP3   OH210103   0.510   5.018   3.275
 3366TIP3    H110104   0.422   5.047   3.301
 3366TIP3    H210105   0.507   5.016   3.179
 3367TIP3   OH210106   5.365   3.573   2.367
 3367TIP3    H110107   5.302   3.516   2.323
 3367TIP3    H210108   5.335   3.662   2.349
 3368TIP3   OH210109   2.461   1.553   2.224
 3368TIP3    H110110   2.409   1.570   2.302
 3368TIP3    H210111   2.440   1.625   2.165
 3369TIP3   OH210112   5.204   3.756   3.373
 3369TIP3    H110113   5.156   3.706   3.439
 3369TIP3    H210114   5.174   3.847   3.385
 3370TIP3   OH210115   2.678   5.549   2.842
 3370TIP3    H110116   2.611   5.487   2.869
 3370TIP3    H210117   2.755   5.495   2.824
 3371TIP3   OH210118   1.746   3.691   2.815
 3371TIP3    H110119   1.803   3.720   2.743
 3371TIP3    H210120   1.707   3.610   2.783
 3372TIP3   OH210121   3.084   5.955   0.081
 3372TIP3    H110122   3.083   5.859   0.072
 3372TIP3    H210123   3.138   5.984   0.008
 3373TIP3   OH210124   5.555   2.229   2.204
 3373TIP3    H110125   5.547   2.168   2.277
 3373TIP3    H210126   5.475   2.216   2.152
 3374TIP3   OH210127   3.441   2.986   1.893
 3374TIP3    H110128   3.438   2.891   1.902
 3374TIP3    H210129   3.392   3.005   1.813
 3375TIP3   OH210130   0.570   4.201   4.227
 3375TIP3    H110131   0.611   4.130   4.276
 3375TIP3    H210132   0.612   4.200   4.141
 3376TIP3   OH210133   0.782   0.176   1.643
 3376TIP3    H110134   0.870   0.189   1.677
 3376TIP3    H210135   0.761   0.085   1.663
 3377TIP3   OH210136   3.847   3.184   3.877
 3377TIP3    H110137   3.923   3.195   3.819
 3377TIP3    H210138   3.791   3.122   3.830
 3378TIP3   OH210139   6.318   3.440   0.398
 3378TIP3    H110140   6.278   3.365   0.442
 3378TIP3    H210141   6.374   3.480   0.465
 3379TIP3   OH210142   2.451   3.852   0.502
 3379TIP3    H110143   2.397   3.906   0.560
 3379TIP3    H210144   2.467   3.772   0.552
 3380TIP3   OH210145   2.805   1.681   3.888
 3380TIP3    H110146   2.796   1.605   3.945
 3380TIP3    H210147   2.745   1.663   3.815
 3381TIP3   OH210148   6.051   2.852   2.789
 3381TIP3    H110149   5.973   2.826   2.838
 3381TIP3    H210150   6.018   2.904   2.716
 3382TIP3   OH210151   1.352   5.490   0.863
 3382TIP3    H110152   1.380   5.405   0.828
 3382TIP3    H210153   1.268   5.472   0.905
 3383TIP3   OH210154   1.214   1.877   0.683
 3383TIP3    H110155   1.275   1.804   0.674
 3383TIP3    H210156   1.205   1.888   0.778
 3384TIP3   OH210157   0.923   1.196   3.511
 3384TIP3    H110158   0.875   1.268   3.551
 3384TIP3    H210159   1.000   1.183   3.566
 3385TIP3   OH210160   5.736   0.602   4.730
 3385TIP3    H110161   5.793   0.657   4.784
 3385TIP3    H210162   5.761   0.513   4.752
 3386TIP3   OH210163   2.126   0.397   0.283
 3386TIP3    H110164   2.048   0.420   0.233
 3386TIP3    H210165   2.126   0.301   0.285
 3387TIP3   OH210166   1.980   0.760   0.370
 3387TIP3    H110167   2.047   0.797   0.314
 3387TIP3    H210168   1.911   0.826   0.372
 3388TIP3   OH210169   4.976   3.519   1.674
 3388TIP3    H110170   5.009   3.476   1.595
 3388TIP3    H210171   4.940   3.448   1.726
 3389TIP3   OH210172   3.888   1.580   4.316
 3389TIP3    H110173   3.817   1.519   4.296
 3389TIP3    H210174   3.894   1.636   4.239
 3390TIP3   OH210175   1.207   1.980   0.946
 3390TIP3    H110176   1.178   2.066   0.976
 3390TIP3    H210177   1.159   1.918   1.001
 3391TIP3   OH210178   5.696   0.622   3.268
 3391TIP3    H110179   5.724   0.687   3.333
 3391TIP3    H210180   5.628   0.572   3.312
 3392TIP3   OH210181   1.656   5.217   4.833
 3392TIP3    H110182   1.661   5.133   4.878
 3392TIP3    H210183   1.563   5.241   4.836
 3393TIP3   OH210184   1.119   1.340   1.191
 3393TIP3    H110185   1.094   1.346   1.099
 3393TIP3    H210186   1.044   1.299   1.234
 3394TIP3   OH210187   4.884   2.631   3.231
 3394TIP3    H110188   4.959   2.573   3.235
 3394TIP3    H210189   4.876   2.666   3.320
 3395TIP3   OH210190   2.184   5.542   0.044
 3395TIP3    H110191   2.117   5.563   0.109
 3395TIP3    H210192   2.207   5.627   0.005
 3396TIP3   OH210193   0.154   5.229   2.143
 3396TIP3    H110194   0.099   5.169   2.092
 3396TIP3    H210195   0.123   5.220   2.233
 3397TIP3   OH210196   1.548   4.102   0.588
 3397TIP3    H110197   1.527   4.034   0.524
 3397TIP3    H210198   1.521   4.184   0.546
 3398TIP3   OH210199   1.783   2.350   3.271
 3398TIP3    H110200   1.706   2.395   3.235
 3398TIP3    H210201   1.768   2.349   3.366
 3399TIP3   OH210202   0.616   1.766   2.446
 3399TIP3    H110203   0.650   1.819   2.518
 3399TIP3    H210204   0.606   1.828   2.373
 3400TIP3   OH210205   3.294   1.118   2.081
 3400TIP3    H110206   3.299   1.102   2.176
 3400TIP3    H210207   3.305   1.032   2.042
 3401TIP3   OH210208   1.796   3.627   4.193
 3401TIP3    H110209   1.727   3.566   4.167
 3401TIP3    H210210   1.854   3.632   4.118
 3402TIP3   OH210211   2.443   0.506   3.675
 3402TIP3    H110212   2.494   0.585   3.661
 3402TIP3    H210213   2.358   0.524   3.633
 3403TIP3   OH210214   4.522   4.180   3.555
 3403TIP3    H110215   4.545   4.153   3.467
 3403TIP3    H210216   4.605   4.180   3.603
 3404TIP3   OH210217   3.797   5.942   4.606
 3404TIP3    H110218   3.714   5.990   4.608
 3404TIP3    H210219   3.829   5.953   4.517
 3405TIP3   OH210220   2.501   3.301   2.387
 3405TIP3    H110221   2.573   3.239   2.370
 3405TIP3    H210222   2.545   3.386   2.395
 3406TIP3   OH210223   2.155   2.544   4.969
 3406TIP3    H110224   2.169   2.495   4.887
 3406TIP3    H210225   2.084   2.498   5.012
 3407TIP3   OH210226   5.154   0.341   2.588
 3407TIP3    H110227   5.101   0.399   2.534
 3407TIP3    H210228   5.148   0.256   2.546
 3408TIP3   OH210229   0.660   3.909   0.315
 3408TIP3    H110230   0.686   3.941   0.229
 3408TIP3    H210231   0.564   3.902   0.310
 3409TIP3   OH210232   3.964   0.604   2.625
 3409TIP3    H110233   4.040   0.556   2.658
 3409TIP3    H210234   3.996   0.650   2.548
 3410TIP3   OH210235   3.398   4.164   0.845
 3410TIP3    H110236   3.327   4.116   0.889
 3410TIP3    H210237   3.355   4.208   0.772
 3411TIP3   OH210238   5.753   3.800   0.662
 3411TIP3    H110239   5.809   3.848   0.601
 3411TIP3    H210240   5.679   3.771   0.609
 3412TIP3   OH210241   3.949   4.620   3.091
 3412TIP3    H110242   4.038   4.636   3.122
 3412TIP3    H210243   3.907   4.707   3.093
 3413TIP3   OH210244   0.271   3.552   0.308
 3413TIP3    H110245   0.256   3.624   0.370
 3413TIP3    H210246   0.190   3.547   0.257
 3414TIP3   OH210247   3.509   2.646   0.981
 3414TIP3    H110248   3.592   2.598   0.974
 3414TIP3    H210249   3.448   2.596   0.927
 3415TIP3   OH210250   2.676   4.399   0.451
 3415TIP3    H110251   2.716   4.486   0.449
 3415TIP3    H210252   2.728   4.351   0.517
 3416TIP3   OH210253   3.285   4.844   1.873
 3416TIP3    H110254   3.281   4.899   1.795
 3416TIP3    H210255   3.194   4.833   1.899
 3417TIP3   OH210256   3.002   1.500   1.735
 3417TIP3    H110257   2.987   1.479   1.643
 3417TIP3    H210258   3.047   1.423   1.770
 3418TIP3   OH210259  -0.023   3.112   2.035
 3418TIP3    H110260   0.064   3.152   2.037
 3418TIP3    H210261  -0.016   3.041   1.972
 3419TIP3   OH210262   1.200   3.432   2.434
 3419TIP3    H110263   1.176   3.402   2.346
 3419TIP3    H210264   1.296   3.438   2.431
 3420TIP3   OH210265   6.242   2.190   3.580
 3420TIP3    H110266   6.238   2.138   3.500
 3420TIP3    H210267   6.152   2.219   3.595
 3421TIP3   OH210268   5.937   1.182   4.067
 3421TIP3    H110269   5.875   1.127   4.114
 3421TIP3    H210270   5.992   1.220   4.136
 3422TIP3   OH210271   4.871   1.654   4.474
 3422TIP3    H110272   4.850   1.618   4.560
 3422TIP3    H210273   4.812   1.609   4.413
 3423TIP3   OH210274   4.683   4.912   0.152
 3423TIP3    H110275   4.729   4.838   0.191
 3423TIP3    H210276   4.634   4.874   0.079
 3424TIP3   OH210277   0.358   4.561   3.430
 3424TIP3    H110278   0.431   4.591   3.484
 3424TIP3    H210279   0.354   4.623   3.357
 3425TIP3   OH210280   3.576   0.264   4.110
 3425TIP3    H110281   3.659   0.223   4.136
 3425TIP3    H210282   3.573   0.256   4.015
 3426TIP3   OH210283   4.152   1.294   2.579
 3426TIP3    H110284   4.082   1.356   2.599
 3426TIP3    H210285   4.232   1.347   2.578
 3427TIP3   OH210286   5.237   4.481   1.591
 3427TIP3    H110287   5.154   4.514   1.557
 3427TIP3    H210288   5.266   4.417   1.525
 3428TIP3   OH210289   4.001   3.568   1.353
 3428TIP3    H110290   4.075   3.509   1.367
 3428TIP3    H210291   4.000   3.624   1.430
 3429TIP3   OH210292   3.518   1.426   3.925
 3429TIP3    H110293   3.455   1.371   3.878
 3429TIP3    H210294   3.591   1.368   3.944
 3430TIP3   OH210295   4.592   0.427   2.374
 3430TIP3    H110296   4.628   0.476   2.448
 3430TIP3    H210297   4.591   0.336   2.405
 3431TIP3   OH210298   6.172   0.864   2.997
 3431TIP3    H110299   6.189   0.948   3.040
 3431TIP3    H210300   6.076   0.856   2.997
 3432TIP3   OH210301   0.389   5.062   2.262
 3432TIP3    H110302   0.317   5.012   2.226
 3432TIP3    H210303   0.361   5.153   2.254
 3433TIP3   OH210304   1.020   1.158   3.241
 3433TIP3    H110305   0.980   1.170   3.327
 3433TIP3    H210306   0.968   1.089   3.200
 3434TIP3   OH210307   1.100   4.052   2.546
 3434TIP3    H110308   1.098   4.005   2.630
 3434TIP3    H210309   1.193   4.061   2.526
 3435TIP3   OH210310   2.151   5.171   1.952
 3435TIP3    H110311   2.110   5.159   1.866
 3435TIP3    H210312   2.146   5.265   1.969
 3436TIP3   OH210313   4.055   5.612   1.257
 3436TIP3    H110314   4.070   5.540   1.197
 3436TIP3    H210315   4.068   5.691   1.204
 3437TIP3   OH210316   0.879   5.276   5.135
 3437TIP3    H110317   0.785   5.289   5.126
 3437TIP3    H210318   0.919   5.355   5.097
 3438TIP3   OH210319   1.919   0.977   4.091
 3438TIP3    H110320   1.995   1.034   4.080
 3438TIP3    H210321   1.899   0.981   4.184
 3439TIP3   OH210322   0.608   2.743   0.195
 3439TIP3    H110323   0.662   2.772   0.121
 3439TIP3    H210324   0.655   2.774   0.272
 3440TIP3   OH210325   0.964   5.094   3.063
 3440TIP3    H110326   0.996   5.073   3.151
 3440TIP3    H210327   0.972   5.013   3.014
 3441TIP3   OH210328   0.108   4.778   5.055
 3441TIP3    H110329   0.161   4.855   5.036
 3441TIP3    H210330   0.056   4.764   4.976
 3442TIP3   OH210331   2.878   2.899   2.568
 3442TIP3    H110332   2.966   2.862   2.578
 3442TIP3    H210333   2.850   2.869   2.481
 3443TIP3   OH210334   0.127   4.613   0.335
 3443TIP3    H110335   0.168   4.660   0.408
 3443TIP3    H210336   0.143   4.668   0.258
 3444TIP3   OH210337   0.531   3.987   3.949
 3444TIP3    H110338   0.468   3.937   4.000
 3444TIP3    H210339   0.478   4.050   3.901
 3445TIP3   OH210340   4.873   5.634   0.292
 3445TIP3    H110341   4.966   5.626   0.313
 3445TIP3    H210342   4.866   5.602   0.202
 3446TIP3   OH210343   0.661   1.228   4.874
 3446TIP3    H110344   0.672   1.205   4.966
 3446TIP3    H210345   0.751   1.232   4.841
 3447TIP3   OH210346   4.794   1.838   2.081
 3447TIP3    H110347   4.831   1.760   2.122
 3447TIP3    H210348   4.869   1.897   2.070
 3448TIP3   OH210349   6.344   3.944   4.381
 3448TIP3    H110350   6.252   3.945   4.410
 3448TIP3    H210351   6.386   4.014   4.431
 3449TIP3   OH210352   2.563   1.231   1.570
 3449TIP3    H110353   2.494   1.186   1.521
 3449TIP3    H210354   2.520   1.308   1.607
 3450TIP3   OH210355   0.662   4.938   4.894
 3450TIP3    H110356   0.704   4.965   4.975
 3450TIP3    H210357   0.683   5.007   4.831
 3451TIP3   OH210358   0.466   1.374   4.388
 3451TIP3    H110359   0.426   1.389   4.303
 3451TIP3    H210360   0.483   1.462   4.422
 3452TIP3   OH210361   5.167   1.541   2.940
 3452TIP3    H110362   5.254   1.581   2.946
 3452TIP3    H210363   5.144   1.548   2.847
 3453TIP3   OH210364   0.562   3.273   0.663
 3453TIP3    H110365   0.546   3.180   0.676
 3453TIP3    H210366   0.608   3.300   0.743
 3454TIP3   OH210367   4.841   0.303   2.577
 3454TIP3    H110368   4.859   0.397   2.573
 3454TIP3    H210369   4.870   0.269   2.492
 3455TIP3   OH210370   5.173   4.737   2.011
 3455TIP3    H110371   5.244   4.673   2.003
 3455TIP3    H210372   5.121   4.725   1.932
 3456TIP3   OH210373   5.678   3.640   3.758
 3456TIP3    H110374   5.742   3.670   3.694
 3456TIP3    H210375   5.604   3.699   3.747
 3457TIP3   OH210376   1.656   2.559   3.695
 3457TIP3    H110377   1.738   2.598   3.666
 3457TIP3    H210378   1.592   2.586   3.628
 3458TIP3   OH210379   5.955   2.142   0.778
 3458TIP3    H110380   5.982   2.115   0.866
 3458TIP3    H210381   5.877   2.196   0.793
 3459TIP3   OH210382   5.784   1.341   2.572
 3459TIP3    H110383   5.857   1.288   2.539
 3459TIP3    H210384   5.713   1.324   2.510
 3460TIP3   OH210385   0.076   2.855   2.325
 3460TIP3    H110386   0.125   2.932   2.295
 3460TIP3    H210387   0.112   2.835   2.411
 3461TIP3   OH210388   4.383   3.380   4.376
 3461TIP3    H110389   4.351   3.294   4.349
 3461TIP3    H210390   4.313   3.415   4.432
 3462TIP3   OH210391   5.667   4.003   0.432
 3462TIP3    H110392   5.718   4.084   0.434
 3462TIP3    H210393   5.724   3.941   0.386
 3463TIP3   OH210394   3.877   0.558   3.456
 3463TIP3    H110395   3.885   0.467   3.427
 3463TIP3    H210396   3.891   0.554   3.551
 3464TIP3   OH210397   0.821   0.898   2.826
 3464TIP3    H110398   0.860   0.934   2.746
 3464TIP3    H210399   0.761   0.966   2.856
 3465TIP3   OH210400   2.384   4.322   0.086
 3465TIP3    H110401   2.318   4.268   0.041
 3465TIP3    H210402   2.343   4.344   0.170
 3466TIP3   OH210403   2.555   3.250   0.963
 3466TIP3    H110404   2.635   3.207   0.935
 3466TIP3    H210405   2.551   3.330   0.911
 3467TIP3   OH210406   1.490   0.502   4.432
 3467TIP3    H110407   1.500   0.596   4.420
 3467TIP3    H210408   1.577   0.466   4.413
 3468TIP3   OH210409   2.686   5.154   3.151
 3468TIP3    H110410   2.780   5.161   3.132
 3468TIP3    H210411   2.645   5.202   3.078
 3469TIP3   OH210412   2.963   4.924   4.583
 3469TIP3    H110413   2.935   4.977   4.509
 3469TIP3    H210414   2.883   4.887   4.619
 3470TIP3   OH210415   4.502   4.766   1.405
 3470TIP3    H110416   4.589   4.727   1.395
 3470TIP3    H210417   4.445   4.714   1.348
 3471TIP3   OH210418   3.561   3.797   5.177
 3471TIP3    H110419   3.528   3.731   5.116
 3471TIP3    H210420   3.647   3.763   5.204
 3472TIP3   OH210421   1.098   3.363   0.536
 3472TIP3    H110422   1.005   3.384   0.532
 3472TIP3    H210423   1.103   3.269   0.516
 3473TIP3   OH210424   5.544   0.630   0.236
 3473TIP3    H110425   5.629   0.673   0.220
 3473TIP3    H210426   5.482   0.703   0.244
 3474TIP3   OH210427   4.837   0.451   0.963
 3474TIP3    H110428   4.836   0.421   0.873
 3474TIP3    H210429   4.851   0.372   1.015
 3475TIP3   OH210430   1.964   0.842   0.723
 3475TIP3    H110431   1.892   0.859   0.661
 3475TIP3    H210432   1.952   0.908   0.791
 3476TIP3   OH210433   2.082   1.631   1.029
 3476TIP3    H110434   2.050   1.709   1.075
 3476TIP3    H210435   2.006   1.574   1.021
 3477TIP3   OH210436   3.144   5.916   1.724
 3477TIP3    H110437   3.211   5.876   1.669
 3477TIP3    H210438   3.167   5.891   1.813
 3478TIP3   OH210439   4.262   2.817   2.581
 3478TIP3    H110440   4.185   2.761   2.573
 3478TIP3    H210441   4.298   2.823   2.493
 3479TIP3   OH210442   6.244   5.044   3.841
 3479TIP3    H110443   6.307   5.011   3.777
 3479TIP3    H210444   6.175   5.086   3.789
 3480TIP3   OH210445   4.002   1.064   0.213
 3480TIP3    H110446   4.031   1.051   0.303
 3480TIP3    H210447   4.075   1.107   0.169
 3481TIP3   OH210448   0.483   3.050   0.226
 3481TIP3    H110449   0.439   3.013   0.302
 3481TIP3    H210450   0.525   3.129   0.259
 3482TIP3   OH210451   4.716   5.891   2.512
 3482TIP3    H110452   4.732   5.970   2.461
 3482TIP3    H210453   4.628   5.863   2.486
 3483TIP3   OH210454   6.079   2.573   1.333
 3483TIP3    H110455   6.166   2.593   1.368
 3483TIP3    H210456   6.061   2.643   1.271
 3484TIP3   OH210457   4.450   3.541   2.862
 3484TIP3    H110458   4.375   3.595   2.884
 3484TIP3    H210459   4.518   3.568   2.925
 3485TIP3   OH210460   0.943   5.569   3.793
 3485TIP3    H110461   0.943   5.652   3.744
 3485TIP3    H210462   1.024   5.526   3.767
 3486TIP3   OH210463   5.635   2.805   4.666
 3486TIP3    H110464   5.666   2.719   4.636
 3486TIP3    H210465   5.589   2.786   4.748
 3487TIP3   OH210466   2.085   3.161   1.303
 3487TIP3    H110467   2.049   3.239   1.344
 3487TIP3    H210468   2.163   3.192   1.257
 3488TIP3   OH210469   3.152   1.169   1.361
 3488TIP3    H110470   3.074   1.197   1.409
 3488TIP3    H210471   3.148   1.216   1.278
 3489TIP3   OH210472   0.148   2.458   4.502
 3489TIP3    H110473   0.072   2.499   4.460
 3489TIP3    H210474   0.128   2.460   4.596
 3490TIP3   OH210475   0.858   2.340   0.298
 3490TIP3    H110476   0.789   2.301   0.352
 3490TIP3    H210477   0.925   2.272   0.291
 3491TIP3   OH210478   5.111   0.151   4.912
 3491TIP3    H110479   5.026   0.106   4.915
 3491TIP3    H210480   5.120   0.180   4.821
 3492TIP3   OH210481   1.873   4.076   0.538
 3492TIP3    H110482   1.900   4.047   0.625
 3492TIP3    H210483   1.941   4.043   0.479
 3493TIP3   OH210484   1.706   2.259   1.990
 3493TIP3    H110485   1.774   2.197   2.014
 3493TIP3    H210486   1.641   2.207   1.943
 3494TIP3   OH210487   4.234   0.780   4.718
 3494TIP3    H110488   4.156   0.734   4.752
 3494TIP3    H210489   4.236   0.757   4.625
 3495TIP3   OH210490   2.777   1.669   3.011
 3495TIP3    H110491   2.779   1.754   2.967
 3495TIP3    H210492   2.730   1.612   2.949
 3496TIP3   OH210493   5.180   1.502   2.038
 3496TIP3    H110494   5.261   1.520   1.991
 3496TIP3    H210495   5.209   1.453   2.116
 3497TIP3   OH210496   2.008   2.621   3.899
 3497TIP3    H110497   2.081   2.582   3.850
 3497TIP3    H210498   1.982   2.697   3.847
 3498TIP3   OH210499   2.769   2.522   2.061
 3498TIP3    H110500   2.772   2.616   2.047
 3498TIP3    H210501   2.721   2.488   1.985
 3499TIP3   OH210502   3.524   4.667   0.424
 3499TIP3    H110503   3.434   4.686   0.398
 3499TIP3    H210504   3.576   4.684   0.345
 3500TIP3   OH210505   5.102   2.679   2.286
 3500TIP3    H110506   5.102   2.655   2.193
 3500TIP3    H210507   5.111   2.775   2.286
 3501TIP3   OH210508   3.699   3.782   2.525
 3501TIP3    H110509   3.768   3.832   2.568
 3501TIP3    H210510   3.739   3.753   2.442
 3502TIP3   OH210511   5.735   4.096   3.156
 3502TIP3    H110512   5.704   4.152   3.086
 3502TIP3    H210513   5.804   4.146   3.200
 3503TIP3   OH210514   6.124   2.159   4.393
 3503TIP3    H110515   6.070   2.081   4.380
 3503TIP3    H210516   6.207   2.126   4.428
 3504TIP3   OH210517   3.372   5.683   4.153
 3504TIP3    H110518   3.380   5.768   4.195
 3504TIP3    H210519   3.380   5.620   4.224
 3505TIP3   OH210520   4.504   2.303   1.353
 3505TIP3    H110521   4.419   2.270   1.383
 3505TIP3    H210522   4.527   2.370   1.417
 3506TIP3   OH210523   3.874   3.994   5.194
 3506TIP3    H110524   3.828   3.919   5.157
 3506TIP3    H210525   3.816   4.068   5.179
 3507TIP3   OH210526   0.546   1.715   0.208
 3507TIP3    H110527   0.484   1.696   0.137
 3507TIP3    H210528   0.612   1.772   0.167
 3508TIP3   OH210529   5.682   0.014   1.339
 3508TIP3    H110530   5.729   0.038   1.259
 3508TIP3    H210531   5.740   0.041   1.410
 3509TIP3   OH210532   3.975   4.209   3.188
 3509TIP3    H110533   4.071   4.211   3.187
 3509TIP3    H210534   3.950   4.177   3.102
 3510TIP3   OH210535   5.855   0.633   0.243
 3510TIP3    H110536   5.867   0.663   0.333
 3510TIP3    H210537   5.872   0.539   0.247
 3511TIP3   OH210538   1.391   1.467   4.017
 3511TIP3    H110539   1.377   1.472   3.922
 3511TIP3    H210540   1.432   1.382   4.031
 3512TIP3   OH210541   3.125   2.676   3.823
 3512TIP3    H110542   3.077   2.677   3.740
 3512TIP3    H210543   3.216   2.664   3.797
 3513TIP3   OH210544   3.918   0.933   1.723
 3513TIP3    H110545   3.828   0.916   1.694
 3513TIP3    H210546   3.926   0.885   1.805
 3514TIP3   OH210547   1.470   1.745   0.800
 3514TIP3    H110548   1.491   1.652   0.801
 3514TIP3    H210549   1.479   1.773   0.891
 3515TIP3   OH210550   1.731   3.195   1.351
 3515TIP3    H110551   1.733   3.285   1.317
 3515TIP3    H210552   1.776   3.201   1.435
 3516TIP3   OH210553   3.203   1.054   3.769
 3516TIP3    H110554   3.243   1.020   3.689
 3516TIP3    H210555   3.150   1.128   3.739
 3517TIP3   OH210556   4.959   4.906   4.383
 3517TIP3    H110557   5.017   4.887   4.456
 3517TIP3    H210558   4.927   4.994   4.400
 3518TIP3   OH210559   0.605   0.667   3.011
 3518TIP3    H110560   0.580   0.756   2.987
 3518TIP3    H210561   0.562   0.651   3.095
 3519TIP3   OH210562   4.833   3.202   1.364
 3519TIP3    H110563   4.747   3.165   1.345
 3519TIP3    H210564   4.894   3.130   1.347
 3520TIP3   OH210565   2.135   0.858   1.310
 3520TIP3    H110566   2.206   0.804   1.275
 3520TIP3    H210567   2.115   0.921   1.240
 3521TIP3   OH210568   1.029   0.324   5.090
 3521TIP3    H110569   1.073   0.346   5.008
 3521TIP3    H210570   0.950   0.379   5.089
 3522TIP3   OH210571   2.581   5.654   1.271
 3522TIP3    H110572   2.668   5.621   1.250
 3522TIP3    H210573   2.538   5.581   1.315
 3523TIP3   OH210574   6.100   3.464   0.068
 3523TIP3    H110575   6.109   3.370   0.054
 3523TIP3    H210576   6.082   3.500  -0.019
 3524TIP3   OH210577   5.421   2.193   3.877
 3524TIP3    H110578   5.395   2.103   3.897
 3524TIP3    H210579   5.338   2.242   3.876
 3525TIP3   OH210580   4.524   2.913   3.838
 3525TIP3    H110581   4.527   2.869   3.753
 3525TIP3    H210582   4.490   2.848   3.898
 3526TIP3   OH210583   1.719   3.953   1.375
 3526TIP3    H110584   1.726   3.954   1.470
 3526TIP3    H210585   1.706   3.860   1.353
 3527TIP3   OH210586   1.069   1.914   1.227
 3527TIP3    H110587   1.092   1.827   1.195
 3527TIP3    H210588   1.035   1.899   1.315
 3528TIP3   OH210589   4.994   0.640   1.553
 3528TIP3    H110590   4.977   0.627   1.460
 3528TIP3    H210591   5.040   0.561   1.580
 3529TIP3   OH210592   4.603   1.034   3.173
 3529TIP3    H110593   4.693   1.006   3.154
 3529TIP3    H210594   4.614   1.121   3.212
 3530TIP3   OH210595   0.926   0.068   0.259
 3530TIP3    H110596   0.961   0.100   0.175
 3530TIP3    H210597   0.842   0.112   0.267
 3531TIP3   OH210598   5.725   0.069   3.412
 3531TIP3    H110599   5.803   0.123   3.399
 3531TIP3    H210600   5.676   0.077   3.330
 3532TIP3   OH210601   2.096   3.417   3.736
 3532TIP3    H110602   2.168   3.415   3.799
 3532TIP3    H210603   2.022   3.379   3.784
 3533TIP3   OH210604   5.145   5.645   3.005
 3533TIP3    H110605   5.186   5.678   2.925
 3533TIP3    H210606   5.061   5.691   3.009
 3534TIP3   OH210607   6.362   3.658   2.611
 3534TIP3    H110608   6.354   3.753   2.620
 3534TIP3    H210609   6.367   3.643   2.516
 3535TIP3   OH210610   2.618   2.934   2.091
 3535TIP3    H110611   2.612   2.999   2.022
 3535TIP3    H210612   2.692   2.878   2.066
 3536TIP3   OH210613   1.741   0.625   4.830
 3536TIP3    H110614   1.790   0.675   4.766
 3536TIP3    H210615   1.793   0.630   4.910
 3537TIP3   OH210616   5.950   3.670   2.736
 3537TIP3    H110617   6.026   3.694   2.789
 3537TIP3    H210618   5.874   3.692   2.791
 3538TIP3   OH210619   5.768   2.082   5.152
 3538TIP3    H110620   5.839   2.126   5.199
 3538TIP3    H210621   5.810   2.007   5.110
 3539TIP3   OH210622   3.501   5.364   0.276
 3539TIP3    H110623   3.529   5.329   0.361
 3539TIP3    H210624   3.547   5.311   0.212
 3540TIP3   OH210625   2.811   4.363   0.692
 3540TIP3    H110626   2.863   4.294   0.732
 3540TIP3    H210627   2.826   4.439   0.748
 3541TIP3   OH210628   2.693   2.589   3.220
 3541TIP3    H110629   2.671   2.616   3.131
 3541TIP3    H210630   2.785   2.613   3.229
 3542TIP3   OH210631   3.517   5.443   4.959
 3542TIP3    H110632   3.422   5.438   4.950
 3542TIP3    H210633   3.537   5.381   5.030
 3543TIP3   OH210634   3.725   2.021   2.900
 3543TIP3    H110635   3.800   1.980   2.943
 3543TIP3    H210636   3.656   1.954   2.905
 3544TIP3   OH210637   1.223   3.434   5.089
 3544TIP3    H110638   1.248   3.382   5.013
 3544TIP3    H210639   1.256   3.522   5.071
 3545TIP3   OH210640   6.203   5.570   5.013
 3545TIP3    H110641   6.205   5.599   4.922
 3545TIP3    H210642   6.115   5.594   5.044
 3546TIP3   OH210643   5.523   5.817   3.239
 3546TIP3    H110644   5.480   5.831   3.323
 3546TIP3    H210645   5.546   5.905   3.208
 3547TIP3   OH210646   5.293   4.713   4.078
 3547TIP3    H110647   5.261   4.653   4.146
 3547TIP3    H210648   5.283   4.665   3.996
 3548TIP3   OH210649   4.316   2.319   4.047
 3548TIP3    H110650   4.356   2.244   4.091
 3548TIP3    H210651   4.231   2.331   4.089
 3549TIP3   OH210652   4.912   4.112   3.262
 3549TIP3    H110653   4.882   4.053   3.193
 3549TIP3    H210654   4.914   4.198   3.221
 3550TIP3   OH210655   2.480   4.590   0.225
 3550TIP3    H110656   2.491   4.608   0.132
 3550TIP3    H210657   2.413   4.521   0.228
 3551TIP3   OH210658   4.416   3.603   1.517
 3551TIP3    H110659   4.342   3.581   1.573
 3551TIP3    H210660   4.493   3.586   1.572
 3552TIP3   OH210661   4.549   0.338   5.202
 3552TIP3    H110662   4.456   0.328   5.182
 3552TIP3    H210663   4.594   0.308   5.123
 3553TIP3   OH210664   5.924   1.472   2.924
 3553TIP3    H110665   5.889   1.553   2.962
 3553TIP3    H210666   5.944   1.495   2.833
 3554TIP3   OH210667   2.405   2.304   3.580
 3554TIP3    H110668   2.330   2.303   3.520
 3554TIP3    H210669   2.481   2.298   3.523
 3555TIP3   OH210670   1.676   3.898   0.433
 3555TIP3    H110671   1.690   3.992   0.443
 3555TIP3    H210672   1.728   3.859   0.503
 3556TIP3   OH210673   0.630   1.226   1.178
 3556TIP3    H110674   0.604   1.177   1.256
 3556TIP3    H210675   0.558   1.210   1.116
 3557TIP3   OH210676   5.487   4.774   2.458
 3557TIP3    H110677   5.500   4.771   2.553
 3557TIP3    H210678   5.539   4.702   2.424
 3558TIP3   OH210679   1.462   3.835   4.674
 3558TIP3    H110680   1.514   3.886   4.736
 3558TIP3    H210681   1.515   3.758   4.656
 3559TIP3   OH210682   5.435   2.731   3.294
 3559TIP3    H110683   5.483   2.670   3.350
 3559TIP3    H210684   5.502   2.791   3.262
 3560TIP3   OH210685   4.532   3.450   3.815
 3560TIP3    H110686   4.601   3.384   3.823
 3560TIP3    H210687   4.576   3.533   3.832
 3561TIP3   OH210688   5.371   4.199   3.362
 3561TIP3    H110689   5.422   4.155   3.294
 3561TIP3    H210690   5.436   4.226   3.427
 3562TIP3   OH210691   2.672   4.344   5.155
 3562TIP3    H110692   2.690   4.438   5.152
 3562TIP3    H210693   2.640   4.323   5.067
 3563TIP3   OH210694   5.392   0.662   1.640
 3563TIP3    H110695   5.364   0.663   1.549
 3563TIP3    H210696   5.473   0.712   1.641
 3564TIP3   OH210697   5.047   2.444   1.384
 3564TIP3    H110698   5.124   2.500   1.382
 3564TIP3    H210699   5.065   2.376   1.320
 3565TIP3   OH210700   0.146   2.115   4.849
 3565TIP3    H110701   0.238   2.117   4.825
 3565TIP3    H210702   0.104   2.178   4.790
 3566TIP3   OH210703   1.259   2.116   2.042
 3566TIP3    H110704   1.175   2.154   2.069
 3566TIP3    H210705   1.285   2.061   2.116
 3567TIP3   OH210706   3.592   0.810   0.028
 3567TIP3    H110707   3.620   0.814  -0.063
 3567TIP3    H210708   3.627   0.890   0.068
 3568TIP3   OH210709   0.826   4.731   1.318
 3568TIP3    H110710   0.851   4.787   1.392
 3568TIP3    H210711   0.781   4.790   1.257
 3569TIP3   OH210712   6.342   1.178   0.888
 3569TIP3    H110713   6.258   1.156   0.927
 3569TIP3    H210714   6.369   1.259   0.932
 3570TIP3   OH210715   1.449   5.220   2.989
 3570TIP3    H110716   1.387   5.285   2.955
 3570TIP3    H210717   1.422   5.138   2.948
 3571TIP3   OH210718   6.112   1.870   0.512
 3571TIP3    H110719   6.038   1.831   0.465
 3571TIP3    H210720   6.108   1.963   0.491
 3572TIP3   OH210721   3.497   1.878   2.998
 3572TIP3    H110722   3.453   1.894   2.915
 3572TIP3    H210723   3.444   1.811   3.041
 3573TIP3   OH210724   5.495   4.859   3.947
 3573TIP3    H110725   5.547   4.788   3.910
 3573TIP3    H210726   5.445   4.819   4.018
 3574TIP3   OH210727   1.243   4.600   1.384
 3574TIP3    H110728   1.235   4.685   1.342
 3574TIP3    H210729   1.205   4.538   1.321
 3575TIP3   OH210730   1.447   3.231   1.269
 3575TIP3    H110731   1.407   3.152   1.306
 3575TIP3    H210732   1.529   3.200   1.230
 3576TIP3   OH210733   0.837   0.228   3.119
 3576TIP3    H110734   0.926   0.243   3.089
 3576TIP3    H210735   0.784   0.289   3.068
 3577TIP3   OH210736   2.715   2.775   0.557
 3577TIP3    H110737   2.651   2.731   0.501
 3577TIP3    H210738   2.663   2.819   0.623
 3578TIP3   OH210739   4.953   0.300   5.109
 3578TIP3    H110740   4.917   0.223   5.154
 3578TIP3    H210741   5.012   0.263   5.043
 3579TIP3   OH210742   5.261   3.106   4.252
 3579TIP3    H110743   5.332   3.170   4.257
 3579TIP3    H210744   5.189   3.145   4.301
 3580TIP3   OH210745   2.547   1.869   3.000
 3580TIP3    H110746   2.571   1.777   2.987
 3580TIP3    H210747   2.521   1.874   3.092
 3581TIP3   OH210748   0.066   0.702   3.056
 3581TIP3    H110749  -0.019   0.746   3.056
 3581TIP3    H210750   0.110   0.735   2.978
 3582TIP3   OH210751   3.312   4.058   4.463
 3582TIP3    H110752   3.245   4.061   4.532
 3582TIP3    H210753   3.371   4.131   4.484
 3583TIP3   OH210754   3.855   2.439   0.887
 3583TIP3    H110755   3.852   2.529   0.855
 3583TIP3    H210756   3.847   2.386   0.808
 3584TIP3   OH210757   6.318   3.409   1.905
 3584TIP3    H110758   6.348   3.500   1.901
 3584TIP3    H210759   6.392   3.362   1.943
 3585TIP3   OH210760   1.440   2.617   3.521
 3585TIP3    H110761   1.447   2.709   3.498
 3585TIP3    H210762   1.358   2.610   3.570
 3586TIP3   OH210763   3.024   0.117   0.712
 3586TIP3    H110764   3.062   0.204   0.725
 3586TIP3    H210765   3.037   0.099   0.619
 3587TIP3   OH210766   0.558   2.508   3.295
 3587TIP3    H110767   0.589   2.523   3.385
 3587TIP3    H210768   0.463   2.507   3.303
 3588TIP3   OH210769   0.880   3.265   1.790
 3588TIP3    H110770   0.824   3.331   1.830
 3588TIP3    H210771   0.969   3.293   1.811
 3589TIP3   OH210772   4.351   2.983   1.029
 3589TIP3    H110773   4.259   2.975   1.005
 3589TIP3    H210774   4.398   2.939   0.958
 3590TIP3   OH210775   5.085   1.774   2.106
 3590TIP3    H110776   5.116   1.782   2.015
 3590TIP3    H210777   5.095   1.681   2.126
 3591TIP3   OH210778   5.485   2.016   5.048
 3591TIP3    H110779   5.567   2.041   5.091
 3591TIP3    H210780   5.437   2.098   5.039
 3592TIP3   OH210781   3.276   5.410   0.970
 3592TIP3    H110782   3.312   5.419   1.058
 3592TIP3    H210783   3.262   5.316   0.960
 3593TIP3   OH210784   5.928   3.146   2.357
 3593TIP3    H110785   6.016   3.108   2.369
 3593TIP3    H210786   5.917   3.150   2.262
 3594TIP3   OH210787   2.709   2.878   2.770
 3594TIP3    H110788   2.752   2.856   2.688
 3594TIP3    H210789   2.777   2.925   2.820
 3595TIP3   OH210790   4.766   0.630   4.592
 3595TIP3    H110791   4.683   0.598   4.627
 3595TIP3    H210792   4.789   0.568   4.523
 3596TIP3   OH210793   5.519   3.940   0.887
 3596TIP3    H110794   5.430   3.912   0.865
 3596TIP3    H210795   5.509   3.987   0.970
 3597TIP3   OH210796   0.160   3.815   3.653
 3597TIP3    H110797   0.093   3.827   3.721
 3597TIP3    H210798   0.118   3.759   3.588
 3598TIP3   OH210799   0.959   3.502   5.028
 3598TIP3    H110800   1.052   3.516   5.048
 3598TIP3    H210801   0.938   3.419   5.069
 3599TIP3   OH210802   6.146   5.539   2.036
 3599TIP3    H110803   6.113   5.455   2.006
 3599TIP3    H210804   6.240   5.527   2.047
 3600TIP3   OH210805   6.262   5.280   2.665
 3600TIP3    H110806   6.210   5.202   2.686
 3600TIP3    H210807   6.352   5.248   2.658
 3601TIP3   OH210808   0.443   2.443   1.584
 3601TIP3    H110809   0.403   2.519   1.626
 3601TIP3    H210810   0.392   2.369   1.616
 3602TIP3   OH210811   5.972   4.851   0.514
 3602TIP3    H110812   5.986   4.756   0.510
 3602TIP3    H210813   6.017   4.878   0.595
 3603TIP3   OH210814   6.107   4.649   4.923
 3603TIP3    H110815   6.192   4.650   4.880
 3603TIP3    H210816   6.049   4.607   4.860
 3604TIP3   OH210817   1.865   3.830   2.007
 3604TIP3    H110818   1.816   3.750   2.023
 3604TIP3    H210819   1.953   3.811   2.040
 3605TIP3   OH210820   0.708   5.496   1.793
 3605TIP3    H110821   0.686   5.515   1.702
 3605TIP3    H210822   0.625   5.468   1.833
 3606TIP3   OH210823   5.699   0.338   1.300
 3606TIP3    H110824   5.694   0.297   1.387
 3606TIP3    H210825   5.627   0.401   1.299
 3607TIP3   OH210826   1.453   4.358   2.254
 3607TIP3    H110827   1.434   4.320   2.168
 3607TIP3    H210828   1.454   4.453   2.238
 3608TIP3   OH210829   0.252   1.828   1.359
 3608TIP3    H110830   0.175   1.870   1.320
 3608TIP3    H210831   0.243   1.736   1.335
 3609TIP3   OH210832   1.067   0.198   1.635
 3609TIP3    H110833   1.115   0.236   1.561
 3609TIP3    H210834   1.135   0.168   1.695
 3610TIP3   OH210835   2.118   4.914   2.138
 3610TIP3    H110836   2.066   4.926   2.058
 3610TIP3    H210837   2.208   4.903   2.107
 3611TIP3   OH210838   1.066   2.171   1.089
 3611TIP3    H110839   1.067   2.257   1.131
 3611TIP3    H210840   1.069   2.109   1.161
 3612TIP3   OH210841   2.535   4.298   4.507
 3612TIP3    H110842   2.597   4.229   4.482
 3612TIP3    H210843   2.497   4.267   4.589
 3613TIP3   OH210844   4.973   3.963   1.237
 3613TIP3    H110845   4.929   3.944   1.154
 3613TIP3    H210846   5.062   3.988   1.211
 3614TIP3   OH210847   3.172   5.109   2.322
 3614TIP3    H110848   3.261   5.086   2.347
 3614TIP3    H210849   3.181   5.185   2.265
 3615TIP3   OH210850   4.773   5.614   0.642
 3615TIP3    H110851   4.745   5.702   0.665
 3615TIP3    H210852   4.812   5.579   0.722
 3616TIP3   OH210853   0.530   5.316   4.117
 3616TIP3    H110854   0.604   5.291   4.061
 3616TIP3    H210855   0.478   5.236   4.126
 3617TIP3   OH210856   6.233   0.080   2.106
 3617TIP3    H110857   6.255  -0.012   2.118
 3617TIP3    H210858   6.173   0.101   2.178
 3618TIP3   OH210859   5.048   5.426   1.376
 3618TIP3    H110860   5.116   5.491   1.357
 3618TIP3    H210861   5.067   5.354   1.315
 3619TIP3   OH210862   3.208   4.997   3.081
 3619TIP3    H110863   3.285   4.965   3.035
 3619TIP3    H210864   3.188   5.080   3.038
 3620TIP3   OH210865   5.463   1.400   5.141
 3620TIP3    H110866   5.457   1.349   5.222
 3620TIP3    H210867   5.556   1.402   5.120
 3621TIP3   OH210868   6.224   5.724   1.823
 3621TIP3    H110869   6.179   5.743   1.741
 3621TIP3    H210870   6.158   5.679   1.876
 3622TIP3   OH210871   2.479   4.613   1.946
 3622TIP3    H110872   2.469   4.558   2.024
 3622TIP3    H210873   2.458   4.554   1.873
 3623TIP3   OH210874   4.059   5.435   2.513
 3623TIP3    H110875   4.033   5.479   2.432
 3623TIP3    H210876   3.977   5.417   2.558
 3624TIP3   OH210877   3.840   0.377   0.653
 3624TIP3    H110878   3.775   0.306   0.650
 3624TIP3    H210879   3.858   0.389   0.746
 3625TIP3   OH210880   1.025   0.078   2.264
 3625TIP3    H110881   1.096   0.060   2.326
 3625TIP3    H210882   1.063   0.141   2.203
 3626TIP3   OH210883   4.700   0.043   0.532
 3626TIP3    H110884   4.735  -0.026   0.475
 3626TIP3    H210885   4.625   0.078   0.483
 3627TIP3   OH210886   1.426   5.536   3.624
 3627TIP3    H110887   1.490   5.465   3.619
 3627TIP3    H210888   1.405   5.555   3.532
 3628TIP3   OH210889   4.499   4.120   0.656
 3628TIP3    H110890   4.512   4.153   0.568
 3628TIP3    H210891   4.415   4.073   0.652
 3629TIP3   OH210892   1.864   1.021   0.296
 3629TIP3    H110893   1.864   1.032   0.201
 3629TIP3    H210894   1.801   1.086   0.328
 3630TIP3   OH210895   1.591   1.433   4.526
 3630TIP3    H110896   1.607   1.522   4.556
 3630TIP3    H210897   1.561   1.386   4.604
 3631TIP3   OH210898   2.491   1.614   2.904
 3631TIP3    H110899   2.468   1.600   2.812
 3631TIP3    H210900   2.409   1.639   2.946
 3632TIP3   OH210901   2.315   5.415   3.830
 3632TIP3    H110902   2.322   5.462   3.747
 3632TIP3    H210903   2.325   5.483   3.897
 3633TIP3   OH210904   1.268   4.227   4.763
 3633TIP3    H110905   1.304   4.164   4.701
 3633TIP3    H210906   1.311   4.310   4.741
 3634TIP3   OH210907   5.292   0.534   1.127
 3634TIP3    H110908   5.294   0.482   1.046
 3634TIP3    H210909   5.203   0.569   1.130
 3635TIP3   OH210910   0.161   0.510   3.232
 3635TIP3    H110911   0.110   0.552   3.163
 3635TIP3    H210912   0.245   0.489   3.191
 3636TIP3   OH210913   3.339   4.013   1.667
 3636TIP3    H110914   3.337   4.027   1.761
 3636TIP3    H210915   3.388   4.087   1.632
 3637TIP3   OH210916   4.088   1.368   0.615
 3637TIP3    H110917   4.029   1.422   0.667
 3637TIP3    H210918   4.146   1.431   0.572
 3638TIP3   OH210919   0.448   4.718   3.226
 3638TIP3    H110920   0.401   4.708   3.143
 3638TIP3    H210921   0.445   4.812   3.243
 3639TIP3   OH210922   4.568   0.493   2.809
 3639TIP3    H110923   4.502   0.425   2.800
 3639TIP3    H210924   4.567   0.515   2.902
 3640TIP3   OH210925   5.728   0.083   3.129
 3640TIP3    H110926   5.776   0.154   3.086
 3640TIP3    H210927   5.651   0.069   3.074
 3641TIP3   OH210928   1.526   1.527   1.677
 3641TIP3    H110929   1.561   1.456   1.623
 3641TIP3    H210930   1.446   1.492   1.715
 3642TIP3   OH210931   5.713   1.413   4.983
 3642TIP3    H110932   5.674   1.335   4.944
 3642TIP3    H210933   5.794   1.382   5.024
 3643TIP3   OH210934   4.327   5.516   4.170
 3643TIP3    H110935   4.386   5.484   4.101
 3643TIP3    H210936   4.239   5.500   4.136
 3644TIP3   OH210937   1.750   3.344   3.173
 3644TIP3    H110938   1.801   3.343   3.254
 3644TIP3    H210939   1.778   3.425   3.128
 3645TIP3   OH210940   0.940   3.422   0.069
 3645TIP3    H110941   0.878   3.469   0.125
 3645TIP3    H210942   0.902   3.335   0.058
 3646TIP3   OH210943   1.684   0.988   3.950
 3646TIP3    H110944   1.647   0.903   3.972
 3646TIP3    H210945   1.772   0.987   3.989
 3647TIP3   OH210946   5.964   2.268   4.693
 3647TIP3    H110947   5.996   2.181   4.716
 3647TIP3    H210948   5.949   2.264   4.598
 3648TIP3   OH210949   3.278   3.573   3.755
 3648TIP3    H110950   3.338   3.636   3.795
 3648TIP3    H210951   3.235   3.531   3.830
 3649TIP3   OH210952   4.047   2.545   4.905
 3649TIP3    H110953   3.991   2.622   4.915
 3649TIP3    H210954   4.135   2.577   4.926
 3650TIP3   OH210955   5.096   4.529   1.022
 3650TIP3    H110956   5.125   4.460   1.081
 3650TIP3    H210957   5.119   4.498   0.934
 3651TIP3   OH210958   1.726   5.654   4.959
 3651TIP3    H110959   1.802   5.676   4.905
 3651TIP3    H210960   1.751   5.571   5.001
 3652TIP3   OH210961   1.866   2.001   3.283
 3652TIP3    H110962   1.940   2.039   3.330
 3652TIP3    H210963   1.870   2.039   3.195
 3653TIP3   OH210964   5.913   5.177   0.857
 3653TIP3    H110965   5.858   5.208   0.784
 3653TIP3    H210966   6.002   5.185   0.825
 3654TIP3   OH210967   2.411   2.487   4.019
 3654TIP3    H110968   2.433   2.492   3.926
 3654TIP3    H210969   2.492   2.510   4.064
 3655TIP3   OH210970   2.289   4.226   2.729
 3655TIP3    H110971   2.344   4.192   2.657
 3655TIP3    H210972   2.225   4.156   2.744
 3656TIP3   OH210973   0.160   1.829   0.931
 3656TIP3    H110974   0.162   1.772   0.854
 3656TIP3    H210975   0.066   1.837   0.952
 3657TIP3   OH210976   4.431   2.898   1.861
 3657TIP3    H110977   4.423   2.803   1.864
 3657TIP3    H210978   4.426   2.925   1.953
 3658TIP3   OH210979   2.707   3.165   4.866
 3658TIP3    H110980   2.658   3.241   4.835
 3658TIP3    H210981   2.794   3.200   4.889
 3659TIP3   OH210982   5.744   0.921   0.275
 3659TIP3    H110983   5.722   1.007   0.241
 3659TIP3    H210984   5.840   0.916   0.267
 3660TIP3   OH210985   3.733   0.425   4.778
 3660TIP3    H110986   3.793   0.367   4.825
 3660TIP3    H210987   3.701   0.373   4.706
 3661TIP3   OH210988   1.455   5.831   0.060
 3661TIP3    H110989   1.459   5.819  -0.035
 3661TIP3    H210990   1.363   5.816   0.082
 3662TIP3   OH210991   0.499   1.622   4.136
 3662TIP3    H110992   0.489   1.698   4.193
 3662TIP3    H210993   0.434   1.559   4.168
 3663TIP3   OH210994   4.651   1.317   3.160
 3663TIP3    H110995   4.663   1.412   3.159
 3663TIP3    H210996   4.711   1.285   3.092
 3664TIP3   OH210997   3.140   2.856   2.605
 3664TIP3    H110998   3.185   2.801   2.540
 3664TIP3    H210999   3.178   2.830   2.688
 3665TIP3   OH211000   4.317   2.178   1.737
 3665TIP3    H111001   4.342   2.260   1.780
 3665TIP3    H211002   4.238   2.150   1.783
 3666TIP3   OH211003   2.123   5.537   0.784
 3666TIP3    H111004   2.218   5.531   0.776
 3666TIP3    H211005   2.091   5.465   0.729
 3667TIP3   OH211006   4.657   4.559   5.033
 3667TIP3    H111007   4.707   4.634   5.065
 3667TIP3    H211008   4.724   4.493   5.014
 3668TIP3   OH211009   5.481   1.885   1.867
 3668TIP3    H111010   5.418   1.939   1.914
 3668TIP3    H211011   5.436   1.800   1.857
 3669TIP3   OH211012   2.890   4.577   0.483
 3669TIP3    H111013   2.934   4.634   0.545
 3669TIP3    H211014   2.881   4.629   0.403
 3670TIP3   OH211015   4.759   4.651   1.976
 3670TIP3    H111016   4.688   4.630   2.037
 3670TIP3    H211017   4.756   4.580   1.911
 3671TIP3   OH211018   4.138   1.818   3.728
 3671TIP3    H111019   4.053   1.783   3.757
 3671TIP3    H211020   4.118   1.870   3.651
 3672TIP3   OH211021   1.522   2.876   3.491
 3672TIP3    H111022   1.599   2.835   3.451
 3672TIP3    H211023   1.488   2.934   3.423
 3673TIP3   OH211024   4.987   2.476   0.183
 3673TIP3    H111025   4.961   2.417   0.112
 3673TIP3    H211026   4.967   2.564   0.150
 3674TIP3   OH211027   4.022   4.981   1.666
 3674TIP3    H111028   3.998   4.918   1.733
 3674TIP3    H211029   3.967   4.958   1.591
 3675TIP3   OH211030   6.112   3.501   3.827
 3675TIP3    H111031   6.060   3.581   3.835
 3675TIP3    H211032   6.171   3.502   3.903
 3676TIP3   OH211033   5.094   2.964   2.836
 3676TIP3    H111034   5.034   3.019   2.886
 3676TIP3    H211035   5.051   2.880   2.831
 3677TIP3   OH211036   5.101   2.889   4.160
 3677TIP3    H111037   5.020   2.939   4.174
 3677TIP3    H211038   5.170   2.946   4.192
 3678TIP3   OH211039   3.446   3.341   0.272
 3678TIP3    H111040   3.515   3.308   0.214
 3678TIP3    H211041   3.365   3.329   0.221
 3679TIP3   OH211042   4.584   1.010   2.596
 3679TIP3    H111043   4.507   1.022   2.651
 3679TIP3    H211044   4.549   0.974   2.514
 3680TIP3   OH211045   3.597   5.871   4.022
 3680TIP3    H111046   3.561   5.847   3.936
 3680TIP3    H211047   3.591   5.790   4.073
 3681TIP3   OH211048   1.761   2.338   3.553
 3681TIP3    H111049   1.694   2.270   3.563
 3681TIP3    H211050   1.732   2.409   3.610
 3682TIP3   OH211051   1.540   2.214   3.142
 3682TIP3    H111052   1.529   2.131   3.097
 3682TIP3    H211053   1.635   2.222   3.156
 3683TIP3   OH211054   1.129   0.498   3.229
 3683TIP3    H111055   1.138   0.471   3.138
 3683TIP3    H211056   1.157   0.589   3.231
 3684TIP3   OH211057   1.393   1.163   1.503
 3684TIP3    H111058   1.323   1.099   1.489
 3684TIP3    H211059   1.412   1.157   1.597
 3685TIP3   OH211060   4.443   0.820   4.892
 3685TIP3    H111061   4.367   0.791   4.841
 3685TIP3    H211062   4.511   0.837   4.827
 3686TIP3   OH211063   4.323   2.866   4.034
 3686TIP3    H111064   4.294   2.957   4.041
 3686TIP3    H211065   4.244   2.814   4.046
 3687TIP3   OH211066   0.320   2.197   4.610
 3687TIP3    H111067   0.389   2.246   4.654
 3687TIP3    H211068   0.295   2.251   4.535
 3688TIP3   OH211069   0.775   5.574   0.772
 3688TIP3    H111070   0.787   5.600   0.863
 3688TIP3    H211071   0.764   5.657   0.725
 3689TIP3   OH211072   5.999   1.901   4.637
 3689TIP3    H111073   5.986   1.810   4.663
 3689TIP3    H211074   6.092   1.917   4.653
 3690TIP3   OH211075   2.725   2.060   1.476
 3690TIP3    H111076   2.670   2.010   1.537
 3690TIP3    H211077   2.743   1.999   1.404
 3691TIP3   OH211078   4.809   4.262   3.041
 3691TIP3    H111079   4.781   4.181   2.999
 3691TIP3    H211080   4.759   4.331   2.997
 3692TIP3   OH211081   5.419   3.381   3.128
 3692TIP3    H111082   5.474   3.317   3.082
 3692TIP3    H211083   5.480   3.446   3.161
 3693TIP3   OH211084   5.237   2.132   2.692
 3693TIP3    H111085   5.225   2.047   2.651
 3693TIP3    H211086   5.303   2.176   2.638
 3694TIP3   OH211087   4.950   5.791   0.024
 3694TIP3    H111088   4.904   5.871  -0.002
 3694TIP3    H211089   4.887   5.721   0.009
 3695TIP3   OH211090   1.279   0.888   4.257
 3695TIP3    H111091   1.186   0.881   4.279
 3695TIP3    H211092   1.285   0.967   4.204
 3696TIP3   OH211093   0.880   5.447   1.179
 3696TIP3    H111094   0.798   5.496   1.186
 3696TIP3    H211095   0.927   5.464   1.260
 3697TIP3   OH211096   3.899   3.957   3.061
 3697TIP3    H111097   3.883   3.868   3.093
 3697TIP3    H211098   3.994   3.960   3.045
 3698TIP3   OH211099   2.565   2.907   0.778
 3698TIP3    H111100   2.524   2.988   0.748
 3698TIP3    H211101   2.494   2.859   0.821
 3699TIP3   OH211102   4.723   2.439   2.858
 3699TIP3    H111103   4.632   2.466   2.858
 3699TIP3    H211104   4.773   2.520   2.857
 3700TIP3   OH211105   1.745   3.006   0.644
 3700TIP3    H111106   1.818   3.000   0.706
 3700TIP3    H211107   1.692   2.929   0.662
 3701TIP3   OH211108   2.423   5.873   4.132
 3701TIP3    H111109   2.413   5.964   4.159
 3701TIP3    H211110   2.507   5.870   4.088
 3702TIP3   OH211111   1.472   1.363   3.186
 3702TIP3    H111112   1.394   1.314   3.211
 3702TIP3    H211113   1.445   1.413   3.108
 3703TIP3   OH211114   4.614   3.248   4.095
 3703TIP3    H111115   4.664   3.203   4.027
 3703TIP3    H211116   4.621   3.191   4.171
 3704TIP3   OH211117   0.769   5.222   2.893
 3704TIP3    H111118   0.847   5.193   2.939
 3704TIP3    H211119   0.760   5.161   2.819
 3705TIP3   OH211120   3.682   1.117   3.320
 3705TIP3    H111121   3.590   1.143   3.320
 3705TIP3    H211122   3.728   1.191   3.359
 3706TIP3   OH211123   0.480   2.183   1.264
 3706TIP3    H111124   0.449   2.176   1.174
 3706TIP3    H211125   0.406   2.222   1.311
 3707TIP3   OH211126   1.623   1.454  -0.024
 3707TIP3    H111127   1.550   1.510   0.002
 3707TIP3    H211128   1.694   1.476   0.036
 3708TIP3   OH211129   4.856   4.335   4.558
 3708TIP3    H111130   4.860   4.239   4.562
 3708TIP3    H211131   4.791   4.359   4.624
 3709TIP3   OH211132   4.921   2.550   4.061
 3709TIP3    H111133   4.844   2.593   4.025
 3709TIP3    H211134   4.924   2.465   4.017
 3710TIP3   OH211135   3.510   5.114   3.553
 3710TIP3    H111136   3.438   5.090   3.494
 3710TIP3    H211137   3.468   5.159   3.626
 3711TIP3   OH211138   3.290   1.836   1.979
 3711TIP3    H111139   3.197   1.838   2.003
 3711TIP3    H211140   3.292   1.874   1.891
 3712TIP3   OH211141   3.369   2.968   3.683
 3712TIP3    H111142   3.352   3.038   3.746
 3712TIP3    H211143   3.313   2.989   3.608
 3713TIP3   OH211144   5.764   4.269   4.403
 3713TIP3    H111145   5.775   4.284   4.310
 3713TIP3    H211146   5.848   4.293   4.441
 3714TIP3   OH211147   3.171   5.576   4.733
 3714TIP3    H111148   3.169   5.648   4.797
 3714TIP3    H211149   3.206   5.615   4.653
 3715TIP3   OH211150   0.380   3.623   3.773
 3715TIP3    H111151   0.311   3.616   3.839
 3715TIP3    H211152   0.370   3.710   3.736
 3716TIP3   OH211153   5.744   3.093   4.982
 3716TIP3    H111154   5.707   3.009   5.010
 3716TIP3    H211155   5.676   3.132   4.927
 3717TIP3   OH211156   4.022   5.364   4.816
 3717TIP3    H111157   4.074   5.418   4.757
 3717TIP3    H211158   4.086   5.323   4.873
 3718TIP3   OH211159   3.052   2.400   0.724
 3718TIP3    H111160   3.094   2.442   0.649
 3718TIP3    H211161   3.023   2.472   0.779
 3719TIP3   OH211162   1.377   1.420   1.174
 3719TIP3    H111163   1.285   1.407   1.152
 3719TIP3    H211164   1.419   1.337   1.153
 3720TIP3   OH211165   2.421   1.968   3.621
 3720TIP3    H111166   2.361   1.899   3.592
 3720TIP3    H211167   2.414   2.036   3.554
 3721TIP3   OH211168   1.122   1.090   2.860
 3721TIP3    H111169   1.118   1.073   2.765
 3721TIP3    H211170   1.038   1.131   2.880
 3722TIP3   OH211171   0.074   5.528   2.620
 3722TIP3    H111172   0.047   5.472   2.547
 3722TIP3    H211173   0.128   5.471   2.675
 3723TIP3   OH211174   3.732   2.735   1.235
 3723TIP3    H111175   3.764   2.782   1.312
 3723TIP3    H211176   3.638   2.750   1.234
 3724TIP3   OH211177   1.776   3.569   0.411
 3724TIP3    H111178   1.748   3.550   0.500
 3724TIP3    H211179   1.813   3.657   0.415
 3725TIP3   OH211180   2.406   3.412   2.829
 3725TIP3    H111181   2.469   3.358   2.876
 3725TIP3    H211182   2.361   3.350   2.770
 3726TIP3   OH211183   2.677   2.312   0.278
 3726TIP3    H111184   2.720   2.380   0.225
 3726TIP3    H211185   2.750   2.261   0.313
 3727TIP3   OH211186   2.734   1.558   0.233
 3727TIP3    H111187   2.731   1.628   0.168
 3727TIP3    H211188   2.824   1.559   0.265
 3728TIP3   OH211189   1.357   2.123   4.543
 3728TIP3    H111190   1.436   2.152   4.590
 3728TIP3    H211191   1.368   2.029   4.534
 3729TIP3   OH211192   1.492   1.864   1.056
 3729TIP3    H111193   1.403   1.832   1.075
 3729TIP3    H211194   1.504   1.936   1.119
 3730TIP3   OH211195   4.175   0.301   0.771
 3730TIP3    H111196   4.145   0.374   0.826
 3730TIP3    H211197   4.201   0.233   0.834
 3731TIP3   OH211198   2.941   5.569   3.526
 3731TIP3    H111199   2.868   5.607   3.478
 3731TIP3    H211200   3.002   5.540   3.458
 3732TIP3   OH211201   1.257   3.962   0.245
 3732TIP3    H111202   1.306   3.909   0.308
 3732TIP3    H211203   1.198   3.899   0.203
 3733TIP3   OH211204   0.991   1.616   2.056
 3733TIP3    H111205   0.992   1.650   2.145
 3733TIP3    H211206   0.900   1.629   2.027
 3734TIP3   OH211207   4.787   3.277   3.714
 3734TIP3    H111208   4.808   3.193   3.754
 3734TIP3    H211209   4.743   3.254   3.632
 3735TIP3   OH211210   6.080   1.249   0.947
 3735TIP3    H111211   6.028   1.235   0.868
 3735TIP3    H211212   6.038   1.323   0.990
 3736TIP3   OH211213   3.949   1.525   1.328
 3736TIP3    H111214   3.978   1.514   1.419
 3736TIP3    H211215   4.029   1.545   1.280
 3737TIP3   OH211216   2.667   4.682   3.522
 3737TIP3    H111217   2.620   4.654   3.600
 3737TIP3    H211218   2.631   4.769   3.502
 3738TIP3   OH211219   0.194   2.983   1.781
 3738TIP3    H111220   0.099   2.975   1.773
 3738TIP3    H211221   0.215   3.063   1.732
 3739TIP3   OH211222   3.023   4.671   2.583
 3739TIP3    H111223   3.112   4.699   2.563
 3739TIP3    H211224   3.010   4.693   2.675
 3740TIP3   OH211225   4.247   0.678   0.328
 3740TIP3    H111226   4.341   0.676   0.342
 3740TIP3    H211227   4.212   0.722   0.406
 3741TIP3   OH211228   4.762   0.907   3.498
 3741TIP3    H111229   4.752   0.823   3.543
 3741TIP3    H211230   4.854   0.911   3.474
 3742TIP3   OH211231   3.035   0.143   2.212
 3742TIP3    H111232   2.973   0.109   2.277
 3742TIP3    H211233   2.997   0.120   2.128
 3743TIP3   OH211234   4.575   0.578   0.043
 3743TIP3    H111235   4.636   0.567  -0.030
 3743TIP3    H211236   4.631   0.596   0.118
 3744TIP3   OH211237   5.114   2.876   1.309
 3744TIP3    H111238   5.156   2.853   1.391
 3744TIP3    H211239   5.132   2.970   1.298
 3745TIP3   OH211240   5.675   2.151   3.773
 3745TIP3    H111241   5.600   2.141   3.831
 3745TIP3    H211242   5.638   2.189   3.693
 3746TIP3   OH211243   2.973   0.302   1.258
 3746TIP3    H111244   2.963   0.257   1.174
 3746TIP3    H211245   3.022   0.382   1.237
 3747TIP3   OH211246   2.494   0.198   0.352
 3747TIP3    H111247   2.409   0.184   0.311
 3747TIP3    H211248   2.528   0.110   0.365
 3748TIP3   OH211249   0.807   2.806   1.161
 3748TIP3    H111250   0.717   2.819   1.130
 3748TIP3    H211251   0.829   2.717   1.133
 3749TIP3   OH211252   0.950   3.656   4.430
 3749TIP3    H111253   0.906   3.663   4.346
 3749TIP3    H211254   1.043   3.649   4.409
 3750TIP3   OH211255   1.173   2.434   0.370
 3750TIP3    H111256   1.123   2.516   0.367
 3750TIP3    H211257   1.112   2.368   0.336
 3751TIP3   OH211258   0.446   1.978   0.384
 3751TIP3    H111259   0.372   1.953   0.439
 3751TIP3    H211260   0.465   1.900   0.331
 3752TIP3   OH211261   2.430   3.541   4.413
 3752TIP3    H111262   2.423   3.466   4.473
 3752TIP3    H211263   2.520   3.537   4.381
 3753TIP3   OH211264   1.254   3.856   1.747
 3753TIP3    H111265   1.317   3.856   1.820
 3753TIP3    H211266   1.309   3.843   1.669
 3754TIP3   OH211267   3.371   1.326   4.533
 3754TIP3    H111268   3.341   1.244   4.573
 3754TIP3    H211269   3.297   1.386   4.544
 3755TIP3   OH211270   6.158   0.566   3.808
 3755TIP3    H111271   6.102   0.529   3.875
 3755TIP3    H211272   6.247   0.546   3.837
 3756TIP3   OH211273   5.010   5.144   3.706
 3756TIP3    H111274   5.035   5.055   3.732
 3756TIP3    H211275   4.944   5.131   3.638
 3757TIP3   OH211276   4.293   2.389   0.082
 3757TIP3    H111277   4.237   2.360   0.154
 3757TIP3    H211278   4.305   2.311   0.028
 3758TIP3   OH211279   2.527   0.120   0.775
 3758TIP3    H111280   2.614   0.106   0.813
 3758TIP3    H211281   2.487   0.034   0.774
 3759TIP3   OH211282   6.238   4.067   5.038
 3759TIP3    H111283   6.194   3.991   5.076
 3759TIP3    H211284   6.255   4.124   5.113
 3760TIP3   OH211285   5.823   3.363   2.469
 3760TIP3    H111286   5.729   3.362   2.451
 3760TIP3    H211287   5.853   3.276   2.443
 3761TIP3   OH211288   1.470   1.588   0.154
 3761TIP3    H111289   1.512   1.659   0.203
 3761TIP3    H211290   1.492   1.509   0.202
 3762TIP3   OH211291   2.402   5.583   2.296
 3762TIP3    H111292   2.459   5.648   2.254
 3762TIP3    H211293   2.445   5.564   2.380
 3763TIP3   OH211294   4.018   5.417   1.948
 3763TIP3    H111295   4.045   5.394   1.859
 3763TIP3    H211296   4.100   5.420   1.998
 3764TIP3   OH211297   0.446   5.064   4.083
 3764TIP3    H111298   0.357   5.079   4.051
 3764TIP3    H211299   0.485   5.003   4.020
 3765TIP3   OH211300   4.595   5.781   5.041
 3765TIP3    H111301   4.512   5.803   5.084
 3765TIP3    H211302   4.569   5.740   4.959
 3766TIP3   OH211303   5.968   2.151   3.084
 3766TIP3    H111304   5.975   2.247   3.091
 3766TIP3    H211305   6.059   2.122   3.071
 3767TIP3   OH211306   5.886   2.637   1.520
 3767TIP3    H111307   5.926   2.716   1.557
 3767TIP3    H211308   5.951   2.604   1.458
 3768TIP3   OH211309   4.414   3.422   0.619
 3768TIP3    H111310   4.378   3.339   0.588
 3768TIP3    H211311   4.337   3.472   0.646
 3769TIP3   OH211312   5.882   0.340   0.290
 3769TIP3    H111313   5.883   0.261   0.236
 3769TIP3    H211314   5.797   0.337   0.335
 3770TIP3   OH211315   1.237   0.127   0.068
 3770TIP3    H111316   1.294   0.186   0.020
 3770TIP3    H211317   1.152   0.134   0.024
 3771TIP3   OH211318   1.156   5.288  -0.043
 3771TIP3    H111319   1.177   5.233   0.032
 3771TIP3    H211320   1.175   5.377  -0.013
 3772TIP3   OH211321   3.730   2.411   5.096
 3772TIP3    H111322   3.675   2.478   5.136
 3772TIP3    H211323   3.789   2.383   5.165
 3773TIP3   OH211324   1.423   4.326   1.782
 3773TIP3    H111325   1.374   4.334   1.701
 3773TIP3    H211326   1.509   4.293   1.755
 3774TIP3   OH211327   3.867   3.065   4.526
 3774TIP3    H111328   3.881   2.971   4.539
 3774TIP3    H211329   3.955   3.100   4.508
 3775TIP3   OH211330   2.908   0.849   4.021
 3775TIP3    H111331   2.933   0.780   4.083
 3775TIP3    H211332   2.962   0.832   3.943
 3776TIP3   OH211333   0.899   4.822   2.020
 3776TIP3    H111334   0.915   4.743   2.071
 3776TIP3    H211335   0.972   4.880   2.043
 3777TIP3   OH211336   2.954   4.547   2.872
 3777TIP3    H111337   2.990   4.629   2.906
 3777TIP3    H211338   2.976   4.481   2.937
 3778TIP3   OH211339   4.638   2.970   3.209
 3778TIP3    H111340   4.561   3.001   3.161
 3778TIP3    H211341   4.669   2.894   3.159
 3779TIP3   OH211342   1.407   5.287   1.142
 3779TIP3    H111343   1.313   5.300   1.130
 3779TIP3    H211344   1.436   5.366   1.187
 3780TIP3   OH211345   1.287   4.467   0.311
 3780TIP3    H111346   1.245   4.381   0.299
 3780TIP3    H211347   1.214   4.528   0.321
 3781TIP3   OH211348   2.215   0.149   0.425
 3781TIP3    H111349   2.227   0.094   0.348
 3781TIP3    H211350   2.200   0.087   0.497
 3782TIP3   OH211351   5.822   4.904   1.581
 3782TIP3    H111352   5.736   4.946   1.579
 3782TIP3    H211353   5.867   4.946   1.655
 3783TIP3   OH211354   0.967   1.189   0.582
 3783TIP3    H111355   0.974   1.178   0.677
 3783TIP3    H211356   0.877   1.218   0.568
 3784TIP3   OH211357   5.290   5.042   0.528
 3784TIP3    H111358   5.372   5.041   0.578
 3784TIP3    H211359   5.222   5.040   0.595
 3785TIP3   OH211360   0.726   2.435   5.053
 3785TIP3    H111361   0.719   2.513   4.996
 3785TIP3    H211362   0.747   2.364   4.993
 3786TIP3   OH211363   3.277   3.595   4.715
 3786TIP3    H111364   3.292   3.690   4.722
 3786TIP3    H211365   3.347   3.564   4.658
 3787TIP3   OH211366   1.639   3.308   0.003
 3787TIP3    H111367   1.576   3.361  -0.046
 3787TIP3    H211368   1.700   3.371   0.040
 3788TIP3   OH211369   0.941   1.358   4.967
 3788TIP3    H111370   0.969   1.441   4.930
 3788TIP3    H211371   0.888   1.381   5.043
 3789TIP3   OH211372   1.371   1.691   4.172
 3789TIP3    H111373   1.345   1.673   4.263
 3789TIP3    H211374   1.368   1.606   4.129
 3790TIP3   OH211375   3.117   5.111   4.113
 3790TIP3    H111376   3.117   5.083   4.205
 3790TIP3    H211377   3.046   5.062   4.073
 3791TIP3   OH211378   1.576   2.037   1.265
 3791TIP3    H111379   1.502   2.074   1.315
 3791TIP3    H211380   1.608   2.111   1.213
 3792TIP3   OH211381   3.125   1.765   0.033
 3792TIP3    H111382   3.162   1.795  -0.050
 3792TIP3    H211383   3.201   1.732   0.082
 3793TIP3   OH211384   4.455   5.680   1.128
 3793TIP3    H111385   4.480   5.600   1.175
 3793TIP3    H211386   4.451   5.747   1.196
 3794TIP3   OH211387   0.472   2.989   1.927
 3794TIP3    H111388   0.389   3.006   1.882
 3794TIP3    H211389   0.539   3.021   1.866
 3795TIP3   OH211390   2.951   2.876   0.717
 3795TIP3    H111391   2.887   2.856   0.649
 3795TIP3    H211392   3.031   2.899   0.670
 3796TIP3   OH211393   3.003   2.571   2.606
 3796TIP3    H111394   2.952   2.491   2.605
 3796TIP3    H211395   3.078   2.551   2.662
 3797TIP3   OH211396   4.825   0.303   2.018
 3797TIP3    H111397   4.750   0.337   2.066
 3797TIP3    H211398   4.877   0.380   1.998
 3798TIP3   OH211399   1.625   5.445   0.497
 3798TIP3    H111400   1.717   5.428   0.478
 3798TIP3    H211401   1.582   5.360   0.489
 3799TIP3   OH211402   0.194   0.819   2.827
 3799TIP3    H111403   0.213   0.909   2.852
 3799TIP3    H211404   0.277   0.785   2.792
 3800TIP3   OH211405   5.064   3.511   3.490
 3800TIP3    H111406   5.084   3.448   3.559
 3800TIP3    H211407   5.110   3.479   3.413
 3801TIP3   OH211408   6.282   2.886   0.809
 3801TIP3    H111409   6.245   2.841   0.733
 3801TIP3    H211410   6.353   2.828   0.839
 3802TIP3   OH211411   2.559   5.880   3.760
 3802TIP3    H111412   2.609   5.877   3.679
 3802TIP3    H211413   2.468   5.894   3.732
 3803TIP3   OH211414   3.095   0.533   2.669
 3803TIP3    H111415   3.188   0.520   2.690
 3803TIP3    H211416   3.095   0.558   2.577
 3804TIP3   OH211417   2.544   2.377   3.311
 3804TIP3    H111418   2.620   2.435   3.306
 3804TIP3    H211419   2.482   2.413   3.249
 3805TIP3   OH211420   2.532   1.162   3.719
 3805TIP3    H111421   2.499   1.204   3.640
 3805TIP3    H211422   2.593   1.096   3.687
 3806TIP3   OH211423   4.673   2.996   2.107
 3806TIP3    H111424   4.737   2.925   2.114
 3806TIP3    H211425   4.701   3.046   2.031
 3807TIP3   OH211426   3.217   3.627   4.394
 3807TIP3    H111427   3.135   3.599   4.354
 3807TIP3    H211428   3.266   3.545   4.406
 3808TIP3   OH211429   3.079   3.721   2.530
 3808TIP3    H111430   3.060   3.627   2.538
 3808TIP3    H211431   2.993   3.762   2.530
 3809TIP3   OH211432   3.435   2.482   4.190
 3809TIP3    H111433   3.473   2.427   4.121
 3809TIP3    H211434   3.341   2.464   4.186
 3810TIP3   OH211435   3.670   5.071   4.582
 3810TIP3    H111436   3.644   5.099   4.494
 3810TIP3    H211437   3.617   4.993   4.598
 3811TIP3   OH211438   6.145   2.068   4.988
 3811TIP3    H111439   6.203   2.133   4.949
 3811TIP3    H211440   6.093   2.117   5.052
 3812TIP3   OH211441   1.499   1.711   1.389
 3812TIP3    H111442   1.481   1.779   1.453
 3812TIP3    H211443   1.427   1.648   1.399
 3813TIP3   OH211444   4.607   3.671   1.035
 3813TIP3    H111445   4.602   3.637   1.124
 3813TIP3    H211446   4.557   3.609   0.982
 3814TIP3   OH211447   2.672   4.040   1.341
 3814TIP3    H111448   2.578   4.060   1.334
 3814TIP3    H211449   2.692   3.989   1.263
 3815TIP3   OH211450   6.060   2.147   2.464
 3815TIP3    H111451   6.140   2.123   2.418
 3815TIP3    H211452   5.990   2.125   2.403
 3816TIP3   OH211453   0.756   2.239   4.228
 3816TIP3    H111454   0.780   2.240   4.135
 3816TIP3    H211455   0.836   2.213   4.273
 3817TIP3   OH211456   3.581   3.848   2.068
 3817TIP3    H111457   3.534   3.928   2.044
 3817TIP3    H211458   3.512   3.787   2.092
 3818TIP3   OH211459   4.798   4.159   5.029
 3818TIP3    H111460   4.719   4.128   4.984
 3818TIP3    H211461   4.768   4.186   5.116
 3819TIP3   OH211462   0.815   1.615   0.312
 3819TIP3    H111463   0.813   1.710   0.326
 3819TIP3    H211464   0.763   1.601   0.233
 3820TIP3   OH211465   0.321   5.094   2.535
 3820TIP3    H111466   0.382   5.159   2.569
 3820TIP3    H211467   0.362   5.063   2.454
 3821TIP3   OH211468   5.188   1.489   1.046
 3821TIP3    H111469   5.124   1.554   1.074
 3821TIP3    H211470   5.257   1.493   1.112
 3822TIP3   OH211471   0.216   4.724   0.043
 3822TIP3    H111472   0.215   4.639   0.000
 3822TIP3    H211473   0.162   4.780  -0.013
 3823TIP3   OH211474   4.728   4.117   2.240
 3823TIP3    H111475   4.713   4.135   2.332
 3823TIP3    H211476   4.662   4.169   2.194
 3824TIP3   OH211477   5.184   3.934   2.090
 3824TIP3    H111478   5.216   3.886   2.166
 3824TIP3    H211479   5.187   3.870   2.018
 3825TIP3   OH211480   1.965   4.838   2.446
 3825TIP3    H111481   1.937   4.847   2.537
 3825TIP3    H211482   2.003   4.750   2.441
 3826TIP3   OH211483   5.862   5.141   1.138
 3826TIP3    H111484   5.862   5.136   1.042
 3826TIP3    H211485   5.770   5.134   1.162
 3827TIP3   OH211486   4.699   2.010   1.096
 3827TIP3    H111487   4.676   1.969   1.180
 3827TIP3    H211488   4.635   2.081   1.086
 3828TIP3   OH211489   0.751   4.166   3.968
 3828TIP3    H111490   0.704   4.084   3.953
 3828TIP3    H211491   0.840   4.138   3.992
 3829TIP3   OH211492   4.616   0.483   2.114
 3829TIP3    H111493   4.667   0.560   2.088
 3829TIP3    H211494   4.600   0.495   2.207
 3830TIP3   OH211495   2.299   0.893   2.193
 3830TIP3    H111496   2.387   0.891   2.230
 3830TIP3    H211497   2.246   0.842   2.254
 3831TIP3   OH211498   5.225   0.765   5.024
 3831TIP3    H111499   5.172   0.836   4.989
 3831TIP3    H211500   5.167   0.689   5.024
 3832TIP3   OH211501   2.691   3.125   0.238
 3832TIP3    H111502   2.723   3.126   0.328
 3832TIP3    H211503   2.767   3.146   0.185
 3833TIP3   OH211504   5.158   0.637   0.382
 3833TIP3    H111505   5.181   0.726   0.356
 3833TIP3    H211506   5.192   0.582   0.312
 3834TIP3   OH211507   4.615   0.739   4.317
 3834TIP3    H111508   4.621   0.833   4.331
 3834TIP3    H211509   4.576   0.729   4.230
 3835TIP3   OH211510   4.462   1.933   4.479
 3835TIP3    H111511   4.371   1.913   4.502
 3835TIP3    H211512   4.504   1.848   4.471
 3836TIP3   OH211513   6.075   2.025   1.939
 3836TIP3    H111514   6.143   2.008   1.874
 3836TIP3    H211515   5.996   2.039   1.888
 3837TIP3   OH211516   4.973   2.469   4.345
 3837TIP3    H111517   4.939   2.499   4.261
 3837TIP3    H211518   5.057   2.514   4.355
 3838TIP3   OH211519   3.702   1.510   3.149
 3838TIP3    H111520   3.767   1.460   3.198
 3838TIP3    H211521   3.642   1.443   3.115
 3839TIP3   OH211522   4.297   0.239   5.137
 3839TIP3    H111523   4.339   0.162   5.098
 3839TIP3    H211524   4.204   0.216   5.141
 3840TIP3   OH211525   1.738   4.657   3.991
 3840TIP3    H111526   1.710   4.568   4.012
 3840TIP3    H211527   1.657   4.708   3.992
 3841TIP3   OH211528   4.304   3.933   1.657
 3841TIP3    H111529   4.319   4.015   1.705
 3841TIP3    H211530   4.342   3.866   1.713
 3842TIP3   OH211531   5.533   4.209   4.158
 3842TIP3    H111532   5.492   4.263   4.225
 3842TIP3    H211533   5.596   4.155   4.206
 3843TIP3   OH211534   4.283   2.480   0.554
 3843TIP3    H111535   4.199   2.490   0.599
 3843TIP3    H211536   4.297   2.565   0.512
 3844TIP3   OH211537   2.631   1.436   4.563
 3844TIP3    H111538   2.539   1.408   4.564
 3844TIP3    H211539   2.651   1.449   4.470
 3845TIP3   OH211540   3.897   0.388   1.235
 3845TIP3    H111541   3.990   0.367   1.227
 3845TIP3    H211542   3.893   0.454   1.304
 3846TIP3   OH211543   4.160   0.336   1.146
 3846TIP3    H111544   4.213   0.355   1.068
 3846TIP3    H211545   4.213   0.369   1.219
 3847TIP3   OH211546   1.566   4.611   0.414
 3847TIP3    H111547   1.525   4.573   0.493
 3847TIP3    H211548   1.504   4.679   0.386
 3848TIP3   OH211549   1.014   0.899   4.407
 3848TIP3    H111550   1.032   0.820   4.459
 3848TIP3    H211551   0.934   0.935   4.444
 3849TIP3   OH211552   4.046   1.928   1.547
 3849TIP3    H111553   4.113   1.901   1.611
 3849TIP3    H211554   3.972   1.869   1.565
 3850TIP3   OH211555   2.551   0.650   3.017
 3850TIP3    H111556   2.507   0.566   3.020
 3850TIP3    H211557   2.481   0.715   3.020
 3851TIP3   OH211558   2.543   0.172   4.835
 3851TIP3    H111559   2.517   0.259   4.863
 3851TIP3    H211560   2.598   0.138   4.906
 3852TIP3   OH211561   6.332   1.201   0.180
 3852TIP3    H111562   6.372   1.119   0.210
 3852TIP3    H211563   6.243   1.177   0.156
 3853TIP3   OH211564   5.514   3.519   2.869
 3853TIP3    H111565   5.475   3.491   2.786
 3853TIP3    H211566   5.441   3.560   2.917
 3854TIP3   OH211567   1.276   1.527   4.965
 3854TIP3    H111568   1.274   1.431   4.968
 3854TIP3    H211569   1.352   1.552   5.018
 3855TIP3   OH211570   3.448   2.891   0.537
 3855TIP3    H111571   3.513   2.905   0.467
 3855TIP3    H211572   3.475   2.810   0.579
 3856TIP3   OH211573   4.349   2.764   0.538
 3856TIP3    H111574   4.265   2.793   0.571
 3856TIP3    H211575   4.333   2.741   0.447
 3857TIP3   OH211576   3.366   1.741   0.196
 3857TIP3    H111577   3.371   1.823   0.245
 3857TIP3    H211578   3.408   1.677   0.254
 3858TIP3   OH211579   1.328   5.946   1.535
 3858TIP3    H111580   1.313   6.023   1.589
 3858TIP3    H211581   1.407   5.966   1.485
 3859TIP3   OH211582   6.017   2.829   1.637
 3859TIP3    H111583   6.010   2.826   1.733
 3859TIP3    H211584   6.041   2.919   1.617
 3860TIP3   OH211585   4.581   3.461   2.123
 3860TIP3    H111586   4.532   3.537   2.153
 3860TIP3    H211587   4.570   3.397   2.193
 3861TIP3   OH211588   2.960   3.291   4.903
 3861TIP3    H111589   2.952   3.303   4.998
 3861TIP3    H211590   2.988   3.377   4.871
 3862TIP3   OH211591   5.899   2.379   3.412
 3862TIP3    H111592   5.883   2.285   3.406
 3862TIP3    H211593   5.949   2.390   3.493
 3863TIP3   OH211594   3.326   5.844   1.504
 3863TIP3    H111595   3.332   5.901   1.428
 3863TIP3    H211596   3.355   5.758   1.472
 3864TIP3   OH211597   6.020   3.893   4.243
 3864TIP3    H111598   6.001   3.882   4.337
 3864TIP3    H211599   6.014   3.987   4.228
 3865TIP3   OH211600   0.759   0.562   0.095
 3865TIP3    H111601   0.832   0.594   0.042
 3865TIP3    H211602   0.698   0.524   0.031
 3866TIP3   OH211603   0.104   4.441   0.053
 3866TIP3    H111604   0.042   4.404  -0.010
 3866TIP3    H211605   0.051   4.501   0.106
 3867TIP3   OH211606   6.248   5.432   0.197
 3867TIP3    H111607   6.184   5.500   0.176
 3867TIP3    H211608   6.330   5.481   0.211
 3868TIP3   OH211609   2.796   1.902   2.896
 3868TIP3    H111610   2.860   1.958   2.940
 3868TIP3    H211611   2.713   1.948   2.907
 3869TIP3   OH211612   1.894   5.523   1.534
 3869TIP3    H111613   1.873   5.613   1.508
 3869TIP3    H211614   1.984   5.529   1.566
 3870TIP3   OH211615   5.057   4.278   3.935
 3870TIP3    H111616   5.054   4.183   3.929
 3870TIP3    H211617   5.058   4.297   4.029
 3871TIP3   OH211618   1.830   5.019   4.144
 3871TIP3    H111619   1.889   4.947   4.169
 3871TIP3    H211620   1.860   5.093   4.197
 3872TIP3   OH211621   4.432   3.658   3.397
 3872TIP3    H111622   4.337   3.670   3.394
 3872TIP3    H211623   4.444   3.572   3.436
 3873TIP3   OH211624   5.679   2.219   4.538
 3873TIP3    H111625   5.610   2.190   4.478
 3873TIP3    H211626   5.648   2.192   4.625
 3874TIP3   OH211627   5.793   3.790   0.298
 3874TIP3    H111628   5.868   3.731   0.288
 3874TIP3    H211629   5.759   3.800   0.209
 3875TIP3   OH211630   3.504   4.474   1.061
 3875TIP3    H111631   3.599   4.464   1.056
 3875TIP3    H211632   3.478   4.498   0.972
 3876TIP3   OH211633   2.095   4.615   0.800
 3876TIP3    H111634   2.021   4.661   0.838
 3876TIP3    H211635   2.064   4.526   0.786
 3877TIP3   OH211636   3.695   2.018   0.272
 3877TIP3    H111637   3.612   2.015   0.320
 3877TIP3    H211638   3.762   2.025   0.341
 3878TIP3   OH211639   5.369   3.320   2.015
 3878TIP3    H111640   5.408   3.373   1.945
 3878TIP3    H211641   5.286   3.364   2.035
 3879TIP3   OH211642   0.225   0.993   1.414
 3879TIP3    H111643   0.186   0.975   1.329
 3879TIP3    H211644   0.151   1.020   1.469
 3880TIP3   OH211645   3.253   2.259   4.052
 3880TIP3    H111646   3.226   2.278   4.142
 3880TIP3    H211647   3.174   2.274   4.000
 3881TIP3   OH211648   4.041   3.514   2.893
 3881TIP3    H111649   4.004   3.596   2.862
 3881TIP3    H211650   4.098   3.485   2.821
 3882TIP3   OH211651   2.877   5.165   4.755
 3882TIP3    H111652   2.927   5.247   4.750
 3882TIP3    H211653   2.937   5.099   4.720
 3883TIP3   OH211654   5.378   3.181   1.116
 3883TIP3    H111655   5.409   3.263   1.155
 3883TIP3    H211656   5.372   3.200   1.022
 3884TIP3   OH211657   0.619   1.909   3.039
 3884TIP3    H111658   0.695   1.899   2.981
 3884TIP3    H211659   0.651   1.965   3.110
 3885TIP3   OH211660   2.655   2.272   4.870
 3885TIP3    H111661   2.581   2.326   4.897
 3885TIP3    H211662   2.719   2.334   4.836
 3886TIP3   OH211663   1.199   4.562   1.970
 3886TIP3    H111664   1.206   4.467   1.976
 3886TIP3    H211665   1.247   4.585   1.890
 3887TIP3   OH211666   4.527   1.659   2.217
 3887TIP3    H111667   4.602   1.698   2.262
 3887TIP3    H211668   4.495   1.729   2.159
 3888TIP3   OH211669   3.310   3.808   0.722
 3888TIP3    H111670   3.284   3.785   0.812
 3888TIP3    H211671   3.382   3.748   0.702
 3889TIP3   OH211672   5.125   0.058   2.565
 3889TIP3    H111673   5.102  -0.003   2.495
 3889TIP3    H211674   5.126   0.005   2.644
 3890TIP3   OH211675   1.638   0.426   4.062
 3890TIP3    H111676   1.595   0.395   4.141
 3890TIP3    H211677   1.723   0.383   4.062
 3891TIP3   OH211678   5.148   3.677   4.192
 3891TIP3    H111679   5.072   3.663   4.136
 3891TIP3    H211680   5.217   3.705   4.132
 3892TIP3   OH211681   0.697   0.246   4.704
 3892TIP3    H111682   0.703   0.228   4.798
 3892TIP3    H211683   0.724   0.338   4.696
 3893TIP3   OH211684   1.011   3.787   4.195
 3893TIP3    H111685   1.097   3.750   4.212
 3893TIP3    H211686   0.964   3.717   4.149
 3894TIP3   OH211687   5.698   3.557   2.148
 3894TIP3    H111688   5.620   3.557   2.093
 3894TIP3    H211689   5.681   3.490   2.214
 3895TIP3   OH211690   1.668   1.923   3.906
 3895TIP3    H111691   1.621   1.934   3.988
 3895TIP3    H211692   1.748   1.877   3.930
 3896TIP3   OH211693  -0.012   2.066   0.152
 3896TIP3    H111694   0.057   2.000   0.155
 3896TIP3    H211695   0.035   2.150   0.157
 3897TIP3   OH211696   5.125   4.803   1.132
 3897TIP3    H111697   5.168   4.811   1.046
 3897TIP3    H211698   5.070   4.725   1.124
 3898TIP3   OH211699   0.596   2.473   1.085
 3898TIP3    H111700   0.641   2.447   1.166
 3898TIP3    H211701   0.503   2.463   1.105
 3899TIP3   OH211702   1.105   1.945   2.707
 3899TIP3    H111703   1.044   1.893   2.759
 3899TIP3    H211704   1.085   2.036   2.732
 3900TIP3   OH211705   3.203   5.004   4.952
 3900TIP3    H111706   3.200   4.936   4.884
 3900TIP3    H211707   3.261   4.968   5.019
 3901TIP3   OH211708   0.862   1.592   0.774
 3901TIP3    H111709   0.805   1.525   0.736
 3901TIP3    H211710   0.890   1.645   0.699
 3902TIP3   OH211711   3.355   2.252   1.320
 3902TIP3    H111712   3.331   2.330   1.371
 3902TIP3    H211713   3.374   2.285   1.233
 3903TIP3   OH211714   2.853   0.144   2.471
 3903TIP3    H111715   2.827   0.230   2.503
 3903TIP3    H211716   2.916   0.112   2.535
 3904TIP3   OH211717   0.690   0.656   1.235
 3904TIP3    H111718   0.737   0.739   1.244
 3904TIP3    H211719   0.756   0.589   1.253
 3905TIP3   OH211720   2.256   5.259   2.310
 3905TIP3    H111721   2.308   5.228   2.236
 3905TIP3    H211722   2.319   5.292   2.373
 3906TIP3   OH211723   0.839   4.045   0.607
 3906TIP3    H111724   0.930   4.061   0.582
 3906TIP3    H211725   0.819   3.959   0.570
 3907TIP3   OH211726   0.756   3.090   3.307
 3907TIP3    H111727   0.829   3.130   3.355
 3907TIP3    H211728   0.678   3.130   3.346
 3908TIP3   OH211729   1.053   5.530   2.706
 3908TIP3    H111730   1.001   5.608   2.724
 3908TIP3    H211731   1.070   5.493   2.793
 3909TIP3   OH211732   3.352   4.219   0.474
 3909TIP3    H111733   3.265   4.257   0.462
 3909TIP3    H211734   3.387   4.211   0.385
 3910TIP3   OH211735   3.487   1.054   4.794
 3910TIP3    H111736   3.405   1.100   4.776
 3910TIP3    H211737   3.547   1.123   4.824
 3911TIP3   OH211738   0.147   3.598   3.943
 3911TIP3    H111739   0.094   3.551   4.007
 3911TIP3    H211740   0.099   3.680   3.927
 3912TIP3   OH211741   1.379   1.480   3.730
 3912TIP3    H111742   1.367   1.522   3.645
 3912TIP3    H211743   1.467   1.504   3.757
 3913TIP3   OH211744   0.947   5.566   5.037
 3913TIP3    H111745   0.869   5.612   5.065
 3913TIP3    H211746   1.019   5.610   5.082
 3914TIP3   OH211747   1.484   0.996   3.393
 3914TIP3    H111748   1.512   0.993   3.301
 3914TIP3    H211749   1.545   1.057   3.435
 3915TIP3   OH211750   5.750   4.904   3.235
 3915TIP3    H111751   5.836   4.935   3.263
 3915TIP3    H211752   5.691   4.977   3.254
 3916TIP3   OH211753   3.836   0.211   2.412
 3916TIP3    H111754   3.889   0.131   2.403
 3916TIP3    H211755   3.794   0.201   2.498
 3917TIP3   OH211756   1.387   0.028   2.814
 3917TIP3    H111757   1.482   0.028   2.808
 3917TIP3    H211758   1.361   0.118   2.793
 3918TIP3   OH211759   1.337   0.377   1.878
 3918TIP3    H111760   1.272   0.343   1.940
 3918TIP3    H211761   1.366   0.300   1.830
 3919TIP3   OH211762   3.407   5.922   4.237
 3919TIP3    H111763   3.477   5.945   4.176
 3919TIP3    H211764   3.327   5.954   4.196
 3920TIP3   OH211765   4.266   0.241   3.042
 3920TIP3    H111766   4.225   0.210   3.123
 3920TIP3    H211767   4.296   0.161   2.998
 3921TIP3   OH211768   0.344   2.173   3.721
 3921TIP3    H111769   0.338   2.263   3.753
 3921TIP3    H211770   0.399   2.128   3.785
 3922TIP3   OH211771   3.257   4.318   4.740
 3922TIP3    H111772   3.333   4.297   4.687
 3922TIP3    H211773   3.195   4.247   4.722
 3923TIP3   OH211774   2.583   2.491   1.875
 3923TIP3    H111775   2.494   2.508   1.843
 3923TIP3    H211776   2.636   2.483   1.795
 3924TIP3   OH211777   2.517   3.609   2.635
 3924TIP3    H111778   2.587   3.628   2.573
 3924TIP3    H211779   2.555   3.545   2.695
 3925TIP3   OH211780   5.453   4.028   2.334
 3925TIP3    H111781   5.493   4.017   2.248
 3925TIP3    H211782   5.392   4.100   2.323
 3926TIP3   OH211783   0.536   2.484   0.263
 3926TIP3    H111784   0.531   2.575   0.232
 3926TIP3    H211785   0.563   2.492   0.354
 3927TIP3   OH211786   5.654   5.403   3.100
 3927TIP3    H111787   5.609   5.464   3.042
 3927TIP3    H211788   5.612   5.415   3.185
 3928TIP3   OH211789   2.947   0.754   4.558
 3928TIP3    H111790   2.950   0.716   4.646
 3928TIP3    H211791   2.952   0.849   4.572
 3929TIP3   OH211792   5.709   2.769   1.114
 3929TIP3    H111793   5.694   2.800   1.025
 3929TIP3    H211794   5.728   2.848   1.164
 3930TIP3   OH211795   2.739   2.280   2.351
 3930TIP3    H111796   2.660   2.310   2.304
 3930TIP3    H211797   2.779   2.360   2.384
 3931TIP3   OH211798   5.621   2.802   0.366
 3931TIP3    H111799   5.547   2.849   0.329
 3931TIP3    H211800   5.695   2.862   0.355
 3932TIP3   OH211801   4.568   0.984   3.906
 3932TIP3    H111802   4.611   1.069   3.904
 3932TIP3    H211803   4.550   0.964   3.814
 3933TIP3   OH211804   0.712   4.091   1.092
 3933TIP3    H111805   0.779   4.072   1.157
 3933TIP3    H211806   0.756   4.078   1.008
 3934TIP3   OH211807   0.643   3.168   2.078
 3934TIP3    H111808   0.578   3.164   2.008
 3934TIP3    H211809   0.696   3.089   2.066
 3935TIP3   OH211810   5.582   4.202   4.646
 3935TIP3    H111811   5.556   4.117   4.610
 3935TIP3    H211812   5.670   4.217   4.612
 3936TIP3   OH211813   1.476   1.938   1.980
 3936TIP3    H111814   1.530   1.986   2.043
 3936TIP3    H211815   1.526   1.859   1.962
 3937TIP3   OH211816   2.665   0.855   4.145
 3937TIP3    H111817   2.607   0.781   4.123
 3937TIP3    H211818   2.739   0.845   4.086
 3938TIP3   OH211819   4.601   2.638   1.050
 3938TIP3    H111820   4.672   2.697   1.075
 3938TIP3    H211821   4.524   2.671   1.097
 3939TIP3   OH211822   5.337   0.247   3.129
 3939TIP3    H111823   5.289   0.244   3.047
 3939TIP3    H211824   5.393   0.324   3.121
 3940TIP3   OH211825   0.927   0.290   2.007
 3940TIP3    H111826   0.957   0.313   2.095
 3940TIP3    H211827   1.002   0.247   1.967
 3941TIP3   OH211828   1.186   0.162   3.547
 3941TIP3    H111829   1.186   0.252   3.579
 3941TIP3    H211830   1.177   0.171   3.452
 3942TIP3   OH211831   2.322   3.238   0.415
 3942TIP3    H111832   2.396   3.299   0.413
 3942TIP3    H211833   2.246   3.293   0.435
 3943TIP3   OH211834   5.901   3.120   2.790
 3943TIP3    H111835   5.931   3.202   2.750
 3943TIP3    H211836   5.870   3.146   2.877
 3944TIP3   OH211837   2.558   1.652   0.856
 3944TIP3    H111838   2.583   1.732   0.808
 3944TIP3    H211839   2.623   1.587   0.829
 3945TIP3   OH211840   5.335   3.258   0.831
 3945TIP3    H111841   5.361   3.222   0.746
 3945TIP3    H211842   5.340   3.352   0.820
 3946TIP3   OH211843   1.904   4.170   3.855
 3946TIP3    H111844   1.831   4.109   3.861
 3946TIP3    H211845   1.912   4.207   3.943
 3947TIP3   OH211846   1.887   2.894   4.057
 3947TIP3    H111847   1.955   2.876   4.122
 3947TIP3    H211848   1.817   2.832   4.077
 3948TIP3   OH211849   3.146   4.240   2.148
 3948TIP3    H111850   3.172   4.155   2.185
 3948TIP3    H211851   3.137   4.223   2.054
 3949TIP3   OH211852   0.533   2.222   3.395
 3949TIP3    H111853   0.496   2.217   3.307
 3949TIP3    H211854   0.465   2.266   3.447
 3950TIP3   OH211855   3.309   1.413   0.025
 3950TIP3    H111856   3.355   1.477  -0.031
 3950TIP3    H211857   3.255   1.467   0.083
 3951TIP3   OH211858   2.678   3.725   0.859
 3951TIP3    H111859   2.740   3.786   0.821
 3951TIP3    H211860   2.730   3.675   0.923
 3952TIP3   OH211861   5.233   2.229   0.966
 3952TIP3    H111862   5.206   2.261   0.880
 3952TIP3    H211863   5.311   2.280   0.988
 3953TIP3   OH211864   4.805   4.045   4.527
 3953TIP3    H111865   4.758   3.997   4.595
 3953TIP3    H211866   4.817   3.981   4.457
 3954TIP3   OH211867   0.653   4.403   2.423
 3954TIP3    H111868   0.670   4.391   2.330
 3954TIP3    H211869   0.693   4.487   2.444
 3955TIP3   OH211870   6.072   0.052   4.358
 3955TIP3    H111871   6.142   0.087   4.302
 3955TIP3    H211872   5.999   0.035   4.299
 3956TIP3   OH211873   4.642   0.871   0.088
 3956TIP3    H111874   4.565   0.859   0.032
 3956TIP3    H211875   4.691   0.942   0.047
 3957TIP3   OH211876   6.016   2.639   0.775
 3957TIP3    H111877   6.079   2.599   0.834
 3957TIP3    H211878   5.931   2.619   0.815
 3958TIP3   OH211879   4.579   4.010   4.873
 3958TIP3    H111880   4.571   3.975   4.784
 3958TIP3    H211881   4.513   4.079   4.878
 3959TIP3   OH211882   0.394   5.218   1.772
 3959TIP3    H111883   0.306   5.193   1.798
 3959TIP3    H211884   0.397   5.203   1.678
 3960TIP3   OH211885   1.755   2.756   0.372
 3960TIP3    H111886   1.797   2.807   0.303
 3960TIP3    H211887   1.825   2.735   0.434
 3961TIP3   OH211888   6.187   4.763   1.996
 3961TIP3    H111889   6.219   4.810   1.919
 3961TIP3    H211890   6.102   4.727   1.969
 3962TIP3   OH211891   2.851   5.453   3.245
 3962TIP3    H111892   2.938   5.492   3.234
 3962TIP3    H211893   2.859   5.399   3.323
 3963TIP3   OH211894   1.639   2.143   4.577
 3963TIP3    H111895   1.589   2.061   4.580
 3963TIP3    H211896   1.706   2.128   4.511
 3964TIP3   OH211897   0.177   4.176   4.166
 3964TIP3    H111898   0.176   4.099   4.222
 3964TIP3    H211899   0.196   4.142   4.079
 3965TIP3   OH211900   2.279   5.264   5.084
 3965TIP3    H111901   2.333   5.185   5.091
 3965TIP3    H211902   2.340   5.336   5.101
 3966TIP3   OH211903   6.311   0.982   0.612
 3966TIP3    H111904   6.264   1.051   0.659
 3966TIP3    H211905   6.243   0.918   0.590
 3967TIP3   OH211906   6.244   1.018   1.891
 3967TIP3    H111907   6.223   0.931   1.926
 3967TIP3    H211908   6.323   1.004   1.838
 3968TIP3   OH211909   0.856   4.214   4.979
 3968TIP3    H111910   0.854   4.301   4.938
 3968TIP3    H211911   0.857   4.153   4.905
 3969TIP3   OH211912   4.847   3.875   2.182
 3969TIP3    H111913   4.941   3.882   2.196
 3969TIP3    H211914   4.808   3.922   2.255
 3970TIP3   OH211915   4.606   4.682   4.432
 3970TIP3    H111916   4.570   4.594   4.424
 3970TIP3    H211917   4.660   4.692   4.354
 3971TIP3   OH211918   3.622   3.766   0.333
 3971TIP3    H111919   3.536   3.732   0.308
 3971TIP3    H211920   3.673   3.688   0.355
 3972TIP3   OH211921   4.769   2.327   3.383
 3972TIP3    H111922   4.809   2.414   3.387
 3972TIP3    H211923   4.754   2.304   3.475
 3973TIP3   OH211924   0.084   0.625   3.461
 3973TIP3    H111925   0.095   0.601   3.369
 3973TIP3    H211926  -0.002   0.589   3.484
 3974TIP3   OH211927   4.767   4.783   4.746
 3974TIP3    H111928   4.855   4.778   4.783
 3974TIP3    H211929   4.770   4.727   4.669
 3975TIP3   OH211930   1.425   2.582   3.849
 3975TIP3    H111931   1.374   2.630   3.783
 3975TIP3    H211932   1.510   2.568   3.807
 3976TIP3   OH211933   5.211   1.456   2.305
 3976TIP3    H111934   5.213   1.363   2.327
 3976TIP3    H211935   5.123   1.485   2.328
 3977TIP3   OH211936   4.844   3.803   2.464
 3977TIP3    H111937   4.825   3.839   2.551
 3977TIP3    H211938   4.809   3.713   2.467
 3978TIP3   OH211939   1.481   4.149   4.307
 3978TIP3    H111940   1.564   4.132   4.351
 3978TIP3    H211941   1.496   4.121   4.217
 3979TIP3   OH211942   1.757   0.433   2.985
 3979TIP3    H111943   1.704   0.421   2.906
 3979TIP3    H211944   1.753   0.349   3.030
 3980TIP3   OH211945   2.558   4.286   2.877
 3980TIP3    H111946   2.524   4.334   2.801
 3980TIP3    H211947   2.491   4.219   2.895
 3981TIP3   OH211948   1.340   3.949   4.929
 3981TIP3    H111949   1.303   3.998   4.856
 3981TIP3    H211950   1.334   4.008   5.004
 3982TIP3   OH211951   5.947   4.482   4.732
 3982TIP3    H111952   5.941   4.399   4.685
 3982TIP3    H211953   5.857   4.502   4.757
 3983TIP3   OH211954   0.391   2.360   3.996
 3983TIP3    H111955   0.429   2.273   3.979
 3983TIP3    H211956   0.427   2.384   4.082
 3984TIP3   OH211957   6.109   1.758   3.268
 3984TIP3    H111958   6.154   1.706   3.201
 3984TIP3    H211959   6.178   1.781   3.330
 3985TIP3   OH211960   1.547   3.533   0.197
 3985TIP3    H111961   1.589   3.499   0.277
 3985TIP3    H211962   1.455   3.508   0.206
 3986TIP3   OH211963   6.256   3.233   1.716
 3986TIP3    H111964   6.281   3.305   1.774
 3986TIP3    H211965   6.182   3.192   1.760
 3987TIP3   OH211966   5.151   5.159   2.626
 3987TIP3    H111967   5.147   5.092   2.557
 3987TIP3    H211968   5.082   5.221   2.603
 3988TIP3   OH211969   4.333   1.470   2.652
 3988TIP3    H111970   4.284   1.477   2.734
 3988TIP3    H211971   4.408   1.528   2.664
 3989TIP3   OH211972   3.053   0.295   0.067
 3989TIP3    H111973   3.097   0.218   0.102
 3989TIP3    H211974   3.109   0.368   0.092
 3990TIP3   OH211975   3.597   2.233   3.056
 3990TIP3    H111976   3.512   2.206   3.090
 3990TIP3    H211977   3.633   2.154   3.016
 3991TIP3   OH211978   4.147   5.392   1.105
 3991TIP3    H111979   4.097   5.315   1.078
 3991TIP3    H211980   4.170   5.435   1.023
 3992TIP3   OH211981   1.864   3.432   0.156
 3992TIP3    H111982   1.826   3.494   0.218
 3992TIP3    H211983   1.838   3.346   0.188
 3993TIP3   OH211984   5.891   0.778   3.108
 3993TIP3    H111985   5.870   0.866   3.078
 3993TIP3    H211986   5.818   0.753   3.165
 3994TIP3   OH211987   5.168   3.492   0.698
 3994TIP3    H111988   5.123   3.574   0.718
 3994TIP3    H211989   5.260   3.511   0.718
 3995TIP3   OH211990   5.675   1.776   3.583
 3995TIP3    H111991   5.638   1.688   3.595
 3995TIP3    H211992   5.690   1.808   3.672
 3996TIP3   OH211993   5.715   1.211   0.293
 3996TIP3    H111994   5.802   1.246   0.312
 3996TIP3    H211995   5.702   1.230   0.200
 3997TIP3   OH211996   1.480   2.686   0.361
 3997TIP3    H111997   1.451   2.596   0.347
 3997TIP3    H211998   1.571   2.678   0.388
 3998TIP3   OH211999   2.064   2.420   3.166
 3998TIP3    H112000   2.051   2.408   3.072
 3998TIP3    H212001   1.976   2.410   3.204
 3999TIP3   OH212002   2.135   1.042   1.537
 3999TIP3    H112003   2.148   0.988   1.458
 3999TIP3    H212004   2.040   1.054   1.543
 4000TIP3   OH212005   3.593   5.262   2.498
 4000TIP3    H112006   3.510   5.266   2.452
 4000TIP3    H212007   3.602   5.170   2.523
 4001TIP3   OH212008   2.400   5.819   0.140
 4001TIP3    H112009   2.475   5.760   0.126
 4001TIP3    H212010   2.381   5.811   0.234
 4002TIP3   OH212011   4.863   1.103   4.454
 4002TIP3    H112012   4.914   1.133   4.530
 4002TIP3    H212013   4.841   1.012   4.474
 4003TIP3   OH212014   1.910   1.308   4.909
 4003TIP3    H112015   1.999   1.306   4.874
 4003TIP3    H212016   1.905   1.233   4.968
 4004TIP3   OH212017   0.552   2.044   4.298
 4004TIP3    H112018   0.624   2.104   4.281
 4004TIP3    H212019   0.480   2.078   4.244
 4005TIP3   OH212020   3.825   0.982   2.700
 4005TIP3    H112021   3.751   1.036   2.673
 4005TIP3    H212022   3.845   0.928   2.624
 4006TIP3   OH212023   4.533   5.898   0.816
 4006TIP3    H112024   4.603   5.955   0.848
 4006TIP3    H212025   4.567   5.809   0.830
 4007TIP3   OH212026   5.761   3.336   3.264
 4007TIP3    H112027   5.804   3.388   3.332
 4007TIP3    H212028   5.710   3.400   3.214
 4008TIP3   OH212029   1.668   4.273   2.686
 4008TIP3    H112030   1.579   4.237   2.697
 4008TIP3    H212031   1.726   4.204   2.719
 4009TIP3   OH212032   4.034   1.399   3.590
 4009TIP3    H112033   4.096   1.455   3.544
 4009TIP3    H212034   4.084   1.320   3.611
 4010TIP3   OH212035   2.731   0.943   3.667
 4010TIP3    H112036   2.801   0.881   3.687
 4010TIP3    H212037   2.764   0.994   3.594
 4011TIP3   OH212038   3.842   5.528   1.428
 4011TIP3    H112039   3.777   5.582   1.383
 4011TIP3    H212040   3.923   5.545   1.381
 4012TIP3   OH212041   5.569   1.325   3.226
 4012TIP3    H112042   5.480   1.297   3.248
 4012TIP3    H212043   5.613   1.335   3.310
 4013TIP3   OH212044   0.193   1.347   3.618
 4013TIP3    H112045   0.122   1.294   3.582
 4013TIP3    H212046   0.157   1.385   3.698
 4014TIP3   OH212047   5.792   1.792   3.842
 4014TIP3    H112048   5.784   1.849   3.918
 4014TIP3    H212049   5.847   1.720   3.872
 4015TIP3   OH212050   4.039   0.048   2.003
 4015TIP3    H112051   4.063   0.127   2.052
 4015TIP3    H212052   4.106  -0.016   2.026
 4016TIP3   OH212053   5.209   1.169   2.096
 4016TIP3    H112054   5.122   1.130   2.088
 4016TIP3    H212055   5.221   1.181   2.190
 4017TIP3   OH212056   2.866   3.894   4.175
 4017TIP3    H112057   2.774   3.895   4.147
 4017TIP3    H212058   2.877   3.977   4.223
 4018TIP3   OH212059   5.519   4.760   2.047
 4018TIP3    H112060   5.513   4.665   2.035
 4018TIP3    H212061   5.500   4.773   2.140
 4019TIP3   OH212062   5.865   3.968   1.967
 4019TIP3    H112063   5.900   3.881   1.985
 4019TIP3    H212064   5.921   4.028   2.017
 4020TIP3   OH212065   5.084   3.129   3.225
 4020TIP3    H112066   4.989   3.133   3.212
 4020TIP3    H212067   5.117   3.088   3.145
 4021TIP3   OH212068   0.986   4.797   5.051
 4021TIP3    H112069   1.031   4.848   5.119
 4021TIP3    H212070   0.992   4.706   5.081
 4022TIP3   OH212071   0.577   4.037   2.179
 4022TIP3    H112072   0.637   4.110   2.192
 4022TIP3    H212073   0.490   4.075   2.188
 4023TIP3   OH212074   5.226   0.107   3.565
 4023TIP3    H112075   5.253   0.101   3.657
 4023TIP3    H212076   5.130   0.111   3.569
 4024TIP3   OH212077   5.911   0.504   3.503
 4024TIP3    H112078   5.909   0.594   3.469
 4024TIP3    H212079   5.851   0.506   3.577
 4025TIP3   OH212080   3.766   5.744   1.628
 4025TIP3    H112081   3.804   5.679   1.569
 4025TIP3    H212082   3.821   5.740   1.707
 4026TIP3   OH212083   6.071   5.869   1.102
 4026TIP3    H112084   6.121   5.789   1.118
 4026TIP3    H212085   6.137   5.935   1.080
 4027TIP3   OH212086   2.136   1.895   0.484
 4027TIP3    H112087   2.146   1.842   0.563
 4027TIP3    H212088   2.208   1.868   0.427
 4028TIP3   OH212089   1.209   2.663   3.690
 4028TIP3    H112090   1.125   2.655   3.735
 4028TIP3    H212091   1.219   2.757   3.675
 4029TIP3   OH212092   3.347   0.796   5.131
 4029TIP3    H112093   3.389   0.797   5.045
 4029TIP3    H212094   3.319   0.886   5.145
 4030TIP3   OH212095   2.724   5.037   1.949
 4030TIP3    H112096   2.762   5.107   2.003
 4030TIP3    H212097   2.725   4.960   2.006
 4031TIP3   OH212098   5.677   5.914   1.280
 4031TIP3    H112099   5.742   5.973   1.241
 4031TIP3    H212100   5.695   5.829   1.239
 4032TIP3   OH212101   3.853   0.395   2.887
 4032TIP3    H112102   3.857   0.487   2.860
 4032TIP3    H212103   3.877   0.397   2.980
 4033TIP3   OH212104   2.616   0.471   1.190
 4033TIP3    H112105   2.630   0.405   1.259
 4033TIP3    H212106   2.524   0.461   1.166
 4034TIP3   OH212107   3.779   5.502   3.701
 4034TIP3    H112108   3.715   5.572   3.710
 4034TIP3    H212109   3.777   5.456   3.785
 4035TIP3   OH212110   1.354   5.888   0.350
 4035TIP3    H112111   1.380   5.969   0.305
 4035TIP3    H212112   1.423   5.825   0.329
 4036TIP3   OH212113   5.648   4.597   4.767
 4036TIP3    H112114   5.563   4.635   4.746
 4036TIP3    H212115   5.628   4.514   4.810
 4037TIP3   OH212116   0.312   4.863   3.508
 4037TIP3    H112117   0.264   4.848   3.426
 4037TIP3    H212118   0.391   4.810   3.500
 4038TIP3   OH212119   6.180   1.228   1.420
 4038TIP3    H112120   6.222   1.179   1.350
 4038TIP3    H212121   6.102   1.176   1.443
 4039TIP3   OH212122   2.947   3.837   4.824
 4039TIP3    H112123   2.944   3.813   4.732
 4039TIP3    H212124   3.035   3.810   4.852
 4040TIP3   OH212125   2.679   0.974   3.192
 4040TIP3    H112126   2.689   0.991   3.099
 4040TIP3    H212127   2.759   0.927   3.217
 4041TIP3   OH212128   2.936   4.377   2.289
 4041TIP3    H112129   2.899   4.427   2.215
 4041TIP3    H212130   3.007   4.326   2.250
 4042TIP3   OH212131   1.084   0.533   0.379
 4042TIP3    H112132   1.065   0.601   0.444
 4042TIP3    H212133   0.999   0.502   0.350
 4043TIP3   OH212134   0.053   4.860   3.658
 4043TIP3    H112135   0.032   4.914   3.582
 4043TIP3    H212136   0.145   4.836   3.646
 4044TIP3   OH212137   4.319   2.430   1.947
 4044TIP3    H112138   4.237   2.469   1.977
 4044TIP3    H212139   4.342   2.367   2.015
 4045TIP3   OH212140   1.695   0.824   5.059
 4045TIP3    H112141   1.721   0.732   5.070
 4045TIP3    H212142   1.718   0.844   4.968
 4046TIP3   OH212143   2.109   0.435   3.944
 4046TIP3    H112144   2.129   0.405   4.033
 4046TIP3    H212145   2.126   0.529   3.946
 4047TIP3   OH212146   1.612   5.919   5.034
 4047TIP3    H112147   1.639   5.828   5.041
 4047TIP3    H212148   1.642   5.946   4.948
 4048TIP3   OH212149   3.134   1.309   4.069
 4048TIP3    H112150   3.220   1.301   4.111
 4048TIP3    H212151   3.104   1.396   4.093
 4049TIP3   OH212152   2.856   3.093   4.646
 4049TIP3    H112153   2.899   3.009   4.661
 4049TIP3    H212154   2.797   3.104   4.720
 4050TIP3   OH212155   3.591   0.054   4.536
 4050TIP3    H112156   3.620  -0.037   4.547
 4050TIP3    H212157   3.547   0.075   4.619
 4051TIP3   OH212158   3.171   1.529   0.249
 4051TIP3    H112159   3.121   1.448   0.237
 4051TIP3    H212160   3.181   1.538   0.344
 4052TIP3   OH212161   6.095   0.598   3.242
 4052TIP3    H112162   6.144   0.674   3.275
 4052TIP3    H212163   6.014   0.635   3.206
 4053TIP3   OH212164   1.745   5.569   3.800
 4053TIP3    H112165   1.802   5.502   3.838
 4053TIP3    H212166   1.733   5.542   3.709
 4054TIP3   OH212167   1.805   5.396   2.642
 4054TIP3    H112168   1.827   5.425   2.554
 4054TIP3    H212169   1.881   5.344   2.670
 4055TIP3   OH212170   0.051   0.363   0.359
 4055TIP3    H112171  -0.008   0.324   0.423
 4055TIP3    H212172   0.130   0.309   0.363
 4056TIP3   OH212173   3.992   4.032   1.144
 4056TIP3    H112174   4.082   4.009   1.123
 4056TIP3    H212175   3.983   4.012   1.237
 4057TIP3   OH212176   6.018   2.620   5.177
 4057TIP3    H112177   5.984   2.545   5.225
 4057TIP3    H212178   6.020   2.591   5.085
 4058TIP3   OH212179   3.508   2.722   1.697
 4058TIP3    H112180   3.587   2.776   1.700
 4058TIP3    H212181   3.529   2.653   1.634
 4059TIP3   OH212182   2.153   3.217   4.359
 4059TIP3    H112183   2.126   3.232   4.450
 4059TIP3    H212184   2.170   3.123   4.354
 4060TIP3   OH212185   4.504   4.169   3.012
 4060TIP3    H112186   4.501   4.251   2.963
 4060TIP3    H212187   4.541   4.105   2.951
 4061TIP3   OH212188   0.448   3.748   2.595
 4061TIP3    H112189   0.473   3.737   2.687
 4061TIP3    H212190   0.483   3.833   2.571
 4062TIP3   OH212191   4.508   1.105   4.759
 4062TIP3    H112192   4.415   1.091   4.778
 4062TIP3    H212193   4.540   1.020   4.730
 4063TIP3   OH212194   4.072   2.231   2.952
 4063TIP3    H112195   4.116   2.170   2.893
 4063TIP3    H212196   4.115   2.315   2.935
 4064TIP3   OH212197   3.955   4.395   3.932
 4064TIP3    H112198   3.905   4.315   3.949
 4064TIP3    H212199   3.888   4.464   3.925
 4065TIP3   OH212200   0.269   2.302   0.878
 4065TIP3    H112201   0.257   2.376   0.938
 4065TIP3    H212202   0.349   2.324   0.830
 4066TIP3   OH212203   1.348   2.204   3.910
 4066TIP3    H112204   1.368   2.245   3.994
 4066TIP3    H212205   1.430   2.161   3.884
 4067TIP3   OH212206   0.719   4.604   4.198
 4067TIP3    H112207   0.689   4.572   4.284
 4067TIP3    H212208   0.701   4.532   4.138
 4068TIP3   OH212209   1.091   2.203   2.775
 4068TIP3    H112210   1.125   2.292   2.769
 4068TIP3    H212211   1.047   2.200   2.860
 4069TIP3   OH212212   3.674   3.183   1.928
 4069TIP3    H112213   3.613   3.110   1.918
 4069TIP3    H212214   3.640   3.252   1.871
 4070TIP3   OH212215   2.522   2.525   0.922
 4070TIP3    H112216   2.550   2.461   0.987
 4070TIP3    H212217   2.434   2.550   0.949
 4071TIP3   OH212218   4.903   3.121   2.953
 4071TIP3    H112219   4.842   3.109   2.880
 4071TIP3    H212220   4.945   3.205   2.936
 4072TIP3   OH212221   4.664   3.819   3.678
 4072TIP3    H112222   4.678   3.889   3.614
 4072TIP3    H212223   4.694   3.739   3.633
 4073TIP3   OH212224   4.526   3.028   2.460
 4073TIP3    H112225   4.529   3.021   2.556
 4073TIP3    H212226   4.561   2.945   2.429
 4074TIP3   OH212227   5.152   0.208   1.704
 4074TIP3    H112228   5.185   0.232   1.790
 4074TIP3    H212229   5.160   0.113   1.700
 4075TIP3   OH212230   2.860   3.642   0.613
 4075TIP3    H112231   2.852   3.732   0.643
 4075TIP3    H212232   2.821   3.590   0.684
 4076TIP3   OH212233   4.584   1.362   5.177
 4076TIP3    H112234   4.572   1.421   5.103
 4076TIP3    H212235   4.495   1.340   5.205
 4077TIP3   OH212236   5.860   0.005   2.049
 4077TIP3    H112237   5.924   0.044   2.108
 4077TIP3    H212238   5.911  -0.036   1.980
 4078TIP3   OH212239   4.046   1.647   1.856
 4078TIP3    H112240   4.011   1.687   1.935
 4078TIP3    H212241   4.098   1.716   1.815
 4079TIP3   OH212242   2.566   0.776   0.663
 4079TIP3    H112243   2.553   0.813   0.575
 4079TIP3    H212244   2.489   0.722   0.678
 4080TIP3   OH212245   3.130   4.289   2.704
 4080TIP3    H112246   3.123   4.193   2.701
 4080TIP3    H212247   3.047   4.320   2.669
 4081TIP3   OH212248   0.826   5.509   0.385
 4081TIP3    H112249   0.902   5.509   0.442
 4081TIP3    H212250   0.862   5.508   0.296
 4082TIP3   OH212251   3.617   3.232   4.605
 4082TIP3    H112252   3.640   3.213   4.696
 4082TIP3    H212253   3.682   3.183   4.554
 4083TIP3   OH212254   1.927   2.969   1.827
 4083TIP3    H112255   1.875   2.982   1.748
 4083TIP3    H212256   2.017   2.991   1.801
 4084TIP3   OH212257   3.770   3.412   3.606
 4084TIP3    H112258   3.753   3.448   3.693
 4084TIP3    H212259   3.864   3.425   3.593
 4085TIP3   OH212260   1.405   5.420   4.869
 4085TIP3    H112261   1.312   5.406   4.852
 4085TIP3    H212262   1.432   5.482   4.801
 4086TIP3   OH212263   4.870   5.410   4.913
 4086TIP3    H112264   4.860   5.322   4.949
 4086TIP3    H212265   4.797   5.419   4.851
 4087TIP3   OH212266   3.236   4.580   0.076
 4087TIP3    H112267   3.192   4.596  -0.007
 4087TIP3    H212268   3.226   4.486   0.091
 4088TIP3   OH212269   0.828   2.203   1.935
 4088TIP3    H112270   0.784   2.230   2.016
 4088TIP3    H212271   0.873   2.282   1.905
 4089TIP3   OH212272   4.580   3.721   2.696
 4089TIP3    H112273   4.523   3.654   2.659
 4089TIP3    H212274   4.668   3.683   2.691
 4090TIP3   OH212275   0.417   1.348   0.474
 4090TIP3    H112276   0.342   1.288   0.469
 4090TIP3    H212277   0.485   1.307   0.421
 4091TIP3   OH212278   3.024   4.851   1.948
 4091TIP3    H112279   3.046   4.928   2.000
 4091TIP3    H212280   3.004   4.783   2.012
 4092TIP3   OH212281   3.745   1.853   4.471
 4092TIP3    H112282   3.758   1.943   4.501
 4092TIP3    H212283   3.737   1.860   4.375
 4093TIP3   OH212284   3.136   1.099   2.365
 4093TIP3    H112285   3.219   1.107   2.412
 4093TIP3    H212286   3.102   1.189   2.360
 4094TIP3   OH212287   3.573   2.936   4.460
 4094TIP3    H112288   3.582   2.938   4.556
 4094TIP3    H212289   3.663   2.936   4.428
 4095TIP3   OH212290   0.893   2.587   4.570
 4095TIP3    H112291   0.846   2.669   4.583
 4095TIP3    H212292   0.886   2.541   4.654
 4096TIP3   OH212293   5.394   2.883   3.007
 4096TIP3    H112294   5.310   2.840   2.993
 4096TIP3    H212295   5.459   2.817   2.982
 4097TIP3   OH212296   2.114   2.041   2.117
 4097TIP3    H112297   2.068   2.042   2.201
 4097TIP3    H212298   2.152   2.128   2.109
 4098TIP3   OH212299   1.444   3.591   0.654
 4098TIP3    H112300   1.502   3.578   0.729
 4098TIP3    H212301   1.490   3.549   0.581
 4099TIP3   OH212302   5.064   5.659   2.036
 4099TIP3    H112303   5.023   5.658   2.122
 4099TIP3    H212304   5.082   5.751   2.018
 4100TIP3   OH212305   2.224   3.382   1.630
 4100TIP3    H112306   2.207   3.343   1.715
 4100TIP3    H212307   2.138   3.411   1.598
 4101TIP3   OH212308   2.046   2.659   0.681
 4101TIP3    H112309   1.971   2.613   0.643
 4101TIP3    H212310   2.118   2.597   0.673
 4102TIP3   OH212311   0.052   1.331   1.170
 4102TIP3    H112312  -0.005   1.254   1.165
 4102TIP3    H212313   0.137   1.296   1.194
 4103TIP3   OH212314   1.014   3.324   0.856
 4103TIP3    H112315   1.083   3.338   0.921
 4103TIP3    H212316   1.046   3.252   0.802
 4104TIP3   OH212317   4.313   5.129   1.332
 4104TIP3    H112318   4.298   5.054   1.276
 4104TIP3    H212319   4.225   5.159   1.356
 4105TIP3   OH212320   1.167   5.339   0.368
 4105TIP3    H112321   1.171   5.410   0.433
 4105TIP3    H212322   1.211   5.266   0.411
 4106TIP3   OH212323   6.339   2.758   1.273
 4106TIP3    H112324   6.271   2.819   1.245
 4106TIP3    H212325   6.332   2.756   1.369
 4107TIP3   OH212326   1.819   0.447   1.974
 4107TIP3    H112327   1.741   0.417   1.926
 4107TIP3    H212328   1.891   0.438   1.911
 4108TIP3   OH212329   0.746   4.245   2.928
 4108TIP3    H112330   0.715   4.179   2.866
 4108TIP3    H212331   0.682   4.316   2.922
 4109TIP3   OH212332   3.541   1.388   2.290
 4109TIP3    H112333   3.478   1.329   2.332
 4109TIP3    H212334   3.526   1.376   2.197
 4110TIP3   OH212335   2.742   0.589   4.456
 4110TIP3    H112336   2.825   0.624   4.489
 4110TIP3    H212337   2.675   0.638   4.503
 4111TIP3   OH212338   0.166   0.340   4.678
 4111TIP3    H112339   0.117   0.422   4.680
 4111TIP3    H212340   0.111   0.278   4.726
 4112TIP3   OH212341   2.321   1.056   1.719
 4112TIP3    H112342   2.397   1.014   1.681
 4112TIP3    H212343   2.250   1.037   1.658
 4113TIP3   OH212344  -0.010   0.604   2.469
 4113TIP3    H112345  -0.048   0.681   2.511
 4113TIP3    H212346   0.081   0.628   2.453
 4114TIP3   OH212347   4.967   4.673   4.048
 4114TIP3    H112348   4.996   4.741   3.988
 4114TIP3    H212349   5.034   4.604   4.039
 4115TIP3   OH212350   2.734   4.862   4.728
 4115TIP3    H112351   2.644   4.831   4.713
 4115TIP3    H212352   2.744   4.862   4.823
 4116TIP3   OH212353   2.271   2.884   2.368
 4116TIP3    H112354   2.314   2.845   2.292
 4116TIP3    H212355   2.243   2.970   2.338
 4117TIP3   OH212356   4.006   2.309   3.193
 4117TIP3    H112357   3.998   2.284   3.101
 4117TIP3    H212358   4.095   2.284   3.217
 4118TIP3   OH212359   2.108   1.249   2.595
 4118TIP3    H112360   2.173   1.305   2.552
 4118TIP3    H212361   2.151   1.220   2.676
 4119TIP3   OH212362   0.806   5.959   4.678
 4119TIP3    H112363   0.888   5.959   4.727
 4119TIP3    H212364   0.829   5.921   4.594
 4120TIP3   OH212365   4.269   0.924   0.815
 4120TIP3    H112366   4.332   0.963   0.876
 4120TIP3    H212367   4.186   0.967   0.835
 4121TIP3   OH212368   5.556   0.457   4.037
 4121TIP3    H112369   5.629   0.518   4.026
 4121TIP3    H212370   5.596   0.371   4.035
 4122TIP3   OH212371   3.569   2.438   4.441
 4122TIP3    H112372   3.571   2.524   4.482
 4122TIP3    H212373   3.506   2.447   4.370
 4123TIP3   OH212374   0.325   5.849   0.292
 4123TIP3    H112375   0.413   5.864   0.257
 4123TIP3    H212376   0.337   5.781   0.358
 4124TIP3   OH212377   1.471   1.165   3.900
 4124TIP3    H112378   1.549   1.110   3.906
 4124TIP3    H212379   1.482   1.212   3.817
 4125TIP3   OH212380   4.491   3.811   4.145
 4125TIP3    H112381   4.411   3.812   4.092
 4125TIP3    H212382   4.466   3.770   4.227
 4126TIP3   OH212383   0.279   2.695   1.664
 4126TIP3    H112384   0.348   2.743   1.618
 4126TIP3    H212385   0.239   2.760   1.722
 4127TIP3   OH212386   4.425   0.841   3.252
 4127TIP3    H112387   4.416   0.791   3.171
 4127TIP3    H212388   4.501   0.897   3.237
 4128TIP3   OH212389   4.926   3.595   2.196
 4128TIP3    H112390   4.882   3.635   2.120
 4128TIP3    H212391   4.909   3.655   2.268
 4129TIP3   OH212392   3.401   5.527   4.392
 4129TIP3    H112393   3.309   5.549   4.406
 4129TIP3    H212394   3.418   5.455   4.454
 4130TIP3   OH212395   0.473   3.461   1.869
 4130TIP3    H112396   0.447   3.548   1.836
 4130TIP3    H212397   0.456   3.465   1.963
 4131TIP3   OH212398   3.428   1.714   0.935
 4131TIP3    H112399   3.471   1.667   1.005
 4131TIP3    H212400   3.500   1.748   0.881
 4132TIP3   OH212401   1.946   1.841   1.126
 4132TIP3    H112402   1.854   1.866   1.123
 4132TIP3    H212403   1.966   1.834   1.219
 4133TIP3   OH212404   4.647   1.136   0.472
 4133TIP3    H112405   4.698   1.075   0.526
 4133TIP3    H212406   4.709   1.163   0.403
 4134TIP3   OH212407   0.055   3.642   0.611
 4134TIP3    H112408   0.077   3.669   0.701
 4134TIP3    H212409   0.071   3.720   0.558
 4135TIP3   OH212410   1.527   4.304   0.391
 4135TIP3    H112411   1.476   4.382   0.417
 4135TIP3    H212412   1.489   4.278   0.307
 4136TIP3   OH212413   6.149   1.456   3.817
 4136TIP3    H112414   6.059   1.427   3.829
 4136TIP3    H212415   6.145   1.518   3.744
 4137TIP3   OH212416   3.468   3.093   3.184
 4137TIP3    H112417   3.375   3.112   3.199
 4137TIP3    H212418   3.478   3.100   3.089
 4138TIP3   OH212419   4.716   3.538   5.077
 4138TIP3    H112420   4.764   3.612   5.039
 4138TIP3    H212421   4.686   3.570   5.162
 4139TIP3   OH212422   5.026   2.572   2.043
 4139TIP3    H112423   4.963   2.513   2.085
 4139TIP3    H212424   5.040   2.534   1.956
 4140TIP3   OH212425   4.935   2.852   1.748
 4140TIP3    H112426   4.898   2.863   1.661
 4140TIP3    H212427   4.990   2.929   1.761
 4141TIP3   OH212428   3.464   1.674   5.119
 4141TIP3    H112429   3.510   1.591   5.105
 4141TIP3    H212430   3.454   1.710   5.031
 4142TIP3   OH212431   4.432   3.103   0.707
 4142TIP3    H112432   4.482   3.141   0.779
 4142TIP3    H212433   4.350   3.152   0.706
 4143TIP3   OH212434   2.428   1.342   2.023
 4143TIP3    H112435   2.356   1.404   2.021
 4143TIP3    H212436   2.386   1.256   2.026
 4144TIP3   OH212437   2.870   3.260   2.356
 4144TIP3    H112438   2.919   3.200   2.300
 4144TIP3    H212439   2.809   3.205   2.404
 4145TIP3   OH212440   6.098   5.620   0.066
 4145TIP3    H112441   6.045   5.700   0.059
 4145TIP3    H212442   6.094   5.581  -0.021
 4146TIP3   OH212443   1.101   4.587   0.928
 4146TIP3    H112444   1.060   4.670   0.905
 4146TIP3    H212445   1.169   4.574   0.862
 4147TIP3   OH212446  -0.001   2.614   3.427
 4147TIP3    H112447  -0.016   2.692   3.480
 4147TIP3    H212448   0.090   2.591   3.442
 4148TIP3   OH212449   5.500   1.919   3.010
 4148TIP3    H112450   5.582   1.939   3.056
 4148TIP3    H212451   5.513   1.829   2.978
 4149TIP3   OH212452   1.800   1.359   2.002
 4149TIP3    H112453   1.889   1.339   2.030
 4149TIP3    H212454   1.759   1.274   1.988
 4150TIP3   OH212455   2.239   1.532   1.983
 4150TIP3    H112456   2.214   1.509   1.893
 4150TIP3    H212457   2.219   1.625   1.990
 4151TIP3   OH212458   1.410   1.314   2.763
 4151TIP3    H112459   1.447   1.294   2.677
 4151TIP3    H212460   1.351   1.388   2.748
 4152TIP3   OH212461   5.560   3.876   3.003
 4152TIP3    H112462   5.479   3.926   2.999
 4152TIP3    H212463   5.564   3.845   3.094
 4153TIP3   OH212464   3.258   3.784   1.503
 4153TIP3    H112465   3.329   3.723   1.521
 4153TIP3    H212466   3.279   3.861   1.556
 4154TIP3   OH212467   2.964   2.891   3.371
 4154TIP3    H112468   2.911   2.922   3.444
 4154TIP3    H212469   2.901   2.872   3.302
 4155TIP3   OH212470   1.633   1.713   5.000
 4155TIP3    H112471   1.615   1.697   5.092
 4155TIP3    H212472   1.668   1.630   4.967
 4156TIP3   OH212473   3.202   3.189   3.216
 4156TIP3    H112474   3.137   3.249   3.253
 4156TIP3    H212475   3.170   3.171   3.128
 4157TIP3   OH212476   0.795   1.112   4.559
 4157TIP3    H112477   0.736   1.050   4.516
 4157TIP3    H212478   0.743   1.193   4.567
 4158TIP3   OH212479   2.639  -0.026   0.113
 4158TIP3    H112480   2.664   0.007   0.027
 4158TIP3    H212481   2.711  -0.001   0.170
 4159TIP3   OH212482   3.660   1.443   4.236
 4159TIP3    H112483   3.662   1.437   4.140
 4159TIP3    H212484   3.633   1.356   4.265
 4160TIP3   OH212485   6.300   4.532   3.956
 4160TIP3    H112486   6.390   4.522   3.989
 4160TIP3    H212487   6.247   4.481   4.018
 4161TIP3   OH212488   5.073   3.783   4.442
 4161TIP3    H112489   5.132   3.730   4.494
 4161TIP3    H212490   5.105   3.775   4.352
 4162TIP3   OH212491   2.404   0.508   4.751
 4162TIP3    H112492   2.473   0.488   4.688
 4162TIP3    H212493   2.434   0.470   4.833
 4163TIP3   OH212494   0.124   4.190   2.410
 4163TIP3    H112495   0.048   4.165   2.358
 4163TIP3    H212496   0.095   4.267   2.459
 4164TIP3   OH212497   3.479   5.172   1.870
 4164TIP3    H112498   3.529   5.242   1.828
 4164TIP3    H212499   3.527   5.152   1.950
 4165TIP3   OH212500   5.898   5.769   2.700
 4165TIP3    H112501   5.820   5.762   2.645
 4165TIP3    H212502   5.916   5.863   2.704
 4166TIP3   OH212503   5.851   1.844   0.319
 4166TIP3    H112504   5.809   1.766   0.283
 4166TIP3    H212505   5.807   1.858   0.403
 4167TIP3   OH212506   3.467   4.821   1.272
 4167TIP3    H112507   3.459   4.859   1.360
 4167TIP3    H212508   3.376   4.815   1.241
 4168TIP3   OH212509   6.299   3.990   2.176
 4168TIP3    H112510   6.374   3.937   2.150
 4168TIP3    H212511   6.247   3.933   2.232
 4169TIP3   OH212512   0.944   3.432   4.699
 4169TIP3    H112513   0.888   3.449   4.775
 4169TIP3    H212514   0.894   3.372   4.645
 4170TIP3   OH212515   5.958   2.413   3.143
 4170TIP3    H112516   5.946   2.387   3.234
 4170TIP3    H212517   6.012   2.492   3.148
 4171TIP3   OH212518   3.470   5.359   2.796
 4171TIP3    H112519   3.536   5.420   2.829
 4171TIP3    H212520   3.517   5.306   2.731
 4172TIP3   OH212521   2.612   2.650   2.968
 4172TIP3    H112522   2.568   2.734   2.980
 4172TIP3    H212523   2.591   2.626   2.877
 4173TIP3   OH212524   5.426   2.029   1.095
 4173TIP3    H112525   5.492   1.963   1.117
 4173TIP3    H212526   5.359   2.019   1.163
 4174TIP3   OH212527   3.379   0.513   3.087
 4174TIP3    H112528   3.445   0.579   3.066
 4174TIP3    H212529   3.429   0.435   3.110
 4175TIP3   OH212530   2.114   0.925   0.187
 4175TIP3    H112531   2.174   0.966   0.124
 4175TIP3    H212532   2.087   0.997   0.244
 4176TIP3   OH212533   1.157   2.150   4.747
 4176TIP3    H112534   1.220   2.189   4.809
 4176TIP3    H212535   1.206   2.143   4.665
 4177TIP3   OH212536   0.022   5.185   1.001
 4177TIP3    H112537   0.062   5.104   0.970
 4177TIP3    H212538  -0.012   5.226   0.922
 4178TIP3   OH212539   3.332   1.635   2.869
 4178TIP3    H112540   3.334   1.709   2.809
 4178TIP3    H212541   3.246   1.641   2.911
 4179TIP3   OH212542   5.920   0.910   2.102
 4179TIP3    H112543   5.943   0.836   2.158
 4179TIP3    H212544   5.911   0.872   2.014
 4180TIP3   OH212545   1.409   4.849   0.460
 4180TIP3    H112546   1.340   4.809   0.513
 4180TIP3    H212547   1.368   4.861   0.374
 4181TIP3   OH212548   1.423   1.217   1.796
 4181TIP3    H112549   1.517   1.209   1.780
 4181TIP3    H212550   1.416   1.269   1.876
 4182TIP3   OH212551   2.764   5.973   1.441
 4182TIP3    H112552   2.854   5.956   1.413
 4182TIP3    H212553   2.729   5.887   1.465
 4183TIP3   OH212554   4.518   1.485   1.865
 4183TIP3    H112555   4.454   1.413   1.858
 4183TIP3    H212556   4.600   1.446   1.836
 4184TIP3   OH212557   4.223   5.284   4.380
 4184TIP3    H112558   4.217   5.202   4.430
 4184TIP3    H212559   4.257   5.257   4.295
 4185TIP3   OH212560   4.229   4.595   2.261
 4185TIP3    H112561   4.143   4.635   2.266
 4185TIP3    H212562   4.276   4.630   2.337
 4186TIP3   OH212563   4.970   2.447   1.795
 4186TIP3    H112564   5.022   2.460   1.715
 4186TIP3    H212565   4.925   2.364   1.781
 4187TIP3   OH212566   3.777   3.247   4.181
 4187TIP3    H112567   3.847   3.208   4.128
 4187TIP3    H212568   3.775   3.193   4.260
 4188TIP3   OH212569   0.292   4.299   3.413
 4188TIP3    H112570   0.299   4.394   3.412
 4188TIP3    H212571   0.326   4.271   3.329
 4189TIP3   OH212572   2.205   1.475   2.848
 4189TIP3    H112573   2.217   1.380   2.848
 4189TIP3    H212574   2.251   1.504   2.769
 4190TIP3   OH212575   5.050   2.798   5.126
 4190TIP3    H112576   4.967   2.810   5.079
 4190TIP3    H212577   5.095   2.729   5.076
 4191TIP3   OH212578   4.439   5.713   2.140
 4191TIP3    H112579   4.351   5.697   2.174
 4191TIP3    H212580   4.440   5.668   2.055
 4192TIP3   OH212581   3.518   1.969   3.902
 4192TIP3    H112582   3.433   2.007   3.881
 4192TIP3    H212583   3.574   1.991   3.827
 4193TIP3   OH212584   3.264   0.470   0.135
 4193TIP3    H112585   3.232   0.552   0.098
 4193TIP3    H212586   3.299   0.495   0.221
 4194TIP3   OH212587   4.141   1.171   3.377
 4194TIP3    H112588   4.120   1.102   3.314
 4194TIP3    H212589   4.225   1.143   3.415
 4195TIP3   OH212590   5.074   3.932   2.528
 4195TIP3    H112591   5.043   3.965   2.612
 4195TIP3    H212592   4.994   3.921   2.476
 4196TIP3   OH212593   2.389   5.722   4.904
 4196TIP3    H112594   2.408   5.695   4.994
 4196TIP3    H212595   2.320   5.662   4.876
 4197TIP3   OH212596   1.503   5.534   1.230
 4197TIP3    H112597   1.524   5.614   1.182
 4197TIP3    H212598   1.576   5.524   1.292
 4198TIP3   OH212599   5.169   5.754   2.737
 4198TIP3    H112600   5.222   5.829   2.709
 4198TIP3    H212601   5.079   5.781   2.719
 4199TIP3   OH212602   1.263   5.132   0.502
 4199TIP3    H112603   1.209   5.054   0.486
 4199TIP3    H212604   1.292   5.123   0.593
 4200TIP3   OH212605   4.944   1.423   1.900
 4200TIP3    H112606   4.900   1.506   1.882
 4200TIP3    H212607   5.017   1.445   1.958
 4201TIP3   OH212608   5.046   0.762   2.123
 4201TIP3    H112609   4.980   0.751   2.054
 4201TIP3    H212610   5.062   0.673   2.156
 4202TIP3   OH212611   1.459   3.486   1.372
 4202TIP3    H112612   1.368   3.513   1.365
 4202TIP3    H212613   1.459   3.393   1.349
 4203TIP3   OH212614   0.467   1.840   1.920
 4203TIP3    H112615   0.477   1.891   1.840
 4203TIP3    H212616   0.377   1.856   1.948
 4204TIP3   OH212617   3.208   5.044   1.011
 4204TIP3    H112618   3.283   5.090   1.047
 4204TIP3    H212619   3.244   4.963   0.975
 4205TIP3   OH212620   5.105   5.057   0.076
 4205TIP3    H112621   5.023   5.062   0.123
 4205TIP3    H212622   5.160   5.000   0.129
 4206TIP3   OH212623   1.159   5.185   1.995
 4206TIP3    H112624   1.172   5.245   1.921
 4206TIP3    H212625   1.246   5.178   2.035
 4207TIP3   OH212626   1.856   5.420   1.855
 4207TIP3    H112627   1.944   5.458   1.866
 4207TIP3    H212628   1.811   5.484   1.799
 4208TIP3   OH212629   4.585   3.139   0.381
 4208TIP3    H112630   4.525   3.109   0.312
 4208TIP3    H212631   4.572   3.077   0.453
 4209TIP3   OH212632   3.588   1.381   4.684
 4209TIP3    H112633   3.524   1.353   4.618
 4209TIP3    H212634   3.643   1.445   4.638
 4210TIP3   OH212635   2.761   0.835   5.046
 4210TIP3    H112636   2.731   0.744   5.036
 4210TIP3    H212637   2.744   0.875   4.961
 4211TIP3   OH212638   0.457   5.525   0.238
 4211TIP3    H112639   0.521   5.580   0.193
 4211TIP3    H212640   0.500   5.498   0.319
 4212TIP3   OH212641   2.135   3.943   5.120
 4212TIP3    H112642   2.138   3.955   5.215
 4212TIP3    H212643   2.069   3.874   5.106
 4213TIP3   OH212644   2.876   2.441   4.874
 4213TIP3    H112645   2.942   2.448   4.943
 4213TIP3    H212646   2.925   2.413   4.796
 4214TIP3   OH212647   4.691   0.936   2.040
 4214TIP3    H112648   4.659   0.949   1.950
 4214TIP3    H212649   4.710   1.024   2.072
 4215TIP3   OH212650   3.726   4.524   3.917
 4215TIP3    H112651   3.718   4.618   3.934
 4215TIP3    H212652   3.635   4.493   3.912
 4216TIP3   OH212653   3.687   3.754   4.769
 4216TIP3    H112654   3.721   3.687   4.711
 4216TIP3    H212655   3.695   3.836   4.720
 4217TIP3   OH212656   0.640   2.390   1.361
 4217TIP3    H112657   0.604   2.304   1.339
 4217TIP3    H212658   0.594   2.416   1.440
 4218TIP3   OH212659   1.618   1.932   3.410
 4218TIP3    H112660   1.691   1.977   3.369
 4218TIP3    H212661   1.633   1.839   3.391
 4219TIP3   OH212662   0.942   2.561   3.740
 4219TIP3    H112663   0.868   2.606   3.780
 4219TIP3    H212664   0.982   2.512   3.812
 4220TIP3   OH212665   0.539   4.294   0.209
 4220TIP3    H112666   0.532   4.224   0.274
 4220TIP3    H212667   0.471   4.274   0.145
 4221TIP3   OH212668   3.708   5.891   2.838
 4221TIP3    H112669   3.654   5.915   2.914
 4221TIP3    H212670   3.708   5.969   2.783
 4222TIP3   OH212671   6.078   3.477   2.093
 4222TIP3    H112672   6.109   3.451   2.006
 4222TIP3    H212673   6.139   3.434   2.153
 4223TIP3   OH212674   0.409   0.577   0.912
 4223TIP3    H112675   0.407   0.615   0.999
 4223TIP3    H212676   0.484   0.517   0.913
 4224TIP3   OH212677   2.643   4.790   0.326
 4224TIP3    H112678   2.730   4.763   0.297
 4224TIP3    H212679   2.584   4.723   0.291
 4225TIP3   OH212680   0.627   0.538   0.600
 4225TIP3    H112681   0.563   0.468   0.589
 4225TIP3    H212682   0.662   0.526   0.688
 4226TIP3   OH212683   3.362   1.415   2.710
 4226TIP3    H112684   3.270   1.401   2.686
 4226TIP3    H212685   3.359   1.474   2.785
 4227TIP3   OH212686   5.100   4.736   4.710
 4227TIP3    H112687   5.098   4.650   4.667
 4227TIP3    H212688   5.152   4.791   4.651
 4228TIP3   OH212689   4.803   5.194   1.434
 4228TIP3    H112690   4.865   5.208   1.363
 4228TIP3    H212691   4.720   5.230   1.401
 4229TIP3   OH212692   1.415   2.397   0.274
 4229TIP3    H112693   1.329   2.410   0.316
 4229TIP3    H212694   1.395   2.374   0.184
 4230TIP3   OH212695   4.904   4.424   1.334
 4230TIP3    H112696   4.818   4.413   1.293
 4230TIP3    H212697   4.966   4.415   1.261
 4231TIP3   OH212698   4.972   0.802   2.542
 4231TIP3    H112699   5.039   0.871   2.544
 4231TIP3    H212700   4.947   0.791   2.634
 4232TIP3   OH212701   5.777   2.426   2.906
 4232TIP3    H112702   5.717   2.366   2.950
 4232TIP3    H212703   5.847   2.442   2.970
 4233TIP3   OH212704   3.411   5.919   0.335
 4233TIP3    H112705   3.344   5.984   0.311
 4233TIP3    H212706   3.435   5.878   0.252
 4234TIP3   OH212707   1.915   0.107   1.550
 4234TIP3    H112708   1.865   0.042   1.501
 4234TIP3    H212709   1.849   0.168   1.582
 4235TIP3   OH212710   1.943   1.364   2.337
 4235TIP3    H112711   1.965   1.291   2.395
 4235TIP3    H212712   1.969   1.333   2.250
 4236TIP3   OH212713   5.519   0.446   3.019
 4236TIP3    H112714   5.603   0.453   3.063
 4236TIP3    H212715   5.459   0.497   3.074
 4237TIP3   OH212716   1.765   2.490   4.179
 4237TIP3    H112717   1.849   2.446   4.188
 4237TIP3    H212718   1.787   2.580   4.156
 4238TIP3   OH212719   2.751   0.289   3.456
 4238TIP3    H112720   2.738   0.381   3.480
 4238TIP3    H212721   2.820   0.290   3.390
 4239TIP3   OH212722   5.346   0.947   2.501
 4239TIP3    H112723   5.326   0.853   2.502
 4239TIP3    H212724   5.412   0.957   2.432
 4240TIP3   OH212725   2.838   1.211   2.623
 4240TIP3    H112726   2.805   1.125   2.599
 4240TIP3    H212727   2.839   1.260   2.541
 4241TIP3   OH212728   0.420   3.492   2.535
 4241TIP3    H112729   0.395   3.567   2.590
 4241TIP3    H212730   0.495   3.523   2.484
 4242TIP3   OH212731  -0.028   2.070   1.539
 4242TIP3    H112732   0.056   2.113   1.556
 4242TIP3    H212733  -0.039   2.074   1.444
 4243TIP3   OH212734   1.198   4.291   1.954
 4243TIP3    H112735   1.134   4.270   1.887
 4243TIP3    H212736   1.281   4.257   1.919
 4244TIP3   OH212737   5.126   3.295   2.672
 4244TIP3    H112738   5.087   3.310   2.758
 4244TIP3    H212739   5.174   3.213   2.681
 4245TIP3   OH212740   3.085   3.722   1.295
 4245TIP3    H112741   3.163   3.710   1.240
 4245TIP3    H212742   3.120   3.737   1.383
 4246TIP3   OH212743   2.033   2.111   3.489
 4246TIP3    H112744   1.957   2.162   3.517
 4246TIP3    H212745   2.031   2.033   3.544
 4247TIP3   OH212746   5.972   3.085   3.476
 4247TIP3    H112747   6.009   3.165   3.514
 4247TIP3    H212748   5.884   3.110   3.448
 4248TIP3   OH212749   0.795   4.917   1.538
 4248TIP3    H112750   0.740   4.994   1.546
 4248TIP3    H212751   0.855   4.923   1.613
 4249TIP3   OH212752   5.988   5.835   3.817
 4249TIP3    H112753   6.058   5.794   3.764
 4249TIP3    H212754   5.972   5.773   3.888
 4250TIP3   OH212755   1.928   3.261   2.147
 4250TIP3    H112756   2.018   3.233   2.169
 4250TIP3    H212757   1.876   3.235   2.223
 4251TIP3   OH212758   0.220   4.059   0.297
 4251TIP3    H112759   0.244   4.149   0.318
 4251TIP3    H212760   0.291   4.028   0.241
 4252TIP3   OH212761   5.662   5.276   3.616
 4252TIP3    H112762   5.579   5.323   3.625
 4252TIP3    H212763   5.648   5.193   3.662
 4253TIP3   OH212764   0.337   1.751   2.367
 4253TIP3    H112765   0.383   1.676   2.329
 4253TIP3    H212766   0.405   1.817   2.380
 4254TIP3   OH212767   0.189   0.185   4.430
 4254TIP3    H112768   0.237   0.253   4.477
 4254TIP3    H212769   0.140   0.138   4.499
 4255TIP3   OH212770   4.850   4.854   0.555
 4255TIP3    H112771   4.787   4.836   0.485
 4255TIP3    H212772   4.831   4.943   0.583
 4256TIP3   OH212773   5.417   1.376   0.247
 4256TIP3    H112774   5.456   1.414   0.326
 4256TIP3    H212775   5.466   1.417   0.175
 4257TIP3   OH212776   2.995   5.866   3.005
 4257TIP3    H112777   2.919   5.904   2.962
 4257TIP3    H212778   2.983   5.886   3.098
 4258TIP3   OH212779   1.741   2.042   2.457
 4258TIP3    H112780   1.808   1.984   2.421
 4258TIP3    H212781   1.694   1.987   2.520
 4259TIP3   OH212782   5.088   1.444   4.438
 4259TIP3    H112783   4.999   1.419   4.413
 4259TIP3    H212784   5.144   1.402   4.373
 4260TIP3   OH212785   5.360   1.185   1.083
 4260TIP3    H112786   5.394   1.096   1.083
 4260TIP3    H212787   5.311   1.193   1.164
 4261TIP3   OH212788   2.493   1.883   1.132
 4261TIP3    H112789   2.447   1.810   1.090
 4261TIP3    H212790   2.425   1.946   1.155
 4262TIP3   OH212791   5.865   0.221   0.638
 4262TIP3    H112792   5.836   0.154   0.575
 4262TIP3    H212793   5.787   0.240   0.690
 4263TIP3   OH212794   4.854   2.349   4.736
 4263TIP3    H112795   4.949   2.356   4.722
 4263TIP3    H212796   4.845   2.284   4.806
 4264TIP3   OH212797   4.085   4.249   1.035
 4264TIP3    H112798   4.043   4.189   1.096
 4264TIP3    H212799   4.178   4.227   1.039
 4265TIP3   OH212800   6.274   3.018   1.562
 4265TIP3    H112801   6.224   3.063   1.495
 4265TIP3    H212802   6.284   3.082   1.632
 4266TIP3   OH212803   3.546   2.720   4.275
 4266TIP3    H112804   3.481   2.655   4.251
 4266TIP3    H212805   3.508   2.765   4.350
 4267TIP3   OH212806   0.753   2.825   3.319
 4267TIP3    H112807   0.824   2.799   3.377
 4267TIP3    H212808   0.748   2.920   3.328
 4268TIP3   OH212809   5.352   2.250   4.882
 4268TIP3    H112810   5.360   2.289   4.969
 4268TIP3    H212811   5.441   2.229   4.857
 4269TIP3   OH212812   0.233   2.616   4.158
 4269TIP3    H112813   0.235   2.665   4.075
 4269TIP3    H212814   0.208   2.681   4.223
 4270TIP3   OH212815   5.089   1.825   4.645
 4270TIP3    H112816   5.071   1.767   4.719
 4270TIP3    H212817   5.144   1.895   4.682
 4271TIP3   OH212818   4.019   3.660   4.571
 4271TIP3    H112819   4.067   3.715   4.508
 4271TIP3    H212820   3.928   3.686   4.561
 4272TIP3   OH212821   3.090   5.875   0.553
 4272TIP3    H112822   3.023   5.806   0.554
 4272TIP3    H212823   3.061   5.934   0.483
 4273TIP3   OH212824   3.520   0.453   1.010
 4273TIP3    H112825   3.520   0.405   0.928
 4273TIP3    H212826   3.447   0.514   1.003
 4274TIP3   OH212827   4.642   5.216   4.532
 4274TIP3    H112828   4.615   5.234   4.442
 4274TIP3    H212829   4.582   5.148   4.562
 4275TIP3   OH212830   1.542   4.522   2.730
 4275TIP3    H112831   1.464   4.505   2.676
 4275TIP3    H212832   1.586   4.437   2.735
 4276TIP3   OH212833   3.530   1.404   0.961
 4276TIP3    H112834   3.576   1.477   1.002
 4276TIP3    H212835   3.438   1.422   0.974
 4277TIP3   OH212836   0.242   5.323   0.037
 4277TIP3    H112837   0.164   5.301   0.088
 4277TIP3    H212838   0.314   5.282   0.084
 4278TIP3   OH212839   5.461   2.296   2.623
 4278TIP3    H112840   5.519   2.371   2.638
 4278TIP3    H212841   5.502   2.224   2.672
 4279TIP3   OH212842   0.785   0.249  -0.002
 4279TIP3    H112843   0.832   0.302   0.063
 4279TIP3    H212844   0.703   0.226   0.041
 4280TIP3   OH212845   2.184   5.416   2.009
 4280TIP3    H112846   2.263   5.468   1.990
 4280TIP3    H212847   2.130   5.474   2.063
 4281TIP3   OH212848   4.502   0.398   1.202
 4281TIP3    H112849   4.550   0.475   1.171
 4281TIP3    H212850   4.447   0.430   1.273
 4282TIP3   OH212851   0.456   3.209   5.036
 4282TIP3    H112852   0.428   3.278   5.096
 4282TIP3    H212853   0.376   3.159   5.018
 4283TIP3   OH212854   4.375   1.085   2.751
 4283TIP3    H112855   4.357   1.174   2.721
 4283TIP3    H212856   4.367   1.091   2.847
 4284TIP3   OH212857   0.673   5.464   3.704
 4284TIP3    H112858   0.628   5.409   3.768
 4284TIP3    H212859   0.756   5.487   3.747
 4285TIP3   OH212860   4.223   5.102   1.829
 4285TIP3    H112861   4.191   5.045   1.760
 4285TIP3    H212862   4.309   5.066   1.852
 4286TIP3   OH212863   2.459   0.911   3.390
 4286TIP3    H112864   2.367   0.925   3.365
 4286TIP3    H212865   2.508   0.927   3.309
 4287TIP3   OH212866   1.043   2.485   2.123
 4287TIP3    H112867   1.000   2.499   2.038
 4287TIP3    H212868   1.025   2.394   2.145
 4288TIP3   OH212869   3.839   2.251   0.673
 4288TIP3    H112870   3.746   2.244   0.652
 4288TIP3    H212871   3.878   2.172   0.638
 4289TIP3   OH212872   1.989   3.815   0.396
 4289TIP3    H112873   1.950   3.839   0.480
 4289TIP3    H212874   2.037   3.893   0.368
 4290TIP3   OH212875   2.742   2.850   4.110
 4290TIP3    H112876   2.819   2.880   4.062
 4290TIP3    H212877   2.674   2.839   4.043
 4291TIP3   OH212878   0.892   4.248   0.153
 4291TIP3    H112879   0.878   4.340   0.134
 4291TIP3    H212880   0.847   4.232   0.236
 4292TIP3   OH212881   2.216   2.976   4.231
 4292TIP3    H112882   2.251   2.888   4.243
 4292TIP3    H212883   2.210   2.987   4.136
 4293TIP3   OH212884   0.505   2.413   2.459
 4293TIP3    H112885   0.489   2.499   2.497
 4293TIP3    H212886   0.445   2.409   2.384
 4294TIP3   OH212887   4.976   1.413   3.091
 4294TIP3    H112888   5.053   1.456   3.052
 4294TIP3    H212889   4.948   1.349   3.025
 4295TIP3   OH212890   4.900   1.446   2.737
 4295TIP3    H112891   4.891   1.382   2.667
 4295TIP3    H212892   4.965   1.509   2.703
 4296TIP3   OH212893   4.054   3.557   0.373
 4296TIP3    H112894   4.056   3.468   0.409
 4296TIP3    H212895   3.992   3.551   0.300
 4297TIP3   OH212896   3.388   4.983   0.168
 4297TIP3    H112897   3.421   4.893   0.158
 4297TIP3    H212898   3.424   5.030   0.093
 4298TIP3   OH212899   0.413   1.991   4.828
 4298TIP3    H112900   0.462   1.946   4.759
 4298TIP3    H212901   0.367   1.921   4.874
 4299TIP3   OH212902   1.054   0.102   3.986
 4299TIP3    H112903   1.109   0.172   4.019
 4299TIP3    H212904   0.969   0.143   3.971
 4300TIP3   OH212905   4.858   1.802   3.249
 4300TIP3    H112906   4.798   1.818   3.322
 4300TIP3    H212907   4.901   1.887   3.235
 4301TIP3   OH212908   0.149   5.918   4.881
 4301TIP3    H112909   0.169   5.980   4.951
 4301TIP3    H212910   0.207   5.943   4.809
 4302TIP3   OH212911   3.029   5.140   2.827
 4302TIP3    H112912   3.105   5.190   2.856
 4302TIP3    H212913   3.064   5.078   2.762
 4303TIP3   OH212914   3.053   0.640   1.466
 4303TIP3    H112915   2.974   0.692   1.480
 4303TIP3    H212916   3.064   0.591   1.548
 4304TIP3   OH212917   2.241   2.974   3.955
 4304TIP3    H112918   2.265   2.882   3.940
 4304TIP3    H212919   2.175   2.993   3.888
 4305TIP3   OH212920   1.586   3.526   2.625
 4305TIP3    H112921   1.531   3.600   2.652
 4305TIP3    H212922   1.550   3.500   2.540
 4306TIP3   OH212923   5.848   3.334   5.046
 4306TIP3    H112924   5.779   3.399   5.055
 4306TIP3    H212925   5.801   3.251   5.036
 4307TIP3   OH212926   5.122   5.957   3.245
 4307TIP3    H112927   5.099   6.047   3.219
 4307TIP3    H212928   5.168   5.922   3.168
 4308TIP3   OH212929   3.857   3.483   4.751
 4308TIP3    H112930   3.898   3.532   4.680
 4308TIP3    H212931   3.878   3.392   4.733
 4309TIP3   OH212932   6.084   4.051   0.802
 4309TIP3    H112933   6.002   4.012   0.833
 4309TIP3    H212934   6.067   4.146   0.805
 4310TIP3   OH212935   6.236   3.512   4.073
 4310TIP3    H112936   6.200   3.533   4.159
 4310TIP3    H212937   6.290   3.434   4.088
 4311TIP3   OH212938   3.446   4.707   0.164
 4311TIP3    H112939   3.500   4.672   0.093
 4311TIP3    H212940   3.361   4.663   0.153
 4312TIP3   OH212941   1.851   5.649   0.509
 4312TIP3    H112942   1.764   5.642   0.548
 4312TIP3    H212943   1.837   5.700   0.429
 4313TIP3   OH212944   4.063   1.109   2.748
 4313TIP3    H112945   4.074   1.160   2.669
 4313TIP3    H212946   3.971   1.082   2.747
 4314TIP3   OH212947   6.324   5.353   4.968
 4314TIP3    H112948   6.289   5.433   5.007
 4314TIP3    H212949   6.260   5.285   4.991
 4315TIP3   OH212950   5.995   4.731   4.570
 4315TIP3    H112951   6.014   4.650   4.616
 4315TIP3    H212952   6.016   4.800   4.633
 4316TIP3   OH212953   4.358   0.974   1.226
 4316TIP3    H112954   4.385   0.962   1.135
 4316TIP3    H212955   4.319   1.061   1.228
 4317TIP3   OH212956   2.002   5.128   2.308
 4317TIP3    H112957   2.085   5.174   2.295
 4317TIP3    H212958   1.955   5.140   2.226
 4318TIP3   OH212959   4.095   4.457   2.905
 4318TIP3    H112960   4.045   4.496   2.976
 4318TIP3    H212961   4.048   4.376   2.884
 4319TIP3   OH212962   0.532   3.517   5.049
 4319TIP3    H112963   0.494   3.505   4.963
 4319TIP3    H212964   0.608   3.574   5.035
 4320TIP3   OH212965   2.829   2.209   3.726
 4320TIP3    H112966   2.805   2.141   3.662
 4320TIP3    H212967   2.747   2.228   3.772
 4321TIP3   OH212968   0.395   5.830   1.654
 4321TIP3    H112969   0.402   5.925   1.641
 4321TIP3    H212970   0.306   5.809   1.625
 4322TIP3   OH212971   6.352   2.352   2.424
 4322TIP3    H112972   6.303   2.355   2.506
 4322TIP3    H212973   6.285   2.342   2.356
 4323TIP3   OH212974   2.670   3.726   2.024
 4323TIP3    H112975   2.741   3.668   1.998
 4323TIP3    H212976   2.675   3.799   1.962
 4324TIP3   OH212977   1.409   5.434   2.825
 4324TIP3    H112978   1.358   5.512   2.843
 4324TIP3    H212979   1.500   5.462   2.828
 4325TIP3   OH212980   1.138   4.646   3.194
 4325TIP3    H112981   1.043   4.646   3.192
 4325TIP3    H212982   1.164   4.670   3.105
 4326TIP3   OH212983   1.991   2.694   1.125
 4326TIP3    H112984   2.006   2.788   1.132
 4326TIP3    H212985   2.079   2.656   1.124
 4327TIP3   OH212986   2.615   2.722   1.391
 4327TIP3    H112987   2.626   2.677   1.475
 4327TIP3    H212988   2.522   2.711   1.370
 4328TIP3   OH212989   2.073   1.321   1.117
 4328TIP3    H112990   2.106   1.377   1.047
 4328TIP3    H212991   1.984   1.298   1.090
 4329TIP3   OH212992   5.967   1.829   2.543
 4329TIP3    H112993   5.887   1.798   2.501
 4329TIP3    H212994   6.026   1.848   2.471
 4330TIP3   OH212995   3.386   2.703   3.743
 4330TIP3    H112996   3.372   2.795   3.719
 4330TIP3    H212997   3.481   2.691   3.736
 4331TIP3   OH212998   0.414   1.186   1.458
 4331TIP3    H112999   0.415   1.212   1.550
 4331TIP3    H213000   0.364   1.105   1.457
 4332TIP3   OH213001   6.086   0.941   3.972
 4332TIP3    H113002   6.035   1.019   3.991
 4332TIP3    H213003   6.024   0.882   3.929
 4333TIP3   OH213004   5.074   0.866   3.044
 4333TIP3    H113005   5.164   0.896   3.038
 4333TIP3    H213006   5.080   0.778   3.079
 4334TIP3   OH213007   2.995   5.201   1.643
 4334TIP3    H113008   2.997   5.176   1.551
 4334TIP3    H213009   3.083   5.180   1.675
 4335TIP3   OH213010   3.751   2.590   2.026
 4335TIP3    H113011   3.814   2.561   1.959
 4335TIP3    H213012   3.714   2.670   1.990
 4336TIP3   OH213013   3.183   3.258   1.715
 4336TIP3    H113014   3.097   3.217   1.707
 4336TIP3    H213015   3.172   3.344   1.673
 4337TIP3   OH213016   4.552   3.879   2.428
 4337TIP3    H113017   4.576   3.830   2.507
 4337TIP3    H213018   4.625   3.940   2.415
 4338TIP3   OH213019   2.034   1.196   0.480
 4338TIP3    H113020   1.964   1.260   0.469
 4338TIP3    H213021   1.991   1.111   0.473
 4339TIP3   OH213022   5.767   1.952   3.090
 4339TIP3    H113023   5.741   1.940   3.182
 4339TIP3    H213024   5.837   2.018   3.094
 4340TIP3   OH213025   1.726   5.807   1.473
 4340TIP3    H113026   1.741   5.889   1.519
 4340TIP3    H213027   1.631   5.801   1.466
 4341TIP3   OH213028   5.282   1.426   4.687
 4341TIP3    H113029   5.240   1.424   4.601
 4341TIP3    H213030   5.278   1.335   4.717
 4342TIP3   OH213031   2.374   0.655   2.653
 4342TIP3    H113032   2.336   0.567   2.658
 4342TIP3    H213033   2.321   0.707   2.713
 4343TIP3   OH213034   5.515   5.038   4.956
 4343TIP3    H113035   5.482   5.058   4.868
 4343TIP3    H213036   5.610   5.044   4.948
 4344TIP3   OH213037   5.478   4.670   4.468
 4344TIP3    H113038   5.505   4.751   4.425
 4344TIP3    H213039   5.474   4.692   4.561
 4345TIP3   OH213040   4.576   5.645   0.471
 4345TIP3    H113041   4.639   5.587   0.512
 4345TIP3    H213042   4.628   5.714   0.431
 4346TIP3   OH213043   0.304   4.991   1.239
 4346TIP3    H113044   0.211   4.997   1.219
 4346TIP3    H213045   0.346   4.972   1.155
 4347TIP3   OH213046   0.494   4.058   3.381
 4347TIP3    H113047   0.465   4.129   3.323
 4347TIP3    H213048   0.589   4.058   3.374
 4348TIP3   OH213049   5.072   0.881   3.498
 4348TIP3    H113050   5.110   0.846   3.579
 4348TIP3    H213051   5.148   0.899   3.442
 4349TIP3   OH213052   5.764   3.234   0.440
 4349TIP3    H113053   5.802   3.201   0.521
 4349TIP3    H213054   5.802   3.321   0.429
 4350TIP3   OH213055   5.151   5.916   1.546
 4350TIP3    H113056   5.195   6.001   1.557
 4350TIP3    H213057   5.222   5.852   1.550
 4351TIP3   OH213058   4.457   4.740   0.739
 4351TIP3    H113059   4.551   4.729   0.747
 4351TIP3    H213060   4.425   4.746   0.829
 4352TIP3   OH213061   2.101   2.946   1.078
 4352TIP3    H113062   2.151   2.994   1.012
 4352TIP3    H213063   2.120   2.992   1.160
 4353TIP3   OH213064   1.304   1.032   4.501
 4353TIP3    H113065   1.235   1.097   4.486
 4353TIP3    H213066   1.309   0.984   4.418
 4354TIP3   OH213067   3.971   0.943   2.414
 4354TIP3    H113068   4.028   1.014   2.382
 4354TIP3    H213069   4.032   0.873   2.438
 4355TIP3   OH213070   1.645   2.857   2.522
 4355TIP3    H113071   1.735   2.832   2.543
 4355TIP3    H213072   1.597   2.845   2.604
 4356TIP3   OH213073   0.385   0.643   0.645
 4356TIP3    H113074   0.368   0.661   0.737
 4356TIP3    H213075   0.473   0.604   0.644
 4357TIP3   OH213076   6.295   2.877   1.878
 4357TIP3    H113077   6.340   2.793   1.875
 4357TIP3    H213078   6.202   2.855   1.871
 4358TIP3   OH213079   1.213   4.562   4.568
 4358TIP3    H113080   1.220   4.653   4.539
 4358TIP3    H213081   1.278   4.515   4.515
 4359TIP3   OH213082   5.837   2.243   4.174
 4359TIP3    H113083   5.887   2.320   4.201
 4359TIP3    H213084   5.765   2.278   4.122
 4360TIP3   OH213085   6.031   4.177   4.216
 4360TIP3    H113086   5.947   4.222   4.203
 4360TIP3    H213087   6.095   4.234   4.172
 4361TIP3   OH213088   1.649   0.101   2.745
 4361TIP3    H113089   1.673   0.193   2.746
 4361TIP3    H213090   1.624   0.083   2.654
 4362TIP3   OH213091   0.910   0.640   2.237
 4362TIP3    H113092   0.946   0.551   2.237
 4362TIP3    H213093   0.947   0.681   2.159
 4363TIP3   OH213094   3.316   2.813   4.026
 4363TIP3    H113095   3.267   2.733   4.044
 4363TIP3    H213096   3.372   2.791   3.951
 4364TIP3   OH213097   3.651   1.686   2.290
 4364TIP3    H113098   3.660   1.620   2.221
 4364TIP3    H213099   3.616   1.638   2.365
 4365TIP3   OH213100   0.216   5.377   2.803
 4365TIP3    H113101   0.196   5.284   2.803
 4365TIP3    H213102   0.299   5.384   2.754
 4366TIP3   OH213103   2.121   2.937   2.651
 4366TIP3    H113104   2.150   2.926   2.742
 4366TIP3    H213105   2.200   2.929   2.599
 4367TIP3   OH213106   1.751   1.073   3.677
 4367TIP3    H113107   1.779   1.164   3.693
 4367TIP3    H213108   1.753   1.032   3.764
 4368TIP3   OH213109   4.378   2.748   1.169
 4368TIP3    H113110   4.333   2.714   1.246
 4368TIP3    H213111   4.320   2.816   1.136
 4369TIP3   OH213112   4.455   4.698   4.106
 4369TIP3    H113113   4.365   4.674   4.082
 4369TIP3    H213114   4.489   4.620   4.151
 4370TIP3   OH213115   1.571   5.020   3.135
 4370TIP3    H113116   1.552   5.105   3.095
 4370TIP3    H213117   1.529   5.024   3.221
 4371TIP3   OH213118   4.823   1.137   3.991
 4371TIP3    H113119   4.890   1.166   4.053
 4371TIP3    H213120   4.870   1.129   3.908
 4372TIP3   OH213121   3.973   1.220   4.582
 4372TIP3    H113122   3.973   1.271   4.501
 4372TIP3    H213123   4.021   1.140   4.559
 4373TIP3   OH213124   5.603   3.945   3.336
 4373TIP3    H113125   5.644   3.964   3.420
 4373TIP3    H213126   5.641   4.009   3.275
 4374TIP3   OH213127   5.298   2.359   4.518
 4374TIP3    H113128   5.325   2.272   4.490
 4374TIP3    H213129   5.286   2.408   4.437
 4375TIP3   OH213130   4.926   5.325   2.818
 4375TIP3    H113131   4.923   5.356   2.909
 4375TIP3    H213132   5.002   5.370   2.780
 4376TIP3   OH213133   6.295  -0.015   2.400
 4376TIP3    H113134   6.356   0.058   2.392
 4376TIP3    H213135   6.278  -0.021   2.494
 4377TIP3   OH213136   0.677   2.817   1.772
 4377TIP3    H113137   0.722   2.822   1.856
 4377TIP3    H213138   0.723   2.880   1.716
 4378TIP3   OH213139   5.802   3.435   2.844
 4378TIP3    H113140   5.820   3.528   2.857
 4378TIP3    H213141   5.709   3.425   2.864
 4379TIP3   OH213142   5.730   0.556   0.844
 4379TIP3    H113143   5.686   0.497   0.905
 4379TIP3    H213144   5.710   0.644   0.876
 4380TIP3   OH213145   1.223   0.413   3.677
 4380TIP3    H113146   1.253   0.504   3.666
 4380TIP3    H213147   1.267   0.383   3.756
 4381TIP3   OH213148   4.722   0.789   0.337
 4381TIP3    H113149   4.710   0.809   0.244
 4381TIP3    H213150   4.785   0.854   0.368
 4382TIP3   OH213151   3.662   3.771   3.363
 4382TIP3    H113152   3.580   3.821   3.364
 4382TIP3    H213153   3.682   3.756   3.456
 4383TIP3   OH213154   2.787   0.372   0.967
 4383TIP3    H113155   2.701   0.338   0.943
 4383TIP3    H213156   2.770   0.427   1.044
 4384TIP3   OH213157   4.312   0.454   1.383
 4384TIP3    H113158   4.240   0.441   1.445
 4384TIP3    H213159   4.337   0.546   1.393
 4385TIP3   OH213160   4.463   2.155   4.327
 4385TIP3    H113161   4.481   2.085   4.389
 4385TIP3    H213162   4.367   2.155   4.318
 4386TIP3   OH213163   0.995   5.326   4.112
 4386TIP3    H113164   0.939   5.399   4.086
 4386TIP3    H213165   0.951   5.287   4.187
 4387TIP3   OH213166   0.292   0.038   2.669
 4387TIP3    H113167   0.374   0.001   2.703
 4387TIP3    H213168   0.318   0.124   2.636
 4388TIP3   OH213169   5.114   4.438   0.541
 4388TIP3    H113170   5.120   4.351   0.502
 4388TIP3    H213171   5.139   4.498   0.470
 4389TIP3   OH213172   1.607   5.178   1.635
 4389TIP3    H113173   1.531   5.174   1.577
 4389TIP3    H213174   1.625   5.271   1.645
 4390TIP3   OH213175   2.863   3.386   1.578
 4390TIP3    H113176   2.911   3.443   1.637
 4390TIP3    H213177   2.902   3.402   1.492
 4391TIP3   OH213178   4.095   1.512   1.603
 4391TIP3    H113179   4.118   1.455   1.676
 4391TIP3    H213180   4.056   1.589   1.644
 4392TIP3   OH213181   2.154   0.678   5.019
 4392TIP3    H113182   2.208   0.606   5.052
 4392TIP3    H213183   2.215   0.732   4.967
 4393TIP3   OH213184   0.976   5.448   0.610
 4393TIP3    H113185   0.906   5.474   0.671
 4393TIP3    H213186   0.955   5.357   0.589
 4394TIP3   OH213187   2.791   0.981   1.418
 4394TIP3    H113188   2.840   0.901   1.435
 4394TIP3    H213189   2.706   0.966   1.459
 4395TIP3   OH213190   0.639   4.712   1.653
 4395TIP3    H113191   0.689   4.780   1.606
 4395TIP3    H213192   0.681   4.707   1.739
 4396TIP3   OH213193   5.855   5.374   2.328
 4396TIP3    H113194   5.823   5.400   2.414
 4396TIP3    H213195   5.950   5.383   2.334
 4397TIP3   OH213196   4.287   1.524   2.006
 4397TIP3    H113197   4.298   1.547   2.098
 4397TIP3    H213198   4.374   1.531   1.968
 4398TIP3   OH213199   0.089   2.290   3.053
 4398TIP3    H113200   0.085   2.377   3.012
 4398TIP3    H213201   0.004   2.278   3.094
 4399TIP3   OH213202   0.366   5.008   4.558
 4399TIP3    H113203   0.275   5.038   4.550
 4399TIP3    H213204   0.378   4.994   4.652
 4400TIP3   OH213205   6.237   4.554   1.035
 4400TIP3    H113206   6.291   4.622   0.996
 4400TIP3    H213207   6.280   4.534   1.119
 4401TIP3   OH213208   0.378   1.969   1.688
 4401TIP3    H113209   0.345   1.880   1.671
 4401TIP3    H213210   0.303   2.026   1.675
 4402TIP3   OH213211   4.577   0.137   1.823
 4402TIP3    H113212   4.540   0.176   1.902
 4402TIP3    H213213   4.526   0.176   1.751
 4403TIP3   OH213214   1.761   2.851   1.567
 4403TIP3    H113215   1.808   2.769   1.577
 4403TIP3    H213216   1.714   2.841   1.484
 4404TIP3   OH213217   2.339   3.055   0.181
 4404TIP3    H113218   2.347   3.119   0.252
 4404TIP3    H213219   2.400   2.985   0.205
 4405TIP3   OH213220   0.287   0.127   0.084
 4405TIP3    H113221   0.280   0.032   0.093
 4405TIP3    H213222   0.358   0.139   0.021
 4406TIP3   OH213223   0.400   1.045   2.868
 4406TIP3    H113224   0.318   1.093   2.859
 4406TIP3    H213225   0.425   1.057   2.959
 4407TIP3   OH213226   1.621   1.003   1.435
 4407TIP3    H113227   1.585   0.920   1.466
 4407TIP3    H213228   1.554   1.068   1.455
 4408TIP3   OH213229   2.935   5.339   0.830
 4408TIP3    H113230   2.960   5.324   0.921
 4408TIP3    H213231   3.017   5.332   0.782
 4409TIP3   OH213232   5.632   5.810   0.818
 4409TIP3    H113233   5.669   5.783   0.734
 4409TIP3    H213234   5.663   5.900   0.830
 4410TIP3   OH213235   3.067   5.370   2.690
 4410TIP3    H113236   3.012   5.300   2.726
 4410TIP3    H213237   3.007   5.419   2.633
 4411TIP3   OH213238   2.224   2.062   3.016
 4411TIP3    H113239   2.203   2.075   3.109
 4411TIP3    H213240   2.173   1.986   2.990
 4412TIP3   OH213241   4.699   1.143   5.067
 4412TIP3    H113242   4.773   1.157   5.008
 4412TIP3    H213243   4.675   1.231   5.098
 4413TIP3   OH213244   0.737   5.174   3.992
 4413TIP3    H113245   0.811   5.228   4.019
 4413TIP3    H213246   0.764   5.084   4.013
 4414TIP3   OH213247   3.862   5.289   5.081
 4414TIP3    H113248   3.943   5.240   5.091
 4414TIP3    H213249   3.824   5.291   5.169
 4415TIP3   OH213250   5.531   5.075   4.093
 4415TIP3    H113251   5.513   5.002   4.035
 4415TIP3    H213252   5.625   5.067   4.113
 4416TIP3   OH213253   1.671   1.346   1.500
 4416TIP3    H113254   1.745   1.329   1.442
 4416TIP3    H213255   1.595   1.346   1.442
 4417TIP3   OH213256   5.168   0.663   2.714
 4417TIP3    H113257   5.113   0.734   2.746
 4417TIP3    H213258   5.138   0.586   2.763
 4418TIP3   OH213259   1.158   1.363   0.451
 4418TIP3    H113260   1.079   1.319   0.482
 4418TIP3    H213261   1.216   1.291   0.423
 4419TIP3   OH213262   4.881   1.553   3.320
 4419TIP3    H113263   4.915   1.509   3.242
 4419TIP3    H213264   4.833   1.628   3.286
 4420TIP3   OH213265   5.531   4.509   3.670
 4420TIP3    H113266   5.595   4.564   3.716
 4420TIP3    H213267   5.517   4.434   3.729
 4421TIP3   OH213268   1.222   0.234   3.300
 4421TIP3    H113269   1.178   0.308   3.257
 4421TIP3    H213270   1.276   0.195   3.232
 4422TIP3   OH213271   0.389   1.566   1.544
 4422TIP3    H113272   0.470   1.561   1.596
 4422TIP3    H213273   0.420   1.575   1.454
 4423TIP3   OH213274   0.345   3.271   4.436
 4423TIP3    H113275   0.342   3.177   4.455
 4423TIP3    H213276   0.262   3.305   4.470
 4424TIP3   OH213277   3.490   4.465   2.597
 4424TIP3    H113278   3.459   4.525   2.664
 4424TIP3    H213279   3.444   4.383   2.614
 4425TIP3   OH213280   4.435   4.060   0.315
 4425TIP3    H113281   4.444   4.155   0.312
 4425TIP3    H213282   4.344   4.044   0.289
 4426TIP3   OH213283   6.373   2.363   1.734
 4426TIP3    H113284   6.321   2.375   1.814
 4426TIP3    H213285   6.308   2.362   1.664
 4427TIP3   OH213286   5.738   3.942   4.371
 4427TIP3    H113287   5.663   3.927   4.428
 4427TIP3    H213288   5.784   4.017   4.411
 4428TIP3   OH213289   3.179   5.693   0.134
 4428TIP3    H113290   3.265   5.666   0.166
 4428TIP3    H213291   3.118   5.628   0.170
 4429TIP3   OH213292   6.105   3.214   4.543
 4429TIP3    H113293   6.127   3.209   4.636
 4429TIP3    H213294   6.010   3.219   4.541
 4430TIP3   OH213295   1.925   5.475   3.041
 4430TIP3    H113296   1.928   5.570   3.046
 4430TIP3    H213297   1.833   5.453   3.059
 4431TIP3   OH213298   5.415   4.052   4.867
 4431TIP3    H113299   5.461   3.984   4.818
 4431TIP3    H213300   5.373   4.105   4.799
 4432TIP3   OH213301   1.858   2.035   2.022
 4432TIP3    H113302   1.858   2.020   1.927
 4432TIP3    H213303   1.950   2.029   2.047
 4433TIP3   OH213304   5.992   1.926   1.326
 4433TIP3    H113305   5.944   1.986   1.383
 4433TIP3    H213306   6.016   1.853   1.384
 4434TIP3   OH213307   0.998   5.454   0.188
 4434TIP3    H113308   1.052   5.400   0.247
 4434TIP3    H213309   1.060   5.515   0.148
 4435TIP3   OH213310   3.904   0.404   0.922
 4435TIP3    H113311   3.835   0.465   0.948
 4435TIP3    H213312   3.985   0.446   0.949
 4436TIP3   OH213313   5.110   0.498   4.972
 4436TIP3    H113314   5.187   0.461   4.929
 4436TIP3    H213315   5.117   0.468   5.063
 4437TIP3   OH213316   1.531   4.668   3.761
 4437TIP3    H113317   1.453   4.648   3.709
 4437TIP3    H213318   1.506   4.648   3.851
 4438TIP3   OH213319   0.943   5.591   1.856
 4438TIP3    H113320   0.984   5.540   1.925
 4438TIP3    H213321   0.864   5.540   1.833
 4439TIP3   OH213322   0.826   2.809   0.011
 4439TIP3    H113323   0.752   2.799  -0.049
 4439TIP3    H213324   0.868   2.723   0.011
 4440TIP3   OH213325   2.721   5.648   3.094
 4440TIP3    H113326   2.718   5.616   3.004
 4440TIP3    H213327   2.750   5.572   3.145
 4441TIP3   OH213328   3.279   4.352   2.932
 4441TIP3    H113329   3.347   4.416   2.913
 4441TIP3    H213330   3.241   4.332   2.846
 4442TIP3   OH213331   4.400   0.731   1.396
 4442TIP3    H113332   4.431   0.807   1.347
 4442TIP3    H213333   4.442   0.738   1.481
 4443TIP3   OH213334   0.607   3.025   4.461
 4443TIP3    H113335   0.514   3.048   4.464
 4443TIP3    H213336   0.636   3.053   4.374
 4444TIP3   OH213337   3.358   3.420   3.242
 4444TIP3    H113338   3.318   3.335   3.221
 4444TIP3    H213339   3.362   3.421   3.338
 4445TIP3   OH213340   4.277   0.286   4.123
 4445TIP3    H113341   4.255   0.252   4.036
 4445TIP3    H213342   4.370   0.270   4.132
 4446TIP3   OH213343   5.899   3.711   1.151
 4446TIP3    H113344   5.952   3.767   1.095
 4446TIP3    H213345   5.923   3.738   1.240
 4447TIP3   OH213346   5.390   1.070   0.221
 4447TIP3    H113347   5.366   1.134   0.288
 4447TIP3    H213348   5.316   1.070   0.161
 4448TIP3   OH213349   1.967   3.386   2.476
 4448TIP3    H113350   2.028   3.393   2.549
 4448TIP3    H213351   1.971   3.295   2.449
 4449TIP3   OH213352   0.129   0.406   3.738
 4449TIP3    H113353   0.178   0.334   3.698
 4449TIP3    H213354   0.154   0.484   3.688
 4450TIP3   OH213355   1.815   4.165   1.253
 4450TIP3    H113356   1.777   4.088   1.296
 4450TIP3    H213357   1.906   4.166   1.281
 4451TIP3   OH213358   0.287   3.363   3.778
 4451TIP3    H113359   0.318   3.325   3.860
 4451TIP3    H213360   0.323   3.451   3.776
 4452TIP3   OH213361   1.655   3.679   3.682
 4452TIP3    H113362   1.690   3.753   3.633
 4452TIP3    H213363   1.636   3.714   3.769
 4453TIP3   OH213364   3.540   4.227   0.203
 4453TIP3    H113365   3.477   4.191   0.140
 4453TIP3    H213366   3.605   4.157   0.214
 4454TIP3   OH213367   3.970   4.573   1.845
 4454TIP3    H113368   3.968   4.482   1.876
 4454TIP3    H213369   4.061   4.600   1.855
 4455TIP3   OH213370   4.987   0.540   2.456
 4455TIP3    H113371   5.008   0.630   2.483
 4455TIP3    H213372   5.023   0.532   2.368
 4456TIP3   OH213373   1.174   0.141   1.913
 4456TIP3    H113374   1.185   0.177   2.001
 4456TIP3    H213375   1.232   0.065   1.911
 4457TIP3   OH213376   6.127   0.802   0.888
 4457TIP3    H113377   6.042   0.827   0.925
 4457TIP3    H213378   6.181   0.780   0.965
 4458TIP3   OH213379   1.072   4.988   2.143
 4458TIP3    H113380   1.005   5.032   2.195
 4458TIP3    H213381   1.110   5.058   2.089
 4459TIP3   OH213382   4.080   4.832   3.406
 4459TIP3    H113383   4.019   4.762   3.428
 4459TIP3    H213384   4.163   4.805   3.445
 4460TIP3   OH213385   3.257   5.707   2.632
 4460TIP3    H113386   3.170   5.729   2.664
 4460TIP3    H213387   3.312   5.781   2.657
 4461TIP3   OH213388   1.890   3.659   3.847
 4461TIP3    H113389   1.931   3.592   3.902
 4461TIP3    H213390   1.813   3.616   3.810
 4462TIP3   OH213391   3.529   0.535   5.006
 4462TIP3    H113392   3.572   0.498   4.928
 4462TIP3    H213393   3.490   0.616   4.975
 4463TIP3   OH213394   1.583   4.732   2.419
 4463TIP3    H113395   1.610   4.796   2.353
 4463TIP3    H213396   1.520   4.676   2.375
 4464TIP3   OH213397   5.856   5.832   0.612
 4464TIP3    H113398   5.839   5.926   0.616
 4464TIP3    H213399   5.844   5.809   0.520
 4465TIP3   OH213400   3.662   5.622   4.654
 4465TIP3    H113401   3.694   5.572   4.580
 4465TIP3    H213402   3.732   5.619   4.719
 4466TIP3   OH213403   3.607   0.673   4.671
 4466TIP3    H113404   3.677   0.731   4.643
 4466TIP3    H213405   3.650   0.589   4.688
 4467TIP3   OH213406   1.320   4.305   0.703
 4467TIP3    H113407   1.412   4.287   0.721
 4467TIP3    H213408   1.279   4.316   0.789
 4468TIP3   OH213409   4.359   2.490   0.974
 4468TIP3    H113410   4.419   2.540   1.030
 4468TIP3    H213411   4.310   2.557   0.926
 4469TIP3   OH213412   5.980   5.818   4.164
 4469TIP3    H113413   5.931   5.892   4.127
 4469TIP3    H213414   5.979   5.752   4.095
 4470TIP3   OH213415   1.072   5.645   4.656
 4470TIP3    H113416   1.062   5.739   4.673
 4470TIP3    H213417   1.019   5.602   4.722
 4471TIP3   OH213418   1.904   3.002   3.278
 4471TIP3    H113419   1.871   2.912   3.271
 4471TIP3    H213420   1.853   3.051   3.214
 4472TIP3   OH213421   0.410   2.769   0.396
 4472TIP3    H113422   0.454   2.743   0.315
 4472TIP3    H213423   0.479   2.767   0.463
 4473TIP3   OH213424   1.399   2.660   0.674
 4473TIP3    H113425   1.351   2.733   0.713
 4473TIP3    H213426   1.423   2.691   0.586
 4474TIP3   OH213427   3.231   4.350   1.467
 4474TIP3    H113428   3.202   4.260   1.479
 4474TIP3    H213429   3.252   4.357   1.374
 4475TIP3   OH213430   5.113   1.809   4.331
 4475TIP3    H113431   5.076   1.784   4.246
 4475TIP3    H213432   5.190   1.753   4.341
 4476TIP3   OH213433   5.354   3.986   3.779
 4476TIP3    H113434   5.267   4.010   3.747
 4476TIP3    H213435   5.370   3.899   3.742
 4477TIP3   OH213436   2.407   4.192   0.469
 4477TIP3    H113437   2.393   4.284   0.493
 4477TIP3    H213438   2.381   4.143   0.547
 4478TIP3   OH213439   1.412   2.993   2.192
 4478TIP3    H113440   1.432   3.000   2.099
 4478TIP3    H213441   1.464   2.919   2.222
 4479TIP3   OH213442   1.325   1.162   0.356
 4479TIP3    H113443   1.315   1.120   0.271
 4479TIP3    H213444   1.296   1.095   0.419
 4480TIP3   OH213445   2.414   1.040   4.121
 4480TIP3    H113446   2.341   0.986   4.152
 4480TIP3    H213447   2.431   1.008   4.033
 4481TIP3   OH213448   2.832   1.113   3.894
 4481TIP3    H113449   2.818   1.037   3.839
 4481TIP3    H213450   2.900   1.164   3.849
 4482TIP3   OH213451   5.166   5.809   4.943
 4482TIP3    H113452   5.079   5.774   4.962
 4482TIP3    H213453   5.213   5.736   4.903
 4483TIP3   OH213454   4.268   3.083   1.689
 4483TIP3    H113455   4.182   3.123   1.695
 4483TIP3    H213456   4.273   3.024   1.764
 4484TIP3   OH213457   4.325   4.354   5.131
 4484TIP3    H113458   4.241   4.308   5.129
 4484TIP3    H213459   4.301   4.445   5.147
 4485TIP3   OH213460   5.857   5.467   2.693
 4485TIP3    H113461   5.767   5.466   2.726
 4485TIP3    H213462   5.886   5.376   2.698
 4486TIP3   OH213463   5.462   2.523   4.648
 4486TIP3    H113464   5.394   2.469   4.607
 4486TIP3    H213465   5.539   2.511   4.592
 4487TIP3   OH213466   4.601   2.096   1.700
 4487TIP3    H113467   4.567   2.177   1.663
 4487TIP3    H213468   4.530   2.033   1.688
 4488TIP3   OH213469   0.183   3.968   2.969
 4488TIP3    H113470   0.156   4.030   3.037
 4488TIP3    H213471   0.124   3.986   2.896
 4489TIP3   OH213472   5.099   3.567   4.809
 4489TIP3    H113473   5.169   3.539   4.868
 4489TIP3    H213474   5.144   3.605   4.734
 4490TIP3   OH213475   0.968   1.891   5.047
 4490TIP3    H113476   0.891   1.943   5.025
 4490TIP3    H213477   0.989   1.918   5.137
 4491TIP3   OH213478   1.946   3.564   0.803
 4491TIP3    H113479   1.904   3.493   0.851
 4491TIP3    H213480   1.978   3.623   0.871
 4492TIP3   OH213481   4.249   4.038   4.931
 4492TIP3    H113482   4.184   3.981   4.971
 4492TIP3    H213483   4.277   3.991   4.852
 4493TIP3   OH213484   3.681   0.119   2.949
 4493TIP3    H113485   3.602   0.145   2.997
 4493TIP3    H213486   3.751   0.121   3.014
 4494TIP3   OH213487   2.891   2.238   4.636
 4494TIP3    H113488   2.843   2.156   4.635
 4494TIP3    H213489   2.980   2.214   4.664
 4495TIP3   OH213490   1.476   0.857   2.912
 4495TIP3    H113491   1.449   0.948   2.926
 4495TIP3    H213492   1.468   0.845   2.817
 4496TIP3   OH213493   4.108   0.423   1.577
 4496TIP3    H113494   4.088   0.351   1.637
 4496TIP3    H213495   4.074   0.501   1.622
 4497TIP3   OH213496   2.090   5.533   3.328
 4497TIP3    H113497   2.140   5.607   3.362
 4497TIP3    H213498   2.108   5.533   3.234
 4498TIP3   OH213499   0.144   3.800   2.122
 4498TIP3    H113500   0.239   3.797   2.108
 4498TIP3    H213501   0.128   3.735   2.191
 4499TIP3   OH213502   0.613   4.017   5.155
 4499TIP3    H113503   0.580   4.088   5.100
 4499TIP3    H213504   0.685   3.980   5.103
 4500TIP3   OH213505   5.936   1.099   1.496
 4500TIP3    H113506   5.923   1.171   1.557
 4500TIP3    H213507   5.882   1.028   1.530
 4501TIP3   OH213508   0.921   2.570   1.081
 4501TIP3    H113509   0.870   2.496   1.048
 4501TIP3    H213510   0.998   2.573   1.024
 4502TIP3   OH213511   5.025   5.645   0.571
 4502TIP3    H113512   4.930   5.633   0.568
 4502TIP3    H213513   5.046   5.695   0.492
 4503TIP3   OH213514   2.334   4.088   5.010
 4503TIP3    H113515   2.409   4.036   5.040
 4503TIP3    H213516   2.258   4.035   5.031
 4504TIP3   OH213517   5.441   1.339   0.888
 4504TIP3    H113518   5.372   1.405   0.885
 4504TIP3    H213519   5.424   1.288   0.967
 4505TIP3   OH213520   0.825   5.947   2.914
 4505TIP3    H113521   0.815   5.887   2.840
 4505TIP3    H213522   0.736   5.959   2.947
 4506TIP3   OH213523   2.314   2.160   5.192
 4506TIP3    H113524   2.323   2.085   5.134
 4506TIP3    H213525   2.333   2.126   5.280
 4507TIP3   OH213526   1.200   3.799   3.419
 4507TIP3    H113527   1.106   3.812   3.415
 4507TIP3    H213528   1.233   3.832   3.336
 4508TIP3   OH213529   4.665   4.717   0.394
 4508TIP3    H113530   4.710   4.665   0.461
 4508TIP3    H213531   4.686   4.673   0.312
 4509TIP3   OH213532   3.703   1.046   2.435
 4509TIP3    H113533   3.701   1.141   2.445
 4509TIP3    H213534   3.793   1.026   2.408
 4510TIP3   OH213535   3.728   3.064   2.848
 4510TIP3    H113536   3.784   3.068   2.926
 4510TIP3    H213537   3.782   3.022   2.781
 4511TIP3   OH213538   5.442   0.924   5.048
 4511TIP3    H113539   5.354   0.904   5.016
 4511TIP3    H213540   5.476   0.840   5.079
 4512TIP3   OH213541   6.178   3.964   2.891
 4512TIP3    H113542   6.197   3.874   2.865
 4512TIP3    H213543   6.123   3.956   2.969
 4513TIP3   OH213544   1.889   2.667   1.725
 4513TIP3    H113545   1.868   2.751   1.766
 4513TIP3    H213546   1.824   2.607   1.761
 4514TIP3   OH213547   5.358   1.189   2.770
 4514TIP3    H113548   5.441   1.235   2.783
 4514TIP3    H213549   5.383   1.097   2.761
 4515TIP3   OH213550   1.157   1.740   2.484
 4515TIP3    H113551   1.087   1.741   2.419
 4515TIP3    H213552   1.127   1.798   2.554
 4516TIP3   OH213553   4.029   2.760   2.070
 4516TIP3    H113554   4.065   2.674   2.090
 4516TIP3    H213555   4.080   2.821   2.123
 4517TIP3   OH213556   4.974   2.701   2.839
 4517TIP3    H113557   5.004   2.622   2.884
 4517TIP3    H213558   4.934   2.669   2.758
 4518TIP3   OH213559   0.180   0.021   4.224
 4518TIP3    H113560   0.128   0.059   4.154
 4518TIP3    H213561   0.170   0.082   4.297
 4519TIP3   OH213562   4.355   4.339   4.692
 4519TIP3    H113563   4.378   4.341   4.599
 4519TIP3    H213564   4.272   4.291   4.695
 4520TIP3   OH213565   2.662   5.476   1.527
 4520TIP3    H113566   2.644   5.383   1.542
 4520TIP3    H213567   2.748   5.490   1.567
 4521TIP3   OH213568   5.523   0.360   0.963
 4521TIP3    H113569   5.441   0.359   0.914
 4521TIP3    H213570   5.500   0.328   1.050
 4522TIP3   OH213571   3.169   0.129   2.965
 4522TIP3    H113572   3.078   0.107   2.944
 4522TIP3    H213573   3.201   0.175   2.887
 4523TIP3   OH213574   4.544   1.553   1.155
 4523TIP3    H113575   4.532   1.641   1.119
 4523TIP3    H213576   4.628   1.557   1.202
 4524TIP3   OH213577   3.178   4.131   1.224
 4524TIP3    H113578   3.158   4.145   1.316
 4524TIP3    H213579   3.217   4.213   1.194
 4525TIP3   OH213580   5.054   3.142   3.866
 4525TIP3    H113581   5.031   3.102   3.950
 4525TIP3    H213582   5.147   3.162   3.874
 4526TIP3   OH213583   2.239   4.815   3.958
 4526TIP3    H113584   2.144   4.813   3.949
 4526TIP3    H213585   2.271   4.838   3.870
 4527TIP3   OH213586   3.361   2.367   5.114
 4527TIP3    H113587   3.265   2.361   5.114
 4527TIP3    H213588   3.389   2.314   5.189
 4528TIP3   OH213589   5.605   2.800   4.974
 4528TIP3    H113590   5.518   2.838   4.988
 4528TIP3    H213591   5.589   2.707   4.958
 4529TIP3   OH213592   0.393   4.904   0.981
 4529TIP3    H113593   0.405   4.911   0.887
 4529TIP3    H213594   0.348   4.820   0.993
 4530TIP3   OH213595   0.918   1.617   5.019
 4530TIP3    H113596   0.914   1.712   5.033
 4530TIP3    H213597   0.848   1.600   4.955
 4531TIP3   OH213598   5.683   4.388   0.202
 4531TIP3    H113599   5.714   4.409   0.114
 4531TIP3    H213600   5.713   4.462   0.256
 4532TIP3   OH213601   6.115   2.740   2.486
 4532TIP3    H113602   6.099   2.657   2.442
 4532TIP3    H213603   6.029   2.768   2.517
 4533TIP3   OH213604   2.662   2.997   1.575
 4533TIP3    H113605   2.629   2.912   1.601
 4533TIP3    H213606   2.583   3.050   1.560
 4534TIP3   OH213607   3.308   0.136   2.266
 4534TIP3    H113608   3.213   0.142   2.277
 4534TIP3    H213609   3.331   0.213   2.215
 4535TIP3   OH213610   1.750   2.815   4.646
 4535TIP3    H113611   1.667   2.832   4.603
 4535TIP3    H213612   1.788   2.741   4.598
 4536TIP3   OH213613   3.106   0.801   0.546
 4536TIP3    H113614   3.023   0.767   0.514
 4536TIP3    H213615   3.087   0.832   0.635
 4537TIP3   OH213616   6.113   1.470   3.112
 4537TIP3    H113617   6.036   1.474   3.056
 4537TIP3    H213618   6.174   1.534   3.075
 4538TIP3   OH213619   2.767   5.145   1.415
 4538TIP3    H113620   2.757   5.148   1.510
 4538TIP3    H213621   2.677   5.145   1.381
 4539TIP3   OH213622   4.384   1.367   1.281
 4539TIP3    H113623   4.449   1.410   1.225
 4539TIP3    H213624   4.434   1.302   1.329
 4540TIP3   OH213625   3.099   0.508   1.688
 4540TIP3    H113626   3.112   0.423   1.645
 4540TIP3    H213627   3.047   0.488   1.765
 4541TIP3   OH213628   0.138   2.143   5.107
 4541TIP3    H113629   0.141   2.110   5.017
 4541TIP3    H213630   0.220   2.115   5.146
 4542TIP3   OH213631   0.258   5.802   4.037
 4542TIP3    H113632   0.290   5.873   3.982
 4542TIP3    H213633   0.184   5.765   3.989
 4543TIP3   OH213634   3.600   5.222   2.114
 4543TIP3    H113635   3.644   5.162   2.175
 4543TIP3    H213636   3.556   5.285   2.171
 4544TIP3   OH213637   2.272   5.725   3.450
 4544TIP3    H113638   2.339   5.732   3.383
 4544TIP3    H213639   2.262   5.815   3.483
 4545TIP3   OH213640   5.024   4.732   1.780
 4545TIP3    H113641   4.942   4.714   1.734
 4545TIP3    H213642   5.081   4.772   1.714
 4546TIP3   OH213643   0.832   0.251   3.608
 4546TIP3    H113644   0.871   0.201   3.680
 4546TIP3    H213645   0.895   0.321   3.591
 4547TIP3   OH213646   2.460   1.515   3.178
 4547TIP3    H113647   2.475   1.560   3.095
 4547TIP3    H213648   2.424   1.430   3.152
 4548TIP3   OH213649   4.352   1.121   3.527
 4548TIP3    H113650   4.321   1.159   3.610
 4548TIP3    H213651   4.409   1.049   3.553
 4549TIP3   OH213652   3.023   3.998   1.746
 4549TIP3    H113653   2.983   3.938   1.808
 4549TIP3    H213654   2.950   4.033   1.695
 4550TIP3   OH213655   3.779   0.865   4.068
 4550TIP3    H113656   3.837   0.845   3.995
 4550TIP3    H213657   3.706   0.913   4.028
 4551TIP3   OH213658   6.265   0.123   1.010
 4551TIP3    H113659   6.341   0.159   0.964
 4551TIP3    H213660   6.191   0.140   0.952
 4552TIP3   OH213661   2.387   2.605   5.144
 4552TIP3    H113662   2.314   2.581   5.087
 4552TIP3    H213663   2.412   2.523   5.187
 4553TIP3   OH213664   4.505   0.906   2.348
 4553TIP3    H113665   4.584   0.853   2.333
 4553TIP3    H213666   4.482   0.939   2.261
 4554TIP3   OH213667   5.656   5.197   0.656
 4554TIP3    H113668   5.594   5.267   0.678
 4554TIP3    H213669   5.620   5.119   0.698
 4555TIP3   OH213670   5.994   2.420   1.107
 4555TIP3    H113671   5.907   2.455   1.089
 4555TIP3    H213672   6.010   2.442   1.199
 4556TIP3   OH213673   5.649   5.559   0.021
 4556TIP3    H113674   5.622   5.563   0.113
 4556TIP3    H213675   5.588   5.496  -0.018
 4557TIP3   OH213676   3.453   3.297   5.070
 4557TIP3    H113677   3.429   3.227   5.010
 4557TIP3    H213678   3.534   3.332   5.034
 4558TIP3   OH213679   5.078   2.026   1.733
 4558TIP3    H113680   5.097   2.100   1.675
 4558TIP3    H213681   5.154   2.021   1.790
 4559TIP3   OH213682   3.037   0.094   2.660
 4559TIP3    H113683   3.078   0.169   2.704
 4559TIP3    H213684   3.090   0.019   2.685
 4560TIP3   OH213685   2.071   0.355   3.428
 4560TIP3    H113686   2.070   0.329   3.335
 4560TIP3    H213687   1.982   0.385   3.444
 4561TIP3   OH213688   2.348   4.045   0.258
 4561TIP3    H113689   2.366   4.128   0.302
 4561TIP3    H213690   2.390   3.979   0.313
 4562TIP3   OH213691   4.641   0.645   2.574
 4562TIP3    H113692   4.631   0.732   2.613
 4562TIP3    H213693   4.622   0.585   2.646
 4563TIP3   OH213694   2.436   5.458   3.164
 4563TIP3    H113695   2.341   5.458   3.173
 4563TIP3    H213696   2.452   5.433   3.073
 4564TIP3   OH213697   3.968   3.695   2.717
 4564TIP3    H113698   3.886   3.664   2.678
 4564TIP3    H213699   4.033   3.684   2.648
 4565TIP3   OH213700   0.405   1.695   0.949
 4565TIP3    H113701   0.323   1.740   0.971
 4565TIP3    H213702   0.406   1.693   0.853
 4566TIP3   OH213703   0.040   0.100   2.797
 4566TIP3    H113704   0.080   0.187   2.795
 4566TIP3    H213705  -0.048   0.113   2.761
 4567TIP3   OH213706   2.761   3.446   1.989
 4567TIP3    H113707   2.751   3.460   2.084
 4567TIP3    H213708   2.796   3.357   1.982
 4568TIP3   OH213709   1.427   1.672   2.386
 4568TIP3    H113710   1.344   1.690   2.430
 4568TIP3    H213711   1.402   1.632   2.303
 4569TIP3   OH213712   3.256   3.007   0.309
 4569TIP3    H113713   3.316   3.040   0.242
 4569TIP3    H213714   3.312   2.957   0.369
 4570TIP3   OH213715   4.736   4.607   0.166
 4570TIP3    H113716   4.809   4.578   0.111
 4570TIP3    H213717   4.659   4.563   0.129
 4571TIP3   OH213718   4.299   0.689   3.028
 4571TIP3    H113719   4.295   0.607   2.979
 4571TIP3    H213720   4.256   0.753   2.971
 4572TIP3   OH213721   4.345   5.545   2.564
 4572TIP3    H113722   4.405   5.548   2.489
 4572TIP3    H213723   4.272   5.491   2.534
 4573TIP3   OH213724   1.005   1.140   4.730
 4573TIP3    H113725   0.958   1.072   4.683
 4573TIP3    H213726   1.044   1.195   4.662
 4574TIP3   OH213727   4.596   3.217   2.269
 4574TIP3    H113728   4.620   3.142   2.215
 4574TIP3    H213729   4.534   3.182   2.333
 4575TIP3   OH213730   4.291   1.545   2.304
 4575TIP3    H113731   4.319   1.462   2.341
 4575TIP3    H213732   4.373   1.589   2.278
 4576TIP3   OH213733   2.992   5.199   1.065
 4576TIP3    H113734   3.061   5.142   1.032
 4576TIP3    H213735   3.026   5.233   1.147
 4577TIP3   OH213736   4.240   5.190   0.429
 4577TIP3    H113737   4.279   5.171   0.343
 4577TIP3    H213738   4.188   5.113   0.450
 4578TIP3   OH213739   0.421   2.819   3.808
 4578TIP3    H113740   0.462   2.844   3.725
 4578TIP3    H213741   0.422   2.723   3.808
 4579TIP3   OH213742   2.810   4.116   3.919
 4579TIP3    H113743   2.868   4.180   3.960
 4579TIP3    H213744   2.864   4.076   3.851
 4580TIP3   OH213745   4.443   2.634   4.686
 4580TIP3    H113746   4.516   2.648   4.626
 4580TIP3    H213747   4.459   2.696   4.758
 4581TIP3   OH213748   0.027   0.894   5.063
 4581TIP3    H113749   0.017   0.886   4.968
 4581TIP3    H213750   0.115   0.861   5.081
 4582TIP3   OH213751   0.254   4.649   1.418
 4582TIP3    H113752   0.188   4.601   1.368
 4582TIP3    H213753   0.333   4.642   1.366
 4583TIP3   OH213754   1.959   4.328   3.186
 4583TIP3    H113755   1.924   4.333   3.097
 4583TIP3    H213756   1.881   4.316   3.241
 4584TIP3   OH213757   0.357   2.134   2.622
 4584TIP3    H113758   0.441   2.177   2.606
 4584TIP3    H213759   0.335   2.156   2.712
 4585TIP3   OH213760   3.005   3.467   1.363
 4585TIP3    H113761   3.096   3.438   1.361
 4585TIP3    H213762   3.010   3.563   1.360
 4586TIP3   OH213763   0.761   3.684   4.984
 4586TIP3    H113764   0.836   3.637   5.019
 4586TIP3    H213765   0.771   3.676   4.889
 4587TIP3   OH213766   6.315   2.728   1.543
 4587TIP3    H113767   6.319   2.665   1.615
 4587TIP3    H213768   6.295   2.812   1.585
 4588TIP3   OH213769   3.117   3.091   5.115
 4588TIP3    H113770   3.063   3.169   5.129
 4588TIP3    H213771   3.061   3.032   5.065
 4589TIP3   OH213772   2.775   2.024   3.530
 4589TIP3    H113773   2.746   1.933   3.525
 4589TIP3    H213774   2.723   2.069   3.464
 4590TIP3   OH213775   6.260   1.712   3.019
 4590TIP3    H113776   6.212   1.737   2.940
 4590TIP3    H213777   6.348   1.691   2.988
 4591TIP3   OH213778   1.366   1.660   4.461
 4591TIP3    H113779   1.387   1.646   4.553
 4591TIP3    H213780   1.345   1.573   4.427
 4592TIP3   OH213781   0.599   5.935   3.741
 4592TIP3    H113782   0.645   5.985   3.674
 4592TIP3    H213783   0.510   5.923   3.706
 4593TIP3   OH213784   3.289   0.156   3.294
 4593TIP3    H113785   3.220   0.096   3.263
 4593TIP3    H213786   3.271   0.167   3.387
 4594TIP3   OH213787   3.352   5.567   1.340
 4594TIP3    H113788   3.258   5.568   1.356
 4594TIP3    H213789   3.367   5.643   1.283
 4595TIP3   OH213790   1.975   0.736   2.957
 4595TIP3    H113791   1.948   0.819   2.997
 4595TIP3    H213792   1.982   0.675   3.030
 4596TIP3   OH213793   0.949   4.783   3.734
 4596TIP3    H113794   0.992   4.869   3.730
 4596TIP3    H213795   0.950   4.760   3.827
 4597TIP3   OH213796   3.696   0.445   2.613
 4597TIP3    H113797   3.780   0.489   2.625
 4597TIP3    H213798   3.718   0.352   2.611
 4598TIP3   OH213799   6.126   4.565   2.694
 4598TIP3    H113800   6.088   4.481   2.718
 4598TIP3    H213801   6.060   4.630   2.718
 4599TIP3   OH213802   1.526   5.675   0.326
 4599TIP3    H113803   1.513   5.619   0.249
 4599TIP3    H213804   1.542   5.613   0.397
 4600TIP3   OH213805   4.858   3.466   1.319
 4600TIP3    H113806   4.887   3.378   1.343
 4600TIP3    H213807   4.765   3.456   1.298
 4601TIP3   OH213808   1.005   4.237   1.766
 4601TIP3    H113809   1.023   4.294   1.692
 4601TIP3    H213810   1.045   4.153   1.742
 4602TIP3   OH213811   5.814   4.625   5.092
 4602TIP3    H113812   5.865   4.551   5.059
 4602TIP3    H213813   5.876   4.674   5.146
 4603TIP3   OH213814   1.658   4.515   3.469
 4603TIP3    H113815   1.581   4.569   3.457
 4603TIP3    H213816   1.638   4.460   3.545
 4604TIP3   OH213817   0.927   3.808   1.896
 4604TIP3    H113818   0.855   3.823   1.957
 4604TIP3    H213819   0.898   3.850   1.815
 4605TIP3   OH213820   3.905   5.564   4.255
 4605TIP3    H113821   3.815   5.593   4.264
 4605TIP3    H213822   3.950   5.602   4.331
 4606TIP3   OH213823   5.067   5.647   1.704
 4606TIP3    H113824   5.091   5.737   1.682
 4606TIP3    H213825   5.132   5.593   1.660
 4607TIP3   OH213826   0.062   3.930   2.646
 4607TIP3    H113827   0.151   3.965   2.647
 4607TIP3    H213828   0.025   3.960   2.563
 4608TIP3   OH213829   3.205   5.244   0.222
 4608TIP3    H113830   3.162   5.299   0.156
 4608TIP3    H213831   3.296   5.240   0.194
 4609TIP3   OH213832   4.303   2.690   0.275
 4609TIP3    H113833   4.340   2.673   0.188
 4609TIP3    H213834   4.229   2.630   0.282
 4610TIP3   OH213835   3.479   1.879   1.238
 4610TIP3    H113836   3.522   1.824   1.173
 4610TIP3    H213837   3.548   1.938   1.269
 4611TIP3   OH213838   2.090   1.600   3.101
 4611TIP3    H113839   2.141   1.571   3.025
 4611TIP3    H213840   2.038   1.524   3.126
 4612TIP3   OH213841   1.532   1.778   3.689
 4612TIP3    H113842   1.590   1.732   3.749
 4612TIP3    H213843   1.566   1.867   3.687
 4613TIP3   OH213844   6.132   3.967   0.521
 4613TIP3    H113845   6.137   3.986   0.614
 4613TIP3    H213846   6.094   4.045   0.481
 4614TIP3   OH213847   0.068   1.421   0.533
 4614TIP3    H113848   0.107   1.337   0.559
 4614TIP3    H213849   0.072   1.421   0.438
 4615TIP3   OH213850   0.795   3.572   2.160
 4615TIP3    H113851   0.790   3.667   2.159
 4615TIP3    H213852   0.887   3.553   2.181
 4616TIP3   OH213853   1.452   0.031   0.388
 4616TIP3    H113854   1.362   0.057   0.409
 4616TIP3    H213855   1.458  -0.060   0.419
 4617TIP3   OH213856   4.159   0.640   3.663
 4617TIP3    H113857   4.116   0.555   3.673
 4617TIP3    H213858   4.182   0.646   3.571
 4618TIP3   OH213859   3.894   2.762   4.980
 4618TIP3    H113860   3.817   2.795   4.935
 4618TIP3    H213861   3.950   2.839   4.991
 4619TIP3   OH213862   1.503   2.819   2.759
 4619TIP3    H113863   1.504   2.724   2.766
 4619TIP3    H213864   1.525   2.850   2.847
 4620TIP3   OH213865   5.271   1.436   1.416
 4620TIP3    H113866   5.278   1.470   1.505
 4620TIP3    H213867   5.347   1.473   1.370
 4621TIP3   OH213868   1.804   2.766   5.069
 4621TIP3    H113869   1.826   2.698   5.006
 4621TIP3    H213870   1.826   2.848   5.025
 4622TIP3   OH213871   5.558   3.514   0.175
 4622TIP3    H113872   5.486   3.504   0.113
 4622TIP3    H213873   5.607   3.590   0.142
 4623TIP3   OH213874   4.044   4.759   3.759
 4623TIP3    H113875   4.070   4.851   3.765
 4623TIP3    H213876   3.953   4.762   3.729
 4624TIP3   OH213877   6.218   4.300   2.364
 4624TIP3    H113878   6.245   4.350   2.441
 4624TIP3    H213879   6.126   4.323   2.352
 4625TIP3   OH213880   3.623   5.548   2.424
 4625TIP3    H113881   3.588   5.467   2.461
 4625TIP3    H213882   3.693   5.573   2.485
 4626TIP3   OH213883   1.793   5.105   2.058
 4626TIP3    H113884   1.810   5.188   2.013
 4626TIP3    H213885   1.855   5.043   2.017
 4627TIP3   OH213886   4.676   1.220   2.065
 4627TIP3    H113887   4.736   1.281   2.023
 4627TIP3    H213888   4.594   1.230   2.018
 4628TIP3   OH213889   4.398   0.490   0.875
 4628TIP3    H113890   4.442   0.456   0.797
 4628TIP3    H213891   4.467   0.534   0.924
 4629TIP3   OH213892   2.018   4.434   1.393
 4629TIP3    H113893   1.956   4.508   1.395
 4629TIP3    H213894   2.103   4.475   1.377
 4630TIP3   OH213895   6.028   2.796   1.921
 4630TIP3    H113896   6.094   2.777   1.987
 4630TIP3    H213897   5.955   2.737   1.941
 4631TIP3   OH213898   4.367   4.505   0.611
 4631TIP3    H113899   4.299   4.489   0.676
 4631TIP3    H213900   4.410   4.586   0.640
 4632TIP3   OH213901   1.645   3.937   4.856
 4632TIP3    H113902   1.724   3.991   4.852
 4632TIP3    H213903   1.634   3.916   4.948
 4633TIP3   OH213904   4.085   4.404   4.528
 4633TIP3    H113905   4.105   4.312   4.547
 4633TIP3    H213906   4.045   4.403   4.441
 4634TIP3   OH213907   2.231   4.937   2.407
 4634TIP3    H113908   2.235   4.937   2.503
 4634TIP3    H213909   2.320   4.912   2.380
 4635TIP3   OH213910   3.863   0.015   4.809
 4635TIP3    H113911   3.943  -0.032   4.786
 4635TIP3    H213912   3.888   0.108   4.802
 4636TIP3   OH213913   1.451   0.358   3.810
 4636TIP3    H113914   1.487   0.287   3.862
 4636TIP3    H213915   1.501   0.435   3.836
 4637TIP3   OH213916   2.859   0.472   3.712
 4637TIP3    H113917   2.903   0.387   3.711
 4637TIP3    H213918   2.913   0.526   3.770
 4638TIP3   OH213919   1.447   4.678   3.440
 4638TIP3    H113920   1.358   4.642   3.443
 4638TIP3    H213921   1.436   4.771   3.457
 4639TIP3   OH213922   2.697   4.048   0.159
 4639TIP3    H113923   2.683   4.142   0.158
 4639TIP3    H213924   2.732   4.029   0.246
 4640TIP3   OH213925   0.184   1.417   1.677
 4640TIP3    H113926   0.218   1.495   1.633
 4640TIP3    H213927   0.262   1.370   1.706
 4641TIP3   OH213928   0.751   1.597   2.271
 4641TIP3    H113929   0.693   1.561   2.204
 4641TIP3    H213930   0.696   1.654   2.324
 4642TIP3   OH213931  -0.022   2.862   3.554
 4642TIP3    H113932   0.047   2.858   3.620
 4642TIP3    H213933  -0.026   2.955   3.530
 4643TIP3   OH213934   4.233   3.220   2.235
 4643TIP3    H113935   4.325   3.204   2.216
 4643TIP3    H213936   4.205   3.282   2.168
 4644TIP3   OH213937   4.549   0.169   4.164
 4644TIP3    H113938   4.603   0.213   4.099
 4644TIP3    H213939   4.597   0.181   4.247
 4645TIP3   OH213940   1.582   3.197   3.013
 4645TIP3    H113941   1.601   3.224   2.923
 4645TIP3    H213942   1.647   3.244   3.066
 4646TIP3   OH213943   2.799   2.050   1.812
 4646TIP3    H113944   2.752   2.004   1.743
 4646TIP3    H213945   2.834   2.128   1.769
 4647TIP3   OH213946   3.213   3.736   0.969
 4647TIP3    H113947   3.142   3.675   0.951
 4647TIP3    H213948   3.264   3.695   1.038
 4648TIP3   OH213949   1.340   3.880   3.189
 4648TIP3    H113950   1.266   3.922   3.145
 4648TIP3    H213951   1.373   3.817   3.125
 4649TIP3   OH213952   5.681   0.634   1.461
 4649TIP3    H113953   5.736   0.686   1.403
 4649TIP3    H213954   5.604   0.612   1.408
 4650TIP3   OH213955   4.911   1.558   4.989
 4650TIP3    H113956   4.984   1.608   4.953
 4650TIP3    H213957   4.888   1.603   5.069
 4651TIP3   OH213958   5.698   5.378   4.402
 4651TIP3    H113959   5.621   5.402   4.351
 4651TIP3    H213960   5.730   5.461   4.438
 4652TIP3   OH213961   3.582   0.337   5.172
 4652TIP3    H113962   3.579   0.417   5.119
 4652TIP3    H213963   3.500   0.339   5.222
 4653TIP3   OH213964   4.578   0.867   4.656
 4653TIP3    H113965   4.631   0.787   4.655
 4653TIP3    H213966   4.578   0.896   4.565
 4654TIP3   OH213967   2.679   2.660   4.826
 4654TIP3    H113968   2.643   2.648   4.738
 4654TIP3    H213969   2.743   2.590   4.836
 4655TIP3   OH213970   0.910   1.117   0.838
 4655TIP3    H113971   0.816   1.126   0.825
 4655TIP3    H213972   0.922   1.024   0.857
 4656TIP3   OH213973   1.424   1.064   2.483
 4656TIP3    H113974   1.454   1.155   2.493
 4656TIP3    H213975   1.404   1.056   2.390
 4657TIP3   OH213976   3.103   1.319   3.313
 4657TIP3    H113977   3.026   1.329   3.257
 4657TIP3    H213978   3.176   1.348   3.258
 4658TIP3   OH213979   4.965   1.495   2.417
 4658TIP3    H113980   4.920   1.426   2.466
 4658TIP3    H213981   4.905   1.570   2.422
 4659TIP3   OH213982   1.283   3.426   2.759
 4659TIP3    H113983   1.374   3.398   2.745
 4659TIP3    H213984   1.241   3.414   2.673
 4660TIP3   OH213985   2.664   1.260   3.264
 4660TIP3    H113986   2.735   1.307   3.220
 4660TIP3    H213987   2.690   1.168   3.260
 4661TIP3   OH213988   4.954   4.746   2.441
 4661TIP3    H113989   4.931   4.725   2.351
 4661TIP3    H213990   5.016   4.818   2.434
 4662TIP3   OH213991   0.159   3.791   4.734
 4662TIP3    H113992   0.198   3.779   4.648
 4662TIP3    H213993   0.234   3.789   4.794
 4663TIP3   OH213994   1.596   3.330   4.330
 4663TIP3    H113995   1.522   3.274   4.351
 4663TIP3    H213996   1.672   3.272   4.333
 4664TIP3   OH213997   0.438   5.518   3.911
 4664TIP3    H113998   0.409   5.535   3.822
 4664TIP3    H213999   0.418   5.425   3.925
 4665TIP3   OH214000   4.441   2.919   0.209
 4665TIP3    H114001   4.476   2.830   0.200
 4665TIP3    H214002   4.374   2.925   0.141
 4666TIP3   OH214003   5.205   0.964   0.994
 4666TIP3    H114004   5.145   0.957   1.068
 4666TIP3    H214005   5.286   0.923   1.025
 4667TIP3   OH214006   1.689   4.821   2.947
 4667TIP3    H114007   1.705   4.826   2.853
 4667TIP3    H214008   1.646   4.904   2.968
 4668TIP3   OH214009   6.158   0.777   4.204
 4668TIP3    H114010   6.126   0.844   4.144
 4668TIP3    H214011   6.191   0.708   4.147
 4669TIP3   OH214012   6.210   0.311   2.386
 4669TIP3    H114013   6.258   0.273   2.313
 4669TIP3    H214014   6.225   0.405   2.378
 4670TIP3   OH214015   1.063   1.289   0.105
 4670TIP3    H114016   1.150   1.316   0.076
 4670TIP3    H214017   1.012   1.370   0.105
 4671TIP3   OH214018   3.928   3.647   4.174
 4671TIP3    H114019   3.947   3.568   4.226
 4671TIP3    H214020   3.939   3.619   4.083
 4672TIP3   OH214021   3.253   3.256   0.452
 4672TIP3    H114022   3.213   3.225   0.371
 4672TIP3    H214023   3.338   3.289   0.425
 4673TIP3   OH214024   3.259   5.272   1.327
 4673TIP3    H114025   3.231   5.363   1.340
 4673TIP3    H214026   3.184   5.220   1.356
 4674TIP3   OH214027   4.316   5.810   2.598
 4674TIP3    H114028   4.333   5.716   2.606
 4674TIP3    H214029   4.368   5.838   2.523
 4675TIP3   OH214030   1.171   2.805   3.134
 4675TIP3    H114031   1.126   2.879   3.093
 4675TIP3    H214032   1.105   2.735   3.134
 4676TIP3   OH214033   2.415   3.408   1.434
 4676TIP3    H114034   2.496   3.356   1.426
 4676TIP3    H214035   2.374   3.377   1.514
 4677TIP3   OH214036   1.378   4.410   3.828
 4677TIP3    H114037   1.315   4.459   3.776
 4677TIP3    H214038   1.332   4.388   3.908
 4678TIP3   OH214039   5.798   0.705  -0.027
 4678TIP3    H114040   5.873   0.744  -0.072
 4678TIP3    H214041   5.834   0.671   0.055
 4679TIP3   OH214042   3.308   1.689   3.932
 4679TIP3    H114043   3.322   1.659   4.021
 4679TIP3    H214044   3.288   1.783   3.941
 4680TIP3   OH214045   4.550   4.891   4.592
 4680TIP3    H114046   4.575   4.822   4.531
 4680TIP3    H214047   4.610   4.880   4.666
 4681TIP3   OH214048   4.242   0.671   4.462
 4681TIP3    H114049   4.243   0.592   4.517
 4681TIP3    H214050   4.178   0.652   4.394
 4682TIP3   OH214051   5.132   5.466   4.886
 4682TIP3    H114052   5.149   5.478   4.793
 4682TIP3    H214053   5.037   5.456   4.892
 4683TIP3   OH214054   3.295   2.675   2.474
 4683TIP3    H114055   3.307   2.685   2.379
 4683TIP3    H214056   3.224   2.611   2.482
 4684TIP3   OH214057   1.684   0.273   1.231
 4684TIP3    H114058   1.617   0.306   1.291
 4684TIP3    H214059   1.760   0.328   1.247
 4685TIP3   OH214060   2.960   5.201   3.095
 4685TIP3    H114061   2.979   5.184   3.003
 4685TIP3    H214062   2.978   5.294   3.106
 4686TIP3   OH214063   6.308   4.246   2.129
 4686TIP3    H114064   6.316   4.158   2.165
 4686TIP3    H214065   6.272   4.298   2.201
 4687TIP3   OH214066   2.104   3.262   4.658
 4687TIP3    H114067   2.134   3.179   4.693
 4687TIP3    H214068   2.008   3.256   4.659
 4688TIP3   OH214069   1.320   3.056   4.188
 4688TIP3    H114070   1.404   3.012   4.199
 4688TIP3    H214071   1.298   3.043   4.095
 4689TIP3   OH214072   5.299   2.607   1.624
 4689TIP3    H114073   5.328   2.644   1.707
 4689TIP3    H214074   5.320   2.514   1.630
 4690TIP3   OH214075   0.163   1.651   2.888
 4690TIP3    H114076   0.237   1.679   2.942
 4690TIP3    H214077   0.191   1.666   2.798
 4691TIP3   OH214078   1.315   2.438   1.456
 4691TIP3    H114079   1.318   2.507   1.390
 4691TIP3    H214080   1.222   2.415   1.462
 4692TIP3   OH214081   0.467   5.897   3.158
 4692TIP3    H114082   0.437   5.819   3.112
 4692TIP3    H214083   0.418   5.896   3.240
 4693TIP3   OH214084   3.644   1.907   0.540
 4693TIP3    H114085   3.734   1.938   0.549
 4693TIP3    H214086   3.650   1.812   0.543
 4694TIP3   OH214087   3.813   2.832   2.627
 4694TIP3    H114088   3.738   2.890   2.611
 4694TIP3    H214089   3.776   2.744   2.622
 4695TIP3   OH214090   4.178   0.757   2.471
 4695TIP3    H114091   4.228   0.750   2.553
 4695TIP3    H214092   4.240   0.731   2.403
 4696TIP3   OH214093   5.113   5.345   2.068
 4696TIP3    H114094   5.094   5.433   2.038
 4696TIP3    H214095   5.151   5.357   2.156
 4697TIP3   OH214096   2.365   0.109   5.119
 4697TIP3    H114097   2.365   0.186   5.175
 4697TIP3    H214098   2.444   0.060   5.145
 4698TIP3   OH214099   4.042   3.397   3.677
 4698TIP3    H114100   4.063   3.339   3.604
 4698TIP3    H214101   4.119   3.396   3.732
 4699TIP3   OH214102   3.944   1.114   2.170
 4699TIP3    H114103   3.855   1.141   2.145
 4699TIP3    H214104   3.950   1.023   2.143
 4700TIP3   OH214105   6.033   2.807   4.541
 4700TIP3    H114106   5.979   2.728   4.541
 4700TIP3    H214107   6.049   2.825   4.633
 4701TIP3   OH214108   1.958   3.648   4.624
 4701TIP3    H114109   1.971   3.665   4.530
 4701TIP3    H214110   2.041   3.611   4.654
 4702TIP3   OH214111   0.240   2.305   3.303
 4702TIP3    H114112   0.308   2.261   3.253
 4702TIP3    H214113   0.172   2.325   3.239
 4703TIP3   OH214114   1.218   3.726   4.672
 4703TIP3    H114115   1.308   3.759   4.669
 4703TIP3    H214116   1.194   3.714   4.580
 4704TIP3   OH214117   0.566   3.424   4.363
 4704TIP3    H114118   0.649   3.383   4.388
 4704TIP3    H214119   0.500   3.356   4.375
 4705TIP3   OH214120   5.226   1.206   2.386
 4705TIP3    H114121   5.303   1.150   2.374
 4705TIP3    H214122   5.152   1.147   2.374
 4706TIP3   OH214123   5.809   1.903   2.271
 4706TIP3    H114124   5.797   1.808   2.270
 4706TIP3    H214125   5.747   1.935   2.336
 4707TIP3   OH214126   6.079   5.092   2.771
 4707TIP3    H114127   5.991   5.063   2.797
 4707TIP3    H214128   6.130   5.088   2.852
 4708TIP3   OH214129   0.413   0.769   2.671
 4708TIP3    H114130   0.498   0.729   2.650
 4708TIP3    H214131   0.397   0.830   2.599
 4709TIP3   OH214132   1.633   0.719   4.040
 4709TIP3    H114133   1.642   0.745   4.132
 4709TIP3    H214134   1.661   0.628   4.038
 4710TIP3   OH214135   0.799   0.068   3.824
 4710TIP3    H114136   0.736   0.081   3.753
 4710TIP3    H214137   0.746   0.043   3.899
 4711TIP3   OH214138   4.746   0.654   3.588
 4711TIP3    H114139   4.795   0.637   3.669
 4711TIP3    H214140   4.661   0.613   3.603
 4712TIP3   OH214141   1.789   4.596   3.109
 4712TIP3    H114142   1.769   4.645   3.029
 4712TIP3    H214143   1.798   4.505   3.080
 4713TIP3   OH214144   1.273   1.757   3.788
 4713TIP3    H114145   1.367   1.744   3.774
 4713TIP3    H214146   1.255   1.844   3.753
 4714TIP3   OH214147   1.723   0.246   3.447
 4714TIP3    H114148   1.636   0.249   3.488
 4714TIP3    H214149   1.767   0.324   3.478
 4715TIP3   OH214150   0.297   5.639   1.831
 4715TIP3    H114151   0.212   5.601   1.812
 4715TIP3    H214152   0.310   5.704   1.762
 4716TIP3   OH214153   5.618   2.518   4.920
 4716TIP3    H114154   5.681   2.449   4.939
 4716TIP3    H214155   5.557   2.478   4.858
 4717TIP3   OH214156   6.196   2.563   3.755
 4717TIP3    H114157   6.117   2.616   3.762
 4717TIP3    H214158   6.250   2.590   3.830
 4718TIP3   OH214159   6.166   2.341   1.553
 4718TIP3    H114160   6.212   2.260   1.529
 4718TIP3    H214161   6.074   2.323   1.537
 4719TIP3   OH214162   3.665   2.924   0.327
 4719TIP3    H114163   3.733   2.859   0.343
 4719TIP3    H214164   3.622   2.895   0.247
 4720TIP3   OH214165   3.676   5.218   0.143
 4720TIP3    H114166   3.732   5.152   0.185
 4720TIP3    H214167   3.706   5.219   0.052
 4721TIP3   OH214168   0.842   3.980   0.103
 4721TIP3    H114169   0.790   3.981   0.022
 4721TIP3    H214170   0.877   4.069   0.111
 4722TIP3   OH214171   5.341   3.241   0.561
 4722TIP3    H114172   5.398   3.294   0.505
 4722TIP3    H214173   5.284   3.194   0.500
 4723TIP3   OH214174   3.212   4.796   1.158
 4723TIP3    H114175   3.166   4.716   1.183
 4723TIP3    H214176   3.143   4.857   1.134
 4724TIP3   OH214177   1.240   2.510   1.801
 4724TIP3    H114178   1.252   2.594   1.845
 4724TIP3    H214179   1.220   2.532   1.710
 4725TIP3   OH214180   5.537   5.446   3.335
 4725TIP3    H114181   5.464   5.506   3.320
 4725TIP3    H214182   5.542   5.437   3.430
 4726TIP3   OH214183   0.308   0.796   3.533
 4726TIP3    H114184   0.347   0.798   3.620
 4726TIP3    H214185   0.224   0.751   3.546
 4727TIP3   OH214186   0.665   4.478   3.405
 4727TIP3    H114187   0.744   4.530   3.423
 4727TIP3    H214188   0.611   4.490   3.484
 4728TIP3   OH214189   6.111   4.821   3.525
 4728TIP3    H114190   6.141   4.771   3.601
 4728TIP3    H214191   6.038   4.874   3.558
 4729TIP3   OH214192   0.926   1.909   0.759
 4729TIP3    H114193   0.947   2.002   0.770
 4729TIP3    H214194   0.846   1.909   0.707
 4730TIP3   OH214195   5.140   2.245   1.570
 4730TIP3    H114196   5.201   2.317   1.557
 4730TIP3    H214197   5.091   2.241   1.488
 4731TIP3   OH214198   3.121   1.834   1.636
 4731TIP3    H114199   3.091   1.784   1.560
 4731TIP3    H214200   3.160   1.913   1.599
 4732TIP3   OH214201   1.900   5.107   0.435
 4732TIP3    H114202   1.924   5.186   0.386
 4732TIP3    H214203   1.916   5.036   0.374
 4733TIP3   OH214204   2.277   3.261   4.957
 4733TIP3    H114205   2.261   3.175   4.917
 4733TIP3    H214206   2.343   3.302   4.901
 4734TIP3   OH214207   6.135   2.775   4.828
 4734TIP3    H114208   6.077   2.708   4.864
 4734TIP3    H214209   6.097   2.858   4.855
 4735TIP3   OH214210   2.033   3.913   2.434
 4735TIP3    H114211   2.069   3.942   2.350
 4735TIP3    H214212   2.038   3.817   2.431
 4736TIP3   OH214213   0.545   3.967   2.450
 4736TIP3    H114214   0.473   4.023   2.480
 4736TIP3    H214215   0.545   3.977   2.355
 4737TIP3   OH214216   4.853   4.644   1.089
 4737TIP3    H114217   4.843   4.603   1.175
 4737TIP3    H214218   4.904   4.581   1.039
 4738TIP3   OH214219   4.555   2.088   2.798
 4738TIP3    H114220   4.546   2.135   2.715
 4738TIP3    H214221   4.622   2.022   2.782
 4739TIP3   OH214222   0.766   3.427   1.493
 4739TIP3    H114223   0.830   3.379   1.545
 4739TIP3    H214224   0.691   3.368   1.485
 4740TIP3   OH214225   5.042   4.714   4.978
 4740TIP3    H114226   5.111   4.749   5.035
 4740TIP3    H214227   5.083   4.706   4.892
 4741TIP3   OH214228   0.815   2.544   2.650
 4741TIP3    H114229   0.781   2.633   2.637
 4741TIP3    H214230   0.872   2.552   2.726
 4742TIP3   OH214231   0.185   3.352   0.829
 4742TIP3    H114232   0.122   3.334   0.898
 4742TIP3    H214233   0.134   3.398   0.762
 4743TIP3   OH214234   5.228   4.450   0.779
 4743TIP3    H114235   5.278   4.527   0.752
 4743TIP3    H214236   5.156   4.445   0.717
 4744TIP3   OH214237   4.246   1.262   4.625
 4744TIP3    H114238   4.237   1.183   4.678
 4744TIP3    H214239   4.157   1.295   4.615
 4745TIP3   OH214240   0.050   4.831   1.136
 4745TIP3    H114241   0.091   4.850   1.052
 4745TIP3    H214242   0.100   4.758   1.171
 4746TIP3   OH214243   1.023   2.946   2.423
 4746TIP3    H114244   1.075   2.931   2.502
 4746TIP3    H214245   1.014   3.042   2.419
 4747TIP3   OH214246   5.561   0.676   4.532
 4747TIP3    H114247   5.477   0.635   4.510
 4747TIP3    H214248   5.579   0.647   4.622
 4748TIP3   OH214249   1.119   3.947   2.830
 4748TIP3    H114250   1.163   3.973   2.911
 4748TIP3    H214251   1.131   3.852   2.826
 4749TIP3   OH214252   4.566   1.616   4.268
 4749TIP3    H114253   4.546   1.537   4.218
 4749TIP3    H214254   4.560   1.589   4.360
 4750TIP3   OH214255   4.020   4.781   4.360
 4750TIP3    H114256   3.934   4.822   4.351
 4750TIP3    H214257   4.007   4.692   4.327
 4751TIP3   OH214258   2.943   2.665   4.213
 4751TIP3    H114259   2.872   2.692   4.155
 4751TIP3    H214260   2.967   2.744   4.261
 4752TIP3   OH214261   6.263   1.326   4.493
 4752TIP3    H114262   6.310   1.310   4.412
 4752TIP3    H214263   6.330   1.355   4.555
 4753TIP3   OH214264   0.451   2.865   1.542
 4753TIP3    H114265   0.489   2.934   1.597
 4753TIP3    H214266   0.526   2.816   1.510
 4754TIP3   OH214267   4.909   5.818   2.692
 4754TIP3    H114268   4.857   5.870   2.630
 4754TIP3    H214269   4.888   5.727   2.669
 4755TIP3   OH214270   3.291   5.461   2.547
 4755TIP3    H114271   3.292   5.557   2.555
 4755TIP3    H214272   3.243   5.431   2.624
 4756TIP3   OH214273   2.684   0.393   3.908
 4756TIP3    H114274   2.590   0.396   3.891
 4756TIP3    H214275   2.724   0.412   3.823
 4757TIP3   OH214276   2.728   2.388   1.670
 4757TIP3    H114277   2.744   2.365   1.579
 4757TIP3    H214278   2.802   2.350   1.717
 4758TIP3   OH214279   3.204   0.743   3.608
 4758TIP3    H114280   3.225   0.688   3.533
 4758TIP3    H214281   3.271   0.812   3.607
 4759TIP3   OH214282   4.906   3.197   5.138
 4759TIP3    H114283   4.970   3.258   5.174
 4759TIP3    H214284   4.822   3.243   5.144
 4760TIP3   OH214285   4.785   5.060   4.142
 4760TIP3    H114286   4.844   5.095   4.208
 4760TIP3    H214287   4.804   5.110   4.063
 4761TIP3   OH214288   3.898   5.028   3.279
 4761TIP3    H114289   3.958   5.050   3.208
 4761TIP3    H214290   3.944   4.961   3.330
 4762TIP3   OH214291   2.007   0.575   0.800
 4762TIP3    H114292   2.062   0.528   0.738
 4762TIP3    H214293   2.010   0.666   0.771
 4763TIP3   OH214294   3.450   1.818   4.839
 4763TIP3    H114295   3.466   1.911   4.850
 4763TIP3    H214296   3.487   1.797   4.753
 4764TIP3   OH214297   3.912   2.179   1.628
 4764TIP3    H114298   3.911   2.093   1.586
 4764TIP3    H214299   4.000   2.186   1.666
 4765TIP3   OH214300   3.407   5.340   2.301
 4765TIP3    H114301   3.337   5.327   2.237
 4765TIP3    H214302   3.373   5.406   2.361
 4766TIP3   OH214303   3.361   3.362   2.783
 4766TIP3    H114304   3.289   3.334   2.725
 4766TIP3    H214305   3.404   3.281   2.810
 4767TIP3   OH214306   3.640   4.437   0.363
 4767TIP3    H114307   3.568   4.497   0.348
 4767TIP3    H214308   3.608   4.352   0.332
 4768TIP3   OH214309   0.731   0.117   2.653
 4768TIP3    H114310   0.803   0.056   2.668
 4768TIP3    H214311   0.775   0.199   2.629
 4769TIP3   OH214312   3.422   4.995   2.328
 4769TIP3    H114313   3.515   5.014   2.315
 4769TIP3    H214314   3.398   4.942   2.252
 4770TIP3   OH214315   5.499   1.219   1.721
 4770TIP3    H114316   5.533   1.151   1.663
 4770TIP3    H214317   5.406   1.224   1.701
 4771TIP3   OH214318   0.116   2.477   4.768
 4771TIP3    H114319   0.197   2.459   4.815
 4771TIP3    H214320   0.083   2.558   4.808
 4772TIP3   OH214321   6.105   3.107   0.268
 4772TIP3    H114322   6.031   3.145   0.220
 4772TIP3    H214323   6.129   3.029   0.217
 4773TIP3   OH214324   0.035   2.741   2.582
 4773TIP3    H114325  -0.055   2.737   2.548
 4773TIP3    H214326   0.029   2.798   2.659
 4774TIP3   OH214327   5.435   4.621   0.681
 4774TIP3    H114328   5.520   4.647   0.716
 4774TIP3    H214329   5.440   4.645   0.588
 4775TIP3   OH214330   1.613   4.412   4.006
 4775TIP3    H114331   1.608   4.324   3.969
 4775TIP3    H214332   1.545   4.462   3.961
 4776TIP3   OH214333   6.056   2.780   1.172
 4776TIP3    H114334   6.084   2.841   1.104
 4776TIP3    H214335   5.967   2.808   1.194
 4777TIP3   OH214336   4.597   3.829   1.418
 4777TIP3    H114337   4.570   3.754   1.470
 4777TIP3    H214338   4.692   3.824   1.414
 4778TIP3   OH214339   0.776   4.342   3.718
 4778TIP3    H114340   0.685   4.324   3.741
 4778TIP3    H214341   0.809   4.259   3.683
 4779TIP3   OH214342   3.870   4.632   3.492
 4779TIP3    H114343   3.852   4.566   3.424
 4779TIP3    H214344   3.926   4.587   3.555
 4780TIP3   OH214345   2.972   4.023   3.681
 4780TIP3    H114346   2.999   4.054   3.594
 4780TIP3    H214347   2.980   3.928   3.676
 4781TIP3   OH214348   4.983   0.758   0.608
 4781TIP3    H114349   5.061   0.709   0.582
 4781TIP3    H214350   5.011   0.850   0.607
 4782TIP3   OH214351   6.303   3.170   3.568
 4782TIP3    H114352   6.316   3.163   3.662
 4782TIP3    H214353   6.276   3.260   3.553
 4783TIP3   OH214354   3.244   1.574   1.576
 4783TIP3    H114355   3.332   1.568   1.612
 4783TIP3    H214356   3.191   1.608   1.647
 4784TIP3   OH214357   4.909   3.448   3.206
 4784TIP3    H114358   5.004   3.437   3.220
 4784TIP3    H214359   4.872   3.362   3.222
 4785TIP3   OH214360   3.825   2.702   1.752
 4785TIP3    H114361   3.907   2.747   1.769
 4785TIP3    H214362   3.848   2.609   1.752
 4786TIP3   OH214363   1.804   3.248   4.594
 4786TIP3    H114364   1.724   3.196   4.605
 4786TIP3    H214365   1.824   3.242   4.501
 4787TIP3   OH214366   0.200   3.733   0.842
 4787TIP3    H114367   0.116   3.703   0.876
 4787TIP3    H214368   0.200   3.827   0.857
 4788TIP3   OH214369   0.732   2.836   2.573
 4788TIP3    H114370   0.813   2.870   2.612
 4788TIP3    H214371   0.692   2.911   2.530
 4789TIP3   OH214372   3.431   0.322   2.118
 4789TIP3    H114373   3.440   0.383   2.045
 4789TIP3    H214374   3.520   0.308   2.150
 4790TIP3   OH214375   1.017   3.344   3.176
 4790TIP3    H114376   1.099   3.309   3.209
 4790TIP3    H214377   1.042   3.423   3.127
 4791TIP3   OH214378   4.393   4.930   2.209
 4791TIP3    H114379   4.337   4.911   2.134
 4791TIP3    H214380   4.333   4.928   2.284
 4792TIP3   OH214381   4.112   5.380   1.630
 4792TIP3    H114382   4.126   5.307   1.569
 4792TIP3    H214383   4.170   5.449   1.598
 4793TIP3   OH214384   4.467   2.775   0.859
 4793TIP3    H114385   4.512   2.727   0.928
 4793TIP3    H214386   4.518   2.758   0.780
 4794TIP3   OH214387   0.706   5.463   2.784
 4794TIP3    H114388   0.616   5.457   2.750
 4794TIP3    H214389   0.719   5.381   2.831
 4795TIP3   OH214390   6.182   1.546   2.293
 4795TIP3    H114391   6.243   1.584   2.357
 4795TIP3    H214392   6.233   1.477   2.250
 4796TIP3   OH214393   0.030   4.683   2.199
 4796TIP3    H114394  -0.008   4.605   2.239
 4796TIP3    H214395  -0.030   4.705   2.127
 4797TIP3   OH214396   0.409   5.683   4.576
 4797TIP3    H114397   0.436   5.614   4.636
 4797TIP3    H214398   0.314   5.672   4.568
 4798TIP3   OH214399   0.127   2.679  -0.009
 4798TIP3    H114400   0.176   2.599   0.010
 4798TIP3    H214401   0.041   2.664   0.029
 4799TIP3   OH214402   0.628   4.095   1.553
 4799TIP3    H114403   0.667   4.033   1.615
 4799TIP3    H214404   0.606   4.042   1.477
 4800TIP3   OH214405   4.917   0.187   1.095
 4800TIP3    H114406   4.841   0.135   1.070
 4800TIP3    H214407   4.984   0.165   1.030
 4801TIP3   OH214408   4.427   0.031   5.025
 4801TIP3    H114409   4.483   0.029   4.948
 4801TIP3    H214410   4.479  -0.012   5.093
 4802TIP3   OH214411   4.933   5.741   2.284
 4802TIP3    H114412   4.953   5.812   2.347
 4802TIP3    H214413   4.839   5.728   2.293
 4803TIP3   OH214414   4.721   5.903   0.331
 4803TIP3    H114415   4.786   5.833   0.327
 4803TIP3    H214416   4.672   5.894   0.249
 4804TIP3   OH214417   3.861   0.127   0.953
 4804TIP3    H114418   3.914   0.067   0.899
 4804TIP3    H214419   3.883   0.214   0.921
 4805TIP3   OH214420   3.267   1.647   1.280
 4805TIP3    H114421   3.260   1.621   1.372
 4805TIP3    H214422   3.273   1.742   1.283
 4806TIP3   OH214423   6.250   1.925   4.770
 4806TIP3    H114424   6.231   1.979   4.846
 4806TIP3    H214425   6.310   1.858   4.803
 4807TIP3   OH214426   3.394   5.015   3.338
 4807TIP3    H114427   3.343   5.021   3.257
 4807TIP3    H214428   3.336   4.970   3.399
 4808TIP3   OH214429   3.701   3.220   0.763
 4808TIP3    H114430   3.710   3.310   0.734
 4808TIP3    H214431   3.611   3.197   0.742
 4809TIP3   OH214432   3.011   5.421   2.303
 4809TIP3    H114433   3.048   5.505   2.332
 4809TIP3    H214434   3.046   5.357   2.364
 4810TIP3   OH214435   2.745   0.325   0.253
 4810TIP3    H114436   2.654   0.300   0.234
 4810TIP3    H214437   2.795   0.244   0.243
 4811TIP3   OH214438   1.423   1.371   2.022
 4811TIP3    H114439   1.510   1.411   2.022
 4811TIP3    H214440   1.368   1.434   2.069
 4812TIP3   OH214441   1.225   5.443   5.188
 4812TIP3    H114442   1.313   5.459   5.221
 4812TIP3    H214443   1.212   5.509   5.120
 4813TIP3   OH214444   6.324   4.397   2.607
 4813TIP3    H114445   6.281   4.329   2.658
 4813TIP3    H214446   6.269   4.475   2.620
 4814TIP3   OH214447   4.547   4.080   0.051
 4814TIP3    H114448   4.566   3.990   0.025
 4814TIP3    H214449   4.523   4.073   0.143
 4815TIP3   OH214450   5.295   2.451   1.882
 4815TIP3    H114451   5.390   2.443   1.886
 4815TIP3    H214452   5.263   2.364   1.908
 4816TIP3   OH214453   5.670   3.283   0.874
 4816TIP3    H114454   5.581   3.318   0.867
 4816TIP3    H214455   5.725   3.359   0.894
 4817TIP3   OH214456   5.490   3.849   0.578
 4817TIP3    H114457   5.507   3.931   0.625
 4817TIP3    H214458   5.516   3.868   0.488
 4818TIP3   OH214459   0.420   1.607   1.255
 4818TIP3    H114460   0.423   1.628   1.162
 4818TIP3    H214461   0.504   1.566   1.274
 4819TIP3   OH214462   0.749   0.641   3.910
 4819TIP3    H114463   0.662   0.656   3.873
 4819TIP3    H214464   0.810   0.679   3.847
 4820TIP3   OH214465   1.572   0.014   4.062
 4820TIP3    H114466   1.530   0.085   4.112
 4820TIP3    H214467   1.538   0.025   3.973
 4821TIP3   OH214468   2.895   3.719   3.770
 4821TIP3    H114469   2.813   3.675   3.746
 4821TIP3    H214470   2.957   3.691   3.703
 4822TIP3   OH214471   3.393   3.552   2.061
 4822TIP3    H114472   3.373   3.627   2.005
 4822TIP3    H214473   3.487   3.539   2.050
 4823TIP3   OH214474   3.823   3.705   0.687
 4823TIP3    H114475   3.875   3.747   0.618
 4823TIP3    H214476   3.834   3.762   0.763
 4824TIP3   OH214477   3.553   2.065   4.898
 4824TIP3    H114478   3.559   2.124   4.823
 4824TIP3    H214479   3.640   2.070   4.938
 4825TIP3   OH214480   5.588   4.159   1.088
 4825TIP3    H114481   5.618   4.248   1.069
 4825TIP3    H214482   5.533   4.168   1.166
 4826TIP3   OH214483   2.046   1.203   4.225
 4826TIP3    H114484   1.965   1.249   4.202
 4826TIP3    H214485   2.031   1.172   4.315
 4827TIP3   OH214486   1.233   0.066   2.478
 4827TIP3    H114487   1.194   0.153   2.485
 4827TIP3    H214488   1.316   0.081   2.432
 4828TIP3   OH214489   5.492   1.183   1.998
 4828TIP3    H114490   5.461   1.269   2.025
 4828TIP3    H214491   5.455   1.169   1.911
 4829TIP3   OH214492   0.407   0.493   2.128
 4829TIP3    H114493   0.398   0.411   2.079
 4829TIP3    H214494   0.498   0.520   2.114
 4830TIP3   OH214495   3.009   3.423   2.536
 4830TIP3    H114496   2.967   3.381   2.461
 4830TIP3    H214497   3.093   3.377   2.545
 4831TIP3   OH214498   3.194   0.960   2.771
 4831TIP3    H114499   3.176   0.958   2.677
 4831TIP3    H214500   3.134   0.895   2.808
 4832TIP3   OH214501   2.752   1.035   4.344
 4832TIP3    H114502   2.719   0.972   4.280
 4832TIP3    H214503   2.818   1.085   4.296
 4833TIP3   OH214504   3.008   3.520   4.737
 4833TIP3    H114505   2.995   3.456   4.666
 4833TIP3    H214506   3.097   3.552   4.724
 4834TIP3   OH214507   0.223   1.038   0.856
 4834TIP3    H114508   0.232   0.981   0.779
 4834TIP3    H214509   0.131   1.066   0.853
 4835TIP3   OH214510   4.574   2.554   5.071
 4835TIP3    H114511   4.553   2.492   5.141
 4835TIP3    H214512   4.656   2.521   5.034
 4836TIP3   OH214513   3.779   2.776   3.452
 4836TIP3    H114514   3.861   2.820   3.472
 4836TIP3    H214515   3.725   2.844   3.410
 4837TIP3   OH214516   0.294   4.349   1.165
 4837TIP3    H114517   0.367   4.373   1.223
 4837TIP3    H214518   0.332   4.284   1.105
 4838TIP3   OH214519   0.650   0.375   2.952
 4838TIP3    H114520   0.638   0.469   2.968
 4838TIP3    H214521   0.644   0.366   2.857
 4839TIP3   OH214522   4.265   2.496   1.665
 4839TIP3    H114523   4.176   2.512   1.631
 4839TIP3    H214524   4.255   2.500   1.760
 4840TIP3   OH214525   2.874   1.343   0.942
 4840TIP3    H114526   2.798   1.375   0.992
 4840TIP3    H214527   2.848   1.255   0.916
 4841TIP3   OH214528   0.639   2.558   3.550
 4841TIP3    H114529   0.720   2.513   3.573
 4841TIP3    H214530   0.572   2.512   3.601
 4842TIP3   OH214531   4.273   2.225   1.465
 4842TIP3    H114532   4.286   2.194   1.555
 4842TIP3    H214533   4.281   2.146   1.411
 4843TIP3   OH214534   6.112   4.057   3.980
 4843TIP3    H114535   6.099   4.106   4.061
 4843TIP3    H214536   6.178   4.107   3.931
 4844TIP3   OH214537   5.410   2.001   0.812
 4844TIP3    H114538   5.413   2.037   0.901
 4844TIP3    H214539   5.462   2.062   0.760
 4845TIP3   OH214540   5.445   4.975   4.364
 4845TIP3    H114541   5.522   5.029   4.379
 4845TIP3    H214542   5.415   4.998   4.276
 4846TIP3   OH214543   1.395   0.251   2.260
 4846TIP3    H114544   1.319   0.267   2.204
 4846TIP3    H214545   1.467   0.296   2.217
 4847TIP3   OH214546   0.417   0.249   4.896
 4847TIP3    H114547   0.398   0.211   4.981
 4847TIP3    H214548   0.360   0.202   4.835
 4848TIP3   OH214549   2.914   3.829   3.300
 4848TIP3    H114550   3.005   3.799   3.293
 4848TIP3    H214551   2.872   3.766   3.359
 4849TIP3   OH214552   0.830   3.884   2.767
 4849TIP3    H114553   0.915   3.842   2.756
 4849TIP3    H214554   0.839   3.969   2.724
 4850TIP3   OH214555   5.074   2.392   0.470
 4850TIP3    H114556   5.030   2.362   0.391
 4850TIP3    H214557   5.039   2.480   0.485
 4851TIP3   OH214558   2.421   1.449   1.772
 4851TIP3    H114559   2.353   1.383   1.762
 4851TIP3    H214560   2.488   1.408   1.826
 4852TIP3   OH214561   5.286   5.262   0.356
 4852TIP3    H114562   5.306   5.210   0.278
 4852TIP3    H214563   5.293   5.200   0.429
 4853TIP3   OH214564   4.662   5.473   4.264
 4853TIP3    H114565   4.695   5.499   4.178
 4853TIP3    H214566   4.620   5.388   4.250
 4854TIP3   OH214567   4.791   5.277   2.335
 4854TIP3    H114568   4.780   5.284   2.240
 4854TIP3    H214569   4.879   5.242   2.346
 4855TIP3   OH214570   4.063   4.232   3.467
 4855TIP3    H114571   4.030   4.251   3.379
 4855TIP3    H214572   4.026   4.302   3.522
 4856TIP3   OH214573   2.548   5.405   3.414
 4856TIP3    H114574   2.473   5.348   3.434
 4856TIP3    H214575   2.521   5.454   3.336
 4857TIP3   OH214576   1.966   4.798   3.857
 4857TIP3    H114577   2.006   4.736   3.797
 4857TIP3    H214578   1.883   4.758   3.881
 4858TIP3   OH214579   5.362   5.854   3.436
 4858TIP3    H114580   5.310   5.929   3.406
 4858TIP3    H214581   5.327   5.833   3.522
 4859TIP3   OH214582   5.293   0.734   3.892
 4859TIP3    H114583   5.314   0.642   3.876
 4859TIP3    H214584   5.241   0.733   3.973
 4860TIP3   OH214585   5.454   4.222   2.788
 4860TIP3    H114586   5.463   4.149   2.727
 4860TIP3    H214587   5.369   4.261   2.767
 4861TIP3   OH214588   2.997   5.318   4.478
 4861TIP3    H114589   3.058   5.282   4.542
 4861TIP3    H214590   2.968   5.242   4.427
 4862TIP3   OH214591   1.533   2.874   3.804
 4862TIP3    H114592   1.599   2.929   3.846
 4862TIP3    H214593   1.550   2.883   3.711
 4863TIP3   OH214594   1.390   0.293   0.866
 4863TIP3    H114595   1.473   0.255   0.893
 4863TIP3    H214596   1.324   0.236   0.906
 4864TIP3   OH214597   5.780   2.999   0.306
 4864TIP3    H114598   5.802   3.006   0.214
 4864TIP3    H214599   5.797   3.086   0.342
 4865TIP3   OH214600   1.068   5.774   1.607
 4865TIP3    H114601   1.145   5.830   1.608
 4865TIP3    H214602   1.037   5.774   1.698
 4866TIP3   OH214603   4.491   1.947   4.752
 4866TIP3    H114604   4.525   1.943   4.663
 4866TIP3    H214605   4.544   1.885   4.801
 4867TIP3   OH214606   1.147   1.813   4.535
 4867TIP3    H114607   1.103   1.763   4.604
 4867TIP3    H214608   1.220   1.757   4.508
 4868TIP3   OH214609   4.524   0.725   1.977
 4868TIP3    H114610   4.462   0.793   2.005
 4868TIP3    H214611   4.609   0.754   2.010
 4869TIP3   OH214612   3.670   4.101   0.897
 4869TIP3    H114613   3.582   4.138   0.896
 4869TIP3    H214614   3.717   4.154   0.961
 4870TIP3   OH214615   0.470   2.696   2.523
 4870TIP3    H114616   0.558   2.732   2.532
 4870TIP3    H214617   0.428   2.752   2.458
 4871TIP3   OH214618   0.903   3.645   2.646
 4871TIP3    H114619   0.822   3.696   2.648
 4871TIP3    H214620   0.874   3.554   2.657
 4872TIP3   OH214621   2.922   0.506   5.124
 4872TIP3    H114622   3.006   0.533   5.161
 4872TIP3    H214623   2.907   0.419   5.160
 4873TIP3   OH214624   2.057   4.176   1.396
 4873TIP3    H114625   2.120   4.156   1.465
 4873TIP3    H214626   2.057   4.272   1.391
 4874TIP3   OH214627   0.949   2.763   5.016
 4874TIP3    H114628   0.994   2.687   5.052
 4874TIP3    H214629   0.997   2.784   4.936
 4875TIP3   OH214630   2.761   4.608   5.063
 4875TIP3    H114631   2.804   4.689   5.038
 4875TIP3    H214632   2.826   4.540   5.045
 4876TIP3   OH214633   2.899   5.007   3.931
 4876TIP3    H114634   2.874   5.051   3.849
 4876TIP3    H214635   2.901   4.914   3.909
 4877TIP3   OH214636   5.622   3.638   4.029
 4877TIP3    H114637   5.616   3.543   4.040
 4877TIP3    H214638   5.680   3.651   3.955
 4878TIP3   OH214639   1.900   4.898   1.927
 4878TIP3    H114640   1.863   4.914   1.840
 4878TIP3    H214641   1.871   4.810   1.950
 4879TIP3   OH214642   0.102   5.898   3.488
 4879TIP3    H114643   0.088   5.992   3.476
 4879TIP3    H214644   0.015   5.859   3.477
 4880TIP3   OH214645   3.936   2.905   4.000
 4880TIP3    H114646   3.842   2.889   4.010
 4880TIP3    H214647   3.978   2.829   4.039
 4881TIP3   OH214648   6.283   1.688   4.236
 4881TIP3    H114649   6.254   1.774   4.207
 4881TIP3    H214650   6.210   1.654   4.287
 4882TIP3   OH214651   2.053   0.244   3.187
 4882TIP3    H114652   2.032   0.228   3.095
 4882TIP3    H214653   2.144   0.214   3.196
 4883TIP3   OH214654   3.693   3.536   2.031
 4883TIP3    H114655   3.707   3.442   2.018
 4883TIP3    H214656   3.738   3.577   1.956
 4884TIP3   OH214657   5.285   5.164   1.912
 4884TIP3    H114658   5.376   5.142   1.933
 4884TIP3    H214659   5.261   5.232   1.975
 4885TIP3   OH214660   1.239   4.635   3.715
 4885TIP3    H114661   1.222   4.593   3.631
 4885TIP3    H214662   1.153   4.655   3.751
 4886TIP3   OH214663   1.859   2.044   3.022
 4886TIP3    H114664   1.803   2.022   2.948
 4886TIP3    H214665   1.932   1.982   3.016
 4887TIP3   OH214666   4.660   1.890   1.332
 4887TIP3    H114667   4.731   1.836   1.366
 4887TIP3    H214668   4.593   1.887   1.400
 4888TIP3   OH214669   4.477   1.292   0.151
 4888TIP3    H114670   4.440   1.320   0.235
 4888TIP3    H214671   4.466   1.368   0.094
 4889TIP3   OH214672   0.861   0.620   3.073
 4889TIP3    H114673   0.848   0.591   3.163
 4889TIP3    H214674   0.773   0.639   3.041
 4890TIP3   OH214675   4.398   0.049   1.115
 4890TIP3    H114676   4.386   0.052   1.020
 4890TIP3    H214677   4.317   0.009   1.147
 4891TIP3   OH214678   4.219   3.275   3.491
 4891TIP3    H114679   4.228   3.180   3.480
 4891TIP3    H214680   4.167   3.302   3.415
 4892TIP3   OH214681   5.985   3.624   0.255
 4892TIP3    H114682   6.019   3.570   0.183
 4892TIP3    H214683   6.056   3.685   0.275
 4893TIP3   OH214684   4.857   5.329   0.312
 4893TIP3    H114685   4.819   5.406   0.355
 4893TIP3    H214686   4.881   5.360   0.225
 4894TIP3   OH214687   4.736   4.633   3.503
 4894TIP3    H114688   4.668   4.567   3.519
 4894TIP3    H214689   4.755   4.668   3.590
 4895TIP3   OH214690   1.612   3.289   3.885
 4895TIP3    H114691   1.519   3.267   3.887
 4895TIP3    H214692   1.626   3.343   3.962
 4896TIP3   OH214693   1.983   4.056   0.845
 4896TIP3    H114694   2.009   4.124   0.908
 4896TIP3    H214695   1.929   3.996   0.895
 4897TIP3   OH214696   4.372   4.013   4.408
 4897TIP3    H114697   4.417   4.011   4.324
 4897TIP3    H214698   4.344   4.104   4.418
 4898TIP3   OH214699   4.710   5.031   0.983
 4898TIP3    H114700   4.654   5.022   1.059
 4898TIP3    H214701   4.703   5.123   0.958
 4899TIP3   OH214702   4.271   1.861   0.537
 4899TIP3    H114703   4.230   1.917   0.470
 4899TIP3    H214704   4.203   1.851   0.604
 4900TIP3   OH214705   4.797   1.570   4.746
 4900TIP3    H114706   4.837   1.573   4.833
 4900TIP3    H214707   4.770   1.479   4.736
 4901TIP3   OH214708   0.550   5.536   0.486
 4901TIP3    H114709   0.645   5.545   0.481
 4901TIP3    H214710   0.521   5.617   0.528
 4902TIP3   OH214711   5.058   2.548   3.436
 4902TIP3    H114712   4.998   2.560   3.509
 4902TIP3    H214713   5.117   2.623   3.441
 4903TIP3   OH214714   3.710   5.017   2.255
 4903TIP3    H114715   3.700   4.964   2.175
 4903TIP3    H214716   3.771   4.967   2.309
 4904TIP3   OH214717   2.301   3.220   1.861
 4904TIP3    H114718   2.248   3.268   1.924
 4904TIP3    H214719   2.331   3.143   1.909
 4905TIP3   OH214720   1.467   0.620   4.906
 4905TIP3    H114721   1.555   0.638   4.874
 4905TIP3    H214722   1.418   0.593   4.829
 4906TIP3   OH214723   5.236   3.645   0.071
 4906TIP3    H114724   5.308   3.680   0.018
 4906TIP3    H214725   5.221   3.712   0.138
 4907TIP3   OH214726   6.162   3.770   4.033
 4907TIP3    H114727   6.120   3.791   4.116
 4907TIP3    H214728   6.221   3.698   4.053
 4908TIP3   OH214729   4.377   4.190   0.963
 4908TIP3    H114730   4.452   4.134   0.985
 4908TIP3    H214731   4.389   4.210   0.870
 4909TIP3   OH214732   3.868   1.725   0.985
 4909TIP3    H114733   3.876   1.671   1.064
 4909TIP3    H214734   3.896   1.812   1.013
 4910TIP3   OH214735   4.513   2.634   1.891
 4910TIP3    H114736   4.468   2.550   1.892
 4910TIP3    H214737   4.558   2.639   1.975
 4911TIP3   OH214738   0.788   3.669   4.682
 4911TIP3    H114739   0.718   3.731   4.659
 4911TIP3    H214740   0.828   3.646   4.598
 4912TIP3   OH214741   6.092   3.263   4.865
 4912TIP3    H114742   6.144   3.281   4.944
 4912TIP3    H214743   6.009   3.309   4.879
 4913TIP3   OH214744   5.881   3.328   4.117
 4913TIP3    H114745   5.907   3.415   4.147
 4913TIP3    H214746   5.786   3.333   4.109
 4914TIP3   OH214747   3.631   2.485   0.145
 4914TIP3    H114748   3.705   2.528   0.188
 4914TIP3    H214749   3.666   2.457   0.060
 4915TIP3   OH214750   1.227   2.900   4.481
 4915TIP3    H114751   1.201   2.846   4.556
 4915TIP3    H214752   1.169   2.976   4.485
 4916TIP3   OH214753   5.253   5.943   2.982
 4916TIP3    H114754   5.232   6.017   2.925
 4916TIP3    H214755   5.322   5.896   2.935
 4917TIP3   OH214756   6.058   0.179   3.959
 4917TIP3    H114757   6.004   0.170   3.880
 4917TIP3    H214758   6.148   0.181   3.927
 4918TIP3   OH214759   3.622   0.184   0.573
 4918TIP3    H114760   3.686   0.146   0.513
 4918TIP3    H214761   3.614   0.120   0.644
 4919TIP3   OH214762   4.207   5.738   0.217
 4919TIP3    H114763   4.205   5.834   0.223
 4919TIP3    H214764   4.241   5.710   0.302
 4920TIP3   OH214765   4.256   1.130   4.379
 4920TIP3    H114766   4.272   1.201   4.441
 4920TIP3    H214767   4.184   1.080   4.417
 4921TIP3   OH214768   3.818   2.593   2.437
 4921TIP3    H114769   3.812   2.553   2.350
 4921TIP3    H214770   3.762   2.538   2.492
 4922TIP3   OH214771   4.352   5.920   4.883
 4922TIP3    H114772   4.444   5.912   4.858
 4922TIP3    H214773   4.347   5.873   4.967
 4923TIP3   OH214774   5.553   5.459   1.857
 4923TIP3    H114775   5.574   5.405   1.933
 4923TIP3    H214776   5.487   5.520   1.890
 4924TIP3   OH214777   3.559   1.239   2.755
 4924TIP3    H114778   3.470   1.264   2.730
 4924TIP3    H214779   3.547   1.172   2.823
 4925TIP3   OH214780   0.580   0.842   0.814
 4925TIP3    H114781   0.601   0.865   0.905
 4925TIP3    H214782   0.544   0.754   0.820
 4926TIP3   OH214783   5.515   5.134   2.965
 4926TIP3    H114784   5.531   5.212   2.912
 4926TIP3    H214785   5.443   5.089   2.921
 4927TIP3   OH214786   3.946   4.727   4.025
 4927TIP3    H114787   3.950   4.690   3.937
 4927TIP3    H214788   4.021   4.787   4.030
 4928TIP3   OH214789   1.076   5.827   1.866
 4928TIP3    H114790   1.146   5.810   1.929
 4928TIP3    H214791   1.009   5.762   1.887
 4929TIP3   OH214792   5.794   0.337   3.034
 4929TIP3    H114793   5.877   0.322   2.988
 4929TIP3    H214794   5.820   0.363   3.122
 4930TIP3   OH214795   3.501   0.092   3.526
 4930TIP3    H114796   3.525   0.124   3.439
 4930TIP3    H214797   3.579   0.109   3.579
 4931TIP3   OH214798   1.723   5.065   2.568
 4931TIP3    H114799   1.733   5.048   2.475
 4931TIP3    H214800   1.756   4.986   2.611
 4932TIP3   OH214801   5.406   0.626   2.571
 4932TIP3    H114802   5.317   0.621   2.606
 4932TIP3    H214803   5.461   0.595   2.642
 4933TIP3   OH214804   3.943   3.368   2.025
 4933TIP3    H114805   3.896   3.308   2.083
 4933TIP3    H214806   4.026   3.323   2.007
 4934TIP3   OH214807   0.675   0.892   4.870
 4934TIP3    H114808   0.712   0.864   4.787
 4934TIP3    H214809   0.719   0.975   4.889
 4935TIP3   OH214810   0.179   1.860   0.182
 4935TIP3    H114811   0.136   1.796   0.239
 4935TIP3    H214812   0.218   1.807   0.112
 4936TIP3   OH214813   5.756   0.646   1.721
 4936TIP3    H114814   5.729   0.647   1.630
 4936TIP3    H214815   5.850   0.626   1.718
 4937TIP3   OH214816   5.785   1.113   3.406
 4937TIP3    H114817   5.834   1.129   3.487
 4937TIP3    H214818   5.756   1.199   3.378
 4938TIP3   OH214819   6.092   0.242   0.811
 4938TIP3    H114820   6.052   0.328   0.807
 4938TIP3    H214821   6.032   0.185   0.764
 4939TIP3   OH214822   4.354   1.105   3.067
 4939TIP3    H114823   4.347   1.201   3.070
 4939TIP3    H214824   4.437   1.087   3.111
 4940TIP3   OH214825   1.541   3.034   1.640
 4940TIP3    H114826   1.625   2.990   1.622
 4940TIP3    H214827   1.487   3.014   1.563
 4941TIP3   OH214828   4.787   2.582   1.414
 4941TIP3    H114829   4.839   2.517   1.366
 4941TIP3    H214830   4.801   2.561   1.506
 4942TIP3   OH214831   5.143   5.000   1.320
 4942TIP3    H114832   5.071   5.063   1.314
 4942TIP3    H214833   5.127   4.937   1.250
 4943TIP3   OH214834   5.877   1.274   0.769
 4943TIP3    H114835   5.886   1.202   0.707
 4943TIP3    H214836   5.809   1.330   0.731
 4944TIP3   OH214837   4.499   1.761   1.826
 4944TIP3    H114838   4.526   1.770   1.735
 4944TIP3    H214839   4.511   1.668   1.845
 4945TIP3   OH214840   0.081   4.870   2.802
 4945TIP3    H114841   0.132   4.900   2.877
 4945TIP3    H214842   0.030   4.796   2.835
 4946TIP3   OH214843   3.770   2.473   4.819
 4946TIP3    H114844   3.740   2.468   4.910
 4946TIP3    H214845   3.864   2.458   4.824
 4947TIP3   OH214846   1.268   3.149   0.148
 4947TIP3    H114847   1.221   3.066   0.136
 4947TIP3    H214848   1.240   3.180   0.234
 4948TIP3   OH214849   4.021   3.897   0.174
 4948TIP3    H114850   3.952   3.834   0.151
 4948TIP3    H214851   4.098   3.865   0.127
 4949TIP3   OH214852   2.908   4.146   2.494
 4949TIP3    H114853   2.916   4.241   2.480
 4949TIP3    H214854   2.966   4.128   2.568
 4950TIP3   OH214855   1.639   4.341   3.683
 4950TIP3    H114856   1.552   4.354   3.721
 4950TIP3    H214857   1.656   4.247   3.694
 4951TIP3   OH214858   4.668   4.402   2.202
 4951TIP3    H114859   4.671   4.456   2.280
 4951TIP3    H214860   4.575   4.399   2.179
 4952TIP3   OH214861   2.190   4.959   1.370
 4952TIP3    H114862   2.190   4.911   1.287
 4952TIP3    H214863   2.224   5.045   1.347
 4953TIP3   OH214864   5.185   3.049   0.200
 4953TIP3    H114865   5.279   3.065   0.190
 4953TIP3    H214866   5.148   3.135   0.221
 4954TIP3   OH214867   2.747   0.082   3.995
 4954TIP3    H114868   2.729   0.031   3.916
 4954TIP3    H214869   2.716   0.027   4.067
 4955TIP3   OH214870   1.948   5.195   2.991
 4955TIP3    H114871   1.858   5.180   2.961
 4955TIP3    H214872   1.955   5.290   2.997
 4956TIP3   OH214873   3.946   4.714   2.186
 4956TIP3    H114874   3.883   4.742   2.120
 4956TIP3    H214875   3.903   4.730   2.269
 4957TIP3   OH214876   2.819   1.648   1.272
 4957TIP3    H114877   2.794   1.739   1.291
 4957TIP3    H214878   2.883   1.655   1.201
 4958TIP3   OH214879   3.378   5.408   3.213
 4958TIP3    H114880   3.455   5.352   3.210
 4958TIP3    H214881   3.413   5.495   3.236
 4959TIP3   OH214882   2.415   3.539   0.219
 4959TIP3    H114883   2.336   3.581   0.253
 4959TIP3    H214884   2.487   3.592   0.253
 4960TIP3   OH214885   5.265   2.623   3.093
 4960TIP3    H114886   5.216   2.703   3.111
 4960TIP3    H214887   5.350   2.637   3.135
 4961TIP3   OH214888   4.495   4.277   4.916
 4961TIP3    H114889   4.446   4.299   4.837
 4961TIP3    H214890   4.439   4.304   4.989
 4962TIP3   OH214891   3.898   3.072   3.061
 4962TIP3    H114892   3.979   3.110   3.026
 4962TIP3    H214893   3.864   3.138   3.121
 4963TIP3   OH214894   5.591   2.917   2.319
 4963TIP3    H114895   5.508   2.902   2.364
 4963TIP3    H214896   5.577   2.997   2.268
 4964TIP3   OH214897   6.171   2.405   1.945
 4964TIP3    H114898   6.161   2.472   1.877
 4964TIP3    H214899   6.120   2.438   2.019
 4965TIP3   OH214900   3.598   0.850   1.051
 4965TIP3    H114901   3.569   0.934   1.017
 4965TIP3    H214902   3.689   0.843   1.022
 4966TIP3   OH214903   5.121   3.507   0.423
 4966TIP3    H114904   5.128   3.477   0.514
 4966TIP3    H214905   5.159   3.595   0.425
 4967TIP3   OH214906   0.898   5.197   0.547
 4967TIP3    H114907   0.887   5.112   0.503
 4967TIP3    H214908   0.808   5.228   0.561
 4968TIP3   OH214909   0.693   3.979   4.315
 4968TIP3    H114910   0.755   3.963   4.387
 4968TIP3    H214911   0.632   3.905   4.320
 4969TIP3   OH214912   4.662   4.454   0.898
 4969TIP3    H114913   4.712   4.395   0.954
 4969TIP3    H214914   4.575   4.458   0.938
 4970TIP3   OH214915   3.100   4.995   0.102
 4970TIP3    H114916   3.078   4.940   0.177
 4970TIP3    H214917   3.194   5.009   0.109
 4971TIP3   OH214918   2.001   4.851   1.173
 4971TIP3    H114919   2.039   4.935   1.148
 4971TIP3    H214920   1.943   4.872   1.246
 4972TIP3   OH214921   0.343   1.738   2.640
 4972TIP3    H114922   0.318   1.761   2.550
 4972TIP3    H214923   0.370   1.821   2.679
 4973TIP3   OH214924   2.558   2.734   4.575
 4973TIP3    H114925   2.652   2.726   4.561
 4973TIP3    H214926   2.518   2.702   4.494
 4974TIP3   OH214927   0.885   1.436   4.312
 4974TIP3    H114928   0.791   1.452   4.317
 4974TIP3    H214929   0.913   1.430   4.404
 4975TIP3   OH214930   2.728   3.383   4.444
 4975TIP3    H114931   2.715   3.477   4.439
 4975TIP3    H214932   2.812   3.373   4.489
 4976TIP3   OH214933   3.297   3.577   1.181
 4976TIP3    H114934   3.288   3.485   1.205
 4976TIP3    H214935   3.386   3.600   1.208
 4977TIP3   OH214936   5.207   4.311   2.715
 4977TIP3    H114937   5.228   4.279   2.627
 4977TIP3    H214938   5.137   4.375   2.700
 4978TIP3   OH214939   4.993   5.500   2.435
 4978TIP3    H114940   4.921   5.441   2.456
 4978TIP3    H214941   4.951   5.578   2.400
 4979TIP3   OH214942   0.490   3.045   2.726
 4979TIP3    H114943   0.516   2.986   2.797
 4979TIP3    H214944   0.395   3.053   2.734
 4980TIP3   OH214945   2.950   4.867   0.917
 4980TIP3    H114946   2.968   4.957   0.890
 4980TIP3    H214947   3.026   4.817   0.885
 4981TIP3   OH214948   1.572   3.863   1.622
 4981TIP3    H114949   1.608   3.795   1.679
 4981TIP3    H214950   1.514   3.816   1.562
 4982TIP3   OH214951   5.273   4.710   3.122
 4982TIP3    H114952   5.195   4.687   3.071
 4982TIP3    H214953   5.325   4.630   3.122
 4983TIP3   OH214954   1.415   3.425   1.628
 4983TIP3    H114955   1.452   3.442   1.541
 4983TIP3    H214956   1.390   3.511   1.660
 4984TIP3   OH214957   0.586   2.854   2.898
 4984TIP3    H114958   0.580   2.772   2.849
 4984TIP3    H214959   0.564   2.829   2.988
 4985TIP3   OH214960   3.093   3.720   3.576
 4985TIP3    H114961   3.136   3.800   3.547
 4985TIP3    H214962   3.153   3.683   3.641
 4986TIP3   OH214963   5.826   0.508   4.429
 4986TIP3    H114964   5.736   0.532   4.449
 4986TIP3    H214965   5.877   0.540   4.504
 4987TIP3   OH214966   0.815   1.948   2.168
 4987TIP3    H114967   0.738   1.892   2.177
 4987TIP3    H214968   0.804   2.015   2.236
 4988TIP3   OH214969   1.075   1.396   1.947
 4988TIP3    H114970   1.150   1.406   1.888
 4988TIP3    H214971   1.040   1.485   1.957
 4989TIP3   OH214972   0.626   0.179   0.251
 4989TIP3    H114973   0.552   0.129   0.284
 4989TIP3    H214974   0.593   0.269   0.242
 4990TIP3   OH214975   4.325   2.021   1.261
 4990TIP3    H114976   4.402   2.066   1.227
 4990TIP3    H214977   4.283   1.982   1.184
 4991TIP3   OH214978   4.167   3.815   4.415
 4991TIP3    H114979   4.159   3.809   4.320
 4991TIP3    H214980   4.254   3.852   4.430
 4992TIP3   OH214981  -0.002   0.737   1.056
 4992TIP3    H114982   0.081   0.785   1.059
 4992TIP3    H214983   0.012   0.661   1.112
 4993TIP3   OH214984   1.220   2.385   4.157
 4993TIP3    H114985   1.186   2.429   4.235
 4993TIP3    H214986   1.313   2.411   4.154
 4994TIP3   OH214987   3.160   4.038   4.691
 4994TIP3    H114988   3.181   4.023   4.783
 4994TIP3    H214989   3.131   3.953   4.658
 4995TIP3   OH214990   2.778   1.372   2.885
 4995TIP3    H114991   2.797   1.455   2.842
 4995TIP3    H214992   2.811   1.305   2.825
 4996TIP3   OH214993   3.603   5.096   2.738
 4996TIP3    H114994   3.691   5.130   2.752
 4996TIP3    H214995   3.566   5.087   2.826
 4997TIP3   OH214996   5.216   3.148   4.685
 4997TIP3    H114997   5.229   3.054   4.698
 4997TIP3    H214998   5.260   3.189   4.760
 4998TIP3   OH214999   5.647   4.339   4.888
 4998TIP3    H115000   5.671   4.304   4.802
 4998TIP3    H215001   5.574   4.285   4.917
 4999TIP3   OH215002   5.345   0.627   3.609
 4999TIP3    H115003   5.329   0.571   3.685
 4999TIP3    H215004   5.300   0.584   3.537
 5000TIP3   OH215005   4.034   2.802   0.093
 5000TIP3    H115006   3.974   2.850   0.151
 5000TIP3    H215007   3.988   2.798   0.009
 5001TIP3   OH215008   2.681   3.528   1.280
 5001TIP3    H115009   2.643   3.448   1.317
 5001TIP3    H215010   2.707   3.580   1.357
 5002TIP3   OH215011   0.717   0.989   4.314
 5002TIP3    H115012   0.723   1.063   4.253
 5002TIP3    H215013   0.722   0.912   4.258
 5003TIP3   OH215014   1.559   3.194   0.715
 5003TIP3    H115015   1.566   3.162   0.805
 5003TIP3    H215016   1.635   3.155   0.671
 5004TIP3   OH215017   5.745   1.647   4.304
 5004TIP3    H115018   5.713   1.567   4.261
 5004TIP3    H215019   5.726   1.633   4.397
 5005TIP3   OH215020   1.579   5.041   5.030
 5005TIP3    H115021   1.493   5.006   5.054
 5005TIP3    H215022   1.606   5.091   5.108
 5006TIP3   OH215023   2.773   5.431   4.407
 5006TIP3    H115024   2.858   5.396   4.431
 5006TIP3    H215025   2.731   5.361   4.356
 5007TIP3   OH215026   5.847   0.643   0.573
 5007TIP3    H115027   5.761   0.602   0.563
 5007TIP3    H215028   5.835   0.708   0.643
 5008TIP3   OH215029   6.252   2.382   3.266
 5008TIP3    H115030   6.272   2.446   3.335
 5008TIP3    H215031   6.161   2.357   3.283
 5009TIP3   OH215032   4.085   2.187   0.969
 5009TIP3    H115033   4.094   2.229   1.054
 5009TIP3    H215034   4.100   2.257   0.905
 5010TIP3   OH215035   5.412   4.729   1.085
 5010TIP3    H115036   5.354   4.761   1.154
 5010TIP3    H215037   5.369   4.754   1.003
 5011TIP3   OH215038   1.990   2.318   4.177
 5011TIP3    H115039   1.945   2.337   4.095
 5011TIP3    H215040   2.032   2.233   4.161
 5012TIP3   OH215041   5.583   1.071   0.012
 5012TIP3    H115042   5.579   1.003   0.081
 5012TIP3    H215043   5.534   1.144   0.048
 5013TIP3   OH215044   4.950   3.959   4.866
 5013TIP3    H115045   4.931   4.053   4.874
 5013TIP3    H215046   5.016   3.954   4.797
 5014TIP3   OH215047   0.236   5.229   0.343
 5014TIP3    H115048   0.189   5.148   0.363
 5014TIP3    H215049   0.216   5.287   0.416
 5015TIP3   OH215050   1.674   3.081   4.850
 5015TIP3    H115051   1.661   3.160   4.902
 5015TIP3    H215052   1.770   3.073   4.844
 5016TIP3   OH215053   1.146   2.722   4.737
 5016TIP3    H115054   1.130   2.628   4.731
 5016TIP3    H215055   1.229   2.729   4.785
 5017TIP3   OH215056   1.288   2.919   3.927
 5017TIP3    H115057   1.250   2.841   3.967
 5017TIP3    H215058   1.368   2.889   3.885
 5018TIP3   OH215059   0.244   5.401   4.877
 5018TIP3    H115060   0.234   5.496   4.889
 5018TIP3    H215061   0.161   5.365   4.908
 5019TIP3   OH215062   5.014   1.876   3.521
 5019TIP3    H115063   4.922   1.901   3.512
 5019TIP3    H215064   5.012   1.782   3.538
 5020TIP3   OH215065   1.204   3.528   0.114
 5020TIP3    H115066   1.262   3.468   0.162
 5020TIP3    H215067   1.128   3.475   0.093
 5021TIP3   OH215068   4.521   3.439   4.901
 5021TIP3    H115069   4.454   3.503   4.924
 5021TIP3    H215070   4.599   3.465   4.951
 5022TIP3   OH215071   0.407   2.910   2.353
 5022TIP3    H115072   0.377   2.963   2.279
 5022TIP3    H215073   0.472   2.966   2.397
 5023TIP3   OH215074   3.742   2.584   2.732
 5023TIP3    H115075   3.746   2.614   2.823
 5023TIP3    H215076   3.819   2.529   2.722
 5024TIP3   OH215077   1.163   4.141   3.351
 5024TIP3    H115078   1.221   4.100   3.414
 5024TIP3    H215079   1.200   4.120   3.265
 5025TIP3   OH215080   5.569   0.939   2.691
 5025TIP3    H115081   5.488   0.925   2.642
 5025TIP3    H215082   5.620   0.999   2.636
 5026TIP3   OH215083   5.612   3.971   1.810
 5026TIP3    H115084   5.704   3.970   1.837
 5026TIP3    H215085   5.601   3.891   1.758
 5027TIP3   OH215086   2.426   1.178   4.750
 5027TIP3    H115087   2.382   1.096   4.730
 5027TIP3    H215088   2.431   1.224   4.666
 5028TIP3   OH215089   1.315   0.859   3.879
 5028TIP3    H115090   1.242   0.896   3.830
 5028TIP3    H215091   1.356   0.934   3.921
 5029TIP3   OH215092   4.309   1.490   0.834
 5029TIP3    H115093   4.389   1.515   0.787
 5029TIP3    H215094   4.305   1.395   0.827
 5030TIP3   OH215095   2.974   1.219   0.473
 5030TIP3    H115096   2.911   1.165   0.521
 5030TIP3    H215097   2.956   1.308   0.502
 5031TIP3   OH215098   4.853   2.229   0.940
 5031TIP3    H115099   4.765   2.193   0.948
 5031TIP3    H215100   4.911   2.153   0.953
 5032TIP3   OH215101   2.051   4.408   2.811
 5032TIP3    H115102   2.088   4.322   2.787
 5032TIP3    H215103   1.977   4.387   2.868
 5033TIP3   OH215104   2.863   5.386   1.303
 5033TIP3    H115105   2.824   5.426   1.225
 5033TIP3    H215106   2.812   5.306   1.317
 5034TIP3   OH215107   2.558   0.614   4.084
 5034TIP3    H115108   2.632   0.569   4.125
 5034TIP3    H215109   2.508   0.544   4.041
 5035TIP3   OH215110   0.750   4.491   0.321
 5035TIP3    H115111   0.702   4.409   0.333
 5035TIP3    H215112   0.812   4.472   0.251
 5036TIP3   OH215113   5.790   1.146   4.719
 5036TIP3    H115114   5.756   1.159   4.807
 5036TIP3    H215115   5.883   1.167   4.727
 5037TIP3   OH215116   3.582   5.607   0.357
 5037TIP3    H115117   3.622   5.644   0.278
 5037TIP3    H215118   3.544   5.524   0.328
 5038TIP3   OH215119   5.484   4.196   2.058
 5038TIP3    H115120   5.494   4.110   2.017
 5038TIP3    H215121   5.570   4.215   2.096
 5039TIP3   OH215122   5.117   5.464   0.247
 5039TIP3    H115123   5.107   5.417   0.164
 5039TIP3    H215124   5.165   5.404   0.304
 5040TIP3   OH215125   0.222   3.276   3.503
 5040TIP3    H115126   0.144   3.231   3.535
 5040TIP3    H215127   0.256   3.321   3.580
 5041TIP3   OH215128   1.746   3.295   1.939
 5041TIP3    H115129   1.789   3.259   1.862
 5041TIP3    H215130   1.816   3.305   2.004
 5042TIP3   OH215131   3.034   4.745   0.642
 5042TIP3    H115132   3.127   4.757   0.620
 5042TIP3    H215133   3.005   4.832   0.671
 5043TIP3   OH215134   0.088   5.617   0.659
 5043TIP3    H115135   0.161   5.560   0.636
 5043TIP3    H215136   0.129   5.697   0.691
 5044TIP3   OH215137   1.816   5.845   0.332
 5044TIP3    H115138   1.779   5.856   0.244
 5044TIP3    H215139   1.857   5.929   0.351
 5045TIP3   OH215140   4.096   2.966   2.225
 5045TIP3    H115141   4.165   3.030   2.243
 5045TIP3    H215142   4.018   3.002   2.267
 5046TIP3   OH215143   3.548   0.420   4.326
 5046TIP3    H115144   3.531   0.350   4.262
 5046TIP3    H215145   3.554   0.499   4.273
 5047TIP3   OH215146   5.111   0.370   3.809
 5047TIP3    H115147   5.202   0.341   3.817
 5047TIP3    H215148   5.083   0.386   3.899
 5048TIP3   OH215149   3.453   4.906   4.065
 5048TIP3    H115150   3.538   4.876   4.034
 5048TIP3    H215151   3.395   4.899   3.989
 5049TIP3   OH215152   4.351   0.199   0.334
 5049TIP3    H115153   4.291   0.244   0.275
 5049TIP3    H215154   4.357   0.256   0.411
 5050TIP3   OH215155   5.538   1.852   0.540
 5050TIP3    H115156   5.575   1.935   0.570
 5050TIP3    H215157   5.559   1.790   0.611
 5051TIP3   OH215158   2.938   4.573   1.466
 5051TIP3    H115159   2.935   4.540   1.556
 5051TIP3    H215160   2.850   4.608   1.451
 5052TIP3   OH215161   6.190   3.903   3.577
 5052TIP3    H115162   6.136   3.878   3.652
 5052TIP3    H215163   6.243   3.825   3.559
 5053TIP3   OH215164   4.286   5.443   2.050
 5053TIP3    H115165   4.362   5.445   1.991
 5053TIP3    H215166   4.307   5.374   2.113
 5054TIP3   OH215167   0.384   4.785   0.441
 5054TIP3    H115168   0.388   4.825   0.528
 5054TIP3    H215169   0.447   4.713   0.444
 5055TIP3   OH215170   6.082   1.285   0.087
 5055TIP3    H115171   6.061   1.237   0.006
 5055TIP3    H215172   6.115   1.369   0.056
 5056TIP3   OH215173   0.529   5.696   5.013
 5056TIP3    H115174   0.560   5.710   4.924
 5056TIP3    H215175   0.443   5.657   5.003
 5057TIP3   OH215176   4.115   5.777   4.143
 5057TIP3    H115177   4.154   5.689   4.138
 5057TIP3    H215178   4.111   5.795   4.237
 5058TIP3   OH215179   2.434   1.899   2.403
 5058TIP3    H115180   2.481   1.817   2.417
 5058TIP3    H215181   2.444   1.917   2.309
 5059TIP3   OH215182   4.915   2.618   2.595
 5059TIP3    H115183   5.003   2.602   2.560
 5059TIP3    H215184   4.856   2.582   2.528
 5060TIP3   OH215185   5.043   3.248   0.697
 5060TIP3    H115186   5.051   3.218   0.787
 5060TIP3    H215187   5.115   3.310   0.686
 5061TIP3   OH215188   2.056   2.544   2.870
 5061TIP3    H115189   2.149   2.544   2.845
 5061TIP3    H215190   2.029   2.452   2.861
 5062TIP3   OH215191   0.296   2.820   4.947
 5062TIP3    H115192   0.220   2.798   4.892
 5062TIP3    H215193   0.279   2.909   4.976
 5063TIP3   OH215194   2.552   5.299   3.885
 5063TIP3    H115195   2.504   5.333   3.809
 5063TIP3    H215196   2.556   5.204   3.870
 5064TIP3   OH215197   4.164   4.979   4.035
 5064TIP3    H115198   4.174   5.074   4.029
 5064TIP3    H215199   4.212   4.945   3.960
 5065TIP3   OH215200   4.153   2.999   3.296
 5065TIP3    H115201   4.153   2.964   3.206
 5065TIP3    H215202   4.117   3.087   3.287
 5066TIP3   OH215203   1.711   1.147   2.740
 5066TIP3    H115204   1.690   1.140   2.834
 5066TIP3    H215205   1.745   1.061   2.717
 5067TIP3   OH215206   2.543   4.439   0.782
 5067TIP3    H115207   2.637   4.436   0.763
 5067TIP3    H215208   2.537   4.427   0.876
 5068TIP3   OH215209   1.257   5.544   0.008
 5068TIP3    H115210   1.290   5.556  -0.081
 5068TIP3    H215211   1.336   5.533   0.061
 5069TIP3   OH215212   4.407   1.056   5.061
 5069TIP3    H115213   4.498   1.077   5.042
 5069TIP3    H215214   4.385   0.984   5.001
 5070TIP3   OH215215   4.752   2.529   0.421
 5070TIP3    H115216   4.723   2.441   0.446
 5070TIP3    H215217   4.819   2.552   0.485
 5071TIP3   OH215218   2.869   0.986   0.597
 5071TIP3    H115219   2.913   0.970   0.680
 5071TIP3    H215220   2.840   0.899   0.568
 5072TIP3   OH215221   0.629   2.579   0.565
 5072TIP3    H115222   0.672   2.637   0.628
 5072TIP3    H215223   0.686   2.503   0.559
 5073TIP3   OH215224   5.615   1.001   1.317
 5073TIP3    H115225   5.591   1.041   1.401
 5073TIP3    H215226   5.709   0.982   1.325
 5074TIP3   OH215227   0.472   5.764   0.590
 5074TIP3    H115228   0.410   5.776   0.661
 5074TIP3    H215229   0.558   5.775   0.630
 5075TIP3   OH215230   1.914   5.295   0.951
 5075TIP3    H115231   1.923   5.284   0.856
 5075TIP3    H215232   1.833   5.346   0.960
 5076TIP3   OH215233   1.070   2.056   3.982
 5076TIP3    H115234   1.156   2.097   3.966
 5076TIP3    H215235   1.090   1.964   4.000
 5077TIP3   OH215236   4.276   2.006   2.095
 5077TIP3    H115237   4.221   1.965   2.162
 5077TIP3    H215238   4.350   1.945   2.085
 5078TIP3   OH215239   0.186   1.039   3.692
 5078TIP3    H115240   0.108   0.990   3.719
 5078TIP3    H215241   0.183   1.039   3.596
 5079TIP3   OH215242   3.854   5.233   2.570
 5079TIP3    H115243   3.895   5.226   2.484
 5079TIP3    H215244   3.766   5.265   2.552
 5080TIP3   OH215245   2.697   3.674   2.437
 5080TIP3    H115246   2.730   3.738   2.500
 5080TIP3    H215247   2.773   3.652   2.383
 5081TIP3   OH215248   2.766   5.872   1.021
 5081TIP3    H115249   2.850   5.867   0.975
 5081TIP3    H215250   2.702   5.836   0.958
 5082TIP3   OH215251   1.352   1.688   4.721
 5082TIP3    H115252   1.300   1.767   4.733
 5082TIP3    H215253   1.339   1.637   4.801
 5083TIP3   OH215254   0.967   5.825   3.597
 5083TIP3    H115255   1.036   5.852   3.656
 5083TIP3    H215256   1.001   5.845   3.509
 5084TIP3   OH215257   3.086   4.765   2.936
 5084TIP3    H115258   3.065   4.820   3.012
 5084TIP3    H215259   3.144   4.819   2.883
 5085TIP3   OH215260   4.231   1.829   1.739
 5085TIP3    H115261   4.266   1.860   1.656
 5085TIP3    H215262   4.308   1.797   1.787
 5086TIP3   OH215263   1.552   1.105   4.307
 5086TIP3    H115264   1.599   1.187   4.287
 5086TIP3    H215265   1.470   1.112   4.259
 5087TIP3   OH215266   4.352   1.357   4.248
 5087TIP3    H115267   4.403   1.369   4.168
 5087TIP3    H215268   4.327   1.265   4.246
 5088TIP3   OH215269   5.169   3.701   1.944
 5088TIP3    H115270   5.113   3.740   1.877
 5088TIP3    H215271   5.136   3.612   1.954
 5089TIP3   OH215272   0.412   0.497   4.763
 5089TIP3    H115273   0.428   0.413   4.806
 5089TIP3    H215274   0.410   0.561   4.834
 5090TIP3   OH215275   3.437   0.447   3.445
 5090TIP3    H115276   3.482   0.367   3.419
 5090TIP3    H215277   3.498   0.517   3.420
 5091TIP3   OH215278   3.203   3.301   0.166
 5091TIP3    H115279   3.187   3.396   0.166
 5091TIP3    H215280   3.176   3.273   0.078
 5092TIP3   OH215281   5.738   4.861   1.936
 5092TIP3    H115282   5.648   4.838   1.958
 5092TIP3    H215283   5.734   4.953   1.910
 5093TIP3   OH215284   3.761   1.373   0.391
 5093TIP3    H115285   3.765   1.299   0.451
 5093TIP3    H215286   3.722   1.338   0.311
 5094TIP3   OH215287   3.384   1.285   4.181
 5094TIP3    H115288   3.356   1.226   4.111
 5094TIP3    H215289   3.450   1.235   4.229
 5095TIP3   OH215290   2.789   3.153   2.681
 5095TIP3    H115291   2.883   3.169   2.695
 5095TIP3    H215292   2.786   3.063   2.648
 5096TIP3   OH215293   2.454   2.903   4.768
 5096TIP3    H115294   2.510   2.843   4.719
 5096TIP3    H215295   2.484   2.897   4.858
 5097TIP3   OH215296   4.635   5.424   3.699
 5097TIP3    H115297   4.720   5.448   3.661
 5097TIP3    H215298   4.571   5.457   3.636
 5098TIP3   OH215299   5.258   4.225   1.793
 5098TIP3    H115300   5.211   4.301   1.760
 5098TIP3    H215301   5.219   4.207   1.879
 5099TIP3   OH215302   1.987   3.368   3.324
 5099TIP3    H115303   2.058   3.377   3.261
 5099TIP3    H215304   2.011   3.426   3.396
 5100TIP3   OH215305   1.803   4.684   4.369
 5100TIP3    H115306   1.802   4.618   4.300
 5100TIP3    H215307   1.830   4.765   4.325
 5101TIP3   OH215308   3.451   0.717   1.268
 5101TIP3    H115309   3.450   0.803   1.310
 5101TIP3    H215310   3.522   0.722   1.204
 5102TIP3   OH215311   0.332   2.536   4.941
 5102TIP3    H115312   0.385   2.487   5.003
 5102TIP3    H215313   0.334   2.626   4.973
 5103TIP3   OH215314   0.221   1.729   1.687
 5103TIP3    H115315   0.270   1.686   1.617
 5103TIP3    H215316   0.131   1.699   1.675
 5104TIP3   OH215317   0.997   2.232   2.199
 5104TIP3    H115318   1.040   2.165   2.252
 5104TIP3    H215319   0.904   2.210   2.203
 5105TIP3   OH215320   4.187   1.231   0.065
 5105TIP3    H115321   4.259   1.212   0.126
 5105TIP3    H215322   4.175   1.326   0.073
 5106TIP3   OH215323   0.719   5.876   3.256
 5106TIP3    H115324   0.759   5.799   3.216
 5106TIP3    H215325   0.626   5.870   3.232
 5107TIP3   OH215326   3.785   0.100   4.177
 5107TIP3    H115327   3.726   0.035   4.215
 5107TIP3    H215328   3.848   0.120   4.246
 5108TIP3   OH215329   4.824   1.062   2.735
 5108TIP3    H115330   4.748   1.063   2.677
 5108TIP3    H215331   4.857   0.972   2.729
 5109TIP3   OH215332   3.823   3.194   2.191
 5109TIP3    H115333   3.797   3.172   2.280
 5109TIP3    H215334   3.780   3.129   2.136
 5110TIP3   OH215335   1.578   0.639   3.124
 5110TIP3    H115336   1.526   0.591   3.187
 5110TIP3    H215337   1.618   0.572   3.069
 5111TIP3   OH215338   0.390   3.779   0.575
 5111TIP3    H115339   0.364   3.844   0.641
 5111TIP3    H215340   0.381   3.695   0.620
 5112TIP3   OH215341   1.220   5.223   2.799
 5112TIP3    H115342   1.204   5.138   2.839
 5112TIP3    H215343   1.157   5.281   2.840
 5113TIP3   OH215344   5.659   3.617   0.850
 5113TIP3    H115345   5.698   3.686   0.796
 5113TIP3    H215346   5.733   3.562   0.876
 5114TIP3   OH215347   3.830   1.781   0.155
 5114TIP3    H115348   3.773   1.843   0.200
 5114TIP3    H215349   3.892   1.752   0.222
 5115TIP3   OH215350   2.492   1.654   3.424
 5115TIP3    H115351   2.557   1.606   3.477
 5115TIP3    H215352   2.482   1.601   3.345
 5116TIP3   OH215353   3.806   4.799   5.186
 5116TIP3    H115354   3.773   4.888   5.196
 5116TIP3    H215355   3.852   4.799   5.102
 5117TIP3   OH215356   3.576   4.328   3.234
 5117TIP3    H115357   3.535   4.414   3.223
 5117TIP3    H215358   3.658   4.346   3.280
 5118TIP3   OH215359   0.946   1.768   3.176
 5118TIP3    H115360   0.912   1.729   3.096
 5118TIP3    H215361   0.870   1.772   3.235
 5119TIP3   OH215362   5.100   0.233   1.306
 5119TIP3    H115363   5.035   0.202   1.244
 5119TIP3    H215364   5.113   0.159   1.366
 5120TIP3   OH215365   5.795   0.248   4.770
 5120TIP3    H115366   5.713   0.229   4.816
 5120TIP3    H215367   5.863   0.227   4.833
 5121TIP3   OH215368   1.827   0.500   3.460
 5121TIP3    H115369   1.800   0.487   3.551
 5121TIP3    H215370   1.800   0.590   3.440
 5122TIP3   OH215371   3.955   3.227   4.732
 5122TIP3    H115372   4.028   3.271   4.777
 5122TIP3    H215373   3.993   3.145   4.700
 5123TIP3   OH215374   3.263   4.379   1.183
 5123TIP3    H115375   3.217   4.462   1.190
 5123TIP3    H215376   3.346   4.401   1.140
 5124TIP3   OH215377   3.712   1.018   0.153
 5124TIP3    H115378   3.707   1.110   0.128
 5124TIP3    H215379   3.804   0.996   0.145
 5125TIP3   OH215380   4.381   1.124   0.493
 5125TIP3    H115381   4.476   1.117   0.479
 5125TIP3    H215382   4.356   1.203   0.445
 5126TIP3   OH215383   2.375   2.756   2.141
 5126TIP3    H115384   2.343   2.698   2.072
 5126TIP3    H215385   2.451   2.709   2.177
 5127TIP3   OH215386   4.088   3.800   3.707
 5127TIP3    H115387   4.063   3.760   3.791
 5127TIP3    H215388   4.175   3.765   3.689
 5128TIP3   OH215389   4.731   2.575   1.713
 5128TIP3    H115390   4.683   2.632   1.773
 5128TIP3    H215391   4.806   2.544   1.764
 5129TIP3   OH215392   1.963   3.678   2.637
 5129TIP3    H115393   1.953   3.604   2.578
 5129TIP3    H215394   2.057   3.689   2.648
 5130TIP3   OH215395   0.300   1.286   2.001
 5130TIP3    H115396   0.322   1.358   1.941
 5130TIP3    H215397   0.360   1.299   2.075
 5131TIP3   OH215398   1.190   3.569   0.727
 5131TIP3    H115399   1.150   3.503   0.670
 5131TIP3    H215400   1.278   3.582   0.691
 5132TIP3   OH215401   3.597   5.462   1.239
 5132TIP3    H115402   3.664   5.530   1.243
 5132TIP3    H215403   3.519   5.503   1.276
 5133TIP3   OH215404   0.081   4.293   1.506
 5133TIP3    H115405   0.048   4.278   1.595
 5133TIP3    H215406   0.009   4.337   1.461
 5134TIP3   OH215407   5.604   5.957   3.603
 5134TIP3    H115408   5.529   6.009   3.575
 5134TIP3    H215409   5.591   5.872   3.563
 5135TIP3   OH215410   5.392   2.262   1.340
 5135TIP3    H115411   5.429   2.334   1.288
 5135TIP3    H215412   5.301   2.258   1.312
 5136TIP3   OH215413   4.183   3.833   1.067
 5136TIP3    H115414   4.257   3.823   1.127
 5136TIP3    H215415   4.181   3.751   1.018
 5137TIP3   OH215416   1.108   5.925   4.463
 5137TIP3    H115417   1.023   5.896   4.429
 5137TIP3    H215418   1.136   5.993   4.402
 5138TIP3   OH215419   1.341   5.363   4.527
 5138TIP3    H115420   1.308   5.298   4.590
 5138TIP3    H215421   1.263   5.391   4.480
 5139TIP3   OH215422   0.576   3.216   3.711
 5139TIP3    H115423   0.588   3.309   3.691
 5139TIP3    H215424   0.535   3.179   3.633
 5140TIP3   OH215425   3.029  -0.013   1.155
 5140TIP3    H115426   3.019  -0.008   1.250
 5140TIP3    H215427   3.082   0.064   1.132
 5141TIP3   OH215428   2.831   3.742   1.145
 5141TIP3    H115429   2.832   3.651   1.174
 5141TIP3    H215430   2.912   3.779   1.179
 5142TIP3   OH215431   2.612   2.233   1.279
 5142TIP3    H115432   2.676   2.301   1.301
 5142TIP3    H215433   2.627   2.163   1.342
 5143TIP3   OH215434   0.359   0.167   3.199
 5143TIP3    H115435   0.364   0.137   3.289
 5143TIP3    H215436   0.278   0.128   3.165
 5144TIP3   OH215437   6.198   1.794   5.211
 5144TIP3    H115438   6.189   1.875   5.159
 5144TIP3    H215439   6.209   1.725   5.146
 5145TIP3   OH215440   6.171   0.139   3.530
 5145TIP3    H115441   6.194   0.198   3.458
 5145TIP3    H215442   6.102   0.185   3.578
 5146TIP3   OH215443   5.462   5.407   0.706
 5146TIP3    H115444   5.373   5.413   0.670
 5146TIP3    H215445   5.449   5.407   0.801
 5147TIP3   OH215446   3.908   0.099   4.468
 5147TIP3    H115447   3.872   0.074   4.554
 5147TIP3    H215448   3.964   0.174   4.487
 5148TIP3   OH215449   4.095   5.813   4.419
 5148TIP3    H115450   4.044   5.892   4.437
 5148TIP3    H215451   4.120   5.781   4.506
 5149TIP3   OH215452   5.510   4.022   2.594
 5149TIP3    H115453   5.490   3.930   2.609
 5149TIP3    H215454   5.482   4.039   2.504
 5150TIP3   OH215455   4.391   4.561   1.049
 5150TIP3    H115456   4.298   4.582   1.045
 5150TIP3    H215457   4.412   4.557   1.142
 5151TIP3   OH215458   5.127   3.965   4.642
 5151TIP3    H115459   5.095   3.913   4.568
 5151TIP3    H215460   5.221   3.951   4.643
 5152TIP3   OH215461   0.470   2.562   3.800
 5152TIP3    H115462   0.458   2.510   3.880
 5152TIP3    H215463   0.407   2.526   3.738
 5153TIP3   OH215464   4.804   1.911   1.766
 5153TIP3    H115465   4.897   1.933   1.767
 5153TIP3    H215466   4.762   1.989   1.729
 5154TIP3   OH215467   2.756   3.771   1.542
 5154TIP3    H115468   2.785   3.737   1.626
 5154TIP3    H215469   2.752   3.866   1.555
 5155TIP3   OH215470   3.776   2.170   0.052
 5155TIP3    H115471   3.732   2.120  -0.016
 5155TIP3    H215472   3.754   2.125   0.133
 5156TIP3   OH215473   2.741   2.678   1.699
 5156TIP3    H115474   2.672   2.617   1.674
 5156TIP3    H215475   2.819   2.646   1.653
 5157TIP3   OH215476   1.807   1.338   0.489
 5157TIP3    H115477   1.844   1.426   0.486
 5157TIP3    H215478   1.723   1.348   0.534
 5158TIP3   OH215479   4.365   0.451   0.133
 5158TIP3    H115480   4.450   0.481   0.100
 5158TIP3    H215481   4.338   0.519   0.194
 5159TIP3   OH215482   4.133   1.664   0.164
 5159TIP3    H115483   4.125   1.574   0.133
 5159TIP3    H215484   4.220   1.692   0.134
 5160TIP3   OH215485   0.462   1.248   3.630
 5160TIP3    H115486   0.381   1.293   3.651
 5160TIP3    H215487   0.440   1.193   3.555
 5161TIP3   OH215488   0.322   4.184   1.604
 5161TIP3    H115489   0.399   4.224   1.564
 5161TIP3    H215490   0.249   4.210   1.548
 5162TIP3   OH215491   5.622   0.771   2.439
 5162TIP3    H115492   5.669   0.784   2.522
 5162TIP3    H215493   5.576   0.688   2.451
 5163TIP3   OH215494   3.866   4.188   2.486
 5163TIP3    H115495   3.849   4.282   2.483
 5163TIP3    H215496   3.904   4.168   2.400
 5164TIP3   OH215497   5.851   4.023   3.904
 5164TIP3    H115498   5.805   3.978   3.975
 5164TIP3    H215499   5.932   4.054   3.944
 5165TIP3   OH215500   4.212   4.666   3.154
 5165TIP3    H115501   4.231   4.581   3.195
 5165TIP3    H215502   4.282   4.723   3.185
 5166TIP3   OH215503   2.876   0.800   1.745
 5166TIP3    H115504   2.816   0.726   1.738
 5166TIP3    H215505   2.825   0.869   1.788
 5167TIP3   OH215506   0.167   3.410   1.568
 5167TIP3    H115507   0.127   3.495   1.549
 5167TIP3    H215508   0.134   3.352   1.499
 5168TIP3   OH215509   0.845   1.827   4.053
 5168TIP3    H115510   0.941   1.827   4.054
 5168TIP3    H215511   0.820   1.850   4.142
 5169TIP3   OH215512   4.936   5.112   4.669
 5169TIP3    H115513   5.029   5.114   4.650
 5169TIP3    H215514   4.900   5.187   4.622
 5170TIP3   OH215515   5.602   3.442   4.651
 5170TIP3    H115516   5.608   3.391   4.732
 5170TIP3    H215517   5.684   3.492   4.648
 5171TIP3   OH215518   0.266   1.937   3.567
 5171TIP3    H115519   0.179   1.927   3.604
 5171TIP3    H215520   0.305   2.010   3.614
 5172TIP3   OH215521   3.632   3.607   3.844
 5172TIP3    H115522   3.625   3.523   3.889
 5172TIP3    H215523   3.544   3.645   3.851
 5173TIP3   OH215524   3.510   0.839   2.754
 5173TIP3    H115525   3.420   0.852   2.725
 5173TIP3    H215526   3.551   0.789   2.684
 5174TIP3   OH215527   2.779   2.514   0.068
 5174TIP3    H115528   2.866   2.552   0.060
 5174TIP3    H215529   2.768   2.462  -0.012
 5175TIP3   OH215530   0.177   1.142   4.701
 5175TIP3    H115531   0.201   1.060   4.657
 5175TIP3    H215532   0.250   1.159   4.761
 5176TIP3   OH215533   5.470   5.466   3.625
 5176TIP3    H115534   5.393   5.433   3.672
 5176TIP3    H215535   5.473   5.559   3.646
 5177TIP3   OH215536   5.020   1.039   2.351
 5177TIP3    H115537   4.936   1.083   2.337
 5177TIP3    H215538   5.010   0.954   2.308
 5178TIP3   OH215539   3.347   1.394   3.075
 5178TIP3    H115540   3.306   1.320   3.031
 5178TIP3    H215541   3.366   1.457   3.005
 5179TIP3   OH215542   6.158   5.940   0.040
 5179TIP3    H115543   6.066   5.916   0.038
 5179TIP3    H215544   6.159   6.027   0.080
 5180TIP3   OH215545   4.660   4.417   1.832
 5180TIP3    H115546   4.754   4.407   1.816
 5180TIP3    H215547   4.636   4.338   1.881
 5181TIP3   OH215548   5.588   1.242   3.770
 5181TIP3    H115549   5.625   1.155   3.784
 5181TIP3    H215550   5.526   1.230   3.698
 5182TIP3   OH215551   1.519   5.525   4.353
 5182TIP3    H115552   1.428   5.526   4.323
 5182TIP3    H215553   1.566   5.578   4.289
 5183TIP3   OH215554   2.877   5.346   5.101
 5183TIP3    H115555   2.952   5.293   5.075
 5183TIP3    H215556   2.824   5.287   5.155
 5184TIP3   OH215557   4.428   3.127   4.937
 5184TIP3    H115558   4.465   3.178   4.865
 5184TIP3    H215559   4.450   3.037   4.916
 5185TIP3   OH215560   2.067   2.069   0.684
 5185TIP3    H115561   2.100   2.016   0.612
 5185TIP3    H215562   1.972   2.070   0.672
 5186TIP3   OH215563   1.111   5.829   2.987
 5186TIP3    H115564   1.089   5.922   2.997
 5186TIP3    H215565   1.026   5.785   2.988
 5187TIP3   OH215566   5.735   1.397   3.435
 5187TIP3    H115567   5.778   1.479   3.409
 5187TIP3    H215568   5.678   1.422   3.508
 5188TIP3   OH215569   2.835   3.959   0.815
 5188TIP3    H115570   2.917   3.971   0.767
 5188TIP3    H215571   2.792   4.044   0.809
 5189TIP3   OH215572   0.236   3.102   2.251
 5189TIP3    H115573   0.269   3.138   2.333
 5189TIP3    H215574   0.240   3.176   2.190
 5190TIP3   OH215575   2.200   1.440   4.336
 5190TIP3    H115576   2.218   1.516   4.282
 5190TIP3    H215577   2.117   1.406   4.304
 5191TIP3   OH215578   3.742   5.403   4.022
 5191TIP3    H115579   3.753   5.308   4.019
 5191TIP3    H215580   3.765   5.428   4.111
 5192TIP3   OH215581   0.919   4.039   4.155
 5192TIP3    H115582   0.827   4.042   4.181
 5192TIP3    H215583   0.950   3.954   4.186
 5193TIP3   OH215584   4.320   3.799   2.354
 5193TIP3    H115585   4.409   3.825   2.376
 5193TIP3    H215586   4.330   3.718   2.303
 5194TIP3   OH215587   2.353   4.163   3.573
 5194TIP3    H115588   2.435   4.143   3.619
 5194TIP3    H215589   2.296   4.089   3.592
 5195TIP3   OH215590   5.512   0.341   2.404
 5195TIP3    H115591   5.503   0.250   2.377
 5195TIP3    H215592   5.429   0.382   2.381
 5196TIP3   OH215593   5.323   4.604   1.839
 5196TIP3    H115594   5.296   4.565   1.755
 5196TIP3    H215595   5.402   4.555   1.864
 5197TIP3   OH215596   1.255   5.283   4.261
 5197TIP3    H115597   1.320   5.326   4.205
 5197TIP3    H215598   1.176   5.337   4.252
 5198TIP3   OH215599   4.849   3.963   3.849
 5198TIP3    H115600   4.942   3.976   3.830
 5198TIP3    H215601   4.805   3.980   3.766
 5199TIP3   OH215602   2.382   3.175   3.729
 5199TIP3    H115603   2.298   3.153   3.690
 5199TIP3    H215604   2.360   3.219   3.811
 5200TIP3   OH215605   2.616   1.028   2.627
 5200TIP3    H115606   2.543   0.977   2.661
 5200TIP3    H215607   2.580   1.116   2.614
 5201TIP3   OH215608   1.445   4.467   4.715
 5201TIP3    H115609   1.526   4.426   4.687
 5201TIP3    H215610   1.440   4.549   4.666
 5202TIP3   OH215611   0.467   0.283   1.955
 5202TIP3    H115612   0.525   0.330   1.895
 5202TIP3    H215613   0.415   0.227   1.899
 5203TIP3   OH215614   2.572   5.746   4.703
 5203TIP3    H115615   2.519   5.746   4.783
 5203TIP3    H215616   2.598   5.655   4.691
 5204TIP3   OH215617   1.715   3.113   0.383
 5204TIP3    H115618   1.669   3.045   0.335
 5204TIP3    H215619   1.711   3.085   0.474
 5205TIP3   OH215620   5.208   1.394   0.633
 5205TIP3    H115621   5.114   1.404   0.646
 5205TIP3    H215622   5.239   1.347   0.710
 5206TIP3   OH215623   3.269   1.611   2.389
 5206TIP3    H115624   3.282   1.624   2.296
 5206TIP3    H215625   3.177   1.631   2.404
 5207TIP3   OH215626   2.224   5.125   2.993
 5207TIP3    H115627   2.130   5.131   3.009
 5207TIP3    H215628   2.249   5.039   3.026
 5208TIP3   OH215629   5.608   2.342   4.035
 5208TIP3    H115630   5.628   2.417   3.978
 5208TIP3    H215631   5.541   2.294   3.987
 5209TIP3   OH215632   0.232   4.681   0.768
 5209TIP3    H115633   0.227   4.585   0.772
 5209TIP3    H215634   0.325   4.701   0.774
 5210TIP3   OH215635   5.691   5.320   4.708
 5210TIP3    H115636   5.774   5.360   4.736
 5210TIP3    H215637   5.624   5.373   4.751
 5211TIP3   OH215638   5.751   2.521   1.045
 5211TIP3    H115639   5.750   2.612   1.074
 5211TIP3    H215640   5.715   2.523   0.956
 5212TIP3   OH215641   2.166   4.151   3.129
 5212TIP3    H115642   2.081   4.195   3.139
 5212TIP3    H215643   2.162   4.077   3.190
 5213TIP3   OH215644   1.152   5.093   4.470
 5213TIP3    H115645   1.185   5.140   4.546
 5213TIP3    H215646   1.188   5.140   4.395
 5214TIP3   OH215647   2.791   5.307   2.538
 5214TIP3    H115648   2.708   5.294   2.585
 5214TIP3    H215649   2.765   5.339   2.452
 5215TIP3   OH215650   1.836   0.880   1.720
 5215TIP3    H115651   1.921   0.844   1.693
 5215TIP3    H215652   1.817   0.946   1.653
 5216TIP3   OH215653   5.451   3.162   0.188
 5216TIP3    H115654   5.522   3.099   0.183
 5216TIP3    H215655   5.472   3.216   0.265
 5217TIP3   OH215656   0.579   3.289   0.937
 5217TIP3    H115657   0.502   3.235   0.950
 5217TIP3    H215658   0.580   3.349   1.011
 5218TIP3   OH215659   5.123   5.697   3.951
 5218TIP3    H115660   5.116   5.630   3.883
 5218TIP3    H215661   5.033   5.723   3.968
 5219TIP3   OH215662   3.588   4.240   3.681
 5219TIP3    H115663   3.549   4.198   3.758
 5219TIP3    H215664   3.669   4.191   3.666
 5220TIP3   OH215665   5.637   3.328   3.988
 5220TIP3    H115666   5.617   3.235   3.998
 5220TIP3    H215667   5.656   3.339   3.895
 5221TIP3   OH215668   4.890   4.492   4.336
 5221TIP3    H115669   4.830   4.565   4.352
 5221TIP3    H215670   4.874   4.432   4.409
 5222TIP3   OH215671   5.798   5.085   4.642
 5222TIP3    H115672   5.801   5.081   4.546
 5222TIP3    H215673   5.736   5.155   4.662
 5223TIP3   OH215674   1.571   5.212   4.425
 5223TIP3    H115675   1.590   5.124   4.459
 5223TIP3    H215676   1.560   5.199   4.331
 5224TIP3   OH215677   2.349   5.174   0.924
 5224TIP3    H115678   2.397   5.196   0.844
 5224TIP3    H215679   2.340   5.258   0.969
 5225TIP3   OH215680   0.380   4.316   4.917
 5225TIP3    H115681   0.430   4.317   4.999
 5225TIP3    H215682   0.289   4.303   4.943
 5226TIP3   OH215683   1.063   3.291   4.116
 5226TIP3    H115684   1.001   3.218   4.128
 5226TIP3    H215685   1.146   3.257   4.147
 5227TIP3   OH215686   4.199   4.516   2.651
 5227TIP3    H115687   4.216   4.503   2.745
 5227TIP3    H215688   4.208   4.428   2.613
 5228TIP3   OH215689   1.853   2.703   3.568
 5228TIP3    H115690   1.941   2.701   3.532
 5228TIP3    H215691   1.860   2.758   3.646
 5229TIP3   OH215692   3.120   1.565   5.167
 5229TIP3    H115693   3.104   1.471   5.165
 5229TIP3    H215694   3.192   1.576   5.230
 5230TIP3   OH215695   4.743   4.528   3.941
 5230TIP3    H115696   4.812   4.592   3.957
 5230TIP3    H215697   4.697   4.520   4.025
 5231TIP3   OH215698   1.725   0.146   2.044
 5231TIP3    H115699   1.658   0.146   1.976
 5231TIP3    H215700   1.806   0.120   1.998
 5232TIP3   OH215701   4.348   4.724   4.708
 5232TIP3    H115702   4.363   4.749   4.617
 5232TIP3    H215703   4.336   4.629   4.705
 5233TIP3   OH215704   5.868   2.048   3.628
 5233TIP3    H115705   5.912   1.983   3.683
 5233TIP3    H215706   5.789   2.072   3.677
 5234TIP3   OH215707   2.505   3.861   4.545
 5234TIP3    H115708   2.435   3.905   4.496
 5234TIP3    H215709   2.459   3.799   4.601
 5235TIP3   OH215710   3.354   3.159   4.136
 5235TIP3    H115711   3.364   3.089   4.200
 5235TIP3    H215712   3.398   3.235   4.176
 5236TIP3   OH215713   3.398   2.479   0.769
 5236TIP3    H115714   3.386   2.399   0.821
 5236TIP3    H215715   3.358   2.458   0.684
 5237TIP3   OH215716   0.744   3.173   4.266
 5237TIP3    H115717   0.724   3.240   4.200
 5237TIP3    H215718   0.807   3.115   4.222
 5238TIP3   OH215719   5.436   5.498   2.142
 5238TIP3    H115720   5.394   5.498   2.056
 5238TIP3    H215721   5.364   5.511   2.204
 5239TIP3   OH215722   1.560   5.679   1.903
 5239TIP3    H115723   1.491   5.633   1.952
 5239TIP3    H215724   1.601   5.610   1.850
 5240TIP3   OH215725   1.617   4.540   1.795
 5240TIP3    H115726   1.528   4.513   1.818
 5240TIP3    H215727   1.662   4.459   1.774
 5241TIP3   OH215728   6.020   1.523   1.086
 5241TIP3    H115729   6.103   1.527   1.133
 5241TIP3    H215730   5.997   1.615   1.070
 5242TIP3   OH215731   0.598   5.748   4.374
 5242TIP3    H115732   0.603   5.660   4.336
 5242TIP3    H215733   0.529   5.741   4.441
 5243TIP3   OH215734   4.719   4.554   2.426
 5243TIP3    H115735   4.661   4.566   2.501
 5243TIP3    H215736   4.758   4.640   2.411
 5244TIP3   OH215737   3.673   0.317   4.535
 5244TIP3    H115738   3.622   0.366   4.471
 5244TIP3    H215739   3.677   0.228   4.500
 5245TIP3   OH215740   2.907   2.208   0.385
 5245TIP3    H115741   2.937   2.120   0.362
 5245TIP3    H215742   2.984   2.250   0.424
 5246TIP3   OH215743   4.032   0.392   3.704
 5246TIP3    H115744   3.962   0.457   3.711
 5246TIP3    H215745   4.054   0.371   3.795
 5247TIP3   OH215746   5.836   3.830   4.972
 5247TIP3    H115747   5.866   3.739   4.966
 5247TIP3    H215748   5.806   3.851   4.884
 5248TIP3   OH215749   4.437   5.982   0.496
 5248TIP3    H115750   4.362   5.969   0.555
 5248TIP3    H215751   4.424   5.917   0.427
 5249TIP3   OH215752   0.336   1.577   0.098
 5249TIP3    H115753   0.278   1.535   0.161
 5249TIP3    H215754   0.295   1.560   0.013
 5250TIP3   OH215755   3.843   3.711   3.156
 5250TIP3    H115756   3.916   3.689   3.213
 5250TIP3    H215757   3.768   3.721   3.215
 5251TIP3   OH215758   5.240   5.857   4.147
 5251TIP3    H115759   5.253   5.943   4.107
 5251TIP3    H215760   5.218   5.800   4.073
 5252TIP3   OH215761   6.250   3.139   0.727
 5252TIP3    H115762   6.272   3.046   0.738
 5252TIP3    H215763   6.273   3.158   0.636
 5253TIP3   OH215764   3.304   2.856   4.601
 5253TIP3    H115765   3.380   2.848   4.658
 5253TIP3    H215766   3.246   2.917   4.646
 5254TIP3   OH215767   4.758   5.597   4.505
 5254TIP3    H115768   4.678   5.626   4.463
 5254TIP3    H215769   4.828   5.628   4.449
 5255TIP3   OH215770   0.055   1.396   4.800
 5255TIP3    H115771   0.061   1.399   4.896
 5255TIP3    H215772   0.081   1.307   4.777
 5256TIP3   OH215773   0.077   1.536   0.027
 5256TIP3    H115774  -0.014   1.511   0.013
 5256TIP3    H215775   0.088   1.537   0.122
 5257TIP3   OH215776   6.247   3.734   4.774
 5257TIP3    H115777   6.254   3.688   4.857
 5257TIP3    H215778   6.338   3.750   4.748
 5258TIP3   OH215779   2.415   3.882   2.362
 5258TIP3    H115780   2.478   3.912   2.297
 5258TIP3    H215781   2.341   3.850   2.311
 5259TIP3   OH215782   4.757   3.539   2.534
 5259TIP3    H115783   4.850   3.516   2.539
 5259TIP3    H215784   4.714   3.458   2.508
 5260TIP3   OH215785   0.553   0.431   4.344
 5260TIP3    H115786   0.627   0.395   4.296
 5260TIP3    H215787   0.538   0.369   4.416
 5261TIP3   OH215788   4.549   1.427   4.018
 5261TIP3    H115789   4.617   1.454   3.957
 5261TIP3    H215790   4.467   1.443   3.970
 5262TIP3   OH215791   4.106   1.380   1.841
 5262TIP3    H115792   4.166   1.429   1.897
 5262TIP3    H215793   4.028   1.435   1.836
 5263TIP3   OH215794   0.641   5.143   1.406
 5263TIP3    H115795   0.550   5.154   1.434
 5263TIP3    H215796   0.690   5.204   1.460
 5264TIP3   OH215797   4.068   0.127   0.578
 5264TIP3    H115798   4.084   0.169   0.663
 5264TIP3    H215799   4.099   0.191   0.514
 5265TIP3   OH215800   0.478   2.365   4.741
 5265TIP3    H115801   0.417   2.400   4.806
 5265TIP3    H215802   0.484   2.434   4.674
 5266TIP3   OH215803   0.212   3.295   2.023
 5266TIP3    H115804   0.263   3.366   2.063
 5266TIP3    H215805   0.263   3.271   1.945
 5267TIP3   OH215806   2.171   2.216   2.725
 5267TIP3    H115807   2.087   2.234   2.683
 5267TIP3    H215808   2.147   2.184   2.812
 5268TIP3   OH215809   1.740   0.859   2.727
 5268TIP3    H115810   1.660   0.865   2.676
 5268TIP3    H215811   1.714   0.815   2.809
 5269TIP3   OH215812   4.791   3.135   4.869
 5269TIP3    H115813   4.767   3.214   4.820
 5269TIP3    H215814   4.856   3.165   4.932
 5270TIP3   OH215815   0.552   5.171   0.954
 5270TIP3    H115816   0.561   5.116   1.032
 5270TIP3    H215817   0.573   5.260   0.984
 5271TIP3   OH215818   5.484   1.740   0.940
 5271TIP3    H115819   5.443   1.791   0.870
 5271TIP3    H215820   5.568   1.784   0.956
 5272TIP3   OH215821   1.682   1.935   4.854
 5272TIP3    H115822   1.670   2.005   4.918
 5272TIP3    H215823   1.657   1.855   4.901
 5273TIP3   OH215824   5.214   0.430   1.478
 5273TIP3    H115825   5.168   0.377   1.413
 5273TIP3    H215826   5.206   0.381   1.560
 5274TIP3   OH215827   3.972   5.517   2.837
 5274TIP3    H115828   4.064   5.494   2.847
 5274TIP3    H215829   3.958   5.587   2.901
 5275TIP3   OH215830   1.520   4.577   3.194
 5275TIP3    H115831   1.615   4.586   3.189
 5275TIP3    H215832   1.499   4.601   3.284
 5276TIP3   OH215833   2.874   2.338   2.664
 5276TIP3    H115834   2.903   2.259   2.617
 5276TIP3    H215835   2.818   2.305   2.734
 5277TIP3   OH215836   2.444   2.878   3.632
 5277TIP3    H115837   2.460   2.855   3.540
 5277TIP3    H215838   2.446   2.974   3.632
 5278TIP3   OH215839   1.822   3.728   4.878
 5278TIP3    H115840   1.879   3.709   4.804
 5278TIP3    H215841   1.734   3.727   4.842
 5279TIP3   OH215842   2.515   0.377   0.860
 5279TIP3    H115843   2.531   0.449   0.799
 5279TIP3    H215844   2.509   0.300   0.804
 5280TIP3   OH215845   0.507   2.601   2.783
 5280TIP3    H115846   0.430   2.655   2.800
 5280TIP3    H215847   0.527   2.617   2.691
 5281TIP3   OH215848   2.174   2.380   4.733
 5281TIP3    H115849   2.165   2.285   4.727
 5281TIP3    H215850   2.198   2.408   4.644
 5282TIP3   OH215851   1.038   0.479   2.943
 5282TIP3    H115852   0.981   0.538   2.993
 5282TIP3    H215853   1.098   0.537   2.896
 5283TIP3   OH215854   4.162   4.911   1.181
 5283TIP3    H115855   4.146   4.888   1.089
 5283TIP3    H215856   4.107   4.850   1.231
 5284TIP3   OH215857   2.599   0.381   4.552
 5284TIP3    H115858   2.644   0.309   4.597
 5284TIP3    H215859   2.666   0.421   4.497
 5285TIP3   OH215860   2.823   0.563   3.027
 5285TIP3    H115861   2.837   0.547   3.121
 5285TIP3    H215862   2.733   0.594   3.022
 5286TIP3   OH215863   5.918   4.705   2.843
 5286TIP3    H115864   5.921   4.620   2.886
 5286TIP3    H215865   5.846   4.751   2.885
 5287TIP3   OH215866   5.376   3.189   2.455
 5287TIP3    H115867   5.353   3.164   2.545
 5287TIP3    H215868   5.332   3.124   2.400
 5288TIP3   OH215869   3.121   4.557   4.849
 5288TIP3    H115870   3.052   4.527   4.907
 5288TIP3    H215871   3.140   4.483   4.792
 5289TIP3   OH215872   6.243   5.341   1.550
 5289TIP3    H115873   6.192   5.265   1.520
 5289TIP3    H215874   6.284   5.311   1.631
 5290TIP3   OH215875   3.273   5.204   4.638
 5290TIP3    H115876   3.208   5.217   4.707
 5290TIP3    H215877   3.343   5.266   4.658
 5291TIP3   OH215878   3.007   1.602   3.207
 5291TIP3    H115879   2.986   1.674   3.265
 5291TIP3    H215880   2.994   1.637   3.119
 5292TIP3   OH215881   4.238   0.106   4.687
 5292TIP3    H115882   4.243   0.145   4.600
 5292TIP3    H215883   4.289   0.026   4.681
 5293TIP3   OH215884   1.326   1.099   5.155
 5293TIP3    H115885   1.358   1.020   5.112
 5293TIP3    H215886   1.267   1.139   5.091
 5294TIP3   OH215887   4.102   0.166   0.197
 5294TIP3    H115888   4.017   0.156   0.239
 5294TIP3    H215889   4.099   0.253   0.157
 5295TIP3   OH215890   2.568   5.375   2.069
 5295TIP3    H115891   2.491   5.319   2.057
 5295TIP3    H215892   2.610   5.377   1.983
 5296TIP3   OH215893   4.700   1.829   0.510
 5296TIP3    H115894   4.786   1.864   0.533
 5296TIP3    H215895   4.638   1.898   0.532
 5297TIP3   OH215896   2.155   4.779   0.233
 5297TIP3    H115897   2.133   4.791   0.325
 5297TIP3    H215898   2.070   4.775   0.189
 5298TIP3   OH215899   0.258   4.392   1.785
 5298TIP3    H115900   0.321   4.461   1.766
 5298TIP3    H215901   0.261   4.335   1.708
 5299TIP3   OH215902   4.196   4.513   4.033
 5299TIP3    H115903   4.215   4.444   3.969
 5299TIP3    H215904   4.104   4.501   4.055
 5300TIP3   OH215905   0.880   5.236   2.563
 5300TIP3    H115906   0.829   5.272   2.635
 5300TIP3    H215907   0.970   5.263   2.581
 5301TIP3   OH215908   5.707   5.643   4.447
 5301TIP3    H115909   5.624   5.690   4.437
 5301TIP3    H215910   5.774   5.709   4.431
 5302TIP3   OH215911   2.763   3.647   2.869
 5302TIP3    H115912   2.841   3.690   2.834
 5302TIP3    H215913   2.748   3.573   2.809
 5303TIP3   OH215914   0.300   5.443   1.346
 5303TIP3    H115915   0.302   5.533   1.312
 5303TIP3    H215916   0.208   5.418   1.339
 5304TIP3   OH215917   6.017   4.285   2.744
 5304TIP3    H115918   6.095   4.231   2.734
 5304TIP3    H215919   5.944   4.223   2.746
 5305TIP3   OH215920   4.077   1.627   4.643
 5305TIP3    H115921   4.115   1.710   4.613
 5305TIP3    H215922   4.082   1.570   4.566
 5306TIP3   OH215923   3.206   3.234   4.456
 5306TIP3    H115924   3.143   3.215   4.387
 5306TIP3    H215925   3.237   3.148   4.484
 5307TIP3   OH215926   4.554   5.095   3.190
 5307TIP3    H115927   4.647   5.073   3.201
 5307TIP3    H215928   4.543   5.175   3.241
 5308TIP3   OH215929   4.369   4.899   0.954
 5308TIP3    H115930   4.415   4.983   0.947
 5308TIP3    H215931   4.390   4.867   1.042
 5309TIP3   OH215932   2.880   4.702   0.196
 5309TIP3    H115933   2.958   4.752   0.221
 5309TIP3    H215934   2.903   4.661   0.113
 5310TIP3   OH215935   4.739   3.508   4.155
 5310TIP3    H115936   4.659   3.465   4.127
 5310TIP3    H215937   4.753   3.579   4.092
 5311TIP3   OH215938   0.180   5.801   4.302
 5311TIP3    H115939   0.125   5.751   4.363
 5311TIP3    H215940   0.214   5.735   4.242
 5312TIP3   OH215941   6.356   3.195   4.269
 5312TIP3    H115942   6.372   3.190   4.363
 5312TIP3    H215943   6.262   3.214   4.262
 5313TIP3   OH215944   6.282   1.264   2.361
 5313TIP3    H115945   6.340   1.291   2.290
 5313TIP3    H215946   6.284   1.169   2.360
 5314TIP3   OH215947   3.098   4.561   1.240
 5314TIP3    H115948   3.032   4.534   1.176
 5314TIP3    H215949   3.055   4.551   1.325
 5315TIP3   OH215950   1.553   0.095  -0.016
 5315TIP3    H115951   1.539   0.013   0.033
 5315TIP3    H215952   1.534   0.164   0.048
 5316TIP3   OH215953   4.594   0.495   4.786
 5316TIP3    H115954   4.689   0.492   4.799
 5316TIP3    H215955   4.558   0.458   4.867
 5317TIP3   OH215956   1.044   5.383   1.575
 5317TIP3    H115957   0.998   5.457   1.536
 5317TIP3    H215958   1.077   5.417   1.658
 5318TIP3   OH215959   4.396   5.313   5.148
 5318TIP3    H115960   4.357   5.247   5.205
 5318TIP3    H215961   4.485   5.324   5.181
 5319TIP3   OH215962   5.593   0.719   1.034
 5319TIP3    H115963   5.538   0.764   1.098
 5319TIP3    H215964   5.531   0.686   0.968
 5320TIP3   OH215965   2.916   4.556   2.069
 5320TIP3    H115966   3.009   4.570   2.050
 5320TIP3    H215967   2.871   4.599   1.997
 5321TIP3   OH215968   3.772   0.052   1.641
 5321TIP3    H115969   3.805   0.137   1.669
 5321TIP3    H215970   3.718   0.022   1.714
 5322TIP3   OH215971   4.620   3.307   1.624
 5322TIP3    H115972   4.540   3.308   1.573
 5322TIP3    H215973   4.690   3.298   1.560
 5323TIP3   OH215974   1.196   4.831   4.576
 5323TIP3    H115975   1.150   4.891   4.518
 5323TIP3    H215976   1.132   4.810   4.644
 5324TIP3   OH215977   2.474   4.805   5.000
 5324TIP3    H115978   2.556   4.762   5.024
 5324TIP3    H215979   2.476   4.890   5.044
 5325TIP3   OH215980   3.647   3.361   3.944
 5325TIP3    H115981   3.717   3.308   3.907
 5325TIP3    H215982   3.664   3.362   4.038
 5326TIP3   OH215983   1.250   1.495   2.553
 5326TIP3    H115984   1.182   1.551   2.515
 5326TIP3    H215985   1.259   1.526   2.643
 5327TIP3   OH215986   5.466   3.224   3.459
 5327TIP3    H115987   5.385   3.176   3.478
 5327TIP3    H215988   5.447   3.315   3.482
 5328TIP3   OH215989   0.769   3.687   1.675
 5328TIP3    H115990   0.768   3.709   1.768
 5328TIP3    H215991   0.769   3.591   1.674
 5329TIP3   OH215992   5.122   2.637   1.065
 5329TIP3    H115993   5.042   2.584   1.060
 5329TIP3    H215994   5.152   2.626   1.155
 5330TIP3   OH215995   2.436   1.892   3.261
 5330TIP3    H115996   2.341   1.882   3.265
 5330TIP3    H215997   2.469   1.813   3.303
 5331TIP3   OH215998   2.671   2.170   2.579
 5331TIP3    H115999   2.575   2.176   2.579
 5331TIP3    H216000   2.699   2.225   2.506
 5332TIP3   OH216001   2.759   4.753   3.203
 5332TIP3    H116002   2.842   4.799   3.186
 5332TIP3    H216003   2.713   4.808   3.266
 5333TIP3   OH216004   2.859   1.645   2.731
 5333TIP3    H116005   2.782   1.627   2.677
 5333TIP3    H216006   2.860   1.740   2.742
 5334TIP3   OH216007   3.899   5.063   0.504
 5334TIP3    H116008   3.945   4.983   0.527
 5334TIP3    H216009   3.851   5.041   0.424
 5335TIP3   OH216010   1.321   3.244   4.892
 5335TIP3    H116011   1.268   3.296   4.832
 5335TIP3    H216012   1.380   3.194   4.835
 5336TIP3   OH216013   3.903   5.757   4.788
 5336TIP3    H116014   3.853   5.824   4.741
 5336TIP3    H216015   3.986   5.751   4.741
 5337TIP3   OH216016   1.912   1.712   1.814
 5337TIP3    H116017   1.938   1.622   1.797
 5337TIP3    H216018   1.873   1.741   1.732
 5338TIP3   OH216019   2.083   2.454   1.764
 5338TIP3    H116020   2.158   2.507   1.788
 5338TIP3    H216021   2.011   2.516   1.754
 5339TIP3   OH216022   3.798   4.697   0.869
 5339TIP3    H116023   3.747   4.748   0.807
 5339TIP3    H216024   3.774   4.606   0.851
 5340TIP3   OH216025   5.103   3.368   1.464
 5340TIP3    H116026   5.132   3.332   1.379
 5340TIP3    H216027   5.181   3.363   1.519
 5341TIP3   OH216028   1.908   5.211   4.310
 5341TIP3    H116029   1.983   5.235   4.365
 5341TIP3    H216030   1.842   5.178   4.372
 5342TIP3   OH216031   5.990   5.828   2.345
 5342TIP3    H116032   6.003   5.919   2.320
 5342TIP3    H216033   6.073   5.801   2.384
 5343TIP3   OH216034   3.273   2.156   4.697
 5343TIP3    H116035   3.362   2.131   4.721
 5343TIP3    H216036   3.248   2.096   4.628
 5344TIP3   OH216037   5.379   5.346   2.638
 5344TIP3    H116038   5.289   5.372   2.654
 5344TIP3    H216039   5.372   5.255   2.608
 5345TIP3   OH216040   3.115   0.166   0.447
 5345TIP3    H116041   3.210   0.181   0.444
 5345TIP3    H216042   3.076   0.253   0.444
 5346TIP3   OH216043   3.115   4.234   1.875
 5346TIP3    H116044   3.102   4.159   1.817
 5346TIP3    H216045   3.210   4.243   1.881
 5347TIP3   OH216046   0.382   2.952   1.144
 5347TIP3    H116047   0.373   3.021   1.079
 5347TIP3    H216048   0.444   2.890   1.105
 5348TIP3   OH216049   6.205   4.428   3.698
 5348TIP3    H116050   6.281   4.454   3.645
 5348TIP3    H216051   6.235   4.437   3.788
 5349TIP3   OH216052   0.648   3.532   3.709
 5349TIP3    H116053   0.665   3.619   3.671
 5349TIP3    H216054   0.576   3.546   3.769
 5350TIP3   OH216055   5.336   4.845   4.982
 5350TIP3    H116056   5.417   4.892   5.003
 5350TIP3    H216057   5.282   4.910   4.937
 5351TIP3   OH216058   2.695   1.445   4.934
 5351TIP3    H116059   2.737   1.430   5.018
 5351TIP3    H216060   2.654   1.361   4.912
 5352TIP3   OH216061   3.182   0.581   3.368
 5352TIP3    H116062   3.184   0.611   3.277
 5352TIP3    H216063   3.245   0.509   3.371
 5353TIP3   OH216064   4.882   5.956   1.102
 5353TIP3    H116065   4.877   5.931   1.195
 5353TIP3    H216066   4.938   6.033   1.101
 5354TIP3   OH216067   4.793   4.831   3.767
 5354TIP3    H116068   4.874   4.788   3.797
 5354TIP3    H216069   4.745   4.849   3.848
 5355TIP3   OH216070   2.309   0.807   3.037
 5355TIP3    H116071   2.308   0.901   3.056
 5355TIP3    H216072   2.269   0.799   2.951
 5356TIP3   OH216073   0.069   5.662   3.833
 5356TIP3    H116074   0.039   5.610   3.758
 5356TIP3    H216075   0.000   5.725   3.849
 5357TIP3   OH216076   3.725   3.503   1.256
 5357TIP3    H116077   3.819   3.508   1.273
 5357TIP3    H216078   3.689   3.582   1.296
 5358TIP3   OH216079   2.443   3.039   3.241
 5358TIP3    H116080   2.352   3.029   3.269
 5358TIP3    H216081   2.458   3.134   3.243
 5359TIP3   OH216082   3.387   5.209   4.117
 5359TIP3    H116083   3.443   5.133   4.133
 5359TIP3    H216084   3.298   5.176   4.121
 5360TIP3   OH216085   0.452   2.505   2.174
 5360TIP3    H116086   0.407   2.514   2.090
 5360TIP3    H216087   0.515   2.576   2.176
 5361TIP3   OH216088   3.260   1.187   4.737
 5361TIP3    H116089   3.202   1.112   4.718
 5361TIP3    H216090   3.200   1.260   4.752
 5362TIP3   OH216091   0.763   5.126   1.170
 5362TIP3    H116092   0.844   5.174   1.186
 5362TIP3    H216093   0.701   5.161   1.234
 5363TIP3   OH216094   1.677   3.274   2.766
 5363TIP3    H116095   1.700   3.352   2.715
 5363TIP3    H216096   1.605   3.234   2.716
 5364TIP3   OH216097   1.374   5.142   1.495
 5364TIP3    H116098   1.350   5.050   1.485
 5364TIP3    H216099   1.343   5.184   1.415
 5365TIP3   OH216100   2.972   4.135   3.337
 5365TIP3    H116101   2.952   4.042   3.330
 5365TIP3    H216102   2.890   4.179   3.316
 5366TIP3   OH216103   2.142   0.267   1.538
 5366TIP3    H116104   2.193   0.256   1.458
 5366TIP3    H216105   2.066   0.211   1.526
 5367TIP3   OH216106   5.201   5.607   3.482
 5367TIP3    H116107   5.264   5.651   3.426
 5367TIP3    H216108   5.116   5.637   3.451
 5368TIP3   OH216109   3.067   0.080   1.753
 5368TIP3    H116110   3.008   0.031   1.695
 5368TIP3    H216111   3.116   0.012   1.799
 5369TIP3   OH216112   0.511   4.782   0.751
 5369TIP3    H116113   0.581   4.718   0.741
 5369TIP3    H216114   0.553   4.867   0.733
 5370TIP3   OH216115   5.815   5.878   1.040
 5370TIP3    H116116   5.899   5.861   1.083
 5370TIP3    H216117   5.798   5.799   0.990
 5371TIP3   OH216118   5.325   1.654   4.373
 5371TIP3    H116119   5.286   1.566   4.368
 5371TIP3    H216120   5.362   1.659   4.461
 5372TIP3   OH216121   6.312   1.857   2.570
 5372TIP3    H116122   6.347   1.783   2.520
 5372TIP3    H216123   6.319   1.932   2.510
 5373TIP3   OH216124   5.094   4.938   1.581
 5373TIP3    H116125   5.129   4.937   1.491
 5373TIP3    H216126   5.171   4.927   1.636
 5374TIP3   OH216127   4.970   2.975   4.559
 5374TIP3    H116128   5.015   2.922   4.494
 5374TIP3    H216129   4.980   3.065   4.529
 5375TIP3   OH216130   0.543   0.483   2.717
 5375TIP3    H116131   0.452   0.480   2.744
 5375TIP3    H216132   0.543   0.452   2.627
 5376TIP3   OH216133   5.279   5.979   5.120
 5376TIP3    H116134   5.241   5.909   5.068
 5376TIP3    H216135   5.243   6.060   5.082
 5377TIP3   OH216136   3.250   2.751   0.756
 5377TIP3    H116137   3.223   2.801   0.833
 5377TIP3    H216138   3.278   2.666   0.790
 5378TIP3   OH216139   2.455   5.299   4.667
 5378TIP3    H116140   2.456   5.354   4.589
 5378TIP3    H216141   2.410   5.219   4.639
 5379TIP3   OH216142   4.642   1.406   3.451
 5379TIP3    H116143   4.678   1.440   3.534
 5379TIP3    H216144   4.705   1.340   3.423
 5380TIP3   OH216145   5.691   0.325   1.849
 5380TIP3    H116146   5.613   0.380   1.843
 5380TIP3    H216147   5.685   0.284   1.936
 5381TIP3   OH216148   1.175   5.918   4.994
 5381TIP3    H116149   1.225   5.996   5.018
 5381TIP3    H216150   1.094   5.924   5.045
 5382TIP3   OH216151   1.149   1.027   2.559
 5382TIP3    H116152   1.115   1.079   2.486
 5382TIP3    H216153   1.244   1.030   2.549
 5383TIP3   OH216154   0.733   5.192   1.862
 5383TIP3    H116155   0.642   5.185   1.834
 5383TIP3    H216156   0.729   5.236   1.947
 5384TIP3   OH216157   4.430   4.740   2.455
 5384TIP3    H116158   4.493   4.771   2.390
 5384TIP3    H216159   4.382   4.818   2.481
 5385TIP3   OH216160   1.756   1.638   3.493
 5385TIP3    H116161   1.776   1.551   3.528
 5385TIP3    H216162   1.674   1.663   3.535
 5386TIP3   OH216163   4.960   2.780   3.789
 5386TIP3    H116164   4.905   2.775   3.867
 5386TIP3    H216165   4.947   2.695   3.746
 5387TIP3   OH216166   1.338   4.353   3.229
 5387TIP3    H116167   1.355   4.441   3.194
 5387TIP3    H216168   1.249   4.358   3.264
 5388TIP3   OH216169   5.973   5.616   2.951
 5388TIP3    H116170   5.899   5.625   3.011
 5388TIP3    H216171   6.021   5.540   2.983
 5389TIP3   OH216172   2.490   3.703   1.520
 5389TIP3    H116173   2.583   3.725   1.522
 5389TIP3    H216174   2.486   3.611   1.548
 5390TIP3   OH216175   0.707   1.140   0.282
 5390TIP3    H116176   0.657   1.069   0.324
 5390TIP3    H216177   0.760   1.095   0.216
 5391TIP3   OH216178   0.522   0.303   0.687
 5391TIP3    H116179   0.432   0.283   0.663
 5391TIP3    H216180   0.528   0.281   0.780
 5392TIP3   OH216181   3.903   2.802   3.190
 5392TIP3    H116182   3.892   2.892   3.160
 5392TIP3    H216183   3.861   2.801   3.277
 5393TIP3   OH216184   6.204   5.799   3.385
 5393TIP3    H116185   6.211   5.774   3.292
 5393TIP3    H216186   6.196   5.894   3.383
 5394TIP3   OH216187   4.193   1.901   2.834
 5394TIP3    H116188   4.142   1.839   2.783
 5394TIP3    H216189   4.205   1.976   2.776
 5395TIP3   OH216190   2.701   5.455   1.100
 5395TIP3    H116191   2.714   5.516   1.027
 5395TIP3    H216192   2.692   5.370   1.059
 5396TIP3   OH216193   2.002   4.429   4.569
 5396TIP3    H116194   1.952   4.375   4.508
 5396TIP3    H216195   2.042   4.366   4.629
 5397TIP3   OH216196   3.377   3.630   2.821
 5397TIP3    H116197   3.368   3.543   2.780
 5397TIP3    H216198   3.412   3.611   2.909
 5398TIP3   OH216199   3.347   0.800   3.151
 5398TIP3    H116200   3.265   0.766   3.117
 5398TIP3    H216201   3.414   0.762   3.094
 5399TIP3   OH216202   6.125   3.706   1.688
 5399TIP3    H116203   6.210   3.715   1.646
 5399TIP3    H216204   6.097   3.797   1.705
 5400TIP3   OH216205   1.518   0.315   2.544
 5400TIP3    H116206   1.541   0.345   2.456
 5400TIP3    H216207   1.496   0.222   2.532
 5401TIP3   OH216208   2.686   3.050   3.528
 5401TIP3    H116209   2.622   3.104   3.482
 5401TIP3    H216210   2.689   2.969   3.478
 5402TIP3   OH216211   2.408   4.127   1.036
 5402TIP3    H116212   2.446   4.040   1.041
 5402TIP3    H216213   2.372   4.143   1.123
 5403TIP3   OH216214   4.872   0.360   0.710
 5403TIP3    H116215   4.875   0.404   0.625
 5403TIP3    H216216   4.896   0.269   0.690
 5404TIP3   OH216217   6.014   1.054   4.918
 5404TIP3    H116218   5.960   0.982   4.886
 5404TIP3    H216219   6.104   1.020   4.915
 5405TIP3   OH216220   6.120   2.545   2.820
 5405TIP3    H116221   6.132   2.640   2.807
 5405TIP3    H216222   6.093   2.512   2.734
 5406TIP3   OH216223   2.578   3.999   2.183
 5406TIP3    H116224   2.649   3.957   2.134
 5406TIP3    H216225   2.619   4.077   2.222
 5407TIP3   OH216226   4.486   1.794   1.053
 5407TIP3    H116227   4.547   1.868   1.047
 5407TIP3    H216228   4.476   1.763   0.963
 5408TIP3   OH216229   3.426   2.283   2.359
 5408TIP3    H116230   3.352   2.232   2.394
 5408TIP3    H216231   3.498   2.220   2.355
 5409TIP3   OH216232   4.588   0.369   0.389
 5409TIP3    H116233   4.530   0.304   0.348
 5409TIP3    H216234   4.673   0.356   0.345
 5410TIP3   OH216235   1.661   4.381   1.393
 5410TIP3    H116236   1.661   4.387   1.297
 5410TIP3    H216237   1.678   4.288   1.411
 5411TIP3   OH216238   3.271   4.753   3.899
 5411TIP3    H116239   3.309   4.666   3.904
 5411TIP3    H216240   3.320   4.797   3.830
 5412TIP3   OH216241   4.848   1.946   4.428
 5412TIP3    H116242   4.803   2.011   4.482
 5412TIP3    H216243   4.783   1.920   4.363
 5413TIP3   OH216244   1.464   5.222   2.028
 5413TIP3    H116245   1.416   5.188   2.104
 5413TIP3    H216246   1.471   5.148   1.968
 5414TIP3   OH216247   3.577   5.617   3.906
 5414TIP3    H116248   3.488   5.599   3.939
 5414TIP3    H216249   3.634   5.566   3.964
 5415TIP3   OH216250   3.933   3.571   3.915
 5415TIP3    H116251   3.851   3.572   3.865
 5415TIP3    H216252   3.979   3.493   3.884
 5416TIP3   OH216253   5.223   2.537   3.701
 5416TIP3    H116254   5.195   2.544   3.792
 5416TIP3    H216255   5.281   2.612   3.688
 5417TIP3   OH216256   5.535   5.876   4.392
 5417TIP3    H116257   5.555   5.968   4.411
 5417TIP3    H216258   5.579   5.859   4.309
 5418TIP3   OH216259   1.420   4.190   0.173
 5418TIP3    H116260   1.466   4.138   0.107
 5418TIP3    H216261   1.336   4.147   0.185
 5419TIP3   OH216262   2.242   3.759   4.028
 5419TIP3    H116263   2.169   3.819   4.017
 5419TIP3    H216264   2.304   3.806   4.083
 5420TIP3   OH216265   0.139   4.041   0.936
 5420TIP3    H116266   0.080   4.114   0.920
 5420TIP3    H216267   0.167   4.052   1.027
 5421TIP3   OH216268   5.846   2.013   0.563
 5421TIP3    H116269   5.754   2.039   0.572
 5421TIP3    H216270   5.892   2.061   0.632
 5422TIP3   OH216271   0.766   0.306   2.306
 5422TIP3    H116272   0.830   0.301   2.377
 5422TIP3    H216273   0.817   0.288   2.227
 5423TIP3   OH216274   2.258   2.303   2.242
 5423TIP3    H116275   2.264   2.231   2.305
 5423TIP3    H216276   2.206   2.369   2.287
 5424TIP3   OH216277   4.111   3.151   0.069
 5424TIP3    H116278   4.169   3.076   0.056
 5424TIP3    H216279   4.031   3.112   0.105
 5425TIP3   OH216280   0.107   5.111   5.155
 5425TIP3    H116281   0.154   5.093   5.236
 5425TIP3    H216282   0.176   5.126   5.090
 5426TIP3   OH216283   0.296   2.475   1.109
 5426TIP3    H116284   0.254   2.560   1.101
 5426TIP3    H216285   0.287   2.451   1.201
 5427TIP3   OH216286   2.295   1.603   5.044
 5427TIP3    H116287   2.304   1.519   4.998
 5427TIP3    H216288   2.216   1.594   5.097
 5428TIP3   OH216289   2.087   4.483   4.180
 5428TIP3    H116290   2.169   4.517   4.216
 5428TIP3    H216291   2.060   4.415   4.242
 5429TIP3   OH216292   5.699   4.564   0.798
 5429TIP3    H116293   5.793   4.550   0.790
 5429TIP3    H216294   5.666   4.487   0.844
 5430TIP3   OH216295   2.944   3.889   2.874
 5430TIP3    H116296   2.899   3.913   2.956
 5430TIP3    H216297   3.022   3.843   2.903
 5431TIP3   OH216298   5.597   2.733   3.955
 5431TIP3    H116299   5.520   2.677   3.954
 5431TIP3    H216300   5.667   2.679   3.920
 5432TIP3   OH216301   0.861   3.343   3.401
 5432TIP3    H116302   0.937   3.337   3.342
 5432TIP3    H216303   0.873   3.425   3.447
 5433TIP3   OH216304   3.657   4.744   0.636
 5433TIP3    H116305   3.746   4.745   0.602
 5433TIP3    H216306   3.607   4.694   0.571
 5434TIP3   OH216307   2.018   4.772   1.490
 5434TIP3    H116308   2.083   4.841   1.473
 5434TIP3    H216309   2.029   4.753   1.583
 5435TIP3   OH216310   3.339   0.977   1.373
 5435TIP3    H116311   3.397   1.006   1.442
 5435TIP3    H216312   3.284   1.053   1.354
 5436TIP3   OH216313   4.687   5.604   2.228
 5436TIP3    H116314   4.726   5.542   2.166
 5436TIP3    H216315   4.615   5.644   2.180
 5437TIP3   OH216316   2.746   4.644   1.871
 5437TIP3    H116317   2.653   4.628   1.888
 5437TIP3    H216318   2.746   4.701   1.794
 5438TIP3   OH216319   4.777   5.575   2.614
 5438TIP3    H116320   4.735   5.552   2.697
 5438TIP3    H216321   4.721   5.536   2.547
 5439TIP3   OH216322   2.960   1.896   0.416
 5439TIP3    H116323   2.957   1.846   0.334
 5439TIP3    H216324   3.030   1.855   0.466
 5440TIP3   OH216325   6.206   3.685   2.860
 5440TIP3    H116326   6.279   3.688   2.799
 5440TIP3    H216327   6.180   3.593   2.863
 5441TIP3   OH216328   2.398   4.870   2.051
 5441TIP3    H116329   2.427   4.780   2.063
 5441TIP3    H216330   2.436   4.897   1.967
 5442TIP3   OH216331   4.643   1.833   3.751
 5442TIP3    H116332   4.570   1.771   3.749
 5442TIP3    H216333   4.708   1.790   3.806
 5443TIP3   OH216334   3.887   3.283   5.085
 5443TIP3    H116335   3.939   3.228   5.144
 5443TIP3    H216336   3.950   3.344   5.047
 5444TIP3   OH216337   0.781   3.330   3.020
 5444TIP3    H116338   0.733   3.247   3.028
 5444TIP3    H216339   0.860   3.317   3.072
 5445TIP3   OH216340   4.548   5.670   4.809
 5445TIP3    H116341   4.481   5.604   4.791
 5445TIP3    H216342   4.557   5.717   4.727
 5446TIP3   OH216343   4.175   3.348   1.302
 5446TIP3    H116344   4.123   3.267   1.297
 5446TIP3    H216345   4.255   3.322   1.346
 5447TIP3   OH216346   3.880   5.374   0.407
 5447TIP3    H116347   3.795   5.369   0.450
 5447TIP3    H216348   3.943   5.348   0.475
 5448TIP3   OH216349   3.087   0.695   3.132
 5448TIP3    H116350   3.062   0.612   3.092
 5448TIP3    H216351   3.019   0.711   3.198
 5449TIP3   OH216352   5.360   2.565   0.228
 5449TIP3    H116353   5.351   2.512   0.149
 5449TIP3    H216354   5.455   2.568   0.243
 5450TIP3   OH216355   3.968   2.837   4.640
 5450TIP3    H116356   4.030   2.892   4.592
 5450TIP3    H216357   4.001   2.836   4.730
 5451TIP3   OH216358   4.257   2.555   4.298
 5451TIP3    H116359   4.303   2.502   4.233
 5451TIP3    H216360   4.313   2.552   4.376
 5452TIP3   OH216361   3.634   2.128   2.227
 5452TIP3    H116362   3.629   2.061   2.159
 5452TIP3    H216363   3.670   2.082   2.303
 5453TIP3   OH216364   1.177   3.760   1.180
 5453TIP3    H116365   1.228   3.728   1.105
 5453TIP3    H216366   1.142   3.844   1.151
 5454TIP3   OH216367   5.332   1.960   0.059
 5454TIP3    H116368   5.354   2.049   0.086
 5454TIP3    H216369   5.282   1.925   0.133
 5455TIP3   OH216370   5.035   0.635   1.127
 5455TIP3    H116371   4.998   0.722   1.142
 5455TIP3    H216372   4.966   0.575   1.156
 5456TIP3   OH216373   5.595   3.061   3.051
 5456TIP3    H116374   5.629   2.992   3.108
 5456TIP3    H216375   5.500   3.047   3.050
 5457TIP3   OH216376   1.884   2.331   3.924
 5457TIP3    H116377   1.899   2.425   3.911
 5457TIP3    H216378   1.805   2.312   3.873
 5458TIP3   OH216379   0.174   5.710   2.379
 5458TIP3    H116380   0.252   5.682   2.427
 5458TIP3    H216381   0.207   5.738   2.294
 5459TIP3   OH216382   4.519   0.508   4.440
 5459TIP3    H116383   4.537   0.588   4.391
 5459TIP3    H216384   4.428   0.518   4.470
 5460TIP3   OH216385   0.394   1.059   3.848
 5460TIP3    H116386   0.320   1.017   3.803
 5460TIP3    H216387   0.375   1.152   3.844
 5461TIP3   OH216388   2.128   3.506   0.591
 5461TIP3    H116389   2.063   3.530   0.656
 5461TIP3    H216390   2.085   3.439   0.538
 5462TIP3   OH216391   5.128   4.369   3.424
 5462TIP3    H116392   5.117   4.408   3.337
 5462TIP3    H216393   5.216   4.330   3.421
 5463TIP3   OH216394   4.987   1.240   0.191
 5463TIP3    H116395   5.039   1.311   0.228
 5463TIP3    H216396   5.051   1.183   0.148
 5464TIP3   OH216397   4.843   4.093   4.128
 5464TIP3    H116398   4.854   4.053   4.042
 5464TIP3    H216399   4.925   4.139   4.144
 5465TIP3   OH216400   2.640   0.246   4.205
 5465TIP3    H116401   2.641   0.151   4.217
 5465TIP3    H216402   2.567   0.276   4.260
 5466TIP3   OH216403   5.484   1.026   0.894
 5466TIP3    H116404   5.459   0.960   0.830
 5466TIP3    H216405   5.404   1.074   0.912
 5467TIP3   OH216406   3.853   2.856   0.990
 5467TIP3    H116407   3.784   2.920   0.974
 5467TIP3    H216408   3.826   2.810   1.069
 5468TIP3   OH216409   2.780   5.114   0.020
 5468TIP3    H116410   2.764   5.084   0.110
 5468TIP3    H216411   2.857   5.171   0.028
 5469TIP3   OH216412   4.986   1.819   0.102
 5469TIP3    H116413   5.011   1.859   0.018
 5469TIP3    H216414   5.043   1.861   0.166
 5470TIP3   OH216415   4.738   1.671   2.440
 5470TIP3    H116416   4.761   1.763   2.452
 5470TIP3    H216417   4.656   1.661   2.488
 5471TIP3   OH216418   3.979   0.651   4.699
 5471TIP3    H116419   3.912   0.715   4.673
 5471TIP3    H216420   3.941   0.566   4.674
 5472TIP3   OH216421   2.487   4.848   2.357
 5472TIP3    H116422   2.547   4.895   2.298
 5472TIP3    H216423   2.477   4.762   2.317
 5473TIP3   OH216424   4.969   3.463   3.816
 5473TIP3    H116425   4.912   3.397   3.776
 5473TIP3    H216426   5.057   3.435   3.795
 5474TIP3   OH216427   4.562   5.170   4.269
 5474TIP3    H116428   4.498   5.099   4.271
 5474TIP3    H216429   4.640   5.131   4.230
 5475TIP3   OH216430   0.877   1.204   2.892
 5475TIP3    H116431   0.898   1.241   2.807
 5475TIP3    H216432   0.784   1.182   2.888
 5476TIP3   OH216433   2.264   0.983   0.789
 5476TIP3    H116434   2.261   1.041   0.713
 5476TIP3    H216435   2.177   0.990   0.828
 5477TIP3   OH216436   5.856   4.782   0.042
 5477TIP3    H116437   5.881   4.795  -0.049
 5477TIP3    H216438   5.784   4.719   0.038
 5478TIP3   OH216439   4.282   0.651   3.408
 5478TIP3    H116440   4.226   0.607   3.344
 5478TIP3    H216441   4.310   0.731   3.363
 5479TIP3   OH216442   5.552   0.499   0.618
 5479TIP3    H116443   5.602   0.500   0.700
 5479TIP3    H216444   5.461   0.503   0.646
 5480TIP3   OH216445   5.548   2.316   3.014
 5480TIP3    H116446   5.463   2.308   3.057
 5480TIP3    H216447   5.550   2.243   2.952
 5481TIP3   OH216448   3.532   1.417   2.023
 5481TIP3    H116449   3.585   1.479   1.973
 5481TIP3    H216450   3.485   1.367   1.956
 5482TIP3   OH216451   2.395   0.696   4.307
 5482TIP3    H116452   2.442   0.680   4.225
 5482TIP3    H216453   2.318   0.746   4.282
 5483TIP3   OH216454   6.047   3.867   5.114
 5483TIP3    H116455   5.966   3.861   5.064
 5483TIP3    H216456   6.055   3.783   5.159
 5484TIP3   OH216457   2.576   4.936   3.004
 5484TIP3    H116458   2.581   4.845   3.033
 5484TIP3    H216459   2.624   4.985   3.070
 5485TIP3   OH216460   4.946   1.593   0.765
 5485TIP3    H116461   4.890   1.665   0.794
 5485TIP3    H216462   4.923   1.580   0.673
 5486TIP3   OH216463   4.582   4.135   3.300
 5486TIP3    H116464   4.563   4.145   3.207
 5486TIP3    H216465   4.597   4.041   3.312
 5487TIP3   OH216466   2.034   2.394   1.086
 5487TIP3    H116467   1.962   2.412   1.025
 5487TIP3    H216468   1.996   2.331   1.148
 5488TIP3   OH216469   3.732   2.516   3.998
 5488TIP3    H116470   3.746   2.548   4.087
 5488TIP3    H216471   3.663   2.450   4.008
 5489TIP3   OH216472   1.814   1.377   3.542
 5489TIP3    H116473   1.774   1.316   3.481
 5489TIP3    H216474   1.903   1.345   3.554
 5490TIP3   OH216475   4.431   2.235   0.687
 5490TIP3    H116476   4.408   2.328   0.690
 5490TIP3    H216477   4.375   2.195   0.754
 5491TIP3   OH216478   4.388   3.005   2.125
 5491TIP3    H116479   4.385   2.960   2.210
 5491TIP3    H216480   4.481   3.004   2.102
 5492TIP3   OH216481   4.661   1.870   4.263
 5492TIP3    H116482   4.606   1.792   4.272
 5492TIP3    H216483   4.645   1.899   4.173
 5493TIP3   OH216484   3.063   1.750   4.943
 5493TIP3    H116485   2.988   1.704   4.903
 5493TIP3    H216486   3.112   1.680   4.987
 5494TIP3   OH216487   4.199   3.611   0.664
 5494TIP3    H116488   4.136   3.550   0.702
 5494TIP3    H216489   4.147   3.665   0.604
 5495TIP3   OH216490   0.125   2.410   2.079
 5495TIP3    H116491   0.089   2.473   2.141
 5495TIP3    H216492   0.218   2.407   2.099
 5496TIP3   OH216493   1.767   2.984   2.046
 5496TIP3    H116494   1.827   3.036   2.098
 5496TIP3    H216495   1.812   2.970   1.963
 5497TIP3   OH216496   3.929   4.033   4.863
 5497TIP3    H116497   3.870   4.040   4.938
 5497TIP3    H216498   3.958   4.123   4.847
 5498TIP3   OH216499   4.720   1.423   3.761
 5498TIP3    H116500   4.793   1.374   3.723
 5498TIP3    H216501   4.760   1.500   3.801
 5499TIP3   OH216502   4.842   4.796   1.578
 5499TIP3    H116503   4.900   4.872   1.576
 5499TIP3    H216504   4.757   4.831   1.552
 5500TIP3   OH216505   4.014   1.707   0.405
 5500TIP3    H116506   4.081   1.688   0.340
 5500TIP3    H216507   3.981   1.620   0.431
 5501TIP3   OH216508   2.176   3.168   0.000
 5501TIP3    H116509   2.221   3.105   0.057
 5501TIP3    H216510   2.175   3.249   0.049
 5502TIP3   OH216511   1.326   3.675   4.987
 5502TIP3    H116512   1.379   3.703   5.062
 5502TIP3    H216513   1.327   3.751   4.928
 5503TIP3   OH216514   1.488   4.461   0.126
 5503TIP3    H116515   1.479   4.366   0.119
 5503TIP3    H216516   1.438   4.485   0.204
 5504TIP3   OH216517   5.505   5.654   1.023
 5504TIP3    H116518   5.559   5.688   0.952
 5504TIP3    H216519   5.427   5.709   1.023
 5505TIP3   OH216520   5.135   3.148   1.254
 5505TIP3    H116521   5.207   3.155   1.191
 5505TIP3    H216522   5.088   3.231   1.246
 5506TIP3   OH216523   6.336   4.155   3.821
 5506TIP3    H116524   6.352   4.242   3.858
 5506TIP3    H216525   6.373   4.158   3.734
 5507TIP3   OH216526   4.044   4.107   2.273
 5507TIP3    H116527   4.037   4.011   2.270
 5507TIP3    H216528   4.121   4.123   2.327
 5508TIP3   OH216529   4.790   5.236   3.907
 5508TIP3    H116530   4.715   5.179   3.885
 5508TIP3    H216531   4.864   5.196   3.862
 5509TIP3   OH216532   6.127   5.299   0.408
 5509TIP3    H116533   6.160   5.348   0.333
 5509TIP3    H216534   6.049   5.255   0.374
 5510TIP3   OH216535   2.194   5.389   1.035
 5510TIP3    H116536   2.136   5.329   1.082
 5510TIP3    H216537   2.135   5.451   0.992
 5511TIP3   OH216538   0.461   1.108   0.970
 5511TIP3    H116539   0.416   1.189   0.992
 5511TIP3    H216540   0.398   1.059   0.917
 5512TIP3   OH216541   5.447   5.982   1.401
 5512TIP3    H116542   5.530   5.967   1.356
 5512TIP3    H216543   5.442   5.912   1.467
 5513TIP3   OH216544   2.759   4.658   4.427
 5513TIP3    H116545   2.747   4.591   4.494
 5513TIP3    H216546   2.852   4.655   4.406
 5514TIP3   OH216547   2.234   4.718   4.886
 5514TIP3    H116548   2.316   4.730   4.933
 5514TIP3    H216549   2.174   4.782   4.924
 5515TIP3   OH216550   5.763   4.402   3.437
 5515TIP3    H116551   5.819   4.458   3.492
 5515TIP3    H216552   5.682   4.451   3.427
 5516TIP3   OH216553   2.977   0.286   4.063
 5516TIP3    H116554   3.045   0.234   4.020
 5516TIP3    H216555   3.009   0.301   4.151
 5517TIP3   OH216556   2.256   5.273   2.630
 5517TIP3    H116557   2.249   5.361   2.666
 5517TIP3    H216558   2.167   5.237   2.637
 5518TIP3   OH216559   5.089   4.018   1.634
 5518TIP3    H116560   5.026   4.049   1.568
 5518TIP3    H216561   5.110   4.097   1.685
 5519TIP3   OH216562   3.661   4.536   4.413
 5519TIP3    H116563   3.734   4.478   4.391
 5519TIP3    H216564   3.595   4.478   4.452
 5520TIP3   OH216565   2.214   0.466   2.449
 5520TIP3    H116566   2.209   0.561   2.457
 5520TIP3    H216567   2.201   0.449   2.356
 5521TIP3   OH216568   2.664   4.014   4.844
 5521TIP3    H116569   2.735   4.057   4.891
 5521TIP3    H216570   2.600   3.993   4.912
 5522TIP3   OH216571   1.702   2.519   1.905
 5522TIP3    H116572   1.710   2.427   1.932
 5522TIP3    H216573   1.646   2.558   1.972
 5523TIP3   OH216574   5.338   4.220   0.901
 5523TIP3    H116575   5.318   4.148   0.841
 5523TIP3    H216576   5.308   4.299   0.855
 5524TIP3   OH216577   4.808   1.648   1.847
 5524TIP3    H116578   4.739   1.635   1.782
 5524TIP3    H216579   4.813   1.743   1.856
 5525TIP3   OH216580   4.112   3.228   2.930
 5525TIP3    H116581   4.154   3.197   2.850
 5525TIP3    H216582   4.073   3.312   2.906
 5526TIP3   OH216583   6.203   0.464   3.551
 5526TIP3    H116584   6.181   0.505   3.634
 5526TIP3    H216585   6.122   0.472   3.499
 5527TIP3   OH216586   0.105   1.693   0.376
 5527TIP3    H116587   0.025   1.701   0.427
 5527TIP3    H216588   0.164   1.641   0.432
 5528TIP3   OH216589   3.222   0.167   3.923
 5528TIP3    H116590   3.192   0.076   3.933
 5528TIP3    H216591   3.300   0.160   3.868
 5529TIP3   OH216592   2.546   3.940   5.083
 5529TIP3    H116593   2.631   3.897   5.080
 5529TIP3    H216594   2.525   3.945   5.176
 5530TIP3   OH216595   3.149   2.482   1.736
 5530TIP3    H116596   3.204   2.427   1.792
 5530TIP3    H216597   3.145   2.566   1.782
 5531TIP3   OH216598   5.655   4.635   1.634
 5531TIP3    H116599   5.645   4.715   1.685
 5531TIP3    H216600   5.620   4.657   1.547
 5532TIP3   OH216601   4.746   2.143   4.570
 5532TIP3    H116602   4.772   2.222   4.617
 5532TIP3    H216603   4.654   2.159   4.546
 5533TIP3   OH216604   3.146   5.574   4.453
 5533TIP3    H116605   3.093   5.500   4.483
 5533TIP3    H216606   3.100   5.606   4.375
 5534TIP3   OH216607   2.052   2.441   2.341
 5534TIP3    H116608   2.048   2.387   2.420
 5534TIP3    H216609   1.961   2.447   2.312
 5535TIP3   OH216610   1.875   3.804   0.655
 5535TIP3    H116611   1.918   3.724   0.684
 5535TIP3    H216612   1.863   3.855   0.735
 5536TIP3   OH216613   5.101   1.606   2.680
 5536TIP3    H116614   5.139   1.688   2.647
 5536TIP3    H216615   5.145   1.537   2.631
 5537TIP3   OH216616   4.414   3.046   3.043
 5537TIP3    H116617   4.343   2.986   3.020
 5537TIP3    H216618   4.469   3.049   2.965
 5538TIP3   OH216619   5.769   2.565   3.852
 5538TIP3    H116620   5.818   2.483   3.850
 5538TIP3    H216621   5.823   2.626   3.802
 5539TIP3   OH216622   0.262   4.906   1.523
 5539TIP3    H116623   0.325   4.953   1.469
 5539TIP3    H216624   0.256   4.819   1.482
 5540TIP3   OH216625   3.142   5.654   2.352
 5540TIP3    H116626   3.193   5.659   2.433
 5540TIP3    H216627   3.206   5.652   2.282
 5541TIP3   OH216628   0.503   0.097   2.267
 5541TIP3    H116629   0.585   0.083   2.219
 5541TIP3    H216630   0.507   0.188   2.297
 5542TIP3   OH216631   2.490   3.159   0.633
 5542TIP3    H116632   2.410   3.109   0.618
 5542TIP3    H216633   2.462   3.251   0.628
 5543TIP3   OH216634   0.235   2.600   1.377
 5543TIP3    H116635   0.276   2.680   1.343
 5543TIP3    H216636   0.162   2.630   1.430
 5544TIP3   OH216637   2.801   2.020   2.226
 5544TIP3    H116638   2.784   1.930   2.252
 5544TIP3    H216639   2.786   2.072   2.305
 5545TIP3   OH216640   4.926   4.241   2.056
 5545TIP3    H116641   4.874   4.234   2.136
 5545TIP3    H216642   4.896   4.168   2.002
 5546TIP3   OH216643   0.368   1.076   3.431
 5546TIP3    H116644   0.334   1.090   3.342
 5546TIP3    H216645   0.415   0.993   3.426
 5547TIP3   OH216646   1.356   0.608   0.326
 5547TIP3    H116647   1.283   0.566   0.372
 5547TIP3    H216648   1.345   0.580   0.234
 5548TIP3   OH216649   4.111   4.083   3.694
 5548TIP3    H116650   4.109   3.988   3.703
 5548TIP3    H216651   4.142   4.098   3.605
 5549TIP3   OH216652   0.477   4.079   4.529
 5549TIP3    H116653   0.562   4.077   4.485
 5549TIP3    H216654   0.469   4.168   4.563
 5550TIP3   OH216655   0.745   4.223   4.554
 5550TIP3    H116656   0.779   4.230   4.643
 5550TIP3    H216657   0.823   4.226   4.498
 5551TIP3   OH216658   0.027   4.105   0.124
 5551TIP3    H116659   0.073   4.052   0.189
 5551TIP3    H216660   0.078   4.092   0.043
 5552TIP3   OH216661   5.833   4.348   4.128
 5552TIP3    H116662   5.748   4.385   4.105
 5552TIP3    H216663   5.891   4.424   4.134
 5553TIP3   OH216664   2.850   5.305   0.543
 5553TIP3    H116665   2.777   5.245   0.559
 5553TIP3    H216666   2.928   5.251   0.551
 5554TIP3   OH216667   5.978   0.932   4.437
 5554TIP3    H116668   6.009   0.870   4.502
 5554TIP3    H216669   6.059   0.963   4.394
 5555TIP3   OH216670   2.516   4.548   4.378
 5555TIP3    H116671   2.548   4.469   4.419
 5555TIP3    H216672   2.586   4.612   4.390
 5556TIP3   OH216673   5.978   1.086   1.184
 5556TIP3    H116674   5.977   1.163   1.241
 5556TIP3    H216675   6.009   1.118   1.099
 5557TIP3   OH216676   0.617   4.653   0.512
 5557TIP3    H116677   0.657   4.621   0.431
 5557TIP3    H216678   0.678   4.627   0.581
 5558TIP3   OH216679   5.210   4.205   2.453
 5558TIP3    H116680   5.128   4.254   2.446
 5558TIP3    H216681   5.185   4.119   2.484
 5559TIP3   OH216682   2.356   0.670   1.846
 5559TIP3    H116683   2.381   0.657   1.938
 5559TIP3    H216684   2.347   0.582   1.810
 5560TIP3   OH216685   5.548   3.041   0.579
 5560TIP3    H116686   5.587   3.111   0.526
 5560TIP3    H216687   5.459   3.033   0.545
 5561TIP3   OH216688   0.084   3.405   2.945
 5561TIP3    H116689   0.135   3.452   2.879
 5561TIP3    H216690  -0.005   3.436   2.933
 5562TIP3   OH216691   2.828   4.879   2.662
 5562TIP3    H116692   2.864   4.930   2.589
 5562TIP3    H216693   2.837   4.936   2.738
 5563TIP3   OH216694   2.691   5.098   2.797
 5563TIP3    H116695   2.636   5.050   2.859
 5563TIP3    H216696   2.673   5.058   2.712
 5564TIP3   OH216697   4.008   2.360   4.501
 5564TIP3    H116698   4.080   2.394   4.554
 5564TIP3    H216699   3.933   2.416   4.524
 5565TIP3   OH216700   0.919   3.003   2.730
 5565TIP3    H116701   0.871   3.057   2.794
 5565TIP3    H216702   0.969   3.067   2.679
 5566TIP3   OH216703   4.051   5.134   1.047
 5566TIP3    H116704   4.074   5.070   1.115
 5566TIP3    H216705   3.967   5.103   1.012
 5567TIP3   OH216706   0.455   4.437   0.616
 5567TIP3    H116707   0.484   4.526   0.594
 5567TIP3    H216708   0.527   4.401   0.667
 5568TIP3   OH216709   3.005   3.775   1.922
 5568TIP3    H116710   2.989   3.828   2.000
 5568TIP3    H216711   3.089   3.733   1.938
 5569TIP3   OH216712   4.321   2.564   1.386
 5569TIP3    H116713   4.374   2.513   1.325
 5569TIP3    H216714   4.291   2.501   1.451
 5570TIP3   OH216715   0.765   4.458   1.265
 5570TIP3    H116716   0.730   4.429   1.349
 5570TIP3    H216717   0.778   4.552   1.276
 5571TIP3   OH216718   3.286   4.282   3.812
 5571TIP3    H116719   3.206   4.332   3.829
 5571TIP3    H216720   3.319   4.316   3.729
 5572TIP3   OH216721   5.372   0.190   0.329
 5572TIP3    H116722   5.335   0.253   0.269
 5572TIP3    H216723   5.433   0.240   0.382
 5573TIP3   OH216724   3.015   5.606   3.903
 5573TIP3    H116725   2.967   5.543   3.848
 5573TIP3    H216726   3.091   5.558   3.934
 5574TIP3   OH216727   3.922   2.439   1.780
 5574TIP3    H116728   3.851   2.374   1.780
 5574TIP3    H216729   3.969   2.423   1.698
 5575TIP3   OH216730   0.932   4.690   2.489
 5575TIP3    H116731   0.871   4.676   2.417
 5575TIP3    H216732   0.882   4.740   2.554
 5576TIP3   OH216733   0.981   3.998   1.243
 5576TIP3    H116734   0.986   4.040   1.329
 5576TIP3    H216735   0.949   3.910   1.261
 5577TIP3   OH216736   4.902   2.918   0.154
 5577TIP3    H116737   4.950   2.996   0.183
 5577TIP3    H216738   4.857   2.888   0.232
 5578TIP3   OH216739   0.208   2.753   1.098
 5578TIP3    H116740   0.262   2.820   1.140
 5578TIP3    H216741   0.133   2.742   1.156
 5579TIP3   OH216742   1.362   0.860   1.474
 5579TIP3    H116743   1.289   0.920   1.491
 5579TIP3    H216744   1.340   0.781   1.523
 5580TIP3   OH216745   2.552   0.741   3.610
 5580TIP3    H116746   2.489   0.755   3.540
 5580TIP3    H216747   2.590   0.827   3.627
 5581TIP3   OH216748   6.034   3.283   1.151
 5581TIP3    H116749   5.941   3.303   1.160
 5581TIP3    H216750   6.040   3.227   1.074
 5582TIP3   OH216751   1.524   3.005   1.929
 5582TIP3    H116752   1.539   3.025   1.837
 5582TIP3    H216753   1.612   2.996   1.966
 5583TIP3   OH216754   4.927   3.130   4.112
 5583TIP3    H116755   4.964   3.218   4.108
 5583TIP3    H216756   4.876   3.128   4.193
 5584TIP3   OH216757   3.309   1.655   3.224
 5584TIP3    H116758   3.221   1.638   3.258
 5584TIP3    H216759   3.340   1.570   3.192
 5585TIP3   OH216760   2.550   5.088   5.113
 5585TIP3    H116761   2.579   5.122   5.028
 5585TIP3    H216762   2.594   5.144   5.177
 5586TIP3   OH216763   4.396   5.712   4.326
 5586TIP3    H116764   4.381   5.636   4.271
 5586TIP3    H216765   4.387   5.787   4.267
 5587TIP3   OH216766   1.560   1.298   0.622
 5587TIP3    H116767   1.586   1.247   0.698
 5587TIP3    H216768   1.465   1.297   0.623
 5588TIP3   OH216769   4.734   4.297   3.788
 5588TIP3    H116770   4.815   4.297   3.737
 5588TIP3    H216771   4.748   4.363   3.856
 5589TIP3   OH216772   0.428   3.245   3.152
 5589TIP3    H116773   0.507   3.200   3.125
 5589TIP3    H216774   0.458   3.310   3.216
 5590TIP3   OH216775   3.689   4.157   5.069
 5590TIP3    H116776   3.700   4.173   4.975
 5590TIP3    H216777   3.661   4.241   5.104
 5591TIP3   OH216778   0.580   2.271   0.101
 5591TIP3    H116779   0.608   2.208   0.167
 5591TIP3    H216780   0.546   2.345   0.151
 5592TIP3   OH216781   0.994   2.132   3.320
 5592TIP3    H116782   1.048   2.121   3.398
 5592TIP3    H216783   1.056   2.130   3.247
 5593TIP3   OH216784   5.087   4.686   2.915
 5593TIP3    H116785   4.998   4.688   2.880
 5593TIP3    H216786   5.138   4.643   2.846
 5594TIP3   OH216787   5.436   1.655   2.325
 5594TIP3    H116788   5.355   1.603   2.332
 5594TIP3    H216789   5.406   1.745   2.313
 5595TIP3   OH216790   4.180   2.357   0.795
 5595TIP3    H116791   4.228   2.397   0.868
 5595TIP3    H216792   4.106   2.416   0.780
 5596TIP3   OH216793   4.241   3.333   0.925
 5596TIP3    H116794   4.234   3.253   0.977
 5596TIP3    H216795   4.172   3.324   0.859
 5597TIP3   OH216796   1.576   2.047   0.097
 5597TIP3    H116797   1.622   2.109   0.154
 5597TIP3    H216798   1.505   2.098   0.059
 5598TIP3   OH216799   5.280   5.149   3.497
 5598TIP3    H116800   5.262   5.198   3.416
 5598TIP3    H216801   5.254   5.207   3.567
 5599TIP3   OH216802   6.216   2.461   0.925
 5599TIP3    H116803   6.142   2.444   0.983
 5599TIP3    H216804   6.257   2.376   0.913
 5600TIP3   OH216805   6.135   5.368   2.396
 5600TIP3    H116806   6.179   5.450   2.372
 5600TIP3    H216807   6.161   5.352   2.487
 5601TIP3   OH216808   5.414   2.352   1.598
 5601TIP3    H116809   5.398   2.296   1.523
 5601TIP3    H216810   5.477   2.303   1.652
 5602TIP3   OH216811   0.593   1.583   1.745
 5602TIP3    H116812   0.662   1.517   1.738
 5602TIP3    H216813   0.638   1.666   1.730
 5603TIP3   OH216814   4.213   4.692   1.876
 5603TIP3    H116815   4.284   4.716   1.817
 5603TIP3    H216816   4.196   4.772   1.927
 5604TIP3   OH216817   4.018   1.779   2.671
 5604TIP3    H116818   4.036   1.688   2.692
 5604TIP3    H216819   3.924   1.781   2.650
 5605TIP3   OH216820   0.891   3.279   2.220
 5605TIP3    H116821   0.958   3.344   2.199
 5605TIP3    H216822   0.834   3.278   2.143
 5606TIP3   OH216823   1.857   2.024   1.393
 5606TIP3    H116824   1.836   2.019   1.487
 5606TIP3    H216825   1.779   1.990   1.349
 5607TIP3   OH216826   6.233   2.290   4.862
 5607TIP3    H116827   6.218   2.305   4.768
 5607TIP3    H216828   6.323   2.319   4.876
 5608TIP3   OH216829   2.179   5.812   4.358
 5608TIP3    H116830   2.205   5.857   4.438
 5608TIP3    H216831   2.226   5.858   4.288
 5609TIP3   OH216832   0.268   0.113   2.115
 5609TIP3    H116833   0.350   0.087   2.158
 5609TIP3    H216834   0.276   0.077   2.027
 5610TIP3   OH216835   4.075   2.877   1.822
 5610TIP3    H116836   4.019   2.953   1.838
 5610TIP3    H216837   4.114   2.857   1.907
 5611TIP3   OH216838   0.242   0.510   2.615
 5611TIP3    H116839   0.286   0.595   2.620
 5611TIP3    H216840   0.235   0.492   2.521
 5612TIP3   OH216841   1.939   3.453   1.726
 5612TIP3    H116842   1.973   3.434   1.813
 5612TIP3    H216843   1.949   3.548   1.716
 5613TIP3   OH216844   3.019   4.567   4.352
 5613TIP3    H116845   3.078   4.527   4.416
 5613TIP3    H216846   3.072   4.635   4.310
 5614TIP3   OH216847   1.100   0.922   3.724
 5614TIP3    H116848   1.040   0.989   3.758
 5614TIP3    H216849   1.134   0.960   3.643
 5615TIP3   OH216850   5.996   4.522   3.143
 5615TIP3    H116851   5.947   4.440   3.146
 5615TIP3    H216852   5.938   4.584   3.099
 5616TIP3   OH216853   4.123   0.548   0.954
 5616TIP3    H116854   4.216   0.558   0.935
 5616TIP3    H216855   4.107   0.608   1.027
 5617TIP3   OH216856   2.873   1.049   4.592
 5617TIP3    H116857   2.860   1.143   4.605
 5617TIP3    H216858   2.852   1.034   4.500
 5618TIP3   OH216859   3.034   3.310   3.978
 5618TIP3    H116860   3.085   3.391   3.985
 5618TIP3    H216861   2.943   3.339   3.978
 5619TIP3   OH216862   4.814   3.683   1.956
 5619TIP3    H116863   4.779   3.600   1.924
 5619TIP3    H216864   4.834   3.733   1.877
 5620TIP3   OH216865   2.246   5.494   3.597
 5620TIP3    H116866   2.257   5.577   3.552
 5620TIP3    H216867   2.257   5.428   3.529
 5621TIP3   OH216868   0.511   3.825   4.622
 5621TIP3    H116869   0.479   3.813   4.711
 5621TIP3    H216870   0.483   3.914   4.599
 5622TIP3   OH216871   3.619   2.071   1.013
 5622TIP3    H116872   3.690   2.007   1.016
 5622TIP3    H216873   3.606   2.087   0.919
 5623TIP3   OH216874   4.168   1.637   3.381
 5623TIP3    H116875   4.100   1.647   3.314
 5623TIP3    H216876   4.239   1.591   3.336
 5624TIP3   OH216877   2.278   4.628   4.319
 5624TIP3    H116878   2.254   4.640   4.410
 5624TIP3    H216879   2.359   4.577   4.322
 5625TIP3   OH216880   0.561   5.956   1.451
 5625TIP3    H116881   0.479   5.949   1.498
 5625TIP3    H216882   0.620   5.895   1.496
 5626TIP3   OH216883   4.050   4.419   3.661
 5626TIP3    H116884   4.145   4.426   3.648
 5626TIP3    H216885   4.039   4.413   3.756
 5627TIP3   OH216886   0.009   5.689   2.915
 5627TIP3    H116887  -0.007   5.783   2.925
 5627TIP3    H216888   0.051   5.682   2.829
 5628TIP3   OH216889   3.347   3.163   2.148
 5628TIP3    H116890   3.391   3.115   2.078
 5628TIP3    H216891   3.255   3.166   2.120
 5629TIP3   OH216892   5.135   4.910   3.808
 5629TIP3    H116893   5.201   4.861   3.759
 5629TIP3    H216894   5.184   4.950   3.880
 5630TIP3   OH216895   2.218   1.615   1.312
 5630TIP3    H116896   2.123   1.630   1.310
 5630TIP3    H216897   2.246   1.630   1.222
 5631TIP3   OH216898   3.202   2.042   1.459
 5631TIP3    H116899   3.254   2.112   1.419
 5631TIP3    H216900   3.153   2.004   1.387
 5632TIP3   OH216901   6.338   0.336   0.817
 5632TIP3    H116902   6.339   0.432   0.812
 5632TIP3    H216903   6.245   0.313   0.812
 5633TIP3   OH216904   1.522   0.571   5.171
 5633TIP3    H116905   1.507   0.578   5.077
 5633TIP3    H216906   1.434   0.575   5.209
 5634TIP3   OH216907   2.673   4.511   2.429
 5634TIP3    H116908   2.731   4.576   2.390
 5634TIP3    H216909   2.605   4.497   2.363
 5635TIP3   OH216910   3.164   2.373   3.109
 5635TIP3    H116911   3.100   2.377   3.038
 5635TIP3    H216912   3.245   2.405   3.069
 5636TIP3   OH216913   6.175   3.377   3.321
 5636TIP3    H116914   6.228   3.301   3.344
 5636TIP3    H216915   6.237   3.440   3.286
 5637TIP3   OH216916   5.563   2.690   2.929
 5637TIP3    H116917   5.610   2.620   2.975
 5637TIP3    H216918   5.493   2.645   2.882
 5638TIP3   OH216919   3.585   2.804   4.956
 5638TIP3    H116920   3.520   2.858   5.002
 5638TIP3    H216921   3.599   2.729   5.014
 5639TIP3   OH216922   1.398   2.805   1.508
 5639TIP3    H116923   1.470   2.841   1.457
 5639TIP3    H216924   1.438   2.740   1.566
 5640TIP3   OH216925   6.091   0.979   3.568
 5640TIP3    H116926   6.047   1.063   3.585
 5640TIP3    H216927   6.173   0.985   3.617
 5641TIP3   OH216928   2.952   2.858   3.932
 5641TIP3    H116929   3.029   2.802   3.920
 5641TIP3    H216930   2.989   2.944   3.954
 5642TIP3   OH216931   2.669   5.788   2.466
 5642TIP3    H116932   2.657   5.876   2.500
 5642TIP3    H216933   2.645   5.794   2.374
 5643TIP3   OH216934   1.138   3.416   3.474
 5643TIP3    H116935   1.203   3.479   3.507
 5643TIP3    H216936   1.054   3.459   3.487
 5644TIP3   OH216937   5.865   2.551   1.962
 5644TIP3    H116938   5.810   2.486   2.005
 5644TIP3    H216939   5.943   2.557   2.018
 5645TIP3   OH216940   1.763   0.517   4.425
 5645TIP3    H116941   1.808   0.542   4.344
 5645TIP3    H216942   1.784   0.424   4.435
 5646TIP3   OH216943   4.148   1.945   0.284
 5646TIP3    H116944   4.126   1.854   0.261
 5646TIP3    H216945   4.225   1.965   0.232
 5647TIP3   OH216946   3.067   0.966   1.647
 5647TIP3    H116947   3.066   0.955   1.551
 5647TIP3    H216948   3.005   0.901   1.679
 5648TIP3   OH216949   6.213   4.321   0.662
 5648TIP3    H116950   6.294   4.274   0.679
 5648TIP3    H216951   6.241   4.402   0.618
 5649TIP3   OH216952   4.470   4.858   0.499
 5649TIP3    H116953   4.449   4.814   0.581
 5649TIP3    H216954   4.536   4.801   0.459
 5650TIP3   OH216955   1.227   1.631   0.374
 5650TIP3    H116956   1.157   1.638   0.439
 5650TIP3    H216957   1.226   1.540   0.347
 5651TIP3   OH216958   0.087   5.213   3.153
 5651TIP3    H116959   0.027   5.286   3.141
 5651TIP3    H216960   0.151   5.244   3.216
 5652TIP3   OH216961   2.932   1.568   2.172
 5652TIP3    H116962   2.968   1.480   2.181
 5652TIP3    H216963   2.839   1.554   2.152
 5653TIP3   OH216964   1.752   2.447   2.816
 5653TIP3    H116965   1.794   2.419   2.735
 5653TIP3    H216966   1.817   2.504   2.858
 5654TIP3   OH216967   0.987   0.043   2.641
 5654TIP3    H116968   0.982   0.130   2.681
 5654TIP3    H216969   1.080   0.029   2.626
 5655TIP3   OH216970   0.188   5.086   3.992
 5655TIP3    H116971   0.178   5.119   3.903
 5655TIP3    H216972   0.099   5.086   4.028
 5656TIP3   OH216973   0.933   4.513   0.051
 5656TIP3    H116974   0.868   4.583   0.043
 5656TIP3    H216975   1.012   4.548   0.010
 5657TIP3   OH216976   0.857   3.806   0.482
 5657TIP3    H116977   0.904   3.769   0.407
 5657TIP3    H216978   0.773   3.836   0.446
 5658TIP3   OH216979   2.353   3.120   2.892
 5658TIP3    H116980   2.368   3.070   2.811
 5658TIP3    H216981   2.441   3.149   2.918
 5659TIP3   OH216982   0.556   3.621   0.833
 5659TIP3    H116983   0.632   3.642   0.777
 5659TIP3    H216984   0.498   3.570   0.776
 5660TIP3   OH216985   1.368   5.599   3.372
 5660TIP3    H116986   1.282   5.573   3.340
 5660TIP3    H216987   1.381   5.687   3.338
 5661TIP3   OH216988   1.185   1.040   1.205
 5661TIP3    H116989   1.196   1.017   1.297
 5661TIP3    H216990   1.111   1.100   1.204
 5662TIP3   OH216991   4.269   5.665   0.907
 5662TIP3    H116992   4.300   5.650   0.817
 5662TIP3    H216993   4.348   5.665   0.960
 5663TIP3   OH216994   6.294   4.895   2.431
 5663TIP3    H116995   6.360   4.876   2.498
 5663TIP3    H216996   6.311   4.832   2.361
 5664TIP3   OH216997   5.780   5.718   3.190
 5664TIP3    H116998   5.832   5.798   3.199
 5664TIP3    H216999   5.689   5.748   3.188
 5665TIP3   OH217000   4.163   5.315   3.270
 5665TIP3    H117001   4.082   5.344   3.312
 5665TIP3    H217002   4.135   5.278   3.186
 5666TIP3   OH217003   2.524   4.966   2.588
 5666TIP3    H117004   2.470   4.903   2.637
 5666TIP3    H217005   2.516   4.938   2.497
 5667TIP3   OH217006   3.402   1.047   2.370
 5667TIP3    H117007   3.377   0.971   2.423
 5667TIP3    H217008   3.497   1.054   2.381
 5668TIP3   OH217009   5.907   1.662   4.703
 5668TIP3    H117010   5.968   1.600   4.742
 5668TIP3    H217011   5.820   1.625   4.721
 5669TIP3   OH217012   1.978   0.520   2.767
 5669TIP3    H117013   1.935   0.585   2.822
 5669TIP3    H217014   1.910   0.491   2.707
 5670TIP3   OH217015   3.764   5.529   4.921
 5670TIP3    H117016   3.673   5.534   4.951
 5670TIP3    H217017   3.790   5.620   4.911
 5671TIP3   OH217018   3.660   5.575   4.352
 5671TIP3    H117019   3.680   5.516   4.425
 5671TIP3    H217020   3.564   5.577   4.349
 5672TIP3   OH217021   3.955   4.167   0.481
 5672TIP3    H117022   3.994   4.195   0.564
 5672TIP3    H217023   3.862   4.162   0.499
 5673TIP3   OH217024   0.725   2.873   0.393
 5673TIP3    H117025   0.771   2.951   0.361
 5673TIP3    H217026   0.779   2.842   0.466
 5674TIP3   OH217027   6.254   2.565   4.214
 5674TIP3    H117028   6.251   2.609   4.129
 5674TIP3    H217029   6.326   2.502   4.206
 5675TIP3   OH217030   1.570   3.909   3.345
 5675TIP3    H117031   1.543   3.820   3.321
 5675TIP3    H217032   1.503   3.938   3.407
 5676TIP3   OH217033   2.215   3.675   3.413
 5676TIP3    H117034   2.138   3.661   3.468
 5676TIP3    H217035   2.184   3.656   3.324
 5677TIP3   OH217036   0.929   0.696   3.713
 5677TIP3    H117037   0.980   0.615   3.710
 5677TIP3    H217038   0.994   0.765   3.729
 5678TIP3   OH217039   6.059   0.247   2.958
 5678TIP3    H117040   6.071   0.301   2.880
 5678TIP3    H217041   6.099   0.163   2.936
 5679TIP3   OH217042   1.439   1.126   2.181
 5679TIP3    H117043   1.441   1.216   2.150
 5679TIP3    H217044   1.367   1.085   2.133
 5680TIP3   OH217045   5.821   1.374   1.222
 5680TIP3    H117046   5.890   1.430   1.186
 5680TIP3    H217047   5.794   1.319   1.149
 5681TIP3   OH217048   3.917   1.897   0.658
 5681TIP3    H117049   3.932   1.836   0.585
 5681TIP3    H217050   3.974   1.864   0.728
 5682TIP3   OH217051   2.103  -0.020   2.985
 5682TIP3    H117052   2.174   0.002   3.046
 5682TIP3    H217053   2.074   0.064   2.951
 5683TIP3   OH217054   0.098   4.155   3.151
 5683TIP3    H117055   0.039   4.151   3.226
 5683TIP3    H217056   0.129   4.245   3.149
 5684TIP3   OH217057   4.877   0.522   0.469
 5684TIP3    H117058   4.809   0.589   0.480
 5684TIP3    H217059   4.956   0.563   0.503
 5685TIP3   OH217060   1.641   1.811   0.602
 5685TIP3    H117061   1.589   1.787   0.678
 5685TIP3    H217062   1.596   1.771   0.528
 5686TIP3   OH217063   3.052   5.107   1.349
 5686TIP3    H117064   2.961   5.130   1.333
 5686TIP3    H217065   3.056   5.012   1.333
 5687TIP3   OH217066   1.399   0.057   3.094
 5687TIP3    H117067   1.354   0.051   3.010
 5687TIP3    H217068   1.441   0.142   3.094
 5688TIP3   OH217069   6.250   5.655   1.146
 5688TIP3    H117070   6.243   5.623   1.236
 5688TIP3    H217071   6.288   5.581   1.097
 5689TIP3   OH217072   1.746   1.047   1.186
 5689TIP3    H117073   1.724   0.985   1.255
 5689TIP3    H217074   1.696   1.126   1.207
 5690TIP3   OH217075   3.109   2.690   5.169
 5690TIP3    H117076   3.030   2.743   5.167
 5690TIP3    H217077   3.078   2.600   5.180
 5691TIP3   OH217078   6.008   4.593   0.515
 5691TIP3    H117079   6.039   4.598   0.605
 5691TIP3    H217080   6.081   4.554   0.467
 5692TIP3   OH217081   4.822   3.387   0.802
 5692TIP3    H117082   4.791   3.465   0.755
 5692TIP3    H217083   4.897   3.357   0.750
 5693TIP3   OH217084   2.100   5.001   3.495
 5693TIP3    H117085   2.101   4.913   3.456
 5693TIP3    H217086   2.053   5.054   3.432
 5694TIP3   OH217087   1.048   1.369   0.938
 5694TIP3    H117088   1.011   1.295   0.890
 5694TIP3    H217089   1.074   1.431   0.870
 5695TIP3   OH217090   5.438   0.954   4.706
 5695TIP3    H117091   5.436   0.876   4.760
 5695TIP3    H217092   5.514   0.943   4.650
 5696TIP3   OH217093   3.176   1.376   0.735
 5696TIP3    H117094   3.081   1.371   0.722
 5696TIP3    H217095   3.204   1.285   0.742
 5697TIP3   OH217096   6.026   1.261   2.461
 5697TIP3    H117097   5.983   1.213   2.390
 5697TIP3    H217098   6.115   1.274   2.431
 5698TIP3   OH217099   1.693   1.646   4.154
 5698TIP3    H117100   1.771   1.701   4.153
 5698TIP3    H217101   1.626   1.699   4.196
 5699TIP3   OH217102   3.460   3.861   3.000
 5699TIP3    H117103   3.504   3.785   3.037
 5699TIP3    H217104   3.493   3.935   3.051
 5700TIP3   OH217105   3.505   4.626   2.380
 5700TIP3    H117106   3.414   4.627   2.353
 5700TIP3    H217107   3.507   4.566   2.455
 5701TIP3   OH217108   3.854   2.172   4.957
 5701TIP3    H117109   3.941   2.185   4.994
 5701TIP3    H217110   3.806   2.251   4.982
 5702TIP3   OH217111   1.552   4.809   1.917
 5702TIP3    H117112   1.581   4.895   1.887
 5702TIP3    H217113   1.457   4.810   1.902
 5703TIP3   OH217114   0.816   0.511   0.366
 5703TIP3    H117115   0.752   0.493   0.435
 5703TIP3    H217116   0.764   0.536   0.290
 5704TIP3   OH217117   4.023   0.182   5.149
 5704TIP3    H117118   4.055   0.096   5.175
 5704TIP3    H217119   3.929   0.180   5.170
 5705TIP3   OH217120   2.698   1.918   4.822
 5705TIP3    H117121   2.751   1.865   4.762
 5705TIP3    H217122   2.654   1.854   4.878
 5706TIP3   OH217123   2.387   1.293   4.490
 5706TIP3    H117124   2.324   1.354   4.451
 5706TIP3    H217125   2.369   1.209   4.447
 5707TIP3   OH217126   4.924   4.523   2.192
 5707TIP3    H117127   4.894   4.599   2.141
 5707TIP3    H217128   4.856   4.457   2.179
 5708TIP3   OH217129   2.540   0.668   2.427
 5708TIP3    H117130   2.524   0.759   2.401
 5708TIP3    H217131   2.498   0.661   2.513
 5709TIP3   OH217132   0.503   0.707   2.335
 5709TIP3    H117133   0.541   0.717   2.248
 5709TIP3    H217134   0.560   0.757   2.392
 5710TIP3   OH217135   6.257   5.625   2.358
 5710TIP3    H117136   6.350   5.640   2.374
 5710TIP3    H217137   6.242   5.658   2.269
 5711TIP3   OH217138   2.263   1.395   4.881
 5711TIP3    H117139   2.331   1.330   4.862
 5711TIP3    H217140   2.230   1.422   4.796
 5712TIP3   OH217141   1.942   3.256   0.639
 5712TIP3    H117142   1.914   3.167   0.615
 5712TIP3    H217143   1.937   3.258   0.734
 5713TIP3   OH217144   6.095   0.000   2.847
 5713TIP3    H117145   6.013  -0.048   2.834
 5713TIP3    H217146   6.102   0.057   2.770
 5714TIP3   OH217147   0.306   1.207   3.139
 5714TIP3    H117148   0.225   1.178   3.182
 5714TIP3    H217149   0.293   1.301   3.125
 5715TIP3   OH217150   2.630   3.627   3.115
 5715TIP3    H117151   2.683   3.640   3.036
 5715TIP3    H217152   2.616   3.715   3.149
 5716TIP3   OH217153   5.741   0.020   0.506
 5716TIP3    H117154   5.808  -0.028   0.458
 5716TIP3    H217155   5.659  -0.007   0.467
 5717TIP3   OH217156   4.870   1.270   2.550
 5717TIP3    H117157   4.873   1.199   2.615
 5717TIP3    H217158   4.841   1.227   2.470
 5718TIP3   OH217159   0.122   3.418   4.534
 5718TIP3    H117160   0.117   3.395   4.627
 5718TIP3    H217161   0.130   3.513   4.534
 5719TIP3   OH217162   3.594   3.729   1.354
 5719TIP3    H117163   3.549   3.701   1.435
 5719TIP3    H217164   3.538   3.799   1.320
 5720TIP3   OH217165   2.771   0.053   0.864
 5720TIP3    H117166   2.773   0.081   0.955
 5720TIP3    H217167   2.861   0.068   0.832
 5721TIP3   OH217168   1.636   0.457   0.724
 5721TIP3    H117169   1.678   0.377   0.753
 5721TIP3    H217170   1.677   0.477   0.640
 5722TIP3   OH217171   4.012   1.314   3.170
 5722TIP3    H117172   4.011   1.294   3.264
 5722TIP3    H217173   3.924   1.292   3.140
 5723TIP3   OH217174   0.969   1.834   3.609
 5723TIP3    H117175   0.904   1.904   3.607
 5723TIP3    H217176   0.920   1.758   3.641
 5724TIP3   OH217177   3.677   4.402   1.881
 5724TIP3    H117178   3.696   4.457   1.804
 5724TIP3    H217179   3.673   4.464   1.954
 5725TIP3   OH217180   1.295   4.288   2.892
 5725TIP3    H117181   1.306   4.290   2.797
 5725TIP3    H217182   1.202   4.310   2.906
 5726TIP3   OH217183   2.851   3.428   0.431
 5726TIP3    H117184   2.847   3.487   0.356
 5726TIP3    H217185   2.870   3.486   0.506
 5727TIP3   OH217186   3.549   1.872   2.035
 5727TIP3    H117187   3.454   1.888   2.033
 5727TIP3    H217188   3.564   1.826   2.118
 5728TIP3   OH217189   0.237   5.932   4.559
 5728TIP3    H117190   0.291   5.954   4.483
 5728TIP3    H217191   0.228   5.837   4.556
 5729TIP3   OH217192   1.969   0.353   1.258
 5729TIP3    H117193   1.992   0.420   1.194
 5729TIP3    H217194   2.021   0.276   1.233
 5730TIP3   OH217195   4.646   3.114   1.834
 5730TIP3    H117196   4.590   3.038   1.850
 5730TIP3    H217197   4.612   3.153   1.754
 5731TIP3   OH217198   4.376   3.628   4.665
 5731TIP3    H117199   4.466   3.597   4.673
 5731TIP3    H217200   4.339   3.617   4.753
 5732TIP3   OH217201   2.174   1.854   3.265
 5732TIP3    H117202   2.133   1.832   3.349
 5732TIP3    H217203   2.163   1.775   3.212
 5733TIP3   OH217204   0.783   3.408   2.727
 5733TIP3    H117205   0.690   3.385   2.721
 5733TIP3    H217206   0.805   3.395   2.819
 5734TIP3   OH217207   2.455   1.893   4.531
 5734TIP3    H117208   2.362   1.872   4.522
 5734TIP3    H217209   2.456   1.978   4.575
 5735TIP3   OH217210   5.969   1.634   5.041
 5735TIP3    H117211   6.020   1.593   4.971
 5735TIP3    H217212   5.992   1.583   5.120
 5736TIP3   OH217213   0.305   0.219   0.340
 5736TIP3    H117214   0.291   0.184   0.252
 5736TIP3    H217215   0.300   0.142   0.397
 5737TIP3   OH217216   3.661   4.022   4.563
 5737TIP3    H117217   3.670   4.045   4.471
 5737TIP3    H217218   3.601   4.088   4.598
 5738TIP3   OH217219   0.110   3.983   1.602
 5738TIP3    H117220   0.193   4.026   1.623
 5738TIP3    H217221   0.068   3.969   1.686
 5739TIP3   OH217222   5.334   3.994   4.352
 5739TIP3    H117223   5.303   4.081   4.376
 5739TIP3    H217224   5.383   3.964   4.429
 5740TIP3   OH217225   2.285   0.203   4.628
 5740TIP3    H117226   2.302   0.110   4.611
 5740TIP3    H217227   2.368   0.246   4.610
 5741TIP3   OH217228   2.623   4.236   3.428
 5741TIP3    H117229   2.620   4.140   3.436
 5741TIP3    H217230   2.574   4.254   3.347
 5742TIP3   OH217231   3.760   5.838   0.350
 5742TIP3    H117232   3.777   5.747   0.374
 5742TIP3    H217233   3.726   5.834   0.261
 5743TIP3   OH217234   1.217   3.971   0.952
 5743TIP3    H117235   1.305   3.976   0.915
 5743TIP3    H217236   1.158   3.965   0.876
 5744TIP3   OH217237   3.284   1.587   4.827
 5744TIP3    H117238   3.329   1.671   4.831
 5744TIP3    H217239   3.328   1.533   4.892
 5745TIP3   OH217240   2.483   2.618   0.095
 5745TIP3    H117241   2.477   2.683   0.025
 5745TIP3    H217242   2.577   2.610   0.111
 5746TIP3   OH217243   0.644   2.798   0.774
 5746TIP3    H117244   0.569   2.857   0.772
 5746TIP3    H217245   0.720   2.856   0.767
 5747TIP3   OH217246   5.426   0.005   3.210
 5747TIP3    H117247   5.473  -0.025   3.133
 5747TIP3    H217248   5.402   0.096   3.190
 5748TIP3   OH217249   0.195   5.310   2.434
 5748TIP3    H117250   0.267   5.361   2.472
 5748TIP3    H217251   0.207   5.222   2.469
 5749TIP3   OH217252   1.337   4.047   2.405
 5749TIP3    H117253   1.419   4.029   2.450
 5749TIP3    H217254   1.308   3.962   2.371
 5750TIP3   OH217255   1.556   3.356   0.459
 5750TIP3    H117256   1.579   3.267   0.433
 5750TIP3    H217257   1.604   3.371   0.540
 5751TIP3   OH217258   3.940   0.148   1.401
 5751TIP3    H117259   3.871   0.108   1.454
 5751TIP3    H217260   3.897   0.220   1.356
 5752TIP3   OH217261   3.944   4.502   0.691
 5752TIP3    H117262   4.032   4.517   0.727
 5752TIP3    H217263   3.959   4.447   0.615
 5753TIP3   OH217264   1.670   5.851   3.446
 5753TIP3    H117265   1.662   5.757   3.431
 5753TIP3    H217266   1.723   5.883   3.373
 5754TIP3   OH217267   0.810   4.029   4.771
 5754TIP3    H117268   0.796   4.001   4.681
 5754TIP3    H217269   0.856   3.956   4.812
 5755TIP3   OH217270   1.030   1.342   3.914
 5755TIP3    H117271   1.118   1.352   3.878
 5755TIP3    H217272   1.004   1.253   3.890
 5756TIP3   OH217273   6.202   4.407   3.255
 5756TIP3    H117274   6.110   4.431   3.245
 5756TIP3    H217275   6.224   4.359   3.175
 5757TIP3   OH217276   1.643   2.391   1.307
 5757TIP3    H117277   1.660   2.345   1.225
 5757TIP3    H217278   1.682   2.478   1.295
 5758TIP3   OH217279   5.560   2.023   2.409
 5758TIP3    H117280   5.637   2.068   2.446
 5758TIP3    H217281   5.525   1.974   2.483
 5759TIP3   OH217282   1.393   4.653   2.930
 5759TIP3    H117283   1.445   4.615   2.858
 5759TIP3    H217284   1.435   4.620   3.009
 5760TIP3   OH217285   0.463   3.597   1.415
 5760TIP3    H117286   0.536   3.567   1.470
 5760TIP3    H217287   0.450   3.526   1.353
 5761TIP3   OH217288   4.971   0.573   3.419
 5761TIP3    H117289   4.962   0.488   3.462
 5761TIP3    H217290   4.942   0.636   3.485
 5762TIP3   OH217291   5.833   3.058   0.843
 5762TIP3    H117292   5.769   2.989   0.827
 5762TIP3    H217293   5.781   3.135   0.865
 5763TIP3   OH217294   3.210   3.445   5.036
 5763TIP3    H117295   3.234   3.514   4.974
 5763TIP3    H217296   3.294   3.412   5.068
 5764TIP3   OH217297   5.870   3.461   0.959
 5764TIP3    H117298   5.886   3.498   1.046
 5764TIP3    H217299   5.941   3.496   0.905
 5765TIP3   OH217300   1.083   1.733   1.811
 5765TIP3    H117301   1.031   1.809   1.785
 5765TIP3    H217302   1.048   1.708   1.897
 5766TIP3   OH217303   0.955   5.972   0.153
 5766TIP3    H117304   1.032   5.916   0.148
 5766TIP3    H217305   0.889   5.928   0.099
 5767TIP3   OH217306   5.232   1.206   1.804
 5767TIP3    H117307   5.158   1.171   1.754
 5767TIP3    H217308   5.205   1.198   1.895
 5768TIP3   OH217309   2.837   5.461   3.761
 5768TIP3    H117310   2.879   5.482   3.677
 5768TIP3    H217311   2.746   5.490   3.750
 5769TIP3   OH217312   3.487   0.311   0.754
 5769TIP3    H117313   3.413   0.253   0.770
 5769TIP3    H217314   3.531   0.275   0.678
 5770TIP3   OH217315   3.366   0.207   0.391
 5770TIP3    H117316   3.371   0.171   0.302
 5770TIP3    H217317   3.448   0.182   0.432
 5771TIP3   OH217318   4.047   1.662   2.354
 5771TIP3    H117319   4.135   1.623   2.351
 5771TIP3    H217320   4.001   1.610   2.420
 5772TIP3   OH217321   5.788   1.554   0.323
 5772TIP3    H117322   5.808   1.512   0.240
 5772TIP3    H217323   5.859   1.525   0.382
 5773TIP3   OH217324   3.294   5.584   2.864
 5773TIP3    H117325   3.349   5.506   2.855
 5773TIP3    H217326   3.301   5.628   2.780
 5774TIP3   OH217327   0.620   3.120   2.492
 5774TIP3    H117328   0.612   3.115   2.587
 5774TIP3    H217329   0.530   3.130   2.461
 5775TIP3   OH217330   4.447   2.776   2.976
 5775TIP3    H117331   4.536   2.782   2.943
 5775TIP3    H217332   4.424   2.683   2.969
 5776TIP3   OH217333   2.723   5.210   3.451
 5776TIP3    H117334   2.697   5.192   3.361
 5776TIP3    H217335   2.677   5.291   3.473
 5777TIP3   OH217336   5.473   3.673   2.000
 5777TIP3    H117337   5.396   3.707   1.953
 5777TIP3    H217338   5.500   3.746   2.056
 5778TIP3   OH217339   5.258   1.164   4.801
 5778TIP3    H117340   5.347   1.129   4.803
 5778TIP3    H217341   5.240   1.187   4.892
 5779TIP3   OH217342   2.712   1.281   2.041
 5779TIP3    H117343   2.783   1.224   2.071
 5779TIP3    H217344   2.739   1.308   1.953
 5780TIP3   OH217345   5.875   1.209   3.016
 5780TIP3    H117346   5.909   1.292   2.983
 5780TIP3    H217347   5.922   1.195   3.098
 5781TIP3   OH217348   6.263   0.858   3.777
 5781TIP3    H117349   6.237   0.778   3.731
 5781TIP3    H217350   6.181   0.897   3.807
 5782TIP3   OH217351   3.757   3.455   3.038
 5782TIP3    H117352   3.759   3.428   2.946
 5782TIP3    H217353   3.829   3.519   3.045
 5783TIP3   OH217354   2.783   3.963   3.078
 5783TIP3    H117355   2.690   3.961   3.053
 5783TIP3    H217356   2.788   3.912   3.159
 5784TIP3   OH217357   0.919   4.773   0.873
 5784TIP3    H117358   0.909   4.795   0.781
 5784TIP3    H217359   0.882   4.848   0.920
 5785TIP3   OH217360   5.157   1.769   1.845
 5785TIP3    H117361   5.101   1.830   1.797
 5785TIP3    H217362   5.124   1.682   1.820
 5786TIP3   OH217363   1.188   0.124   0.694
 5786TIP3    H117364   1.193   0.151   0.602
 5786TIP3    H217365   1.233   0.039   0.696
 5787TIP3   OH217366   3.460   2.053   2.515
 5787TIP3    H117367   3.535   2.006   2.481
 5787TIP3    H217368   3.385   1.999   2.492
 5788TIP3   OH217369   5.609   0.105   4.621
 5788TIP3    H117370   5.674   0.174   4.604
 5788TIP3    H217371   5.525   0.146   4.599
 5789TIP3   OH217372   3.059   0.859   4.992
 5789TIP3    H117373   3.085   0.910   5.069
 5789TIP3    H217374   2.966   0.841   5.006
 5790TIP3   OH217375   5.289   2.120   2.972
 5790TIP3    H117376   5.274   2.131   2.878
 5790TIP3    H217377   5.292   2.209   3.007
 5791TIP3   OH217378   3.719   5.394   1.950
 5791TIP3    H117379   3.814   5.379   1.950
 5791TIP3    H217380   3.683   5.318   1.994
 5792TIP3   OH217381   2.735   0.457   0.482
 5792TIP3    H117382   2.749   0.410   0.399
 5792TIP3    H217383   2.816   0.446   0.530
 5793TIP3   OH217384   4.301   0.848   1.782
 5793TIP3    H117385   4.287   0.937   1.816
 5793TIP3    H217386   4.213   0.819   1.756
 5794TIP3   OH217387   5.510   1.862   2.625
 5794TIP3    H117388   5.601   1.873   2.655
 5794TIP3    H217389   5.500   1.768   2.613
 5795TIP3   OH217390   0.721   4.570   0.758
 5795TIP3    H117391   0.793   4.615   0.803
 5795TIP3    H217392   0.688   4.507   0.822
 5796TIP3   OH217393   5.674   3.474   4.304
 5796TIP3    H117394   5.760   3.507   4.328
 5796TIP3    H217395   5.617   3.550   4.310
 5797TIP3   OH217396   2.490   4.998   1.805
 5797TIP3    H117397   2.463   5.087   1.781
 5797TIP3    H217398   2.574   5.010   1.850
 5798TIP3   OH217399   2.700   0.395   2.531
 5798TIP3    H117400   2.721   0.456   2.461
 5798TIP3    H217401   2.687   0.450   2.609
 5799TIP3   OH217402   3.075   0.070   1.445
 5799TIP3    H117403   3.110   0.133   1.508
 5799TIP3    H217404   3.148   0.013   1.425
 5800TIP3   OH217405   1.299   5.337   3.943
 5800TIP3    H117406   1.318   5.243   3.931
 5800TIP3    H217407   1.251   5.341   4.026
 5801TIP3   OH217408   2.260   5.578   4.665
 5801TIP3    H117409   2.168   5.554   4.655
 5801TIP3    H217410   2.307   5.522   4.604
 5802TIP3   OH217411   3.639   1.683   3.846
 5802TIP3    H117412   3.616   1.766   3.888
 5802TIP3    H217413   3.583   1.618   3.887
 5803TIP3   OH217414   3.911   0.198   3.434
 5803TIP3    H117415   3.998   0.228   3.460
 5803TIP3    H217416   3.926   0.114   3.391
 5804TIP3   OH217417   5.969   3.899   1.459
 5804TIP3    H117418   5.965   3.804   1.470
 5804TIP3    H217419   6.057   3.916   1.424
 5805TIP3   OH217420   2.325   5.389   0.611
 5805TIP3    H117421   2.365   5.308   0.640
 5805TIP3    H217422   2.278   5.366   0.531
 5806TIP3   OH217423   5.716   2.021   4.318
 5806TIP3    H117424   5.791   1.964   4.335
 5806TIP3    H217425   5.751   2.109   4.327
 5807TIP3   OH217426   5.331   0.989   3.028
 5807TIP3    H117427   5.415   0.950   3.006
 5807TIP3    H217428   5.350   1.082   3.039
 5808TIP3   OH217429   2.262   4.740   1.110
 5808TIP3    H117430   2.266   4.709   1.020
 5808TIP3    H217431   2.170   4.763   1.123
 5809TIP3   OH217432   2.498   0.373   4.997
 5809TIP3    H117433   2.461   0.364   5.085
 5809TIP3    H217434   2.575   0.429   5.009
 5810TIP3   OH217435  -0.012   5.770   0.370
 5810TIP3    H117436   0.065   5.715   0.358
 5810TIP3    H217437   0.014   5.834   0.436
 5811TIP3   OH217438   3.284   0.593   0.650
 5811TIP3    H117439   3.234   0.672   0.629
 5811TIP3    H217440   3.301   0.552   0.565
 5812TIP3   OH217441   3.220   0.703   2.186
 5812TIP3    H117442   3.245   0.672   2.098
 5812TIP3    H217443   3.303   0.718   2.230
 5813TIP3   OH217444   0.232   1.622   4.576
 5813TIP3    H117445   0.213   1.548   4.519
 5813TIP3    H217446   0.194   1.697   4.530
 5814TIP3   OH217447   5.919   1.088   0.557
 5814TIP3    H117448   5.918   1.171   0.509
 5814TIP3    H217449   5.989   1.038   0.515
 5815TIP3   OH217450   0.091   4.205   4.903
 5815TIP3    H117451   0.024   4.150   4.943
 5815TIP3    H217452   0.144   4.236   4.977
 5816TIP3   OH217453   6.152   3.426   1.479
 5816TIP3    H117454   6.092   3.489   1.519
 5816TIP3    H217455   6.187   3.376   1.553
 5817TIP3   OH217456   0.568   5.808   4.753
 5817TIP3    H117457   0.500   5.790   4.689
 5817TIP3    H217458   0.648   5.820   4.700
 5818TIP3   OH217459   6.283   4.999   4.922
 5818TIP3    H117460   6.260   5.075   4.974
 5818TIP3    H217461   6.199   4.958   4.900
 5819TIP3   OH217462   3.722   4.267   2.768
 5819TIP3    H117463   3.666   4.190   2.778
 5819TIP3    H217464   3.666   4.331   2.725
 5820TIP3   OH217465   5.583   2.546   3.497
 5820TIP3    H117466   5.617   2.477   3.554
 5820TIP3    H217467   5.659   2.579   3.450
 5821TIP3   OH217468   3.862   4.450   3.284
 5821TIP3    H117469   3.905   4.373   3.248
 5821TIP3    H217470   3.895   4.523   3.231
 5822TIP3   OH217471   2.552   2.861   0.205
 5822TIP3    H117472   2.604   2.919   0.260
 5822TIP3    H217473   2.614   2.829   0.140
 5823TIP3   OH217474   5.768   0.561   2.009
 5823TIP3    H117475   5.761   0.473   2.046
 5823TIP3    H217476   5.776   0.547   1.915
 5824TIP3   OH217477   3.870   0.894   1.376
 5824TIP3    H117478   3.874   0.920   1.284
 5824TIP3    H217479   3.959   0.865   1.396
 5825TIP3   OH217480   2.682   5.745   1.564
 5825TIP3    H117481   2.737   5.781   1.633
 5825TIP3    H217482   2.669   5.654   1.589
 5826TIP3   OH217483   2.558   5.120   1.234
 5826TIP3    H117484   2.614   5.130   1.157
 5826TIP3    H217485   2.493   5.190   1.226
 5827TIP3   OH217486   0.153   0.364   2.840
 5827TIP3    H117487   0.232   0.358   2.894
 5827TIP3    H217488   0.177   0.425   2.770
 5828TIP3   OH217489   1.322   5.685   2.937
 5828TIP3    H117490   1.253   5.746   2.961
 5828TIP3    H217491   1.376   5.677   3.017
 5829TIP3   OH217492   2.413   1.976   1.889
 5829TIP3    H117493   2.458   2.048   1.933
 5829TIP3    H217494   2.327   2.010   1.869
 5830TIP3   OH217495   3.640   2.714   3.680
 5830TIP3    H117496   3.713   2.669   3.724
 5830TIP3    H217497   3.681   2.754   3.603
 5831TIP3   OH217498   6.061   3.067   2.110
 5831TIP3    H117499   6.037   2.977   2.088
 5831TIP3    H217500   6.155   3.072   2.095
 5832TIP3   OH217501   3.263   5.409   0.498
 5832TIP3    H117502   3.319   5.372   0.430
 5832TIP3    H217503   3.267   5.503   0.484
 5833TIP3   OH217504   0.186   5.024   1.788
 5833TIP3    H117505   0.214   4.954   1.847
 5833TIP3    H217506   0.245   5.016   1.713
 5834TIP3   OH217507   3.710   3.132   4.885
 5834TIP3    H117508   3.699   3.110   4.978
 5834TIP3    H217509   3.793   3.180   4.882
 5835TIP3   OH217510   1.888   5.477   4.147
 5835TIP3    H117511   1.966   5.490   4.202
 5835TIP3    H217512   1.920   5.430   4.070
 5836TIP3   OH217513   5.022   5.400   3.125
 5836TIP3    H117514   4.946   5.432   3.173
 5836TIP3    H217515   5.064   5.479   3.090
 5837TIP3   OH217516   1.305   2.832   0.871
 5837TIP3    H117517   1.222   2.845   0.824
 5837TIP3    H217518   1.309   2.905   0.933
 5838TIP3   OH217519   1.232   1.324   3.357
 5838TIP3    H117520   1.165   1.364   3.413
 5838TIP3    H217521   1.307   1.382   3.365
 5839TIP3   OH217522   1.466   4.627   2.180
 5839TIP3    H117523   1.537   4.660   2.125
 5839TIP3    H217524   1.387   4.668   2.145
 5840TIP3   OH217525   1.678   3.654   4.647
 5840TIP3    H117526   1.641   3.599   4.717
 5840TIP3    H217527   1.772   3.644   4.657
 5841TIP3   OH217528   0.328   5.690   1.246
 5841TIP3    H117529   0.361   5.774   1.213
 5841TIP3    H217530   0.236   5.707   1.267
 5842TIP3   OH217531   1.305   0.317   2.759
 5842TIP3    H117532   1.318   0.373   2.682
 5842TIP3    H217533   1.349   0.363   2.830
 5843TIP3   OH217534   3.489   0.805   4.883
 5843TIP3    H117535   3.531   0.764   4.807
 5843TIP3    H217536   3.489   0.898   4.863
 5844TIP3   OH217537   5.401   0.983   3.812
 5844TIP3    H117538   5.477   0.988   3.870
 5844TIP3    H217539   5.358   0.901   3.836
 5845TIP3   OH217540   4.295   0.386   0.545
 5845TIP3    H117541   4.277   0.336   0.625
 5845TIP3    H217542   4.291   0.477   0.572
 5846TIP3   OH217543   1.256   2.888   0.315
 5846TIP3    H117544   1.350   2.877   0.321
 5846TIP3    H217545   1.233   2.850   0.230
 5847TIP3   OH217546   2.305   2.265   1.971
 5847TIP3    H117547   2.251   2.290   2.046
 5847TIP3    H217548   2.328   2.347   1.929
 5848TIP3   OH217549   0.428  -0.005   3.836
 5848TIP3    H117550   0.473  -0.045   3.761
 5848TIP3    H217551   0.458   0.086   3.836
 5849TIP3   OH217552   0.371   3.837   4.113
 5849TIP3    H117553   0.369   3.892   4.191
 5849TIP3    H217554   0.317   3.761   4.137
 5850TIP3   OH217555   6.013   4.527   2.160
 5850TIP3    H117556   5.970   4.608   2.131
 5850TIP3    H217557   5.967   4.504   2.241
 5851TIP3   OH217558   6.230   2.930   0.061
 5851TIP3    H117559   6.319   2.947   0.091
 5851TIP3    H217560   6.228   2.837   0.040
 5852TIP3   OH217561   1.125   0.391   0.786
 5852TIP3    H117562   1.209   0.432   0.805
 5852TIP3    H217563   1.084   0.449   0.722
 5853TIP3   OH217564   1.703   4.753   1.647
 5853TIP3    H117565   1.638   4.691   1.681
 5853TIP3    H217566   1.787   4.710   1.662
 5854TIP3   OH217567   5.935   5.622   2.185
 5854TIP3    H117568   5.953   5.696   2.242
 5854TIP3    H217569   6.019   5.604   2.142
 5855TIP3   OH217570   3.466   4.581   3.175
 5855TIP3    H117571   3.498   4.668   3.197
 5855TIP3    H217572   3.394   4.565   3.236
 5856TIP3   OH217573   2.234   4.687   4.579
 5856TIP3    H117574   2.145   4.720   4.589
 5856TIP3    H217575   2.271   4.691   4.667
 5857TIP3   OH217576   5.403   1.747   3.261
 5857TIP3    H117577   5.410   1.664   3.213
 5857TIP3    H217578   5.309   1.762   3.269
 5858TIP3   OH217579   2.166   1.054   1.130
 5858TIP3    H117580   2.119   1.060   1.047
 5858TIP3    H217581   2.136   1.129   1.180
 5859TIP3   OH217582   1.743   1.967   0.972
 5859TIP3    H117583   1.730   2.061   0.963
 5859TIP3    H217584   1.655   1.932   0.985
 5860TIP3   OH217585   2.399   3.532   1.769
 5860TIP3    H117586   2.491   3.507   1.766
 5860TIP3    H217587   2.353   3.463   1.722
 5861TIP3   OH217588   3.561   5.765   2.249
 5861TIP3    H117589   3.584   5.691   2.305
 5861TIP3    H217590   3.562   5.841   2.307
 5862TIP3   OH217591   5.348   3.561   1.434
 5862TIP3    H117592   5.366   3.654   1.424
 5862TIP3    H217593   5.275   3.556   1.496
 5863TIP3   OH217594   1.422   5.849   2.258
 5863TIP3    H117595   1.353   5.898   2.302
 5863TIP3    H217596   1.496   5.910   2.254
 5864TIP3   OH217597   2.369   1.786   0.369
 5864TIP3    H117598   2.435   1.735   0.416
 5864TIP3    H217599   2.378   1.759   0.278
 5865TIP3   OH217600   2.600   1.414   3.841
 5865TIP3    H117601   2.605   1.444   3.751
 5865TIP3    H217602   2.570   1.323   3.834
 5866TIP3   OH217603   0.666   5.693   1.044
 5866TIP3    H117604   0.655   5.788   1.048
 5866TIP3    H217605   0.585   5.662   1.004
 5867TIP3   OH217606   2.761   3.444   2.675
 5867TIP3    H117607   2.845   3.430   2.630
 5867TIP3    H217608   2.745   3.362   2.721
 5868TIP3   OH217609   2.318   1.193   0.546
 5868TIP3    H117610   2.240   1.180   0.492
 5868TIP3    H217611   2.389   1.154   0.495
 5869TIP3   OH217612   0.520   0.917   1.951
 5869TIP3    H117613   0.561   0.996   1.916
 5869TIP3    H217614   0.426   0.935   1.948
 5870TIP3   OH217615   3.180   5.549   1.716
 5870TIP3    H117616   3.268   5.524   1.688
 5870TIP3    H217617   3.195   5.609   1.789
 5871TIP3   OH217618   4.550   5.808   2.878
 5871TIP3    H117619   4.565   5.738   2.942
 5871TIP3    H217620   4.638   5.835   2.851
 5872TIP3   OH217621   2.095   0.696   1.542
 5872TIP3    H117622   2.019   0.639   1.533
 5872TIP3    H217623   2.092   0.754   1.466
 5873TIP3   OH217624   6.136   3.327   5.132
 5873TIP3    H117625   6.046   3.295   5.145
 5873TIP3    H217626   6.143   3.404   5.188
 5874TIP3   OH217627   3.954   0.597   5.005
 5874TIP3    H117628   3.908   0.678   4.981
 5874TIP3    H217629   4.019   0.586   4.936
 5875TIP3   OH217630   2.224   2.598   3.318
 5875TIP3    H117631   2.205   2.536   3.388
 5875TIP3    H217632   2.195   2.555   3.238
 5876TIP3   OH217633   2.320   1.287   3.132
 5876TIP3    H117634   2.259   1.218   3.158
 5876TIP3    H217635   2.296   1.307   3.042
 5877TIP3   OH217636   2.688   0.119   4.599
 5877TIP3    H117637   2.766   0.068   4.621
 5877TIP3    H217638   2.647   0.137   4.684
 5878TIP3   OH217639   1.171   1.861   0.241
 5878TIP3    H117640   1.206   1.902   0.320
 5878TIP3    H217641   1.199   1.770   0.247
 5879TIP3   OH217642   2.489   4.632   3.703
 5879TIP3    H117643   2.441   4.715   3.710
 5879TIP3    H217644   2.531   4.622   3.788
 5880TIP3   OH217645   2.132   0.586   4.681
 5880TIP3    H117646   2.095   0.511   4.635
 5880TIP3    H217647   2.210   0.552   4.725
 5881TIP3   OH217648   3.954   4.238   2.897
 5881TIP3    H117649   3.956   4.143   2.912
 5881TIP3    H217650   3.868   4.253   2.858
 5882TIP3   OH217651   2.596   1.909   1.672
 5882TIP3    H117652   2.605   1.814   1.681
 5882TIP3    H217653   2.527   1.933   1.734
 5883TIP3   OH217654   0.897   4.975   1.787
 5883TIP3    H117655   0.923   4.931   1.868
 5883TIP3    H217656   0.830   5.037   1.815
 5884TIP3   OH217657   5.963   5.113   3.236
 5884TIP3    H117658   5.897   5.149   3.297
 5884TIP3    H217659   5.962   5.174   3.162
 5885TIP3   OH217660   3.130   2.210   1.982
 5885TIP3    H117661   3.192   2.166   2.041
 5885TIP3    H217662   3.045   2.173   2.006
 5886TIP3   OH217663   0.981   1.486   4.570
 5886TIP3    H117664   1.063   1.444   4.592
 5886TIP3    H217665   0.989   1.576   4.603
 5887TIP3   OH217666   3.819   3.878   0.924
 5887TIP3    H117667   3.758   3.951   0.915
 5887TIP3    H217668   3.875   3.903   0.998
 5888TIP3   OH217669   2.449   4.786   4.159
 5888TIP3    H117670   2.431   4.729   4.233
 5888TIP3    H217671   2.363   4.809   4.124
 5889TIP3   OH217672   2.098   3.854   4.305
 5889TIP3    H117673   2.014   3.839   4.261
 5889TIP3    H217674   2.131   3.766   4.325
 5890TIP3   OH217675   3.835   2.258   2.800
 5890TIP3    H117676   3.774   2.192   2.834
 5890TIP3    H217677   3.919   2.236   2.840
 5891TIP3   OH217678   1.614   3.107   0.969
 5891TIP3    H117679   1.678   3.066   1.028
 5891TIP3    H217680   1.530   3.071   0.996
 5892TIP3   OH217681   4.393   4.770   1.699
 5892TIP3    H117682   4.413   4.770   1.606
 5892TIP3    H217683   4.440   4.846   1.734
 5893TIP3   OH217684   0.263   4.100   5.136
 5893TIP3    H117685   0.284   4.167   5.200
 5893TIP3    H217686   0.220   4.031   5.186
 5894TIP3   OH217687   3.805   5.297   2.837
 5894TIP3    H117688   3.867   5.369   2.852
 5894TIP3    H217689   3.843   5.248   2.763
 5895TIP3   OH217690   5.938   5.667   3.399
 5895TIP3    H117691   5.883   5.671   3.321
 5895TIP3    H217692   6.019   5.710   3.373
 5896TIP3   OH217693   5.766   2.705   2.623
 5896TIP3    H117694   5.802   2.787   2.591
 5896TIP3    H217695   5.676   2.704   2.592
 5897TIP3   OH217696   2.696   5.444   2.298
 5897TIP3    H117697   2.759   5.516   2.287
 5897TIP3    H217698   2.667   5.425   2.209
 5898TIP3   OH217699   5.394   5.979   4.863
 5898TIP3    H117700   5.321   5.922   4.887
 5898TIP3    H217701   5.454   5.921   4.815
 5899TIP3   OH217702   0.398   0.868   4.877
 5899TIP3    H117703   0.488   0.874   4.844
 5899TIP3    H217704   0.403   0.798   4.943
 5900TIP3   OH217705   5.106   4.986   2.100
 5900TIP3    H117706   5.174   5.044   2.066
 5900TIP3    H217707   5.136   4.898   2.079
 5901TIP3   OH217708   0.750   0.773   4.633
 5901TIP3    H117709   0.821   0.749   4.573
 5901TIP3    H217710   0.677   0.718   4.606
 5902TIP3   OH217711   1.842   4.075   1.578
 5902TIP3    H117712   1.851   3.994   1.628
 5902TIP3    H217713   1.907   4.068   1.508
 5903TIP3   OH217714   0.436   1.788   4.346
 5903TIP3    H117715   0.346   1.808   4.374
 5903TIP3    H217716   0.474   1.873   4.324
 5904TIP3   OH217717   4.852   0.481   1.778
 5904TIP3    H117718   4.890   0.421   1.715
 5904TIP3    H217719   4.774   0.436   1.810
 5905TIP3   OH217720   4.441   4.172   4.193
 5905TIP3    H117721   4.527   4.167   4.234
 5905TIP3    H217722   4.454   4.141   4.104
 5906TIP3   OH217723   5.027   1.032   3.824
 5906TIP3    H117724   5.085   1.007   3.896
 5906TIP3    H217725   4.977   0.953   3.804
 5907TIP3   OH217726   2.241   4.218   0.832
 5907TIP3    H117727   2.160   4.227   0.883
 5907TIP3    H217728   2.308   4.199   0.898
 5908TIP3   OH217729   4.482   2.090   0.218
 5908TIP3    H117730   4.556   2.047   0.261
 5908TIP3    H217731   4.452   2.155   0.281
 5909TIP3   OH217732   0.750   3.836   2.093
 5909TIP3    H117733   0.799   3.871   2.168
 5909TIP3    H217734   0.678   3.898   2.081
 5910TIP3   OH217735   2.344   5.219   1.734
 5910TIP3    H117736   2.319   5.267   1.812
 5910TIP3    H217737   2.313   5.273   1.661
 5911TIP3   OH217738   0.720   2.256   2.186
 5911TIP3    H117739   0.629   2.226   2.184
 5911TIP3    H217740   0.729   2.299   2.272
 5912TIP3   OH217741   0.788   2.452   3.127
 5912TIP3    H117742   0.789   2.377   3.066
 5912TIP3    H217743   0.714   2.435   3.185
 5913TIP3   OH217744   0.058   5.462   2.069
 5913TIP3    H117745   0.111   5.384   2.086
 5913TIP3    H217746   0.110   5.535   2.102
 5914TIP3   OH217747   0.870   2.528   0.096
 5914TIP3    H117748   0.878   2.478   0.177
 5914TIP3    H217749   0.824   2.469   0.036
 5915TIP3   OH217750   4.120   1.637   5.205
 5915TIP3    H117751   4.074   1.666   5.126
 5915TIP3    H217752   4.053   1.641   5.274
 5916TIP3   OH217753   0.810   3.484   0.527
 5916TIP3    H117754   0.826   3.567   0.480
 5916TIP3    H217755   0.803   3.510   0.619
 5917TIP3   OH217756   5.742   1.079   4.226
 5917TIP3    H117757   5.767   1.144   4.292
 5917TIP3    H217758   5.722   1.000   4.276
 5918TIP3   OH217759   6.208   4.716   3.768
 5918TIP3    H117760   6.245   4.650   3.827
 5918TIP3    H217761   6.277   4.782   3.760
 5919TIP3   OH217762   3.381   4.034   1.934
 5919TIP3    H117763   3.452   4.095   1.955
 5919TIP3    H217764   3.328   4.030   2.014
 5920TIP3   OH217765   2.346   5.228   4.236
 5920TIP3    H117766   2.289   5.161   4.275
 5920TIP3    H217767   2.326   5.224   4.142
 5921TIP3   OH217768   1.685   1.940   1.690
 5921TIP3    H117769   1.673   1.848   1.665
 5921TIP3    H217770   1.780   1.949   1.699
 5922TIP3   OH217771   3.742   4.835   3.115
 5922TIP3    H117772   3.693   4.807   3.038
 5922TIP3    H217773   3.787   4.915   3.087
 5923TIP3   OH217774   3.972   2.784   2.828
 5923TIP3    H117775   3.957   2.713   2.890
 5923TIP3    H217776   3.892   2.788   2.777
 5924TIP3   OH217777   0.258   2.254   2.358
 5924TIP3    H117778   0.284   2.250   2.450
 5924TIP3    H217779   0.163   2.265   2.361
 5925TIP3   OH217780   2.650   4.467   1.233
 5925TIP3    H117781   2.683   4.557   1.232
 5925TIP3    H217782   2.673   4.435   1.321
 5926TIP3   OH217783   4.250   3.568   1.912
 5926TIP3    H117784   4.265   3.605   1.999
 5926TIP3    H217785   4.310   3.616   1.855
 5927TIP3   OH217786   4.543   2.441   4.332
 5927TIP3    H117787   4.527   2.348   4.345
 5927TIP3    H217788   4.604   2.465   4.403
 5928TIP3   OH217789   4.310   2.446   2.600
 5928TIP3    H117790   4.255   2.499   2.657
 5928TIP3    H217791   4.252   2.418   2.530
 5929TIP3   OH217792   3.848   5.605   2.629
 5929TIP3    H117793   3.765   5.639   2.664
 5929TIP3    H217794   3.892   5.568   2.705
 5930TIP3   OH217795   2.969   5.919   3.297
 5930TIP3    H117796   2.900   5.878   3.349
 5930TIP3    H217797   3.050   5.898   3.344
 5931TIP3   OH217798   5.833   0.123   2.672
 5931TIP3    H117799   5.766   0.162   2.727
 5931TIP3    H217800   5.883   0.197   2.638
 5932TIP3   OH217801   1.732   0.223   3.152
 5932TIP3    H117802   1.727   0.128   3.142
 5932TIP3    H217803   1.740   0.236   3.247
 5933TIP3   OH217804   5.797   6.004   2.506
 5933TIP3    H117805   5.729   5.941   2.529
 5933TIP3    H217806   5.823   5.981   2.417
 5934TIP3   OH217807   3.307   1.449   1.108
 5934TIP3    H117808   3.276   1.523   1.159
 5934TIP3    H217809   3.228   1.400   1.086
 5935TIP3   OH217810   3.836   2.081   3.746
 5935TIP3    H117811   3.743   2.075   3.726
 5935TIP3    H217812   3.873   2.127   3.670
 5936TIP3   OH217813   0.297   4.531   4.527
 5936TIP3    H117814   0.234   4.542   4.598
 5936TIP3    H217815   0.364   4.596   4.543
 5937TIP3   OH217816   5.710   1.041   2.385
 5937TIP3    H117817   5.773   1.052   2.456
 5937TIP3    H217818   5.691   0.947   2.383
 5938TIP3   OH217819   3.318   2.403   1.923
 5938TIP3    H117820   3.259   2.341   1.965
 5938TIP3    H217821   3.375   2.434   1.993
 5939TIP3   OH217822   4.028   0.393   0.461
 5939TIP3    H117823   4.116   0.414   0.494
 5939TIP3    H217824   3.971   0.404   0.537
 5940TIP3   OH217825   0.042   3.705   1.892
 5940TIP3    H117826  -0.029   3.762   1.863
 5940TIP3    H217827   0.080   3.751   1.967
 5941TIP3   OH217828   3.939   3.394   2.508
 5941TIP3    H117829   3.900   3.338   2.575
 5941TIP3    H217830   3.865   3.447   2.475
 5942TIP3   OH217831   3.083   1.202   3.546
 5942TIP3    H117832   3.075   1.264   3.472
 5942TIP3    H217833   3.036   1.245   3.617
 5943TIP3   OH217834   3.794   0.278   1.807
 5943TIP3    H117835   3.732   0.234   1.866
 5943TIP3    H217836   3.748   0.357   1.780
 5944TIP3   OH217837   0.470   5.781   2.004
 5944TIP3    H117838   0.436   5.756   1.918
 5944TIP3    H217839   0.439   5.870   2.018
 5945TIP3   OH217840   5.334   3.327   1.597
 5945TIP3    H117841   5.376   3.388   1.657
 5945TIP3    H217842   5.403   3.302   1.536
 5946TIP3   OH217843   2.020   0.226   3.796
 5946TIP3    H117844   2.075   0.293   3.837
 5946TIP3    H217845   2.066   0.202   3.716
 5947TIP3   OH217846   3.433   4.928   4.333
 5947TIP3    H117847   3.451   4.938   4.239
 5947TIP3    H217848   3.359   4.986   4.349
 5948TIP3   OH217849   2.497   3.618   3.398
 5948TIP3    H117850   2.512   3.688   3.334
 5948TIP3    H217851   2.404   3.624   3.420
 5949TIP3   OH217852   6.263   4.043   3.355
 5949TIP3    H117853   6.243   3.998   3.437
 5949TIP3    H217854   6.178   4.073   3.322
 5950TIP3   OH217855   2.574   4.661   3.954
 5950TIP3    H117856   2.643   4.611   3.998
 5950TIP3    H217857   2.523   4.700   4.025
 5951TIP3   OH217858   2.895   4.819   4.962
 5951TIP3    H117859   2.928   4.908   4.977
 5951TIP3    H217860   2.931   4.794   4.878
 5952TIP3   OH217861   4.559   0.792   2.819
 5952TIP3    H117862   4.595   0.764   2.903
 5952TIP3    H217863   4.616   0.864   2.791
 5953TIP3   OH217864   1.836   1.404   2.920
 5953TIP3    H117865   1.794   1.489   2.916
 5953TIP3    H217866   1.879   1.393   2.835
 5954TIP3   OH217867   4.793   1.959   2.435
 5954TIP3    H117868   4.863   1.936   2.373
 5954TIP3    H217869   4.835   2.021   2.496
 5955TIP3   OH217870   0.008   4.683   4.789
 5955TIP3    H117871   0.060   4.607   4.763
 5955TIP3    H217872   0.042   4.755   4.736
 5956TIP3   OH217873   4.034   4.647   0.118
 5956TIP3    H117874   4.079   4.571   0.155
 5956TIP3    H217875   3.985   4.613   0.044
 5957TIP3   OH217876   3.148   2.226   2.751
 5957TIP3    H117877   3.087   2.288   2.793
 5957TIP3    H217878   3.213   2.282   2.708
 5958TIP3   OH217879   5.585   2.545   4.230
 5958TIP3    H117880   5.568   2.487   4.156
 5958TIP3    H217881   5.623   2.624   4.191
 5959TIP3   OH217882   4.858   4.945   2.950
 5959TIP3    H117883   4.860   4.914   2.860
 5959TIP3    H217884   4.917   5.021   2.951
 5960TIP3   OH217885   5.270   2.733   4.699
 5960TIP3    H117886   5.298   2.796   4.633
 5960TIP3    H217887   5.338   2.665   4.698
 5961TIP3   OH217888   0.884   0.341   2.612
 5961TIP3    H117889   0.875   0.433   2.639
 5961TIP3    H217890   0.975   0.333   2.584
 5962TIP3   OH217891   4.152   4.141   4.593
 5962TIP3    H117892   4.202   4.068   4.628
 5962TIP3    H217893   4.103   4.104   4.520
 5963TIP3   OH217894   4.999   1.339   1.422
 5963TIP3    H117895   5.078   1.393   1.424
 5963TIP3    H217896   4.980   1.322   1.514
 5964TIP3   OH217897   3.357   2.857   5.131
 5964TIP3    H117898   3.359   2.909   5.211
 5964TIP3    H217899   3.295   2.786   5.150
 5965TIP3   OH217900   4.396   3.808   0.747
 5965TIP3    H117901   4.447   3.817   0.666
 5965TIP3    H217902   4.340   3.732   0.732
 5966TIP3   OH217903   4.597   5.981   4.739
 5966TIP3    H117904   4.676   5.936   4.768
 5966TIP3    H217905   4.567   5.929   4.664
 5967TIP3   OH217906   2.015   4.209   4.394
 5967TIP3    H117907   2.011   4.147   4.468
 5967TIP3    H217908   2.099   4.253   4.406
 5968TIP3   OH217909   1.864   0.284   4.081
 5968TIP3    H117910   1.928   0.273   4.152
 5968TIP3    H217911   1.875   0.206   4.027
 5969TIP3   OH217912   4.183   4.296   4.233
 5969TIP3    H117913   4.251   4.229   4.230
 5969TIP3    H217914   4.192   4.343   4.150
 5970TIP3   OH217915   0.467   0.420   0.256
 5970TIP3    H117916   0.407   0.495   0.261
 5970TIP3    H217917   0.421   0.350   0.302
 5971TIP3   OH217918   2.726   3.118   4.430
 5971TIP3    H117919   2.709   3.211   4.421
 5971TIP3    H217920   2.775   3.111   4.512
 5972TIP3   OH217921   3.762   2.851   1.493
 5972TIP3    H117922   3.728   2.938   1.510
 5972TIP3    H217923   3.795   2.821   1.577
 5973TIP3   OH217924   4.926   2.176   4.945
 5973TIP3    H117925   5.019   2.156   4.931
 5973TIP3    H217926   4.885   2.090   4.957
 5974TIP3   OH217927   1.956   4.292   3.594
 5974TIP3    H117928   1.894   4.226   3.562
 5974TIP3    H217929   1.964   4.274   3.688
 5975TIP3   OH217930   5.618   5.597   0.557
 5975TIP3    H117931   5.707   5.574   0.583
 5975TIP3    H217932   5.564   5.527   0.592
 5976TIP3   OH217933   2.791   4.035   1.578
 5976TIP3    H117934   2.755   4.104   1.633
 5976TIP3    H217935   2.750   4.049   1.492
 5977TIP3   OH217936   1.016   2.975   4.705
 5977TIP3    H117937   1.040   2.886   4.728
 5977TIP3    H217938   0.956   3.002   4.775
 5978TIP3   OH217939   1.941   0.571   2.261
 5978TIP3    H117940   1.967   0.517   2.187
 5978TIP3    H217941   1.849   0.593   2.244
 5979TIP3   OH217942   0.345   3.506   2.137
 5979TIP3    H117943   0.425   3.469   2.175
 5979TIP3    H217944   0.354   3.600   2.148
 5980TIP3   OH217945   2.209   0.848   4.169
 5980TIP3    H117946   2.209   0.823   4.077
 5980TIP3    H217947   2.119   0.833   4.198
 5981TIP3   OH217948   3.086   1.737   4.628
 5981TIP3    H117949   3.129   1.703   4.707
 5981TIP3    H217950   3.031   1.809   4.659
 5982TIP3   OH217951   6.225   0.210   4.204
 5982TIP3    H117952   6.194   0.285   4.254
 5982TIP3    H217953   6.153   0.189   4.144
 5983TIP3   OH217954   5.982   5.752   5.069
 5983TIP3    H117955   5.985   5.828   5.011
 5983TIP3    H217956   5.890   5.725   5.070
 5984TIP3   OH217957   4.848   5.140   0.582
 5984TIP3    H117958   4.758   5.123   0.610
 5984TIP3    H217959   4.840   5.164   0.490
 5985TIP3   OH217960   2.150   3.097   3.606
 5985TIP3    H117961   2.058   3.122   3.605
 5985TIP3    H217962   2.154   3.014   3.559
 5986TIP3   OH217963   5.330   5.184   2.230
 5986TIP3    H117964   5.391   5.112   2.214
 5986TIP3    H217965   5.383   5.253   2.269
 5987TIP3   OH217966   0.073   2.376   3.654
 5987TIP3    H117967   0.003   2.422   3.701
 5987TIP3    H217968   0.028   2.303   3.610
 5988TIP3   OH217969   5.258   3.958   0.835
 5988TIP3    H117970   5.227   3.869   0.819
 5988TIP3    H217971   5.186   4.014   0.807
 5989TIP3   OH217972   5.375   0.257   1.952
 5989TIP3    H117973   5.421   0.327   1.906
 5989TIP3    H217974   5.432   0.181   1.943
 5990TIP3   OH217975   1.832   5.199   3.649
 5990TIP3    H117976   1.827   5.109   3.617
 5990TIP3    H217977   1.814   5.192   3.743
 5991TIP3   OH217978   4.225   0.530   1.890
 5991TIP3    H117979   4.187   0.442   1.884
 5991TIP3    H217980   4.237   0.545   1.984
 5992TIP3   OH217981   1.334   3.583   2.082
 5992TIP3    H117982   1.396   3.536   2.026
 5992TIP3    H217983   1.267   3.615   2.022
 5993TIP3   OH217984   5.371   1.835   5.206
 5993TIP3    H117985   5.341   1.771   5.142
 5993TIP3    H217986   5.407   1.907   5.154
 5994TIP3   OH217987   3.044   2.169   3.893
 5994TIP3    H117988   2.962   2.128   3.865
 5994TIP3    H217989   3.041   2.257   3.855
 5995TIP3   OH217990   1.732   0.338   0.367
 5995TIP3    H117991   1.724   0.423   0.410
 5995TIP3    H217992   1.780   0.283   0.429
 5996TIP3   OH217993   4.014   5.284   0.639
 5996TIP3    H117994   3.936   5.317   0.683
 5996TIP3    H217995   3.988   5.199   0.604
 5997TIP3   OH217996   5.619   3.708   1.103
 5997TIP3    H117997   5.613   3.697   1.008
 5997TIP3    H217998   5.713   3.697   1.122
 5998TIP3   OH217999   5.275   0.533   0.654
 5998TIP3    H118000   5.284   0.591   0.579
 5998TIP3    H218001   5.190   0.555   0.692
 5999TIP3   OH218002   2.761   1.718   4.561
 5999TIP3    H118003   2.666   1.714   4.550
 5999TIP3    H218004   2.788   1.797   4.513
 6000TIP3   OH218005   4.419   1.790   0.775
 6000TIP3    H118006   4.389   1.775   0.685
 6000TIP3    H218007   4.502   1.743   0.782
 6001TIP3   OH218008   3.736   1.107   1.989
 6001TIP3    H118009   3.718   1.201   1.997
 6001TIP3    H218010   3.741   1.092   1.895
 6002TIP3   OH218011   6.278   4.994   0.356
 6002TIP3    H118012   6.192   4.953   0.361
 6002TIP3    H218013   6.277   5.044   0.275
 6003TIP3   OH218014   3.465   3.904   2.487
 6003TIP3    H118015   3.540   3.848   2.508
 6003TIP3    H218016   3.503   3.980   2.443
 6004TIP3   OH218017   0.060   2.624   0.727
 6004TIP3    H118018   0.009   2.576   0.792
 6004TIP3    H218019   0.034   2.585   0.643
 6005TIP3   OH218020   4.618   1.596   0.184
 6005TIP3    H118021   4.641   1.688   0.196
 6005TIP3    H218022   4.700   1.549   0.199
 6006TIP3   OH218023   5.629   2.296   0.225
 6006TIP3    H118024   5.652   2.386   0.251
 6006TIP3    H218025   5.697   2.272   0.162
 6007TIP3   OH218026   2.528   3.215   2.032
 6007TIP3    H118027   2.461   3.284   2.025
 6007TIP3    H218028   2.478   3.135   2.049
 6008TIP3   OH218029   0.868   2.543   1.434
 6008TIP3    H118030   0.800   2.493   1.389
 6008TIP3    H218031   0.821   2.591   1.503
 6009TIP3   OH218032   4.190   4.430   0.191
 6009TIP3    H118033   4.215   4.403   0.103
 6009TIP3    H218034   4.108   4.382   0.207
 6010TIP3   OH218035   5.974   1.533   2.668
 6010TIP3    H118036   5.916   1.462   2.641
 6010TIP3    H218037   5.959   1.601   2.602
 6011TIP3   OH218038   3.266   0.632   1.929
 6011TIP3    H118039   3.207   0.597   1.862
 6011TIP3    H218040   3.262   0.727   1.918
 6012TIP3   OH218041   1.194   2.467   2.779
 6012TIP3    H118042   1.134   2.527   2.824
 6012TIP3    H218043   1.280   2.490   2.814
 6013TIP3   OH218044   2.057   3.623   2.159
 6013TIP3    H118045   2.130   3.642   2.218
 6013TIP3    H218046   1.978   3.642   2.212
 6014TIP3   OH218047   1.850   2.594   4.557
 6014TIP3    H118048   1.777   2.539   4.528
 6014TIP3    H218049   1.916   2.584   4.488
 6015TIP3   OH218050   1.477   5.975   1.825
 6015TIP3    H118051   1.462   5.881   1.841
 6015TIP3    H218052   1.398   6.018   1.858
 6016TIP3   OH218053   5.323   0.601   2.299
 6016TIP3    H118054   5.342   0.612   2.392
 6016TIP3    H218055   5.406   0.620   2.256
 6017TIP3   OH218056   3.500   5.147   4.897
 6017TIP3    H118057   3.500   5.149   4.992
 6017TIP3    H218058   3.419   5.193   4.872
 6018TIP3   OH218059   0.113   5.828   1.328
 6018TIP3    H118060   0.059   5.792   1.258
 6018TIP3    H218061   0.157   5.903   1.288
 6019TIP3   OH218062   3.875   0.990   4.262
 6019TIP3    H118063   3.832   0.965   4.180
 6019TIP3    H218064   3.935   0.919   4.281
 6020TIP3   OH218065   1.800   2.327   4.760
 6020TIP3    H118066   1.791   2.271   4.837
 6020TIP3    H218067   1.855   2.277   4.700
 6021TIP3   OH218068   2.652   5.951   4.002
 6021TIP3    H118069   2.646   5.938   3.907
 6021TIP3    H218070   2.678   5.866   4.036
 6022TIP3   OH218071   5.164   4.347   4.989
 6022TIP3    H118072   5.238   4.407   4.996
 6022TIP3    H218073   5.165   4.297   5.071
 6023TIP3   OH218074   3.119   4.757   1.501
 6023TIP3    H118075   3.037   4.715   1.474
 6023TIP3    H218076   3.141   4.715   1.584
 6024TIP3   OH218077   1.119   3.094   0.454
 6024TIP3    H118078   1.035   3.073   0.412
 6024TIP3    H218079   1.177   3.022   0.429
 6025TIP3   OH218080   0.285   2.912   3.478
 6025TIP3    H118081   0.377   2.935   3.490
 6025TIP3    H218082   0.256   2.965   3.403
 6026TIP3   OH218083   0.649   0.416   0.945
 6026TIP3    H118084   0.646   0.355   1.019
 6026TIP3    H218085   0.718   0.478   0.969
 6027TIP3   OH218086   2.249   3.354   3.510
 6027TIP3    H118087   2.221   3.276   3.557
 6027TIP3    H218088   2.230   3.427   3.568
 6028TIP3   OH218089   6.339   5.229   1.781
 6028TIP3    H118090   6.321   5.205   1.872
 6028TIP3    H218091   6.399   5.162   1.750
 6029TIP3   OH218092   0.400   3.961   0.092
 6029TIP3    H118093   0.432   4.005   0.014
 6029TIP3    H218094   0.354   3.884   0.059
 6030TIP3   OH218095   0.885   3.030   4.937
 6030TIP3    H118096   0.880   2.943   4.977
 6030TIP3    H218097   0.880   3.090   5.011
 6031TIP3   OH218098   4.332   1.359   0.362
 6031TIP3    H118099   4.242   1.360   0.328
 6031TIP3    H218100   4.338   1.436   0.418
 6032TIP3   OH218101   3.768   1.185   0.611
 6032TIP3    H118102   3.740   1.253   0.673
 6032TIP3    H218103   3.746   1.102   0.654
 6033TIP3   OH218104   3.429   0.606   3.919
 6033TIP3    H118105   3.389   0.531   3.962
 6033TIP3    H218106   3.384   0.682   3.956
 6034TIP3   OH218107   2.901   3.401   3.625
 6034TIP3    H118108   2.993   3.387   3.648
 6034TIP3    H218109   2.852   3.363   3.699
 6035TIP3   OH218110   2.981   3.132   3.757
 6035TIP3    H118111   3.033   3.187   3.698
 6035TIP3    H218112   3.015   3.152   3.844
 6036TIP3   OH218113   3.277   2.863   2.858
 6036TIP3    H118114   3.254   2.888   2.947
 6036TIP3    H218115   3.370   2.839   2.863
 6037TIP3   OH218116   1.889   5.452   3.563
 6037TIP3    H118117   1.873   5.363   3.594
 6037TIP3    H218118   1.976   5.448   3.522
 6038TIP3   OH218119   0.042   2.378   0.149
 6038TIP3    H118120  -0.004   2.429   0.215
 6038TIP3    H218121   0.019   2.419   0.066
 6039TIP3   OH218122   3.942   0.340   3.159
 6039TIP3    H118123   3.938   0.245   3.164
 6039TIP3    H218124   3.868   0.370   3.212
 6040TIP3   OH218125   5.276   1.456   1.681
 6040TIP3    H118126   5.253   1.374   1.724
 6040TIP3    H218127   5.352   1.489   1.729
 6041TIP3   OH218128   2.809   1.367   4.323
 6041TIP3    H118129   2.856   1.301   4.272
 6041TIP3    H218130   2.844   1.359   4.412
 6042TIP3   OH218131   0.049   2.709   4.891
 6042TIP3    H118132  -0.045   2.718   4.880
 6042TIP3    H218133   0.069   2.755   4.973
 6043TIP3   OH218134   0.569   3.391   3.324
 6043TIP3    H118135   0.566   3.486   3.328
 6043TIP3    H218136   0.660   3.369   3.345
 6044TIP3   OH218137   0.100   2.064   1.266
 6044TIP3    H118138   0.177   2.079   1.211
 6044TIP3    H218139   0.026   2.088   1.210
 6045TIP3   OH218140   2.960   2.624   0.852
 6045TIP3    H118141   2.876   2.629   0.899
 6045TIP3    H218142   2.972   2.712   0.817
 6046TIP3   OH218143   2.785   5.723   4.094
 6046TIP3    H118144   2.729   5.653   4.061
 6046TIP3    H218145   2.848   5.739   4.023
 6047TIP3   OH218146   3.160   3.090   4.737
 6047TIP3    H118147   3.089   3.037   4.700
 6047TIP3    H218148   3.117   3.164   4.778
 6048TIP3   OH218149   2.269   2.802   0.025
 6048TIP3    H118150   2.182   2.818   0.062
 6048TIP3    H218151   2.320   2.766   0.098
 6049TIP3   OH218152   0.422   3.849   3.546
 6049TIP3    H118153   0.327   3.839   3.551
 6049TIP3    H218154   0.435   3.931   3.498
 6050TIP3   OH218155   1.678   1.422   2.335
 6050TIP3    H118156   1.772   1.404   2.335
 6050TIP3    H218157   1.669   1.503   2.285
 6051TIP3   OH218158   4.132   1.935   3.483
 6051TIP3    H118159   4.183   1.993   3.426
 6051TIP3    H218160   4.171   1.849   3.470
 6052TIP3   OH218161   1.895   2.807   2.956
 6052TIP3    H118162   1.825   2.765   3.004
 6052TIP3    H218163   1.911   2.750   2.880
 6053TIP3   OH218164   5.550   4.634   5.093
 6053TIP3    H118165   5.640   4.614   5.070
 6053TIP3    H218166   5.555   4.670   5.182
 6054TIP3   OH218167   0.988   5.540   2.325
 6054TIP3    H118168   0.916   5.601   2.340
 6054TIP3    H218169   1.060   5.574   2.379
 6055TIP3   OH218170   1.615   4.447   1.143
 6055TIP3    H118171   1.548   4.391   1.180
 6055TIP3    H218172   1.643   4.403   1.063
 6056TIP3   OH218173   0.344   4.222   2.920
 6056TIP3    H118174   0.253   4.208   2.947
 6056TIP3    H218175   0.339   4.238   2.826
 6057TIP3   OH218176   3.753   1.176   4.746
 6057TIP3    H118177   3.826   1.182   4.684
 6057TIP3    H218178   3.704   1.257   4.732
 6058TIP3   OH218179   1.971   4.699   4.630
 6058TIP3    H118180   1.955   4.643   4.554
 6058TIP3    H218181   1.969   4.639   4.705
 6059TIP3   OH218182   1.944   4.016   4.565
 6059TIP3    H118183   1.908   3.939   4.522
 6059TIP3    H218184   1.994   3.982   4.639
 6060TIP3   OH218185   2.473   2.693   3.403
 6060TIP3    H118186   2.540   2.632   3.371
 6060TIP3    H218187   2.391   2.645   3.396
 6061TIP3   OH218188   2.524   4.855   1.170
 6061TIP3    H118189   2.514   4.948   1.190
 6061TIP3    H218190   2.435   4.821   1.171
 6062TIP3   OH218191   1.960   4.639   2.692
 6062TIP3    H118192   2.020   4.641   2.618
 6062TIP3    H218193   1.978   4.555   2.735
 6063TIP3   OH218194   2.256   2.129   1.669
 6063TIP3    H118195   2.226   2.038   1.670
 6063TIP3    H218196   2.195   2.175   1.727
 6064TIP3   OH218197   4.383   3.176   3.825
 6064TIP3    H118198   4.465   3.222   3.807
 6064TIP3    H218199   4.409   3.085   3.839
 6065TIP3   OH218200   3.030   3.700   5.122
 6065TIP3    H118201   3.084   3.780   5.124
 6065TIP3    H218202   3.091   3.631   5.095
 6066TIP3   OH218203   2.943   2.696   3.125
 6066TIP3    H118204   3.022   2.748   3.138
 6066TIP3    H218205   2.933   2.689   3.030
 6067TIP3   OH218206   3.004   1.777   1.080
 6067TIP3    H118207   3.059   1.736   1.013
 6067TIP3    H218208   2.955   1.845   1.032
 6068TIP3   OH218209   3.786   5.257   4.262
 6068TIP3    H118210   3.786   5.190   4.194
 6068TIP3    H218211   3.871   5.248   4.305
 6069TIP3   OH218212   2.537   1.424   4.244
 6069TIP3    H118213   2.496   1.382   4.319
 6069TIP3    H218214   2.605   1.363   4.217
 6070TIP3   OH218215   0.714   2.782   4.595
 6070TIP3    H118216   0.653   2.807   4.665
 6070TIP3    H218217   0.683   2.830   4.518
 6071TIP3   OH218218   2.279   3.380   3.945
 6071TIP3    H118219   2.303   3.340   4.029
 6071TIP3    H218220   2.354   3.435   3.921
 6072TIP3   OH218221   4.737   4.617   0.656
 6072TIP3    H118222   4.773   4.705   0.667
 6072TIP3    H218223   4.707   4.592   0.744
 6073TIP3   OH218224   2.111   3.642   3.153
 6073TIP3    H118225   2.190   3.590   3.141
 6073TIP3    H218226   2.128   3.723   3.105
 6074TIP3   OH218227   2.247   3.999   0.637
 6074TIP3    H118228   2.250   4.067   0.705
 6074TIP3    H218229   2.243   3.917   0.686
 6075TIP3   OH218230   1.875   4.813   5.133
 6075TIP3    H118231   1.949   4.851   5.085
 6075TIP3    H218232   1.855   4.878   5.201
 6076TIP3   OH218233   0.265   0.576   1.593
 6076TIP3    H118234   0.307   0.590   1.678
 6076TIP3    H218235   0.320   0.513   1.548
 6077TIP3   OH218236   1.389   2.034   5.065
 6077TIP3    H118237   1.479   2.046   5.036
 6077TIP3    H218238   1.345   1.992   4.991
 6078TIP3   OH218239   5.582   1.774   4.953
 6078TIP3    H118240   5.626   1.749   5.035
 6078TIP3    H218241   5.544   1.860   4.972
 6079TIP3   OH218242   3.038   0.555   1.214
 6079TIP3    H118243   3.045   0.560   1.309
 6079TIP3    H218244   2.953   0.595   1.194
 6080TIP3   OH218245   2.917   4.415   2.573
 6080TIP3    H118246   2.844   4.428   2.512
 6080TIP3    H218247   2.935   4.502   2.607
 6081TIP3   OH218248   2.330   3.789   0.789
 6081TIP3    H118249   2.392   3.786   0.862
 6081TIP3    H218250   2.356   3.717   0.733
 6082TIP3   OH218251   1.806   0.989   4.357
 6082TIP3    H118252   1.793   0.901   4.392
 6082TIP3    H218253   1.717   1.020   4.338
 6083TIP3   OH218254   1.177   0.997   2.160
 6083TIP3    H118255   1.095   0.948   2.153
 6083TIP3    H218256   1.160   1.062   2.227
 6084TIP3   OH218257   3.087   3.968   0.649
 6084TIP3    H118258   3.129   3.978   0.563
 6084TIP3    H218259   3.154   3.926   0.703
 6085TIP3   OH218260   1.973   4.377   1.652
 6085TIP3    H118261   1.890   4.336   1.679
 6085TIP3    H218262   1.980   4.356   1.558
 6086TIP3   OH218263   2.168   3.527   4.755
 6086TIP3    H118264   2.154   3.447   4.705
 6086TIP3    H218265   2.140   3.504   4.844
 6087TIP3   OH218266   3.742   5.697   2.041
 6087TIP3    H118267   3.693   5.753   2.100
 6087TIP3    H218268   3.737   5.610   2.081
 6088TIP3   OH218269   1.107   1.199   2.305
 6088TIP3    H118270   1.125   1.292   2.288
 6088TIP3    H218271   1.012   1.192   2.299
 6089TIP3   OH218272   2.794   2.647   1.171
 6089TIP3    H118273   2.726   2.672   1.234
 6089TIP3    H218274   2.756   2.667   1.085
 6090TIP3   OH218275   1.422   0.755   4.602
 6090TIP3    H118276   1.368   0.692   4.648
 6090TIP3    H218277   1.360   0.819   4.566
 6091TIP3   OH218278   1.286   1.868   1.466
 6091TIP3    H118279   1.311   1.936   1.403
 6091TIP3    H218280   1.195   1.848   1.445
 6092TIP3   OH218281   4.595   5.879   4.084
 6092TIP3    H118282   4.609   5.915   3.996
 6092TIP3    H218283   4.536   5.942   4.126
 6093TIP3   OH218284   2.436   0.129   1.538
 6093TIP3    H118285   2.380   0.136   1.461
 6093TIP3    H218286   2.400   0.193   1.600
 6094TIP3   OH218287   4.236   1.067   2.411
 6094TIP3    H118288   4.224   1.153   2.450
 6094TIP3    H218289   4.273   1.013   2.482
 6095TIP3   OH218290   1.513   1.597   2.680
 6095TIP3    H118291   1.560   1.522   2.715
 6095TIP3    H218292   1.475   1.567   2.598
 6096TIP3   OH218293   5.319   2.557   1.327
 6096TIP3    H118294   5.380   2.630   1.317
 6096TIP3    H218295   5.322   2.536   1.420
 6097TIP3   OH218296   0.055   3.511   0.149
 6097TIP3    H118297   0.023   3.454   0.079
 6097TIP3    H218298  -0.002   3.494   0.223
 6098TIP3   OH218299   5.545   4.699   1.395
 6098TIP3    H118300   5.451   4.705   1.378
 6098TIP3    H218301   5.580   4.786   1.375
 6099TIP3   OH218302   1.588   3.728   3.951
 6099TIP3    H118303   1.541   3.646   3.965
 6099TIP3    H218304   1.624   3.751   4.037
 6100TIP3   OH218305   1.298   5.803   2.027
 6100TIP3    H118306   1.347   5.841   2.099
 6100TIP3    H218307   1.318   5.709   2.031
 6101TIP3   OH218308   0.261   4.824   4.150
 6101TIP3    H118309   0.299   4.903   4.113
 6101TIP3    H218310   0.296   4.819   4.239
 6102TIP3   OH218311   3.068   3.464   3.023
 6102TIP3    H118312   3.090   3.510   3.104
 6102TIP3    H218313   3.117   3.382   3.028
 6103TIP3   OH218314   3.280   0.820   4.196
 6103TIP3    H118315   3.357   0.859   4.238
 6103TIP3    H218316   3.253   0.750   4.255
 6104TIP3   OH218317   4.544   4.446   4.207
 6104TIP3    H118318   4.454   4.412   4.209
 6104TIP3    H218319   4.594   4.386   4.263
 6105TIP3   OH218320   5.870   0.283   4.112
 6105TIP3    H118321   5.778   0.255   4.114
 6105TIP3    H218322   5.917   0.207   4.079
 6106TIP3   OH218323   0.987   3.021   3.886
 6106TIP3    H118324   1.030   3.028   3.801
 6106TIP3    H218325   0.897   2.996   3.865
 6107TIP3   OH218326   4.046   0.314   1.874
 6107TIP3    H118327   4.094   0.235   1.849
 6107TIP3    H218328   3.954   0.290   1.867
 6108TIP3   OH218329   4.145   4.821   0.297
 6108TIP3    H118330   4.082   4.814   0.369
 6108TIP3    H218331   4.103   4.776   0.224
 6109TIP3   OH218332   0.369   4.943   0.033
 6109TIP3    H118333   0.318   4.863   0.046
 6109TIP3    H218334   0.319   4.994  -0.030
 6110TIP3   OH218335   0.874   5.514   4.321
 6110TIP3    H118336   0.792   5.469   4.343
 6110TIP3    H218337   0.868   5.528   4.226
 6111TIP3   OH218338   3.597   5.182   3.237
 6111TIP3    H118339   3.522   5.154   3.288
 6111TIP3    H218340   3.664   5.202   3.303
 6112TIP3   OH218341   3.710   4.833   3.936
 6112TIP3    H118342   3.723   4.836   3.841
 6112TIP3    H218343   3.799   4.822   3.972
 6113TIP3   OH218344   4.055   5.906   3.750
 6113TIP3    H118345   4.037   5.837   3.814
 6113TIP3    H218346   4.070   5.985   3.803
 6114TIP3   OH218347   5.491   1.029   3.547
 6114TIP3    H118348   5.438   1.105   3.519
 6114TIP3    H218349   5.453   1.004   3.631
 6115TIP3   OH218350   5.458   5.303   4.246
 6115TIP3    H118351   5.501   5.259   4.173
 6115TIP3    H218352   5.370   5.264   4.248
 6116TIP3   OH218353   5.887   4.129   0.075
 6116TIP3    H118354   5.975   4.102   0.103
 6116TIP3    H218355   5.852   4.178   0.149
 6117TIP3   OH218356   0.553   1.887   2.219
 6117TIP3    H118357   0.529   1.977   2.244
 6117TIP3    H218358   0.546   1.886   2.124
 6118TIP3   OH218359   5.279   0.007   4.133
 6118TIP3    H118360   5.189   0.021   4.162
 6118TIP3    H218361   5.281   0.041   4.044
 6119TIP3   OH218362   4.971   2.218   4.221
 6119TIP3    H118363   5.066   2.212   4.234
 6119TIP3    H218364   4.940   2.269   4.296
 6120TIP3   OH218365   2.455   5.042   3.731
 6120TIP3    H118366   2.379   5.097   3.712
 6120TIP3    H218367   2.421   4.952   3.726
 6121TIP3   OH218368   4.833   0.637   1.987
 6121TIP3    H118369   4.792   0.716   1.953
 6121TIP3    H218370   4.851   0.584   1.909
 6122TIP3   OH218371   6.364   2.568   2.913
 6122TIP3    H118372   6.367   2.655   2.953
 6122TIP3    H218373   6.270   2.550   2.903
 6123TIP3   OH218374   1.322   0.652   3.044
 6123TIP3    H118375   1.258   0.687   2.981
 6123TIP3    H218376   1.400   0.708   3.033
 6124TIP3   OH218377   4.838   5.129   4.935
 6124TIP3    H118378   4.762   5.072   4.942
 6124TIP3    H218379   4.875   5.110   4.848
 6125TIP3   OH218380   1.089   4.935   0.386
 6125TIP3    H118381   1.090   4.902   0.476
 6125TIP3    H218382   0.996   4.946   0.366
 6126TIP3   OH218383   5.797   0.807   4.931
 6126TIP3    H118384   5.717   0.834   4.886
 6126TIP3    H218385   5.780   0.825   5.024
 6127TIP3   OH218386   4.232   1.221   3.797
 6127TIP3    H118387   4.257   1.307   3.831
 6127TIP3    H218388   4.263   1.159   3.863
 6128TIP3   OH218389   2.408   3.920   3.788
 6128TIP3    H118390   2.352   3.848   3.756
 6128TIP3    H218391   2.347   3.980   3.831
 6129TIP3   OH218392   6.062   2.895   3.888
 6129TIP3    H118393   6.101   2.880   3.975
 6129TIP3    H218394   6.027   2.984   3.893
 6130TIP3   OH218395   0.522   4.660   4.612
 6130TIP3    H118396   0.548   4.657   4.704
 6130TIP3    H218397   0.593   4.709   4.570
 6131TIP3   OH218398   6.203   3.988   2.457
 6131TIP3    H118399   6.153   3.917   2.418
 6131TIP3    H218400   6.148   4.065   2.445
 6132TIP3   OH218401   0.167   0.227   1.820
 6132TIP3    H118402   0.113   0.291   1.867
 6132TIP3    H218403   0.131   0.226   1.731
 6133TIP3   OH218404   5.347   5.841   0.675
 6133TIP3    H118405   5.412   5.810   0.612
 6133TIP3    H218406   5.267   5.852   0.623
 6134TIP3   OH218407   5.401   1.467   3.961
 6134TIP3    H118408   5.443   1.397   4.011
 6134TIP3    H218409   5.357   1.422   3.889
 6135TIP3   OH218410   1.932   3.229   0.918
 6135TIP3    H118411   1.914   3.150   0.969
 6135TIP3    H218412   2.027   3.231   0.912
 6136TIP3   OH218413   4.941   0.090   3.592
 6136TIP3    H118414   4.893   0.023   3.544
 6136TIP3    H218415   4.958   0.050   3.678
 6137TIP3   OH218416   3.761   0.640   0.595
 6137TIP3    H118417   3.781   0.547   0.595
 6137TIP3    H218418   3.842   0.683   0.623
 6138TIP3   OH218419   4.022   3.135   4.284
 6138TIP3    H118420   4.015   3.048   4.322
 6138TIP3    H218421   4.116   3.146   4.267
 6139TIP3   OH218422   2.259   4.379   0.594
 6139TIP3    H118423   2.178   4.427   0.608
 6139TIP3    H218424   2.264   4.318   0.667
 6140TIP3   OH218425   4.508   0.910   3.618
 6140TIP3    H118426   4.572   0.922   3.548
 6140TIP3    H218427   4.491   0.816   3.618
 6141TIP3   OH218428   5.562   1.351   2.404
 6141TIP3    H118429   5.476   1.310   2.388
 6141TIP3    H218430   5.573   1.412   2.331
 6142TIP3   OH218431   0.652   4.792   2.905
 6142TIP3    H118432   0.689   4.715   2.949
 6142TIP3    H218433   0.722   4.857   2.907
 6143TIP3   OH218434   6.140   0.298   0.498
 6143TIP3    H118435   6.045   0.303   0.508
 6143TIP3    H218436   6.163   0.210   0.528
 6144TIP3   OH218437   4.950   1.585   3.587
 6144TIP3    H118438   4.911   1.570   3.501
 6144TIP3    H218439   4.945   1.500   3.631
 6145TIP3   OH218440   4.193   3.297   1.922
 6145TIP3    H118441   4.210   3.387   1.895
 6145TIP3    H218442   4.260   3.245   1.877
 6146TIP3   OH218443   1.808   4.201   4.994
 6146TIP3    H118444   1.795   4.278   4.938
 6146TIP3    H218445   1.858   4.141   4.940
 6147TIP3   OH218446   5.146   1.619   4.821
 6147TIP3    H118447   5.231   1.617   4.863
 6147TIP3    H218448   5.148   1.545   4.760
 6148TIP3   OH218449   5.576   1.905   0.261
 6148TIP3    H118450   5.547   1.863   0.342
 6148TIP3    H218451   5.548   1.997   0.270
 6149TIP3   OH218452   2.207   3.644   0.362
 6149TIP3    H118453   2.184   3.595   0.441
 6149TIP3    H218454   2.133   3.703   0.348
 6150TIP3   OH218455   0.923   4.883   2.869
 6150TIP3    H118456   0.954   4.892   2.779
 6150TIP3    H218457   0.976   4.814   2.907
 6151TIP3   OH218458   1.238   2.408   2.294
 6151TIP3    H118459   1.303   2.392   2.225
 6151TIP3    H218460   1.157   2.427   2.246
 6152TIP3   OH218461   1.358   1.068   4.762
 6152TIP3    H118462   1.372   1.024   4.678
 6152TIP3    H218463   1.395   1.008   4.826
 6153TIP3   OH218464   4.680   5.016   1.661
 6153TIP3    H118465   4.699   5.084   1.597
 6153TIP3    H218466   4.734   5.039   1.737
 6154TIP3   OH218467   1.484   3.154   2.621
 6154TIP3    H118468   1.419   3.159   2.552
 6154TIP3    H218469   1.496   3.060   2.636
 6155TIP3   OH218470   4.060   3.769   1.543
 6155TIP3    H118471   3.988   3.821   1.507
 6155TIP3    H218472   4.121   3.834   1.580
 6156TIP3   OH218473   5.641   3.532   5.126
 6156TIP3    H118474   5.562   3.508   5.174
 6156TIP3    H218475   5.662   3.620   5.156
 6157TIP3   OH218476   6.027   3.013   4.879
 6157TIP3    H118477   5.935   3.027   4.901
 6157TIP3    H218478   6.061   3.100   4.861
 6158TIP3   OH218479   2.900   1.236   1.491
 6158TIP3    H118480   2.840   1.309   1.477
 6158TIP3    H218481   2.846   1.158   1.482
 6159TIP3   OH218482   4.397   1.735   3.820
 6159TIP3    H118483   4.424   1.803   3.882
 6159TIP3    H218484   4.313   1.765   3.786
 6160TIP3   OH218485   2.680   0.572   1.754
 6160TIP3    H118486   2.694   0.478   1.743
 6160TIP3    H218487   2.613   0.594   1.689
 6161TIP3   OH218488   4.087   0.962   4.504
 6161TIP3    H118489   4.105   0.881   4.456
 6161TIP3    H218490   4.049   0.933   4.587
 6162TIP3   OH218491   1.571   4.968   4.533
 6162TIP3    H118492   1.642   4.915   4.569
 6162TIP3    H218493   1.494   4.943   4.584
 6163TIP3   OH218494   6.015   1.995   0.157
 6163TIP3    H118495   5.958   1.943   0.214
 6163TIP3    H218496   6.090   2.018   0.213
 6164TIP3   OH218497   1.906   5.742   2.731
 6164TIP3    H118498   1.975   5.698   2.782
 6164TIP3    H218499   1.876   5.813   2.788
 6165TIP3   OH218500   4.721   3.635   0.182
 6165TIP3    H118501   4.658   3.583   0.233
 6165TIP3    H218502   4.789   3.659   0.245
 6166TIP3   OH218503   3.108   4.346   0.455
 6166TIP3    H118504   3.087   4.439   0.450
 6166TIP3    H218505   3.023   4.303   0.466
 6167TIP3   OH218506   1.568   5.781   1.125
 6167TIP3    H118507   1.498   5.793   1.061
 6167TIP3    H218508   1.647   5.766   1.072
 6168TIP3   OH218509   3.264   4.302   0.108
 6168TIP3    H118510   3.184   4.259   0.138
 6168TIP3    H218511   3.321   4.231   0.081
 6169TIP3   OH218512   4.041   3.760   4.832
 6169TIP3    H118513   4.036   3.723   4.744
 6169TIP3    H218514   4.011   3.850   4.823
 6170TIP3   OH218515   1.906   3.391   3.950
 6170TIP3    H118516   1.944   3.329   4.012
 6170TIP3    H218517   1.822   3.352   3.925
 6171TIP3   OH218518   2.199   0.585   3.516
 6171TIP3    H118519   2.210   0.612   3.425
 6171TIP3    H218520   2.173   0.493   3.511
 6172TIP3   OH218521   1.866   5.828   4.384
 6172TIP3    H118522   1.858   5.917   4.418
 6172TIP3    H218523   1.949   5.828   4.337
 6173TIP3   OH218524   5.211   0.842   1.804
 6173TIP3    H118525   5.252   0.892   1.874
 6173TIP3    H218526   5.284   0.797   1.761
 6174TIP3   OH218527   4.072   3.031   0.897
 6174TIP3    H118528   4.006   2.975   0.938
 6174TIP3    H218529   4.093   2.986   0.815
 6175TIP3   OH218530   4.766   2.254   2.623
 6175TIP3    H118531   4.769   2.283   2.714
 6175TIP3    H218532   4.847   2.204   2.612
 6176TIP3   OH218533   1.042   4.230   4.524
 6176TIP3    H118534   1.092   4.223   4.443
 6176TIP3    H218535   1.073   4.311   4.564
 6177TIP3   OH218536   4.387   0.252   1.638
 6177TIP3    H118537   4.304   0.227   1.600
 6177TIP3    H218538   4.380   0.347   1.651
 6178TIP3   OH218539   5.401   0.286   2.671
 6178TIP3    H118540   5.308   0.297   2.652
 6178TIP3    H218541   5.445   0.328   2.597
 6179TIP3   OH218542   2.884   3.542   2.259
 6179TIP3    H118543   2.870   3.448   2.271
 6179TIP3    H218544   2.978   3.550   2.241
 6180TIP3   OH218545   0.736   2.053   3.229
 6180TIP3    H118546   0.698   2.010   3.306
 6180TIP3    H218547   0.824   2.078   3.257
 6181TIP3   OH218548   5.758   3.132   2.005
 6181TIP3    H118549   5.674   3.137   2.050
 6181TIP3    H218550   5.775   3.038   1.996
 6182TIP3   OH218551   1.886   0.198   0.171
 6182TIP3    H118552   1.829   0.171   0.244
 6182TIP3    H218553   1.876   0.293   0.166
 6183TIP3   OH218554   3.042   2.889   1.826
 6183TIP3    H118555   3.106   2.833   1.782
 6183TIP3    H218556   3.078   2.902   1.914
 6184TIP3   OH218557   1.992   5.646   0.199
 6184TIP3    H118558   1.980   5.741   0.204
 6184TIP3    H218559   1.913   5.615   0.156
 6185TIP3   OH218560   3.653   1.784   0.801
 6185TIP3    H118561   3.690   1.830   0.726
 6185TIP3    H218562   3.721   1.789   0.868
 6186TIP3   OH218563   4.054   3.520   5.013
 6186TIP3    H118564   3.992   3.570   4.960
 6186TIP3    H218565   4.106   3.586   5.059
 6187TIP3   OH218566   3.519   2.516   1.481
 6187TIP3    H118567   3.457   2.505   1.409
 6187TIP3    H218568   3.577   2.440   1.474
 6188TIP3   OH218569   5.368   1.971   3.528
 6188TIP3    H118570   5.400   1.886   3.559
 6188TIP3    H218571   5.321   2.007   3.603
 6189TIP3   OH218572   1.098   2.740   2.170
 6189TIP3    H118573   1.108   2.778   2.082
 6189TIP3    H218574   1.096   2.645   2.155
 6190TIP3   OH218575   3.380   5.424   1.597
 6190TIP3    H118576   3.470   5.400   1.621
 6190TIP3    H218577   3.386   5.448   1.505
 6191TIP3   OH218578   2.792   3.159   0.493
 6191TIP3    H118579   2.731   3.161   0.567
 6191TIP3    H218580   2.848   3.236   0.506
 6192TIP3   OH218581   5.251   1.576   0.011
 6192TIP3    H118582   5.337   1.606   0.040
 6192TIP3    H218583   5.267   1.491  -0.030
 6193TIP3   OH218584   3.272   4.025   3.754
 6193TIP3    H118585   3.286   4.103   3.807
 6193TIP3    H218586   3.183   4.033   3.721
 6194TIP3   OH218587   0.207   5.007   3.031
 6194TIP3    H118588   0.159   5.080   3.070
 6194TIP3    H218589   0.284   5.047   2.991
 6195TIP3   OH218590   0.953   3.043   0.072
 6195TIP3    H118591   0.903   2.967   0.043
 6195TIP3    H218592   1.036   3.037   0.024
 6196TIP3   OH218593   0.869   3.482   1.236
 6196TIP3    H118594   0.828   3.467   1.321
 6196TIP3    H218595   0.798   3.514   1.180
 6197TIP3   OH218596   3.596   5.877   5.106
 6197TIP3    H118597   3.652   5.953   5.126
 6197TIP3    H218598   3.595   5.874   5.010
 6198TIP3   OH218599   3.273   4.779   2.551
 6198TIP3    H118600   3.280   4.764   2.456
 6198TIP3    H218601   3.363   4.771   2.583
 6199TIP3   OH218602   2.009   1.063   0.900
 6199TIP3    H118603   1.919   1.033   0.911
 6199TIP3    H218604   2.001   1.155   0.875
 6200TIP3   OH218605   5.274   4.740   1.351
 6200TIP3    H118606   5.223   4.725   1.431
 6200TIP3    H218607   5.209   4.767   1.286
 6201TIP3   OH218608   1.085   4.984   3.299
 6201TIP3    H118609   1.121   4.987   3.388
 6201TIP3    H218610   1.129   4.910   3.258
 6202TIP3   OH218611   4.005   0.848   2.079
 6202TIP3    H118612   3.950   0.793   2.023
 6202TIP3    H218613   4.078   0.792   2.103
 6203TIP3   OH218614   5.685   2.489   4.511
 6203TIP3    H118615   5.705   2.396   4.515
 6203TIP3    H218616   5.661   2.505   4.420
 6204TIP3   OH218617   5.572   0.031   1.961
 6204TIP3    H118618   5.588  -0.030   1.890
 6204TIP3    H218619   5.656   0.038   2.007
 6205TIP3   OH218620   0.537   5.205   3.822
 6205TIP3    H118621   0.558   5.135   3.760
 6205TIP3    H218622   0.602   5.195   3.891
 6206TIP3   OH218623   4.939   5.166   1.896
 6206TIP3    H118624   4.979   5.210   1.821
 6206TIP3    H218625   5.004   5.173   1.966
 6207TIP3   OH218626   2.407   4.642   1.514
 6207TIP3    H118627   2.462   4.604   1.583
 6207TIP3    H218628   2.410   4.736   1.530
 6208TIP3   OH218629   3.352   0.097   1.932
 6208TIP3    H118630   3.301   0.027   1.972
 6208TIP3    H218631   3.359   0.163   2.002
 6209TIP3   OH218632   3.391   4.348   2.294
 6209TIP3    H118633   3.334   4.310   2.227
 6209TIP3    H218634   3.331   4.382   2.360
 6210TIP3   OH218635   3.916   5.839   2.475
 6210TIP3    H118636   3.887   5.774   2.538
 6210TIP3    H218637   3.990   5.799   2.430
 6211TIP3   OH218638   4.777   2.743   0.752
 6211TIP3    H118639   4.733   2.658   0.746
 6211TIP3    H218640   4.716   2.804   0.710
 6212TIP3   OH218641   3.446   5.245   0.811
 6212TIP3    H118642   3.529   5.210   0.779
 6212TIP3    H218643   3.438   5.212   0.900
 6213TIP3   OH218644   6.243   3.616   5.028
 6213TIP3    H118645   6.323   3.564   5.016
 6213TIP3    H218646   6.263   3.674   5.102
 6214TIP3   OH218647   2.026   5.930   3.887
 6214TIP3    H118648   1.965   5.884   3.830
 6214TIP3    H218649   2.030   5.876   3.966
 6215TIP3   OH218650   5.226   5.068   3.115
 6215TIP3    H118651   5.183   5.153   3.110
 6215TIP3    H218652   5.304   5.083   3.167
 6216TIP3   OH218653   0.542   5.370   3.067
 6216TIP3    H118654   0.500   5.446   3.026
 6216TIP3    H218655   0.623   5.358   3.017
 6217TIP3   OH218656   1.833   5.637   4.637
 6217TIP3    H118657   1.892   5.603   4.571
 6217TIP3    H218658   1.868   5.724   4.657
 6218TIP3   OH218659   3.984   4.556   4.223
 6218TIP3    H118660   3.944   4.470   4.232
 6218TIP3    H218661   3.934   4.598   4.152
 6219TIP3   OH218662   0.855   0.891   0.224
 6219TIP3    H118663   0.867   0.849   0.309
 6219TIP3    H218664   0.832   0.819   0.165
 6220TIP3   OH218665   6.144   5.380   2.909
 6220TIP3    H118666   6.113   5.304   2.959
 6220TIP3    H218667   6.197   5.342   2.839
 6221TIP3   OH218668   1.342   3.187   1.761
 6221TIP3    H118669   1.327   3.254   1.694
 6221TIP3    H218670   1.419   3.139   1.730
 6222TIP3   OH218671   3.479   3.641   0.621
 6222TIP3    H118672   3.459   3.647   0.527
 6222TIP3    H218673   3.572   3.616   0.623
 6223TIP3   OH218674   6.170   4.933   3.233
 6223TIP3    H118675   6.097   4.995   3.227
 6223TIP3    H218676   6.179   4.917   3.327
 6224TIP3   OH218677   1.454   3.026   4.721
 6224TIP3    H118678   1.536   3.050   4.763
 6224TIP3    H218679   1.464   3.054   4.630
 6225TIP3   OH218680   4.965   1.176   4.700
 6225TIP3    H118681   5.058   1.155   4.706
 6225TIP3    H218682   4.939   1.196   4.790
 6226TIP3   OH218683   3.134   2.874   2.094
 6226TIP3    H118684   3.129   2.780   2.109
 6226TIP3    H218685   3.223   2.898   2.118
 6227TIP3   OH218686   2.506   3.526   3.868
 6227TIP3    H118687   2.597   3.535   3.896
 6227TIP3    H218688   2.512   3.505   3.775
 6228TIP3   OH218689   0.456   1.303   1.701
 6228TIP3    H118690   0.534   1.305   1.646
 6228TIP3    H218691   0.490   1.309   1.791
 6229TIP3   OH218692   5.431   0.807   3.372
 6229TIP3    H118693   5.416   0.739   3.438
 6229TIP3    H218694   5.451   0.886   3.423
 6230TIP3   OH218695   5.945   3.643   2.471
 6230TIP3    H118696   5.922   3.643   2.564
 6230TIP3    H218697   5.942   3.551   2.446
 6231TIP3   OH218698   0.356   1.540   1.892
 6231TIP3    H118699   0.441   1.530   1.848
 6231TIP3    H218700   0.315   1.614   1.848
 6232TIP3   OH218701   1.104   3.971   4.546
 6232TIP3    H118702   1.071   4.060   4.556
 6232TIP3    H218703   1.198   3.978   4.562
 6233TIP3   OH218704   1.097   4.963   2.624
 6233TIP3    H118705   1.171   4.902   2.622
 6233TIP3    H218706   1.125   5.036   2.568
 6234TIP3   OH218707   3.200   4.248   3.519
 6234TIP3    H118708   3.161   4.330   3.552
 6234TIP3    H218709   3.169   4.241   3.429
 6235TIP3   OH218710   2.602   3.705   3.657
 6235TIP3    H118711   2.569   3.666   3.576
 6235TIP3    H218712   2.527   3.703   3.717
 6236TIP3   OH218713   4.971   2.067   1.294
 6236TIP3    H118714   4.938   2.018   1.369
 6236TIP3    H218715   4.911   2.046   1.222
 6237TIP3   OH218716   1.402   2.533   4.494
 6237TIP3    H118717   1.488   2.492   4.483
 6237TIP3    H218718   1.387   2.531   4.588
 6238TIP3   OH218719   5.136   4.314   1.209
 6238TIP3    H118720   5.152   4.223   1.186
 6238TIP3    H218721   5.190   4.329   1.287
 6239TIP3   OH218722   1.816   2.119   0.549
 6239TIP3    H118723   1.831   2.054   0.480
 6239TIP3    H218724   1.862   2.197   0.518
 6240TIP3   OH218725   4.146   3.547   1.077
 6240TIP3    H118726   4.179   3.469   1.032
 6240TIP3    H218727   4.138   3.520   1.169
 6241TIP3   OH218728   1.366   0.043   5.086
 6241TIP3    H118729   1.271   0.037   5.073
 6241TIP3    H218730   1.397   0.089   5.008
 6242TIP3   OH218731   1.181   4.079   3.062
 6242TIP3    H118732   1.101   4.116   3.099
 6242TIP3    H218733   1.233   4.155   3.038
 6243TIP3   OH218734   4.680   2.460   2.077
 6243TIP3    H118735   4.703   2.393   2.013
 6243TIP3    H218736   4.701   2.421   2.161
 6244TIP3   OH218737   3.685   1.945   2.419
 6244TIP3    H118738   3.660   1.863   2.376
 6244TIP3    H218739   3.740   1.918   2.492
 6245TIP3   OH218740   3.554   4.117   2.341
 6245TIP3    H118741   3.589   4.113   2.252
 6245TIP3    H218742   3.507   4.201   2.345
 6246TIP3   OH218743   2.064   5.781   1.542
 6246TIP3    H118744   2.104   5.866   1.522
 6246TIP3    H218745   1.994   5.802   1.604
 6247TIP3   OH218746   1.362   2.418   0.847
 6247TIP3    H118747   1.407   2.334   0.837
 6247TIP3    H218748   1.395   2.472   0.775
 6248TIP3   OH218749   2.982   2.264   1.752
 6248TIP3    H118750   3.039   2.336   1.729
 6248TIP3    H218751   3.023   2.224   1.829
 6249TIP3   OH218752   5.736   4.255   3.790
 6249TIP3    H118753   5.787   4.180   3.822
 6249TIP3    H218754   5.788   4.291   3.719
 6250TIP3   OH218755   1.857   1.597   0.552
 6250TIP3    H118756   1.903   1.658   0.609
 6250TIP3    H218757   1.773   1.640   0.534
 6251TIP3   OH218758   1.736   4.424   4.267
 6251TIP3    H118759   1.674   4.399   4.199
 6251TIP3    H218760   1.815   4.374   4.246
 6252TIP3   OH218761   1.074   5.905   4.742
 6252TIP3    H118762   1.141   5.895   4.810
 6252TIP3    H218763   1.124   5.917   4.661
 6253TIP3   OH218764   4.974   2.676   0.487
 6253TIP3    H118765   5.055   2.681   0.537
 6253TIP3    H218766   4.943   2.766   0.480
 6254TIP3   OH218767   3.511   3.361   4.239
 6254TIP3    H118768   3.592   3.310   4.246
 6254TIP3    H218769   3.488   3.381   4.330
 6255TIP3   OH218770   4.219   5.240   2.630
 6255TIP3    H118771   4.148   5.290   2.589
 6255TIP3    H218772   4.294   5.254   2.572
 6256TIP3   OH218773   5.699   0.851   3.587
 6256TIP3    H118774   5.629   0.791   3.610
 6256TIP3    H218775   5.656   0.922   3.539
 6257TIP3   OH218776   4.719   0.747   2.318
 6257TIP3    H118777   4.803   0.725   2.277
 6257TIP3    H218778   4.728   0.718   2.408
 6258TIP3   OH218779   0.244   2.783   4.631
 6258TIP3    H118780   0.300   2.724   4.580
 6258TIP3    H218781   0.159   2.740   4.633
 6259TIP3   OH218782   5.465   4.498   0.124
 6259TIP3    H118783   5.535   4.461   0.178
 6259TIP3    H218784   5.510   4.548   0.056
 6260TIP3   OH218785   4.869   3.979   1.916
 6260TIP3    H118786   4.866   3.945   2.006
 6260TIP3    H218787   4.938   3.928   1.874
 6261TIP3   OH218788   2.282   5.539   2.683
 6261TIP3    H118789   2.352   5.596   2.653
 6261TIP3    H218790   2.232   5.592   2.745
 6262TIP3   OH218791   2.267   4.433   0.317
 6262TIP3    H118792   2.260   4.428   0.412
 6262TIP3    H218793   2.177   4.451   0.287
 6263TIP3   OH218794   3.951   2.082   0.421
 6263TIP3    H118795   4.018   2.098   0.488
 6263TIP3    H218796   3.995   2.029   0.355
 6264TIP3   OH218797   3.345   1.302   3.551
 6264TIP3    H118798   3.305   1.390   3.552
 6264TIP3    H218799   3.272   1.243   3.534
 6265TIP3   OH218800   1.187   3.441   3.931
 6265TIP3    H118801   1.118   3.378   3.954
 6265TIP3    H218802   1.234   3.399   3.859
 6266TIP3   OH218803   2.904   0.550   4.833
 6266TIP3    H118804   2.915   0.457   4.813
 6266TIP3    H218805   2.923   0.557   4.926
 6267TIP3   OH218806   4.151   3.704   3.303
 6267TIP3    H118807   4.087   3.673   3.366
 6267TIP3    H218808   4.192   3.625   3.269
 6268TIP3   OH218809   1.020   5.873   3.311
 6268TIP3    H118810   0.958   5.939   3.280
 6268TIP3    H218811   1.040   5.820   3.234
 6269TIP3   OH218812   3.796   1.890   4.974
 6269TIP3    H118813   3.827   1.980   4.978
 6269TIP3    H218814   3.864   1.843   4.925
 6270TIP3   OH218815   2.263   3.619   2.311
 6270TIP3    H118816   2.358   3.626   2.299
 6270TIP3    H218817   2.252   3.574   2.394
 6271TIP3   OH218818   4.347   0.068   0.611
 6271TIP3    H118819   4.348  -0.023   0.581
 6271TIP3    H218820   4.254   0.092   0.610
 6272TIP3   OH218821   2.853   4.510   3.237
 6272TIP3    H118822   2.823   4.599   3.218
 6272TIP3    H218823   2.832   4.497   3.329
 6273TIP3   OH218824   4.359   2.253   2.209
 6273TIP3    H118825   4.348   2.178   2.151
 6273TIP3    H218826   4.443   2.237   2.252
 6274TIP3   OH218827   2.696   2.723   0.929
 6274TIP3    H118828   2.625   2.659   0.926
 6274TIP3    H218829   2.669   2.792   0.869
 6275TIP3   OH218830   0.730   2.794   1.461
 6275TIP3    H118831   0.753   2.774   1.370
 6275TIP3    H218832   0.811   2.828   1.499
 6276TIP3   OH218833   0.958   4.859   4.349
 6276TIP3    H118834   0.934   4.862   4.442
 6276TIP3    H218835   0.886   4.811   4.308
 6277TIP3   OH218836   0.865   5.175   4.301
 6277TIP3    H118837   0.812   5.200   4.376
 6277TIP3    H218838   0.889   5.084   4.316
 6278TIP3   OH218839   3.340   2.100   3.516
 6278TIP3    H118840   3.291   2.019   3.505
 6278TIP3    H218841   3.273   2.168   3.524
 6279TIP3   OH218842   2.980   1.141   2.059
 6279TIP3    H118843   3.058   1.193   2.077
 6279TIP3    H218844   2.982   1.072   2.126
 6280TIP3   OH218845   4.355   4.467   4.416
 6280TIP3    H118846   4.268   4.436   4.441
 6280TIP3    H218847   4.340   4.552   4.375
 6281TIP3   OH218848   2.365   5.444   4.427
 6281TIP3    H118849   2.333   5.522   4.382
 6281TIP3    H218850   2.389   5.383   4.357
 6282TIP3   OH218851   2.825   5.850   1.766
 6282TIP3    H118852   2.898   5.846   1.704
 6282TIP3    H218853   2.796   5.941   1.763
 6283TIP3   OH218854   4.196   1.191   1.205
 6283TIP3    H118855   4.244   1.274   1.205
 6283TIP3    H218856   4.158   1.186   1.293
 6284TIP3   OH218857   3.824   2.708   0.770
 6284TIP3    H118858   3.850   2.766   0.699
 6284TIP3    H218859   3.844   2.757   0.849
 6285TIP3   OH218860   5.960   0.411   2.706
 6285TIP3    H118861   6.005   0.495   2.692
 6285TIP3    H218862   5.868   0.430   2.688
 6286TIP3   OH218863   4.173   2.587   2.799
 6286TIP3    H118864   4.192   2.579   2.892
 6286TIP3    H218865   4.115   2.663   2.793
 6287TIP3   OH218866   6.017   4.566   4.148
 6287TIP3    H118867   5.997   4.651   4.189
 6287TIP3    H218868   6.101   4.541   4.186
 6288TIP3   OH218869   6.333   2.348   1.313
 6288TIP3    H118870   6.256   2.383   1.358
 6288TIP3    H218871   6.324   2.377   1.223
 6289TIP3   OH218872   0.651   5.672   3.913
 6289TIP3    H118873   0.664   5.743   3.850
 6289TIP3    H218874   0.562   5.641   3.896
 6290TIP3   OH218875   2.522   0.941   1.504
 6290TIP3    H118876   2.471   0.867   1.537
 6290TIP3    H218877   2.469   0.977   1.433
 6291TIP3   OH218878   6.314   4.657   3.375
 6291TIP3    H118879   6.253   4.712   3.424
 6291TIP3    H218880   6.258   4.597   3.325
 6292TIP3   OH218881   3.658   1.398   1.494
 6292TIP3    H118882   3.620   1.368   1.412
 6292TIP3    H218883   3.735   1.342   1.507
 6293TIP3   OH218884   3.576   2.932   4.722
 6293TIP3    H118885   3.615   3.014   4.753
 6293TIP3    H218886   3.580   2.873   4.797
 6294TIP3   OH218887   4.620   0.208   1.018
 6294TIP3    H118888   4.610   0.298   0.985
 6294TIP3    H218889   4.633   0.155   0.939
 6295TIP3   OH218890   2.899   2.492   2.340
 6295TIP3    H118891   2.889   2.496   2.245
 6295TIP3    H218892   2.970   2.429   2.354
 6296TIP3   OH218893   3.410   0.295   1.219
 6296TIP3    H118894   3.437   0.346   1.142
 6296TIP3    H218895   3.407   0.358   1.290
 6297TIP3   OH218896   4.689   0.166   4.423
 6297TIP3    H118897   4.618   0.183   4.485
 6297TIP3    H218898   4.724   0.080   4.450
 6298TIP3   OH218899   1.556   2.949   4.235
 6298TIP3    H118900   1.639   2.997   4.236
 6298TIP3    H218901   1.540   2.928   4.327
 6299TIP3   OH218902   6.323   1.810   3.441
 6299TIP3    H118903   6.276   1.820   3.524
 6299TIP3    H218904   6.362   1.896   3.425
 6300TIP3   OH218905   1.028   1.041   4.991
 6300TIP3    H118906   0.954   1.099   5.010
 6300TIP3    H218907   1.071   1.081   4.916
 6301TIP3   OH218908   2.033   5.468   4.524
 6301TIP3    H118909   2.070   5.381   4.536
 6301TIP3    H218910   2.055   5.491   4.434
 6302TIP3   OH218911   2.590   1.720   4.957
 6302TIP3    H118912   2.530   1.657   4.918
 6302TIP3    H218913   2.661   1.667   4.993
 6303TIP3   OH218914   5.012   1.659   1.209
 6303TIP3    H118915   5.054   1.722   1.151
 6303TIP3    H218916   5.063   1.663   1.290
 6304TIP3   OH218917   3.361   0.501   2.672
 6304TIP3    H118918   3.450   0.503   2.709
 6304TIP3    H218919   3.373   0.525   2.580
 6305TIP3   OH218920   5.367   0.006   5.039
 6305TIP3    H118921   5.289   0.027   4.987
 6305TIP3    H218922   5.427   0.079   5.021
 6306TIP3   OH218923   3.195   5.232   0.716
 6306TIP3    H118924   3.282   5.218   0.751
 6306TIP3    H218925   3.209   5.281   0.635
 6307TIP3   OH218926   5.305   5.047   2.830
 6307TIP3    H118927   5.238   5.065   2.764
 6307TIP3    H218928   5.256   5.032   2.910
 6308TIP3   OH218929   5.194   4.910   2.442
 6308TIP3    H118930   5.257   4.925   2.372
 6308TIP3    H218931   5.214   4.822   2.474
 6309TIP3   OH218932   1.314   1.049   0.117
 6309TIP3    H118933   1.360   0.973   0.081
 6309TIP3    H218934   1.227   1.046   0.075
 6310TIP3   OH218935   2.815   2.800   0.118
 6310TIP3    H118936   2.830   2.894   0.132
 6310TIP3    H218937   2.903   2.761   0.122
 6311TIP3   OH218938   1.199   4.740   2.418
 6311TIP3    H118939   1.197   4.733   2.322
 6311TIP3    H218940   1.107   4.751   2.443
 6312TIP3   OH218941   1.546   5.974   1.340
 6312TIP3    H118942   1.540   5.903   1.276
 6312TIP3    H218943   1.567   6.051   1.288
 6313TIP3   OH218944   3.084   1.229   1.797
 6313TIP3    H118945   3.076   1.161   1.730
 6313TIP3    H218946   3.051   1.189   1.877
 6314TIP3   OH218947   0.391   5.408   3.546
 6314TIP3    H118948   0.484   5.396   3.567
 6314TIP3    H218949   0.371   5.495   3.580
 6315TIP3   OH218950   5.615   3.684   1.766
 6315TIP3    H118951   5.583   3.665   1.854
 6315TIP3    H218952   5.704   3.648   1.764
 6316TIP3   OH218953   2.444   2.253   4.202
 6316TIP3    H118954   2.402   2.314   4.142
 6316TIP3    H218955   2.518   2.301   4.239
 6317TIP3   OH218956   0.655   3.081   3.064
 6317TIP3    H118957   0.657   3.001   3.012
 6317TIP3    H218958   0.731   3.074   3.122
 6318TIP3   OH218959   3.406   2.556   3.169
 6318TIP3    H118960   3.388   2.648   3.185
 6318TIP3    H218961   3.434   2.522   3.254
 6319TIP3   OH218962   2.128   4.091   1.860
 6319TIP3    H118963   2.191   4.036   1.906
 6319TIP3    H218964   2.137   4.177   1.901
 6320TIP3   OH218965   1.697   5.887   0.115
 6320TIP3    H118966   1.732   5.872   0.027
 6320TIP3    H218967   1.622   5.828   0.121
 6321TIP3   OH218968   0.439   0.608   4.126
 6321TIP3    H118969   0.385   0.619   4.204
 6321TIP3    H218970   0.497   0.535   4.148
 6322TIP3   OH218971   2.987   5.028   0.636
 6322TIP3    H118972   3.002   5.031   0.541
 6322TIP3    H218973   3.055   5.084   0.673
 6323TIP3   OH218974   2.004   0.881   2.545
 6323TIP3    H118975   1.971   0.926   2.468
 6323TIP3    H218976   1.925   0.860   2.596
 6324TIP3   OH218977   6.162   3.426   2.932
 6324TIP3    H118978   6.165   3.331   2.933
 6324TIP3    H218979   6.109   3.450   3.008
 6325TIP3   OH218980   5.667   0.459   5.032
 6325TIP3    H118981   5.624   0.544   5.033
 6325TIP3    H218982   5.746   0.472   4.980
 6326TIP3   OH218983   4.018   3.424   4.306
 6326TIP3    H118984   3.973   3.343   4.282
 6326TIP3    H218985   4.069   3.402   4.384
 6327TIP3   OH218986   4.068   2.934   3.760
 6327TIP3    H118987   4.010   2.943   3.836
 6327TIP3    H218988   4.155   2.953   3.795
 6328TIP3   OH218989   4.585   5.213   0.329
 6328TIP3    H118990   4.534   5.261   0.394
 6328TIP3    H218991   4.570   5.120   0.350
 6329TIP3   OH218992   4.179   0.918   2.916
 6329TIP3    H118993   4.217   0.956   2.995
 6329TIP3    H218994   4.171   0.991   2.855
 6330TIP3   OH218995   3.165   3.474   2.189
 6330TIP3    H118996   3.138   3.382   2.192
 6330TIP3    H218997   3.247   3.474   2.140
 6331TIP3   OH218998   1.363   0.753   3.432
 6331TIP3    H118999   1.346   0.731   3.523
 6331TIP3    H219000   1.396   0.843   3.435
 6332TIP3   OH219001   0.825   3.241   1.035
 6332TIP3    H119002   0.737   3.252   0.997
 6332TIP3    H219003   0.883   3.287   0.976
 6333TIP3   OH219004   4.718   0.572   1.161
 6333TIP3    H119005   4.755   0.538   1.080
 6333TIP3    H219006   4.778   0.540   1.229
 6334TIP3   OH219007   3.782   3.812   1.886
 6334TIP3    H119008   3.855   3.866   1.917
 6334TIP3    H219009   3.709   3.836   1.942
 6335TIP3   OH219010   3.514   5.959   0.764
 6335TIP3    H119011   3.588   5.996   0.812
 6335TIP3    H219012   3.546   5.946   0.675
 6336TIP3   OH219013   3.456   2.465   4.844
 6336TIP3    H119014   3.399   2.435   4.915
 6336TIP3    H219015   3.514   2.392   4.826
 6337TIP3   OH219016   2.208   1.515   4.593
 6337TIP3    H119017   2.294   1.549   4.618
 6337TIP3    H219018   2.216   1.494   4.500
 6338TIP3   OH219019   6.190   5.726   3.652
 6338TIP3    H119020   6.119   5.665   3.671
 6338TIP3    H219021   6.202   5.721   3.557
 6339TIP3   OH219022   1.746   2.274   0.810
 6339TIP3    H119023   1.753   2.206   0.743
 6339TIP3    H219024   1.774   2.354   0.766
 6340TIP3   OH219025   5.225   4.204   0.462
 6340TIP3    H119026   5.295   4.254   0.504
 6340TIP3    H219027   5.197   4.142   0.529
 6341TIP3   OH219028   5.533   4.156   3.630
 6341TIP3    H119029   5.475   4.127   3.700
 6341TIP3    H219030   5.603   4.204   3.674
 6342TIP3   OH219031   1.195   1.029   0.568
 6342TIP3    H119032   1.168   0.973   0.641
 6342TIP3    H219033   1.121   1.088   0.554
 6343TIP3   OH219034   5.013   5.965   2.400
 6343TIP3    H119035   5.104   5.989   2.418
 6343TIP3    H219036   4.962   6.013   2.464
 6344TIP3   OH219037   5.944   5.093   2.122
 6344TIP3    H119038   6.025   5.095   2.174
 6344TIP3    H219039   5.974   5.068   2.034
 6345TIP3   OH219040   5.738   4.063   1.523
 6345TIP3    H119041   5.799   3.992   1.500
 6345TIP3    H219042   5.792   4.124   1.574
 6346TIP3   OH219043   6.317   0.836   2.663
 6346TIP3    H119044   6.282   0.913   2.708
 6346TIP3    H219045   6.397   0.815   2.711
 6347TIP3   OH219046   5.834   1.365   2.032
 6347TIP3    H119047   5.905   1.412   1.988
 6347TIP3    H219048   5.878   1.308   2.095
 6348TIP3   OH219049   1.634   0.654   1.678
 6348TIP3    H119050   1.631   0.630   1.586
 6348TIP3    H219051   1.715   0.703   1.688
 6349TIP3   OH219052   5.994   5.609   4.612
 6349TIP3    H119053   6.008   5.704   4.611
 6349TIP3    H219054   6.007   5.582   4.522
 6350TIP3   OH219055   0.653   4.463   1.795
 6350TIP3    H119056   0.684   4.530   1.856
 6350TIP3    H219057   0.564   4.492   1.772
 6351TIP3   OH219058   3.902   1.869   3.045
 6351TIP3    H119059   3.988   1.910   3.048
 6351TIP3    H219060   3.903   1.805   3.117
 6352TIP3   OH219061   0.897   0.980   2.325
 6352TIP3    H119062   0.885   1.014   2.414
 6352TIP3    H219063   0.895   0.885   2.336
 6353TIP3   OH219064   4.457   4.114   2.694
 6353TIP3    H119065   4.417   4.193   2.730
 6353TIP3    H219066   4.396   4.044   2.718
 6354TIP3   OH219067   2.247   0.414   2.703
 6354TIP3    H119068   2.226   0.398   2.611
 6354TIP3    H219069   2.168   0.454   2.739
 6355TIP3   OH219070   0.801   1.879   0.413
 6355TIP3    H119071   0.831   1.962   0.377
 6355TIP3    H219072   0.755   1.904   0.493
 6356TIP3   OH219073   3.387   3.084   1.641
 6356TIP3    H119074   3.334   3.051   1.569
 6356TIP3    H219075   3.328   3.143   1.689
 6357TIP3   OH219076   5.827   2.070   1.492
 6357TIP3    H119077   5.846   2.163   1.483
 6357TIP3    H219078   5.859   2.047   1.579
 6358TIP3   OH219079   5.901   4.753   4.317
 6358TIP3    H119080   5.840   4.679   4.319
 6358TIP3    H219081   5.942   4.752   4.404
 6359TIP3   OH219082   6.166   5.232   0.691
 6359TIP3    H119083   6.129   5.306   0.739
 6359TIP3    H219084   6.160   5.257   0.599
 6360TIP3   OH219085   1.188   4.900   1.513
 6360TIP3    H119086   1.130   4.850   1.455
 6360TIP3    H219087   1.128   4.950   1.569
 6361TIP3   OH219088   5.868   3.586   1.753
 6361TIP3    H119089   5.929   3.573   1.681
 6361TIP3    H219090   5.905   3.658   1.805
 6362TIP3   OH219091   2.585   4.107   3.724
 6362TIP3    H119092   2.539   4.030   3.758
 6362TIP3    H219093   2.662   4.115   3.781
 6363TIP3   OH219094   4.895   3.718   5.004
 6363TIP3    H119095   4.971   3.661   4.990
 6363TIP3    H219096   4.917   3.798   4.955
 6364TIP3   OH219097   3.303   4.537   3.392
 6364TIP3    H119098   3.238   4.554   3.460
 6364TIP3    H219099   3.382   4.512   3.441
 6365TIP3   OH219100   3.939   5.167   4.542
 6365TIP3    H119101   3.875   5.096   4.553
 6365TIP3    H219102   4.022   5.122   4.527
 6366TIP3   OH219103   1.705   1.060   2.119
 6366TIP3    H119104   1.620   1.096   2.144
 6366TIP3    H219105   1.686   0.972   2.087
 6367TIP3   OH219106   0.087   4.432   4.707
 6367TIP3    H119107   0.074   4.362   4.643
 6367TIP3    H219108   0.068   4.391   4.791
 6368TIP3   OH219109   4.241   4.939   4.922
 6368TIP3    H119110   4.285   4.972   4.844
 6368TIP3    H219111   4.291   4.861   4.946
 6369TIP3   OH219112   2.219   3.165   2.344
 6369TIP3    H119113   2.289   3.207   2.395
 6369TIP3    H219114   2.191   3.231   2.281
 6370TIP3   OH219115   1.531   3.837   4.252
 6370TIP3    H119116   1.533   3.757   4.305
 6370TIP3    H219117   1.441   3.870   4.261
 6371TIP3   OH219118   1.821   1.448   1.752
 6371TIP3    H119119   1.774   1.419   1.830
 6371TIP3    H219120   1.794   1.386   1.684
 6372TIP3   OH219121   0.710   4.095   2.637
 6372TIP3    H119122   0.646   4.087   2.708
 6372TIP3    H219123   0.663   4.067   2.559
 6373TIP3   OH219124   2.278   0.251   0.675
 6373TIP3    H119125   2.351   0.205   0.717
 6373TIP3    H219126   2.304   0.256   0.583
 6374TIP3   OH219127   2.486   2.131   2.920
 6374TIP3    H119128   2.521   2.056   2.967
 6374TIP3    H219129   2.392   2.130   2.938
 6375TIP3   OH219130   2.324   0.705   1.150
 6375TIP3    H119131   2.418   0.721   1.142
 6375TIP3    H219132   2.291   0.712   1.060
 6376TIP3   OH219133   3.112   3.004   4.108
 6376TIP3    H119134   3.183   2.942   4.094
 6376TIP3    H219135   3.144   3.085   4.068
 6377TIP3   OH219136   0.308   4.082   2.559
 6377TIP3    H119137   0.240   4.119   2.503
 6377TIP3    H219138   0.366   4.156   2.579
 6378TIP3   OH219139   2.502   0.772   4.538
 6378TIP3    H119140   2.517   0.866   4.524
 6378TIP3    H219141   2.459   0.742   4.458
 6379TIP3   OH219142   4.162   3.397   2.667
 6379TIP3    H119143   4.227   3.335   2.633
 6379TIP3    H219144   4.098   3.405   2.596
 6380TIP3   OH219145   6.214   4.452   1.974
 6380TIP3    H119146   6.150   4.500   2.027
 6380TIP3    H219147   6.225   4.369   2.019
 6381TIP3   OH219148   0.891   5.014   0.940
 6381TIP3    H119149   0.925   5.089   0.891
 6381TIP3    H219150   0.834   5.052   1.006
 6382TIP3   OH219151   5.505   4.537   3.417
 6382TIP3    H119152   5.500   4.533   3.512
 6382TIP3    H219153   5.467   4.622   3.394
 6383TIP3   OH219154   1.664   5.542   1.691
 6383TIP3    H119155   1.730   5.506   1.632
 6383TIP3    H219156   1.608   5.596   1.636
 6384TIP3   OH219157   2.442   0.066   1.947
 6384TIP3    H119158   2.425   0.159   1.964
 6384TIP3    H219159   2.356   0.025   1.954
 6385TIP3   OH219160   0.849   0.382   3.873
 6385TIP3    H119161   0.815   0.469   3.892
 6385TIP3    H219162   0.774   0.335   3.836
 6386TIP3   OH219163   1.322   3.247   3.190
 6386TIP3    H119164   1.381   3.320   3.208
 6386TIP3    H219165   1.324   3.237   3.094
 6387TIP3   OH219166   3.827   4.080   3.650
 6387TIP3    H119167   3.826   4.062   3.556
 6387TIP3    H219168   3.918   4.102   3.670
 6388TIP3   OH219169   2.313   0.194   1.294
 6388TIP3    H119170   2.250   0.156   1.233
 6388TIP3    H219171   2.346   0.271   1.248
 6389TIP3   OH219172   0.397   3.889   4.881
 6389TIP3    H119173   0.458   3.962   4.876
 6389TIP3    H219174   0.346   3.906   4.960
 6390TIP3   OH219175   2.755   1.075   0.925
 6390TIP3    H119176   2.667   1.038   0.927
 6390TIP3    H219177   2.796   1.045   1.006
 6391TIP3   OH219178   3.726   5.093   3.010
 6391TIP3    H119179   3.764   5.165   2.960
 6391TIP3    H219180   3.692   5.134   3.089
 6392TIP3   OH219181   3.883   0.780   0.973
 6392TIP3    H119182   3.854   0.694   1.002
 6392TIP3    H219183   3.977   0.781   0.993
 6393TIP3   OH219184   6.014   3.828   3.814
 6393TIP3    H119185   6.073   3.810   3.887
 6393TIP3    H219186   5.960   3.902   3.844
 6394TIP3   OH219187   2.378   4.491   3.504
 6394TIP3    H119188   2.415   4.530   3.583
 6394TIP3    H219189   2.418   4.539   3.432
 6395TIP3   OH219190   1.214   4.461   4.099
 6395TIP3    H119191   1.134   4.445   4.150
 6395TIP3    H219192   1.279   4.487   4.164
 6396TIP3   OH219193   5.093   3.365   2.390
 6396TIP3    H119194   5.001   3.354   2.370
 6396TIP3    H219195   5.097   3.362   2.486
 6397TIP3   OH219196   2.861   2.119   4.987
 6397TIP3    H119197   2.789   2.056   4.977
 6397TIP3    H219198   2.832   2.195   4.936
 6398TIP3   OH219199   2.352   3.543   3.100
 6398TIP3    H119200   2.334   3.514   3.010
 6398TIP3    H219201   2.443   3.573   3.098
 6399TIP3   OH219202   4.223   3.371   3.884
 6399TIP3    H119203   4.252   3.284   3.857
 6399TIP3    H219204   4.291   3.401   3.945
 6400TIP3   OH219205   3.386   4.496   1.653
 6400TIP3    H119206   3.329   4.470   1.581
 6400TIP3    H219207   3.423   4.580   1.627
 6401TIP3   OH219208   5.455   5.712   3.736
 6401TIP3    H119209   5.520   5.760   3.787
 6401TIP3    H219210   5.377   5.767   3.739
 6402TIP3   OH219211   5.039   3.626   2.618
 6402TIP3    H119212   5.126   3.588   2.632
 6402TIP3    H219213   5.056   3.716   2.590
 6403TIP3   OH219214   4.630   0.821   1.231
 6403TIP3    H119215   4.624   0.876   1.152
 6403TIP3    H219216   4.649   0.734   1.198
 6404TIP3   OH219217   3.781   4.359   0.030
 6404TIP3    H119218   3.802   4.267   0.017
 6404TIP3    H219219   3.860   4.396   0.072
 6405TIP3   OH219220   1.930   4.160   2.240
 6405TIP3    H119221   1.872   4.109   2.183
 6405TIP3    H219222   1.870   4.213   2.293
 6406TIP3   OH219223   0.279   4.674   3.009
 6406TIP3    H119224   0.312   4.750   2.961
 6406TIP3    H219225   0.241   4.618   2.941
 6407TIP3   OH219226   0.474   4.635   1.275
 6407TIP3    H119227   0.513   4.564   1.327
 6407TIP3    H219228   0.545   4.663   1.216
 6408TIP3   OH219229   1.580   2.944   0.228
 6408TIP3    H119230   1.596   2.849   0.231
 6408TIP3    H219231   1.626   2.973   0.149
 6409TIP3   OH219232   1.124   5.491   4.419
 6409TIP3    H119233   1.129   5.542   4.499
 6409TIP3    H219234   1.031   5.491   4.396
 6410TIP3   OH219235   2.605   5.791   2.206
 6410TIP3    H119236   2.579   5.881   2.190
 6410TIP3    H219237   2.673   5.773   2.141
 6411TIP3   OH219238   1.057   4.661   0.284
 6411TIP3    H119239   0.992   4.714   0.239
 6411TIP3    H219240   1.123   4.724   0.313
 6412TIP3   OH219241   1.178   2.961   1.815
 6412TIP3    H119242   1.254   3.015   1.791
 6412TIP3    H219243   1.163   2.905   1.739
 6413TIP3   OH219244   0.642   1.895   1.664
 6413TIP3    H119245   0.665   1.845   1.586
 6413TIP3    H219246   0.556   1.931   1.646
 6414TIP3   OH219247   2.702   3.573   4.800
 6414TIP3    H119248   2.793   3.570   4.828
 6414TIP3    H219249   2.668   3.654   4.838
 6415TIP3   OH219250   1.450   5.783   3.770
 6415TIP3    H119251   1.460   5.702   3.720
 6415TIP3    H219252   1.480   5.761   3.858
 6416TIP3   OH219253   4.147   4.237   2.044
 6416TIP3    H119254   4.106   4.277   1.967
 6416TIP3    H219255   4.079   4.180   2.081
 6417TIP3   OH219256   3.087   3.141   2.959
 6417TIP3    H119257   3.082   3.147   2.863
 6417TIP3    H219258   3.014   3.083   2.982
 6418TIP3   OH219259   3.701   3.742   4.068
 6418TIP3    H119260   3.696   3.705   3.980
 6418TIP3    H219261   3.785   3.713   4.102
 6419TIP3   OH219262   2.015   4.782   0.488
 6419TIP3    H119263   2.067   4.736   0.554
 6419TIP3    H219264   1.933   4.733   0.483
 6420TIP3   OH219265   3.782   4.671   0.265
 6420TIP3    H119266   3.848   4.648   0.200
 6420TIP3    H219267   3.774   4.592   0.318
 6421TIP3   OH219268   4.152   3.498   1.657
 6421TIP3    H119269   4.171   3.510   1.750
 6421TIP3    H219270   4.089   3.566   1.636
 6422TIP3   OH219271   0.207   5.569   3.320
 6422TIP3    H119272   0.225   5.663   3.311
 6422TIP3    H219273   0.215   5.535   3.231
 6423TIP3   OH219274   2.025   3.941   1.138
 6423TIP3    H119275   1.951   3.892   1.103
 6423TIP3    H219276   2.006   4.032   1.115
 6424TIP3   OH219277   1.231   3.739   0.391
 6424TIP3    H119278   1.149   3.750   0.342
 6424TIP3    H219279   1.255   3.648   0.377
 6425TIP3   OH219280   5.676   4.630   3.873
 6425TIP3    H119281   5.771   4.630   3.861
 6425TIP3    H219282   5.663   4.628   3.967
 6426TIP3   OH219283   5.993   2.090   2.210
 6426TIP3    H119284   6.039   2.066   2.130
 6426TIP3    H219285   5.942   2.012   2.233
 6427TIP3   OH219286   2.893   5.586   2.584
 6427TIP3    H119287   2.856   5.498   2.583
 6427TIP3    H219288   2.829   5.640   2.537
 6428TIP3   OH219289   3.255   0.258   2.741
 6428TIP3    H119290   3.265   0.350   2.717
 6428TIP3    H219291   3.306   0.211   2.675
 6429TIP3   OH219292   3.708   3.463   0.661
 6429TIP3    H119293   3.749   3.549   0.672
 6429TIP3    H219294   3.721   3.442   0.568
 6430TIP3   OH219295   4.042   5.472   4.500
 6430TIP3    H119296   3.970   5.411   4.482
 6430TIP3    H219297   4.121   5.422   4.482
 6431TIP3   OH219298   0.092   2.383   4.169
 6431TIP3    H119299   0.125   2.327   4.099
 6431TIP3    H219300   0.167   2.437   4.195
 6432TIP3   OH219301   0.762   5.313   3.239
 6432TIP3    H119302   0.763   5.240   3.177
 6432TIP3    H219303   0.686   5.366   3.213
 6433TIP3   OH219304   4.079   2.618   1.109
 6433TIP3    H119305   4.009   2.555   1.091
 6433TIP3    H219306   4.110   2.646   1.023
 6434TIP3   OH219307   5.208   2.803   3.469
 6434TIP3    H119308   5.285   2.795   3.412
 6434TIP3    H219309   5.240   2.846   3.548
 6435TIP3   OH219310   1.428   0.873   4.988
 6435TIP3    H119311   1.519   0.873   5.018
 6435TIP3    H219312   1.413   0.783   4.957
 6436TIP3   OH219313   0.735   3.980   1.783
 6436TIP3    H119314   0.663   3.933   1.824
 6436TIP3    H219315   0.726   4.070   1.815
 6437TIP3   OH219316   0.215   5.426   1.008
 6437TIP3    H119317   0.157   5.371   1.060
 6437TIP3    H219318   0.156   5.472   0.948
 6438TIP3   OH219319   5.024   0.515   2.920
 6438TIP3    H119320   4.989   0.427   2.935
 6438TIP3    H219321   5.057   0.542   3.006
 6439TIP3   OH219322   2.026   0.008   2.469
 6439TIP3    H119323   2.073  -0.066   2.432
 6439TIP3    H219324   2.064   0.019   2.557
 6440TIP3   OH219325   5.317   3.536   4.972
 6440TIP3    H119326   5.293   3.601   5.038
 6440TIP3    H219327   5.387   3.577   4.923
 6441TIP3   OH219328   2.849   3.866   2.623
 6441TIP3    H119329   2.851   3.886   2.716
 6441TIP3    H219330   2.814   3.945   2.582
 6442TIP3   OH219331   5.156   2.914   2.034
 6442TIP3    H119332   5.144   2.996   2.082
 6442TIP3    H219333   5.067   2.881   2.021
 6443TIP3   OH219334   2.368   3.694   4.725
 6443TIP3    H119335   2.408   3.702   4.811
 6443TIP3    H219336   2.292   3.638   4.738
 6444TIP3   OH219337   1.064   1.699   0.903
 6444TIP3    H119338   1.002   1.635   0.869
 6444TIP3    H219339   1.028   1.784   0.879
 6445TIP3   OH219340   1.654   3.587   1.682
 6445TIP3    H119341   1.697   3.599   1.767
 6445TIP3    H219342   1.613   3.501   1.687
 6446TIP3   OH219343   2.197   1.580   0.547
 6446TIP3    H119344   2.256   1.639   0.595
 6446TIP3    H219345   2.212   1.495   0.588
 6447TIP3   OH219346   5.567   4.377   1.542
 6447TIP3    H119347   5.540   4.322   1.616
 6447TIP3    H219348   5.530   4.463   1.561
 6448TIP3   OH219349   4.156   0.237   3.512
 6448TIP3    H119350   4.111   0.301   3.567
 6448TIP3    H219351   4.226   0.202   3.568
 6449TIP3   OH219352   3.485   3.592   3.068
 6449TIP3    H119353   3.447   3.534   3.134
 6449TIP3    H219354   3.575   3.562   3.058
 6450TIP3   OH219355   6.141   4.914   1.008
 6450TIP3    H119356   6.230   4.892   1.035
 6450TIP3    H219357   6.089   4.909   1.089
 6451TIP3   OH219358   1.811   1.351   0.803
 6451TIP3    H119359   1.781   1.298   0.729
 6451TIP3    H219360   1.902   1.371   0.783
 6452TIP3   OH219361   1.147   0.831   3.252
 6452TIP3    H119362   1.238   0.808   3.271
 6452TIP3    H219363   1.119   0.882   3.327
 6453TIP3   OH219364   1.809   5.931   0.701
 6453TIP3    H119365   1.860   6.002   0.662
 6453TIP3    H219366   1.733   5.920   0.643
 6454TIP3   OH219367   0.079   2.076   3.747
 6454TIP3    H119368   0.161   2.126   3.743
 6454TIP3    H219369   0.015   2.133   3.703
 6455TIP3   OH219370   0.237   1.054   0.250
 6455TIP3    H119371   0.312   1.106   0.220
 6455TIP3    H219372   0.261   0.964   0.229
 6456TIP3   OH219373   1.209   0.761   1.009
 6456TIP3    H119374   1.129   0.735   1.056
 6456TIP3    H219375   1.260   0.809   1.074
 6457TIP3   OH219376   2.160   1.867   1.706
 6457TIP3    H119377   2.227   1.826   1.651
 6457TIP3    H219378   2.126   1.795   1.759
 6458TIP3   OH219379   3.223   2.102   0.551
 6458TIP3    H119380   3.144   2.106   0.605
 6458TIP3    H219381   3.218   2.180   0.496
 6459TIP3   OH219382   1.928   0.377   2.531
 6459TIP3    H119383   1.908   0.305   2.471
 6459TIP3    H219384   1.982   0.437   2.480
 6460TIP3   OH219385   5.655   5.663   4.746
 6460TIP3    H119386   5.561   5.667   4.727
 6460TIP3    H219387   5.693   5.622   4.669
 6461TIP3   OH219388   6.058   0.464   1.052
 6461TIP3    H119389   6.002   0.452   0.976
 6461TIP3    H219390   6.015   0.532   1.103
 6462TIP3   OH219391   6.347   1.426   5.139
 6462TIP3    H119392   6.374   1.335   5.128
 6462TIP3    H219393   6.253   1.421   5.157
 6463TIP3   OH219394   3.114   0.599   3.828
 6463TIP3    H119395   3.112   0.672   3.766
 6463TIP3    H219396   3.188   0.545   3.799
 6464TIP3   OH219397   5.332   3.078   2.701
 6464TIP3    H119398   5.414   3.033   2.722
 6464TIP3    H219399   5.268   3.040   2.761
 6465TIP3   OH219400   0.163   1.836   4.375
 6465TIP3    H119401   0.147   1.902   4.444
 6465TIP3    H219402   0.077   1.820   4.337
 6466TIP3   OH219403   2.570   2.584   0.444
 6466TIP3    H119404   2.518   2.522   0.393
 6466TIP3    H219405   2.601   2.533   0.519
 6467TIP3   OH219406   2.042   4.271   1.015
 6467TIP3    H119407   1.988   4.336   0.971
 6467TIP3    H219408   2.048   4.300   1.106
 6468TIP3   OH219409   2.663   2.428   4.110
 6468TIP3    H119410   2.726   2.471   4.052
 6468TIP3    H219411   2.656   2.339   4.076
 6469TIP3   OH219412   0.143   2.699   0.429
 6469TIP3    H119413   0.145   2.608   0.458
 6469TIP3    H219414   0.233   2.718   0.403
 6470TIP3   OH219415   3.451   5.511   0.746
 6470TIP3    H119416   3.426   5.484   0.657
 6470TIP3    H219417   3.420   5.441   0.802
 6471TIP3   OH219418   1.211   2.060   3.089
 6471TIP3    H119419   1.223   1.972   3.053
 6471TIP3    H219420   1.269   2.063   3.164
 6472TIP3   OH219421   1.395   5.171   0.203
 6472TIP3    H119422   1.300   5.178   0.201
 6472TIP3    H219423   1.414   5.087   0.162
 6473TIP3   OH219424   0.357   2.240   0.473
 6473TIP3    H119425   0.316   2.154   0.464
 6473TIP3    H219426   0.434   2.235   0.416
 6474TIP3   OH219427   2.220   1.159   2.310
 6474TIP3    H119428   2.265   1.098   2.252
 6474TIP3    H219429   2.175   1.103   2.374
 6475TIP3   OH219430   1.577   0.253   4.653
 6475TIP3    H119431   1.619   0.300   4.725
 6475TIP3    H219432   1.649   0.232   4.593
 6476TIP3   OH219433   0.377   0.244   3.591
 6476TIP3    H119434   0.350   0.171   3.537
 6476TIP3    H219435   0.450   0.284   3.544
 6477TIP3   OH219436   0.708   2.092   1.029
 6477TIP3    H119437   0.738   2.146   1.102
 6477TIP3    H219438   0.685   2.008   1.070
 6478TIP3   OH219439   2.815   1.897   2.564
 6478TIP3    H119440   2.768   1.980   2.564
 6478TIP3    H219441   2.746   1.830   2.561
 6479TIP3   OH219442   2.524   3.621   2.232
 6479TIP3    H119443   2.563   3.658   2.153
 6479TIP3    H219444   2.581   3.650   2.303
 6480TIP3   OH219445   3.414   4.573   4.260
 6480TIP3    H119446   3.355   4.548   4.331
 6480TIP3    H219447   3.493   4.604   4.304
 6481TIP3   OH219448   1.202   4.569   3.441
 6481TIP3    H119449   1.179   4.610   3.358
 6481TIP3    H219450   1.127   4.515   3.463
 6482TIP3   OH219451   5.158   2.243   1.230
 6482TIP3    H119452   5.117   2.159   1.252
 6482TIP3    H219453   5.192   2.230   1.142
 6483TIP3   OH219454   2.099   5.912   2.564
 6483TIP3    H119455   2.033   5.862   2.612
 6483TIP3    H219456   2.181   5.898   2.613
 6484TIP3   OH219457   4.481   0.509   1.771
 6484TIP3    H119458   4.501   0.464   1.854
 6484TIP3    H219459   4.406   0.564   1.792
 6485TIP3   OH219460   4.415   1.717   2.879
 6485TIP3    H119461   4.347   1.784   2.885
 6485TIP3    H219462   4.367   1.634   2.870
 6486TIP3   OH219463   4.599   4.352   2.828
 6486TIP3    H119464   4.603   4.444   2.801
 6486TIP3    H219465   4.620   4.303   2.748
 6487TIP3   OH219466   5.209   0.253   2.888
 6487TIP3    H119467   5.115   0.268   2.878
 6487TIP3    H219468   5.247   0.277   2.803
 6488TIP3   OH219469   3.437   3.605   4.108
 6488TIP3    H119470   3.475   3.525   4.144
 6488TIP3    H219471   3.504   3.672   4.121
 6489TIP3   OH219472   1.485   5.602   2.381
 6489TIP3    H119473   1.562   5.627   2.432
 6489TIP3    H219474   1.468   5.677   2.324
 6490TIP3   OH219475   6.217   5.432   3.388
 6490TIP3    H119476   6.257   5.458   3.304
 6490TIP3    H219477   6.149   5.497   3.403
 6491TIP3   OH219478   1.981   4.530   4.867
 6491TIP3    H119479   1.989   4.579   4.949
 6491TIP3    H219480   2.068   4.494   4.852
 6492TIP3   OH219481   1.129   4.624   2.881
 6492TIP3    H119482   1.119   4.539   2.925
 6492TIP3    H219483   1.221   4.647   2.896
 6493TIP3   OH219484   1.547   3.559   4.879
 6493TIP3    H119485   1.481   3.612   4.924
 6493TIP3    H219486   1.577   3.497   4.946
 6494TIP3   OH219487   3.106   5.508   3.303
 6494TIP3    H119488   3.183   5.452   3.310
 6494TIP3    H219489   3.139   5.588   3.262
 6495TIP3   OH219490   1.027   1.313   2.653
 6495TIP3    H119491   1.015   1.374   2.581
 6495TIP3    H219492   1.109   1.340   2.694
 6496TIP3   OH219493   1.259   4.395   5.083
 6496TIP3    H119494   1.248   4.482   5.044
 6496TIP3    H219495   1.199   4.339   5.034
 6497TIP3   OH219496   3.725   3.767   3.639
 6497TIP3    H119497   3.697   3.723   3.719
 6497TIP3    H219498   3.738   3.858   3.665
 6498TIP3   OH219499   0.868   0.854   0.818
 6498TIP3    H119500   0.868   0.807   0.901
 6498TIP3    H219501   0.775   0.860   0.793
 6499TIP3   OH219502   1.039   0.383   0.119
 6499TIP3    H119503   1.130   0.387   0.150
 6499TIP3    H219504   1.046   0.390   0.024
 6500TIP3   OH219505   0.470   5.579   4.194
 6500TIP3    H119506   0.510   5.502   4.155
 6500TIP3    H219507   0.455   5.639   4.121
 6501TIP3   OH219508   1.625   3.866   2.299
 6501TIP3    H119509   1.619   3.950   2.254
 6501TIP3    H219510   1.591   3.883   2.386
 6502TIP3   OH219511   1.634   0.083   3.717
 6502TIP3    H119512   1.551   0.055   3.680
 6502TIP3    H219513   1.675   0.002   3.748
 6503TIP3   OH219514   6.266   1.257   2.918
 6503TIP3    H119515   6.238   1.278   3.008
 6503TIP3    H219516   6.281   1.343   2.878
 6504TIP3   OH219517   1.929   2.003   1.749
 6504TIP3    H119518   1.982   2.073   1.786
 6504TIP3    H219519   1.992   1.939   1.716
 6505TIP3   OH219520   2.233   5.989   2.915
 6505TIP3    H119521   2.161   5.960   2.860
 6505TIP3    H219522   2.301   5.923   2.903
 6506TIP3   OH219523   0.606   0.884   2.510
 6506TIP3    H119524   0.608   0.935   2.591
 6506TIP3    H219525   0.687   0.833   2.511
 6507TIP3   OH219526   5.509   5.086   3.237
 6507TIP3    H119527   5.515   5.123   3.149
 6507TIP3    H219528   5.509   5.162   3.295
 6508TIP3   OH219529   1.059   3.997   1.648
 6508TIP3    H119530   1.125   3.950   1.697
 6508TIP3    H219531   1.021   3.931   1.589
 6509TIP3   OH219532   6.214   3.490   1.218
 6509TIP3    H119533   6.157   3.418   1.192
 6509TIP3    H219534   6.202   3.498   1.313
 6510TIP3   OH219535   1.139   1.750   3.393
 6510TIP3    H119536   1.085   1.786   3.463
 6510TIP3    H219537   1.085   1.757   3.314
 6511TIP3   OH219538   4.736   2.763   3.009
 6511TIP3    H119539   4.796   2.738   3.078
 6511TIP3    H219540   4.787   2.759   2.928
 6512TIP3   OH219541   3.577   0.673   2.534
 6512TIP3    H119542   3.638   0.688   2.461
 6512TIP3    H219543   3.594   0.583   2.561
 6513TIP3   OH219544   3.751   4.540   2.913
 6513TIP3    H119545   3.805   4.576   2.983
 6513TIP3    H219546   3.808   4.538   2.836
 6514TIP3   OH219547   3.616   4.022   3.174
 6514TIP3    H119548   3.673   4.099   3.168
 6514TIP3    H219549   3.668   3.958   3.222
 6515TIP3   OH219550   4.772   1.962   4.991
 6515TIP3    H119551   4.715   2.032   5.023
 6515TIP3    H219552   4.780   1.903   5.066
 6516TIP3   OH219553   4.598   1.605   3.060
 6516TIP3    H119554   4.540   1.655   3.004
 6516TIP3    H219555   4.579   1.635   3.149
 6517TIP3   OH219556   3.626   5.946   2.471
 6517TIP3    H119557   3.657   6.006   2.539
 6517TIP3    H219558   3.705   5.916   2.427
 6518TIP3   OH219559   3.348   5.572   2.154
 6518TIP3    H119560   3.365   5.610   2.067
 6518TIP3    H219561   3.426   5.593   2.205
 6519TIP3   OH219562   1.927   4.980   4.497
 6519TIP3    H119563   1.917   5.046   4.565
 6519TIP3    H219564   1.914   4.896   4.542
 6520TIP3   OH219565   5.958   3.807   3.335
 6520TIP3    H119566   6.041   3.831   3.377
 6520TIP3    H219567   5.901   3.782   3.408
 6521TIP3   OH219568   4.132   3.824   4.149
 6521TIP3    H119569   4.108   3.908   4.109
 6521TIP3    H219570   4.050   3.776   4.155
 6522TIP3   OH219571   1.325   3.855   3.961
 6522TIP3    H119572   1.310   3.805   4.041
 6522TIP3    H219573   1.375   3.796   3.904
 6523TIP3   OH219574   4.870   5.834   1.856
 6523TIP3    H119575   4.879   5.881   1.940
 6523TIP3    H219576   4.948   5.779   1.852
 6524TIP3   OH219577   1.597   2.683   0.060
 6524TIP3    H119578   1.518   2.637   0.091
 6524TIP3    H219579   1.564   2.766   0.026
 6525TIP3   OH219580   0.395   4.888   2.853
 6525TIP3    H119581   0.435   4.972   2.833
 6525TIP3    H219582   0.468   4.827   2.856
 6526TIP3   OH219583   3.750   1.277   2.921
 6526TIP3    H119584   3.697   1.252   2.846
 6526TIP3    H219585   3.771   1.194   2.965
 6527TIP3   OH219586   5.780   5.397   1.671
 6527TIP3    H119587   5.802   5.478   1.717
 6527TIP3    H219588   5.705   5.361   1.719
 6528TIP3   OH219589   6.189   2.288   2.224
 6528TIP3    H119590   6.196   2.328   2.138
 6528TIP3    H219591   6.123   2.220   2.214
 6529TIP3   OH219592   4.508   1.659   0.432
 6529TIP3    H119593   4.527   1.643   0.339
 6529TIP3    H219594   4.576   1.720   0.460
 6530TIP3   OH219595   2.466   5.145   0.651
 6530TIP3    H119596   2.453   5.090   0.574
 6530TIP3    H219597   2.555   5.125   0.680
 6531TIP3   OH219598   5.919   1.910   5.000
 6531TIP3    H119599   5.997   1.951   4.961
 6531TIP3    H219600   5.951   1.828   5.037
 6532TIP3   OH219601   4.486   0.869   0.672
 6532TIP3    H119602   4.477   0.859   0.577
 6532TIP3    H219603   4.400   0.898   0.702
 6533TIP3   OH219604   6.007   0.906   0.251
 6533TIP3    H119605   6.015   0.830   0.193
 6533TIP3    H219606   6.096   0.939   0.260
 6534TIP3   OH219607   2.180   3.271   3.086
 6534TIP3    H119608   2.147   3.181   3.084
 6534TIP3    H219609   2.223   3.283   3.001
 6535TIP3   OH219610   0.167   4.117   3.600
 6535TIP3    H119611   0.189   4.030   3.565
 6535TIP3    H219612   0.183   4.177   3.527
 6536TIP3   OH219613   3.084   1.312   5.110
 6536TIP3    H119614   2.994   1.285   5.093
 6536TIP3    H219615   3.124   1.315   5.023
 6537TIP3   OH219616   0.163   1.860   1.980
 6537TIP3    H119617   0.167   1.859   1.884
 6537TIP3    H219618   0.133   1.948   2.002
 6538TIP3   OH219619   5.815   4.822   1.050
 6538TIP3    H119620   5.847   4.734   1.071
 6538TIP3    H219621   5.894   4.869   1.020
 6539TIP3   OH219622   3.943   1.472   2.536
 6539TIP3    H119623   3.874   1.434   2.482
 6539TIP3    H219624   3.897   1.508   2.612
 6540TIP3   OH219625   5.330   0.077   0.706
 6540TIP3    H119626   5.418   0.038   0.700
 6540TIP3    H219627   5.272   0.010   0.670
 6541TIP3   OH219628   0.123   4.526   3.595
 6541TIP3    H119629   0.198   4.510   3.537
 6541TIP3    H219630   0.056   4.562   3.538
 6542TIP3   OH219631   2.519   0.952   0.882
 6542TIP3    H119632   2.556   0.893   0.817
 6542TIP3    H219633   2.431   0.972   0.849
 6543TIP3   OH219634   1.971   0.247   2.888
 6543TIP3    H119635   2.008   0.315   2.832
 6543TIP3    H219636   1.883   0.278   2.908
 6544TIP3   OH219637   4.352   2.742   3.268
 6544TIP3    H119638   4.363   2.796   3.190
 6544TIP3    H219639   4.306   2.664   3.237
 6545TIP3   OH219640   4.020   5.167   2.346
 6545TIP3    H119641   4.029   5.144   2.253
 6545TIP3    H219642   4.027   5.263   2.348
 6546TIP3   OH219643   6.326   3.664   3.491
 6546TIP3    H119644   6.353   3.587   3.541
 6546TIP3    H219645   6.348   3.642   3.400
 6547TIP3   OH219646   6.355   5.014   0.626
 6547TIP3    H119647   6.291   5.084   0.641
 6547TIP3    H219648   6.343   4.990   0.535
 6548TIP3   OH219649   3.036   2.585   0.099
 6548TIP3    H119650   3.117   2.536   0.088
 6548TIP3    H219651   3.054   2.645   0.172
 6549TIP3   OH219652   4.589   1.699   4.589
 6549TIP3    H119653   4.527   1.685   4.661
 6549TIP3    H219654   4.675   1.691   4.630
 6550TIP3   OH219655   3.911   0.670   1.886
 6550TIP3    H119656   3.869   0.610   1.824
 6550TIP3    H219657   3.904   0.626   1.971
 6551TIP3   OH219658   3.331   0.088   0.849
 6551TIP3    H119659   3.263   0.021   0.847
 6551TIP3    H219660   3.387   0.063   0.923
 6552TIP3   OH219661   1.491   2.445   4.112
 6552TIP3    H119662   1.489   2.459   4.017
 6552TIP3    H219663   1.583   2.456   4.136
 6553TIP3   OH219664   0.219   1.143   0.524
 6553TIP3    H119665   0.205   1.112   0.434
 6553TIP3    H219666   0.188   1.070   0.579
 6554TIP3   OH219667   2.207   0.666   3.244
 6554TIP3    H119668   2.142   0.623   3.188
 6554TIP3    H219669   2.275   0.695   3.183
 6555TIP3   OH219670   6.155   5.224   1.178
 6555TIP3    H119671   6.220   5.199   1.113
 6555TIP3    H219672   6.076   5.177   1.152
 6556TIP3   OH219673   1.006   1.818   1.482
 6556TIP3    H119674   0.912   1.827   1.471
 6556TIP3    H219675   1.017   1.729   1.517
 6557TIP3   OH219676   5.050   2.020   4.017
 6557TIP3    H119677   5.048   1.931   4.054
 6557TIP3    H219678   5.000   2.073   4.078
 6558TIP3   OH219679   2.185   3.364   2.182
 6558TIP3    H119680   2.272   3.380   2.146
 6558TIP3    H219681   2.145   3.450   2.188
 6559TIP3   OH219682   5.265   2.369   0.704
 6559TIP3    H119683   5.180   2.404   0.734
 6559TIP3    H219684   5.246   2.330   0.619
 6560TIP3   OH219685   4.167   2.003   3.969
 6560TIP3    H119686   4.141   1.922   3.925
 6560TIP3    H219687   4.214   2.053   3.901
 6561TIP3   OH219688   1.642   5.545   3.076
 6561TIP3    H119689   1.627   5.549   2.982
 6561TIP3    H219690   1.626   5.634   3.107
 6562TIP3   OH219691   2.604   5.164   4.866
 6562TIP3    H119692   2.696   5.142   4.849
 6562TIP3    H219693   2.571   5.195   4.782
 6563TIP3   OH219694   5.928   2.739   3.714
 6563TIP3    H119695   5.981   2.795   3.770
 6563TIP3    H219696   5.955   2.762   3.625
 6564TIP3   OH219697   5.406   5.328   1.259
 6564TIP3    H119698   5.422   5.412   1.303
 6564TIP3    H219699   5.460   5.266   1.307
 6565TIP3   OH219700   4.806   3.669   3.355
 6565TIP3    H119701   4.795   3.651   3.449
 6565TIP3    H219702   4.848   3.590   3.321
 6566TIP3   OH219703   0.171   1.165   2.795
 6566TIP3    H119704   0.113   1.183   2.869
 6566TIP3    H219705   0.147   1.231   2.730
 6567TIP3   OH219706   3.088   0.325   4.306
 6567TIP3    H119707   3.116   0.398   4.361
 6567TIP3    H219708   3.142   0.251   4.335
 6568TIP3   OH219709   5.611   3.907   2.130
 6568TIP3    H119710   5.684   3.911   2.068
 6568TIP3    H219711   5.648   3.869   2.209
 6569TIP3   OH219712   4.313   2.582   4.976
 6569TIP3    H119713   4.287   2.660   5.026
 6569TIP3    H219714   4.408   2.575   4.991
 6570TIP3   OH219715   3.043   4.155   3.044
 6570TIP3    H119716   3.045   4.087   2.977
 6570TIP3    H219717   2.950   4.174   3.056
 6571TIP3   OH219718   5.265   5.247   5.023
 6571TIP3    H119719   5.212   5.314   4.980
 6571TIP3    H219720   5.276   5.279   5.112
 6572TIP3   OH219721   2.483   4.269   4.000
 6572TIP3    H119722   2.492   4.216   3.921
 6572TIP3    H219723   2.433   4.345   3.973
 6573TIP3   OH219724   0.916   2.823   0.594
 6573TIP3    H119725   0.978   2.889   0.625
 6573TIP3    H219726   0.966   2.741   0.595
 6574TIP3   OH219727   0.424   5.677   2.544
 6574TIP3    H119728   0.501   5.694   2.491
 6574TIP3    H219729   0.424   5.582   2.556
 6575TIP3   OH219730   5.489   5.278   1.634
 6575TIP3    H119731   5.468   5.337   1.706
 6575TIP3    H219732   5.408   5.271   1.584
 6576TIP3   OH219733   5.384   1.969   4.045
 6576TIP3    H119734   5.397   1.938   4.135
 6576TIP3    H219735   5.401   1.891   3.991
 6577TIP3   OH219736   4.423   5.440   1.268
 6577TIP3    H119737   4.342   5.473   1.307
 6577TIP3    H219738   4.461   5.384   1.335
 6578TIP3   OH219739   6.296   2.693   3.969
 6578TIP3    H119740   6.270   2.784   3.984
 6578TIP3    H219741   6.391   2.697   3.960
 6579TIP3   OH219742   3.687   3.435   4.985
 6579TIP3    H119743   3.729   3.461   4.904
 6579TIP3    H219744   3.753   3.382   5.030
 6580TIP3   OH219745   0.093   4.584   1.879
 6580TIP3    H119746   0.009   4.552   1.911
 6580TIP3    H219747   0.129   4.510   1.829
 6581TIP3   OH219748   4.597   4.968   4.964
 6581TIP3    H119749   4.545   4.951   5.042
 6581TIP3    H219750   4.586   4.889   4.910
 6582TIP3   OH219751   5.499   2.772   2.630
 6582TIP3    H119752   5.549   2.849   2.655
 6582TIP3    H219753   5.470   2.734   2.712
 6583TIP3   OH219754   6.326   0.550   4.145
 6583TIP3    H119755   6.380   0.473   4.127
 6583TIP3    H219756   6.314   0.550   4.240
 6584TIP3   OH219757   4.242   4.943   2.425
 6584TIP3    H119758   4.184   4.905   2.491
 6584TIP3    H219759   4.221   5.036   2.425
 6585TIP3   OH219760   5.812   4.906   0.308
 6585TIP3    H119761   5.861   4.873   0.232
 6585TIP3    H219762   5.877   4.907   0.379
 6586TIP3   OH219763   3.127   0.404   2.203
 6586TIP3    H119764   3.103   0.468   2.270
 6586TIP3    H219765   3.096   0.321   2.237
 6587TIP3   OH219766   1.940   4.068   3.396
 6587TIP3    H119767   1.872   4.135   3.386
 6587TIP3    H219768   1.912   3.997   3.339
 6588TIP3   OH219769   4.412   1.894   4.040
 6588TIP3    H119770   4.381   1.827   4.100
 6588TIP3    H219771   4.343   1.960   4.040
 6589TIP3   OH219772   0.845   5.133   3.417
 6589TIP3    H119773   0.907   5.177   3.474
 6589TIP3    H219774   0.835   5.192   3.342
 6590TIP3   OH219775   0.777   4.746   4.554
 6590TIP3    H119776   0.814   4.658   4.563
 6590TIP3    H219777   0.772   4.779   4.644
 6591TIP3   OH219778   0.417   4.672   2.407
 6591TIP3    H119779   0.344   4.701   2.462
 6591TIP3    H219780   0.494   4.684   2.461
 6592TIP3   OH219781   3.425   5.199   3.791
 6592TIP3    H119782   3.336   5.166   3.778
 6592TIP3    H219783   3.429   5.222   3.884
 6593TIP3   OH219784   0.367   2.260   1.915
 6593TIP3    H119785   0.357   2.353   1.894
 6593TIP3    H219786   0.341   2.214   1.835
 6594TIP3   OH219787   0.617   4.793   0.169
 6594TIP3    H119788   0.530   4.832   0.180
 6594TIP3    H219789   0.600   4.704   0.137
 6595TIP3   OH219790   3.376   2.829   2.214
 6595TIP3    H119791   3.423   2.877   2.283
 6595TIP3    H219792   3.445   2.794   2.157
 6596TIP3   OH219793   4.107   1.481   4.061
 6596TIP3    H119794   4.092   1.392   4.093
 6596TIP3    H219795   4.029   1.502   4.010
 6597TIP3   OH219796   4.317   0.961   2.133
 6597TIP3    H119797   4.292   0.997   2.218
 6597TIP3    H219798   4.265   1.009   2.069
 6598TIP3   OH219799   1.340   2.872   4.960
 6598TIP3    H119800   1.357   2.908   4.873
 6598TIP3    H219801   1.284   2.936   5.002
 6599TIP3   OH219802   2.265   3.352   0.766
 6599TIP3    H119803   2.322   3.419   0.803
 6599TIP3    H219804   2.212   3.399   0.701
 6600TIP3   OH219805   0.049   0.814   4.581
 6600TIP3    H119806   0.141   0.841   4.581
 6600TIP3    H219807   0.011   0.859   4.505
 6601TIP3   OH219808   3.271   4.503   4.483
 6601TIP3    H119809   3.304   4.583   4.525
 6601TIP3    H219810   3.339   4.438   4.499
 6602TIP3   OH219811   0.519   3.833   1.854
 6602TIP3    H119812   0.460   3.907   1.841
 6602TIP3    H219813   0.474   3.758   1.815
 6603TIP3   OH219814   1.512   1.239   3.645
 6603TIP3    H119815   1.543   1.321   3.608
 6603TIP3    H219816   1.568   1.172   3.607
 6604TIP3   OH219817   0.796   0.587   2.718
 6604TIP3    H119818   0.821   0.628   2.801
 6604TIP3    H219819   0.710   0.548   2.735
 6605TIP3   OH219820   0.802   0.506   4.732
 6605TIP3    H119821   0.746   0.583   4.736
 6605TIP3    H219822   0.890   0.540   4.719
 6606TIP3   OH219823   3.716   1.320   2.517
 6606TIP3    H119824   3.673   1.311   2.602
 6606TIP3    H219825   3.653   1.368   2.463
 6607TIP3   OH219826   3.104   3.169   0.757
 6607TIP3    H119827   3.110   3.256   0.716
 6607TIP3    H219828   3.129   3.108   0.688
 6608TIP3   OH219829   5.303   0.811   2.069
 6608TIP3    H119830   5.213   0.811   2.103
 6608TIP3    H219831   5.326   0.718   2.063
 6609TIP3   OH219832   2.723   1.424   2.291
 6609TIP3    H119833   2.678   1.470   2.362
 6609TIP3    H219834   2.808   1.400   2.328
 6610TIP3   OH219835   1.989   1.563   4.121
 6610TIP3    H119836   2.008   1.588   4.211
 6610TIP3    H219837   1.909   1.511   4.127
 6611TIP3   OH219838   0.446   4.323   4.663
 6611TIP3    H119839   0.412   4.313   4.752
 6611TIP3    H219840   0.405   4.403   4.630
 6612TIP3   OH219841   4.665   3.841   4.670
 6612TIP3    H119842   4.689   3.809   4.757
 6612TIP3    H219843   4.652   3.762   4.618
 6613TIP3   OH219844   1.758   2.784   3.306
 6613TIP3    H119845   1.795   2.750   3.388
 6613TIP3    H219846   1.749   2.706   3.250
 6614TIP3   OH219847   5.223   1.739   3.810
 6614TIP3    H119848   5.247   1.664   3.755
 6614TIP3    H219849   5.241   1.710   3.899
 6615TIP3   OH219850   6.045   4.956   0.130
 6615TIP3    H119851   6.089   5.009   0.063
 6615TIP3    H219852   5.992   4.894   0.079
 6616TIP3   OH219853   3.185   1.038   0.992
 6616TIP3    H119854   3.201   0.994   1.075
 6616TIP3    H219855   3.243   0.994   0.930
 6617TIP3   OH219856   1.353   4.115   4.006
 6617TIP3    H119857   1.347   4.020   4.002
 6617TIP3    H219858   1.274   4.146   3.962
 6618TIP3   OH219859   0.706   2.549   1.703
 6618TIP3    H119860   0.629   2.506   1.665
 6618TIP3    H219861   0.682   2.641   1.708
 6619TIP3   OH219862   4.660   5.446   2.840
 6619TIP3    H119863   4.613   5.367   2.867
 6619TIP3    H219864   4.742   5.414   2.803
 6620TIP3   OH219865   3.914   3.548   1.837
 6620TIP3    H119866   3.909   3.626   1.892
 6620TIP3    H219867   3.925   3.476   1.899
 6621TIP3   OH219868   3.830   3.778   5.014
 6621TIP3    H119869   3.753   3.770   4.958
 6621TIP3    H219870   3.903   3.786   4.954
 6622TIP3   OH219871   3.026   3.573   0.891
 6622TIP3    H119872   3.028   3.517   0.968
 6622TIP3    H219873   3.064   3.519   0.821
 6623TIP3   OH219874   0.120   4.292   0.608
 6623TIP3    H119875   0.184   4.341   0.661
 6623TIP3    H219876   0.150   4.306   0.518
 6624TIP3   OH219877   0.382   1.146   4.870
 6624TIP3    H119878   0.383   1.050   4.881
 6624TIP3    H219879   0.474   1.171   4.877
 6625TIP3   OH219880   2.037   1.280   2.111
 6625TIP3    H119881   2.017   1.200   2.062
 6625TIP3    H219882   2.132   1.285   2.111
 6626TIP3   OH219883   3.221   3.300   3.659
 6626TIP3    H119884   3.273   3.351   3.596
 6626TIP3    H219885   3.272   3.303   3.740
 6627TIP3   OH219886   3.277   2.401   4.600
 6627TIP3    H119887   3.288   2.324   4.656
 6627TIP3    H219888   3.366   2.437   4.592
 6628TIP3   OH219889   0.546   4.275   1.287
 6628TIP3    H119890   0.574   4.204   1.230
 6628TIP3    H219891   0.617   4.284   1.350
 6629TIP3   OH219892   2.057   5.215   3.306
 6629TIP3    H119893   2.040   5.309   3.305
 6629TIP3    H219894   1.970   5.175   3.300
 6630TIP3   OH219895   5.323   2.649   2.793
 6630TIP3    H119896   5.286   2.640   2.706
 6630TIP3    H219897   5.247   2.662   2.850
 6631TIP3   OH219898   0.734   1.569   4.833
 6631TIP3    H119899   0.715   1.493   4.778
 6631TIP3    H219900   0.648   1.600   4.861
 6632TIP3   OH219901   1.995   4.879   2.779
 6632TIP3    H119902   1.987   4.895   2.873
 6632TIP3    H219903   1.967   4.788   2.768
 6633TIP3   OH219904   0.255   4.804   1.944
 6633TIP3    H119905   0.208   4.725   1.920
 6633TIP3    H219906   0.337   4.772   1.984
 6634TIP3   OH219907   0.829   5.572   3.296
 6634TIP3    H119908   0.778   5.625   3.357
 6634TIP3    H219909   0.797   5.483   3.309
 6635TIP3   OH219910   4.802   3.217   2.457
 6635TIP3    H119911   4.827   3.125   2.443
 6635TIP3    H219912   4.739   3.235   2.388
 6636TIP3   OH219913   3.747   5.347   1.007
 6636TIP3    H119914   3.696   5.338   1.088
 6636TIP3    H219915   3.766   5.257   0.981
 6637TIP3   OH219916   2.973   0.313   3.298
 6637TIP3    H119917   3.047   0.368   3.273
 6637TIP3    H219918   3.010   0.250   3.360
 6638TIP3   OH219919   0.689   5.663   3.509
 6638TIP3    H119920   0.663   5.601   3.577
 6638TIP3    H219921   0.694   5.747   3.555
 6639TIP3   OH219922   3.708   2.243   4.286
 6639TIP3    H119923   3.703   2.333   4.318
 6639TIP3    H219924   3.618   2.210   4.294
 6640TIP3   OH219925   0.486   1.057   0.629
 6640TIP3    H119926   0.469   0.975   0.674
 6640TIP3    H219927   0.400   1.086   0.598
 6641TIP3   OH219928   1.371   2.121   4.254
 6641TIP3    H119929   1.284   2.162   4.247
 6641TIP3    H219930   1.409   2.159   4.334
 6642TIP3   OH219931   4.257   4.239   2.810
 6642TIP3    H119932   4.239   4.311   2.871
 6642TIP3    H219933   4.186   4.244   2.746
 6643TIP3   OH219934   2.245   0.482   1.616
 6643TIP3    H119935   2.195   0.405   1.590
 6643TIP3    H219936   2.200   0.556   1.575
 6644TIP3   OH219937   4.661   1.144   0.813
 6644TIP3    H119938   4.724   1.089   0.768
 6644TIP3    H219939   4.703   1.230   0.819
 6645TIP3   OH219940   1.072   3.609   3.742
 6645TIP3    H119941   1.028   3.684   3.783
 6645TIP3    H219942   1.101   3.555   3.815
   6.34490   5.98203   5.18060   0.00000   0.00000  -2.11497   0.00000  -2.11497  -2.99102
