Title t= 200.00000 step= 100000
46055
    1GLY      N    1   3.002   2.892   1.001
    1GLY    HT1    2   3.050   2.820   1.060
    1GLY    HT2    3   3.075   2.963   0.978
    1GLY    HT3    4   2.977   2.847   0.911
    1GLY     CA    5   2.894   2.956   1.079
    1GLY    HA1    6   2.813   2.885   1.087
    1GLY    HA2    7   2.866   3.046   1.026
    1GLY      C    8   2.941   2.997   1.213
    1GLY      O    9   3.059   2.985   1.240
    2PRO      N   10   2.853   3.056   1.289
    2PRO     CD   11   2.714   3.083   1.266
    2PRO    HD1   12   2.659   2.986   1.273
    2PRO    HD2   13   2.692   3.135   1.170
    2PRO     CA   14   2.880   3.076   1.429
    2PRO     HA   15   2.940   3.165   1.430
    2PRO     CB   16   2.742   3.126   1.493
    2PRO    HB1   17   2.747   3.199   1.576
    2PRO    HB2   18   2.694   3.033   1.531
    2PRO     CG   19   2.670   3.179   1.376
    2PRO    HG1   20   2.559   3.177   1.386
    2PRO    HG2   21   2.697   3.285   1.360
    2PRO      C   22   2.937   2.959   1.513
    2PRO      O   23   2.923   2.840   1.482
    3GLY      N   24   2.989   2.986   1.630
    3GLY     HN   25   2.976   3.077   1.669
    3GLY     CA   26   3.047   2.890   1.724
    3GLY    HA1   27   3.138   2.935   1.761
    3GLY    HA2   28   3.063   2.792   1.681
    3GLY      C   29   2.964   2.872   1.842
    3GLY      O   30   2.864   2.935   1.861
    4ALA      N   31   3.000   2.764   1.917
    4ALA     HN   32   3.078   2.712   1.884
    4ALA     CA   33   2.943   2.732   2.046
    4ALA     HA   34   2.837   2.721   2.030
    4ALA     CB   35   2.994   2.585   2.082
    4ALA    HB1   36   2.966   2.563   2.187
    4ALA    HB2   37   3.104   2.578   2.067
    4ALA    HB3   38   2.947   2.512   2.013
    4ALA      C   39   2.981   2.835   2.146
    4ALA      O   40   3.085   2.901   2.129
    5PRO      N   41   2.898   2.867   2.240
    5PRO     CD   42   2.797   2.774   2.284
    5PRO    HD1   43   2.845   2.688   2.335
    5PRO    HD2   44   2.726   2.736   2.207
    5PRO     CA   45   2.918   2.973   2.336
    5PRO     HA   46   2.891   3.066   2.289
    5PRO     CB   47   2.822   2.941   2.452
    5PRO    HB1   48   2.776   3.030   2.502
    5PRO    HB2   49   2.857   2.868   2.528
    5PRO     CG   50   2.719   2.867   2.371
    5PRO    HG1   51   2.672   2.794   2.440
    5PRO    HG2   52   2.648   2.934   2.318
    5PRO      C   53   3.055   2.990   2.389
    5PRO      O   54   3.119   2.893   2.422
    6GLY      N   55   3.109   3.114   2.393
    6GLY     HN   56   3.036   3.182   2.391
    6GLY     CA   57   3.240   3.150   2.435
    6GLY    HA1   58   3.250   3.258   2.438
    6GLY    HA2   59   3.307   3.090   2.375
    6GLY      C   60   3.270   3.117   2.581
    6GLY      O   61   3.191   3.059   2.647
    7PRO      N   62   3.389   3.150   2.640
    7PRO     CD   63   3.505   3.191   2.565
    7PRO    HD1   64   3.479   3.292   2.526
    7PRO    HD2   65   3.527   3.119   2.484
    7PRO     CA   66   3.409   3.147   2.783
    7PRO     HA   67   3.437   3.051   2.824
    7PRO     CB   68   3.540   3.224   2.801
    7PRO    HB1   69   3.592   3.201   2.896
    7PRO    HB2   70   3.521   3.333   2.789
    7PRO     CG   71   3.611   3.179   2.673
    7PRO    HG1   72   3.694   3.253   2.667
    7PRO    HG2   73   3.642   3.072   2.677
    7PRO      C   74   3.307   3.223   2.858
    7PRO      O   75   3.266   3.323   2.808
    8GLY      N   76   3.253   3.166   2.971
    8GLY     HN   77   3.279   3.070   2.978
    8GLY     CA   78   3.153   3.233   3.056
    8GLY    HA1   79   3.172   3.198   3.157
    8GLY    HA2   80   3.051   3.216   3.023
    8GLY      C   81   3.163   3.382   3.075
    8GLY      O   82   3.271   3.434   3.107
    9ALA      N   83   3.050   3.456   3.060
    9ALA     HN   84   2.966   3.415   3.025
    9ALA     CA   85   3.020   3.582   3.123
    9ALA     HA   86   3.080   3.657   3.074
    9ALA     CB   87   2.872   3.619   3.088
    9ALA    HB1   88   2.870   3.648   2.981
    9ALA    HB2   89   2.843   3.719   3.128
    9ALA    HB3   90   2.792   3.549   3.121
    9ALA      C   91   3.037   3.589   3.278
    9ALA      O   92   3.000   3.490   3.346
   10PRO      N   93   3.085   3.704   3.333
   10PRO     CD   94   3.160   3.801   3.252
   10PRO    HD1   95   3.082   3.836   3.181
   10PRO    HD2   96   3.244   3.754   3.197
   10PRO     CA   97   3.088   3.743   3.475
   10PRO     HA   98   3.180   3.698   3.510
   10PRO     CB   99   3.105   3.899   3.457
   10PRO    HB1  100   3.150   3.945   3.547
   10PRO    HB2  101   3.007   3.949   3.444
   10PRO     CG  102   3.203   3.909   3.342
   10PRO    HG1  103   3.199   4.011   3.297
   10PRO    HG2  104   3.307   3.891   3.379
   10PRO      C  105   2.966   3.701   3.564
   10PRO      O  106   2.855   3.688   3.510
   11GLY      N  107   2.988   3.686   3.698
   11GLY     HN  108   3.073   3.704   3.747
   11GLY     CA  109   2.890   3.651   3.801
   11GLY    HA1  110   2.944   3.622   3.890
   11GLY    HA2  111   2.820   3.581   3.759
   11GLY      C  112   2.812   3.770   3.856
   11GLY      O  113   2.860   3.879   3.844
   12PRO      N  114   2.691   3.753   3.912
   12PRO     CD  115   2.630   3.620   3.955
   12PRO    HD1  116   2.708   3.561   4.007
   12PRO    HD2  117   2.592   3.572   3.862
   12PRO     CA  118   2.608   3.864   3.950
   12PRO     HA  119   2.602   3.931   3.866
   12PRO     CB  120   2.472   3.792   3.995
   12PRO    HB1  121   2.421   3.776   3.897
   12PRO    HB2  122   2.404   3.850   4.062
   12PRO     CG  123   2.523   3.655   4.048
   12PRO    HG1  124   2.561   3.681   4.149
   12PRO    HG2  125   2.447   3.575   4.056
   12PRO      C  126   2.667   3.950   4.059
   12PRO      O  127   2.709   3.895   4.159
   13GLY      N  128   2.673   4.079   4.043
   13GLY     HN  129   2.643   4.119   3.957
   13GLY     CA  130   2.708   4.176   4.152
   13GLY    HA1  131   2.738   4.262   4.094
   13GLY    HA2  132   2.790   4.129   4.204
   13GLY      C  133   2.591   4.213   4.241
   13GLY      O  134   2.492   4.150   4.246
   14ALA      N  135   2.611   4.322   4.310
   14ALA     HN  136   2.691   4.378   4.289
   14ALA     CA  137   2.513   4.387   4.405
   14ALA     HA  138   2.416   4.342   4.389
   14ALA     CB  139   2.548   4.347   4.553
   14ALA    HB1  140   2.646   4.388   4.585
   14ALA    HB2  141   2.553   4.237   4.565
   14ALA    HB3  142   2.468   4.393   4.615
   14ALA      C  143   2.503   4.536   4.397
   14ALA      O  144   2.594   4.591   4.343
   15PRO      N  145   2.403   4.611   4.445
   15PRO     CD  146   2.280   4.563   4.495
   15PRO    HD1  147   2.301   4.538   4.601
   15PRO    HD2  148   2.254   4.474   4.434
   15PRO     CA  149   2.399   4.753   4.410
   15PRO     HA  150   2.398   4.769   4.303
   15PRO     CB  151   2.268   4.794   4.475
   15PRO    HB1  152   2.224   4.881   4.421
   15PRO    HB2  153   2.275   4.821   4.582
   15PRO     CG  154   2.173   4.669   4.471
   15PRO    HG1  155   2.096   4.670   4.551
   15PRO    HG2  156   2.130   4.665   4.368
   15PRO      C  157   2.500   4.851   4.478
   15PRO    OT1  158   2.531   4.846   4.597
   15PRO    OT2  159   2.551   4.943   4.412
   16LIT    LIT  160   5.807   4.606   2.844
   17LIT    LIT  161   2.771   5.707   3.975
   18LIT    LIT  162   3.417   1.765   1.059
   19LIT    LIT  163   4.861   5.317   1.710
   20LIT    LIT  164   2.349   5.763   2.037
   21LIT    LIT  165   1.894   4.825   2.029
   22LIT    LIT  166   2.932   1.118   4.682
   23LIT    LIT  167   6.746   4.745   3.629
   24LIT    LIT  168   4.656   5.339   3.129
   25LIT    LIT  169   5.257   0.620   5.507
   26LIT    LIT  170   5.944   2.731   4.296
   27LIT    LIT  171   0.705   3.990   2.682
   28LIT    LIT  172   0.285   6.648   4.731
   29LIT    LIT  173   5.413   0.853   2.149
   30LIT    LIT  174   3.820   5.422   3.564
   31LIT    LIT  175   8.032   2.032   4.789
   32LIT    LIT  176   0.216   3.763   5.370
   33LIT    LIT  177   5.804   7.213   1.904
   34LIT    LIT  178   7.855   5.319   0.774
   35LIT    LIT  179   5.771   6.916   3.687
   36LIT    LIT  180   7.596   6.158   3.812
   37LIT    LIT  181   2.897   6.721   2.937
   38LIT    LIT  182   0.544   4.540   1.297
   39LIT    LIT  183   2.700   1.550   5.883
   40LIT    LIT  184   7.669   6.670   6.433
   41LIT    LIT  185   1.910   2.032   6.140
   42LIT    LIT  186   6.583   4.335   1.217
   43LIT    LIT  187   2.291   7.828   0.693
   44LIT    LIT  188   8.060   0.206   1.311
   45LIT    LIT  189   8.346   7.437   1.836
   46LIT    LIT  190   2.073   3.548   4.574
   47LIT    LIT  191   0.943   1.059   1.677
   48LIT    LIT  192   1.157   6.750   1.609
   49LIT    LIT  193   5.540   7.678   4.779
   50LIT    LIT  194   3.918   5.581   2.649
   51LIT    LIT  195   3.588   7.413   0.340
   52LIT    LIT  196   7.085   0.013   5.229
   53LIT    LIT  197   4.227   7.146   5.191
   54LIT    LIT  198   5.917   1.688   6.382
   55LIT    LIT  199   3.794   0.476   3.011
   56LIT    LIT  200   6.566   5.330   3.473
   57LIT    LIT  201   3.979   5.303   0.505
   58LIT    LIT  202   2.579   5.049   4.566
   59CLA    CLA  203   4.078   5.993   2.364
   60CLA    CLA  204   3.452   5.964   3.766
   61CLA    CLA  205   5.895   6.959   1.500
   62CLA    CLA  206   2.632   7.898   4.739
   63CLA    CLA  207   8.236   6.273   2.821
   64CLA    CLA  208   2.410   7.135   4.937
   65CLA    CLA  209   1.679   2.967   6.414
   66CLA    CLA  210   5.572   2.643   6.764
   67CLA    CLA  211   6.969   4.234   4.219
   68CLA    CLA  212   7.854   4.883   3.138
   69CLA    CLA  213   6.637   7.383   4.299
   70CLA    CLA  214   8.043   3.037   5.719
   71CLA    CLA  215   1.893   2.304   1.088
   72CLA    CLA  216   6.580   5.280   3.941
   73CLA    CLA  217   0.220   6.486   4.587
   74CLA    CLA  218   8.236   0.040   1.720
   75CLA    CLA  219   5.262   6.874   6.541
   76CLA    CLA  220   3.796   6.516   6.435
   77CLA    CLA  221   2.843   1.716   5.439
   78CLA    CLA  222   8.190   0.792   4.775
   79CLA    CLA  223   7.075   5.143   1.286
   80CLA    CLA  224   7.394   5.593   0.776
   81CLA    CLA  225   2.971   1.500   1.715
   82CLA    CLA  226   4.479   4.909   2.720
   83CLA    CLA  227   0.231   6.109   5.625
   84CLA    CLA  228   8.185   6.836   1.559
   85CLA    CLA  229   0.831   6.103   2.004
   86CLA    CLA  230   7.320   3.081   5.969
   87CLA    CLA  231   0.193   1.325   6.364
   88CLA    CLA  232   5.728   4.100   2.125
   89CLA    CLA  233   2.744   2.315   1.007
   90CLA    CLA  234   4.776   6.364   0.807
   91CLA    CLA  235   4.836   7.828   0.325
   92CLA    CLA  236   4.481   4.556   1.299
   93CLA    CLA  237   2.482   1.044   4.920
   94CLA    CLA  238   4.871   6.375   4.202
   95CLA    CLA  239   3.616   0.231   1.250
   96CLA    CLA  240   6.019   2.348   4.303
   97CLA    CLA  241   1.944   1.577   5.389
   98CLA    CLA  242   7.171   2.881   5.426
   99CLA    CLA  243   1.838   5.448   2.046
  100CLA    CLA  244   5.107   0.569   5.925
  101CLA    CLA  245   2.087   0.109   3.321
  102TIP3   OH2  246   5.369   6.552   5.813
  102TIP3    H1  247   5.379   6.577   5.721
  102TIP3    H2  248   5.428   6.611   5.860
  103TIP3   OH2  249   0.464   4.938   6.161
  103TIP3    H1  250   0.553   4.910   6.143
  103TIP3    H2  251   0.428   4.962   6.076
  104TIP3   OH2  252   3.281   1.375   4.682
  104TIP3    H1  253   3.269   1.387   4.588
  104TIP3    H2  254   3.270   1.463   4.719
  105TIP3   OH2  255   1.385   5.320   6.291
  105TIP3    H1  256   1.447   5.393   6.291
  105TIP3    H2  257   1.399   5.277   6.375
  106TIP3   OH2  258   1.908   6.636   1.097
  106TIP3    H1  259   1.940   6.569   1.037
  106TIP3    H2  260   1.901   6.591   1.181
  107TIP3   OH2  261   3.001   2.905   0.434
  107TIP3    H1  262   2.927   2.883   0.492
  107TIP3    H2  263   3.075   2.916   0.493
  108TIP3   OH2  264   1.415   2.215   5.660
  108TIP3    H1  265   1.486   2.188   5.601
  108TIP3    H2  266   1.335   2.192   5.612
  109TIP3   OH2  267   5.951   5.886   3.538
  109TIP3    H1  268   5.958   5.853   3.628
  109TIP3    H2  269   5.860   5.870   3.514
  110TIP3   OH2  270   4.089   2.294   2.581
  110TIP3    H1  271   4.121   2.254   2.662
  110TIP3    H2  272   4.049   2.376   2.609
  111TIP3   OH2  273   3.784   1.096   6.720
  111TIP3    H1  274   3.846   1.030   6.751
  111TIP3    H2  275   3.732   1.050   6.654
  112TIP3   OH2  276   2.966   7.067   3.034
  112TIP3    H1  277   3.041   7.057   2.975
  112TIP3    H2  278   2.893   7.089   2.977
  113TIP3   OH2  279   4.044   0.090   0.138
  113TIP3    H1  280   3.950   0.072   0.139
  113TIP3    H2  281   4.077   0.042   0.062
  114TIP3   OH2  282   2.696   2.098   1.914
  114TIP3    H1  283   2.746   2.018   1.898
  114TIP3    H2  284   2.623   2.071   1.969
  115TIP3   OH2  285   8.322   0.463   6.865
  115TIP3    H1  286   8.248   0.413   6.829
  115TIP3    H2  287   8.399   0.426   6.822
  116TIP3   OH2  288   1.414   1.126   6.383
  116TIP3    H1  289   1.346   1.094   6.325
  116TIP3    H2  290   1.368   1.155   6.461
  117TIP3   OH2  291   6.905   7.638   0.754
  117TIP3    H1  292   6.897   7.714   0.812
  117TIP3    H2  293   6.886   7.672   0.667
  118TIP3   OH2  294   3.460   6.221   0.691
  118TIP3    H1  295   3.490   6.284   0.757
  118TIP3    H2  296   3.365   6.216   0.702
  119TIP3   OH2  297   2.664   0.745   0.176
  119TIP3    H1  298   2.620   0.796   0.108
  119TIP3    H2  299   2.721   0.809   0.220
  120TIP3   OH2  300   7.453   1.884   2.500
  120TIP3    H1  301   7.492   1.797   2.500
  120TIP3    H2  302   7.359   1.869   2.512
  121TIP3   OH2  303   0.336   7.709   5.570
  121TIP3    H1  304   0.419   7.676   5.536
  121TIP3    H2  305   0.343   7.697   5.664
  122TIP3   OH2  306   2.144   1.541   3.630
  122TIP3    H1  307   2.070   1.566   3.574
  122TIP3    H2  308   2.197   1.620   3.635
  123TIP3   OH2  309   6.339   6.112   2.116
  123TIP3    H1  310   6.269   6.132   2.053
  123TIP3    H2  311   6.394   6.191   2.116
  124TIP3   OH2  312   5.548   4.850   3.007
  124TIP3    H1  313   5.531   4.801   3.087
  124TIP3    H2  314   5.500   4.804   2.938
  125TIP3   OH2  315   1.876   5.381   6.219
  125TIP3    H1  316   1.800   5.345   6.173
  125TIP3    H2  317   1.910   5.308   6.270
  126TIP3   OH2  318   1.918   5.033   0.530
  126TIP3    H1  319   1.858   4.959   0.543
  126TIP3    H2  320   1.993   5.013   0.586
  127TIP3   OH2  321   6.549   7.563   5.244
  127TIP3    H1  322   6.520   7.625   5.311
  127TIP3    H2  323   6.601   7.499   5.291
  128TIP3   OH2  324   7.684   3.375   3.387
  128TIP3    H1  325   7.762   3.428   3.372
  128TIP3    H2  326   7.654   3.399   3.474
  129TIP3   OH2  327   0.365   0.592   0.773
  129TIP3    H1  328   0.301   0.538   0.822
  129TIP3    H2  329   0.388   0.539   0.697
  130TIP3   OH2  330   7.356   5.179   0.110
  130TIP3    H1  331   7.373   5.165   0.017
  130TIP3    H2  332   7.305   5.260   0.113
  131TIP3   OH2  333   4.965   2.134   5.355
  131TIP3    H1  334   4.960   2.224   5.322
  131TIP3    H2  335   4.976   2.080   5.277
  132TIP3   OH2  336   2.936   5.105   0.100
  132TIP3    H1  337   2.982   5.181   0.064
  132TIP3    H2  338   2.895   5.063   0.024
  133TIP3   OH2  339   3.365   7.710   2.770
  133TIP3    H1  340   3.339   7.641   2.832
  133TIP3    H2  341   3.439   7.753   2.813
  134TIP3   OH2  342   8.009   4.910   1.827
  134TIP3    H1  343   8.064   4.981   1.794
  134TIP3    H2  344   7.923   4.927   1.788
  135TIP3   OH2  345   6.320   7.285   5.676
  135TIP3    H1  346   6.333   7.362   5.732
  135TIP3    H2  347   6.409   7.259   5.650
  136TIP3   OH2  348   7.606   2.171   1.681
  136TIP3    H1  349   7.651   2.107   1.737
  136TIP3    H2  350   7.516   2.141   1.677
  137TIP3   OH2  351   6.744   4.539   4.273
  137TIP3    H1  352   6.732   4.471   4.340
  137TIP3    H2  353   6.813   4.595   4.309
  138TIP3   OH2  354   7.745   5.303   1.157
  138TIP3    H1  355   7.692   5.332   1.232
  138TIP3    H2  356   7.776   5.216   1.183
  139TIP3   OH2  357   3.904   4.342   1.298
  139TIP3    H1  358   3.865   4.329   1.212
  139TIP3    H2  359   3.889   4.434   1.317
  140TIP3   OH2  360   6.339   0.784   3.423
  140TIP3    H1  361   6.303   0.864   3.460
  140TIP3    H2  362   6.352   0.804   3.330
  141TIP3   OH2  363   6.979   7.321   0.550
  141TIP3    H1  364   7.042   7.392   0.533
  141TIP3    H2  365   7.021   7.266   0.616
  142TIP3   OH2  366   1.127   7.589   3.665
  142TIP3    H1  367   1.161   7.600   3.754
  142TIP3    H2  368   1.054   7.528   3.675
  143TIP3   OH2  369   5.571   1.235   5.422
  143TIP3    H1  370   5.518   1.300   5.468
  143TIP3    H2  371   5.507   1.184   5.372
  144TIP3   OH2  372   2.679   4.994   0.376
  144TIP3    H1  373   2.771   5.007   0.399
  144TIP3    H2  374   2.678   4.994   0.280
  145TIP3   OH2  375   2.847   5.748   3.801
  145TIP3    H1  376   2.804   5.781   3.722
  145TIP3    H2  377   2.934   5.720   3.773
  146TIP3   OH2  378   1.309   5.521   2.690
  146TIP3    H1  379   1.301   5.432   2.656
  146TIP3    H2  380   1.244   5.527   2.759
  147TIP3   OH2  381   7.385   6.690   6.823
  147TIP3    H1  382   7.294   6.714   6.842
  147TIP3    H2  383   7.433   6.773   6.823
  148TIP3   OH2  384   6.934   6.291   5.568
  148TIP3    H1  385   6.979   6.251   5.643
  148TIP3    H2  386   6.862   6.231   5.549
  149TIP3   OH2  387   4.532   3.535   2.740
  149TIP3    H1  388   4.474   3.581   2.679
  149TIP3    H2  389   4.486   3.537   2.824
  150TIP3   OH2  390   6.257   4.223   4.194
  150TIP3    H1  391   6.338   4.239   4.244
  150TIP3    H2  392   6.220   4.144   4.233
  151TIP3   OH2  393   3.498   4.914   1.785
  151TIP3    H1  394   3.585   4.909   1.825
  151TIP3    H2  395   3.515   4.907   1.691
  152TIP3   OH2  396   6.731   4.586   2.337
  152TIP3    H1  397   6.801   4.635   2.380
  152TIP3    H2  398   6.650   4.625   2.372
  153TIP3   OH2  399   6.415   3.382   1.164
  153TIP3    H1  400   6.333   3.386   1.213
  153TIP3    H2  401   6.412   3.456   1.104
  154TIP3   OH2  402   6.266   3.557   6.047
  154TIP3    H1  403   6.217   3.476   6.032
  154TIP3    H2  404   6.218   3.623   5.997
  155TIP3   OH2  405   1.906   2.380   4.117
  155TIP3    H1  406   1.935   2.419   4.035
  155TIP3    H2  407   1.906   2.286   4.101
  156TIP3   OH2  408   6.634   6.720   4.286
  156TIP3    H1  409   6.544   6.722   4.319
  156TIP3    H2  410   6.642   6.633   4.246
  157TIP3   OH2  411   0.299   0.742   1.302
  157TIP3    H1  412   0.260   0.731   1.215
  157TIP3    H2  413   0.338   0.657   1.322
  158TIP3   OH2  414   1.608   3.459   1.239
  158TIP3    H1  415   1.597   3.499   1.325
  158TIP3    H2  416   1.542   3.389   1.237
  159TIP3   OH2  417   6.177   6.693   3.128
  159TIP3    H1  418   6.234   6.682   3.205
  159TIP3    H2  419   6.113   6.758   3.156
  160TIP3   OH2  420   1.922   2.579   4.673
  160TIP3    H1  421   1.859   2.523   4.628
  160TIP3    H2  422   1.978   2.519   4.722
  161TIP3   OH2  423   3.328   4.804   3.194
  161TIP3    H1  424   3.344   4.745   3.267
  161TIP3    H2  425   3.250   4.854   3.220
  162TIP3   OH2  426   3.461   2.394   2.855
  162TIP3    H1  427   3.401   2.450   2.805
  162TIP3    H2  428   3.546   2.406   2.814
  163TIP3   OH2  429   1.633   1.395   6.523
  163TIP3    H1  430   1.636   1.444   6.605
  163TIP3    H2  431   1.673   1.311   6.544
  164TIP3   OH2  432   5.843   1.518   6.436
  164TIP3    H1  433   5.883   1.432   6.445
  164TIP3    H2  434   5.782   1.525   6.509
  165TIP3   OH2  435   1.907   1.815   3.262
  165TIP3    H1  436   1.847   1.747   3.230
  165TIP3    H2  437   1.849   1.887   3.288
  166TIP3   OH2  438   5.085   4.978   6.188
  166TIP3    H1  439   5.072   5.072   6.170
  166TIP3    H2  440   5.112   4.975   6.279
  167TIP3   OH2  441   6.424   3.672   3.153
  167TIP3    H1  442   6.392   3.713   3.072
  167TIP3    H2  443   6.376   3.718   3.223
  168TIP3   OH2  444   4.614   3.030   2.309
  168TIP3    H1  445   4.597   3.122   2.327
  168TIP3    H2  446   4.708   3.019   2.322
  169TIP3   OH2  447   0.864   4.464   3.818
  169TIP3    H1  448   0.919   4.515   3.758
  169TIP3    H2  449   0.821   4.400   3.762
  170TIP3   OH2  450   4.620   1.375   4.391
  170TIP3    H1  451   4.645   1.321   4.316
  170TIP3    H2  452   4.680   1.347   4.461
  171TIP3   OH2  453   6.280   6.213   4.823
  171TIP3    H1  454   6.365   6.179   4.798
  171TIP3    H2  455   6.262   6.174   4.909
  172TIP3   OH2  456   6.831   3.221   2.954
  172TIP3    H1  457   6.840   3.277   3.031
  172TIP3    H2  458   6.772   3.268   2.896
  173TIP3   OH2  459   4.230   1.376   4.267
  173TIP3    H1  460   4.146   1.404   4.305
  173TIP3    H2  461   4.226   1.281   4.269
  174TIP3   OH2  462   2.742   2.852   6.517
  174TIP3    H1  463   2.660   2.833   6.561
  174TIP3    H2  464   2.801   2.880   6.588
  175TIP3   OH2  465   7.696   0.978   1.598
  175TIP3    H1  466   7.698   1.022   1.513
  175TIP3    H2  467   7.641   0.901   1.585
  176TIP3   OH2  468   0.714   2.856   0.729
  176TIP3    H1  469   0.689   2.764   0.733
  176TIP3    H2  470   0.757   2.865   0.644
  177TIP3   OH2  471   2.886   0.203   3.602
  177TIP3    H1  472   2.833   0.123   3.605
  177TIP3    H2  473   2.975   0.172   3.622
  178TIP3   OH2  474   3.957   6.959   4.674
  178TIP3    H1  475   3.899   6.944   4.748
  178TIP3    H2  476   3.952   7.053   4.658
  179TIP3   OH2  477   5.981   0.547   1.327
  179TIP3    H1  478   6.038   0.564   1.251
  179TIP3    H2  479   5.919   0.481   1.296
  180TIP3   OH2  480   1.410   1.827   6.578
  180TIP3    H1  481   1.421   1.745   6.529
  180TIP3    H2  482   1.415   1.896   6.512
  181TIP3   OH2  483   7.735   1.959   3.900
  181TIP3    H1  484   7.723   1.872   3.938
  181TIP3    H2  485   7.829   1.976   3.908
  182TIP3   OH2  486   7.547   4.544   4.996
  182TIP3    H1  487   7.468   4.496   5.024
  182TIP3    H2  488   7.520   4.588   4.915
  183TIP3   OH2  489   1.538   6.778   2.142
  183TIP3    H1  490   1.476   6.830   2.192
  183TIP3    H2  491   1.514   6.687   2.161
  184TIP3   OH2  492   2.037   6.367   6.662
  184TIP3    H1  493   1.977   6.338   6.594
  184TIP3    H2  494   2.012   6.316   6.739
  185TIP3   OH2  495   7.810   7.330   4.728
  185TIP3    H1  496   7.808   7.361   4.819
  185TIP3    H2  497   7.897   7.356   4.697
  186TIP3   OH2  498   2.292   3.775   1.913
  186TIP3    H1  499   2.352   3.750   1.984
  186TIP3    H2  500   2.272   3.867   1.930
  187TIP3   OH2  501   6.141   3.741   2.358
  187TIP3    H1  502   6.232   3.746   2.330
  187TIP3    H2  503   6.126   3.647   2.373
  188TIP3   OH2  504   1.553   7.170   1.638
  188TIP3    H1  505   1.565   7.089   1.589
  188TIP3    H2  506   1.519   7.232   1.574
  189TIP3   OH2  507   4.639   4.345   3.603
  189TIP3    H1  508   4.613   4.428   3.643
  189TIP3    H2  509   4.599   4.278   3.659
  190TIP3   OH2  510   2.258   0.848   4.162
  190TIP3    H1  511   2.285   0.911   4.229
  190TIP3    H2  512   2.185   0.890   4.116
  191TIP3   OH2  513   1.207   3.694   4.685
  191TIP3    H1  514   1.282   3.744   4.651
  191TIP3    H2  515   1.131   3.733   4.642
  192TIP3   OH2  516   2.843   3.245   3.920
  192TIP3    H1  517   2.752   3.256   3.949
  192TIP3    H2  518   2.894   3.241   4.001
  193TIP3   OH2  519   6.748   1.102   2.887
  193TIP3    H1  520   6.762   1.090   2.981
  193TIP3    H2  521   6.836   1.101   2.849
  194TIP3   OH2  522   1.227   3.324   2.319
  194TIP3    H1  523   1.157   3.347   2.379
  194TIP3    H2  524   1.279   3.404   2.311
  195TIP3   OH2  525   1.471   5.699   2.983
  195TIP3    H1  526   1.493   5.747   3.064
  195TIP3    H2  527   1.376   5.709   2.975
  196TIP3   OH2  528   5.494   5.239   1.767
  196TIP3    H1  529   5.512   5.170   1.703
  196TIP3    H2  530   5.415   5.210   1.812
  197TIP3   OH2  531   3.483   1.886   2.183
  197TIP3    H1  532   3.441   1.833   2.251
  197TIP3    H2  533   3.553   1.932   2.228
  198TIP3   OH2  534   5.059   3.942   0.446
  198TIP3    H1  535   5.004   3.878   0.401
  198TIP3    H2  536   5.029   4.026   0.414
  199TIP3   OH2  537   2.783   6.160   5.878
  199TIP3    H1  538   2.695   6.124   5.893
  199TIP3    H2  539   2.800   6.215   5.954
  200TIP3   OH2  540   0.485   7.460   2.854
  200TIP3    H1  541   0.478   7.476   2.948
  200TIP3    H2  542   0.565   7.407   2.845
  201TIP3   OH2  543   2.476   7.616   1.640
  201TIP3    H1  544   2.508   7.634   1.729
  201TIP3    H2  545   2.446   7.525   1.644
  202TIP3   OH2  546   8.347   0.791   6.039
  202TIP3    H1  547   8.315   0.880   6.054
  202TIP3    H2  548   8.269   0.736   6.043
  203TIP3   OH2  549   4.243   6.799   3.803
  203TIP3    H1  550   4.314   6.743   3.833
  203TIP3    H2  551   4.243   6.788   3.707
  204TIP3   OH2  552   2.502   2.397   3.845
  204TIP3    H1  553   2.537   2.429   3.928
  204TIP3    H2  554   2.513   2.471   3.784
  205TIP3   OH2  555   6.706   3.638   6.274
  205TIP3    H1  556   6.688   3.732   6.269
  205TIP3    H2  557   6.627   3.596   6.241
  206TIP3   OH2  558   0.445   1.894   3.893
  206TIP3    H1  559   0.510   1.839   3.936
  206TIP3    H2  560   0.443   1.974   3.945
  207TIP3   OH2  561   4.382   1.182   3.554
  207TIP3    H1  562   4.432   1.253   3.514
  207TIP3    H2  563   4.384   1.201   3.648
  208TIP3   OH2  564   8.212   1.469   0.324
  208TIP3    H1  565   8.253   1.398   0.373
  208TIP3    H2  566   8.256   1.548   0.354
  209TIP3   OH2  567   3.445   3.162  -0.004
  209TIP3    H1  568   3.463   3.121   0.081
  209TIP3    H2  569   3.440   3.256   0.015
  210TIP3   OH2  570   7.059   1.887   0.621
  210TIP3    H1  571   7.029   1.968   0.580
  210TIP3    H2  572   7.149   1.877   0.590
  211TIP3   OH2  573   4.827   6.306   2.537
  211TIP3    H1  574   4.843   6.398   2.555
  211TIP3    H2  575   4.810   6.302   2.442
  212TIP3   OH2  576   8.301   2.962   5.325
  212TIP3    H1  577   8.261   2.955   5.238
  212TIP3    H2  578   8.368   2.894   5.326
  213TIP3   OH2  579   5.595   1.324   0.062
  213TIP3    H1  580   5.574   1.230   0.059
  213TIP3    H2  581   5.534   1.360   0.126
  214TIP3   OH2  582   1.750   5.550   4.115
  214TIP3    H1  583   1.662   5.579   4.089
  214TIP3    H2  584   1.772   5.481   4.053
  215TIP3   OH2  585   0.657   5.745   4.040
  215TIP3    H1  586   0.671   5.811   4.108
  215TIP3    H2  587   0.728   5.682   4.052
  216TIP3   OH2  588   4.650   6.787   4.814
  216TIP3    H1  589   4.615   6.726   4.750
  216TIP3    H2  590   4.634   6.873   4.777
  217TIP3   OH2  591   2.495   5.623   1.696
  217TIP3    H1  592   2.581   5.658   1.719
  217TIP3    H2  593   2.511   5.532   1.670
  218TIP3   OH2  594   7.271   1.595   0.442
  218TIP3    H1  595   7.288   1.688   0.453
  218TIP3    H2  596   7.217   1.590   0.363
  219TIP3   OH2  597   5.239   3.295   4.213
  219TIP3    H1  598   5.203   3.382   4.196
  219TIP3    H2  599   5.259   3.260   4.126
  220TIP3   OH2  600   4.543   7.836   4.854
  220TIP3    H1  601   4.567   7.924   4.826
  220TIP3    H2  602   4.550   7.783   4.774
  221TIP3   OH2  603   0.459   3.039   0.753
  221TIP3    H1  604   0.432   2.964   0.700
  221TIP3    H2  605   0.488   3.104   0.690
  222TIP3   OH2  606   7.450   4.463   2.581
  222TIP3    H1  607   7.479   4.509   2.659
  222TIP3    H2  608   7.452   4.529   2.512
  223TIP3   OH2  609   7.684   6.792   0.927
  223TIP3    H1  610   7.735   6.816   0.850
  223TIP3    H2  611   7.750   6.779   0.996
  224TIP3   OH2  612   7.962   4.339   1.249
  224TIP3    H1  613   8.050   4.327   1.212
  224TIP3    H2  614   7.971   4.310   1.340
  225TIP3   OH2  615   4.183   1.807   5.785
  225TIP3    H1  616   4.278   1.814   5.778
  225TIP3    H2  617   4.166   1.798   5.879
  226TIP3   OH2  618   2.793   7.429   3.825
  226TIP3    H1  619   2.804   7.446   3.731
  226TIP3    H2  620   2.739   7.351   3.829
  227TIP3   OH2  621   5.700   5.081   1.471
  227TIP3    H1  622   5.779   5.062   1.421
  227TIP3    H2  623   5.709   5.172   1.497
  228TIP3   OH2  624   1.550   7.062   2.342
  228TIP3    H1  625   1.628   7.086   2.392
  228TIP3    H2  626   1.485   7.127   2.367
  229TIP3   OH2  627   3.501   5.440   0.381
  229TIP3    H1  628   3.431   5.484   0.332
  229TIP3    H2  629   3.491   5.347   0.359
  230TIP3   OH2  630   4.378   4.100   0.787
  230TIP3    H1  631   4.314   4.104   0.858
  230TIP3    H2  632   4.361   4.017   0.743
  231TIP3   OH2  633   7.550   2.143   4.340
  231TIP3    H1  634   7.581   2.057   4.368
  231TIP3    H2  635   7.544   2.136   4.245
  232TIP3   OH2  636   0.359   6.159   6.113
  232TIP3    H1  637   0.314   6.148   6.029
  232TIP3    H2  638   0.364   6.071   6.150
  233TIP3   OH2  639   6.329   6.410   0.838
  233TIP3    H1  640   6.420   6.392   0.815
  233TIP3    H2  641   6.307   6.489   0.788
  234TIP3   OH2  642   8.393   6.595   3.642
  234TIP3    H1  643   8.426   6.548   3.719
  234TIP3    H2  644   8.299   6.582   3.644
  235TIP3   OH2  645   7.040   0.445   3.007
  235TIP3    H1  646   7.068   0.416   3.093
  235TIP3    H2  647   7.113   0.423   2.949
  236TIP3   OH2  648   5.007   2.508   1.817
  236TIP3    H1  649   5.011   2.437   1.880
  236TIP3    H2  650   5.089   2.556   1.829
  237TIP3   OH2  651   3.751   0.727   3.841
  237TIP3    H1  652   3.765   0.670   3.765
  237TIP3    H2  653   3.802   0.805   3.823
  238TIP3   OH2  654   4.745   0.251   0.252
  238TIP3    H1  655   4.670   0.296   0.212
  238TIP3    H2  656   4.765   0.180   0.192
  239TIP3   OH2  657   5.497   0.104   3.861
  239TIP3    H1  658   5.403   0.103   3.843
  239TIP3    H2  659   5.533   0.169   3.800
  240TIP3   OH2  660   6.544   5.687   0.407
  240TIP3    H1  661   6.489   5.744   0.461
  240TIP3    H2  662   6.631   5.725   0.414
  241TIP3   OH2  663   1.913   6.139   1.421
  241TIP3    H1  664   1.854   6.066   1.439
  241TIP3    H2  665   1.955   6.116   1.338
  242TIP3   OH2  666   5.502   4.944   1.783
  242TIP3    H1  667   5.468   4.940   1.873
  242TIP3    H2  668   5.592   4.974   1.794
  243TIP3   OH2  669   7.950   4.941   5.938
  243TIP3    H1  670   8.023   4.884   5.963
  243TIP3    H2  671   7.873   4.885   5.945
  244TIP3   OH2  672   3.041   1.885   6.826
  244TIP3    H1  673   3.029   1.979   6.812
  244TIP3    H2  674   3.032   1.847   6.739
  245TIP3   OH2  675   0.398   3.226   6.093
  245TIP3    H1  676   0.408   3.243   5.999
  245TIP3    H2  677   0.389   3.313   6.132
  246TIP3   OH2  678   3.762   0.492   6.396
  246TIP3    H1  679   3.698   0.514   6.464
  246TIP3    H2  680   3.808   0.574   6.379
  247TIP3   OH2  681   5.191   4.269   0.158
  247TIP3    H1  682   5.204   4.174   0.161
  247TIP3    H2  683   5.268   4.305   0.203
  248TIP3   OH2  684   1.870   5.975   2.217
  248TIP3    H1  685   1.862   5.927   2.300
  248TIP3    H2  686   1.841   5.912   2.151
  249TIP3   OH2  687   3.410   7.630   3.742
  249TIP3    H1  688   3.494   7.645   3.699
  249TIP3    H2  689   3.433   7.605   3.831
  250TIP3   OH2  690   7.329   6.295   5.144
  250TIP3    H1  691   7.265   6.280   5.213
  250TIP3    H2  692   7.277   6.305   5.064
  251TIP3   OH2  693   4.655   4.202   4.802
  251TIP3    H1  694   4.744   4.237   4.803
  251TIP3    H2  695   4.634   4.192   4.710
  252TIP3   OH2  696   4.959   5.390   5.343
  252TIP3    H1  697   4.974   5.386   5.437
  252TIP3    H2  698   4.904   5.467   5.330
  253TIP3   OH2  699   3.323   0.564   0.652
  253TIP3    H1  700   3.335   0.564   0.747
  253TIP3    H2  701   3.334   0.656   0.626
  254TIP3   OH2  702   7.555   6.076   5.953
  254TIP3    H1  703   7.603   6.156   5.930
  254TIP3    H2  704   7.491   6.065   5.883
  255TIP3   OH2  705   4.331   1.816   2.431
  255TIP3    H1  706   4.312   1.910   2.424
  255TIP3    H2  707   4.424   1.812   2.454
  256TIP3   OH2  708   2.610   6.404   5.087
  256TIP3    H1  709   2.589   6.318   5.051
  256TIP3    H2  710   2.525   6.445   5.103
  257TIP3   OH2  711   4.831   7.858   6.213
  257TIP3    H1  712   4.868   7.784   6.261
  257TIP3    H2  713   4.876   7.934   6.247
  258TIP3   OH2  714   6.372   4.410   4.445
  258TIP3    H1  715   6.282   4.435   4.466
  258TIP3    H2  716   6.423   4.490   4.462
  259TIP3   OH2  717   6.410   5.556   4.786
  259TIP3    H1  718   6.317   5.578   4.777
  259TIP3    H2  719   6.410   5.466   4.818
  260TIP3   OH2  720   4.826   7.304   3.036
  260TIP3    H1  721   4.805   7.303   3.129
  260TIP3    H2  722   4.922   7.302   3.033
  261TIP3   OH2  723   4.279   0.357   5.118
  261TIP3    H1  724   4.194   0.389   5.148
  261TIP3    H2  725   4.258   0.296   5.048
  262TIP3   OH2  726   6.133   1.658   4.406
  262TIP3    H1  727   6.203   1.624   4.350
  262TIP3    H2  728   6.087   1.722   4.351
  263TIP3   OH2  729   4.651   5.511   3.219
  263TIP3    H1  730   4.644   5.588   3.164
  263TIP3    H2  731   4.639   5.544   3.309
  264TIP3   OH2  732   2.668   3.136   0.473
  264TIP3    H1  733   2.637   3.106   0.388
  264TIP3    H2  734   2.744   3.191   0.453
  265TIP3   OH2  735   1.849   4.390   2.501
  265TIP3    H1  736   1.899   4.323   2.547
  265TIP3    H2  737   1.766   4.396   2.549
  266TIP3   OH2  738   0.793   1.171   0.290
  266TIP3    H1  739   0.744   1.089   0.292
  266TIP3    H2  740   0.822   1.180   0.199
  267TIP3   OH2  741   2.194   1.228   3.065
  267TIP3    H1  742   2.210   1.201   3.155
  267TIP3    H2  743   2.140   1.307   3.073
  268TIP3   OH2  744   5.497   0.247   4.228
  268TIP3    H1  745   5.581   0.292   4.221
  268TIP3    H2  746   5.458   0.253   4.141
  269TIP3   OH2  747   2.277   3.855   6.676
  269TIP3    H1  748   2.270   3.811   6.591
  269TIP3    H2  749   2.208   3.816   6.728
  270TIP3   OH2  750   0.831   7.092   4.992
  270TIP3    H1  751   0.911   7.143   4.984
  270TIP3    H2  752   0.761   7.156   4.988
  271TIP3   OH2  753   1.611   7.608   3.892
  271TIP3    H1  754   1.563   7.680   3.932
  271TIP3    H2  755   1.649   7.645   3.813
  272TIP3   OH2  756   4.508   4.822   0.804
  272TIP3    H1  757   4.485   4.804   0.712
  272TIP3    H2  758   4.543   4.739   0.836
  273TIP3   OH2  759   7.198  -0.019   1.715
  273TIP3    H1  760   7.285   0.015   1.735
  273TIP3    H2  761   7.151   0.055   1.677
  274TIP3   OH2  762   2.084   0.342   2.154
  274TIP3    H1  763   2.067   0.381   2.240
  274TIP3    H2  764   2.067   0.413   2.092
  275TIP3   OH2  765   0.531   6.992   2.575
  275TIP3    H1  766   0.553   6.945   2.655
  275TIP3    H2  767   0.564   6.938   2.504
  276TIP3   OH2  768   5.749   0.577   2.694
  276TIP3    H1  769   5.824   0.607   2.643
  276TIP3    H2  770   5.713   0.657   2.733
  277TIP3   OH2  771   1.442   6.585   2.509
  277TIP3    H1  772   1.522   6.618   2.550
  277TIP3    H2  773   1.460   6.591   2.415
  278TIP3   OH2  774   7.462   5.346   4.952
  278TIP3    H1  775   7.439   5.316   5.040
  278TIP3    H2  776   7.427   5.435   4.948
  279TIP3   OH2  777   3.124   6.445   6.277
  279TIP3    H1  778   3.139   6.398   6.359
  279TIP3    H2  779   3.029   6.447   6.268
  280TIP3   OH2  780   6.214   3.624   3.653
  280TIP3    H1  781   6.252   3.536   3.654
  280TIP3    H2  782   6.171   3.631   3.568
  281TIP3   OH2  783   0.139   2.622   2.456
  281TIP3    H1  784   0.072   2.689   2.441
  281TIP3    H2  785   0.220   2.661   2.424
  282TIP3   OH2  786   4.967   2.839   5.855
  282TIP3    H1  787   5.031   2.788   5.905
  282TIP3    H2  788   4.951   2.786   5.777
  283TIP3   OH2  789   7.474   5.207   4.687
  283TIP3    H1  790   7.442   5.255   4.611
  283TIP3    H2  791   7.479   5.272   4.757
  284TIP3   OH2  792   6.633   7.116   3.739
  284TIP3    H1  793   6.617   7.078   3.825
  284TIP3    H2  794   6.641   7.040   3.681
  285TIP3   OH2  795   8.360   6.391   5.198
  285TIP3    H1  796   8.431   6.355   5.145
  285TIP3    H2  797   8.328   6.316   5.249
  286TIP3   OH2  798   1.640   4.296   6.107
  286TIP3    H1  799   1.681   4.371   6.150
  286TIP3    H2  800   1.600   4.246   6.178
  287TIP3   OH2  801   6.121   4.144   0.336
  287TIP3    H1  802   6.101   4.051   0.351
  287TIP3    H2  803   6.213   4.153   0.360
  288TIP3   OH2  804   7.138   4.524   4.581
  288TIP3    H1  805   7.200   4.541   4.651
  288TIP3    H2  806   7.191   4.486   4.511
  289TIP3   OH2  807   4.494   0.162   5.173
  289TIP3    H1  808   4.420   0.222   5.184
  289TIP3    H2  809   4.527   0.180   5.085
  290TIP3   OH2  810   5.072   4.368   2.075
  290TIP3    H1  811   5.118   4.365   2.159
  290TIP3    H2  812   5.125   4.426   2.020
  291TIP3   OH2  813   6.995   3.860   3.372
  291TIP3    H1  814   7.087   3.847   3.347
  291TIP3    H2  815   6.997   3.937   3.430
  292TIP3   OH2  816   5.701   3.266   1.978
  292TIP3    H1  817   5.631   3.240   1.918
  292TIP3    H2  818   5.773   3.205   1.959
  293TIP3   OH2  819   6.479   1.728   1.091
  293TIP3    H1  820   6.419   1.802   1.086
  293TIP3    H2  821   6.509   1.727   1.182
  294TIP3   OH2  822   3.844   6.768   4.467
  294TIP3    H1  823   3.874   6.840   4.523
  294TIP3    H2  824   3.779   6.721   4.520
  295TIP3   OH2  825   2.861   5.265   3.390
  295TIP3    H1  826   2.824   5.309   3.314
  295TIP3    H2  827   2.956   5.269   3.377
  296TIP3   OH2  828   7.365   0.539   5.490
  296TIP3    H1  829   7.277   0.575   5.503
  296TIP3    H2  830   7.417   0.614   5.461
  297TIP3   OH2  831   1.540   2.931   3.850
  297TIP3    H1  832   1.585   2.978   3.920
  297TIP3    H2  833   1.450   2.920   3.882
  298TIP3   OH2  834   3.086   0.230   0.103
  298TIP3    H1  835   3.055   0.176   0.031
  298TIP3    H2  836   3.022   0.214   0.174
  299TIP3   OH2  837   5.177   0.430   4.133
  299TIP3    H1  838   5.170   0.382   4.216
  299TIP3    H2  839   5.100   0.487   4.132
  300TIP3   OH2  840   3.371   5.242   1.606
  300TIP3    H1  841   3.370   5.147   1.594
  300TIP3    H2  842   3.336   5.277   1.524
  301TIP3   OH2  843   5.972   4.039   3.560
  301TIP3    H1  844   6.004   4.044   3.650
  301TIP3    H2  845   5.974   3.945   3.539
  302TIP3   OH2  846   3.101   7.598   6.000
  302TIP3    H1  847   3.094   7.641   6.085
  302TIP3    H2  848   3.156   7.522   6.016
  303TIP3   OH2  849   5.409   0.419   6.650
  303TIP3    H1  850   5.500   0.430   6.621
  303TIP3    H2  851   5.415   0.415   6.745
  304TIP3   OH2  852   1.515   6.380   3.307
  304TIP3    H1  853   1.514   6.432   3.227
  304TIP3    H2  854   1.600   6.336   3.307
  305TIP3   OH2  855   4.536   7.436   5.152
  305TIP3    H1  856   4.590   7.357   5.146
  305TIP3    H2  857   4.561   7.476   5.235
  306TIP3   OH2  858   4.500   2.535   6.311
  306TIP3    H1  859   4.568   2.594   6.280
  306TIP3    H2  860   4.441   2.524   6.236
  307TIP3   OH2  861   2.778   4.685   3.385
  307TIP3    H1  862   2.792   4.667   3.478
  307TIP3    H2  863   2.778   4.781   3.379
  308TIP3   OH2  864   6.944   6.039   6.065
  308TIP3    H1  865   6.977   6.128   6.073
  308TIP3    H2  866   6.998   5.988   6.125
  309TIP3   OH2  867   4.113   3.339   1.650
  309TIP3    H1  868   4.130   3.253   1.611
  309TIP3    H2  869   4.194   3.387   1.638
  310TIP3   OH2  870   5.072   6.559   4.393
  310TIP3    H1  871   5.015   6.632   4.417
  310TIP3    H2  872   5.025   6.513   4.323
  311TIP3   OH2  873   1.645   5.914   6.313
  311TIP3    H1  874   1.694   5.944   6.236
  311TIP3    H2  875   1.682   5.828   6.332
  312TIP3   OH2  876   5.987   0.461   3.467
  312TIP3    H1  877   5.978   0.487   3.375
  312TIP3    H2  878   5.920   0.512   3.513
  313TIP3   OH2  879   5.829   3.605   3.768
  313TIP3    H1  880   5.879   3.637   3.843
  313TIP3    H2  881   5.738   3.622   3.790
  314TIP3   OH2  882   6.034   1.018   6.267
  314TIP3    H1  883   6.068   1.047   6.182
  314TIP3    H2  884   5.967   0.954   6.245
  315TIP3   OH2  885   5.113   5.844   4.970
  315TIP3    H1  886   5.052   5.908   4.933
  315TIP3    H2  887   5.198   5.888   4.969
  316TIP3   OH2  888   4.414   6.872   2.131
  316TIP3    H1  889   4.454   6.794   2.092
  316TIP3    H2  890   4.382   6.843   2.216
  317TIP3   OH2  891   3.198   2.133   0.769
  317TIP3    H1  892   3.179   2.040   0.774
  317TIP3    H2  893   3.139   2.174   0.832
  318TIP3   OH2  894   7.940   1.934   5.693
  318TIP3    H1  895   7.936   2.004   5.758
  318TIP3    H2  896   8.033   1.922   5.676
  319TIP3   OH2  897   1.585   6.898   1.505
  319TIP3    H1  898   1.594   6.810   1.469
  319TIP3    H2  899   1.538   6.947   1.438
  320TIP3   OH2  900   5.449   4.942   0.183
  320TIP3    H1  901   5.518   4.881   0.211
  320TIP3    H2  902   5.369   4.908   0.222
  321TIP3   OH2  903   5.645   6.962   6.697
  321TIP3    H1  904   5.628   6.928   6.785
  321TIP3    H2  905   5.653   6.884   6.642
  322TIP3   OH2  906   4.982   4.749   1.546
  322TIP3    H1  907   4.894   4.713   1.535
  322TIP3    H2  908   4.971   4.822   1.607
  323TIP3   OH2  909   7.449   5.267   0.752
  323TIP3    H1  910   7.445   5.252   0.846
  323TIP3    H2  911   7.474   5.359   0.744
  324TIP3   OH2  912   2.006   2.833   3.043
  324TIP3    H1  913   1.943   2.896   3.009
  324TIP3    H2  914   2.019   2.771   2.970
  325TIP3   OH2  915   2.075   5.339   0.683
  325TIP3    H1  916   2.086   5.245   0.698
  325TIP3    H2  917   2.139   5.380   0.740
  326TIP3   OH2  918   4.219   4.314   0.678
  326TIP3    H1  919   4.159   4.279   0.612
  326TIP3    H2  920   4.294   4.255   0.676
  327TIP3   OH2  921   4.048   7.256   1.246
  327TIP3    H1  922   4.131   7.235   1.289
  327TIP3    H2  923   3.987   7.270   1.318
  328TIP3   OH2  924   8.259   0.331   0.052
  328TIP3    H1  925   8.342   0.304   0.091
  328TIP3    H2  926   8.246   0.269  -0.020
  329TIP3   OH2  927   2.455   6.101   4.251
  329TIP3    H1  928   2.529   6.107   4.311
  329TIP3    H2  929   2.392   6.165   4.285
  330TIP3   OH2  930   7.957   6.630   6.631
  330TIP3    H1  931   7.902   6.708   6.642
  330TIP3    H2  932   7.970   6.623   6.537
  331TIP3   OH2  933   1.297   7.907   2.268
  331TIP3    H1  934   1.273   7.815   2.279
  331TIP3    H2  935   1.221   7.956   2.298
  332TIP3   OH2  936   5.104   1.605   5.300
  332TIP3    H1  937   5.149   1.527   5.332
  332TIP3    H2  938   5.111   1.600   5.205
  333TIP3   OH2  939   4.297   7.232   1.677
  333TIP3    H1  940   4.321   7.277   1.758
  333TIP3    H2  941   4.229   7.170   1.703
  334TIP3   OH2  942   0.634   5.385   1.934
  334TIP3    H1  943   0.542   5.361   1.924
  334TIP3    H2  944   0.681   5.302   1.921
  335TIP3   OH2  945   7.069   1.417   6.014
  335TIP3    H1  946   7.091   1.386   6.102
  335TIP3    H2  947   6.989   1.368   5.991
  336TIP3   OH2  948   7.433   3.989   2.158
  336TIP3    H1  949   7.364   3.938   2.116
  336TIP3    H2  950   7.503   3.993   2.092
  337TIP3   OH2  951   7.150   2.420   4.274
  337TIP3    H1  952   7.206   2.470   4.215
  337TIP3    H2  953   7.089   2.485   4.310
  338TIP3   OH2  954   5.994   1.967   2.494
  338TIP3    H1  955   5.900   1.960   2.477
  338TIP3    H2  956   6.011   2.061   2.500
  339TIP3   OH2  957   3.995   4.979   4.320
  339TIP3    H1  958   3.974   5.070   4.299
  339TIP3    H2  959   4.091   4.977   4.324
  340TIP3   OH2  960   7.031   4.828   5.492
  340TIP3    H1  961   6.940   4.827   5.461
  340TIP3    H2  962   7.034   4.760   5.559
  341TIP3   OH2  963  -0.003   0.872   1.529
  341TIP3    H1  964   0.074   0.914   1.569
  341TIP3    H2  965   0.001   0.782   1.561
  342TIP3   OH2  966   5.521   5.973   1.468
  342TIP3    H1  967   5.478   5.997   1.385
  342TIP3    H2  968   5.606   5.938   1.441
  343TIP3   OH2  969   6.125   5.042   0.105
  343TIP3    H1  970   6.216   5.072   0.098
  343TIP3    H2  971   6.105   5.005   0.019
  344TIP3   OH2  972   0.780   5.022   1.125
  344TIP3    H1  973   0.704   5.035   1.068
  344TIP3    H2  974   0.834   4.958   1.079
  345TIP3   OH2  975   7.509   6.042   4.105
  345TIP3    H1  976   7.569   5.967   4.101
  345TIP3    H2  977   7.452   6.024   4.179
  346TIP3   OH2  978   5.815   3.909   5.443
  346TIP3    H1  979   5.876   3.846   5.403
  346TIP3    H2  980   5.743   3.855   5.476
  347TIP3   OH2  981   5.877   4.628   0.906
  347TIP3    H1  982   5.819   4.702   0.883
  347TIP3    H2  983   5.933   4.617   0.830
  348TIP3   OH2  984   6.138   6.038   6.605
  348TIP3    H1  985   6.139   6.133   6.617
  348TIP3    H2  986   6.076   6.023   6.534
  349TIP3   OH2  987   8.026   2.893   6.007
  349TIP3    H1  988   8.045   2.949   5.932
  349TIP3    H2  989   7.934   2.910   6.026
  350TIP3   OH2  990   2.217   3.411   4.600
  350TIP3    H1  991   2.239   3.330   4.646
  350TIP3    H2  992   2.287   3.423   4.536
  351TIP3   OH2  993   7.793   5.068   1.308
  351TIP3    H1  994   7.806   4.977   1.336
  351TIP3    H2  995   7.700   5.085   1.326
  352TIP3   OH2  996   4.832   6.624   3.849
  352TIP3    H1  997   4.854   6.538   3.814
  352TIP3    H2  998   4.917   6.665   3.865
  353TIP3   OH2  999   6.457   7.377   2.407
  353TIP3    H1 1000   6.456   7.461   2.361
  353TIP3    H2 1001   6.548   7.367   2.436
  354TIP3   OH2 1002   5.491   1.660   5.140
  354TIP3    H1 1003   5.450   1.675   5.055
  354TIP3    H2 1004   5.437   1.593   5.181
  355TIP3   OH2 1005   2.064   0.814   4.958
  355TIP3    H1 1006   2.127   0.879   4.926
  355TIP3    H2 1007   2.097   0.730   4.924
  356TIP3   OH2 1008   2.785   2.016   1.113
  356TIP3    H1 1009   2.779   2.107   1.082
  356TIP3    H2 1010   2.780   2.023   1.208
  357TIP3   OH2 1011   1.206   0.388   6.395
  357TIP3    H1 1012   1.245   0.449   6.458
  357TIP3    H2 1013   1.270   0.385   6.323
  358TIP3   OH2 1014   1.130   6.369   0.524
  358TIP3    H1 1015   1.127   6.305   0.595
  358TIP3    H2 1016   1.057   6.344   0.466
  359TIP3   OH2 1017   0.050   6.896   6.707
  359TIP3    H1 1018   0.070   6.973   6.655
  359TIP3    H2 1019   0.125   6.887   6.767
  360TIP3   OH2 1020   3.380   1.110   5.345
  360TIP3    H1 1021   3.324   1.044   5.303
  360TIP3    H2 1022   3.326   1.145   5.416
  361TIP3   OH2 1023   2.475   1.474   4.211
  361TIP3    H1 1024   2.404   1.496   4.150
  361TIP3    H2 1025   2.523   1.556   4.222
  362TIP3   OH2 1026   4.348   6.865   0.845
  362TIP3    H1 1027   4.291   6.789   0.837
  362TIP3    H2 1028   4.409   6.843   0.916
  363TIP3   OH2 1029   8.058   1.245   2.825
  363TIP3    H1 1030   8.080   1.240   2.918
  363TIP3    H2 1031   8.007   1.166   2.809
  364TIP3   OH2 1032   2.227   3.361   6.405
  364TIP3    H1 1033   2.285   3.407   6.344
  364TIP3    H2 1034   2.142   3.403   6.394
  365TIP3   OH2 1035   2.763   0.958   5.079
  365TIP3    H1 1036   2.725   0.871   5.065
  365TIP3    H2 1037   2.732   1.009   5.004
  366TIP3   OH2 1038   6.468   0.464   2.037
  366TIP3    H1 1039   6.493   0.431   1.951
  366TIP3    H2 1040   6.372   0.463   2.037
  367TIP3   OH2 1041   3.062   4.620   3.316
  367TIP3    H1 1042   2.983   4.623   3.370
  367TIP3    H2 1043   3.126   4.574   3.370
  368TIP3   OH2 1044   1.257   6.365   2.247
  368TIP3    H1 1045   1.197   6.429   2.286
  368TIP3    H2 1046   1.199   6.300   2.206
  369TIP3   OH2 1047   7.885   6.226   3.299
  369TIP3    H1 1048   7.900   6.317   3.273
  369TIP3    H2 1049   7.965   6.180   3.274
  370TIP3   OH2 1050   3.142   5.692   2.474
  370TIP3    H1 1051   3.174   5.669   2.561
  370TIP3    H2 1052   3.100   5.612   2.442
  371TIP3   OH2 1053   2.328   7.312   3.612
  371TIP3    H1 1054   2.418   7.330   3.584
  371TIP3    H2 1055   2.299   7.393   3.654
  372TIP3   OH2 1056   1.387   3.963   5.324
  372TIP3    H1 1057   1.397   3.884   5.272
  372TIP3    H2 1058   1.473   3.976   5.364
  373TIP3   OH2 1059   2.549   2.995   0.279
  373TIP3    H1 1060   2.490   2.928   0.246
  373TIP3    H2 1061   2.602   3.020   0.202
  374TIP3   OH2 1062   5.865   0.138   0.954
  374TIP3    H1 1063   5.770   0.147   0.968
  374TIP3    H2 1064   5.874   0.058   0.903
  375TIP3   OH2 1065   1.000   5.193   2.868
  375TIP3    H1 1066   0.927   5.155   2.918
  375TIP3    H2 1067   1.032   5.120   2.814
  376TIP3   OH2 1068   4.405   6.657   1.329
  376TIP3    H1 1069   4.470   6.725   1.345
  376TIP3    H2 1070   4.321   6.703   1.331
  377TIP3   OH2 1071   5.030   3.986   6.817
  377TIP3    H1 1072   5.065   4.074   6.830
  377TIP3    H2 1073   5.000   3.959   6.903
  378TIP3   OH2 1074   8.145   7.566   2.520
  378TIP3    H1 1075   8.151   7.657   2.550
  378TIP3    H2 1076   8.116   7.517   2.597
  379TIP3   OH2 1077   2.126   7.371   2.334
  379TIP3    H1 1078   2.078   7.359   2.416
  379TIP3    H2 1079   2.076   7.321   2.270
  380TIP3   OH2 1080   7.021   1.108   5.931
  380TIP3    H1 1081   6.976   1.083   5.851
  380TIP3    H2 1082   6.960   1.165   5.977
  381TIP3   OH2 1083   5.479   4.631   2.074
  381TIP3    H1 1084   5.526   4.574   2.013
  381TIP3    H2 1085   5.523   4.617   2.158
  382TIP3   OH2 1086   0.435   5.031   0.178
  382TIP3    H1 1087   0.509   5.076   0.137
  382TIP3    H2 1088   0.372   5.101   0.196
  383TIP3   OH2 1089   7.666   5.688   3.924
  383TIP3    H1 1090   7.721   5.610   3.934
  383TIP3    H2 1091   7.687   5.743   3.999
  384TIP3   OH2 1092   3.385   4.006   5.599
  384TIP3    H1 1093   3.386   3.912   5.615
  384TIP3    H2 1094   3.439   4.043   5.669
  385TIP3   OH2 1095   6.094   2.826   1.829
  385TIP3    H1 1096   6.090   2.746   1.882
  385TIP3    H2 1097   6.009   2.829   1.784
  386TIP3   OH2 1098   1.091   3.405   4.116
  386TIP3    H1 1099   1.154   3.449   4.060
  386TIP3    H2 1100   1.087   3.459   4.195
  387TIP3   OH2 1101   4.165   3.840   1.577
  387TIP3    H1 1102   4.158   3.781   1.652
  387TIP3    H2 1103   4.082   3.832   1.532
  388TIP3   OH2 1104   7.056   5.237   0.153
  388TIP3    H1 1105   7.032   5.285   0.073
  388TIP3    H2 1106   7.065   5.146   0.124
  389TIP3   OH2 1107   3.780   5.064   3.847
  389TIP3    H1 1108   3.862   5.041   3.804
  389TIP3    H2 1109   3.763   4.991   3.906
  390TIP3   OH2 1110   0.560   3.650   3.024
  390TIP3    H1 1111   0.503   3.680   3.094
  390TIP3    H2 1112   0.509   3.583   2.978
  391TIP3   OH2 1113   7.667   2.684   0.181
  391TIP3    H1 1114   7.619   2.718   0.257
  391TIP3    H2 1115   7.600   2.642   0.127
  392TIP3   OH2 1116   3.905   6.464   5.455
  392TIP3    H1 1117   3.989   6.454   5.501
  392TIP3    H2 1118   3.870   6.547   5.488
  393TIP3   OH2 1119   1.951   5.626   5.892
  393TIP3    H1 1120   1.940   5.696   5.829
  393TIP3    H2 1121   1.921   5.547   5.847
  394TIP3   OH2 1122   2.792   6.705   4.512
  394TIP3    H1 1123   2.788   6.702   4.416
  394TIP3    H2 1124   2.766   6.795   4.533
  395TIP3   OH2 1125   7.270   1.183   2.407
  395TIP3    H1 1126   7.268   1.244   2.333
  395TIP3    H2 1127   7.251   1.098   2.369
  396TIP3   OH2 1128   4.899   0.982   0.563
  396TIP3    H1 1129   4.945   1.051   0.515
  396TIP3    H2 1130   4.818   0.969   0.514
  397TIP3   OH2 1131   6.611   5.060   0.797
  397TIP3    H1 1132   6.678   5.018   0.851
  397TIP3    H2 1133   6.639   5.151   0.789
  398TIP3   OH2 1134   4.729   3.740   6.740
  398TIP3    H1 1135   4.768   3.806   6.798
  398TIP3    H2 1136   4.675   3.790   6.679
  399TIP3   OH2 1137   5.756   0.905   3.476
  399TIP3    H1 1138   5.685   0.924   3.537
  399TIP3    H2 1139   5.718   0.921   3.390
  400TIP3   OH2 1140   0.636   4.171   2.694
  400TIP3    H1 1141   0.547   4.199   2.717
  400TIP3    H2 1142   0.676   4.249   2.656
  401TIP3   OH2 1143   7.522   4.797   4.493
  401TIP3    H1 1144   7.516   4.844   4.410
  401TIP3    H2 1145   7.524   4.865   4.560
  402TIP3   OH2 1146   4.383   3.423   1.311
  402TIP3    H1 1147   4.466   3.439   1.265
  402TIP3    H2 1148   4.346   3.510   1.326
  403TIP3   OH2 1149   3.399   6.546   5.654
  403TIP3    H1 1150   3.379   6.459   5.690
  403TIP3    H2 1151   3.391   6.534   5.559
  404TIP3   OH2 1152   1.062   5.039   5.745
  404TIP3    H1 1153   1.028   5.128   5.757
  404TIP3    H2 1154   1.155   5.046   5.765
  405TIP3   OH2 1155   0.386   7.747   2.396
  405TIP3    H1 1156   0.476   7.773   2.412
  405TIP3    H2 1157   0.344   7.825   2.361
  406TIP3   OH2 1158   3.965   4.922   2.783
  406TIP3    H1 1159   3.907   4.998   2.796
  406TIP3    H2 1160   3.982   4.890   2.871
  407TIP3   OH2 1161   4.638   1.631   1.027
  407TIP3    H1 1162   4.684   1.714   1.034
  407TIP3    H2 1163   4.551   1.655   0.994
  408TIP3   OH2 1164   5.995   1.337   5.270
  408TIP3    H1 1165   5.933   1.276   5.310
  408TIP3    H2 1166   6.041   1.284   5.204
  409TIP3   OH2 1167   7.937   1.362   0.258
  409TIP3    H1 1168   8.023   1.394   0.283
  409TIP3    H2 1169   7.910   1.306   0.331
  410TIP3   OH2 1170   3.138   7.521   5.698
  410TIP3    H1 1171   3.174   7.532   5.610
  410TIP3    H2 1172   3.161   7.602   5.744
  411TIP3   OH2 1173   3.912   2.963   6.812
  411TIP3    H1 1174   3.894   2.912   6.891
  411TIP3    H2 1175   3.938   2.898   6.747
  412TIP3   OH2 1176   0.372   0.485   1.409
  412TIP3    H1 1177   0.411   0.408   1.366
  412TIP3    H2 1178   0.278   0.468   1.407
  413TIP3   OH2 1179   7.159   0.357   1.977
  413TIP3    H1 1180   7.131   0.267   1.956
  413TIP3    H2 1181   7.078   0.401   2.003
  414TIP3   OH2 1182   5.208   1.367   1.896
  414TIP3    H1 1183   5.221   1.285   1.944
  414TIP3    H2 1184   5.119   1.394   1.919
  415TIP3   OH2 1185   3.174   0.920   0.142
  415TIP3    H1 1186   3.084   0.930   0.111
  415TIP3    H2 1187   3.205   0.841   0.098
  416TIP3   OH2 1188   0.780   2.864   4.558
  416TIP3    H1 1189   0.777   2.957   4.538
  416TIP3    H2 1190   0.840   2.857   4.632
  417TIP3   OH2 1191   4.850   4.511   2.174
  417TIP3    H1 1192   4.888   4.589   2.132
  417TIP3    H2 1193   4.903   4.438   2.142
  418TIP3   OH2 1194   0.090   2.447   0.214
  418TIP3    H1 1195   0.037   2.510   0.166
  418TIP3    H2 1196   0.121   2.386   0.147
  419TIP3   OH2 1197   5.124   3.858   2.538
  419TIP3    H1 1198   5.207   3.892   2.504
  419TIP3    H2 1199   5.121   3.890   2.628
  420TIP3   OH2 1200   2.240   6.758   2.545
  420TIP3    H1 1201   2.190   6.685   2.507
  420TIP3    H2 1202   2.192   6.836   2.519
  421TIP3   OH2 1203   7.382   7.383   0.943
  421TIP3    H1 1204   7.360   7.426   0.860
  421TIP3    H2 1205   7.456   7.326   0.921
  422TIP3   OH2 1206   5.283   2.366   6.669
  422TIP3    H1 1207   5.363   2.373   6.617
  422TIP3    H2 1208   5.297   2.288   6.723
  423TIP3   OH2 1209   1.651   5.472   5.943
  423TIP3    H1 1210   1.556   5.459   5.937
  423TIP3    H2 1211   1.661   5.557   5.985
  424TIP3   OH2 1212   3.594   0.492   0.693
  424TIP3    H1 1213   3.530   0.528   0.632
  424TIP3    H2 1214   3.561   0.404   0.713
  425TIP3   OH2 1215   0.182   3.663   6.335
  425TIP3    H1 1216   0.110   3.676   6.274
  425TIP3    H2 1217   0.234   3.743   6.328
  426TIP3   OH2 1218   1.926   7.249   6.396
  426TIP3    H1 1219   1.918   7.324   6.456
  426TIP3    H2 1220   1.941   7.174   6.454
  427TIP3   OH2 1221   1.222   1.351   0.421
  427TIP3    H1 1222   1.212   1.284   0.354
  427TIP3    H2 1223   1.246   1.302   0.500
  428TIP3   OH2 1224   7.226   2.236   3.226
  428TIP3    H1 1225   7.263   2.291   3.158
  428TIP3    H2 1226   7.147   2.282   3.255
  429TIP3   OH2 1227   8.316   5.744   6.454
  429TIP3    H1 1228   8.222   5.761   6.450
  429TIP3    H2 1229   8.347   5.757   6.364
  430TIP3   OH2 1230   8.061   0.972   0.115
  430TIP3    H1 1231   8.107   1.033   0.173
  430TIP3    H2 1232   7.970   1.001   0.116
  431TIP3   OH2 1233   6.805   6.021   1.489
  431TIP3    H1 1234   6.780   5.988   1.403
  431TIP3    H2 1235   6.756   5.967   1.551
  432TIP3   OH2 1236   1.115   2.977   3.245
  432TIP3    H1 1237   1.044   2.931   3.200
  432TIP3    H2 1238   1.080   2.996   3.332
  433TIP3   OH2 1239   6.185   7.537   6.120
  433TIP3    H1 1240   6.175   7.560   6.213
  433TIP3    H2 1241   6.116   7.472   6.104
  434TIP3   OH2 1242   1.691   5.115   1.143
  434TIP3    H1 1243   1.737   5.040   1.181
  434TIP3    H2 1244   1.745   5.190   1.167
  435TIP3   OH2 1245   4.492   6.171   3.067
  435TIP3    H1 1246   4.478   6.258   3.030
  435TIP3    H2 1247   4.482   6.184   3.162
  436TIP3   OH2 1248   6.299   7.559   3.798
  436TIP3    H1 1249   6.262   7.578   3.885
  436TIP3    H2 1250   6.374   7.502   3.816
  437TIP3   OH2 1251   2.400   1.911   1.535
  437TIP3    H1 1252   2.412   1.962   1.455
  437TIP3    H2 1253   2.331   1.957   1.582
  438TIP3   OH2 1254   1.374   0.971   6.810
  438TIP3    H1 1255   1.423   1.053   6.816
  438TIP3    H2 1256   1.400   0.922   6.888
  439TIP3   OH2 1257   2.748   7.409   1.338
  439TIP3    H1 1258   2.794   7.349   1.397
  439TIP3    H2 1259   2.727   7.485   1.392
  440TIP3   OH2 1260   2.038   7.337   2.592
  440TIP3    H1 1261   2.090   7.397   2.646
  440TIP3    H2 1262   1.948   7.369   2.600
  441TIP3   OH2 1263   4.056   4.931   2.032
  441TIP3    H1 1264   4.022   4.878   2.104
  441TIP3    H2 1265   4.090   5.010   2.074
  442TIP3   OH2 1266   2.690   4.062   2.759
  442TIP3    H1 1267   2.756   4.130   2.774
  442TIP3    H2 1268   2.687   4.014   2.842
  443TIP3   OH2 1269   2.082   6.911   5.298
  443TIP3    H1 1270   2.039   6.932   5.381
  443TIP3    H2 1271   2.149   6.978   5.288
  444TIP3   OH2 1272   5.778   0.861   2.842
  444TIP3    H1 1273   5.868   0.829   2.836
  444TIP3    H2 1274   5.782   0.951   2.809
  445TIP3   OH2 1275   3.770   1.342   4.909
  445TIP3    H1 1276   3.765   1.336   5.004
  445TIP3    H2 1277   3.780   1.252   4.879
  446TIP3   OH2 1278   4.747   1.379   2.614
  446TIP3    H1 1279   4.661   1.358   2.651
  446TIP3    H2 1280   4.764   1.308   2.551
  447TIP3   OH2 1281   6.065   3.062   3.382
  447TIP3    H1 1282   6.129   2.990   3.384
  447TIP3    H2 1283   6.100   3.127   3.441
  448TIP3   OH2 1284   2.510   3.540   1.378
  448TIP3    H1 1285   2.494   3.524   1.285
  448TIP3    H2 1286   2.433   3.505   1.422
  449TIP3   OH2 1287   3.650   6.962   0.196
  449TIP3    H1 1288   3.742   6.935   0.189
  449TIP3    H2 1289   3.607   6.886   0.236
  450TIP3   OH2 1290   5.315   0.824   3.769
  450TIP3    H1 1291   5.221   0.838   3.781
  450TIP3    H2 1292   5.325   0.729   3.762
  451TIP3   OH2 1293   3.370   3.384   3.495
  451TIP3    H1 1294   3.274   3.375   3.497
  451TIP3    H2 1295   3.402   3.306   3.540
  452TIP3   OH2 1296   7.934   4.247   3.658
  452TIP3    H1 1297   7.988   4.284   3.588
  452TIP3    H2 1298   7.844   4.262   3.630
  453TIP3   OH2 1299   0.068   5.500   6.449
  453TIP3    H1 1300   0.011   5.574   6.429
  453TIP3    H2 1301   0.152   5.522   6.408
  454TIP3   OH2 1302   1.046   2.339   5.791
  454TIP3    H1 1303   1.042   2.245   5.810
  454TIP3    H2 1304   0.984   2.378   5.853
  455TIP3   OH2 1305   0.142   0.780   4.174
  455TIP3    H1 1306   0.130   0.752   4.265
  455TIP3    H2 1307   0.199   0.714   4.136
  456TIP3   OH2 1308   1.763   1.530   6.208
  456TIP3    H1 1309   1.827   1.571   6.150
  456TIP3    H2 1310   1.812   1.460   6.251
  457TIP3   OH2 1311   0.699   3.522   2.449
  457TIP3    H1 1312   0.659   3.609   2.461
  457TIP3    H2 1313   0.791   3.535   2.471
  458TIP3   OH2 1314   8.326   0.489   3.380
  458TIP3    H1 1315   8.372   0.494   3.296
  458TIP3    H2 1316   8.280   0.573   3.387
  459TIP3   OH2 1317   6.691   4.344   5.480
  459TIP3    H1 1318   6.701   4.254   5.449
  459TIP3    H2 1319   6.631   4.385   5.417
  460TIP3   OH2 1320   8.338   2.313   5.399
  460TIP3    H1 1321   8.348   2.384   5.463
  460TIP3    H2 1322   8.392   2.339   5.325
  461TIP3   OH2 1323   5.480   0.967   1.112
  461TIP3    H1 1324   5.391   1.000   1.122
  461TIP3    H2 1325   5.506   0.941   1.200
  462TIP3   OH2 1326   5.959   4.161   2.980
  462TIP3    H1 1327   5.968   4.237   3.039
  462TIP3    H2 1328   5.945   4.087   3.039
  463TIP3   OH2 1329   1.938   1.753   2.492
  463TIP3    H1 1330   1.843   1.748   2.486
  463TIP3    H2 1331   1.961   1.690   2.561
  464TIP3   OH2 1332   6.679   0.100   0.058
  464TIP3    H1 1333   6.741   0.117  -0.013
  464TIP3    H2 1334   6.701   0.163   0.125
  465TIP3   OH2 1335   8.247   0.521   2.082
  465TIP3    H1 1336   8.269   0.475   2.163
  465TIP3    H2 1337   8.329   0.524   2.033
  466TIP3   OH2 1338   5.864   1.444   3.635
  466TIP3    H1 1339   5.854   1.527   3.681
  466TIP3    H2 1340   5.950   1.412   3.661
  467TIP3   OH2 1341   3.424   4.126   6.365
  467TIP3    H1 1342   3.484   4.077   6.309
  467TIP3    H2 1343   3.388   4.060   6.425
  468TIP3   OH2 1344   7.139   3.231   2.135
  468TIP3    H1 1345   7.101   3.204   2.219
  468TIP3    H2 1346   7.105   3.319   2.120
  469TIP3   OH2 1347   4.226   4.408   3.425
  469TIP3    H1 1348   4.320   4.396   3.418
  469TIP3    H2 1349   4.191   4.372   3.343
  470TIP3   OH2 1350   6.051   0.460   6.631
  470TIP3    H1 1351   6.097   0.540   6.657
  470TIP3    H2 1352   5.980   0.451   6.695
  471TIP3   OH2 1353   7.310   4.903   1.437
  471TIP3    H1 1354   7.236   4.961   1.456
  471TIP3    H2 1355   7.297   4.827   1.494
  472TIP3   OH2 1356   1.580   0.280   2.161
  472TIP3    H1 1357   1.567   0.337   2.237
  472TIP3    H2 1358   1.617   0.338   2.094
  473TIP3   OH2 1359   4.590   4.038   2.645
  473TIP3    H1 1360   4.589   4.025   2.550
  473TIP3    H2 1361   4.586   4.133   2.657
  474TIP3   OH2 1362   4.289   1.681   0.427
  474TIP3    H1 1363   4.368   1.726   0.397
  474TIP3    H2 1364   4.242   1.660   0.346
  475TIP3   OH2 1365   5.233   1.393   5.918
  475TIP3    H1 1366   5.261   1.484   5.912
  475TIP3    H2 1367   5.151   1.396   5.968
  476TIP3   OH2 1368   5.547   6.982   4.589
  476TIP3    H1 1369   5.558   7.050   4.655
  476TIP3    H2 1370   5.482   6.923   4.626
  477TIP3   OH2 1371   6.850   7.761   4.840
  477TIP3    H1 1372   6.821   7.675   4.811
  477TIP3    H2 1373   6.887   7.801   4.761
  478TIP3   OH2 1374   6.542   1.205   3.845
  478TIP3    H1 1375   6.532   1.136   3.910
  478TIP3    H2 1376   6.452   1.220   3.814
  479TIP3   OH2 1377   5.225   7.411   1.920
  479TIP3    H1 1378   5.300   7.460   1.953
  479TIP3    H2 1379   5.202   7.456   1.838
  480TIP3   OH2 1380   0.076   5.183   2.781
  480TIP3    H1 1381   0.016   5.244   2.738
  480TIP3    H2 1382   0.163   5.211   2.751
  481TIP3   OH2 1383   7.681   6.505   5.643
  481TIP3    H1 1384   7.686   6.599   5.664
  481TIP3    H2 1385   7.655   6.503   5.551
  482TIP3   OH2 1386   5.221   7.319   6.536
  482TIP3    H1 1387   5.184   7.241   6.577
  482TIP3    H2 1388   5.275   7.285   6.465
  483TIP3   OH2 1389   6.884   0.934   6.113
  483TIP3    H1 1390   6.887   1.022   6.075
  483TIP3    H2 1391   6.802   0.931   6.161
  484TIP3   OH2 1392   4.603   6.577   3.660
  484TIP3    H1 1393   4.677   6.598   3.717
  484TIP3    H2 1394   4.638   6.515   3.596
  485TIP3   OH2 1395   2.018   0.381   1.509
  485TIP3    H1 1396   2.021   0.322   1.433
  485TIP3    H2 1397   1.950   0.344   1.565
  486TIP3   OH2 1398   0.780   5.916   2.978
  486TIP3    H1 1399   0.862   5.953   2.946
  486TIP3    H2 1400   0.751   5.976   3.046
  487TIP3   OH2 1401   0.714   0.292   2.158
  487TIP3    H1 1402   0.722   0.373   2.108
  487TIP3    H2 1403   0.670   0.316   2.239
  488TIP3   OH2 1404   0.742   5.791   2.553
  488TIP3    H1 1405   0.773   5.875   2.588
  488TIP3    H2 1406   0.815   5.760   2.499
  489TIP3   OH2 1407   5.519   2.845   0.737
  489TIP3    H1 1408   5.462   2.775   0.769
  489TIP3    H2 1409   5.459   2.913   0.708
  490TIP3   OH2 1410   4.633   5.904   0.018
  490TIP3    H1 1411   4.625   5.894   0.113
  490TIP3    H2 1412   4.559   5.854  -0.018
  491TIP3   OH2 1413   2.797   6.788   6.144
  491TIP3    H1 1414   2.727   6.806   6.206
  491TIP3    H2 1415   2.876   6.822   6.187
  492TIP3   OH2 1416   4.165   2.746   3.745
  492TIP3    H1 1417   4.128   2.815   3.688
  492TIP3    H2 1418   4.155   2.666   3.694
  493TIP3   OH2 1419   1.035   6.302   0.054
  493TIP3    H1 1420   1.078   6.296   0.140
  493TIP3    H2 1421   1.107   6.301  -0.008
  494TIP3   OH2 1422   1.010   0.797   5.049
  494TIP3    H1 1423   1.003   0.763   5.138
  494TIP3    H2 1424   1.079   0.863   5.054
  495TIP3   OH2 1425   0.495   4.634   0.076
  495TIP3    H1 1426   0.553   4.573   0.121
  495TIP3    H2 1427   0.539   4.719   0.085
  496TIP3   OH2 1428   3.654   1.841   4.740
  496TIP3    H1 1429   3.626   1.759   4.781
  496TIP3    H2 1430   3.624   1.833   4.649
  497TIP3   OH2 1431   2.151   7.547   5.213
  497TIP3    H1 1432   2.173   7.532   5.121
  497TIP3    H2 1433   2.120   7.638   5.216
  498TIP3   OH2 1434   2.122   0.690   2.202
  498TIP3    H1 1435   2.135   0.625   2.271
  498TIP3    H2 1436   2.079   0.764   2.246
  499TIP3   OH2 1437   2.915   2.864   3.335
  499TIP3    H1 1438   2.897   2.948   3.293
  499TIP3    H2 1439   2.950   2.809   3.264
  500TIP3   OH2 1440   0.020   3.401   5.031
  500TIP3    H1 1441   0.071   3.435   4.957
  500TIP3    H2 1442   0.024   3.470   5.097
  501TIP3   OH2 1443   2.834   4.670   5.294
  501TIP3    H1 1444   2.902   4.627   5.241
  501TIP3    H2 1445   2.883   4.725   5.355
  502TIP3   OH2 1446   4.640   5.086   0.921
  502TIP3    H1 1447   4.630   5.180   0.939
  502TIP3    H2 1448   4.556   5.060   0.884
  503TIP3   OH2 1449   4.105   5.970   4.437
  503TIP3    H1 1450   4.188   5.934   4.470
  503TIP3    H2 1451   4.132   6.035   4.372
  504TIP3   OH2 1452   3.745   0.765   2.149
  504TIP3    H1 1453   3.813   0.706   2.183
  504TIP3    H2 1454   3.736   0.832   2.217
  505TIP3   OH2 1455   6.827   0.349   2.557
  505TIP3    H1 1456   6.821   0.421   2.495
  505TIP3    H2 1457   6.833   0.392   2.643
  506TIP3   OH2 1458   0.055   7.646   4.150
  506TIP3    H1 1459   0.108   7.648   4.229
  506TIP3    H2 1460  -0.022   7.699   4.171
  507TIP3   OH2 1461   3.223   5.294   6.528
  507TIP3    H1 1462   3.228   5.365   6.464
  507TIP3    H2 1463   3.179   5.334   6.604
  508TIP3   OH2 1464   1.208   5.968   4.841
  508TIP3    H1 1465   1.145   5.911   4.795
  508TIP3    H2 1466   1.281   5.910   4.863
  509TIP3   OH2 1467   2.455   3.229   3.341
  509TIP3    H1 1468   2.413   3.315   3.331
  509TIP3    H2 1469   2.457   3.193   3.253
  510TIP3   OH2 1470   1.327   6.535   0.462
  510TIP3    H1 1471   1.318   6.614   0.514
  510TIP3    H2 1472   1.264   6.474   0.500
  511TIP3   OH2 1473   7.597   0.424   1.641
  511TIP3    H1 1474   7.544   0.351   1.609
  511TIP3    H2 1475   7.652   0.447   1.566
  512TIP3   OH2 1476   1.589   0.760   2.432
  512TIP3    H1 1477   1.556   0.770   2.342
  512TIP3    H2 1478   1.545   0.831   2.480
  513TIP3   OH2 1479   5.750   5.110   0.095
  513TIP3    H1 1480   5.664   5.149   0.078
  513TIP3    H2 1481   5.812   5.179   0.070
  514TIP3   OH2 1482   7.966   2.552   1.704
  514TIP3    H1 1483   7.882   2.550   1.750
  514TIP3    H2 1484   8.010   2.629   1.738
  515TIP3   OH2 1485   1.254   4.346   0.253
  515TIP3    H1 1486   1.286   4.369   0.340
  515TIP3    H2 1487   1.283   4.256   0.239
  516TIP3   OH2 1488   7.212   7.458   4.745
  516TIP3    H1 1489   7.281   7.485   4.685
  516TIP3    H2 1490   7.137   7.512   4.722
  517TIP3   OH2 1491   1.550   6.052   5.936
  517TIP3    H1 1492   1.592   5.966   5.947
  517TIP3    H2 1493   1.605   6.097   5.871
  518TIP3   OH2 1494   0.399   5.424   1.423
  518TIP3    H1 1495   0.443   5.465   1.348
  518TIP3    H2 1496   0.458   5.442   1.497
  519TIP3   OH2 1497   4.030   4.722   4.911
  519TIP3    H1 1498   4.066   4.793   4.965
  519TIP3    H2 1499   4.106   4.690   4.861
  520TIP3   OH2 1500   4.585   6.128   2.244
  520TIP3    H1 1501   4.586   6.049   2.190
  520TIP3    H2 1502   4.672   6.166   2.234
  521TIP3   OH2 1503   1.457   1.727   1.184
  521TIP3    H1 1504   1.505   1.704   1.104
  521TIP3    H2 1505   1.375   1.678   1.177
  522TIP3   OH2 1506   1.594   4.024   0.493
  522TIP3    H1 1507   1.556   3.969   0.561
  522TIP3    H2 1508   1.680   3.986   0.477
  523TIP3   OH2 1509   0.085   6.016   1.401
  523TIP3    H1 1510   0.047   6.091   1.446
  523TIP3    H2 1511   0.010   5.963   1.374
  524TIP3   OH2 1512   4.948   2.403   1.580
  524TIP3    H1 1513   4.998   2.462   1.524
  524TIP3    H2 1514   4.947   2.445   1.666
  525TIP3   OH2 1515   3.740   6.222   1.852
  525TIP3    H1 1516   3.658   6.262   1.823
  525TIP3    H2 1517   3.739   6.232   1.947
  526TIP3   OH2 1518   7.377   6.140   2.532
  526TIP3    H1 1519   7.419   6.124   2.616
  526TIP3    H2 1520   7.374   6.236   2.525
  527TIP3   OH2 1521   0.999   0.916   2.199
  527TIP3    H1 1522   1.048   0.979   2.252
  527TIP3    H2 1523   0.916   0.903   2.246
  528TIP3   OH2 1524   7.088   4.329   1.299
  528TIP3    H1 1525   7.040   4.259   1.255
  528TIP3    H2 1526   7.057   4.410   1.258
  529TIP3   OH2 1527   0.221   1.248   4.013
  529TIP3    H1 1528   0.297   1.232   3.956
  529TIP3    H2 1529   0.221   1.173   4.073
  530TIP3   OH2 1530   1.254   2.591   2.335
  530TIP3    H1 1531   1.222   2.675   2.300
  530TIP3    H2 1532   1.176   2.538   2.345
  531TIP3   OH2 1533   8.257   6.310   6.467
  531TIP3    H1 1534   8.235   6.217   6.468
  531TIP3    H2 1535   8.340   6.314   6.419
  532TIP3   OH2 1536   7.207   4.664   4.123
  532TIP3    H1 1537   7.302   4.666   4.131
  532TIP3    H2 1538   7.174   4.655   4.212
  533TIP3   OH2 1539   4.198   6.944   4.348
  533TIP3    H1 1540   4.163   7.026   4.313
  533TIP3    H2 1541   4.221   6.892   4.271
  534TIP3   OH2 1542   5.984   3.269   3.251
  534TIP3    H1 1543   5.889   3.280   3.257
  534TIP3    H2 1544   6.002   3.188   3.298
  535TIP3   OH2 1545   5.708   2.934   3.951
  535TIP3    H1 1546   5.803   2.929   3.958
  535TIP3    H2 1547   5.690   3.027   3.936
  536TIP3   OH2 1548   5.531   0.444   4.890
  536TIP3    H1 1549   5.618   0.485   4.897
  536TIP3    H2 1550   5.544   0.354   4.919
  537TIP3   OH2 1551   7.393   0.678   4.909
  537TIP3    H1 1552   7.370   0.722   4.990
  537TIP3    H2 1553   7.418   0.589   4.935
  538TIP3   OH2 1554   5.070   7.419   1.359
  538TIP3    H1 1555   5.108   7.337   1.390
  538TIP3    H2 1556   4.975   7.404   1.363
  539TIP3   OH2 1557   6.844   1.953   2.237
  539TIP3    H1 1558   6.916   1.997   2.281
  539TIP3    H2 1559   6.833   1.871   2.286
  540TIP3   OH2 1560   5.306   7.108   5.258
  540TIP3    H1 1561   5.310   7.037   5.194
  540TIP3    H2 1562   5.299   7.065   5.343
  541TIP3   OH2 1563   7.557   5.862   5.606
  541TIP3    H1 1564   7.494   5.868   5.678
  541TIP3    H2 1565   7.513   5.811   5.538
  542TIP3   OH2 1566   5.873   2.756   6.713
  542TIP3    H1 1567   5.856   2.840   6.757
  542TIP3    H2 1568   5.802   2.699   6.740
  543TIP3   OH2 1569   6.245   6.526   2.567
  543TIP3    H1 1570   6.245   6.555   2.658
  543TIP3    H2 1571   6.335   6.542   2.537
  544TIP3   OH2 1572   7.154   2.043   4.840
  544TIP3    H1 1573   7.107   2.010   4.916
  544TIP3    H2 1574   7.099   2.017   4.765
  545TIP3   OH2 1575   0.100   2.281   6.698
  545TIP3    H1 1576   0.118   2.374   6.683
  545TIP3    H2 1577   0.048   2.254   6.622
  546TIP3   OH2 1578   0.982   6.711   5.889
  546TIP3    H1 1579   0.983   6.710   5.793
  546TIP3    H2 1580   0.893   6.736   5.912
  547TIP3   OH2 1581   2.187   2.589   3.502
  547TIP3    H1 1582   2.222   2.667   3.544
  547TIP3    H2 1583   2.257   2.524   3.512
  548TIP3   OH2 1584   4.647   1.785   4.868
  548TIP3    H1 1585   4.567   1.732   4.861
  548TIP3    H2 1586   4.616   1.872   4.889
  549TIP3   OH2 1587   7.334   3.635   5.546
  549TIP3    H1 1588   7.280   3.632   5.467
  549TIP3    H2 1589   7.411   3.583   5.523
  550TIP3   OH2 1590   4.193   7.843   3.021
  550TIP3    H1 1591   4.100   7.835   2.997
  550TIP3    H2 1592   4.206   7.937   3.035
  551TIP3   OH2 1593   2.486   5.836   5.920
  551TIP3    H1 1594   2.414   5.793   5.873
  551TIP3    H2 1595   2.531   5.765   5.965
  552TIP3   OH2 1596   8.278   3.240   5.897
  552TIP3    H1 1597   8.192   3.202   5.913
  552TIP3    H2 1598   8.339   3.181   5.941
  553TIP3   OH2 1599   1.028   6.104   2.436
  553TIP3    H1 1600   0.985   6.039   2.492
  553TIP3    H2 1601   1.038   6.060   2.352
  554TIP3   OH2 1602   7.350   2.528   5.214
  554TIP3    H1 1603   7.385   2.567   5.294
  554TIP3    H2 1604   7.273   2.581   5.194
  555TIP3   OH2 1605   0.230   0.427   5.231
  555TIP3    H1 1606   0.135   0.434   5.221
  555TIP3    H2 1607   0.265   0.450   5.145
  556TIP3   OH2 1608   6.945   1.442   1.677
  556TIP3    H1 1609   7.015   1.507   1.671
  556TIP3    H2 1610   6.991   1.358   1.683
  557TIP3   OH2 1611   3.585   1.257   3.875
  557TIP3    H1 1612   3.563   1.167   3.851
  557TIP3    H2 1613   3.504   1.307   3.858
  558TIP3   OH2 1614   6.047   6.363   0.555
  558TIP3    H1 1615   6.069   6.429   0.620
  558TIP3    H2 1616   5.994   6.409   0.490
  559TIP3   OH2 1617   3.792   0.692   5.981
  559TIP3    H1 1618   3.864   0.674   5.920
  559TIP3    H2 1619   3.787   0.614   6.036
  560TIP3   OH2 1620   5.767   0.976   1.072
  560TIP3    H1 1621   5.683   0.995   1.113
  560TIP3    H2 1622   5.750   0.902   1.014
  561TIP3   OH2 1623   2.608   0.050   3.365
  561TIP3    H1 1624   2.657  -0.011   3.421
  561TIP3    H2 1625   2.576   0.117   3.426
  562TIP3   OH2 1626   3.716   2.356   5.780
  562TIP3    H1 1627   3.807   2.328   5.765
  562TIP3    H2 1628   3.667   2.314   5.709
  563TIP3   OH2 1629   2.190   7.508   4.926
  563TIP3    H1 1630   2.202   7.589   4.876
  563TIP3    H2 1631   2.223   7.439   4.869
  564TIP3   OH2 1632   6.178   0.063   2.466
  564TIP3    H1 1633   6.249   0.019   2.420
  564TIP3    H2 1634   6.220   0.130   2.519
  565TIP3   OH2 1635   4.281   7.438   1.443
  565TIP3    H1 1636   4.277   7.351   1.484
  565TIP3    H2 1637   4.195   7.477   1.459
  566TIP3   OH2 1638   6.004   2.449   5.269
  566TIP3    H1 1639   6.090   2.473   5.235
  566TIP3    H2 1640   6.003   2.484   5.358
  567TIP3   OH2 1641   5.896   3.500   1.600
  567TIP3    H1 1642   5.834   3.433   1.572
  567TIP3    H2 1643   5.890   3.500   1.695
  568TIP3   OH2 1644   7.268   7.400   1.829
  568TIP3    H1 1645   7.221   7.476   1.863
  568TIP3    H2 1646   7.239   7.393   1.738
  569TIP3   OH2 1647   0.637   4.870   5.591
  569TIP3    H1 1648   0.637   4.795   5.651
  569TIP3    H2 1649   0.578   4.844   5.520
  570TIP3   OH2 1650   2.684   2.349   4.668
  570TIP3    H1 1651   2.655   2.369   4.579
  570TIP3    H2 1652   2.721   2.261   4.663
  571TIP3   OH2 1653   2.313   2.271   5.789
  571TIP3    H1 1654   2.317   2.254   5.694
  571TIP3    H2 1655   2.253   2.345   5.797
  572TIP3   OH2 1656   6.642   3.985   0.290
  572TIP3    H1 1657   6.620   3.936   0.370
  572TIP3    H2 1658   6.621   3.925   0.219
  573TIP3   OH2 1659   6.483   3.674   3.929
  573TIP3    H1 1660   6.418   3.627   3.878
  573TIP3    H2 1661   6.541   3.712   3.863
  574TIP3   OH2 1662   7.971   5.806   1.345
  574TIP3    H1 1663   7.916   5.881   1.325
  574TIP3    H2 1664   7.912   5.730   1.341
  575TIP3   OH2 1665   5.227   3.031   6.309
  575TIP3    H1 1666   5.276   2.969   6.255
  575TIP3    H2 1667   5.136   3.018   6.284
  576TIP3   OH2 1668   4.989   4.956   5.908
  576TIP3    H1 1669   5.045   4.940   5.984
  576TIP3    H2 1670   4.920   5.014   5.940
  577TIP3   OH2 1671   5.554   4.362   0.963
  577TIP3    H1 1672   5.578   4.356   0.871
  577TIP3    H2 1673   5.485   4.296   0.974
  578TIP3   OH2 1674   2.102   3.937   4.462
  578TIP3    H1 1675   2.067   3.991   4.534
  578TIP3    H2 1676   2.190   3.972   4.447
  579TIP3   OH2 1677   4.761   0.975   6.614
  579TIP3    H1 1678   4.669   0.983   6.589
  579TIP3    H2 1679   4.758   0.957   6.708
  580TIP3   OH2 1680   4.473   2.251   3.081
  580TIP3    H1 1681   4.426   2.308   3.020
  580TIP3    H2 1682   4.471   2.165   3.039
  581TIP3   OH2 1683   5.695   4.245   3.875
  581TIP3    H1 1684   5.622   4.303   3.853
  581TIP3    H2 1685   5.738   4.288   3.949
  582TIP3   OH2 1686   2.201   3.783   4.231
  582TIP3    H1 1687   2.274   3.836   4.201
  582TIP3    H2 1688   2.156   3.838   4.295
  583TIP3   OH2 1689   0.034   4.584   0.358
  583TIP3    H1 1690   0.125   4.575   0.329
  583TIP3    H2 1691  -0.012   4.621   0.282
  584TIP3   OH2 1692   1.563   6.505   6.578
  584TIP3    H1 1693   1.502   6.442   6.539
  584TIP3    H2 1694   1.540   6.507   6.671
  585TIP3   OH2 1695   8.279   6.150   3.535
  585TIP3    H1 1696   8.359   6.152   3.482
  585TIP3    H2 1697   8.263   6.057   3.550
  586TIP3   OH2 1698   2.071   4.980   0.298
  586TIP3    H1 1699   2.041   4.999   0.388
  586TIP3    H2 1700   2.047   5.058   0.248
  587TIP3   OH2 1701   6.288   3.047   0.645
  587TIP3    H1 1702   6.380   3.033   0.623
  587TIP3    H2 1703   6.273   2.991   0.721
  588TIP3   OH2 1704   0.719   2.909   1.024
  588TIP3    H1 1705   0.676   2.917   0.939
  588TIP3    H2 1706   0.727   2.814   1.038
  589TIP3   OH2 1707   2.012   0.449   4.365
  589TIP3    H1 1708   2.085   0.388   4.358
  589TIP3    H2 1709   2.034   0.519   4.304
  590TIP3   OH2 1710   8.314   3.182   2.078
  590TIP3    H1 1711   8.316   3.226   1.993
  590TIP3    H2 1712   8.386   3.222   2.127
  591TIP3   OH2 1713   4.219   2.320   3.923
  591TIP3    H1 1714   4.259   2.269   3.852
  591TIP3    H2 1715   4.146   2.266   3.953
  592TIP3   OH2 1716   0.981   3.307   0.631
  592TIP3    H1 1717   1.037   3.233   0.655
  592TIP3    H2 1718   0.910   3.305   0.695
  593TIP3   OH2 1719   1.082   6.154   2.162
  593TIP3    H1 1720   0.991   6.166   2.136
  593TIP3    H2 1721   1.128   6.134   2.080
  594TIP3   OH2 1722   0.219   7.157   5.238
  594TIP3    H1 1723   0.158   7.230   5.242
  594TIP3    H2 1724   0.180   7.096   5.176
  595TIP3   OH2 1725   2.763   6.794   1.816
  595TIP3    H1 1726   2.753   6.749   1.900
  595TIP3    H2 1727   2.842   6.757   1.778
  596TIP3   OH2 1728   7.684   1.828   6.387
  596TIP3    H1 1729   7.760   1.883   6.407
  596TIP3    H2 1730   7.688   1.816   6.292
  597TIP3   OH2 1731   4.528   2.892   0.261
  597TIP3    H1 1732   4.449   2.891   0.315
  597TIP3    H2 1733   4.580   2.819   0.292
  598TIP3   OH2 1734   0.385   1.336   3.554
  598TIP3    H1 1735   0.446   1.328   3.481
  598TIP3    H2 1736   0.422   1.281   3.623
  599TIP3   OH2 1737   5.401   5.902   5.666
  599TIP3    H1 1738   5.364   5.874   5.582
  599TIP3    H2 1739   5.379   5.995   5.671
  600TIP3   OH2 1740   0.700   3.465   1.704
  600TIP3    H1 1741   0.727   3.402   1.637
  600TIP3    H2 1742   0.730   3.427   1.786
  601TIP3   OH2 1743   1.904   6.215   6.457
  601TIP3    H1 1744   1.989   6.208   6.413
  601TIP3    H2 1745   1.844   6.245   6.388
  602TIP3   OH2 1746   6.361   4.637   5.955
  602TIP3    H1 1747   6.311   4.657   6.034
  602TIP3    H2 1748   6.408   4.556   5.975
  603TIP3   OH2 1749   3.015   4.028   6.163
  603TIP3    H1 1750   2.965   4.047   6.083
  603TIP3    H2 1751   3.096   4.078   6.153
  604TIP3   OH2 1752   4.744   6.640   4.145
  604TIP3    H1 1753   4.754   6.648   4.050
  604TIP3    H2 1754   4.791   6.559   4.166
  605TIP3   OH2 1755   0.284   3.743   4.421
  605TIP3    H1 1756   0.244   3.796   4.351
  605TIP3    H2 1757   0.374   3.774   4.426
  606TIP3   OH2 1758   0.007   7.022   4.559
  606TIP3    H1 1759   0.077   7.065   4.511
  606TIP3    H2 1760  -0.057   6.997   4.493
  607TIP3   OH2 1761   7.034   2.739   5.737
  607TIP3    H1 1762   7.112   2.738   5.682
  607TIP3    H2 1763   6.998   2.651   5.729
  608TIP3   OH2 1764   7.063   1.978   6.057
  608TIP3    H1 1765   7.016   1.902   6.092
  608TIP3    H2 1766   7.141   1.985   6.111
  609TIP3   OH2 1767   5.584   1.105   3.303
  609TIP3    H1 1768   5.589   1.040   3.234
  609TIP3    H2 1769   5.522   1.170   3.271
  610TIP3   OH2 1770   4.620   3.351   5.668
  610TIP3    H1 1771   4.599   3.445   5.674
  610TIP3    H2 1772   4.715   3.348   5.666
  611TIP3   OH2 1773   3.783   6.481   5.210
  611TIP3    H1 1774   3.708   6.422   5.216
  611TIP3    H2 1775   3.835   6.461   5.288
  612TIP3   OH2 1776   5.688   1.877   0.373
  612TIP3    H1 1777   5.758   1.903   0.433
  612TIP3    H2 1778   5.691   1.781   0.373
  613TIP3   OH2 1779   7.285   5.291   5.485
  613TIP3    H1 1780   7.306   5.272   5.576
  613TIP3    H2 1781   7.350   5.357   5.459
  614TIP3   OH2 1782   3.708   0.471   6.116
  614TIP3    H1 1783   3.757   0.397   6.079
  614TIP3    H2 1784   3.699   0.450   6.209
  615TIP3   OH2 1785   0.451   0.603   3.198
  615TIP3    H1 1786   0.362   0.628   3.176
  615TIP3    H2 1787   0.494   0.589   3.113
  616TIP3   OH2 1788   7.107   2.604   2.846
  616TIP3    H1 1789   7.186   2.596   2.900
  616TIP3    H2 1790   7.051   2.533   2.875
  617TIP3   OH2 1791   0.040   4.852   2.330
  617TIP3    H1 1792   0.041   4.902   2.412
  617TIP3    H2 1793   0.030   4.761   2.358
  618TIP3   OH2 1794   5.880   0.179   3.890
  618TIP3    H1 1795   5.950   0.204   3.950
  618TIP3    H2 1796   5.813   0.139   3.946
  619TIP3   OH2 1797   1.922   5.772   5.657
  619TIP3    H1 1798   1.960   5.702   5.604
  619TIP3    H2 1799   1.847   5.802   5.606
  620TIP3   OH2 1800   4.036   6.562   4.397
  620TIP3    H1 1801   3.967   6.623   4.423
  620TIP3    H2 1802   4.112   6.588   4.449
  621TIP3   OH2 1803   4.667   5.360   2.017
  621TIP3    H1 1804   4.613   5.432   1.986
  621TIP3    H2 1805   4.614   5.317   2.084
  622TIP3   OH2 1806   4.800   5.606   5.378
  622TIP3    H1 1807   4.721   5.654   5.355
  622TIP3    H2 1808   4.833   5.649   5.457
  623TIP3   OH2 1809   4.733   2.595   5.016
  623TIP3    H1 1810   4.760   2.663   4.956
  623TIP3    H2 1811   4.813   2.572   5.064
  624TIP3   OH2 1812   4.006   3.412   2.879
  624TIP3    H1 1813   3.994   3.344   2.945
  624TIP3    H2 1814   3.963   3.489   2.916
  625TIP3   OH2 1815   0.792   5.392   5.579
  625TIP3    H1 1816   0.733   5.321   5.606
  625TIP3    H2 1817   0.764   5.467   5.631
  626TIP3   OH2 1818   7.179   6.228   6.037
  626TIP3    H1 1819   7.177   6.323   6.038
  626TIP3    H2 1820   7.261   6.205   6.081
  627TIP3   OH2 1821   7.850   3.920   5.065
  627TIP3    H1 1822   7.934   3.944   5.025
  627TIP3    H2 1823   7.867   3.836   5.108
  628TIP3   OH2 1824   3.664   0.689   1.300
  628TIP3    H1 1825   3.607   0.616   1.326
  628TIP3    H2 1826   3.738   0.647   1.257
  629TIP3   OH2 1827   1.065   5.759   4.698
  629TIP3    H1 1828   0.974   5.727   4.699
  629TIP3    H2 1829   1.106   5.709   4.627
  630TIP3   OH2 1830   4.431   1.577   3.116
  630TIP3    H1 1831   4.337   1.581   3.103
  630TIP3    H2 1832   4.443   1.595   3.210
  631TIP3   OH2 1833   4.198   3.953   5.642
  631TIP3    H1 1834   4.169   3.862   5.657
  631TIP3    H2 1835   4.121   4.006   5.661
  632TIP3   OH2 1836   3.335   2.233   4.907
  632TIP3    H1 1837   3.422   2.272   4.911
  632TIP3    H2 1838   3.352   2.140   4.892
  633TIP3   OH2 1839   3.381   7.193   1.611
  633TIP3    H1 1840   3.391   7.279   1.652
  633TIP3    H2 1841   3.342   7.212   1.526
  634TIP3   OH2 1842   8.032   1.479   3.459
  634TIP3    H1 1843   8.024   1.408   3.523
  634TIP3    H2 1844   8.107   1.530   3.490
  635TIP3   OH2 1845   7.870   0.434   2.319
  635TIP3    H1 1846   7.921   0.453   2.239
  635TIP3    H2 1847   7.787   0.400   2.286
  636TIP3   OH2 1848   5.975   4.191   5.721
  636TIP3    H1 1849   5.989   4.255   5.651
  636TIP3    H2 1850   5.899   4.141   5.693
  637TIP3   OH2 1851   1.068   6.134   3.191
  637TIP3    H1 1852   1.095   6.065   3.251
  637TIP3    H2 1853   1.142   6.195   3.189
  638TIP3   OH2 1854   2.453   6.752   0.410
  638TIP3    H1 1855   2.394   6.678   0.423
  638TIP3    H2 1856   2.509   6.726   0.337
  639TIP3   OH2 1857   7.208   2.137   4.238
  639TIP3    H1 1858   7.253   2.132   4.323
  639TIP3    H2 1859   7.173   2.226   4.235
  640TIP3   OH2 1860   1.846   3.038   5.111
  640TIP3    H1 1861   1.854   3.092   5.032
  640TIP3    H2 1862   1.753   3.038   5.131
  641TIP3   OH2 1863   4.402   2.670   5.628
  641TIP3    H1 1864   4.476   2.730   5.617
  641TIP3    H2 1865   4.425   2.595   5.572
  642TIP3   OH2 1866   5.668   7.263   3.502
  642TIP3    H1 1867   5.588   7.269   3.553
  642TIP3    H2 1868   5.731   7.318   3.549
  643TIP3   OH2 1869   5.322   6.268   6.067
  643TIP3    H1 1870   5.346   6.178   6.089
  643TIP3    H2 1871   5.405   6.314   6.054
  644TIP3   OH2 1872   1.296   0.207   5.746
  644TIP3    H1 1873   1.233   0.191   5.676
  644TIP3    H2 1874   1.303   0.302   5.750
  645TIP3   OH2 1875   4.097   6.477   6.137
  645TIP3    H1 1876   4.084   6.396   6.187
  645TIP3    H2 1877   4.115   6.544   6.203
  646TIP3   OH2 1878   1.714   3.007   3.600
  646TIP3    H1 1879   1.642   3.000   3.662
  646TIP3    H2 1880   1.791   2.976   3.649
  647TIP3   OH2 1881   0.998   6.137   4.634
  647TIP3    H1 1882   0.920   6.184   4.663
  647TIP3    H2 1883   0.978   6.045   4.648
  648TIP3   OH2 1884   5.663   6.332   0.527
  648TIP3    H1 1885   5.712   6.383   0.463
  648TIP3    H2 1886   5.645   6.249   0.482
  649TIP3   OH2 1887   5.683   7.140   5.977
  649TIP3    H1 1888   5.714   7.101   6.058
  649TIP3    H2 1889   5.590   7.157   5.992
  650TIP3   OH2 1890   1.668   6.098   1.968
  650TIP3    H1 1891   1.641   6.012   1.937
  650TIP3    H2 1892   1.754   6.082   2.009
  651TIP3   OH2 1893   4.574   0.642   4.950
  651TIP3    H1 1894   4.518   0.696   5.006
  651TIP3    H2 1895   4.638   0.702   4.914
  652TIP3   OH2 1896   2.961   3.721   4.884
  652TIP3    H1 1897   3.005   3.794   4.928
  652TIP3    H2 1898   2.998   3.642   4.925
  653TIP3   OH2 1899   7.278   2.088   5.164
  653TIP3    H1 1900   7.199   2.105   5.113
  653TIP3    H2 1901   7.247   2.081   5.254
  654TIP3   OH2 1902   4.597   0.372   1.885
  654TIP3    H1 1903   4.607   0.302   1.820
  654TIP3    H2 1904   4.506   0.367   1.913
  655TIP3   OH2 1905   6.585   2.938   3.883
  655TIP3    H1 1906   6.554   2.944   3.792
  655TIP3    H2 1907   6.563   2.849   3.910
  656TIP3   OH2 1908   3.976   1.170   1.396
  656TIP3    H1 1909   3.951   1.102   1.333
  656TIP3    H2 1910   4.048   1.217   1.354
  657TIP3   OH2 1911   2.483   1.579   3.009
  657TIP3    H1 1912   2.541   1.655   3.018
  657TIP3    H2 1913   2.507   1.539   2.926
  658TIP3   OH2 1914   6.004   0.126   4.154
  658TIP3    H1 1915   6.017   0.167   4.239
  658TIP3    H2 1916   5.951   0.048   4.172
  659TIP3   OH2 1917   4.018   5.479   0.045
  659TIP3    H1 1918   3.995   5.397   0.001
  659TIP3    H2 1919   3.944   5.497   0.103
  660TIP3   OH2 1920   5.594   1.407   4.885
  660TIP3    H1 1921   5.625   1.491   4.920
  660TIP3    H2 1922   5.500   1.418   4.876
  661TIP3   OH2 1923   0.683   0.625   1.297
  661TIP3    H1 1924   0.673   0.546   1.350
  661TIP3    H2 1925   0.603   0.629   1.245
  662TIP3   OH2 1926   5.829   1.251   1.751
  662TIP3    H1 1927   5.767   1.206   1.808
  662TIP3    H2 1928   5.895   1.185   1.729
  663TIP3   OH2 1929   0.071   5.919   4.942
  663TIP3    H1 1930   0.135   5.931   5.012
  663TIP3    H2 1931   0.072   5.825   4.924
  664TIP3   OH2 1932   3.921   4.045   2.995
  664TIP3    H1 1933   3.930   4.118   2.934
  664TIP3    H2 1934   3.949   4.080   3.079
  665TIP3   OH2 1935   7.044   2.422   3.304
  665TIP3    H1 1936   6.986   2.349   3.328
  665TIP3    H2 1937   6.987   2.483   3.258
  666TIP3   OH2 1938   6.986   1.712   5.623
  666TIP3    H1 1939   6.973   1.745   5.712
  666TIP3    H2 1940   6.991   1.617   5.634
  667TIP3   OH2 1941   5.586   5.168   5.132
  667TIP3    H1 1942   5.624   5.215   5.058
  667TIP3    H2 1943   5.538   5.095   5.092
  668TIP3   OH2 1944   6.587   2.961   1.736
  668TIP3    H1 1945   6.518   3.025   1.751
  668TIP3    H2 1946   6.635   2.995   1.661
  669TIP3   OH2 1947   8.376   4.378   0.078
  669TIP3    H1 1948   8.351   4.287   0.062
  669TIP3    H2 1949   8.447   4.373   0.142
  670TIP3   OH2 1950   4.739   6.035   2.593
  670TIP3    H1 1951   4.748   6.130   2.599
  670TIP3    H2 1952   4.661   6.022   2.539
  671TIP3   OH2 1953   6.597   5.966   0.233
  671TIP3    H1 1954   6.658   5.915   0.286
  671TIP3    H2 1955   6.593   6.052   0.277
  672TIP3   OH2 1956   8.411   2.679   5.031
  672TIP3    H1 1957   8.348   2.743   4.998
  672TIP3    H2 1958   8.386   2.597   4.989
  673TIP3   OH2 1959   6.404   3.973   2.836
  673TIP3    H1 1960   6.356   3.932   2.909
  673TIP3    H2 1961   6.420   3.901   2.776
  674TIP3   OH2 1962   3.895   5.744   0.442
  674TIP3    H1 1963   3.982   5.778   0.462
  674TIP3    H2 1964   3.836   5.793   0.499
  675TIP3   OH2 1965   3.139   1.996   0.350
  675TIP3    H1 1966   3.145   1.902   0.333
  675TIP3    H2 1967   3.116   2.034   0.265
  676TIP3   OH2 1968   6.582   7.580   1.992
  676TIP3    H1 1969   6.521   7.597   2.064
  676TIP3    H2 1970   6.528   7.546   1.921
  677TIP3   OH2 1971   1.244   7.179   6.749
  677TIP3    H1 1972   1.326   7.205   6.706
  677TIP3    H2 1973   1.266   7.099   6.796
  678TIP3   OH2 1974   1.899   6.757   6.679
  678TIP3    H1 1975   1.840   6.831   6.694
  678TIP3    H2 1976   1.956   6.785   6.608
  679TIP3   OH2 1977   1.316   5.631   5.631
  679TIP3    H1 1978   1.227   5.663   5.644
  679TIP3    H2 1979   1.311   5.577   5.552
  680TIP3   OH2 1980   1.013   7.348   5.066
  680TIP3    H1 1981   0.992   7.344   4.973
  680TIP3    H2 1982   1.097   7.303   5.074
  681TIP3   OH2 1983   1.198   7.305   6.316
  681TIP3    H1 1984   1.197   7.220   6.359
  681TIP3    H2 1985   1.261   7.296   6.245
  682TIP3   OH2 1986   4.005   5.611   3.829
  682TIP3    H1 1987   4.093   5.648   3.819
  682TIP3    H2 1988   4.020   5.521   3.859
  683TIP3   OH2 1989   6.519   7.658   6.305
  683TIP3    H1 1990   6.547   7.742   6.342
  683TIP3    H2 1991   6.538   7.594   6.373
  684TIP3   OH2 1992   0.216   1.324   1.732
  684TIP3    H1 1993   0.258   1.410   1.740
  684TIP3    H2 1994   0.184   1.304   1.819
  685TIP3   OH2 1995   5.357   3.969   4.949
  685TIP3    H1 1996   5.331   3.987   5.039
  685TIP3    H2 1997   5.276   3.979   4.898
  686TIP3   OH2 1998   8.252   0.717   3.137
  686TIP3    H1 1999   8.290   0.687   3.055
  686TIP3    H2 2000   8.173   0.664   3.148
  687TIP3   OH2 2001   8.419   6.506   0.639
  687TIP3    H1 2002   8.334   6.505   0.595
  687TIP3    H2 2003   8.444   6.414   0.646
  688TIP3   OH2 2004   2.219   0.716   0.226
  688TIP3    H1 2005   2.173   0.675   0.299
  688TIP3    H2 2006   2.251   0.643   0.173
  689TIP3   OH2 2007   5.582   5.648   0.939
  689TIP3    H1 2008   5.538   5.682   1.016
  689TIP3    H2 2009   5.648   5.588   0.973
  690TIP3   OH2 2010   1.457   2.035   4.477
  690TIP3    H1 2011   1.468   1.968   4.544
  690TIP3    H2 2012   1.364   2.055   4.477
  691TIP3   OH2 2013   4.015   4.393   1.793
  691TIP3    H1 2014   4.104   4.425   1.781
  691TIP3    H2 2015   4.025   4.311   1.842
  692TIP3   OH2 2016   0.284   0.144   3.271
  692TIP3    H1 2017   0.337   0.224   3.265
  692TIP3    H2 2018   0.299   0.099   3.188
  693TIP3   OH2 2019   0.807   2.658   1.074
  693TIP3    H1 2020   0.800   2.587   1.138
  693TIP3    H2 2021   0.836   2.615   0.994
  694TIP3   OH2 2022   5.720   4.677   4.974
  694TIP3    H1 2023   5.682   4.615   5.035
  694TIP3    H2 2024   5.645   4.717   4.930
  695TIP3   OH2 2025   5.852   0.080   2.065
  695TIP3    H1 2026   5.928   0.047   2.113
  695TIP3    H2 2027   5.787   0.099   2.133
  696TIP3   OH2 2028   4.427   3.007   5.191
  696TIP3    H1 2029   4.514   3.038   5.213
  696TIP3    H2 2030   4.377   3.016   5.272
  697TIP3   OH2 2031   8.005   6.132   2.178
  697TIP3    H1 2032   7.919   6.145   2.138
  697TIP3    H2 2033   8.008   6.194   2.250
  698TIP3   OH2 2034   0.037   7.505   2.225
  698TIP3    H1 2035   0.071   7.561   2.295
  698TIP3    H2 2036  -0.029   7.450   2.267
  699TIP3   OH2 2037   6.615   5.097   2.668
  699TIP3    H1 2038   6.528   5.058   2.654
  699TIP3    H2 2039   6.676   5.026   2.652
  700TIP3   OH2 2040   7.281   2.940   2.313
  700TIP3    H1 2041   7.206   2.884   2.293
  700TIP3    H2 2042   7.271   2.960   2.407
  701TIP3   OH2 2043   2.091   3.728   4.653
  701TIP3    H1 2044   2.070   3.784   4.727
  701TIP3    H2 2045   2.079   3.784   4.576
  702TIP3   OH2 2046   6.739   3.841   2.361
  702TIP3    H1 2047   6.822   3.805   2.391
  702TIP3    H2 2048   6.763   3.903   2.292
  703TIP3   OH2 2049   8.209   6.247   3.807
  703TIP3    H1 2050   8.214   6.226   3.713
  703TIP3    H2 2051   8.300   6.266   3.832
  704TIP3   OH2 2052   6.735   3.205   5.221
  704TIP3    H1 2053   6.667   3.238   5.280
  704TIP3    H2 2054   6.792   3.152   5.277
  705TIP3   OH2 2055   6.878   3.846   4.819
  705TIP3    H1 2056   6.867   3.776   4.754
  705TIP3    H2 2057   6.960   3.826   4.864
  706TIP3   OH2 2058   7.549   1.001   5.628
  706TIP3    H1 2059   7.638   1.004   5.663
  706TIP3    H2 2060   7.503   0.937   5.683
  707TIP3   OH2 2061   0.006   2.052   3.867
  707TIP3    H1 2062   0.049   1.966   3.865
  707TIP3    H2 2063   0.066   2.110   3.820
  708TIP3   OH2 2064   5.574   4.906   0.975
  708TIP3    H1 2065   5.503   4.848   0.948
  708TIP3    H2 2066   5.597   4.878   1.063
  709TIP3   OH2 2067   6.066   0.936   0.387
  709TIP3    H1 2068   6.132   1.002   0.368
  709TIP3    H2 2069   5.995   0.954   0.324
  710TIP3   OH2 2070   0.245   3.928   5.903
  710TIP3    H1 2071   0.294   3.951   5.824
  710TIP3    H2 2072   0.153   3.941   5.878
  711TIP3   OH2 2073   8.333   7.502   6.070
  711TIP3    H1 2074   8.389   7.538   6.138
  711TIP3    H2 2075   8.382   7.515   5.989
  712TIP3   OH2 2076   4.495   4.438   4.764
  712TIP3    H1 2077   4.524   4.458   4.853
  712TIP3    H2 2078   4.520   4.347   4.750
  713TIP3   OH2 2079   0.116   7.476   6.269
  713TIP3    H1 2080   0.125   7.539   6.340
  713TIP3    H2 2081   0.205   7.461   6.238
  714TIP3   OH2 2082   0.966   3.193   5.032
  714TIP3    H1 2083   0.989   3.100   5.040
  714TIP3    H2 2084   0.945   3.220   5.122
  715TIP3   OH2 2085   3.300   3.462   5.225
  715TIP3    H1 2086   3.316   3.368   5.237
  715TIP3    H2 2087   3.373   3.505   5.270
  716TIP3   OH2 2088   8.375   2.497   5.582
  716TIP3    H1 2089   8.316   2.572   5.575
  716TIP3    H2 2090   8.372   2.473   5.674
  717TIP3   OH2 2091   6.182   5.083   4.422
  717TIP3    H1 2092   6.250   5.133   4.467
  717TIP3    H2 2093   6.199   5.097   4.329
  718TIP3   OH2 2094   3.278   4.006   6.555
  718TIP3    H1 2095   3.227   3.942   6.604
  718TIP3    H2 2096   3.330   4.051   6.621
  719TIP3   OH2 2097   8.184   5.012   3.834
  719TIP3    H1 2098   8.107   5.045   3.788
  719TIP3    H2 2099   8.205   5.080   3.898
  720TIP3   OH2 2100   3.256   1.583   3.297
  720TIP3    H1 2101   3.256   1.550   3.387
  720TIP3    H2 2102   3.273   1.677   3.305
  721TIP3   OH2 2103   5.598   5.171   0.428
  721TIP3    H1 2104   5.575   5.133   0.513
  721TIP3    H2 2105   5.648   5.102   0.385
  722TIP3   OH2 2106   4.996   2.915   1.513
  722TIP3    H1 2107   4.992   3.002   1.472
  722TIP3    H2 2108   5.011   2.933   1.606
  723TIP3   OH2 2109   0.480   2.219   6.295
  723TIP3    H1 2110   0.475   2.124   6.293
  723TIP3    H2 2111   0.527   2.239   6.377
  724TIP3   OH2 2112   7.800   1.095   1.997
  724TIP3    H1 2113   7.868   1.047   1.949
  724TIP3    H2 2114   7.718   1.059   1.964
  725TIP3   OH2 2115   0.390   2.914   5.833
  725TIP3    H1 2116   0.416   3.006   5.839
  725TIP3    H2 2117   0.409   2.879   5.920
  726TIP3   OH2 2118   3.144   4.372   6.566
  726TIP3    H1 2119   3.108   4.454   6.532
  726TIP3    H2 2120   3.239   4.385   6.562
  727TIP3   OH2 2121   3.226   0.468   5.588
  727TIP3    H1 2122   3.181   0.384   5.579
  727TIP3    H2 2123   3.254   0.471   5.680
  728TIP3   OH2 2124   0.638   7.344   2.376
  728TIP3    H1 2125   0.613   7.410   2.441
  728TIP3    H2 2126   0.684   7.278   2.427
  729TIP3   OH2 2127   0.880   2.795   1.378
  729TIP3    H1 2128   0.793   2.830   1.362
  729TIP3    H2 2129   0.937   2.846   1.321
  730TIP3   OH2 2130   3.167   5.001   3.979
  730TIP3    H1 2131   3.074   5.023   3.985
  730TIP3    H2 2132   3.211   5.068   4.031
  731TIP3   OH2 2133   7.637   4.546   2.366
  731TIP3    H1 2134   7.621   4.473   2.306
  731TIP3    H2 2135   7.563   4.605   2.352
  732TIP3   OH2 2136   1.280   3.046   1.179
  732TIP3    H1 2137   1.352   3.032   1.118
  732TIP3    H2 2138   1.235   2.961   1.182
  733TIP3   OH2 2139   8.284   1.274   1.748
  733TIP3    H1 2140   8.202   1.323   1.742
  733TIP3    H2 2141   8.285   1.220   1.669
  734TIP3   OH2 2142   3.097   6.720   3.452
  734TIP3    H1 2143   3.057   6.759   3.530
  734TIP3    H2 2144   3.022   6.702   3.395
  735TIP3   OH2 2145   3.458   5.137   0.784
  735TIP3    H1 2146   3.449   5.044   0.806
  735TIP3    H2 2147   3.551   5.155   0.796
  736TIP3   OH2 2148   7.062   4.400   3.969
  736TIP3    H1 2149   7.045   4.347   4.046
  736TIP3    H2 2150   7.124   4.466   3.999
  737TIP3   OH2 2151   5.707   3.159   3.464
  737TIP3    H1 2152   5.673   3.247   3.482
  737TIP3    H2 2153   5.629   3.104   3.455
  738TIP3   OH2 2154   1.740   6.441   2.685
  738TIP3    H1 2155   1.723   6.534   2.675
  738TIP3    H2 2156   1.674   6.410   2.747
  739TIP3   OH2 2157   6.110   1.028   5.428
  739TIP3    H1 2158   6.049   1.041   5.501
  739TIP3    H2 2159   6.060   0.974   5.366
  740TIP3   OH2 2160   0.731   1.540   6.391
  740TIP3    H1 2161   0.753   1.475   6.457
  740TIP3    H2 2162   0.636   1.534   6.380
  741TIP3   OH2 2163   6.902   2.525   6.348
  741TIP3    H1 2164   6.809   2.512   6.326
  741TIP3    H2 2165   6.928   2.601   6.295
  742TIP3   OH2 2166   8.211   6.220   5.368
  742TIP3    H1 2167   8.242   6.160   5.300
  742TIP3    H2 2168   8.265   6.200   5.444
  743TIP3   OH2 2169   7.162   7.836   0.173
  743TIP3    H1 2170   7.253   7.813   0.190
  743TIP3    H2 2171   7.167   7.922   0.130
  744TIP3   OH2 2172   6.642   0.499   0.609
  744TIP3    H1 2173   6.585   0.456   0.672
  744TIP3    H2 2174   6.612   0.590   0.608
  745TIP3   OH2 2175   4.206   2.224   0.803
  745TIP3    H1 2176   4.183   2.158   0.738
  745TIP3    H2 2177   4.207   2.176   0.886
  746TIP3   OH2 2178   7.048   3.894   3.970
  746TIP3    H1 2179   7.070   3.841   3.894
  746TIP3    H2 2180   6.963   3.861   3.998
  747TIP3   OH2 2181   3.885   4.436   3.090
  747TIP3    H1 2182   3.876   4.385   3.171
  747TIP3    H2 2183   3.799   4.477   3.079
  748TIP3   OH2 2184   8.068   0.055   2.883
  748TIP3    H1 2185   7.990   0.108   2.866
  748TIP3    H2 2186   8.049   0.012   2.966
  749TIP3   OH2 2187   3.226   1.028   2.200
  749TIP3    H1 2188   3.211   1.021   2.106
  749TIP3    H2 2189   3.140   1.044   2.237
  750TIP3   OH2 2190   1.184   6.622   6.511
  750TIP3    H1 2191   1.099   6.648   6.475
  750TIP3    H2 2192   1.178   6.527   6.520
  751TIP3   OH2 2193   7.870   1.301   1.512
  751TIP3    H1 2194   7.804   1.251   1.465
  751TIP3    H2 2195   7.900   1.243   1.582
  752TIP3   OH2 2196   4.229   2.952   2.478
  752TIP3    H1 2197   4.179   2.988   2.404
  752TIP3    H2 2198   4.247   3.028   2.534
  753TIP3   OH2 2199   6.706   2.391   3.603
  753TIP3    H1 2200   6.760   2.313   3.601
  753TIP3    H2 2201   6.698   2.418   3.512
  754TIP3   OH2 2202   6.594   0.863   5.802
  754TIP3    H1 2203   6.588   0.850   5.708
  754TIP3    H2 2204   6.530   0.801   5.839
  755TIP3   OH2 2205   7.785   2.421   4.546
  755TIP3    H1 2206   7.693   2.427   4.571
  755TIP3    H2 2207   7.784   2.400   4.453
  756TIP3   OH2 2208   1.716   0.342   3.606
  756TIP3    H1 2209   1.744   0.350   3.697
  756TIP3    H2 2210   1.797   0.337   3.556
  757TIP3   OH2 2211   4.534   5.600   5.005
  757TIP3    H1 2212   4.451   5.622   4.962
  757TIP3    H2 2213   4.600   5.646   4.953
  758TIP3   OH2 2214   0.444   1.524   3.788
  758TIP3    H1 2215   0.518   1.549   3.733
  758TIP3    H2 2216   0.368   1.560   3.743
  759TIP3   OH2 2217   2.892   2.219   2.916
  759TIP3    H1 2218   2.826   2.183   2.975
  759TIP3    H2 2219   2.971   2.224   2.969
  760TIP3   OH2 2220   5.546   5.622   3.745
  760TIP3    H1 2221   5.506   5.706   3.767
  760TIP3    H2 2222   5.632   5.646   3.711
  761TIP3   OH2 2223   4.471   3.266   1.799
  761TIP3    H1 2224   4.393   3.293   1.848
  761TIP3    H2 2225   4.453   3.293   1.709
  762TIP3   OH2 2226   2.415   4.045   5.568
  762TIP3    H1 2227   2.385   4.117   5.512
  762TIP3    H2 2228   2.368   3.969   5.535
  763TIP3   OH2 2229   2.202   5.807   0.811
  763TIP3    H1 2230   2.202   5.896   0.776
  763TIP3    H2 2231   2.150   5.756   0.748
  764TIP3   OH2 2232   8.258   7.830   5.970
  764TIP3    H1 2233   8.242   7.736   5.973
  764TIP3    H2 2234   8.343   7.841   6.012
  765TIP3   OH2 2235   1.325   6.436   5.106
  765TIP3    H1 2236   1.286   6.519   5.133
  765TIP3    H2 2237   1.364   6.401   5.186
  766TIP3   OH2 2238   4.714   6.543   1.074
  766TIP3    H1 2239   4.652   6.501   1.134
  766TIP3    H2 2240   4.714   6.487   0.996
  767TIP3   OH2 2241   1.470   1.892   2.757
  767TIP3    H1 2242   1.559   1.857   2.751
  767TIP3    H2 2243   1.449   1.921   2.669
  768TIP3   OH2 2244   4.628   1.001   4.001
  768TIP3    H1 2245   4.639   0.974   3.910
  768TIP3    H2 2246   4.712   0.982   4.043
  769TIP3   OH2 2247   1.379   0.381   5.464
  769TIP3    H1 2248   1.469   0.396   5.437
  769TIP3    H2 2249   1.356   0.460   5.514
  770TIP3   OH2 2250   5.951   2.832   3.654
  770TIP3    H1 2251   5.967   2.785   3.736
  770TIP3    H2 2252   5.947   2.924   3.681
  771TIP3   OH2 2253   3.750   7.638   4.700
  771TIP3    H1 2254   3.834   7.661   4.660
  771TIP3    H2 2255   3.718   7.719   4.738
  772TIP3   OH2 2256   2.125   0.987   3.966
  772TIP3    H1 2257   2.070   0.916   3.935
  772TIP3    H2 2258   2.069   1.065   3.963
  773TIP3   OH2 2259   1.382   7.246   0.385
  773TIP3    H1 2260   1.427   7.328   0.406
  773TIP3    H2 2261   1.383   7.241   0.289
  774TIP3   OH2 2262   4.196   3.172   0.941
  774TIP3    H1 2263   4.200   3.108   0.869
  774TIP3    H2 2264   4.265   3.145   1.001
  775TIP3   OH2 2265   0.867   6.628   2.464
  775TIP3    H1 2266   0.834   6.630   2.554
  775TIP3    H2 2267   0.870   6.535   2.442
  776TIP3   OH2 2268   3.930   1.892   6.447
  776TIP3    H1 2269   4.003   1.884   6.508
  776TIP3    H2 2270   3.931   1.983   6.419
  777TIP3   OH2 2271   4.706   3.860   5.728
  777TIP3    H1 2272   4.777   3.917   5.701
  777TIP3    H2 2273   4.647   3.917   5.777
  778TIP3   OH2 2274   2.582   5.751   1.114
  778TIP3    H1 2275   2.528   5.746   1.035
  778TIP3    H2 2276   2.598   5.659   1.137
  779TIP3   OH2 2277   0.047   3.790   2.707
  779TIP3    H1 2278   0.001   3.725   2.655
  779TIP3    H2 2279  -0.015   3.863   2.716
  780TIP3   OH2 2280   5.417   4.246   2.632
  780TIP3    H1 2281   5.370   4.245   2.548
  780TIP3    H2 2282   5.446   4.336   2.642
  781TIP3   OH2 2283   7.975   0.306   5.137
  781TIP3    H1 2284   7.888   0.332   5.107
  781TIP3    H2 2285   8.012   0.386   5.176
  782TIP3   OH2 2286   0.408   0.983   3.535
  782TIP3    H1 2287   0.457   0.972   3.453
  782TIP3    H2 2288   0.333   0.925   3.526
  783TIP3   OH2 2289   3.639   6.195   0.114
  783TIP3    H1 2290   3.614   6.159   0.200
  783TIP3    H2 2291   3.564   6.249   0.088
  784TIP3   OH2 2292   7.815   5.043   2.811
  784TIP3    H1 2293   7.847   5.006   2.893
  784TIP3    H2 2294   7.872   5.005   2.744
  785TIP3   OH2 2295   8.196   5.493   6.270
  785TIP3    H1 2296   8.158   5.568   6.315
  785TIP3    H2 2297   8.206   5.426   6.338
  786TIP3   OH2 2298   4.851   6.963   2.112
  786TIP3    H1 2299   4.932   6.994   2.152
  786TIP3    H2 2300   4.801   7.043   2.093
  787TIP3   OH2 2301   2.597   1.863   2.736
  787TIP3    H1 2302   2.660   1.803   2.695
  787TIP3    H2 2303   2.586   1.933   2.672
  788TIP3   OH2 2304   7.820   6.636   5.371
  788TIP3    H1 2305   7.734   6.669   5.395
  788TIP3    H2 2306   7.833   6.664   5.280
  789TIP3   OH2 2307   2.178   1.909   4.808
  789TIP3    H1 2308   2.260   1.932   4.764
  789TIP3    H2 2309   2.199   1.915   4.901
  790TIP3   OH2 2310   2.414   5.144   4.950
  790TIP3    H1 2311   2.365   5.081   5.004
  790TIP3    H2 2312   2.497   5.155   4.996
  791TIP3   OH2 2313   5.717   6.314   1.737
  791TIP3    H1 2314   5.776   6.238   1.737
  791TIP3    H2 2315   5.642   6.286   1.686
  792TIP3   OH2 2316   6.016   4.811   2.632
  792TIP3    H1 2317   6.010   4.748   2.560
  792TIP3    H2 2318   6.041   4.893   2.590
  793TIP3   OH2 2319   3.841   4.328   3.719
  793TIP3    H1 2320   3.901   4.366   3.655
  793TIP3    H2 2321   3.887   4.252   3.754
  794TIP3   OH2 2322   0.806   4.372   2.932
  794TIP3    H1 2323   0.714   4.367   2.907
  794TIP3    H2 2324   0.844   4.434   2.870
  795TIP3   OH2 2325   6.172   4.960   1.878
  795TIP3    H1 2326   6.167   5.054   1.894
  795TIP3    H2 2327   6.265   4.940   1.877
  796TIP3   OH2 2328   0.583   1.882   2.883
  796TIP3    H1 2329   0.507   1.843   2.926
  796TIP3    H2 2330   0.653   1.818   2.895
  797TIP3   OH2 2331   5.361   1.523   0.692
  797TIP3    H1 2332   5.346   1.580   0.617
  797TIP3    H2 2333   5.310   1.562   0.763
  798TIP3   OH2 2334   8.026   5.082   5.713
  798TIP3    H1 2335   7.980   5.030   5.779
  798TIP3    H2 2336   8.082   5.140   5.764
  799TIP3   OH2 2337   5.178   6.414   5.641
  799TIP3    H1 2338   5.097   6.460   5.621
  799TIP3    H2 2339   5.247   6.481   5.633
  800TIP3   OH2 2340   1.172   3.149   4.848
  800TIP3    H1 2341   1.142   3.205   4.919
  800TIP3    H2 2342   1.141   3.062   4.871
  801TIP3   OH2 2343   3.143   2.534   6.695
  801TIP3    H1 2344   3.138   2.494   6.782
  801TIP3    H2 2345   3.219   2.493   6.655
  802TIP3   OH2 2346   4.039   5.836   4.833
  802TIP3    H1 2347   4.097   5.912   4.831
  802TIP3    H2 2348   4.057   5.794   4.917
  803TIP3   OH2 2349   4.661   0.181   0.545
  803TIP3    H1 2350   4.679   0.167   0.452
  803TIP3    H2 2351   4.746   0.202   0.583
  804TIP3   OH2 2352   7.518   2.067   1.117
  804TIP3    H1 2353   7.602   2.024   1.135
  804TIP3    H2 2354   7.508   2.061   1.022
  805TIP3   OH2 2355   3.693   6.459   1.523
  805TIP3    H1 2356   3.699   6.374   1.480
  805TIP3    H2 2357   3.644   6.442   1.603
  806TIP3   OH2 2358   5.542   5.896   1.830
  806TIP3    H1 2359   5.635   5.875   1.832
  806TIP3    H2 2360   5.499   5.811   1.817
  807TIP3   OH2 2361   0.427   7.352   2.133
  807TIP3    H1 2362   0.455   7.319   2.219
  807TIP3    H2 2363   0.457   7.443   2.131
  808TIP3   OH2 2364   6.620   3.462   6.670
  808TIP3    H1 2365   6.531   3.484   6.644
  808TIP3    H2 2366   6.642   3.527   6.736
  809TIP3   OH2 2367   4.659   5.150   2.620
  809TIP3    H1 2368   4.635   5.069   2.666
  809TIP3    H2 2369   4.588   5.164   2.558
  810TIP3   OH2 2370   7.268   5.220   6.154
  810TIP3    H1 2371   7.342   5.188   6.102
  810TIP3    H2 2372   7.251   5.308   6.119
  811TIP3   OH2 2373   5.927   1.314   5.868
  811TIP3    H1 2374   5.936   1.327   5.963
  811TIP3    H2 2375   5.970   1.391   5.830
  812TIP3   OH2 2376   3.276   4.052   4.625
  812TIP3    H1 2377   3.335   3.995   4.576
  812TIP3    H2 2378   3.193   4.004   4.627
  813TIP3   OH2 2379   2.147   1.094   2.530
  813TIP3    H1 2380   2.238   1.122   2.523
  813TIP3    H2 2381   2.116   1.090   2.440
  814TIP3   OH2 2382   6.341   4.818   4.601
  814TIP3    H1 2383   6.319   4.813   4.508
  814TIP3    H2 2384   6.401   4.892   4.608
  815TIP3   OH2 2385   3.550   7.006   6.292
  815TIP3    H1 2386   3.615   6.943   6.322
  815TIP3    H2 2387   3.584   7.091   6.321
  816TIP3   OH2 2388   8.348   5.680   3.041
  816TIP3    H1 2389   8.382   5.763   3.073
  816TIP3    H2 2390   8.425   5.633   3.008
  817TIP3   OH2 2391   3.300   2.537   2.548
  817TIP3    H1 2392   3.307   2.449   2.511
  817TIP3    H2 2393   3.362   2.590   2.497
  818TIP3   OH2 2394   5.791   4.406   2.125
  818TIP3    H1 2395   5.708   4.431   2.085
  818TIP3    H2 2396   5.797   4.312   2.111
  819TIP3   OH2 2397   4.235   1.015   5.431
  819TIP3    H1 2398   4.230   0.944   5.495
  819TIP3    H2 2399   4.283   1.085   5.476
  820TIP3   OH2 2400   4.117   1.492   1.494
  820TIP3    H1 2401   4.107   1.460   1.404
  820TIP3    H2 2402   4.029   1.520   1.520
  821TIP3   OH2 2403   4.508   0.784   0.042
  821TIP3    H1 2404   4.571   0.848   0.010
  821TIP3    H2 2405   4.525   0.778   0.136
  822TIP3   OH2 2406   2.121   2.459   5.792
  822TIP3    H1 2407   2.125   2.525   5.861
  822TIP3    H2 2408   2.054   2.491   5.732
  823TIP3   OH2 2409   7.118   1.669   1.209
  823TIP3    H1 2410   7.113   1.761   1.236
  823TIP3    H2 2411   7.048   1.659   1.145
  824TIP3   OH2 2412   4.233   6.631   4.587
  824TIP3    H1 2413   4.180   6.640   4.666
  824TIP3    H2 2414   4.268   6.719   4.571
  825TIP3   OH2 2415   8.373   7.184   3.365
  825TIP3    H1 2416   8.323   7.180   3.284
  825TIP3    H2 2417   8.338   7.114   3.420
  826TIP3   OH2 2418   6.368   6.761   4.327
  826TIP3    H1 2419   6.340   6.804   4.246
  826TIP3    H2 2420   6.295   6.772   4.387
  827TIP3   OH2 2421   1.000   1.825   4.973
  827TIP3    H1 2422   0.905   1.836   4.980
  827TIP3    H2 2423   1.011   1.759   4.905
  828TIP3   OH2 2424   7.690   6.302   4.872
  828TIP3    H1 2425   7.743   6.376   4.902
  828TIP3    H2 2426   7.600   6.337   4.870
  829TIP3   OH2 2427   4.561   1.660   1.708
  829TIP3    H1 2428   4.475   1.649   1.667
  829TIP3    H2 2429   4.613   1.708   1.642
  830TIP3   OH2 2430   0.727   0.499   4.485
  830TIP3    H1 2431   0.692   0.577   4.442
  830TIP3    H2 2432   0.655   0.467   4.540
  831TIP3   OH2 2433   4.224   7.672   1.744
  831TIP3    H1 2434   4.185   7.661   1.657
  831TIP3    H2 2435   4.288   7.742   1.732
  832TIP3   OH2 2436   4.586   4.707   3.488
  832TIP3    H1 2437   4.625   4.710   3.575
  832TIP3    H2 2438   4.588   4.798   3.457
  833TIP3   OH2 2439   2.571   3.920   6.550
  833TIP3    H1 2440   2.501   3.883   6.496
  833TIP3    H2 2441   2.526   3.979   6.611
  834TIP3   OH2 2442   7.957   7.610   1.819
  834TIP3    H1 2443   7.892   7.584   1.753
  834TIP3    H2 2444   7.912   7.676   1.871
  835TIP3   OH2 2445   2.412   5.113   4.644
  835TIP3    H1 2446   2.417   5.129   4.739
  835TIP3    H2 2447   2.323   5.081   4.631
  836TIP3   OH2 2448   0.043   5.296   0.882
  836TIP3    H1 2449   0.114   5.257   0.933
  836TIP3    H2 2450   0.021   5.376   0.929
  837TIP3   OH2 2451   7.633   5.210   0.205
  837TIP3    H1 2452   7.542   5.182   0.214
  837TIP3    H2 2453   7.642   5.285   0.264
  838TIP3   OH2 2454   2.819   1.103   0.535
  838TIP3    H1 2455   2.821   1.184   0.586
  838TIP3    H2 2456   2.910   1.074   0.534
  839TIP3   OH2 2457   6.746   1.649   2.200
  839TIP3    H1 2458   6.707   1.706   2.134
  839TIP3    H2 2459   6.709   1.679   2.283
  840TIP3   OH2 2460   7.721   6.864   6.417
  840TIP3    H1 2461   7.651   6.929   6.427
  840TIP3    H2 2462   7.802   6.913   6.431
  841TIP3   OH2 2463   6.396   2.270   2.416
  841TIP3    H1 2464   6.389   2.192   2.361
  841TIP3    H2 2465   6.390   2.236   2.506
  842TIP3   OH2 2466   4.088   5.357   3.927
  842TIP3    H1 2467   4.065   5.269   3.955
  842TIP3    H2 2468   4.168   5.378   3.976
  843TIP3   OH2 2469   3.397   4.403   1.369
  843TIP3    H1 2470   3.308   4.436   1.380
  843TIP3    H2 2471   3.433   4.452   1.296
  844TIP3   OH2 2472   5.819   2.735   0.358
  844TIP3    H1 2473   5.794   2.699   0.444
  844TIP3    H2 2474   5.832   2.658   0.303
  845TIP3   OH2 2475   6.849   4.777   1.589
  845TIP3    H1 2476   6.870   4.870   1.576
  845TIP3    H2 2477   6.826   4.771   1.681
  846TIP3   OH2 2478   3.972   0.572   6.874
  846TIP3    H1 2479   3.883   0.610   6.875
  846TIP3    H2 2480   3.996   0.572   6.782
  847TIP3   OH2 2481   4.033   2.138   4.005
  847TIP3    H1 2482   3.962   2.144   4.068
  847TIP3    H2 2483   4.103   2.091   4.051
  848TIP3   OH2 2484   2.937   0.648   4.917
  848TIP3    H1 2485   2.971   0.629   5.005
  848TIP3    H2 2486   2.991   0.720   4.886
  849TIP3   OH2 2487   4.999   2.072   6.541
  849TIP3    H1 2488   5.033   2.003   6.484
  849TIP3    H2 2489   5.017   2.153   6.494
  850TIP3   OH2 2490   1.198   6.158   1.006
  850TIP3    H1 2491   1.155   6.241   1.027
  850TIP3    H2 2492   1.166   6.097   1.072
  851TIP3   OH2 2493   1.296   5.407   4.750
  851TIP3    H1 2494   1.201   5.408   4.738
  851TIP3    H2 2495   1.311   5.348   4.824
  852TIP3   OH2 2496   5.486   6.275   3.404
  852TIP3    H1 2497   5.532   6.359   3.410
  852TIP3    H2 2498   5.403   6.296   3.361
  853TIP3   OH2 2499   2.884   5.952   0.649
  853TIP3    H1 2500   2.894   6.047   0.649
  853TIP3    H2 2501   2.799   5.936   0.689
  854TIP3   OH2 2502   0.497   7.739   5.234
  854TIP3    H1 2503   0.540   7.662   5.199
  854TIP3    H2 2504   0.441   7.770   5.162
  855TIP3   OH2 2505   6.803   2.553   4.008
  855TIP3    H1 2506   6.859   2.605   3.951
  855TIP3    H2 2507   6.847   2.554   4.093
  856TIP3   OH2 2508   7.402   5.747   5.378
  856TIP3    H1 2509   7.354   5.743   5.295
  856TIP3    H2 2510   7.403   5.840   5.401
  857TIP3   OH2 2511   2.575   4.840   0.103
  857TIP3    H1 2512   2.657   4.792   0.095
  857TIP3    H2 2513   2.554   4.868   0.014
  858TIP3   OH2 2514   7.870   2.082   3.020
  858TIP3    H1 2515   7.795   2.128   2.982
  858TIP3    H2 2516   7.844   1.990   3.021
  859TIP3   OH2 2517   3.072   0.405   1.684
  859TIP3    H1 2518   3.087   0.312   1.672
  859TIP3    H2 2519   2.983   0.419   1.652
  860TIP3   OH2 2520   5.862   2.744   1.667
  860TIP3    H1 2521   5.795   2.813   1.670
  860TIP3    H2 2522   5.847   2.692   1.746
  861TIP3   OH2 2523   0.719   1.781   4.693
  861TIP3    H1 2524   0.671   1.861   4.672
  861TIP3    H2 2525   0.706   1.769   4.787
  862TIP3   OH2 2526   1.744   6.554   4.843
  862TIP3    H1 2527   1.807   6.486   4.865
  862TIP3    H2 2528   1.665   6.507   4.816
  863TIP3   OH2 2529   1.690   2.184   0.152
  863TIP3    H1 2530   1.699   2.232   0.069
  863TIP3    H2 2531   1.609   2.134   0.142
  864TIP3   OH2 2532   0.310   0.422   4.949
  864TIP3    H1 2533   0.385   0.475   4.922
  864TIP3    H2 2534   0.301   0.356   4.881
  865TIP3   OH2 2535   3.466   0.020   3.981
  865TIP3    H1 2536   3.404   0.089   4.006
  865TIP3    H2 2537   3.411  -0.052   3.952
  866TIP3   OH2 2538   1.504   0.541   6.462
  866TIP3    H1 2539   1.565   0.587   6.403
  866TIP3    H2 2540   1.473   0.609   6.521
  867TIP3   OH2 2541   4.071   2.321   1.996
  867TIP3    H1 2542   3.980   2.344   2.014
  867TIP3    H2 2543   4.085   2.351   1.906
  868TIP3   OH2 2544   3.381   3.824   4.482
  868TIP3    H1 2545   3.318   3.755   4.503
  868TIP3    H2 2546   3.365   3.844   4.390
  869TIP3   OH2 2547   8.144   6.459   0.090
  869TIP3    H1 2548   8.161   6.486   0.000
  869TIP3    H2 2549   8.195   6.520   0.143
  870TIP3   OH2 2550   0.288   7.891   6.742
  870TIP3    H1 2551   0.281   7.846   6.826
  870TIP3    H2 2552   0.372   7.938   6.747
  871TIP3   OH2 2553   4.693   5.843   2.822
  871TIP3    H1 2554   4.676   5.904   2.750
  871TIP3    H2 2555   4.788   5.843   2.832
  872TIP3   OH2 2556   5.319   1.497   2.916
  872TIP3    H1 2557   5.392   1.441   2.891
  872TIP3    H2 2558   5.333   1.514   3.009
  873TIP3   OH2 2559   6.813   6.134   0.878
  873TIP3    H1 2560   6.909   6.140   0.873
  873TIP3    H2 2561   6.789   6.194   0.948
  874TIP3   OH2 2562   1.775   7.043   1.966
  874TIP3    H1 2563   1.748   6.986   1.894
  874TIP3    H2 2564   1.840   7.102   1.928
  875TIP3   OH2 2565   1.411   6.973   1.282
  875TIP3    H1 2566   1.464   6.961   1.202
  875TIP3    H2 2567   1.334   6.919   1.268
  876TIP3   OH2 2568   3.917   6.911   3.317
  876TIP3    H1 2569   3.987   6.972   3.341
  876TIP3    H2 2570   3.890   6.939   3.229
  877TIP3   OH2 2571   1.993   5.122   4.946
  877TIP3    H1 2572   2.068   5.180   4.932
  877TIP3    H2 2573   1.995   5.062   4.872
  878TIP3   OH2 2574   4.845   0.820   0.880
  878TIP3    H1 2575   4.826   0.730   0.907
  878TIP3    H2 2576   4.940   0.828   0.886
  879TIP3   OH2 2577   1.965   7.046   1.657
  879TIP3    H1 2578   1.950   7.141   1.656
  879TIP3    H2 2579   1.984   7.024   1.566
  880TIP3   OH2 2580   2.973   4.757   6.866
  880TIP3    H1 2581   2.884   4.787   6.880
  880TIP3    H2 2582   2.963   4.670   6.827
  881TIP3   OH2 2583   1.255   5.270   4.987
  881TIP3    H1 2584   1.320   5.223   5.039
  881TIP3    H2 2585   1.171   5.251   5.029
  882TIP3   OH2 2586   7.560   6.639   0.410
  882TIP3    H1 2587   7.486   6.589   0.377
  882TIP3    H2 2588   7.611   6.661   0.332
  883TIP3   OH2 2589   8.043   6.929   1.156
  883TIP3    H1 2590   8.047   7.020   1.186
  883TIP3    H2 2591   7.949   6.910   1.150
  884TIP3   OH2 2592   2.669   3.446   2.814
  884TIP3    H1 2593   2.701   3.470   2.727
  884TIP3    H2 2594   2.630   3.527   2.849
  885TIP3   OH2 2595   7.540   4.638   2.793
  885TIP3    H1 2596   7.594   4.686   2.729
  885TIP3    H2 2597   7.604   4.594   2.849
  886TIP3   OH2 2598   4.294   2.761   1.297
  886TIP3    H1 2599   4.351   2.796   1.365
  886TIP3    H2 2600   4.339   2.682   1.266
  887TIP3   OH2 2601   2.584   1.402   6.822
  887TIP3    H1 2602   2.610   1.369   6.736
  887TIP3    H2 2603   2.635   1.350   6.884
  888TIP3   OH2 2604   2.436   4.661   6.002
  888TIP3    H1 2605   2.470   4.683   6.089
  888TIP3    H2 2606   2.358   4.716   5.992
  889TIP3   OH2 2607   4.919   2.124   0.703
  889TIP3    H1 2608   4.841   2.179   0.696
  889TIP3    H2 2609   4.923   2.101   0.796
  890TIP3   OH2 2610   2.366   6.315   5.836
  890TIP3    H1 2611   2.399   6.234   5.875
  890TIP3    H2 2612   2.374   6.302   5.742
  891TIP3   OH2 2613   0.824   2.126   1.360
  891TIP3    H1 2614   0.829   2.052   1.301
  891TIP3    H2 2615   0.730   2.144   1.369
  892TIP3   OH2 2616   1.504   6.693   1.884
  892TIP3    H1 2617   1.423   6.643   1.874
  892TIP3    H2 2618   1.500   6.727   1.974
  893TIP3   OH2 2619   0.295   6.324   1.321
  893TIP3    H1 2620   0.209   6.288   1.343
  893TIP3    H2 2621   0.277   6.397   1.262
  894TIP3   OH2 2622   8.063   3.021   2.538
  894TIP3    H1 2623   7.995   2.987   2.480
  894TIP3    H2 2624   8.039   2.989   2.625
  895TIP3   OH2 2625   3.586   1.566   1.384
  895TIP3    H1 2626   3.650   1.527   1.443
  895TIP3    H2 2627   3.574   1.655   1.417
  896TIP3   OH2 2628   0.392   6.555   0.969
  896TIP3    H1 2629   0.486   6.565   0.980
  896TIP3    H2 2630   0.374   6.589   0.881
  897TIP3   OH2 2631   6.888   6.143   2.402
  897TIP3    H1 2632   6.873   6.237   2.409
  897TIP3    H2 2633   6.957   6.135   2.336
  898TIP3   OH2 2634   7.122   1.327   4.575
  898TIP3    H1 2635   7.066   1.345   4.499
  898TIP3    H2 2636   7.126   1.410   4.622
  899TIP3   OH2 2637   1.258   2.956   3.952
  899TIP3    H1 2638   1.264   3.043   3.991
  899TIP3    H2 2639   1.166   2.945   3.930
  900TIP3   OH2 2640   4.760   2.654   1.802
  900TIP3    H1 2641   4.848   2.624   1.827
  900TIP3    H2 2642   4.722   2.688   1.883
  901TIP3   OH2 2643   3.472   0.226   1.863
  901TIP3    H1 2644   3.454   0.138   1.831
  901TIP3    H2 2645   3.443   0.284   1.792
  902TIP3   OH2 2646   4.572   3.237   4.967
  902TIP3    H1 2647   4.512   3.306   4.941
  902TIP3    H2 2648   4.562   3.231   5.062
  903TIP3   OH2 2649   4.230   0.096   2.028
  903TIP3    H1 2650   4.173   0.092   2.105
  903TIP3    H2 2651   4.297   0.029   2.044
  904TIP3   OH2 2652   7.693   4.002   3.743
  904TIP3    H1 2653   7.770   3.946   3.733
  904TIP3    H2 2654   7.648   3.968   3.819
  905TIP3   OH2 2655   7.482   7.376   2.269
  905TIP3    H1 2656   7.426   7.299   2.263
  905TIP3    H2 2657   7.520   7.385   2.181
  906TIP3   OH2 2658   4.799   0.824   6.171
  906TIP3    H1 2659   4.800   0.749   6.111
  906TIP3    H2 2660   4.843   0.894   6.123
  907TIP3   OH2 2661   8.021   6.778   2.504
  907TIP3    H1 2662   8.050   6.779   2.595
  907TIP3    H2 2663   7.978   6.862   2.491
  908TIP3   OH2 2664   3.097   1.461   5.902
  908TIP3    H1 2665   3.109   1.553   5.928
  908TIP3    H2 2666   3.185   1.425   5.901
  909TIP3   OH2 2667   2.421   5.318   1.664
  909TIP3    H1 2668   2.378   5.259   1.726
  909TIP3    H2 2669   2.365   5.317   1.587
  910TIP3   OH2 2670   5.292   3.854   3.497
  910TIP3    H1 2671   5.225   3.850   3.430
  910TIP3    H2 2672   5.305   3.948   3.513
  911TIP3   OH2 2673   2.049   4.518   5.672
  911TIP3    H1 2674   2.133   4.541   5.632
  911TIP3    H2 2675   1.985   4.526   5.602
  912TIP3   OH2 2676   1.920   1.346   1.900
  912TIP3    H1 2677   1.999   1.390   1.931
  912TIP3    H2 2678   1.943   1.317   1.811
  913TIP3   OH2 2679   2.502   2.384   0.811
  913TIP3    H1 2680   2.516   2.448   0.741
  913TIP3    H2 2681   2.590   2.369   0.847
  914TIP3   OH2 2682   8.295   1.032   5.331
  914TIP3    H1 2683   8.376   1.048   5.283
  914TIP3    H2 2684   8.295   0.938   5.346
  915TIP3   OH2 2685   6.895   6.614   5.982
  915TIP3    H1 2686   6.854   6.580   6.062
  915TIP3    H2 2687   6.901   6.708   5.996
  916TIP3   OH2 2688   5.110   4.625   5.469
  916TIP3    H1 2689   5.033   4.657   5.421
  916TIP3    H2 2690   5.088   4.639   5.561
  917TIP3   OH2 2691   1.766   4.203   0.621
  917TIP3    H1 2692   1.726   4.168   0.542
  917TIP3    H2 2693   1.854   4.229   0.594
  918TIP3   OH2 2694   4.803   7.219   2.341
  918TIP3    H1 2695   4.764   7.302   2.368
  918TIP3    H2 2696   4.777   7.209   2.250
  919TIP3   OH2 2697   0.246   4.476   1.430
  919TIP3    H1 2698   0.282   4.527   1.503
  919TIP3    H2 2699   0.163   4.520   1.410
  920TIP3   OH2 2700   8.258   0.000   3.744
  920TIP3    H1 2701   8.221   0.068   3.688
  920TIP3    H2 2702   8.206   0.003   3.824
  921TIP3   OH2 2703   5.550   6.251   2.391
  921TIP3    H1 2704   5.555   6.245   2.486
  921TIP3    H2 2705   5.641   6.243   2.362
  922TIP3   OH2 2706   1.142   1.426   5.202
  922TIP3    H1 2707   1.233   1.439   5.174
  922TIP3    H2 2708   1.101   1.512   5.190
  923TIP3   OH2 2709   4.779   2.059   0.022
  923TIP3    H1 2710   4.839   2.101   0.084
  923TIP3    H2 2711   4.692   2.073   0.060
  924TIP3   OH2 2712   5.206   5.536   2.040
  924TIP3    H1 2713   5.247   5.461   2.084
  924TIP3    H2 2714   5.112   5.519   2.046
  925TIP3   OH2 2715   5.117   0.103   2.732
  925TIP3    H1 2716   5.110   0.140   2.820
  925TIP3    H2 2717   5.027   0.084   2.707
  926TIP3   OH2 2718   8.237   7.023   2.854
  926TIP3    H1 2719   8.164   6.969   2.822
  926TIP3    H2 2720   8.304   6.960   2.880
  927TIP3   OH2 2721   5.976   0.382   1.876
  927TIP3    H1 2722   5.965   0.476   1.864
  927TIP3    H2 2723   5.890   0.345   1.854
  928TIP3   OH2 2724   3.517   3.132   4.389
  928TIP3    H1 2725   3.480   3.081   4.317
  928TIP3    H2 2726   3.547   3.066   4.452
  929TIP3   OH2 2727   0.484   5.402   5.184
  929TIP3    H1 2728   0.572   5.413   5.148
  929TIP3    H2 2729   0.450   5.324   5.141
  930TIP3   OH2 2730   4.966   3.572   3.401
  930TIP3    H1 2731   4.975   3.482   3.368
  930TIP3    H2 2732   4.878   3.576   3.436
  931TIP3   OH2 2733   7.865   5.732   1.002
  931TIP3    H1 2734   7.782   5.695   0.973
  931TIP3    H2 2735   7.898   5.670   1.067
  932TIP3   OH2 2736   3.647   6.693   1.388
  932TIP3    H1 2737   3.691   6.664   1.308
  932TIP3    H2 2738   3.648   6.616   1.445
  933TIP3   OH2 2739   4.593   4.091   5.057
  933TIP3    H1 2740   4.530   4.144   5.106
  933TIP3    H2 2741   4.645   4.154   5.008
  934TIP3   OH2 2742   1.350   3.572   1.787
  934TIP3    H1 2743   1.437   3.535   1.774
  934TIP3    H2 2744   1.310   3.573   1.700
  935TIP3   OH2 2745   1.350   4.093   4.902
  935TIP3    H1 2746   1.308   4.165   4.949
  935TIP3    H2 2747   1.281   4.058   4.846
  936TIP3   OH2 2748   4.112   3.698   5.216
  936TIP3    H1 2749   4.097   3.745   5.134
  936TIP3    H2 2750   4.135   3.767   5.278
  937TIP3   OH2 2751   0.344   3.506   6.165
  937TIP3    H1 2752   0.328   3.559   6.243
  937TIP3    H2 2753   0.270   3.528   6.107
  938TIP3   OH2 2754   8.195   4.079   3.691
  938TIP3    H1 2755   8.111   4.103   3.652
  938TIP3    H2 2756   8.199   4.129   3.772
  939TIP3   OH2 2757   0.510   5.368   2.280
  939TIP3    H1 2758   0.451   5.427   2.234
  939TIP3    H2 2759   0.459   5.288   2.295
  940TIP3   OH2 2760   6.527   1.041   6.015
  940TIP3    H1 2761   6.586   1.027   5.940
  940TIP3    H2 2762   6.462   0.971   6.007
  941TIP3   OH2 2763   6.513   0.131   2.667
  941TIP3    H1 2764   6.550   0.215   2.694
  941TIP3    H2 2765   6.434   0.154   2.618
  942TIP3   OH2 2766   1.169   7.590   4.611
  942TIP3    H1 2767   1.253   7.561   4.575
  942TIP3    H2 2768   1.104   7.544   4.560
  943TIP3   OH2 2769   0.802   5.235   4.220
  943TIP3    H1 2770   0.847   5.170   4.274
  943TIP3    H2 2771   0.761   5.294   4.283
  944TIP3   OH2 2772   5.065   6.419   3.619
  944TIP3    H1 2773   5.101   6.348   3.565
  944TIP3    H2 2774   5.032   6.376   3.697
  945TIP3   OH2 2775   0.866   1.988   0.038
  945TIP3    H1 2776   0.878   1.894   0.030
  945TIP3    H2 2777   0.885   2.023  -0.049
  946TIP3   OH2 2778   7.068   3.530   0.094
  946TIP3    H1 2779   7.041   3.568   0.011
  946TIP3    H2 2780   7.164   3.531   0.091
  947TIP3   OH2 2781   2.830   0.678   0.890
  947TIP3    H1 2782   2.828   0.729   0.810
  947TIP3    H2 2783   2.766   0.608   0.875
  948TIP3   OH2 2784   0.927   0.019   0.405
  948TIP3    H1 2785   0.932   0.101   0.358
  948TIP3    H2 2786   0.907   0.044   0.496
  949TIP3   OH2 2787   7.461   3.025   4.090
  949TIP3    H1 2788   7.445   3.028   3.995
  949TIP3    H2 2789   7.374   3.031   4.129
  950TIP3   OH2 2790   7.042   0.153   2.554
  950TIP3    H1 2791   7.124   0.153   2.602
  950TIP3    H2 2792   6.987   0.217   2.600
  951TIP3   OH2 2793   3.964   6.218   4.758
  951TIP3    H1 2794   3.941   6.309   4.739
  951TIP3    H2 2795   3.965   6.176   4.673
  952TIP3   OH2 2796   6.869   5.653   3.595
  952TIP3    H1 2797   6.811   5.589   3.635
  952TIP3    H2 2798   6.813   5.705   3.537
  953TIP3   OH2 2799   7.849   1.808   0.828
  953TIP3    H1 2800   7.935   1.767   0.824
  953TIP3    H2 2801   7.859   1.880   0.889
  954TIP3   OH2 2802   6.686   3.932   4.586
  954TIP3    H1 2803   6.760   3.974   4.630
  954TIP3    H2 2804   6.619   4.000   4.581
  955TIP3   OH2 2805   5.230   5.288   1.091
  955TIP3    H1 2806   5.268   5.296   1.003
  955TIP3    H2 2807   5.297   5.324   1.149
  956TIP3   OH2 2808   5.369   7.332   5.802
  956TIP3    H1 2809   5.436   7.394   5.833
  956TIP3    H2 2810   5.290   7.356   5.850
  957TIP3   OH2 2811   6.486   0.762   4.795
  957TIP3    H1 2812   6.440   0.690   4.838
  957TIP3    H2 2813   6.535   0.805   4.866
  958TIP3   OH2 2814   8.171   3.827   3.415
  958TIP3    H1 2815   8.229   3.888   3.369
  958TIP3    H2 2816   8.223   3.795   3.488
  959TIP3   OH2 2817   5.431   2.850   2.559
  959TIP3    H1 2818   5.491   2.908   2.605
  959TIP3    H2 2819   5.424   2.887   2.471
  960TIP3   OH2 2820   0.823   4.241   1.642
  960TIP3    H1 2821   0.865   4.327   1.639
  960TIP3    H2 2822   0.890   4.181   1.675
  961TIP3   OH2 2823   0.452   5.775   4.335
  961TIP3    H1 2824   0.518   5.815   4.277
  961TIP3    H2 2825   0.414   5.848   4.383
  962TIP3   OH2 2826   3.514   0.311   4.161
  962TIP3    H1 2827   3.574   0.241   4.186
  962TIP3    H2 2828   3.569   0.377   4.121
  963TIP3   OH2 2829   7.000   6.344   0.611
  963TIP3    H1 2830   7.083   6.344   0.563
  963TIP3    H2 2831   6.985   6.436   0.634
  964TIP3   OH2 2832   3.743   0.288   0.236
  964TIP3    H1 2833   3.772   0.309   0.147
  964TIP3    H2 2834   3.811   0.324   0.293
  965TIP3   OH2 2835   2.307   0.124   6.146
  965TIP3    H1 2836   2.344   0.036   6.158
  965TIP3    H2 2837   2.382   0.182   6.148
  966TIP3   OH2 2838   7.171   5.032   2.227
  966TIP3    H1 2839   7.229   5.108   2.239
  966TIP3    H2 2840   7.126   5.023   2.311
  967TIP3   OH2 2841   3.687   0.408   1.867
  967TIP3    H1 2842   3.624   0.337   1.858
  967TIP3    H2 2843   3.668   0.446   1.953
  968TIP3   OH2 2844   1.093   2.539   6.124
  968TIP3    H1 2845   1.057   2.620   6.160
  968TIP3    H2 2846   1.023   2.505   6.067
  969TIP3   OH2 2847   1.642   1.754   6.046
  969TIP3    H1 2848   1.550   1.778   6.060
  969TIP3    H2 2849   1.654   1.673   6.095
  970TIP3   OH2 2850   8.384   6.632   2.220
  970TIP3    H1 2851   8.299   6.631   2.176
  970TIP3    H2 2852   8.383   6.555   2.277
  971TIP3   OH2 2853   5.028   4.574   4.496
  971TIP3    H1 2854   5.100   4.635   4.481
  971TIP3    H2 2855   4.959   4.604   4.437
  972TIP3   OH2 2856   5.649   3.732   4.218
  972TIP3    H1 2857   5.620   3.734   4.127
  972TIP3    H2 2858   5.587   3.789   4.263
  973TIP3   OH2 2859   3.158   6.396   5.106
  973TIP3    H1 2860   3.190   6.486   5.114
  973TIP3    H2 2861   3.235   6.347   5.076
  974TIP3   OH2 2862   1.792   4.894   0.911
  974TIP3    H1 2863   1.802   4.822   0.973
  974TIP3    H2 2864   1.878   4.937   0.911
  975TIP3   OH2 2865   2.719   6.976   3.640
  975TIP3    H1 2866   2.736   6.907   3.704
  975TIP3    H2 2867   2.803   6.993   3.599
  976TIP3   OH2 2868   8.265   7.214   4.023
  976TIP3    H1 2869   8.310   7.264   4.091
  976TIP3    H2 2870   8.236   7.280   3.960
  977TIP3   OH2 2871   2.875   4.396   2.567
  977TIP3    H1 2872   2.783   4.409   2.590
  977TIP3    H2 2873   2.904   4.326   2.626
  978TIP3   OH2 2874   2.216   7.427   6.165
  978TIP3    H1 2875   2.124   7.405   6.154
  978TIP3    H2 2876   2.221   7.522   6.153
  979TIP3   OH2 2877   3.056   3.322   6.334
  979TIP3    H1 2878   3.125   3.357   6.390
  979TIP3    H2 2879   3.059   3.227   6.347
  980TIP3   OH2 2880   7.459   7.258   1.522
  980TIP3    H1 2881   7.416   7.251   1.436
  980TIP3    H2 2882   7.432   7.178   1.568
  981TIP3   OH2 2883   6.548   6.568   6.196
  981TIP3    H1 2884   6.482   6.532   6.256
  981TIP3    H2 2885   6.630   6.565   6.245
  982TIP3   OH2 2886   0.601   4.269   4.345
  982TIP3    H1 2887   0.602   4.291   4.438
  982TIP3    H2 2888   0.524   4.214   4.334
  983TIP3   OH2 2889   3.978   2.640   3.337
  983TIP3    H1 2890   4.051   2.652   3.396
  983TIP3    H2 2891   4.013   2.661   3.250
  984TIP3   OH2 2892   5.430   1.868   6.473
  984TIP3    H1 2893   5.346   1.893   6.433
  984TIP3    H2 2894   5.464   1.950   6.510
  985TIP3   OH2 2895   2.297   0.832   4.797
  985TIP3    H1 2896   2.359   0.893   4.836
  985TIP3    H2 2897   2.314   0.837   4.703
  986TIP3   OH2 2898   6.381   3.484   5.004
  986TIP3    H1 2899   6.364   3.400   4.962
  986TIP3    H2 2900   6.426   3.536   4.936
  987TIP3   OH2 2901   7.313   4.468   5.313
  987TIP3    H1 2902   7.285   4.461   5.404
  987TIP3    H2 2903   7.391   4.413   5.307
  988TIP3   OH2 2904   3.788   3.925   0.215
  988TIP3    H1 2905   3.807   4.012   0.251
  988TIP3    H2 2906   3.714   3.894   0.266
  989TIP3   OH2 2907   5.413   2.781   4.083
  989TIP3    H1 2908   5.322   2.794   4.111
  989TIP3    H2 2909   5.439   2.699   4.125
  990TIP3   OH2 2910   2.368   1.733   5.630
  990TIP3    H1 2911   2.302   1.748   5.562
  990TIP3    H2 2912   2.362   1.639   5.648
  991TIP3   OH2 2913   7.334   0.941   3.338
  991TIP3    H1 2914   7.315   0.928   3.431
  991TIP3    H2 2915   7.395   1.015   3.336
  992TIP3   OH2 2916   7.063   3.260   0.456
  992TIP3    H1 2917   7.046   3.204   0.531
  992TIP3    H2 2918   7.129   3.323   0.487
  993TIP3   OH2 2919   4.842   4.288   4.263
  993TIP3    H1 2920   4.806   4.200   4.257
  993TIP3    H2 2921   4.825   4.316   4.353
  994TIP3   OH2 2922   8.334   5.781   6.193
  994TIP3    H1 2923   8.260   5.722   6.181
  994TIP3    H2 2924   8.365   5.799   6.105
  995TIP3   OH2 2925   2.605   6.152   3.165
  995TIP3    H1 2926   2.513   6.178   3.156
  995TIP3    H2 2927   2.611   6.068   3.119
  996TIP3   OH2 2928   6.417   7.528   4.991
  996TIP3    H1 2929   6.424   7.593   4.921
  996TIP3    H2 2930   6.456   7.571   5.067
  997TIP3   OH2 2931   5.931   7.743   6.199
  997TIP3    H1 2932   5.977   7.752   6.116
  997TIP3    H2 2933   6.000   7.729   6.264
  998TIP3   OH2 2934   6.798   3.809   1.968
  998TIP3    H1 2935   6.725   3.869   1.953
  998TIP3    H2 2936   6.773   3.759   2.045
  999TIP3   OH2 2937   7.683   5.220   5.851
  999TIP3    H1 2938   7.671   5.263   5.766
  999TIP3    H2 2939   7.750   5.272   5.895
 1000TIP3   OH2 2940   7.333   6.198   4.406
 1000TIP3    H1 2941   7.368   6.152   4.483
 1000TIP3    H2 2942   7.398   6.265   4.387
 1001TIP3   OH2 2943   2.986   1.749   4.724
 1001TIP3    H1 2944   2.895   1.773   4.736
 1001TIP3    H2 2945   3.013   1.794   4.644
 1002TIP3   OH2 2946   5.503   1.929   5.401
 1002TIP3    H1 2947   5.529   2.021   5.389
 1002TIP3    H2 2948   5.426   1.919   5.345
 1003TIP3   OH2 2949   5.013   6.534   6.855
 1003TIP3    H1 2950   4.978   6.501   6.773
 1003TIP3    H2 2951   5.034   6.626   6.838
 1004TIP3   OH2 2952   4.466   2.746   5.328
 1004TIP3    H1 2953   4.500   2.811   5.267
 1004TIP3    H2 2954   4.542   2.721   5.381
 1005TIP3   OH2 2955   1.792   6.312   3.599
 1005TIP3    H1 2956   1.763   6.232   3.555
 1005TIP3    H2 2957   1.826   6.367   3.528
 1006TIP3   OH2 2958   7.901   7.443   0.929
 1006TIP3    H1 2959   7.986   7.428   0.971
 1006TIP3    H2 2960   7.843   7.468   1.001
 1007TIP3   OH2 2961   5.470   5.215   0.183
 1007TIP3    H1 2962   5.515   5.242   0.263
 1007TIP3    H2 2963   5.459   5.121   0.193
 1008TIP3   OH2 2964   7.357   2.318   1.208
 1008TIP3    H1 2965   7.387   2.240   1.255
 1008TIP3    H2 2966   7.281   2.348   1.257
 1009TIP3   OH2 2967   6.026   6.532   5.842
 1009TIP3    H1 2968   6.045   6.500   5.753
 1009TIP3    H2 2969   6.070   6.617   5.846
 1010TIP3   OH2 2970   7.421   1.858   5.077
 1010TIP3    H1 2971   7.380   1.938   5.110
 1010TIP3    H2 2972   7.515   1.873   5.086
 1011TIP3   OH2 2973   4.040   3.829   2.844
 1011TIP3    H1 2974   4.119   3.875   2.817
 1011TIP3    H2 2975   3.974   3.897   2.852
 1012TIP3   OH2 2976   5.279   7.921   4.618
 1012TIP3    H1 2977   5.267   7.935   4.712
 1012TIP3    H2 2978   5.235   7.838   4.601
 1013TIP3   OH2 2979   5.393   3.069   3.659
 1013TIP3    H1 2980   5.464   3.022   3.613
 1013TIP3    H2 2981   5.343   3.111   3.589
 1014TIP3   OH2 2982   4.852   1.464   4.963
 1014TIP3    H1 2983   4.765   1.441   4.932
 1014TIP3    H2 2984   4.837   1.497   5.052
 1015TIP3   OH2 2985   1.781   3.776   5.847
 1015TIP3    H1 2986   1.823   3.694   5.869
 1015TIP3    H2 2987   1.786   3.829   5.927
 1016TIP3   OH2 2988   0.921   3.323   1.911
 1016TIP3    H1 2989   0.944   3.233   1.888
 1016TIP3    H2 2990   0.974   3.377   1.852
 1017TIP3   OH2 2991   5.697   1.067   5.979
 1017TIP3    H1 2992   5.759   1.080   6.050
 1017TIP3    H2 2993   5.637   1.142   5.986
 1018TIP3   OH2 2994   3.757   2.713   6.176
 1018TIP3    H1 2995   3.663   2.730   6.181
 1018TIP3    H2 2996   3.768   2.629   6.221
 1019TIP3   OH2 2997   6.731   4.066   2.211
 1019TIP3    H1 2998   6.690   4.103   2.134
 1019TIP3    H2 2999   6.809   4.120   2.225
 1020TIP3   OH2 3000   7.021   7.102   2.033
 1020TIP3    H1 3001   6.991   7.189   2.006
 1020TIP3    H2 3002   6.988   7.091   2.122
 1021TIP3   OH2 3003   4.509   6.134   5.443
 1021TIP3    H1 3004   4.462   6.215   5.422
 1021TIP3    H2 3005   4.488   6.117   5.535
 1022TIP3   OH2 3006   4.604   2.139   1.834
 1022TIP3    H1 3007   4.690   2.107   1.858
 1022TIP3    H2 3008   4.546   2.063   1.841
 1023TIP3   OH2 3009   5.037   0.202   6.529
 1023TIP3    H1 3010   5.077   0.288   6.516
 1023TIP3    H2 3011   5.013   0.174   6.441
 1024TIP3   OH2 3012   4.963   4.350   5.476
 1024TIP3    H1 3013   4.999   4.422   5.424
 1024TIP3    H2 3014   5.027   4.280   5.466
 1025TIP3   OH2 3015   5.112   4.742   2.767
 1025TIP3    H1 3016   5.115   4.647   2.756
 1025TIP3    H2 3017   5.029   4.768   2.728
 1026TIP3   OH2 3018   5.999   3.557   2.675
 1026TIP3    H1 3019   6.090   3.536   2.655
 1026TIP3    H2 3020   5.972   3.617   2.605
 1027TIP3   OH2 3021   7.166   3.458   3.390
 1027TIP3    H1 3022   7.179   3.552   3.375
 1027TIP3    H2 3023   7.185   3.418   3.305
 1028TIP3   OH2 3024   4.799   3.492   0.231
 1028TIP3    H1 3025   4.726   3.459   0.283
 1028TIP3    H2 3026   4.877   3.462   0.277
 1029TIP3   OH2 3027   0.342   2.453   0.034
 1029TIP3    H1 3028   0.307   2.403  -0.041
 1029TIP3    H2 3029   0.348   2.389   0.105
 1030TIP3   OH2 3030   1.043   4.964   4.555
 1030TIP3    H1 3031   1.051   5.030   4.624
 1030TIP3    H2 3032   1.110   4.899   4.576
 1031TIP3   OH2 3033   6.414   3.314   4.104
 1031TIP3    H1 3034   6.447   3.329   4.192
 1031TIP3    H2 3035   6.356   3.238   4.113
 1032TIP3   OH2 3036   1.617   3.225   5.664
 1032TIP3    H1 3037   1.563   3.223   5.743
 1032TIP3    H2 3038   1.559   3.195   5.594
 1033TIP3   OH2 3039   3.848   6.405   6.806
 1033TIP3    H1 3040   3.846   6.501   6.806
 1033TIP3    H2 3041   3.941   6.383   6.806
 1034TIP3   OH2 3042   0.434   3.394   1.683
 1034TIP3    H1 3043   0.507   3.436   1.729
 1034TIP3    H2 3044   0.461   3.393   1.591
 1035TIP3   OH2 3045   0.469   2.442   1.056
 1035TIP3    H1 3046   0.495   2.484   0.974
 1035TIP3    H2 3047   0.552   2.416   1.096
 1036TIP3   OH2 3048   6.236   2.180   6.302
 1036TIP3    H1 3049   6.315   2.207   6.349
 1036TIP3    H2 3050   6.173   2.159   6.370
 1037TIP3   OH2 3051   5.436   3.845   3.741
 1037TIP3    H1 3052   5.383   3.841   3.662
 1037TIP3    H2 3053   5.437   3.938   3.764
 1038TIP3   OH2 3054   5.067   0.088   0.740
 1038TIP3    H1 3055   5.038   0.145   0.668
 1038TIP3    H2 3056   5.100   0.148   0.806
 1039TIP3   OH2 3057   0.715   4.569   1.190
 1039TIP3    H1 3058   0.771   4.629   1.238
 1039TIP3    H2 3059   0.763   4.549   1.110
 1040TIP3   OH2 3060   3.671   4.420   2.289
 1040TIP3    H1 3061   3.764   4.441   2.287
 1040TIP3    H2 3062   3.659   4.355   2.220
 1041TIP3   OH2 3063   3.961   7.809   5.467
 1041TIP3    H1 3064   3.901   7.741   5.500
 1041TIP3    H2 3065   4.037   7.804   5.525
 1042TIP3   OH2 3066   4.878   4.907   3.900
 1042TIP3    H1 3067   4.955   4.866   3.942
 1042TIP3    H2 3068   4.804   4.854   3.930
 1043TIP3   OH2 3069   3.849   5.536   1.015
 1043TIP3    H1 3070   3.842   5.609   0.953
 1043TIP3    H2 3071   3.867   5.578   1.099
 1044TIP3   OH2 3072   7.506   1.680   3.913
 1044TIP3    H1 3073   7.535   1.596   3.877
 1044TIP3    H2 3074   7.424   1.697   3.868
 1045TIP3   OH2 3075   4.696   2.065   2.143
 1045TIP3    H1 3076   4.669   2.002   2.076
 1045TIP3    H2 3077   4.678   2.021   2.226
 1046TIP3   OH2 3078   1.174   6.226   2.627
 1046TIP3    H1 3079   1.133   6.304   2.664
 1046TIP3    H2 3080   1.122   6.206   2.549
 1047TIP3   OH2 3081   1.156   1.399   2.840
 1047TIP3    H1 3082   1.247   1.398   2.808
 1047TIP3    H2 3083   1.164   1.400   2.935
 1048TIP3   OH2 3084   1.955   6.539   3.356
 1048TIP3    H1 3085   2.022   6.586   3.307
 1048TIP3    H2 3086   1.903   6.494   3.290
 1049TIP3   OH2 3087   4.658   4.718   1.965
 1049TIP3    H1 3088   4.673   4.651   1.898
 1049TIP3    H2 3089   4.699   4.797   1.928
 1050TIP3   OH2 3090   2.723   0.848   1.848
 1050TIP3    H1 3091   2.744   0.773   1.904
 1050TIP3    H2 3092   2.787   0.915   1.873
 1051TIP3   OH2 3093   7.247   4.465   0.441
 1051TIP3    H1 3094   7.257   4.464   0.536
 1051TIP3    H2 3095   7.307   4.533   0.411
 1052TIP3   OH2 3096   2.661   3.459   2.525
 1052TIP3    H1 3097   2.667   3.445   2.431
 1052TIP3    H2 3098   2.578   3.504   2.538
 1053TIP3   OH2 3099   1.446   0.596   6.110
 1053TIP3    H1 3100   1.416   0.505   6.106
 1053TIP3    H2 3101   1.532   0.591   6.152
 1054TIP3   OH2 3102   5.490   3.278   0.451
 1054TIP3    H1 3103   5.447   3.280   0.366
 1054TIP3    H2 3104   5.550   3.203   0.446
 1055TIP3   OH2 3105   1.880   0.471   0.871
 1055TIP3    H1 3106   1.790   0.437   0.875
 1055TIP3    H2 3107   1.935   0.393   0.873
 1056TIP3   OH2 3108   7.342   4.399   3.294
 1056TIP3    H1 3109   7.257   4.423   3.257
 1056TIP3    H2 3110   7.339   4.303   3.301
 1057TIP3   OH2 3111   7.421   3.036   3.800
 1057TIP3    H1 3112   7.408   3.131   3.798
 1057TIP3    H2 3113   7.441   3.013   3.710
 1058TIP3   OH2 3114   4.485   1.321   2.713
 1058TIP3    H1 3115   4.444   1.235   2.723
 1058TIP3    H2 3116   4.443   1.359   2.636
 1059TIP3   OH2 3117   4.766   2.999   2.719
 1059TIP3    H1 3118   4.683   2.959   2.695
 1059TIP3    H2 3119   4.820   2.927   2.752
 1060TIP3   OH2 3120   2.421   7.260   6.224
 1060TIP3    H1 3121   2.461   7.299   6.302
 1060TIP3    H2 3122   2.353   7.322   6.198
 1061TIP3   OH2 3123   2.252   4.732   1.574
 1061TIP3    H1 3124   2.292   4.787   1.641
 1061TIP3    H2 3125   2.260   4.643   1.607
 1062TIP3   OH2 3126   7.512   5.091   1.330
 1062TIP3    H1 3127   7.450   5.018   1.330
 1062TIP3    H2 3128   7.457   5.169   1.320
 1063TIP3   OH2 3129   3.758   6.753   6.022
 1063TIP3    H1 3130   3.769   6.809   5.946
 1063TIP3    H2 3131   3.663   6.752   6.037
 1064TIP3   OH2 3132   5.520   6.852   3.045
 1064TIP3    H1 3133   5.583   6.809   3.103
 1064TIP3    H2 3134   5.434   6.823   3.077
 1065TIP3   OH2 3135   5.674   3.801   5.885
 1065TIP3    H1 3136   5.695   3.864   5.954
 1065TIP3    H2 3137   5.691   3.715   5.924
 1066TIP3   OH2 3138   2.843   5.055   2.926
 1066TIP3    H1 3139   2.819   5.010   2.845
 1066TIP3    H2 3140   2.934   5.080   2.914
 1067TIP3   OH2 3141   8.140   1.967   0.846
 1067TIP3    H1 3142   8.226   1.927   0.834
 1067TIP3    H2 3143   8.098   1.959   0.760
 1068TIP3   OH2 3144   1.297   3.910   6.303
 1068TIP3    H1 3145   1.289   3.987   6.247
 1068TIP3    H2 3146   1.390   3.890   6.304
 1069TIP3   OH2 3147   4.921   1.424   6.655
 1069TIP3    H1 3148   5.002   1.372   6.649
 1069TIP3    H2 3149   4.933   1.495   6.592
 1070TIP3   OH2 3150   1.969   5.633   1.807
 1070TIP3    H1 3151   1.920   5.581   1.870
 1070TIP3    H2 3152   2.051   5.586   1.795
 1071TIP3   OH2 3153   8.291   4.713   4.083
 1071TIP3    H1 3154   8.365   4.653   4.082
 1071TIP3    H2 3155   8.282   4.743   3.992
 1072TIP3   OH2 3156   1.366   3.567   2.947
 1072TIP3    H1 3157   1.311   3.492   2.924
 1072TIP3    H2 3158   1.451   3.529   2.971
 1073TIP3   OH2 3159   2.356   3.101   5.127
 1073TIP3    H1 3160   2.304   3.040   5.075
 1073TIP3    H2 3161   2.292   3.158   5.169
 1074TIP3   OH2 3162   4.808   5.242   3.190
 1074TIP3    H1 3163   4.817   5.223   3.283
 1074TIP3    H2 3164   4.879   5.192   3.148
 1075TIP3   OH2 3165   0.721   3.655   3.430
 1075TIP3    H1 3166   0.745   3.638   3.521
 1075TIP3    H2 3167   0.797   3.700   3.393
 1076TIP3   OH2 3168   7.662   5.937   1.569
 1076TIP3    H1 3169   7.691   5.846   1.559
 1076TIP3    H2 3170   7.567   5.932   1.561
 1077TIP3   OH2 3171   8.330   5.262   0.428
 1077TIP3    H1 3172   8.409   5.210   0.410
 1077TIP3    H2 3173   8.340   5.290   0.519
 1078TIP3   OH2 3174   6.329   5.120   5.036
 1078TIP3    H1 3175   6.294   5.052   4.979
 1078TIP3    H2 3176   6.360   5.074   5.114
 1079TIP3   OH2 3177   0.068   6.621   5.727
 1079TIP3    H1 3178   0.088   6.713   5.711
 1079TIP3    H2 3179   0.090   6.577   5.645
 1080TIP3   OH2 3180   7.646   1.155   1.377
 1080TIP3    H1 3181   7.660   1.168   1.283
 1080TIP3    H2 3182   7.569   1.208   1.397
 1081TIP3   OH2 3183   0.482   0.424   1.908
 1081TIP3    H1 3184   0.434   0.450   1.829
 1081TIP3    H2 3185   0.471   0.329   1.913
 1082TIP3   OH2 3186   0.136   5.687   4.266
 1082TIP3    H1 3187   0.140   5.719   4.356
 1082TIP3    H2 3188   0.222   5.708   4.229
 1083TIP3   OH2 3189   8.047   3.097   5.402
 1083TIP3    H1 3190   8.093   3.021   5.366
 1083TIP3    H2 3191   8.040   3.078   5.496
 1084TIP3   OH2 3192   6.618   0.659   1.642
 1084TIP3    H1 3193   6.714   0.667   1.639
 1084TIP3    H2 3194   6.587   0.749   1.650
 1085TIP3   OH2 3195   1.008   6.983   4.615
 1085TIP3    H1 3196   1.068   7.057   4.627
 1085TIP3    H2 3197   1.062   6.906   4.633
 1086TIP3   OH2 3198   5.658   2.974   4.525
 1086TIP3    H1 3199   5.677   2.957   4.618
 1086TIP3    H2 3200   5.563   2.963   4.518
 1087TIP3   OH2 3201   5.915   6.180   5.434
 1087TIP3    H1 3202   5.881   6.135   5.356
 1087TIP3    H2 3203   5.853   6.252   5.449
 1088TIP3   OH2 3204   0.426   3.496   2.054
 1088TIP3    H1 3205   0.512   3.479   2.016
 1088TIP3    H2 3206   0.407   3.418   2.106
 1089TIP3   OH2 3207   2.810   1.381   0.221
 1089TIP3    H1 3208   2.893   1.418   0.251
 1089TIP3    H2 3209   2.754   1.382   0.299
 1090TIP3   OH2 3210   3.418   5.917   4.591
 1090TIP3    H1 3211   3.392   5.981   4.525
 1090TIP3    H2 3212   3.407   5.832   4.548
 1091TIP3   OH2 3213   8.331   7.040   6.071
 1091TIP3    H1 3214   8.400   7.043   6.005
 1091TIP3    H2 3215   8.345   6.957   6.116
 1092TIP3   OH2 3216   0.162   2.562   0.456
 1092TIP3    H1 3217   0.099   2.635   0.457
 1092TIP3    H2 3218   0.159   2.529   0.367
 1093TIP3   OH2 3219   6.578   1.525   5.108
 1093TIP3    H1 3220   6.549   1.575   5.032
 1093TIP3    H2 3221   6.500   1.477   5.136
 1094TIP3   OH2 3222   3.523   5.271   0.058
 1094TIP3    H1 3223   3.446   5.235   0.013
 1094TIP3    H2 3224   3.513   5.366   0.050
 1095TIP3   OH2 3225   2.206   1.749   6.023
 1095TIP3    H1 3226   2.144   1.821   6.023
 1095TIP3    H2 3227   2.292   1.791   6.019
 1096TIP3   OH2 3228   3.894   6.213   0.400
 1096TIP3    H1 3229   3.946   6.169   0.467
 1096TIP3    H2 3230   3.806   6.176   0.410
 1097TIP3   OH2 3231   4.623   7.488   5.404
 1097TIP3    H1 3232   4.715   7.487   5.378
 1097TIP3    H2 3233   4.612   7.572   5.448
 1098TIP3   OH2 3234   4.629   4.444   1.016
 1098TIP3    H1 3235   4.586   4.475   1.095
 1098TIP3    H2 3236   4.642   4.350   1.030
 1099TIP3   OH2 3237   1.454   0.925   3.282
 1099TIP3    H1 3238   1.507   0.986   3.231
 1099TIP3    H2 3239   1.425   0.860   3.218
 1100TIP3   OH2 3240   8.284   0.689   2.443
 1100TIP3    H1 3241   8.193   0.717   2.454
 1100TIP3    H2 3242   8.320   0.749   2.378
 1101TIP3   OH2 3243   2.477   0.931   6.682
 1101TIP3    H1 3244   2.428   0.918   6.601
 1101TIP3    H2 3245   2.566   0.954   6.653
 1102TIP3   OH2 3246   1.249   5.301   4.017
 1102TIP3    H1 3247   1.182   5.367   4.034
 1102TIP3    H2 3248   1.209   5.242   3.953
 1103TIP3   OH2 3249   2.820   2.604   6.388
 1103TIP3    H1 3250   2.838   2.695   6.364
 1103TIP3    H2 3251   2.813   2.605   6.483
 1104TIP3   OH2 3252   2.849   3.255   3.341
 1104TIP3    H1 3253   2.909   3.323   3.371
 1104TIP3    H2 3254   2.778   3.256   3.405
 1105TIP3   OH2 3255   2.686   0.856   3.051
 1105TIP3    H1 3256   2.716   0.868   3.141
 1105TIP3    H2 3257   2.667   0.762   3.044
 1106TIP3   OH2 3258   2.832   3.276   2.945
 1106TIP3    H1 3259   2.775   3.338   2.900
 1106TIP3    H2 3260   2.868   3.221   2.876
 1107TIP3   OH2 3261   3.254   7.887   2.193
 1107TIP3    H1 3262   3.321   7.819   2.178
 1107TIP3    H2 3263   3.292   7.943   2.260
 1108TIP3   OH2 3264   3.785   3.545   5.941
 1108TIP3    H1 3265   3.852   3.486   5.975
 1108TIP3    H2 3266   3.835   3.617   5.900
 1109TIP3   OH2 3267   2.821   1.771   1.611
 1109TIP3    H1 3268   2.873   1.692   1.628
 1109TIP3    H2 3269   2.749   1.765   1.675
 1110TIP3   OH2 3270   2.236   2.695   4.797
 1110TIP3    H1 3271   2.242   2.645   4.716
 1110TIP3    H2 3272   2.267   2.636   4.865
 1111TIP3   OH2 3273   4.512   2.501   0.286
 1111TIP3    H1 3274   4.598   2.527   0.318
 1111TIP3    H2 3275   4.477   2.444   0.355
 1112TIP3   OH2 3276   8.333   1.209   6.770
 1112TIP3    H1 3277   8.359   1.197   6.679
 1112TIP3    H2 3278   8.264   1.144   6.785
 1113TIP3   OH2 3279   2.216   3.235   4.852
 1113TIP3    H1 3280   2.166   3.154   4.868
 1113TIP3    H2 3281   2.156   3.305   4.875
 1114TIP3   OH2 3282   2.898   5.345   6.862
 1114TIP3    H1 3283   2.946   5.414   6.816
 1114TIP3    H2 3284   2.913   5.266   6.810
 1115TIP3   OH2 3285   5.918   3.376   4.411
 1115TIP3    H1 3286   5.905   3.376   4.316
 1115TIP3    H2 3287   5.866   3.449   4.442
 1116TIP3   OH2 3288   6.016   5.396   2.233
 1116TIP3    H1 3289   5.939   5.344   2.212
 1116TIP3    H2 3290   5.991   5.486   2.213
 1117TIP3   OH2 3291   3.038   5.138   4.295
 1117TIP3    H1 3292   3.003   5.215   4.340
 1117TIP3    H2 3293   2.961   5.094   4.258
 1118TIP3   OH2 3294   4.326   2.811   0.008
 1118TIP3    H1 3295   4.296   2.894  -0.030
 1118TIP3    H2 3296   4.276   2.802   0.089
 1119TIP3   OH2 3297   3.174   2.991   4.419
 1119TIP3    H1 3298   3.235   2.986   4.492
 1119TIP3    H2 3299   3.190   2.911   4.369
 1120TIP3   OH2 3300   1.049   7.401   5.704
 1120TIP3    H1 3301   1.125   7.365   5.658
 1120TIP3    H2 3302   1.079   7.408   5.795
 1121TIP3   OH2 3303   5.320   7.663   0.311
 1121TIP3    H1 3304   5.307   7.683   0.219
 1121TIP3    H2 3305   5.264   7.725   0.358
 1122TIP3   OH2 3306   5.707   0.964   0.386
 1122TIP3    H1 3307   5.633   0.962   0.326
 1122TIP3    H2 3308   5.761   0.889   0.361
 1123TIP3   OH2 3309   5.707   1.883   2.465
 1123TIP3    H1 3310   5.693   1.942   2.391
 1123TIP3    H2 3311   5.619   1.861   2.495
 1124TIP3   OH2 3312   8.159   7.285   5.301
 1124TIP3    H1 3313   8.086   7.333   5.340
 1124TIP3    H2 3314   8.131   7.194   5.303
 1125TIP3   OH2 3315   3.875   0.094   2.395
 1125TIP3    H1 3316   3.817   0.019   2.405
 1125TIP3    H2 3317   3.922   0.099   2.479
 1126TIP3   OH2 3318   2.407   3.630   4.471
 1126TIP3    H1 3319   2.355   3.632   4.391
 1126TIP3    H2 3320   2.493   3.601   4.443
 1127TIP3   OH2 3321   5.757   5.444   5.446
 1127TIP3    H1 3322   5.779   5.373   5.505
 1127TIP3    H2 3323   5.674   5.419   5.406
 1128TIP3   OH2 3324   5.270   4.709   1.801
 1128TIP3    H1 3325   5.356   4.734   1.835
 1128TIP3    H2 3326   5.240   4.640   1.861
 1129TIP3   OH2 3327   8.270   2.848   5.730
 1129TIP3    H1 3328   8.216   2.926   5.727
 1129TIP3    H2 3329   8.253   2.803   5.647
 1130TIP3   OH2 3330   2.559   0.989   6.416
 1130TIP3    H1 3331   2.548   0.897   6.394
 1130TIP3    H2 3332   2.648   0.994   6.453
 1131TIP3   OH2 3333   0.800   5.974   0.325
 1131TIP3    H1 3334   0.803   5.884   0.293
 1131TIP3    H2 3335   0.771   5.967   0.416
 1132TIP3   OH2 3336   2.406   1.765   3.333
 1132TIP3    H1 3337   2.495   1.796   3.348
 1132TIP3    H2 3338   2.365   1.833   3.280
 1133TIP3   OH2 3339   0.930   6.543   0.725
 1133TIP3    H1 3340   0.888   6.500   0.650
 1133TIP3    H2 3341   1.019   6.506   0.726
 1134TIP3   OH2 3342   4.703   2.058   4.637
 1134TIP3    H1 3343   4.755   1.983   4.607
 1134TIP3    H2 3344   4.687   2.040   4.729
 1135TIP3   OH2 3345   3.224   7.273   6.814
 1135TIP3    H1 3346   3.246   7.199   6.757
 1135TIP3    H2 3347   3.226   7.349   6.756
 1136TIP3   OH2 3348   7.529   7.653   1.424
 1136TIP3    H1 3349   7.558   7.665   1.514
 1136TIP3    H2 3350   7.455   7.592   1.431
 1137TIP3   OH2 3351   1.001   1.173   1.020
 1137TIP3    H1 3352   0.934   1.188   1.087
 1137TIP3    H2 3353   1.055   1.103   1.055
 1138TIP3   OH2 3354   4.468   0.818   4.679
 1138TIP3    H1 3355   4.440   0.727   4.692
 1138TIP3    H2 3356   4.554   0.822   4.720
 1139TIP3   OH2 3357   6.476   1.874   5.899
 1139TIP3    H1 3358   6.570   1.895   5.893
 1139TIP3    H2 3359   6.439   1.911   5.819
 1140TIP3   OH2 3360   4.351   3.285   4.517
 1140TIP3    H1 3361   4.261   3.312   4.536
 1140TIP3    H2 3362   4.403   3.362   4.538
 1141TIP3   OH2 3363   3.165   1.505   5.121
 1141TIP3    H1 3364   3.187   1.487   5.029
 1141TIP3    H2 3365   3.245   1.485   5.169
 1142TIP3   OH2 3366   4.643   7.123   1.314
 1142TIP3    H1 3367   4.616   7.168   1.394
 1142TIP3    H2 3368   4.603   7.173   1.243
 1143TIP3   OH2 3369   5.727   3.389   3.230
 1143TIP3    H1 3370   5.669   3.388   3.306
 1143TIP3    H2 3371   5.715   3.475   3.192
 1144TIP3   OH2 3372   5.739   4.440   0.459
 1144TIP3    H1 3373   5.688   4.411   0.534
 1144TIP3    H2 3374   5.721   4.375   0.391
 1145TIP3   OH2 3375   0.915   6.306   4.393
 1145TIP3    H1 3376   0.966   6.274   4.467
 1145TIP3    H2 3377   0.870   6.229   4.359
 1146TIP3   OH2 3378   6.120   5.897   0.919
 1146TIP3    H1 3379   6.075   5.896   0.835
 1146TIP3    H2 3380   6.198   5.843   0.905
 1147TIP3   OH2 3381   2.321   5.441   1.196
 1147TIP3    H1 3382   2.284   5.519   1.154
 1147TIP3    H2 3383   2.409   5.468   1.223
 1148TIP3   OH2 3384   5.099   5.575   0.081
 1148TIP3    H1 3385   5.173   5.583   0.020
 1148TIP3    H2 3386   5.135   5.605   0.165
 1149TIP3   OH2 3387   4.422   6.677   5.730
 1149TIP3    H1 3388   4.390   6.682   5.820
 1149TIP3    H2 3389   4.390   6.593   5.698
 1150TIP3   OH2 3390   6.305   5.144   3.155
 1150TIP3    H1 3391   6.224   5.097   3.177
 1150TIP3    H2 3392   6.336   5.102   3.075
 1151TIP3   OH2 3393   1.262   1.656   4.061
 1151TIP3    H1 3394   1.235   1.567   4.086
 1151TIP3    H2 3395   1.180   1.700   4.039
 1152TIP3   OH2 3396   1.793   4.445   3.638
 1152TIP3    H1 3397   1.854   4.421   3.708
 1152TIP3    H2 3398   1.707   4.430   3.675
 1153TIP3   OH2 3399   4.467   6.790   5.373
 1153TIP3    H1 3400   4.516   6.709   5.388
 1153TIP3    H2 3401   4.532   6.851   5.337
 1154TIP3   OH2 3402   8.071   6.790   5.040
 1154TIP3    H1 3403   7.988   6.778   5.087
 1154TIP3    H2 3404   8.100   6.701   5.019
 1155TIP3   OH2 3405   7.415   4.942   6.596
 1155TIP3    H1 3406   7.408   4.959   6.690
 1155TIP3    H2 3407   7.440   5.026   6.558
 1156TIP3   OH2 3408   1.732   4.641   0.255
 1156TIP3    H1 3409   1.767   4.719   0.212
 1156TIP3    H2 3410   1.802   4.612   0.313
 1157TIP3   OH2 3411   1.935   0.320   6.729
 1157TIP3    H1 3412   1.872   0.283   6.790
 1157TIP3    H2 3413   2.021   0.296   6.765
 1158TIP3   OH2 3414   0.804   2.114   6.277
 1158TIP3    H1 3415   0.724   2.108   6.328
 1158TIP3    H2 3416   0.825   2.207   6.276
 1159TIP3   OH2 3417   2.845   4.303   3.344
 1159TIP3    H1 3418   2.821   4.277   3.433
 1159TIP3    H2 3419   2.941   4.293   3.341
 1160TIP3   OH2 3420   6.184   3.928   5.527
 1160TIP3    H1 3421   6.179   4.024   5.524
 1160TIP3    H2 3422   6.116   3.903   5.590
 1161TIP3   OH2 3423   3.655   2.229   1.550
 1161TIP3    H1 3424   3.635   2.175   1.627
 1161TIP3    H2 3425   3.750   2.225   1.542
 1162TIP3   OH2 3426   7.471   3.576   0.778
 1162TIP3    H1 3427   7.544   3.637   0.771
 1162TIP3    H2 3428   7.482   3.517   0.704
 1163TIP3   OH2 3429   4.525   1.138   1.626
 1163TIP3    H1 3430   4.468   1.205   1.663
 1163TIP3    H2 3431   4.594   1.187   1.581
 1164TIP3   OH2 3432   8.236   4.047   6.817
 1164TIP3    H1 3433   8.302   4.105   6.778
 1164TIP3    H2 3434   8.223   3.979   6.752
 1165TIP3   OH2 3435   2.793   5.755   3.490
 1165TIP3    H1 3436   2.779   5.709   3.408
 1165TIP3    H2 3437   2.860   5.821   3.471
 1166TIP3   OH2 3438   2.221   3.790   2.844
 1166TIP3    H1 3439   2.206   3.697   2.863
 1166TIP3    H2 3440   2.149   3.835   2.886
 1167TIP3   OH2 3441   7.166   7.508   6.605
 1167TIP3    H1 3442   7.220   7.527   6.682
 1167TIP3    H2 3443   7.096   7.573   6.609
 1168TIP3   OH2 3444   0.786   2.633   2.392
 1168TIP3    H1 3445   0.731   2.570   2.438
 1168TIP3    H2 3446   0.725   2.689   2.344
 1169TIP3   OH2 3447   3.936   1.573   5.479
 1169TIP3    H1 3448   3.889   1.527   5.548
 1169TIP3    H2 3449   3.965   1.503   5.419
 1170TIP3   OH2 3450   7.479   2.313   0.835
 1170TIP3    H1 3451   7.524   2.302   0.919
 1170TIP3    H2 3452   7.403   2.255   0.841
 1171TIP3   OH2 3453   0.396   6.723   2.506
 1171TIP3    H1 3454   0.378   6.707   2.598
 1171TIP3    H2 3455   0.492   6.729   2.500
 1172TIP3   OH2 3456   1.745   2.756   1.903
 1172TIP3    H1 3457   1.791   2.761   1.987
 1172TIP3    H2 3458   1.737   2.663   1.884
 1173TIP3   OH2 3459   2.934   4.206   6.378
 1173TIP3    H1 3460   2.982   4.230   6.458
 1173TIP3    H2 3461   2.977   4.126   6.347
 1174TIP3   OH2 3462   4.789   1.140   2.459
 1174TIP3    H1 3463   4.697   1.117   2.450
 1174TIP3    H2 3464   4.836   1.064   2.425
 1175TIP3   OH2 3465   5.250   0.454   3.442
 1175TIP3    H1 3466   5.327   0.466   3.386
 1175TIP3    H2 3467   5.251   0.360   3.464
 1176TIP3   OH2 3468   2.735   3.769   0.847
 1176TIP3    H1 3469   2.751   3.837   0.781
 1176TIP3    H2 3470   2.684   3.702   0.801
 1177TIP3   OH2 3471   7.724   3.964   3.252
 1177TIP3    H1 3472   7.777   3.936   3.327
 1177TIP3    H2 3473   7.664   3.891   3.237
 1178TIP3   OH2 3474   1.239   2.280   2.533
 1178TIP3    H1 3475   1.164   2.317   2.580
 1178TIP3    H2 3476   1.297   2.248   2.602
 1179TIP3   OH2 3477   6.280   2.557   5.241
 1179TIP3    H1 3478   6.341   2.544   5.169
 1179TIP3    H2 3479   6.278   2.651   5.254
 1180TIP3   OH2 3480   6.823   1.523   2.982
 1180TIP3    H1 3481   6.736   1.483   2.974
 1180TIP3    H2 3482   6.860   1.516   2.894
 1181TIP3   OH2 3483   4.097   5.439   5.811
 1181TIP3    H1 3484   4.029   5.372   5.803
 1181TIP3    H2 3485   4.107   5.451   5.906
 1182TIP3   OH2 3486   7.605   4.198   6.180
 1182TIP3    H1 3487   7.680   4.139   6.183
 1182TIP3    H2 3488   7.639   4.278   6.141
 1183TIP3   OH2 3489   7.552   7.238   6.488
 1183TIP3    H1 3490   7.589   7.241   6.400
 1183TIP3    H2 3491   7.480   7.301   6.486
 1184TIP3   OH2 3492   3.625   2.857   0.209
 1184TIP3    H1 3493   3.597   2.784   0.264
 1184TIP3    H2 3494   3.591   2.836   0.122
 1185TIP3   OH2 3495   7.420   5.033   3.173
 1185TIP3    H1 3496   7.328   5.030   3.144
 1185TIP3    H2 3497   7.470   5.046   3.092
 1186TIP3   OH2 3498   4.662   0.836   3.778
 1186TIP3    H1 3499   4.624   0.757   3.817
 1186TIP3    H2 3500   4.749   0.809   3.749
 1187TIP3   OH2 3501   5.434   0.644   2.732
 1187TIP3    H1 3502   5.357   0.588   2.726
 1187TIP3    H2 3503   5.501   0.590   2.773
 1188TIP3   OH2 3504   3.050   5.767   3.052
 1188TIP3    H1 3505   3.088   5.827   2.988
 1188TIP3    H2 3506   3.125   5.727   3.095
 1189TIP3   OH2 3507   0.164   1.075   1.583
 1189TIP3    H1 3508   0.199   1.141   1.642
 1189TIP3    H2 3509   0.218   1.082   1.504
 1190TIP3   OH2 3510   3.945   6.923   6.551
 1190TIP3    H1 3511   3.906   7.005   6.522
 1190TIP3    H2 3512   4.035   6.927   6.518
 1191TIP3   OH2 3513   1.077   7.643   0.252
 1191TIP3    H1 3514   1.046   7.555   0.271
 1191TIP3    H2 3515   0.997   7.693   0.233
 1192TIP3   OH2 3516   3.560   1.499   2.809
 1192TIP3    H1 3517   3.648   1.470   2.786
 1192TIP3    H2 3518   3.557   1.591   2.782
 1193TIP3   OH2 3519   3.751   3.704   6.157
 1193TIP3    H1 3520   3.750   3.657   6.073
 1193TIP3    H2 3521   3.825   3.666   6.205
 1194TIP3   OH2 3522   1.246   6.028   4.493
 1194TIP3    H1 3523   1.204   5.979   4.422
 1194TIP3    H2 3524   1.174   6.070   4.539
 1195TIP3   OH2 3525   2.675   5.151   3.152
 1195TIP3    H1 3526   2.646   5.242   3.153
 1195TIP3    H2 3527   2.722   5.141   3.069
 1196TIP3   OH2 3528   3.831   5.051   3.486
 1196TIP3    H1 3529   3.921   5.081   3.495
 1196TIP3    H2 3530   3.797   5.099   3.410
 1197TIP3   OH2 3531   0.721   4.307   3.605
 1197TIP3    H1 3532   0.714   4.216   3.576
 1197TIP3    H2 3533   0.636   4.345   3.584
 1198TIP3   OH2 3534   3.217   3.064   4.035
 1198TIP3    H1 3535   3.284   3.064   4.103
 1198TIP3    H2 3536   3.254   3.010   3.965
 1199TIP3   OH2 3537   8.214   4.116   0.078
 1199TIP3    H1 3538   8.136   4.089   0.031
 1199TIP3    H2 3539   8.181   4.154   0.160
 1200TIP3   OH2 3540   4.822   5.198   3.467
 1200TIP3    H1 3541   4.883   5.141   3.514
 1200TIP3    H2 3542   4.819   5.278   3.519
 1201TIP3   OH2 3543   5.169   5.831   4.039
 1201TIP3    H1 3544   5.170   5.745   3.997
 1201TIP3    H2 3545   5.205   5.815   4.126
 1202TIP3   OH2 3546   7.178   7.825   0.627
 1202TIP3    H1 3547   7.251   7.871   0.584
 1202TIP3    H2 3548   7.129   7.786   0.555
 1203TIP3   OH2 3549   5.039   3.567   5.498
 1203TIP3    H1 3550   4.963   3.599   5.448
 1203TIP3    H2 3551   5.100   3.537   5.431
 1204TIP3   OH2 3552   3.183   4.911   5.870
 1204TIP3    H1 3553   3.137   4.864   5.941
 1204TIP3    H2 3554   3.275   4.901   5.891
 1205TIP3   OH2 3555   4.448   2.205   6.060
 1205TIP3    H1 3556   4.481   2.155   5.986
 1205TIP3    H2 3557   4.386   2.267   6.022
 1206TIP3   OH2 3558   0.170   6.808   6.331
 1206TIP3    H1 3559   0.216   6.799   6.414
 1206TIP3    H2 3560   0.131   6.721   6.316
 1207TIP3   OH2 3561   3.535   0.877   1.496
 1207TIP3    H1 3562   3.444   0.888   1.469
 1207TIP3    H2 3563   3.581   0.849   1.417
 1208TIP3   OH2 3564   2.217   0.436   1.706
 1208TIP3    H1 3565   2.240   0.356   1.754
 1208TIP3    H2 3566   2.141   0.412   1.654
 1209TIP3   OH2 3567   4.996   4.642   0.258
 1209TIP3    H1 3568   4.947   4.707   0.308
 1209TIP3    H2 3569   5.008   4.681   0.172
 1210TIP3   OH2 3570   5.997   0.517   4.869
 1210TIP3    H1 3571   5.921   0.464   4.892
 1210TIP3    H2 3572   5.960   0.600   4.837
 1211TIP3   OH2 3573   7.494   4.590   4.138
 1211TIP3    H1 3574   7.534   4.571   4.223
 1211TIP3    H2 3575   7.544   4.537   4.076
 1212TIP3   OH2 3576   2.354   1.993   5.015
 1212TIP3    H1 3577   2.355   1.956   5.104
 1212TIP3    H2 3578   2.319   2.081   5.026
 1213TIP3   OH2 3579   0.147   0.094   5.744
 1213TIP3    H1 3580   0.128   0.038   5.818
 1213TIP3    H2 3581   0.212   0.156   5.776
 1214TIP3   OH2 3582   0.051   6.636   4.381
 1214TIP3    H1 3583  -0.010   6.575   4.340
 1214TIP3    H2 3584   0.107   6.580   4.435
 1215TIP3   OH2 3585   6.592   7.887   4.119
 1215TIP3    H1 3586   6.576   7.979   4.096
 1215TIP3    H2 3587   6.685   7.884   4.140
 1216TIP3   OH2 3588   1.381   6.207   3.680
 1216TIP3    H1 3589   1.437   6.270   3.636
 1216TIP3    H2 3590   1.384   6.232   3.772
 1217TIP3   OH2 3591   5.243   0.241   4.946
 1217TIP3    H1 3592   5.329   0.204   4.923
 1217TIP3    H2 3593   5.264   0.319   4.998
 1218TIP3   OH2 3594   2.658   0.768   1.111
 1218TIP3    H1 3595   2.598   0.779   1.037
 1218TIP3    H2 3596   2.744   0.752   1.070
 1219TIP3   OH2 3597   8.370   4.842   6.307
 1219TIP3    H1 3598   8.277   4.860   6.323
 1219TIP3    H2 3599   8.404   4.922   6.268
 1220TIP3   OH2 3600   0.965   6.736   6.429
 1220TIP3    H1 3601   0.924   6.739   6.515
 1220TIP3    H2 3602   0.957   6.825   6.395
 1221TIP3   OH2 3603   7.880   0.839   1.852
 1221TIP3    H1 3604   7.831   0.766   1.890
 1221TIP3    H2 3605   7.906   0.808   1.765
 1222TIP3   OH2 3606   2.255   7.632   4.268
 1222TIP3    H1 3607   2.322   7.580   4.223
 1222TIP3    H2 3608   2.293   7.650   4.354
 1223TIP3   OH2 3609   3.970   7.236   6.754
 1223TIP3    H1 3610   3.929   7.239   6.667
 1223TIP3    H2 3611   3.918   7.297   6.807
 1224TIP3   OH2 3612   2.847   4.212   4.675
 1224TIP3    H1 3613   2.825   4.203   4.768
 1224TIP3    H2 3614   2.887   4.299   4.669
 1225TIP3   OH2 3615   1.250   2.754   0.637
 1225TIP3    H1 3616   1.282   2.678   0.685
 1225TIP3    H2 3617   1.175   2.785   0.687
 1226TIP3   OH2 3618   2.281   1.610   1.242
 1226TIP3    H1 3619   2.320   1.541   1.296
 1226TIP3    H2 3620   2.331   1.608   1.161
 1227TIP3   OH2 3621   5.246   2.060   3.805
 1227TIP3    H1 3622   5.192   2.069   3.884
 1227TIP3    H2 3623   5.306   1.988   3.825
 1228TIP3   OH2 3624   2.821   6.765   3.359
 1228TIP3    H1 3625   2.754   6.833   3.348
 1228TIP3    H2 3626   2.772   6.687   3.383
 1229TIP3   OH2 3627   5.992   4.656   6.250
 1229TIP3    H1 3628   5.934   4.582   6.229
 1229TIP3    H2 3629   5.937   4.716   6.300
 1230TIP3   OH2 3630   2.769   2.641   3.861
 1230TIP3    H1 3631   2.856   2.638   3.822
 1230TIP3    H2 3632   2.710   2.619   3.788
 1231TIP3   OH2 3633   7.161   4.698   5.754
 1231TIP3    H1 3634   7.183   4.618   5.802
 1231TIP3    H2 3635   7.100   4.745   5.812
 1232TIP3   OH2 3636   5.472   2.033   0.306
 1232TIP3    H1 3637   5.551   1.985   0.329
 1232TIP3    H2 3638   5.401   1.972   0.321
 1233TIP3   OH2 3639   0.212   1.682   0.354
 1233TIP3    H1 3640   0.290   1.629   0.372
 1233TIP3    H2 3641   0.240   1.772   0.370
 1234TIP3   OH2 3642   1.759   2.285   1.809
 1234TIP3    H1 3643   1.826   2.220   1.789
 1234TIP3    H2 3644   1.693   2.273   1.740
 1235TIP3   OH2 3645   1.935   7.588   4.502
 1235TIP3    H1 3646   2.003   7.630   4.554
 1235TIP3    H2 3647   1.976   7.507   4.471
 1236TIP3   OH2 3648   5.600   2.789   6.004
 1236TIP3    H1 3649   5.685   2.830   6.019
 1236TIP3    H2 3650   5.621   2.700   5.976
 1237TIP3   OH2 3651   5.966   7.458   2.848
 1237TIP3    H1 3652   5.995   7.377   2.807
 1237TIP3    H2 3653   5.891   7.487   2.796
 1238TIP3   OH2 3654   8.199   1.004   1.252
 1238TIP3    H1 3655   8.145   0.972   1.180
 1238TIP3    H2 3656   8.224   1.093   1.226
 1239TIP3   OH2 3657   0.509   1.696   5.381
 1239TIP3    H1 3658   0.439   1.698   5.315
 1239TIP3    H2 3659   0.503   1.609   5.420
 1240TIP3   OH2 3660   6.517   5.130   4.188
 1240TIP3    H1 3661   6.553   5.179   4.115
 1240TIP3    H2 3662   6.440   5.086   4.153
 1241TIP3   OH2 3663   5.223   4.225   5.027
 1241TIP3    H1 3664   5.190   4.250   4.941
 1241TIP3    H2 3665   5.207   4.302   5.083
 1242TIP3   OH2 3666   5.137   1.782   6.502
 1242TIP3    H1 3667   5.053   1.761   6.542
 1242TIP3    H2 3668   5.199   1.723   6.546
 1243TIP3   OH2 3669   3.751   6.972   6.794
 1243TIP3    H1 3670   3.807   7.002   6.866
 1243TIP3    H2 3671   3.803   6.987   6.715
 1244TIP3   OH2 3672   0.765   1.142   2.125
 1244TIP3    H1 3673   0.682   1.140   2.172
 1244TIP3    H2 3674   0.818   1.074   2.167
 1245TIP3   OH2 3675   4.925   2.881   5.388
 1245TIP3    H1 3676   4.987   2.855   5.320
 1245TIP3    H2 3677   4.980   2.914   5.460
 1246TIP3   OH2 3678   8.334   1.141   5.638
 1246TIP3    H1 3679   8.346   1.235   5.653
 1246TIP3    H2 3680   8.311   1.135   5.545
 1247TIP3   OH2 3681   0.148   7.195   4.726
 1247TIP3    H1 3682   0.080   7.132   4.705
 1247TIP3    H2 3683   0.227   7.160   4.684
 1248TIP3   OH2 3684   5.766   0.298   5.251
 1248TIP3    H1 3685   5.838   0.336   5.302
 1248TIP3    H2 3686   5.769   0.204   5.272
 1249TIP3   OH2 3687   6.714   6.738   3.080
 1249TIP3    H1 3688   6.755   6.769   2.999
 1249TIP3    H2 3689   6.745   6.648   3.088
 1250TIP3   OH2 3690   1.370   3.223   2.106
 1250TIP3    H1 3691   1.312   3.260   2.172
 1250TIP3    H2 3692   1.341   3.132   2.097
 1251TIP3   OH2 3693   7.506   4.415   5.821
 1251TIP3    H1 3694   7.528   4.391   5.731
 1251TIP3    H2 3695   7.585   4.395   5.871
 1252TIP3   OH2 3696   7.961   5.408   3.814
 1252TIP3    H1 3697   8.018   5.456   3.873
 1252TIP3    H2 3698   7.874   5.418   3.851
 1253TIP3   OH2 3699   0.988   3.971   0.392
 1253TIP3    H1 3700   1.078   3.940   0.405
 1253TIP3    H2 3701   0.950   3.972   0.480
 1254TIP3   OH2 3702   7.265   2.755   3.140
 1254TIP3    H1 3703   7.309   2.790   3.063
 1254TIP3    H2 3704   7.256   2.661   3.122
 1255TIP3   OH2 3705   0.541   0.046   0.736
 1255TIP3    H1 3706   0.531   0.064   0.830
 1255TIP3    H2 3707   0.535  -0.049   0.729
 1256TIP3   OH2 3708   0.847   6.348   3.684
 1256TIP3    H1 3709   0.938   6.322   3.701
 1256TIP3    H2 3710   0.822   6.399   3.761
 1257TIP3   OH2 3711   6.525   3.593   6.069
 1257TIP3    H1 3712   6.437   3.558   6.058
 1257TIP3    H2 3713   6.519   3.683   6.036
 1258TIP3   OH2 3714   5.388   7.345   4.124
 1258TIP3    H1 3715   5.397   7.418   4.064
 1258TIP3    H2 3716   5.315   7.369   4.181
 1259TIP3   OH2 3717   0.975   3.878   1.790
 1259TIP3    H1 3718   0.953   3.835   1.707
 1259TIP3    H2 3719   0.907   3.945   1.802
 1260TIP3   OH2 3720   5.203   7.224   2.437
 1260TIP3    H1 3721   5.193   7.311   2.474
 1260TIP3    H2 3722   5.166   7.230   2.349
 1261TIP3   OH2 3723   6.767   4.035   4.982
 1261TIP3    H1 3724   6.801   3.969   4.922
 1261TIP3    H2 3725   6.728   3.985   5.054
 1262TIP3   OH2 3726   8.172   5.841   5.081
 1262TIP3    H1 3727   8.264   5.867   5.088
 1262TIP3    H2 3728   8.127   5.894   5.148
 1263TIP3   OH2 3729   1.325   6.708   5.683
 1263TIP3    H1 3730   1.331   6.641   5.751
 1263TIP3    H2 3731   1.232   6.730   5.680
 1264TIP3   OH2 3732   0.671   3.381   1.984
 1264TIP3    H1 3733   0.764   3.370   2.000
 1264TIP3    H2 3734   0.637   3.292   1.975
 1265TIP3   OH2 3735   4.867   6.623   2.860
 1265TIP3    H1 3736   4.823   6.696   2.817
 1265TIP3    H2 3737   4.822   6.545   2.828
 1266TIP3   OH2 3738   1.860   4.568   5.457
 1266TIP3    H1 3739   1.900   4.607   5.378
 1266TIP3    H2 3740   1.832   4.643   5.509
 1267TIP3   OH2 3741   6.320   3.207   2.386
 1267TIP3    H1 3742   6.227   3.204   2.409
 1267TIP3    H2 3743   6.343   3.116   2.367
 1268TIP3   OH2 3744   3.390   3.556   1.506
 1268TIP3    H1 3745   3.391   3.632   1.564
 1268TIP3    H2 3746   3.482   3.535   1.492
 1269TIP3   OH2 3747   7.444   1.246   5.651
 1269TIP3    H1 3748   7.473   1.317   5.594
 1269TIP3    H2 3749   7.503   1.174   5.631
 1270TIP3   OH2 3750   5.189   2.534   2.051
 1270TIP3    H1 3751   5.215   2.496   2.134
 1270TIP3    H2 3752   5.244   2.490   1.986
 1271TIP3   OH2 3753   3.758   0.165   4.977
 1271TIP3    H1 3754   3.752   0.071   4.988
 1271TIP3    H2 3755   3.727   0.202   5.060
 1272TIP3   OH2 3756   3.118   2.892   6.137
 1272TIP3    H1 3757   3.024   2.886   6.150
 1272TIP3    H2 3758   3.156   2.854   6.217
 1273TIP3   OH2 3759   6.127   1.932   0.246
 1273TIP3    H1 3760   6.091   1.965   0.328
 1273TIP3    H2 3761   6.053   1.933   0.185
 1274TIP3   OH2 3762   2.943   2.089   4.852
 1274TIP3    H1 3763   2.883   2.139   4.908
 1274TIP3    H2 3764   2.912   2.106   4.763
 1275TIP3   OH2 3765   7.974   0.969   6.168
 1275TIP3    H1 3766   8.055   0.988   6.120
 1275TIP3    H2 3767   7.911   0.946   6.100
 1276TIP3   OH2 3768   4.481   6.392   1.185
 1276TIP3    H1 3769   4.422   6.454   1.228
 1276TIP3    H2 3770   4.486   6.318   1.245
 1277TIP3   OH2 3771   7.849   0.211   5.798
 1277TIP3    H1 3772   7.868   0.136   5.853
 1277TIP3    H2 3773   7.878   0.287   5.849
 1278TIP3   OH2 3774   4.551   5.122   6.605
 1278TIP3    H1 3775   4.580   5.034   6.628
 1278TIP3    H2 3776   4.458   5.123   6.629
 1279TIP3   OH2 3777   5.037   7.687   1.967
 1279TIP3    H1 3778   4.958   7.693   1.912
 1279TIP3    H2 3779   5.005   7.649   2.049
 1280TIP3   OH2 3780   8.185   1.292   1.995
 1280TIP3    H1 3781   8.221   1.271   1.909
 1280TIP3    H2 3782   8.141   1.211   2.022
 1281TIP3   OH2 3783   6.871   1.568   0.997
 1281TIP3    H1 3784   6.816   1.646   1.007
 1281TIP3    H2 3785   6.902   1.573   0.907
 1282TIP3   OH2 3786   1.676   1.543   6.751
 1282TIP3    H1 3787   1.729   1.497   6.815
 1282TIP3    H2 3788   1.652   1.625   6.793
 1283TIP3   OH2 3789   7.234   7.286   2.601
 1283TIP3    H1 3790   7.275   7.203   2.578
 1283TIP3    H2 3791   7.295   7.353   2.571
 1284TIP3   OH2 3792   0.987   5.384   4.116
 1284TIP3    H1 3793   0.916   5.350   4.170
 1284TIP3    H2 3794   0.980   5.337   4.033
 1285TIP3   OH2 3795   2.761   2.766   5.919
 1285TIP3    H1 3796   2.805   2.808   5.845
 1285TIP3    H2 3797   2.687   2.719   5.879
 1286TIP3   OH2 3798   4.361   2.574   4.521
 1286TIP3    H1 3799   4.270   2.547   4.537
 1286TIP3    H2 3800   4.356   2.668   4.503
 1287TIP3   OH2 3801   7.231   1.987   5.760
 1287TIP3    H1 3802   7.199   1.968   5.849
 1287TIP3    H2 3803   7.152   2.008   5.711
 1288TIP3   OH2 3804   2.865   5.368   4.714
 1288TIP3    H1 3805   2.816   5.416   4.780
 1288TIP3    H2 3806   2.830   5.398   4.630
 1289TIP3   OH2 3807   6.393   4.644   1.047
 1289TIP3    H1 3808   6.332   4.615   1.115
 1289TIP3    H2 3809   6.339   4.651   0.968
 1290TIP3   OH2 3810   3.610   3.288   1.680
 1290TIP3    H1 3811   3.549   3.362   1.688
 1290TIP3    H2 3812   3.608   3.246   1.765
 1291TIP3   OH2 3813   3.871   2.897   1.213
 1291TIP3    H1 3814   3.887   2.960   1.143
 1291TIP3    H2 3815   3.955   2.893   1.261
 1292TIP3   OH2 3816   0.422   3.837   6.694
 1292TIP3    H1 3817   0.426   3.782   6.616
 1292TIP3    H2 3818   0.363   3.790   6.753
 1293TIP3   OH2 3819   5.686   0.924   3.098
 1293TIP3    H1 3820   5.712   0.893   3.011
 1293TIP3    H2 3821   5.591   0.927   3.094
 1294TIP3   OH2 3822   4.440   4.248   1.276
 1294TIP3    H1 3823   4.435   4.226   1.369
 1294TIP3    H2 3824   4.434   4.343   1.274
 1295TIP3   OH2 3825   5.249   1.990   4.254
 1295TIP3    H1 3826   5.206   2.041   4.185
 1295TIP3    H2 3827   5.313   2.051   4.293
 1296TIP3   OH2 3828   1.336   6.134   6.674
 1296TIP3    H1 3829   1.306   6.224   6.665
 1296TIP3    H2 3830   1.271   6.092   6.730
 1297TIP3   OH2 3831   3.444   1.309   3.038
 1297TIP3    H1 3832   3.427   1.402   3.024
 1297TIP3    H2 3833   3.463   1.303   3.132
 1298TIP3   OH2 3834   6.047   5.088   6.267
 1298TIP3    H1 3835   6.007   5.115   6.184
 1298TIP3    H2 3836   6.078   5.170   6.305
 1299TIP3   OH2 3837   6.740   7.654   0.547
 1299TIP3    H1 3838   6.681   7.603   0.492
 1299TIP3    H2 3839   6.687   7.728   0.577
 1300TIP3   OH2 3840   0.460   0.756   2.246
 1300TIP3    H1 3841   0.435   0.749   2.154
 1300TIP3    H2 3842   0.542   0.708   2.253
 1301TIP3   OH2 3843   2.111   3.633   3.475
 1301TIP3    H1 3844   2.025   3.591   3.475
 1301TIP3    H2 3845   2.113   3.683   3.557
 1302TIP3   OH2 3846   4.707   2.916   3.956
 1302TIP3    H1 3847   4.616   2.908   3.928
 1302TIP3    H2 3848   4.712   2.864   4.036
 1303TIP3   OH2 3849   7.392   4.212   4.221
 1303TIP3    H1 3850   7.338   4.181   4.149
 1303TIP3    H2 3851   7.482   4.192   4.193
 1304TIP3   OH2 3852   8.143   1.573   3.025
 1304TIP3    H1 3853   8.051   1.559   3.003
 1304TIP3    H2 3854   8.167   1.653   2.978
 1305TIP3   OH2 3855   6.827   1.994   4.824
 1305TIP3    H1 3856   6.805   1.924   4.885
 1305TIP3    H2 3857   6.837   1.950   4.739
 1306TIP3   OH2 3858   1.891   3.527   4.622
 1306TIP3    H1 3859   1.807   3.493   4.592
 1306TIP3    H2 3860   1.872   3.573   4.704
 1307TIP3   OH2 3861   4.267   6.888   4.824
 1307TIP3    H1 3862   4.360   6.873   4.843
 1307TIP3    H2 3863   4.221   6.837   4.891
 1308TIP3   OH2 3864   0.676   2.717   4.265
 1308TIP3    H1 3865   0.688   2.805   4.302
 1308TIP3    H2 3866   0.581   2.704   4.265
 1309TIP3   OH2 3867   0.295   0.263   2.255
 1309TIP3    H1 3868   0.213   0.307   2.234
 1309TIP3    H2 3869   0.363   0.326   2.229
 1310TIP3   OH2 3870   2.553   0.396   3.482
 1310TIP3    H1 3871   2.631   0.451   3.475
 1310TIP3    H2 3872   2.522   0.410   3.572
 1311TIP3   OH2 3873   0.091   4.478   4.222
 1311TIP3    H1 3874   0.082   4.415   4.151
 1311TIP3    H2 3875   0.182   4.468   4.250
 1312TIP3   OH2 3876   7.348   5.777   0.542
 1312TIP3    H1 3877   7.257   5.800   0.559
 1312TIP3    H2 3878   7.373   5.720   0.615
 1313TIP3   OH2 3879   1.399   2.154   4.240
 1313TIP3    H1 3880   1.440   2.112   4.315
 1313TIP3    H2 3881   1.469   2.164   4.176
 1314TIP3   OH2 3882   3.396   4.705   4.700
 1314TIP3    H1 3883   3.356   4.767   4.762
 1314TIP3    H2 3884   3.340   4.710   4.622
 1315TIP3   OH2 3885   6.987   5.284   3.609
 1315TIP3    H1 3886   6.995   5.207   3.553
 1315TIP3    H2 3887   7.069   5.332   3.596
 1316TIP3   OH2 3888   0.245   1.218   6.651
 1316TIP3    H1 3889   0.191   1.281   6.700
 1316TIP3    H2 3890   0.233   1.243   6.560
 1317TIP3   OH2 3891   1.568   4.463   4.024
 1317TIP3    H1 3892   1.616   4.455   4.107
 1317TIP3    H2 3893   1.590   4.550   3.992
 1318TIP3   OH2 3894   4.549   6.876   1.384
 1318TIP3    H1 3895   4.502   6.897   1.465
 1318TIP3    H2 3896   4.578   6.961   1.351
 1319TIP3   OH2 3897   2.495   2.342   4.847
 1319TIP3    H1 3898   2.542   2.291   4.913
 1319TIP3    H2 3899   2.563   2.373   4.787
 1320TIP3   OH2 3900   1.814   0.059   0.544
 1320TIP3    H1 3901   1.880  -0.004   0.515
 1320TIP3    H2 3902   1.864   0.140   0.557
 1321TIP3   OH2 3903   5.546   7.481   3.915
 1321TIP3    H1 3904   5.600   7.532   3.976
 1321TIP3    H2 3905   5.531   7.541   3.842
 1322TIP3   OH2 3906   1.186   0.497   5.670
 1322TIP3    H1 3907   1.094   0.473   5.670
 1322TIP3    H2 3908   1.189   0.585   5.632
 1323TIP3   OH2 3909   0.632   1.834   1.392
 1323TIP3    H1 3910   0.689   1.858   1.319
 1323TIP3    H2 3911   0.548   1.874   1.371
 1324TIP3   OH2 3912   2.496   3.439   5.636
 1324TIP3    H1 3913   2.552   3.382   5.584
 1324TIP3    H2 3914   2.414   3.390   5.646
 1325TIP3   OH2 3915   3.994   3.726   1.980
 1325TIP3    H1 3916   4.043   3.797   2.022
 1325TIP3    H2 3917   4.043   3.707   1.900
 1326TIP3   OH2 3918   7.513   7.381   6.721
 1326TIP3    H1 3919   7.527   7.297   6.676
 1326TIP3    H2 3920   7.543   7.447   6.658
 1327TIP3   OH2 3921   0.195   5.550   2.997
 1327TIP3    H1 3922   0.165   5.570   2.909
 1327TIP3    H2 3923   0.266   5.487   2.984
 1328TIP3   OH2 3924   1.986   0.541   3.673
 1328TIP3    H1 3925   1.912   0.594   3.642
 1328TIP3    H2 3926   1.947   0.483   3.739
 1329TIP3   OH2 3927   5.048   2.185   4.524
 1329TIP3    H1 3928   5.001   2.246   4.581
 1329TIP3    H2 3929   4.991   2.174   4.448
 1330TIP3   OH2 3930   3.638   4.611   5.013
 1330TIP3    H1 3931   3.561   4.568   4.975
 1330TIP3    H2 3932   3.603   4.685   5.062
 1331TIP3   OH2 3933   4.791   7.878   5.489
 1331TIP3    H1 3934   4.834   7.828   5.420
 1331TIP3    H2 3935   4.704   7.838   5.496
 1332TIP3   OH2 3936   2.376   6.269   0.832
 1332TIP3    H1 3937   2.367   6.342   0.771
 1332TIP3    H2 3938   2.362   6.191   0.777
 1333TIP3   OH2 3939   6.091   5.875   4.033
 1333TIP3    H1 3940   6.082   5.806   3.968
 1333TIP3    H2 3941   6.179   5.911   4.018
 1334TIP3   OH2 3942   2.625   3.702   0.543
 1334TIP3    H1 3943   2.698   3.739   0.494
 1334TIP3    H2 3944   2.664   3.635   0.598
 1335TIP3   OH2 3945   8.366   1.557   3.807
 1335TIP3    H1 3946   8.451   1.514   3.810
 1335TIP3    H2 3947   8.322   1.530   3.888
 1336TIP3   OH2 3948   0.901   6.023   1.702
 1336TIP3    H1 3949   0.903   6.015   1.798
 1336TIP3    H2 3950   0.832   6.088   1.685
 1337TIP3   OH2 3951   4.248   6.915   3.050
 1337TIP3    H1 3952   4.200   6.997   3.035
 1337TIP3    H2 3953   4.272   6.918   3.142
 1338TIP3   OH2 3954   0.565   1.599   5.085
 1338TIP3    H1 3955   0.478   1.616   5.119
 1338TIP3    H2 3956   0.612   1.557   5.157
 1339TIP3   OH2 3957   7.290   7.877   4.978
 1339TIP3    H1 3958   7.251   7.955   5.018
 1339TIP3    H2 3959   7.229   7.806   5.000
 1340TIP3   OH2 3960   6.071   3.493   3.119
 1340TIP3    H1 3961   6.150   3.466   3.072
 1340TIP3    H2 3962   6.030   3.412   3.148
 1341TIP3   OH2 3963   7.619   7.854   2.336
 1341TIP3    H1 3964   7.529   7.882   2.324
 1341TIP3    H2 3965   7.628   7.775   2.282
 1342TIP3   OH2 3966   1.849   5.876   5.070
 1342TIP3    H1 3967   1.925   5.881   5.129
 1342TIP3    H2 3968   1.882   5.906   4.985
 1343TIP3   OH2 3969   4.180   7.007   6.443
 1343TIP3    H1 3970   4.143   7.012   6.355
 1343TIP3    H2 3971   4.222   7.092   6.456
 1344TIP3   OH2 3972   4.011   5.969   0.982
 1344TIP3    H1 3973   4.040   6.006   1.066
 1344TIP3    H2 3974   3.924   6.007   0.968
 1345TIP3   OH2 3975   5.517   5.938   4.408
 1345TIP3    H1 3976   5.463   5.945   4.487
 1345TIP3    H2 3977   5.575   5.864   4.426
 1346TIP3   OH2 3978   1.624   1.967   3.447
 1346TIP3    H1 3979   1.597   1.941   3.536
 1346TIP3    H2 3980   1.547   1.948   3.393
 1347TIP3   OH2 3981   7.363   6.682   1.217
 1347TIP3    H1 3982   7.431   6.616   1.228
 1347TIP3    H2 3983   7.385   6.750   1.281
 1348TIP3   OH2 3984   3.085   7.404   2.781
 1348TIP3    H1 3985   3.041   7.396   2.866
 1348TIP3    H2 3986   3.160   7.344   2.787
 1349TIP3   OH2 3987   6.048   7.317   2.232
 1349TIP3    H1 3988   6.021   7.230   2.202
 1349TIP3    H2 3989   6.032   7.315   2.326
 1350TIP3   OH2 3990   7.207   4.112   4.059
 1350TIP3    H1 3991   7.143   4.147   4.120
 1350TIP3    H2 3992   7.162   4.039   4.016
 1351TIP3   OH2 3993   5.157   7.541   3.017
 1351TIP3    H1 3994   5.214   7.479   3.062
 1351TIP3    H2 3995   5.190   7.544   2.927
 1352TIP3   OH2 3996   0.466   2.710   5.668
 1352TIP3    H1 3997   0.477   2.746   5.580
 1352TIP3    H2 3998   0.428   2.781   5.719
 1353TIP3   OH2 3999   5.369   7.201   2.787
 1353TIP3    H1 4000   5.369   7.150   2.706
 1353TIP3    H2 4001   5.431   7.272   2.771
 1354TIP3   OH2 4002   1.728   0.412   4.234
 1354TIP3    H1 4003   1.684   0.420   4.149
 1354TIP3    H2 4004   1.780   0.492   4.241
 1355TIP3   OH2 4005   2.828   4.626   3.633
 1355TIP3    H1 4006   2.804   4.542   3.672
 1355TIP3    H2 4007   2.855   4.680   3.707
 1356TIP3   OH2 4008   6.350   0.206   0.531
 1356TIP3    H1 4009   6.347   0.238   0.440
 1356TIP3    H2 4010   6.322   0.114   0.525
 1357TIP3   OH2 4011   0.058   3.176   5.203
 1357TIP3    H1 4012   0.034   3.248   5.145
 1357TIP3    H2 4013  -0.024   3.130   5.220
 1358TIP3   OH2 4014   0.822   6.829   6.633
 1358TIP3    H1 4015   0.774   6.883   6.570
 1358TIP3    H2 4016   0.853   6.891   6.699
 1359TIP3   OH2 4017   3.574   2.905   1.315
 1359TIP3    H1 4018   3.616   2.984   1.348
 1359TIP3    H2 4019   3.620   2.884   1.234
 1360TIP3   OH2 4020   3.401   1.415   5.951
 1360TIP3    H1 4021   3.419   1.507   5.930
 1360TIP3    H2 4022   3.399   1.371   5.866
 1361TIP3   OH2 4023   4.653   4.869   3.706
 1361TIP3    H1 4024   4.729   4.911   3.745
 1361TIP3    H2 4025   4.619   4.933   3.643
 1362TIP3   OH2 4026   6.874   6.631   1.010
 1362TIP3    H1 4027   6.808   6.612   0.943
 1362TIP3    H2 4028   6.830   6.690   1.071
 1363TIP3   OH2 4029   0.655   3.750   5.696
 1363TIP3    H1 4030   0.561   3.753   5.715
 1363TIP3    H2 4031   0.665   3.676   5.636
 1364TIP3   OH2 4032   7.025   6.366   4.990
 1364TIP3    H1 4033   7.023   6.301   4.920
 1364TIP3    H2 4034   6.966   6.332   5.057
 1365TIP3   OH2 4035   1.871   3.654   4.858
 1365TIP3    H1 4036   1.784   3.621   4.884
 1365TIP3    H2 4037   1.872   3.745   4.887
 1366TIP3   OH2 4038   3.920   5.047   4.707
 1366TIP3    H1 4039   3.875   4.999   4.776
 1366TIP3    H2 4040   3.976   5.109   4.754
 1367TIP3   OH2 4041   3.684   0.979   3.242
 1367TIP3    H1 4042   3.724   1.065   3.240
 1367TIP3    H2 4043   3.595   0.994   3.274
 1368TIP3   OH2 4044   0.238   2.355   4.764
 1368TIP3    H1 4045   0.192   2.385   4.842
 1368TIP3    H2 4046   0.327   2.334   4.795
 1369TIP3   OH2 4047   8.201   0.653   1.023
 1369TIP3    H1 4048   8.291   0.619   1.029
 1369TIP3    H2 4049   8.174   0.664   1.114
 1370TIP3   OH2 4050   4.941   3.609   0.721
 1370TIP3    H1 4051   4.882   3.685   0.728
 1370TIP3    H2 4052   5.012   3.628   0.782
 1371TIP3   OH2 4053   6.912   3.350   5.700
 1371TIP3    H1 4054   6.872   3.437   5.700
 1371TIP3    H2 4055   6.921   3.328   5.607
 1372TIP3   OH2 4056   3.363   1.073   1.726
 1372TIP3    H1 4057   3.420   1.134   1.680
 1372TIP3    H2 4058   3.313   1.030   1.657
 1373TIP3   OH2 4059   4.838   6.678   1.714
 1373TIP3    H1 4060   4.793   6.621   1.777
 1373TIP3    H2 4061   4.930   6.674   1.741
 1374TIP3   OH2 4062   6.476   1.973   4.966
 1374TIP3    H1 4063   6.567   1.991   4.990
 1374TIP3    H2 4064   6.483   1.913   4.891
 1375TIP3   OH2 4065   6.294   2.018   4.511
 1375TIP3    H1 4066   6.307   1.998   4.418
 1375TIP3    H2 4067   6.295   2.114   4.515
 1376TIP3   OH2 4068   5.287   7.571   2.755
 1376TIP3    H1 4069   5.310   7.663   2.742
 1376TIP3    H2 4070   5.270   7.538   2.667
 1377TIP3   OH2 4071   8.191   4.160   5.184
 1377TIP3    H1 4072   8.225   4.137   5.098
 1377TIP3    H2 4073   8.173   4.254   5.179
 1378TIP3   OH2 4074   0.883   4.430   0.966
 1378TIP3    H1 4075   0.952   4.492   0.990
 1378TIP3    H2 4076   0.846   4.465   0.885
 1379TIP3   OH2 4077   2.237   4.867   6.539
 1379TIP3    H1 4078   2.268   4.908   6.620
 1379TIP3    H2 4079   2.252   4.934   6.472
 1380TIP3   OH2 4080   2.277   3.433   2.261
 1380TIP3    H1 4081   2.273   3.473   2.347
 1380TIP3    H2 4082   2.190   3.394   2.249
 1381TIP3   OH2 4083   0.431   6.269   1.805
 1381TIP3    H1 4084   0.429   6.185   1.760
 1381TIP3    H2 4085   0.351   6.313   1.778
 1382TIP3   OH2 4086   2.266   1.433   4.382
 1382TIP3    H1 4087   2.281   1.371   4.311
 1382TIP3    H2 4088   2.333   1.501   4.370
 1383TIP3   OH2 4089   4.547   1.302   6.700
 1383TIP3    H1 4090   4.609   1.370   6.674
 1383TIP3    H2 4091   4.550   1.238   6.630
 1384TIP3   OH2 4092   6.070   3.788   5.051
 1384TIP3    H1 4093   6.162   3.763   5.052
 1384TIP3    H2 4094   6.034   3.746   4.972
 1385TIP3   OH2 4095   4.002   5.480   5.094
 1385TIP3    H1 4096   3.946   5.547   5.131
 1385TIP3    H2 4097   4.085   5.525   5.076
 1386TIP3   OH2 4098   0.384   2.738   4.198
 1386TIP3    H1 4099   0.397   2.672   4.130
 1386TIP3    H2 4100   0.292   2.728   4.224
 1387TIP3   OH2 4101   3.577   5.757   1.859
 1387TIP3    H1 4102   3.605   5.829   1.917
 1387TIP3    H2 4103   3.646   5.752   1.793
 1388TIP3   OH2 4104   0.054   2.235   6.432
 1388TIP3    H1 4105   0.139   2.276   6.416
 1388TIP3    H2 4106  -0.003   2.273   6.365
 1389TIP3   OH2 4107   6.656   7.582   4.542
 1389TIP3    H1 4108   6.654   7.542   4.629
 1389TIP3    H2 4109   6.694   7.514   4.486
 1390TIP3   OH2 4110   2.406   4.866   0.955
 1390TIP3    H1 4111   2.487   4.841   0.999
 1390TIP3    H2 4112   2.409   4.962   0.951
 1391TIP3   OH2 4113   3.420  -0.015   0.377
 1391TIP3    H1 4114   3.329  -0.022   0.406
 1391TIP3    H2 4115   3.446   0.073   0.404
 1392TIP3   OH2 4116   0.791   3.015   6.638
 1392TIP3    H1 4117   0.803   3.104   6.607
 1392TIP3    H2 4118   0.716   3.020   6.697
 1393TIP3   OH2 4119   6.399   4.412   3.212
 1393TIP3    H1 4120   6.416   4.319   3.226
 1393TIP3    H2 4121   6.440   4.455   3.286
 1394TIP3   OH2 4122   0.460   0.017   1.005
 1394TIP3    H1 4123   0.480   0.036   1.097
 1394TIP3    H2 4124   0.379   0.065   0.988
 1395TIP3   OH2 4125   2.521   0.128   2.809
 1395TIP3    H1 4126   2.593   0.092   2.860
 1395TIP3    H2 4127   2.514   0.070   2.733
 1396TIP3   OH2 4128   7.286   2.920   1.772
 1396TIP3    H1 4129   7.323   2.840   1.735
 1396TIP3    H2 4130   7.359   2.981   1.777
 1397TIP3   OH2 4131   6.179   0.368   5.663
 1397TIP3    H1 4132   6.119   0.434   5.697
 1397TIP3    H2 4133   6.220   0.330   5.740
 1398TIP3   OH2 4134   5.644   0.078   6.156
 1398TIP3    H1 4135   5.633   0.048   6.066
 1398TIP3    H2 4136   5.665  -0.001   6.206
 1399TIP3   OH2 4137   6.969   1.390   3.375
 1399TIP3    H1 4138   7.016   1.468   3.405
 1399TIP3    H2 4139   7.017   1.361   3.298
 1400TIP3   OH2 4140   6.978   2.004   6.443
 1400TIP3    H1 4141   6.999   1.919   6.481
 1400TIP3    H2 4142   6.907   1.986   6.382
 1401TIP3   OH2 4143   4.241   3.493   3.135
 1401TIP3    H1 4144   4.249   3.404   3.100
 1401TIP3    H2 4145   4.156   3.524   3.104
 1402TIP3   OH2 4146   0.588   7.172   1.629
 1402TIP3    H1 4147   0.583   7.256   1.583
 1402TIP3    H2 4148   0.552   7.189   1.716
 1403TIP3   OH2 4149   0.155   3.830   0.294
 1403TIP3    H1 4150   0.146   3.766   0.365
 1403TIP3    H2 4151   0.084   3.892   0.309
 1404TIP3   OH2 4152   6.725   7.222   3.411
 1404TIP3    H1 4153   6.708   7.301   3.463
 1404TIP3    H2 4154   6.668   7.230   3.335
 1405TIP3   OH2 4155   2.455   7.432   5.658
 1405TIP3    H1 4156   2.474   7.359   5.598
 1405TIP3    H2 4157   2.402   7.492   5.605
 1406TIP3   OH2 4158   2.262   6.758   6.180
 1406TIP3    H1 4159   2.266   6.766   6.085
 1406TIP3    H2 4160   2.280   6.846   6.213
 1407TIP3   OH2 4161   7.263   0.932   6.573
 1407TIP3    H1 4162   7.296   0.966   6.656
 1407TIP3    H2 4163   7.326   0.864   6.549
 1408TIP3   OH2 4164   0.992   1.407   3.916
 1408TIP3    H1 4165   1.076   1.397   3.960
 1408TIP3    H2 4166   0.940   1.462   3.974
 1409TIP3   OH2 4167   8.092   5.081   3.168
 1409TIP3    H1 4168   8.013   5.030   3.150
 1409TIP3    H2 4169   8.084   5.106   3.260
 1410TIP3   OH2 4170   5.103   6.085   0.050
 1410TIP3    H1 4171   5.181   6.139   0.059
 1410TIP3    H2 4172   5.095   6.069  -0.044
 1411TIP3   OH2 4173   1.531   5.748   0.043
 1411TIP3    H1 4174   1.459   5.694   0.011
 1411TIP3    H2 4175   1.590   5.757  -0.032
 1412TIP3   OH2 4176   3.505   5.532   5.330
 1412TIP3    H1 4177   3.439   5.503   5.268
 1412TIP3    H2 4178   3.570   5.462   5.332
 1413TIP3   OH2 4179   8.198   7.901   2.467
 1413TIP3    H1 4180   8.155   7.875   2.385
 1413TIP3    H2 4181   8.141   7.970   2.502
 1414TIP3   OH2 4182   7.127   6.283   2.293
 1414TIP3    H1 4183   7.190   6.213   2.276
 1414TIP3    H2 4184   7.180   6.354   2.330
 1415TIP3   OH2 4185   6.064   6.973   0.910
 1415TIP3    H1 4186   6.072   6.932   0.824
 1415TIP3    H2 4187   5.977   7.014   0.910
 1416TIP3   OH2 4188   4.460   0.492   5.349
 1416TIP3    H1 4189   4.535   0.462   5.298
 1416TIP3    H2 4190   4.389   0.498   5.285
 1417TIP3   OH2 4191   3.030   5.835   2.247
 1417TIP3    H1 4192   3.114   5.826   2.202
 1417TIP3    H2 4193   3.042   5.789   2.330
 1418TIP3   OH2 4194   8.161   4.547   1.105
 1418TIP3    H1 4195   8.247   4.579   1.080
 1418TIP3    H2 4196   8.178   4.464   1.149
 1419TIP3   OH2 4197   5.920   1.737   2.318
 1419TIP3    H1 4198   5.925   1.806   2.384
 1419TIP3    H2 4199   5.878   1.664   2.363
 1420TIP3   OH2 4200   6.163   2.814   0.323
 1420TIP3    H1 4201   6.074   2.848   0.325
 1420TIP3    H2 4202   6.211   2.874   0.266
 1421TIP3   OH2 4203   7.570   1.779   3.514
 1421TIP3    H1 4204   7.647   1.737   3.554
 1421TIP3    H2 4205   7.565   1.864   3.556
 1422TIP3   OH2 4206   1.579   2.398   6.018
 1422TIP3    H1 4207   1.538   2.433   6.098
 1422TIP3    H2 4208   1.507   2.356   5.971
 1423TIP3   OH2 4209   4.217   4.975   6.269
 1423TIP3    H1 4210   4.294   5.011   6.313
 1423TIP3    H2 4211   4.231   4.994   6.176
 1424TIP3   OH2 4212   0.660   0.890   1.567
 1424TIP3    H1 4213   0.639   0.984   1.563
 1424TIP3    H2 4214   0.713   0.874   1.489
 1425TIP3   OH2 4215   2.187   7.544   3.447
 1425TIP3    H1 4216   2.145   7.613   3.395
 1425TIP3    H2 4217   2.134   7.537   3.526
 1426TIP3   OH2 4218   4.880   2.016   1.826
 1426TIP3    H1 4219   4.850   1.969   1.748
 1426TIP3    H2 4220   4.862   1.956   1.898
 1427TIP3   OH2 4221   3.700   2.540   3.083
 1427TIP3    H1 4222   3.623   2.483   3.093
 1427TIP3    H2 4223   3.764   2.503   3.145
 1428TIP3   OH2 4224   4.935   1.500   3.181
 1428TIP3    H1 4225   5.006   1.442   3.210
 1428TIP3    H2 4226   4.978   1.567   3.129
 1429TIP3   OH2 4227   7.363   5.976   5.762
 1429TIP3    H1 4228   7.302   5.919   5.810
 1429TIP3    H2 4229   7.310   6.012   5.690
 1430TIP3   OH2 4230   3.565   6.819   5.531
 1430TIP3    H1 4231   3.537   6.816   5.623
 1430TIP3    H2 4232   3.611   6.736   5.518
 1431TIP3   OH2 4233   2.454   2.818   6.050
 1431TIP3    H1 4234   2.501   2.771   6.119
 1431TIP3    H2 4235   2.488   2.908   6.056
 1432TIP3   OH2 4236   0.356   2.055   3.099
 1432TIP3    H1 4237   0.271   2.091   3.074
 1432TIP3    H2 4238   0.373   1.987   3.033
 1433TIP3   OH2 4239   5.772   5.742   0.735
 1433TIP3    H1 4240   5.720   5.663   0.721
 1433TIP3    H2 4241   5.786   5.745   0.830
 1434TIP3   OH2 4242   3.301   2.733   2.238
 1434TIP3    H1 4243   3.335   2.784   2.165
 1434TIP3    H2 4244   3.213   2.769   2.254
 1435TIP3   OH2 4245   2.696   0.152   3.956
 1435TIP3    H1 4246   2.791   0.149   3.953
 1435TIP3    H2 4247   2.671   0.083   4.017
 1436TIP3   OH2 4248   4.250   7.610   1.220
 1436TIP3    H1 4249   4.162   7.615   1.183
 1436TIP3    H2 4250   4.252   7.526   1.265
 1437TIP3   OH2 4251   7.667   4.316   4.758
 1437TIP3    H1 4252   7.605   4.250   4.790
 1437TIP3    H2 4253   7.623   4.399   4.773
 1438TIP3   OH2 4254   1.334   4.573   3.731
 1438TIP3    H1 4255   1.268   4.545   3.795
 1438TIP3    H2 4256   1.336   4.668   3.740
 1439TIP3   OH2 4257   7.939   3.305   1.468
 1439TIP3    H1 4258   7.957   3.211   1.472
 1439TIP3    H2 4259   8.001   3.345   1.528
 1440TIP3   OH2 4260   6.818   2.387   1.821
 1440TIP3    H1 4261   6.782   2.394   1.910
 1440TIP3    H2 4262   6.741   2.392   1.764
 1441TIP3   OH2 4263   6.590   3.306   3.469
 1441TIP3    H1 4264   6.620   3.334   3.383
 1441TIP3    H2 4265   6.656   3.243   3.498
 1442TIP3   OH2 4266   4.902   6.207   0.461
 1442TIP3    H1 4267   4.863   6.293   0.442
 1442TIP3    H2 4268   4.951   6.220   0.543
 1443TIP3   OH2 4269   5.881   1.712   5.825
 1443TIP3    H1 4270   5.962   1.710   5.877
 1443TIP3    H2 4271   5.895   1.782   5.762
 1444TIP3   OH2 4272   7.342   7.253   1.258
 1444TIP3    H1 4273   7.366   7.297   1.176
 1444TIP3    H2 4274   7.247   7.255   1.259
 1445TIP3   OH2 4275   1.809   4.121   0.331
 1445TIP3    H1 4276   1.902   4.125   0.353
 1445TIP3    H2 4277   1.788   4.208   0.297
 1446TIP3   OH2 4278   1.605   7.527   2.161
 1446TIP3    H1 4279   1.686   7.477   2.154
 1446TIP3    H2 4280   1.538   7.462   2.182
 1447TIP3   OH2 4281   8.150   5.674   1.720
 1447TIP3    H1 4282   8.148   5.595   1.773
 1447TIP3    H2 4283   8.143   5.746   1.783
 1448TIP3   OH2 4284   2.779   7.548   2.199
 1448TIP3    H1 4285   2.733   7.465   2.214
 1448TIP3    H2 4286   2.856   7.525   2.148
 1449TIP3   OH2 4287   4.616   7.428   4.850
 1449TIP3    H1 4288   4.680   7.494   4.874
 1449TIP3    H2 4289   4.600   7.443   4.757
 1450TIP3   OH2 4290   0.642   2.381   5.380
 1450TIP3    H1 4291   0.628   2.423   5.465
 1450TIP3    H2 4292   0.679   2.295   5.401
 1451TIP3   OH2 4293   5.574   2.659   2.974
 1451TIP3    H1 4294   5.644   2.700   2.924
 1451TIP3    H2 4295   5.534   2.731   3.023
 1452TIP3   OH2 4296   6.820   7.510   6.796
 1452TIP3    H1 4297   6.864   7.572   6.738
 1452TIP3    H2 4298   6.744   7.558   6.829
 1453TIP3   OH2 4299   6.776   3.503   5.967
 1453TIP3    H1 4300   6.808   3.436   6.028
 1453TIP3    H2 4301   6.707   3.548   6.015
 1454TIP3   OH2 4302   8.094   1.440   6.815
 1454TIP3    H1 4303   8.088   1.529   6.780
 1454TIP3    H2 4304   8.004   1.417   6.839
 1455TIP3   OH2 4305   2.952   4.224   4.380
 1455TIP3    H1 4306   2.901   4.215   4.461
 1455TIP3    H2 4307   2.979   4.135   4.359
 1456TIP3   OH2 4308   6.827   6.455   6.294
 1456TIP3    H1 4309   6.754   6.395   6.312
 1456TIP3    H2 4310   6.895   6.399   6.256
 1457TIP3   OH2 4311   0.226   6.637   6.564
 1457TIP3    H1 4312   0.140   6.673   6.587
 1457TIP3    H2 4313   0.267   6.617   6.649
 1458TIP3   OH2 4314   0.043   0.259   2.639
 1458TIP3    H1 4315   0.029   0.204   2.716
 1458TIP3    H2 4316   0.055   0.347   2.675
 1459TIP3   OH2 4317   5.949   6.893   3.238
 1459TIP3    H1 4318   5.959   6.933   3.152
 1459TIP3    H2 4319   5.891   6.953   3.285
 1460TIP3   OH2 4320   0.692   6.958   1.400
 1460TIP3    H1 4321   0.657   7.044   1.425
 1460TIP3    H2 4322   0.617   6.914   1.359
 1461TIP3   OH2 4323   6.125   3.881   2.784
 1461TIP3    H1 4324   6.114   3.964   2.737
 1461TIP3    H2 4325   6.042   3.867   2.828
 1462TIP3   OH2 4326   6.791   1.294   3.783
 1462TIP3    H1 4327   6.701   1.266   3.800
 1462TIP3    H2 4328   6.782   1.377   3.737
 1463TIP3   OH2 4329   2.318   4.260   6.074
 1463TIP3    H1 4330   2.329   4.221   6.160
 1463TIP3    H2 4331   2.396   4.233   6.025
 1464TIP3   OH2 4332   5.408   0.850   3.112
 1464TIP3    H1 4333   5.407   0.841   3.208
 1464TIP3    H2 4334   5.425   0.762   3.080
 1465TIP3   OH2 4335   8.124   3.665   4.312
 1465TIP3    H1 4336   8.159   3.583   4.348
 1465TIP3    H2 4337   8.059   3.693   4.376
 1466TIP3   OH2 4338   5.934   2.005   5.400
 1466TIP3    H1 4339   5.911   2.007   5.308
 1466TIP3    H2 4340   5.967   2.093   5.419
 1467TIP3   OH2 4341   1.372   3.389   0.811
 1467TIP3    H1 4342   1.413   3.435   0.738
 1467TIP3    H2 4343   1.281   3.419   0.810
 1468TIP3   OH2 4344   0.226   2.089   1.887
 1468TIP3    H1 4345   0.151   2.147   1.879
 1468TIP3    H2 4346   0.268   2.092   1.801
 1469TIP3   OH2 4347   4.209   1.505   5.252
 1469TIP3    H1 4348   4.174   1.587   5.218
 1469TIP3    H2 4349   4.279   1.482   5.190
 1470TIP3   OH2 4350   7.298   2.621   2.092
 1470TIP3    H1 4351   7.236   2.692   2.110
 1470TIP3    H2 4352   7.244   2.542   2.089
 1471TIP3   OH2 4353   5.882   5.240   5.565
 1471TIP3    H1 4354   5.832   5.161   5.583
 1471TIP3    H2 4355   5.944   5.247   5.638
 1472TIP3   OH2 4356   0.105   4.119   2.359
 1472TIP3    H1 4357   0.184   4.100   2.409
 1472TIP3    H2 4358   0.129   4.191   2.301
 1473TIP3   OH2 4359   1.605   6.136   6.809
 1473TIP3    H1 4360   1.509   6.134   6.813
 1473TIP3    H2 4361   1.632   6.175   6.892
 1474TIP3   OH2 4362   0.359   3.610   6.552
 1474TIP3    H1 4363   0.271   3.631   6.518
 1474TIP3    H2 4364   0.344   3.540   6.615
 1475TIP3   OH2 4365   6.705   2.129   0.683
 1475TIP3    H1 4366   6.785   2.087   0.713
 1475TIP3    H2 4367   6.693   2.096   0.593
 1476TIP3   OH2 4368   3.011   1.237   5.312
 1476TIP3    H1 4369   2.931   1.287   5.294
 1476TIP3    H2 4370   3.069   1.258   5.239
 1477TIP3   OH2 4371   6.671   6.277   3.484
 1477TIP3    H1 4372   6.675   6.328   3.565
 1477TIP3    H2 4373   6.686   6.187   3.512
 1478TIP3   OH2 4374   1.623   2.072   0.439
 1478TIP3    H1 4375   1.642   1.985   0.404
 1478TIP3    H2 4376   1.596   2.123   0.362
 1479TIP3   OH2 4377   4.671   3.560   0.632
 1479TIP3    H1 4378   4.645   3.652   0.642
 1479TIP3    H2 4379   4.740   3.548   0.698
 1480TIP3   OH2 4380   4.871   7.442   1.618
 1480TIP3    H1 4381   4.833   7.379   1.678
 1480TIP3    H2 4382   4.884   7.393   1.537
 1481TIP3   OH2 4383   1.393   3.020   4.369
 1481TIP3    H1 4384   1.361   2.957   4.304
 1481TIP3    H2 4385   1.368   3.105   4.334
 1482TIP3   OH2 4386   1.635   6.518   0.499
 1482TIP3    H1 4387   1.585   6.481   0.427
 1482TIP3    H2 4388   1.616   6.612   0.495
 1483TIP3   OH2 4389   5.111   2.932   3.708
 1483TIP3    H1 4390   5.018   2.925   3.686
 1483TIP3    H2 4391   5.136   3.019   3.678
 1484TIP3   OH2 4392   7.472   6.328   2.037
 1484TIP3    H1 4393   7.403   6.261   2.044
 1484TIP3    H2 4394   7.520   6.321   2.120
 1485TIP3   OH2 4395   0.852   7.602   0.079
 1485TIP3    H1 4396   0.859   7.518   0.124
 1485TIP3    H2 4397   0.779   7.592   0.018
 1486TIP3   OH2 4398   6.705   5.686   0.869
 1486TIP3    H1 4399   6.650   5.619   0.828
 1486TIP3    H2 4400   6.650   5.764   0.872
 1487TIP3   OH2 4401   2.617   6.991   0.986
 1487TIP3    H1 4402   2.527   6.957   0.980
 1487TIP3    H2 4403   2.665   6.941   0.920
 1488TIP3   OH2 4404   5.022   6.126   2.116
 1488TIP3    H1 4405   5.004   6.049   2.062
 1488TIP3    H2 4406   5.014   6.200   2.056
 1489TIP3   OH2 4407   5.303   2.621   6.609
 1489TIP3    H1 4408   5.246   2.548   6.631
 1489TIP3    H2 4409   5.381   2.608   6.663
 1490TIP3   OH2 4410   7.675   1.361   6.669
 1490TIP3    H1 4411   7.637   1.328   6.587
 1490TIP3    H2 4412   7.669   1.456   6.662
 1491TIP3   OH2 4413   6.072   1.371   6.739
 1491TIP3    H1 4414   6.072   1.465   6.758
 1491TIP3    H2 4415   5.983   1.343   6.759
 1492TIP3   OH2 4416   2.081   7.506   6.771
 1492TIP3    H1 4417   2.014   7.457   6.817
 1492TIP3    H2 4418   2.154   7.445   6.761
 1493TIP3   OH2 4419   2.060   2.739   1.239
 1493TIP3    H1 4420   2.106   2.663   1.204
 1493TIP3    H2 4421   2.081   2.741   1.332
 1494TIP3   OH2 4422   5.619   2.541   5.844
 1494TIP3    H1 4423   5.714   2.542   5.837
 1494TIP3    H2 4424   5.589   2.555   5.754
 1495TIP3   OH2 4425   4.968   3.801   4.256
 1495TIP3    H1 4426   5.013   3.875   4.214
 1495TIP3    H2 4427   4.981   3.816   4.350
 1496TIP3   OH2 4428   5.457   2.509   6.236
 1496TIP3    H1 4429   5.436   2.438   6.175
 1496TIP3    H2 4430   5.552   2.509   6.240
 1497TIP3   OH2 4431   0.677   0.604   2.687
 1497TIP3    H1 4432   0.747   0.544   2.660
 1497TIP3    H2 4433   0.720   0.690   2.692
 1498TIP3   OH2 4434   7.868   5.525   2.255
 1498TIP3    H1 4435   7.918   5.471   2.317
 1498TIP3    H2 4436   7.810   5.577   2.310
 1499TIP3   OH2 4437   3.078   7.214   2.450
 1499TIP3    H1 4438   3.102   7.307   2.455
 1499TIP3    H2 4439   3.089   7.192   2.357
 1500TIP3   OH2 4440   5.683   7.129   3.243
 1500TIP3    H1 4441   5.768   7.172   3.250
 1500TIP3    H2 4442   5.664   7.130   3.149
 1501TIP3   OH2 4443   6.306   2.744   4.799
 1501TIP3    H1 4444   6.338   2.658   4.773
 1501TIP3    H2 4445   6.233   2.725   4.858
 1502TIP3   OH2 4446   4.560   1.807   0.060
 1502TIP3    H1 4447   4.623   1.825  -0.010
 1502TIP3    H2 4448   4.551   1.712   0.061
 1503TIP3   OH2 4449   5.749   0.315   4.176
 1503TIP3    H1 4450   5.815   0.384   4.188
 1503TIP3    H2 4451   5.793   0.249   4.123
 1504TIP3   OH2 4452   5.015   4.643   6.512
 1504TIP3    H1 4453   4.937   4.590   6.531
 1504TIP3    H2 4454   5.014   4.652   6.417
 1505TIP3   OH2 4455   1.638   3.875   3.134
 1505TIP3    H1 4456   1.592   3.794   3.155
 1505TIP3    H2 4457   1.680   3.901   3.217
 1506TIP3   OH2 4458   4.900   4.777   6.743
 1506TIP3    H1 4459   4.952   4.819   6.811
 1506TIP3    H2 4460   4.958   4.773   6.667
 1507TIP3   OH2 4461   8.129   5.702   5.876
 1507TIP3    H1 4462   8.163   5.622   5.838
 1507TIP3    H2 4463   8.207   5.749   5.907
 1508TIP3   OH2 4464   7.127   5.229   0.419
 1508TIP3    H1 4465   7.151   5.313   0.458
 1508TIP3    H2 4466   7.133   5.243   0.325
 1509TIP3   OH2 4467   7.009   0.035   3.619
 1509TIP3    H1 4468   6.982  -0.056   3.632
 1509TIP3    H2 4469   7.072   0.031   3.547
 1510TIP3   OH2 4470   6.730   1.338   1.030
 1510TIP3    H1 4471   6.660   1.361   1.092
 1510TIP3    H2 4472   6.780   1.418   1.019
 1511TIP3   OH2 4473   3.337   2.724   5.266
 1511TIP3    H1 4474   3.332   2.629   5.271
 1511TIP3    H2 4475   3.431   2.743   5.263
 1512TIP3   OH2 4476   4.757   3.280   2.559
 1512TIP3    H1 4477   4.713   3.290   2.474
 1512TIP3    H2 4478   4.811   3.202   2.549
 1513TIP3   OH2 4479   6.007   5.030   2.941
 1513TIP3    H1 4480   6.002   5.025   2.846
 1513TIP3    H2 4481   6.001   5.123   2.962
 1514TIP3   OH2 4482   1.160   6.856   5.389
 1514TIP3    H1 4483   1.227   6.924   5.398
 1514TIP3    H2 4484   1.096   6.892   5.328
 1515TIP3   OH2 4485   5.053   2.748   0.120
 1515TIP3    H1 4486   4.977   2.760   0.063
 1515TIP3    H2 4487   5.128   2.775   0.066
 1516TIP3   OH2 4488   3.530   4.846   1.516
 1516TIP3    H1 4489   3.563   4.757   1.529
 1516TIP3    H2 4490   3.460   4.836   1.451
 1517TIP3   OH2 4491   7.435   6.059   3.845
 1517TIP3    H1 4492   7.397   6.053   3.933
 1517TIP3    H2 4493   7.378   6.004   3.791
 1518TIP3   OH2 4494   3.261   3.794   2.952
 1518TIP3    H1 4495   3.190   3.854   2.927
 1518TIP3    H2 4496   3.256   3.723   2.887
 1519TIP3   OH2 4497   0.615   4.871   3.010
 1519TIP3    H1 4498   0.520   4.869   3.000
 1519TIP3    H2 4499   0.640   4.779   3.015
 1520TIP3   OH2 4500   5.673   4.755   6.559
 1520TIP3    H1 4501   5.622   4.771   6.480
 1520TIP3    H2 4502   5.703   4.665   6.551
 1521TIP3   OH2 4503   5.608   0.678   6.199
 1521TIP3    H1 4504   5.602   0.582   6.192
 1521TIP3    H2 4505   5.628   0.694   6.291
 1522TIP3   OH2 4506   6.501   2.663   3.138
 1522TIP3    H1 4507   6.476   2.726   3.205
 1522TIP3    H2 4508   6.588   2.690   3.110
 1523TIP3   OH2 4509   6.697   1.519   5.904
 1523TIP3    H1 4510   6.738   1.440   5.868
 1523TIP3    H2 4511   6.757   1.590   5.882
 1524TIP3   OH2 4512   5.058   3.832   5.171
 1524TIP3    H1 4513   4.999   3.779   5.225
 1524TIP3    H2 4514   5.043   3.801   5.081
 1525TIP3   OH2 4515   1.691   0.188   5.991
 1525TIP3    H1 4516   1.718   0.195   6.083
 1525TIP3    H2 4517   1.608   0.235   5.987
 1526TIP3   OH2 4518   4.515   3.599   1.959
 1526TIP3    H1 4519   4.505   3.507   1.980
 1526TIP3    H2 4520   4.447   3.643   2.010
 1527TIP3   OH2 4521   5.164   5.967   3.213
 1527TIP3    H1 4522   5.192   5.950   3.303
 1527TIP3    H2 4523   5.229   5.922   3.159
 1528TIP3   OH2 4524   8.150   5.275   3.971
 1528TIP3    H1 4525   8.168   5.350   4.029
 1528TIP3    H2 4526   8.110   5.315   3.893
 1529TIP3   OH2 4527   5.074   3.597   2.664
 1529TIP3    H1 4528   5.000   3.547   2.700
 1529TIP3    H2 4529   5.056   3.688   2.689
 1530TIP3   OH2 4530   2.308   3.916   5.888
 1530TIP3    H1 4531   2.369   3.960   5.947
 1530TIP3    H2 4532   2.340   3.825   5.885
 1531TIP3   OH2 4533   0.957   6.657   4.983
 1531TIP3    H1 4534   0.971   6.581   4.927
 1531TIP3    H2 4535   0.918   6.723   4.926
 1532TIP3   OH2 4536   0.058   2.951   6.606
 1532TIP3    H1 4537   0.107   2.869   6.604
 1532TIP3    H2 4538  -0.032   2.925   6.588
 1533TIP3   OH2 4539   2.141   7.329   3.050
 1533TIP3    H1 4540   2.194   7.387   3.104
 1533TIP3    H2 4541   2.152   7.242   3.090
 1534TIP3   OH2 4542   3.325   0.825   2.866
 1534TIP3    H1 4543   3.255   0.871   2.913
 1534TIP3    H2 4544   3.312   0.850   2.775
 1535TIP3   OH2 4545   1.344   0.329   3.875
 1535TIP3    H1 4546   1.419   0.353   3.930
 1535TIP3    H2 4547   1.379   0.261   3.817
 1536TIP3   OH2 4548   1.220   3.040   3.643
 1536TIP3    H1 4549   1.137   3.047   3.595
 1536TIP3    H2 4550   1.195   3.046   3.735
 1537TIP3   OH2 4551   3.519   0.186   4.505
 1537TIP3    H1 4552   3.573   0.153   4.577
 1537TIP3    H2 4553   3.436   0.140   4.514
 1538TIP3   OH2 4554   7.741   6.344   1.344
 1538TIP3    H1 4555   7.806   6.292   1.391
 1538TIP3    H2 4556   7.729   6.299   1.261
 1539TIP3   OH2 4557   7.145   2.910   0.296
 1539TIP3    H1 4558   7.206   2.836   0.301
 1539TIP3    H2 4559   7.065   2.878   0.337
 1540TIP3   OH2 4560   1.517   1.044   2.474
 1540TIP3    H1 4561   1.553   1.033   2.386
 1540TIP3    H2 4562   1.586   1.014   2.533
 1541TIP3   OH2 4563   6.366   0.040   1.882
 1541TIP3    H1 4564   6.355   0.072   1.972
 1541TIP3    H2 4565   6.298   0.085   1.832
 1542TIP3   OH2 4566   5.301   6.564   1.896
 1542TIP3    H1 4567   5.299   6.486   1.840
 1542TIP3    H2 4568   5.372   6.617   1.860
 1543TIP3   OH2 4569   1.317   2.392   1.917
 1543TIP3    H1 4570   1.274   2.467   1.958
 1543TIP3    H2 4571   1.281   2.388   1.829
 1544TIP3   OH2 4572   2.756   5.373   3.613
 1544TIP3    H1 4573   2.837   5.417   3.637
 1544TIP3    H2 4574   2.778   5.321   3.536
 1545TIP3   OH2 4575   6.478   2.406   4.207
 1545TIP3    H1 4576   6.449   2.456   4.131
 1545TIP3    H2 4577   6.571   2.429   4.217
 1546TIP3   OH2 4578   1.685   2.891   6.728
 1546TIP3    H1 4579   1.688   2.896   6.632
 1546TIP3    H2 4580   1.611   2.947   6.752
 1547TIP3   OH2 4581   4.922   1.721   1.684
 1547TIP3    H1 4582   4.979   1.789   1.648
 1547TIP3    H2 4583   4.916   1.743   1.777
 1548TIP3   OH2 4584   3.597   2.975   2.152
 1548TIP3    H1 4585   3.506   2.950   2.136
 1548TIP3    H2 4586   3.633   2.902   2.203
 1549TIP3   OH2 4587   7.325   6.993   0.703
 1549TIP3    H1 4588   7.381   6.930   0.658
 1549TIP3    H2 4589   7.352   6.988   0.795
 1550TIP3   OH2 4590   4.619   0.870   5.532
 1550TIP3    H1 4591   4.626   0.963   5.551
 1550TIP3    H2 4592   4.624   0.864   5.437
 1551TIP3   OH2 4593   4.438   0.760   0.928
 1551TIP3    H1 4594   4.434   0.669   0.958
 1551TIP3    H2 4595   4.452   0.754   0.834
 1552TIP3   OH2 4596   0.798   0.782   3.537
 1552TIP3    H1 4597   0.727   0.845   3.521
 1552TIP3    H2 4598   0.872   0.837   3.564
 1553TIP3   OH2 4599   5.526   4.014   4.724
 1553TIP3    H1 4600   5.592   4.081   4.742
 1553TIP3    H2 4601   5.470   4.016   4.802
 1554TIP3   OH2 4602   6.789   0.054   4.421
 1554TIP3    H1 4603   6.705   0.095   4.444
 1554TIP3    H2 4604   6.853   0.124   4.429
 1555TIP3   OH2 4605   2.225   0.902   6.112
 1555TIP3    H1 4606   2.298   0.955   6.144
 1555TIP3    H2 4607   2.251   0.811   6.129
 1556TIP3   OH2 4608   5.033   5.920   1.936
 1556TIP3    H1 4609   5.089   5.971   1.877
 1556TIP3    H2 4610   4.982   5.863   1.878
 1557TIP3   OH2 4611   6.752  -0.032   2.731
 1557TIP3    H1 4612   6.710   0.045   2.691
 1557TIP3    H2 4613   6.843  -0.004   2.745
 1558TIP3   OH2 4614   3.971   0.396   2.479
 1558TIP3    H1 4615   3.955   0.483   2.516
 1558TIP3    H2 4616   4.056   0.370   2.514
 1559TIP3   OH2 4617   3.494   1.743   1.958
 1559TIP3    H1 4618   3.501   1.801   2.034
 1559TIP3    H2 4619   3.430   1.785   1.901
 1560TIP3   OH2 4620   2.086   3.274   1.020
 1560TIP3    H1 4621   2.078   3.367   1.043
 1560TIP3    H2 4622   2.007   3.255   0.969
 1561TIP3   OH2 4623   8.144   4.225   3.169
 1561TIP3    H1 4624   8.075   4.247   3.107
 1561TIP3    H2 4625   8.110   4.253   3.254
 1562TIP3   OH2 4626   2.283   2.056   1.792
 1562TIP3    H1 4627   2.236   1.972   1.789
 1562TIP3    H2 4628   2.289   2.075   1.886
 1563TIP3   OH2 4629   3.045   5.276   4.902
 1563TIP3    H1 4630   3.003   5.329   4.970
 1563TIP3    H2 4631   2.990   5.287   4.825
 1564TIP3   OH2 4632   6.319   3.052   1.530
 1564TIP3    H1 4633   6.334   3.112   1.603
 1564TIP3    H2 4634   6.338   3.104   1.452
 1565TIP3   OH2 4635   5.668   6.821   5.237
 1565TIP3    H1 4636   5.618   6.853   5.312
 1565TIP3    H2 4637   5.760   6.835   5.263
 1566TIP3   OH2 4638   8.208   6.511   5.477
 1566TIP3    H1 4639   8.183   6.420   5.460
 1566TIP3    H2 4640   8.146   6.540   5.544
 1567TIP3   OH2 4641   1.947   4.302   1.186
 1567TIP3    H1 4642   2.038   4.311   1.216
 1567TIP3    H2 4643   1.940   4.361   1.111
 1568TIP3   OH2 4644   1.321   0.132   6.009
 1568TIP3    H1 4645   1.334   0.201   6.074
 1568TIP3    H2 4646   1.323   0.177   5.925
 1569TIP3   OH2 4647   5.964   0.944   2.105
 1569TIP3    H1 4648   6.030   0.993   2.056
 1569TIP3    H2 4649   6.006   0.861   2.124
 1570TIP3   OH2 4650   7.286   5.822   3.095
 1570TIP3    H1 4651   7.245   5.803   3.011
 1570TIP3    H2 4652   7.379   5.834   3.074
 1571TIP3   OH2 4653   7.380   0.383   6.835
 1571TIP3    H1 4654   7.374   0.389   6.930
 1571TIP3    H2 4655   7.427   0.462   6.808
 1572TIP3   OH2 4656   5.304   0.536   1.874
 1572TIP3    H1 4657   5.391   0.501   1.892
 1572TIP3    H2 4658   5.271   0.482   1.803
 1573TIP3   OH2 4659   0.877   5.992   2.681
 1573TIP3    H1 4660   0.952   5.956   2.727
 1573TIP3    H2 4661   0.859   6.076   2.724
 1574TIP3   OH2 4662   4.630   7.060   0.884
 1574TIP3    H1 4663   4.563   7.031   0.822
 1574TIP3    H2 4664   4.642   6.985   0.942
 1575TIP3   OH2 4665   4.291   6.663   2.928
 1575TIP3    H1 4666   4.283   6.755   2.952
 1575TIP3    H2 4667   4.227   6.619   2.984
 1576TIP3   OH2 4668   7.632   0.805   2.017
 1576TIP3    H1 4669   7.567   0.761   2.072
 1576TIP3    H2 4670   7.594   0.802   1.929
 1577TIP3   OH2 4671   7.822   2.603   1.924
 1577TIP3    H1 4672   7.764   2.530   1.946
 1577TIP3    H2 4673   7.764   2.673   1.895
 1578TIP3   OH2 4674   1.765   7.158   0.052
 1578TIP3    H1 4675   1.677   7.172   0.016
 1578TIP3    H2 4676   1.769   7.065   0.071
 1579TIP3   OH2 4677   6.635   6.272   5.586
 1579TIP3    H1 4678   6.683   6.348   5.552
 1579TIP3    H2 4679   6.555   6.269   5.535
 1580TIP3   OH2 4680   2.895   1.160   6.084
 1580TIP3    H1 4681   2.880   1.188   5.993
 1580TIP3    H2 4682   2.814   1.182   6.130
 1581TIP3   OH2 4683   7.233   4.047   6.697
 1581TIP3    H1 4684   7.232   3.979   6.630
 1581TIP3    H2 4685   7.166   4.020   6.759
 1582TIP3   OH2 4686   7.977   4.083   0.967
 1582TIP3    H1 4687   8.004   4.174   0.980
 1582TIP3    H2 4688   8.042   4.048   0.906
 1583TIP3   OH2 4689   7.742   3.653   5.291
 1583TIP3    H1 4690   7.742   3.616   5.202
 1583TIP3    H2 4691   7.674   3.604   5.337
 1584TIP3   OH2 4692   3.264   4.574   5.259
 1584TIP3    H1 4693   3.224   4.503   5.308
 1584TIP3    H2 4694   3.334   4.532   5.209
 1585TIP3   OH2 4695   4.122   0.128   0.852
 1585TIP3    H1 4696   4.140   0.044   0.893
 1585TIP3    H2 4697   4.049   0.111   0.793
 1586TIP3   OH2 4698   1.966   1.025   1.565
 1586TIP3    H1 4699   1.990   1.055   1.477
 1586TIP3    H2 4700   1.906   0.952   1.550
 1587TIP3   OH2 4701   1.801   3.822   1.608
 1587TIP3    H1 4702   1.834   3.821   1.519
 1587TIP3    H2 4703   1.731   3.757   1.608
 1588TIP3   OH2 4704   3.104   6.395   1.004
 1588TIP3    H1 4705   3.125   6.434   0.919
 1588TIP3    H2 4706   3.012   6.370   0.997
 1589TIP3   OH2 4707   5.229   6.556   6.531
 1589TIP3    H1 4708   5.269   6.544   6.445
 1589TIP3    H2 4709   5.233   6.651   6.547
 1590TIP3   OH2 4710   7.168   4.205   0.526
 1590TIP3    H1 4711   7.197   4.133   0.471
 1590TIP3    H2 4712   7.133   4.270   0.465
 1591TIP3   OH2 4713   8.045   6.309   3.549
 1591TIP3    H1 4714   7.969   6.255   3.573
 1591TIP3    H2 4715   8.119   6.249   3.552
 1592TIP3   OH2 4716   0.095   6.453   5.501
 1592TIP3    H1 4717   0.015   6.487   5.459
 1592TIP3    H2 4718   0.072   6.363   5.526
 1593TIP3   OH2 4719   3.220   3.321   1.516
 1593TIP3    H1 4720   3.286   3.390   1.524
 1593TIP3    H2 4721   3.182   3.334   1.429
 1594TIP3   OH2 4722   6.962   5.510   5.167
 1594TIP3    H1 4723   6.996   5.596   5.144
 1594TIP3    H2 4724   7.039   5.462   5.197
 1595TIP3   OH2 4725   6.265   4.346   6.185
 1595TIP3    H1 4726   6.328   4.277   6.164
 1595TIP3    H2 4727   6.187   4.300   6.215
 1596TIP3   OH2 4728   4.471   4.539   3.743
 1596TIP3    H1 4729   4.417   4.480   3.797
 1596TIP3    H2 4730   4.412   4.611   3.720
 1597TIP3   OH2 4731   4.167   3.909   0.241
 1597TIP3    H1 4732   4.182   3.944   0.152
 1597TIP3    H2 4733   4.231   3.838   0.250
 1598TIP3   OH2 4734   6.093   7.100   4.231
 1598TIP3    H1 4735   6.102   7.175   4.289
 1598TIP3    H2 4736   6.017   7.052   4.265
 1599TIP3   OH2 4737   6.750   5.737   6.053
 1599TIP3    H1 4738   6.668   5.709   6.012
 1599TIP3    H2 4739   6.750   5.832   6.043
 1600TIP3   OH2 4740   5.807   5.758   1.833
 1600TIP3    H1 4741   5.831   5.803   1.914
 1600TIP3    H2 4742   5.794   5.667   1.858
 1601TIP3   OH2 4743   3.649   1.611   5.274
 1601TIP3    H1 4744   3.650   1.650   5.362
 1601TIP3    H2 4745   3.703   1.670   5.221
 1602TIP3   OH2 4746   5.854   2.301   3.501
 1602TIP3    H1 4747   5.810   2.338   3.425
 1602TIP3    H2 4748   5.790   2.243   3.541
 1603TIP3   OH2 4749   7.655   0.083   1.889
 1603TIP3    H1 4750   7.644  -0.012   1.898
 1603TIP3    H2 4751   7.582   0.110   1.833
 1604TIP3   OH2 4752   5.649   3.646   3.561
 1604TIP3    H1 4753   5.654   3.742   3.564
 1604TIP3    H2 4754   5.577   3.624   3.620
 1605TIP3   OH2 4755   3.747   5.593   3.628
 1605TIP3    H1 4756   3.689   5.655   3.583
 1605TIP3    H2 4757   3.773   5.639   3.708
 1606TIP3   OH2 4758   0.528   4.821   1.641
 1606TIP3    H1 4759   0.465   4.890   1.621
 1606TIP3    H2 4760   0.514   4.802   1.734
 1607TIP3   OH2 4761   4.050   7.414   4.166
 1607TIP3    H1 4762   4.106   7.462   4.106
 1607TIP3    H2 4763   3.993   7.481   4.204
 1608TIP3   OH2 4764   4.188   1.901   4.632
 1608TIP3    H1 4765   4.136   1.980   4.645
 1608TIP3    H2 4766   4.126   1.836   4.598
 1609TIP3   OH2 4767   4.128   4.100   5.026
 1609TIP3    H1 4768   4.122   4.154   5.105
 1609TIP3    H2 4769   4.048   4.119   4.978
 1610TIP3   OH2 4770   5.845   4.203   2.720
 1610TIP3    H1 4771   5.891   4.171   2.797
 1610TIP3    H2 4772   5.808   4.125   2.680
 1611TIP3   OH2 4773   1.956   7.278   5.862
 1611TIP3    H1 4774   1.989   7.354   5.813
 1611TIP3    H2 4775   1.955   7.308   5.953
 1612TIP3   OH2 4776   3.466   1.181   4.761
 1612TIP3    H1 4777   3.551   1.212   4.731
 1612TIP3    H2 4778   3.403   1.222   4.702
 1613TIP3   OH2 4779   0.912   6.552   4.569
 1613TIP3    H1 4780   0.836   6.512   4.527
 1613TIP3    H2 4781   0.922   6.637   4.527
 1614TIP3   OH2 4782   2.983   1.276   6.411
 1614TIP3    H1 4783   3.074   1.267   6.440
 1614TIP3    H2 4784   2.978   1.365   6.376
 1615TIP3   OH2 4785   4.668   3.512   1.505
 1615TIP3    H1 4786   4.751   3.559   1.509
 1615TIP3    H2 4787   4.690   3.422   1.530
 1616TIP3   OH2 4788   1.319   7.575   6.337
 1616TIP3    H1 4789   1.257   7.513   6.375
 1616TIP3    H2 4790   1.397   7.523   6.318
 1617TIP3   OH2 4791   6.325   3.778   4.134
 1617TIP3    H1 4792   6.326   3.704   4.194
 1617TIP3    H2 4793   6.358   3.743   4.052
 1618TIP3   OH2 4794   3.970   3.757   5.832
 1618TIP3    H1 4795   4.039   3.699   5.864
 1618TIP3    H2 4796   3.979   3.755   5.737
 1619TIP3   OH2 4797   7.696   1.751   4.075
 1619TIP3    H1 4798   7.612   1.734   4.033
 1619TIP3    H2 4799   7.753   1.680   4.043
 1620TIP3   OH2 4800   0.903   0.612   2.981
 1620TIP3    H1 4801   0.849   0.557   3.038
 1620TIP3    H2 4802   0.904   0.698   3.024
 1621TIP3   OH2 4803   7.258   7.015   0.309
 1621TIP3    H1 4804   7.169   7.045   0.287
 1621TIP3    H2 4805   7.286   7.072   0.381
 1622TIP3   OH2 4806   4.910   4.289   3.852
 1622TIP3    H1 4807   4.828   4.338   3.850
 1622TIP3    H2 4808   4.888   4.202   3.818
 1623TIP3   OH2 4809   6.446   0.972   1.452
 1623TIP3    H1 4810   6.357   1.002   1.434
 1623TIP3    H2 4811   6.448   0.882   1.419
 1624TIP3   OH2 4812   0.437   0.572   5.956
 1624TIP3    H1 4813   0.471   0.553   5.869
 1624TIP3    H2 4814   0.421   0.667   5.956
 1625TIP3   OH2 4815   1.106   0.975   4.052
 1625TIP3    H1 4816   1.168   0.946   4.118
 1625TIP3    H2 4817   1.022   0.980   4.097
 1626TIP3   OH2 4818   5.761   2.421   4.496
 1626TIP3    H1 4819   5.833   2.414   4.434
 1626TIP3    H2 4820   5.767   2.341   4.549
 1627TIP3   OH2 4821   1.734   7.490   4.133
 1627TIP3    H1 4822   1.652   7.513   4.176
 1627TIP3    H2 4823   1.729   7.531   4.047
 1628TIP3   OH2 4824   0.180   0.967   5.600
 1628TIP3    H1 4825   0.111   1.031   5.580
 1628TIP3    H2 4826   0.165   0.943   5.692
 1629TIP3   OH2 4827   3.900   3.774   0.017
 1629TIP3    H1 4828   3.944   3.859   0.026
 1629TIP3    H2 4829   3.829   3.777   0.081
 1630TIP3   OH2 4830   3.022   4.782   2.861
 1630TIP3    H1 4831   2.942   4.782   2.809
 1630TIP3    H2 4832   3.039   4.874   2.880
 1631TIP3   OH2 4833   3.026   4.105   0.745
 1631TIP3    H1 4834   2.949   4.158   0.724
 1631TIP3    H2 4835   3.091   4.169   0.774
 1632TIP3   OH2 4836   4.038   5.492   0.507
 1632TIP3    H1 4837   4.127   5.526   0.500
 1632TIP3    H2 4838   3.982   5.568   0.489
 1633TIP3   OH2 4839   0.218   2.328   1.108
 1633TIP3    H1 4840   0.147   2.380   1.070
 1633TIP3    H2 4841   0.295   2.383   1.102
 1634TIP3   OH2 4842   4.933   3.065   4.914
 1634TIP3    H1 4843   4.868   3.015   4.963
 1634TIP3    H2 4844   5.002   3.001   4.894
 1635TIP3   OH2 4845   4.175   4.462   4.198
 1635TIP3    H1 4846   4.209   4.527   4.259
 1635TIP3    H2 4847   4.145   4.390   4.254
 1636TIP3   OH2 4848   5.143   4.238   6.830
 1636TIP3    H1 4849   5.219   4.266   6.881
 1636TIP3    H2 4850   5.158   4.274   6.743
 1637TIP3   OH2 4851   6.132   7.904   4.324
 1637TIP3    H1 4852   6.166   7.841   4.261
 1637TIP3    H2 4853   6.184   7.888   4.403
 1638TIP3   OH2 4854   4.982   5.192   4.295
 1638TIP3    H1 4855   4.968   5.210   4.388
 1638TIP3    H2 4856   5.056   5.248   4.271
 1639TIP3   OH2 4857   3.361   7.256   3.917
 1639TIP3    H1 4858   3.422   7.310   3.967
 1639TIP3    H2 4859   3.415   7.185   3.882
 1640TIP3   OH2 4860   2.590   4.857   3.127
 1640TIP3    H1 4861   2.525   4.839   3.194
 1640TIP3    H2 4862   2.643   4.929   3.162
 1641TIP3   OH2 4863   3.727   7.544   6.226
 1641TIP3    H1 4864   3.822   7.529   6.231
 1641TIP3    H2 4865   3.699   7.548   6.318
 1642TIP3   OH2 4866   2.322   1.565   0.626
 1642TIP3    H1 4867   2.313   1.627   0.554
 1642TIP3    H2 4868   2.254   1.500   0.610
 1643TIP3   OH2 4869   5.264   5.773   6.318
 1643TIP3    H1 4870   5.342   5.757   6.371
 1643TIP3    H2 4871   5.191   5.743   6.373
 1644TIP3   OH2 4872   5.168   5.400   4.153
 1644TIP3    H1 4873   5.150   5.427   4.243
 1644TIP3    H2 4874   5.210   5.475   4.113
 1645TIP3   OH2 4875   7.327   2.676   1.442
 1645TIP3    H1 4876   7.333   2.585   1.469
 1645TIP3    H2 4877   7.234   2.698   1.452
 1646TIP3   OH2 4878   1.013   2.551   3.528
 1646TIP3    H1 4879   1.059   2.472   3.555
 1646TIP3    H2 4880   1.076   2.599   3.474
 1647TIP3   OH2 4881   7.426   0.776   0.068
 1647TIP3    H1 4882   7.433   0.689   0.109
 1647TIP3    H2 4883   7.461   0.765  -0.020
 1648TIP3   OH2 4884   7.249   0.794   4.402
 1648TIP3    H1 4885   7.297   0.832   4.476
 1648TIP3    H2 4886   7.191   0.729   4.441
 1649TIP3   OH2 4887   1.556   5.582   1.501
 1649TIP3    H1 4888   1.537   5.639   1.426
 1649TIP3    H2 4889   1.650   5.567   1.496
 1650TIP3   OH2 4890   7.065   6.840   1.935
 1650TIP3    H1 4891   7.063   6.887   2.019
 1650TIP3    H2 4892   6.994   6.879   1.884
 1651TIP3   OH2 4893   3.306   7.304   1.356
 1651TIP3    H1 4894   3.287   7.269   1.269
 1651TIP3    H2 4895   3.299   7.399   1.346
 1652TIP3   OH2 4896   7.600   0.452   5.591
 1652TIP3    H1 4897   7.519   0.491   5.558
 1652TIP3    H2 4898   7.581   0.358   5.597
 1653TIP3   OH2 4899   4.990   6.631   5.558
 1653TIP3    H1 4900   4.944   6.692   5.615
 1653TIP3    H2 4901   4.923   6.597   5.499
 1654TIP3   OH2 4902   8.234   4.265   2.186
 1654TIP3    H1 4903   8.151   4.293   2.150
 1654TIP3    H2 4904   8.299   4.295   2.122
 1655TIP3   OH2 4905   0.333   7.746   5.017
 1655TIP3    H1 4906   0.298   7.746   4.928
 1655TIP3    H2 4907   0.267   7.700   5.069
 1656TIP3   OH2 4908   2.024   3.923   2.963
 1656TIP3    H1 4909   2.025   3.951   3.055
 1656TIP3    H2 4910   1.933   3.934   2.936
 1657TIP3   OH2 4911   2.390   7.166   3.284
 1657TIP3    H1 4912   2.436   7.122   3.357
 1657TIP3    H2 4913   2.335   7.097   3.246
 1658TIP3   OH2 4914   7.250   3.132   1.574
 1658TIP3    H1 4915   7.339   3.096   1.579
 1658TIP3    H2 4916   7.196   3.070   1.624
 1659TIP3   OH2 4917   5.125   4.145   5.381
 1659TIP3    H1 4918   5.111   4.062   5.334
 1659TIP3    H2 4919   5.208   4.179   5.347
 1660TIP3   OH2 4920   3.892   2.401   3.226
 1660TIP3    H1 4921   3.902   2.311   3.257
 1660TIP3    H2 4922   3.933   2.455   3.293
 1661TIP3   OH2 4923   4.720   7.131   5.362
 1661TIP3    H1 4924   4.751   7.185   5.289
 1661TIP3    H2 4925   4.791   7.136   5.426
 1662TIP3   OH2 4926   7.687   7.486   4.954
 1662TIP3    H1 4927   7.748   7.531   5.013
 1662TIP3    H2 4928   7.601   7.515   4.983
 1663TIP3   OH2 4929   3.696   7.224   3.566
 1663TIP3    H1 4930   3.739   7.220   3.480
 1663TIP3    H2 4931   3.642   7.145   3.570
 1664TIP3   OH2 4932   4.065   1.762   6.767
 1664TIP3    H1 4933   4.062   1.691   6.831
 1664TIP3    H2 4934   4.122   1.828   6.807
 1665TIP3   OH2 4935   1.295   0.654   0.136
 1665TIP3    H1 4936   1.363   0.593   0.109
 1665TIP3    H2 4937   1.338   0.712   0.199
 1666TIP3   OH2 4938   0.150   0.402   3.597
 1666TIP3    H1 4939   0.099   0.323   3.617
 1666TIP3    H2 4940   0.089   0.459   3.551
 1667TIP3   OH2 4941   4.555   6.296   4.866
 1667TIP3    H1 4942   4.477   6.319   4.814
 1667TIP3    H2 4943   4.617   6.367   4.850
 1668TIP3   OH2 4944   7.747   1.967   0.563
 1668TIP3    H1 4945   7.822   1.940   0.616
 1668TIP3    H2 4946   7.714   1.886   0.524
 1669TIP3   OH2 4947   1.556   3.232   6.649
 1669TIP3    H1 4948   1.590   3.211   6.736
 1669TIP3    H2 4949   1.493   3.163   6.630
 1670TIP3   OH2 4950   4.793   1.972   5.530
 1670TIP3    H1 4951   4.804   1.901   5.467
 1670TIP3    H2 4952   4.867   2.031   5.512
 1671TIP3   OH2 4953   3.740   1.354   5.188
 1671TIP3    H1 4954   3.720   1.448   5.197
 1671TIP3    H2 4955   3.825   1.344   5.232
 1672TIP3   OH2 4956   3.461   2.025   5.329
 1672TIP3    H1 4957   3.394   2.085   5.297
 1672TIP3    H2 4958   3.446   1.945   5.278
 1673TIP3   OH2 4959   0.322   2.912   0.511
 1673TIP3    H1 4960   0.256   2.948   0.451
 1673TIP3    H2 4961   0.394   2.884   0.453
 1674TIP3   OH2 4962   7.825   2.668   4.122
 1674TIP3    H1 4963   7.814   2.584   4.077
 1674TIP3    H2 4964   7.785   2.732   4.063
 1675TIP3   OH2 4965   4.597   2.194   0.898
 1675TIP3    H1 4966   4.589   2.201   0.993
 1675TIP3    H2 4967   4.537   2.260   0.863
 1676TIP3   OH2 4968   4.885   0.060   4.609
 1676TIP3    H1 4969   4.921   0.104   4.685
 1676TIP3    H2 4970   4.927   0.103   4.534
 1677TIP3   OH2 4971   0.134   1.339   2.007
 1677TIP3    H1 4972   0.165   1.428   2.027
 1677TIP3    H2 4973   0.058   1.327   2.065
 1678TIP3   OH2 4974   6.506   6.184   5.054
 1678TIP3    H1 4975   6.419   6.147   5.068
 1678TIP3    H2 4976   6.491   6.274   5.026
 1679TIP3   OH2 4977   2.183   6.458   3.987
 1679TIP3    H1 4978   2.168   6.405   3.909
 1679TIP3    H2 4979   2.269   6.431   4.019
 1680TIP3   OH2 4980   4.396   0.110   1.401
 1680TIP3    H1 4981   4.338   0.074   1.334
 1680TIP3    H2 4982   4.459   0.163   1.353
 1681TIP3   OH2 4983   3.367   0.389   2.330
 1681TIP3    H1 4984   3.280   0.378   2.369
 1681TIP3    H2 4985   3.350   0.407   2.238
 1682TIP3   OH2 4986   6.026   0.467   4.189
 1682TIP3    H1 4987   6.006   0.479   4.096
 1682TIP3    H2 4988   6.122   0.466   4.193
 1683TIP3   OH2 4989   1.708   6.758   2.912
 1683TIP3    H1 4990   1.766   6.798   2.847
 1683TIP3    H2 4991   1.621   6.793   2.891
 1684TIP3   OH2 4992   7.845   1.979   2.248
 1684TIP3    H1 4993   7.900   2.055   2.226
 1684TIP3    H2 4994   7.879   1.950   2.333
 1685TIP3   OH2 4995   4.895   3.207   0.641
 1685TIP3    H1 4996   4.835   3.215   0.566
 1685TIP3    H2 4997   4.981   3.228   0.604
 1686TIP3   OH2 4998   1.409   6.750   4.465
 1686TIP3    H1 4999   1.446   6.666   4.438
 1686TIP3    H2 5000   1.479   6.813   4.449
 1687TIP3   OH2 5001   2.430   3.987   6.196
 1687TIP3    H1 5002   2.343   3.946   6.191
 1687TIP3    H2 5003   2.491   3.913   6.199
 1688TIP3   OH2 5004   4.891   1.529   3.980
 1688TIP3    H1 5005   4.927   1.499   4.064
 1688TIP3    H2 5006   4.818   1.585   4.005
 1689TIP3   OH2 5007   2.806   4.985   3.338
 1689TIP3    H1 5008   2.767   5.002   3.252
 1689TIP3    H2 5009   2.817   5.071   3.377
 1690TIP3   OH2 5010   2.238   2.453   5.262
 1690TIP3    H1 5011   2.188   2.385   5.306
 1690TIP3    H2 5012   2.252   2.520   5.329
 1691TIP3   OH2 5013   3.388   3.662   1.214
 1691TIP3    H1 5014   3.372   3.571   1.190
 1691TIP3    H2 5015   3.373   3.665   1.308
 1692TIP3   OH2 5016   3.552   6.401   4.388
 1692TIP3    H1 5017   3.502   6.476   4.355
 1692TIP3    H2 5018   3.542   6.333   4.322
 1693TIP3   OH2 5019   1.963   5.068   3.899
 1693TIP3    H1 5020   2.048   5.108   3.918
 1693TIP3    H2 5021   1.899   5.134   3.924
 1694TIP3   OH2 5022   7.898   6.078   0.406
 1694TIP3    H1 5023   7.950   6.147   0.366
 1694TIP3    H2 5024   7.808   6.111   0.403
 1695TIP3   OH2 5025   2.443   2.573   4.170
 1695TIP3    H1 5026   2.363   2.561   4.221
 1695TIP3    H2 5027   2.453   2.668   4.162
 1696TIP3   OH2 5028   2.232   6.056   0.673
 1696TIP3    H1 5029   2.315   6.032   0.633
 1696TIP3    H2 5030   2.167   6.042   0.605
 1697TIP3   OH2 5031   4.389   5.913   2.951
 1697TIP3    H1 5032   4.442   5.993   2.956
 1697TIP3    H2 5033   4.301   5.944   2.929
 1698TIP3   OH2 5034   5.615   4.300   0.688
 1698TIP3    H1 5035   5.705   4.267   0.691
 1698TIP3    H2 5036   5.565   4.229   0.649
 1699TIP3   OH2 5037   7.051   6.629   6.332
 1699TIP3    H1 5038   7.084   6.662   6.416
 1699TIP3    H2 5039   7.018   6.541   6.353
 1700TIP3   OH2 5040   4.223   0.339   4.460
 1700TIP3    H1 5041   4.170   0.398   4.515
 1700TIP3    H2 5042   4.287   0.396   4.418
 1701TIP3   OH2 5043   3.895   4.614   1.307
 1701TIP3    H1 5044   3.913   4.676   1.236
 1701TIP3    H2 5045   3.980   4.602   1.349
 1702TIP3   OH2 5046   2.625   5.491   4.260
 1702TIP3    H1 5047   2.599   5.421   4.201
 1702TIP3    H2 5048   2.713   5.467   4.289
 1703TIP3   OH2 5049   0.905   2.191   2.219
 1703TIP3    H1 5050   0.969   2.205   2.148
 1703TIP3    H2 5051   0.825   2.164   2.174
 1704TIP3   OH2 5052   4.548   0.019   2.229
 1704TIP3    H1 5053   4.474  -0.026   2.189
 1704TIP3    H2 5054   4.614   0.022   2.159
 1705TIP3   OH2 5055   7.818   2.323   1.226
 1705TIP3    H1 5056   7.810   2.237   1.267
 1705TIP3    H2 5057   7.901   2.319   1.177
 1706TIP3   OH2 5058   6.778   5.628   6.319
 1706TIP3    H1 5059   6.841   5.556   6.324
 1706TIP3    H2 5060   6.792   5.666   6.232
 1707TIP3   OH2 5061   0.338   0.372   6.108
 1707TIP3    H1 5062   0.359   0.397   6.198
 1707TIP3    H2 5063   0.379   0.439   6.054
 1708TIP3   OH2 5064   2.943   2.162   6.490
 1708TIP3    H1 5065   2.998   2.093   6.452
 1708TIP3    H2 5066   2.900   2.201   6.414
 1709TIP3   OH2 5067   7.756   1.255   5.937
 1709TIP3    H1 5068   7.851   1.266   5.926
 1709TIP3    H2 5069   7.718   1.321   5.878
 1710TIP3   OH2 5070   7.654   2.671   6.180
 1710TIP3    H1 5071   7.577   2.615   6.189
 1710TIP3    H2 5072   7.679   2.693   6.269
 1711TIP3   OH2 5073   7.436   5.257   3.861
 1711TIP3    H1 5074   7.348   5.227   3.884
 1711TIP3    H2 5075   7.492   5.182   3.882
 1712TIP3   OH2 5076   7.403   4.868   0.036
 1712TIP3    H1 5077   7.498   4.859   0.041
 1712TIP3    H2 5078   7.384   4.953   0.075
 1713TIP3   OH2 5079   7.288   4.018   5.306
 1713TIP3    H1 5080   7.345   3.969   5.365
 1713TIP3    H2 5081   7.262   4.095   5.357
 1714TIP3   OH2 5082   3.831   2.501   4.017
 1714TIP3    H1 5083   3.885   2.581   4.018
 1714TIP3    H2 5084   3.816   2.484   3.924
 1715TIP3   OH2 5085   0.527   5.746   6.443
 1715TIP3    H1 5086   0.565   5.760   6.356
 1715TIP3    H2 5087   0.559   5.820   6.495
 1716TIP3   OH2 5088   3.172   7.616   4.672
 1716TIP3    H1 5089   3.078   7.621   4.653
 1716TIP3    H2 5090   3.194   7.523   4.659
 1717TIP3   OH2 5091   3.025   1.279   2.754
 1717TIP3    H1 5092   3.008   1.192   2.716
 1717TIP3    H2 5093   3.028   1.338   2.679
 1718TIP3   OH2 5094   6.101   3.403   1.813
 1718TIP3    H1 5095   6.182   3.436   1.854
 1718TIP3    H2 5096   6.031   3.445   1.862
 1719TIP3   OH2 5097   5.177   4.976   6.447
 1719TIP3    H1 5098   5.193   5.070   6.438
 1719TIP3    H2 5099   5.133   4.968   6.532
 1720TIP3   OH2 5100   2.208   5.144   4.076
 1720TIP3    H1 5101   2.279   5.130   4.138
 1720TIP3    H2 5102   2.131   5.157   4.131
 1721TIP3   OH2 5103   6.188   7.637   1.461
 1721TIP3    H1 5104   6.123   7.687   1.412
 1721TIP3    H2 5105   6.249   7.703   1.494
 1722TIP3   OH2 5106   4.914   5.402   3.675
 1722TIP3    H1 5107   4.998   5.376   3.637
 1722TIP3    H2 5108   4.932   5.413   3.768
 1723TIP3   OH2 5109   6.490   6.274   1.609
 1723TIP3    H1 5110   6.527   6.257   1.522
 1723TIP3    H2 5111   6.489   6.189   1.652
 1724TIP3   OH2 5112   4.620  -0.011   4.711
 1724TIP3    H1 5113   4.571   0.064   4.677
 1724TIP3    H2 5114   4.706  -0.004   4.669
 1725TIP3   OH2 5115   7.767   0.038   2.382
 1725TIP3    H1 5116   7.849   0.084   2.362
 1725TIP3    H2 5117   7.712   0.054   2.305
 1726TIP3   OH2 5118   1.799   3.208   1.621
 1726TIP3    H1 5119   1.840   3.294   1.635
 1726TIP3    H2 5120   1.872   3.147   1.622
 1727TIP3   OH2 5121   5.126   4.729   3.140
 1727TIP3    H1 5122   5.147   4.686   3.223
 1727TIP3    H2 5123   5.159   4.819   3.151
 1728TIP3   OH2 5124   5.364   3.724   4.708
 1728TIP3    H1 5125   5.349   3.686   4.622
 1728TIP3    H2 5126   5.379   3.817   4.692
 1729TIP3   OH2 5127   1.873   4.415   0.935
 1729TIP3    H1 5128   1.793   4.370   0.906
 1729TIP3    H2 5129   1.869   4.500   0.890
 1730TIP3   OH2 5130   2.694   3.680   2.287
 1730TIP3    H1 5131   2.634   3.671   2.361
 1730TIP3    H2 5132   2.771   3.723   2.325
 1731TIP3   OH2 5133   2.870   7.734   0.685
 1731TIP3    H1 5134   2.800   7.689   0.731
 1731TIP3    H2 5135   2.827   7.808   0.641
 1732TIP3   OH2 5136   1.056   6.725   3.025
 1732TIP3    H1 5137   1.096   6.794   3.078
 1732TIP3    H2 5138   1.030   6.768   2.944
 1733TIP3   OH2 5139   5.694   1.363   5.194
 1733TIP3    H1 5140   5.612   1.370   5.243
 1733TIP3    H2 5141   5.751   1.312   5.251
 1734TIP3   OH2 5142   0.455   6.349   3.026
 1734TIP3    H1 5143   0.459   6.324   2.934
 1734TIP3    H2 5144   0.369   6.391   3.036
 1735TIP3   OH2 5145   4.793   6.140   4.419
 1735TIP3    H1 5146   4.824   6.204   4.354
 1735TIP3    H2 5147   4.823   6.056   4.385
 1736TIP3   OH2 5148   7.230   1.308   6.513
 1736TIP3    H1 5149   7.318   1.332   6.484
 1736TIP3    H2 5150   7.207   1.374   6.578
 1737TIP3   OH2 5151   8.381   1.528   6.757
 1737TIP3    H1 5152   8.433   1.548   6.679
 1737TIP3    H2 5153   8.299   1.493   6.722
 1738TIP3   OH2 5154   2.857   2.602   0.955
 1738TIP3    H1 5155   2.786   2.652   0.996
 1738TIP3    H2 5156   2.824   2.512   0.955
 1739TIP3   OH2 5157   1.318   3.576   2.302
 1739TIP3    H1 5158   1.280   3.642   2.360
 1739TIP3    H2 5159   1.352   3.626   2.228
 1740TIP3   OH2 5160   4.791   6.103   3.788
 1740TIP3    H1 5161   4.728   6.117   3.718
 1740TIP3    H2 5162   4.748   6.042   3.848
 1741TIP3   OH2 5163   7.700   4.488   0.532
 1741TIP3    H1 5164   7.693   4.541   0.452
 1741TIP3    H2 5165   7.705   4.397   0.500
 1742TIP3   OH2 5166   0.195   1.183   1.203
 1742TIP3    H1 5167   0.249   1.122   1.253
 1742TIP3    H2 5168   0.130   1.128   1.159
 1743TIP3   OH2 5169   2.979   7.844   0.244
 1743TIP3    H1 5170   2.906   7.903   0.262
 1743TIP3    H2 5171   3.020   7.829   0.329
 1744TIP3   OH2 5172   4.987   3.140   6.519
 1744TIP3    H1 5173   5.005   3.185   6.437
 1744TIP3    H2 5174   4.962   3.051   6.494
 1745TIP3   OH2 5175   3.337   1.624   0.114
 1745TIP3    H1 5176   3.346   1.698   0.055
 1745TIP3    H2 5177   3.404   1.562   0.085
 1746TIP3   OH2 5178   5.238   7.119   6.752
 1746TIP3    H1 5179   5.148   7.100   6.777
 1746TIP3    H2 5180   5.264   7.045   6.697
 1747TIP3   OH2 5181   2.823   6.152   3.776
 1747TIP3    H1 5182   2.850   6.146   3.684
 1747TIP3    H2 5183   2.730   6.175   3.773
 1748TIP3   OH2 5184   0.043   7.277   1.340
 1748TIP3    H1 5185  -0.039   7.229   1.355
 1748TIP3    H2 5186   0.111   7.218   1.372
 1749TIP3   OH2 5187   6.966   1.019   1.392
 1749TIP3    H1 5188   6.923   1.057   1.469
 1749TIP3    H2 5189   6.946   1.080   1.321
 1750TIP3   OH2 5190   5.943   6.601   1.550
 1750TIP3    H1 5191   5.901   6.687   1.558
 1750TIP3    H2 5192   5.983   6.585   1.636
 1751TIP3   OH2 5193   6.286   6.054   5.673
 1751TIP3    H1 5194   6.372   6.013   5.664
 1751TIP3    H2 5195   6.238   6.027   5.594
 1752TIP3   OH2 5196   7.390   0.097   3.059
 1752TIP3    H1 5197   7.465   0.041   3.038
 1752TIP3    H2 5198   7.416   0.145   3.137
 1753TIP3   OH2 5199   2.429   2.806   3.255
 1753TIP3    H1 5200   2.340   2.841   3.260
 1753TIP3    H2 5201   2.434   2.739   3.322
 1754TIP3   OH2 5202   2.554   3.925   2.558
 1754TIP3    H1 5203   2.599   3.976   2.625
 1754TIP3    H2 5204   2.512   3.991   2.502
 1755TIP3   OH2 5205   5.864   7.242   4.436
 1755TIP3    H1 5206   5.885   7.295   4.359
 1755TIP3    H2 5207   5.938   7.256   4.495
 1756TIP3   OH2 5208   7.718   0.185   1.043
 1756TIP3    H1 5209   7.736   0.092   1.027
 1756TIP3    H2 5210   7.661   0.211   0.971
 1757TIP3   OH2 5211   0.127   2.678   3.843
 1757TIP3    H1 5212   0.105   2.611   3.907
 1757TIP3    H2 5213   0.210   2.649   3.804
 1758TIP3   OH2 5214   3.694   7.826   3.558
 1758TIP3    H1 5215   3.661   7.863   3.640
 1758TIP3    H2 5216   3.741   7.747   3.585
 1759TIP3   OH2 5217   4.203   7.097   4.602
 1759TIP3    H1 5218   4.220   7.038   4.675
 1759TIP3    H2 5219   4.186   7.040   4.527
 1760TIP3   OH2 5220   0.949   0.405   1.910
 1760TIP3    H1 5221   1.017   0.452   1.864
 1760TIP3    H2 5222   0.989   0.321   1.933
 1761TIP3   OH2 5223   1.390   3.887   4.563
 1761TIP3    H1 5224   1.354   3.972   4.585
 1761TIP3    H2 5225   1.482   3.891   4.591
 1762TIP3   OH2 5226   2.984   0.902   6.764
 1762TIP3    H1 5227   3.006   0.929   6.854
 1762TIP3    H2 5228   3.020   0.813   6.757
 1763TIP3   OH2 5229   0.998   2.188   0.994
 1763TIP3    H1 5230   1.038   2.120   0.939
 1763TIP3    H2 5231   1.068   2.213   1.056
 1764TIP3   OH2 5232   7.391   4.687   2.373
 1764TIP3    H1 5233   7.322   4.673   2.308
 1764TIP3    H2 5234   7.438   4.765   2.342
 1765TIP3   OH2 5235   6.569   7.110   4.439
 1765TIP3    H1 5236   6.587   7.198   4.406
 1765TIP3    H2 5237   6.596   7.051   4.369
 1766TIP3   OH2 5238   0.953   4.636   0.670
 1766TIP3    H1 5239   0.898   4.602   0.599
 1766TIP3    H2 5240   0.918   4.723   0.687
 1767TIP3   OH2 5241   5.246   5.391   2.287
 1767TIP3    H1 5242   5.200   5.309   2.265
 1767TIP3    H2 5243   5.179   5.445   2.329
 1768TIP3   OH2 5244   7.889   5.969   5.841
 1768TIP3    H1 5245   7.861   5.983   5.750
 1768TIP3    H2 5246   7.817   5.920   5.881
 1769TIP3   OH2 5247   6.119   7.791   5.416
 1769TIP3    H1 5248   6.034   7.833   5.429
 1769TIP3    H2 5249   6.181   7.863   5.405
 1770TIP3   OH2 5250   8.316   0.248   6.613
 1770TIP3    H1 5251   8.391   0.225   6.558
 1770TIP3    H2 5252   8.334   0.206   6.697
 1771TIP3   OH2 5253   2.433   2.756   1.870
 1771TIP3    H1 5254   2.475   2.693   1.811
 1771TIP3    H2 5255   2.502   2.817   1.894
 1772TIP3   OH2 5256   2.485   6.074   0.579
 1772TIP3    H1 5257   2.558   6.066   0.640
 1772TIP3    H2 5258   2.509   6.017   0.505
 1773TIP3   OH2 5259   2.253   7.218   1.194
 1773TIP3    H1 5260   2.340   7.204   1.155
 1773TIP3    H2 5261   2.192   7.203   1.123
 1774TIP3   OH2 5262   6.491   3.126   5.380
 1774TIP3    H1 5263   6.414   3.177   5.403
 1774TIP3    H2 5264   6.558   3.153   5.442
 1775TIP3   OH2 5265   0.733   7.875   3.673
 1775TIP3    H1 5266   0.726   7.963   3.711
 1775TIP3    H2 5267   0.744   7.890   3.579
 1776TIP3   OH2 5268   4.914   0.193   3.500
 1776TIP3    H1 5269   4.874   0.213   3.415
 1776TIP3    H2 5270   4.980   0.127   3.481
 1777TIP3   OH2 5271   3.652   1.276   4.258
 1777TIP3    H1 5272   3.575   1.225   4.232
 1777TIP3    H2 5273   3.661   1.343   4.190
 1778TIP3   OH2 5274   4.911   0.245   0.579
 1778TIP3    H1 5275   4.944   0.279   0.496
 1778TIP3    H2 5276   4.905   0.322   0.635
 1779TIP3   OH2 5277   2.100   6.274   3.248
 1779TIP3    H1 5278   2.075   6.233   3.165
 1779TIP3    H2 5279   2.191   6.300   3.235
 1780TIP3   OH2 5280   3.907   3.635   3.025
 1780TIP3    H1 5281   3.967   3.709   3.019
 1780TIP3    H2 5282   3.825   3.673   3.057
 1781TIP3   OH2 5283   3.190   7.652   5.136
 1781TIP3    H1 5284   3.166   7.726   5.081
 1781TIP3    H2 5285   3.215   7.583   5.075
 1782TIP3   OH2 5286   2.148   7.469   2.808
 1782TIP3    H1 5287   2.146   7.554   2.853
 1782TIP3    H2 5288   2.152   7.405   2.878
 1783TIP3   OH2 5289   0.350   5.550   2.154
 1783TIP3    H1 5290   0.369   5.636   2.116
 1783TIP3    H2 5291   0.274   5.518   2.105
 1784TIP3   OH2 5292   5.782   5.514   4.136
 1784TIP3    H1 5293   5.732   5.502   4.056
 1784TIP3    H2 5294   5.724   5.566   4.192
 1785TIP3   OH2 5295   0.435   2.896   3.222
 1785TIP3    H1 5296   0.507   2.951   3.254
 1785TIP3    H2 5297   0.360   2.922   3.274
 1786TIP3   OH2 5298   4.902   3.353   4.075
 1786TIP3    H1 5299   4.830   3.323   4.131
 1786TIP3    H2 5300   4.974   3.367   4.136
 1787TIP3   OH2 5301   7.288   0.930   1.496
 1787TIP3    H1 5302   7.303   0.858   1.559
 1787TIP3    H2 5303   7.270   0.885   1.414
 1788TIP3   OH2 5304   3.045   3.665   6.634
 1788TIP3    H1 5305   3.118   3.680   6.693
 1788TIP3    H2 5306   3.084   3.629   6.555
 1789TIP3   OH2 5307   6.980   2.427   4.983
 1789TIP3    H1 5308   6.905   2.369   4.969
 1789TIP3    H2 5309   7.025   2.391   5.060
 1790TIP3   OH2 5310   2.085   3.623   1.813
 1790TIP3    H1 5311   2.170   3.647   1.852
 1790TIP3    H2 5312   2.094   3.646   1.721
 1791TIP3   OH2 5313   3.085   2.315   1.204
 1791TIP3    H1 5314   3.015   2.373   1.231
 1791TIP3    H2 5315   3.124   2.285   1.286
 1792TIP3   OH2 5316   3.165   3.632   2.516
 1792TIP3    H1 5317   3.113   3.654   2.594
 1792TIP3    H2 5318   3.255   3.636   2.546
 1793TIP3   OH2 5319   4.251   3.933   6.320
 1793TIP3    H1 5320   4.203   3.977   6.250
 1793TIP3    H2 5321   4.341   3.928   6.288
 1794TIP3   OH2 5322   2.434   2.952   1.108
 1794TIP3    H1 5323   2.380   2.903   1.047
 1794TIP3    H2 5324   2.413   2.916   1.194
 1795TIP3   OH2 5325   1.720   5.638   0.673
 1795TIP3    H1 5326   1.704   5.568   0.610
 1795TIP3    H2 5327   1.635   5.655   0.713
 1796TIP3   OH2 5328   0.159   7.617   2.450
 1796TIP3    H1 5329   0.242   7.658   2.428
 1796TIP3    H2 5330   0.142   7.642   2.541
 1797TIP3   OH2 5331   6.252   4.695   6.619
 1797TIP3    H1 5332   6.194   4.622   6.640
 1797TIP3    H2 5333   6.238   4.710   6.525
 1798TIP3   OH2 5334   4.279   1.026   2.349
 1798TIP3    H1 5335   4.249   0.941   2.315
 1798TIP3    H2 5336   4.217   1.089   2.311
 1799TIP3   OH2 5337   4.408   2.334   2.684
 1799TIP3    H1 5338   4.355   2.378   2.616
 1799TIP3    H2 5339   4.450   2.261   2.638
 1800TIP3   OH2 5340   5.771   6.518   3.405
 1800TIP3    H1 5341   5.814   6.501   3.489
 1800TIP3    H2 5342   5.822   6.468   3.341
 1801TIP3   OH2 5343   6.380   7.636   6.607
 1801TIP3    H1 5344   6.453   7.683   6.568
 1801TIP3    H2 5345   6.363   7.680   6.690
 1802TIP3   OH2 5346   4.014   2.546   2.716
 1802TIP3    H1 5347   4.102   2.561   2.679
 1802TIP3    H2 5348   3.959   2.612   2.673
 1803TIP3   OH2 5349   7.389   4.343   6.230
 1803TIP3    H1 5350   7.455   4.276   6.212
 1803TIP3    H2 5351   7.401   4.365   6.322
 1804TIP3   OH2 5352   3.610   1.730   5.536
 1804TIP3    H1 5353   3.515   1.722   5.522
 1804TIP3    H2 5354   3.628   1.672   5.610
 1805TIP3   OH2 5355   2.979   5.112   6.727
 1805TIP3    H1 5356   3.029   5.034   6.703
 1805TIP3    H2 5357   2.890   5.093   6.698
 1806TIP3   OH2 5358   4.795   4.571   4.155
 1806TIP3    H1 5359   4.810   4.617   4.237
 1806TIP3    H2 5360   4.783   4.479   4.180
 1807TIP3   OH2 5361   2.710   4.732   6.670
 1807TIP3    H1 5362   2.740   4.785   6.743
 1807TIP3    H2 5363   2.614   4.732   6.678
 1808TIP3   OH2 5364   0.062   3.808   4.593
 1808TIP3    H1 5365   0.106   3.820   4.678
 1808TIP3    H2 5366   0.133   3.790   4.532
 1809TIP3   OH2 5367   5.017   6.745   4.935
 1809TIP3    H1 5368   5.099   6.727   4.982
 1809TIP3    H2 5369   4.971   6.807   4.991
 1810TIP3   OH2 5370   7.217   0.355   6.428
 1810TIP3    H1 5371   7.241   0.288   6.365
 1810TIP3    H2 5372   7.126   0.336   6.451
 1811TIP3   OH2 5373   7.229   5.335   2.464
 1811TIP3    H1 5374   7.146   5.297   2.432
 1811TIP3    H2 5375   7.290   5.261   2.463
 1812TIP3   OH2 5376   2.653   3.283   3.540
 1812TIP3    H1 5377   2.575   3.252   3.496
 1812TIP3    H2 5378   2.629   3.369   3.575
 1813TIP3   OH2 5379   8.323   2.640   2.033
 1813TIP3    H1 5380   8.295   2.647   1.941
 1813TIP3    H2 5381   8.304   2.726   2.070
 1814TIP3   OH2 5382   0.215   5.457   6.140
 1814TIP3    H1 5383   0.261   5.527   6.186
 1814TIP3    H2 5384   0.241   5.377   6.186
 1815TIP3   OH2 5385   5.604   1.695   6.356
 1815TIP3    H1 5386   5.558   1.772   6.388
 1815TIP3    H2 5387   5.550   1.621   6.383
 1816TIP3   OH2 5388   7.927   1.265   0.933
 1816TIP3    H1 5389   8.015   1.276   0.896
 1816TIP3    H2 5390   7.936   1.190   0.992
 1817TIP3   OH2 5391   0.672   6.577   6.539
 1817TIP3    H1 5392   0.709   6.661   6.567
 1817TIP3    H2 5393   0.617   6.598   6.464
 1818TIP3   OH2 5394   8.406   3.626   3.680
 1818TIP3    H1 5395   8.424   3.635   3.774
 1818TIP3    H2 5396   8.358   3.705   3.657
 1819TIP3   OH2 5397   7.314   0.054   2.276
 1819TIP3    H1 5398   7.267  -0.027   2.256
 1819TIP3    H2 5399   7.407   0.030   2.273
 1820TIP3   OH2 5400   2.383   0.263   5.622
 1820TIP3    H1 5401   2.477   0.274   5.635
 1820TIP3    H2 5402   2.342   0.309   5.696
 1821TIP3   OH2 5403   0.393   5.008   3.747
 1821TIP3    H1 5404   0.470   5.043   3.702
 1821TIP3    H2 5405   0.385   4.919   3.712
 1822TIP3   OH2 5406   5.669   4.844   1.222
 1822TIP3    H1 5407   5.716   4.765   1.247
 1822TIP3    H2 5408   5.729   4.916   1.243
 1823TIP3   OH2 5409   1.351   4.374   1.748
 1823TIP3    H1 5410   1.432   4.351   1.793
 1823TIP3    H2 5411   1.327   4.460   1.783
 1824TIP3   OH2 5412   4.937   7.004   5.084
 1824TIP3    H1 5413   4.883   7.043   5.015
 1824TIP3    H2 5414   4.987   7.078   5.119
 1825TIP3   OH2 5415   6.866   7.273   2.243
 1825TIP3    H1 5416   6.950   7.309   2.270
 1825TIP3    H2 5417   6.844   7.210   2.311
 1826TIP3   OH2 5418   2.314   3.477   5.393
 1826TIP3    H1 5419   2.409   3.487   5.385
 1826TIP3    H2 5420   2.286   3.446   5.307
 1827TIP3   OH2 5421   0.679   4.440   4.626
 1827TIP3    H1 5422   0.650   4.517   4.676
 1827TIP3    H2 5423   0.751   4.404   4.678
 1828TIP3   OH2 5424   2.798   0.276   2.673
 1828TIP3    H1 5425   2.765   0.187   2.656
 1828TIP3    H2 5426   2.877   0.263   2.726
 1829TIP3   OH2 5427   0.421   5.607   6.819
 1829TIP3    H1 5428   0.439   5.699   6.798
 1829TIP3    H2 5429   0.462   5.558   6.749
 1830TIP3   OH2 5430   6.025   2.523   6.818
 1830TIP3    H1 5431   5.996   2.523   6.726
 1830TIP3    H2 5432   5.992   2.605   6.854
 1831TIP3   OH2 5433   4.241   5.485   1.418
 1831TIP3    H1 5434   4.331   5.472   1.446
 1831TIP3    H2 5435   4.237   5.447   1.330
 1832TIP3   OH2 5436   3.276   4.001   1.406
 1832TIP3    H1 5437   3.352   4.055   1.428
 1832TIP3    H2 5438   3.285   3.983   1.312
 1833TIP3   OH2 5439   8.241   4.689   5.177
 1833TIP3    H1 5440   8.316   4.728   5.132
 1833TIP3    H2 5441   8.234   4.740   5.258
 1834TIP3   OH2 5442   2.663   5.166   5.607
 1834TIP3    H1 5443   2.705   5.093   5.652
 1834TIP3    H2 5444   2.571   5.141   5.601
 1835TIP3   OH2 5445   2.095   0.565   4.598
 1835TIP3    H1 5446   2.183   0.533   4.619
 1835TIP3    H2 5447   2.090   0.559   4.503
 1836TIP3   OH2 5448   2.415   6.461   1.378
 1836TIP3    H1 5449   2.382   6.437   1.291
 1836TIP3    H2 5450   2.344   6.510   1.419
 1837TIP3   OH2 5451   5.225   4.832   0.320
 1837TIP3    H1 5452   5.152   4.845   0.260
 1837TIP3    H2 5453   5.232   4.737   0.329
 1838TIP3   OH2 5454   5.881   5.632   4.964
 1838TIP3    H1 5455   5.910   5.692   4.896
 1838TIP3    H2 5456   5.833   5.687   5.026
 1839TIP3   OH2 5457   2.774   5.021   5.253
 1839TIP3    H1 5458   2.818   5.057   5.330
 1839TIP3    H2 5459   2.833   4.952   5.222
 1840TIP3   OH2 5460   2.372   3.207   0.661
 1840TIP3    H1 5461   2.454   3.196   0.615
 1840TIP3    H2 5462   2.381   3.154   0.741
 1841TIP3   OH2 5463   6.996   4.818   5.956
 1841TIP3    H1 5464   6.977   4.911   5.941
 1841TIP3    H2 5465   7.050   4.817   6.035
 1842TIP3   OH2 5466   4.841   3.708   2.059
 1842TIP3    H1 5467   4.936   3.722   2.062
 1842TIP3    H2 5468   4.832   3.614   2.039
 1843TIP3   OH2 5469   7.620   7.255   3.907
 1843TIP3    H1 5470   7.529   7.273   3.931
 1843TIP3    H2 5471   7.664   7.339   3.919
 1844TIP3   OH2 5472   2.269   6.809   5.674
 1844TIP3    H1 5473   2.213   6.736   5.650
 1844TIP3    H2 5474   2.216   6.887   5.657
 1845TIP3   OH2 5475   3.239   5.635   2.715
 1845TIP3    H1 5476   3.334   5.633   2.701
 1845TIP3    H2 5477   3.223   5.716   2.763
 1846TIP3   OH2 5478   8.182   6.410   6.709
 1846TIP3    H1 5479   8.138   6.486   6.672
 1846TIP3    H2 5480   8.246   6.385   6.643
 1847TIP3   OH2 5481   5.253   0.183   3.773
 1847TIP3    H1 5482   5.178   0.240   3.762
 1847TIP3    H2 5483   5.217   0.094   3.772
 1848TIP3   OH2 5484   1.712   7.919   3.082
 1848TIP3    H1 5485   1.709   7.832   3.120
 1848TIP3    H2 5486   1.793   7.957   3.115
 1849TIP3   OH2 5487   8.233   2.805   1.006
 1849TIP3    H1 5488   8.272   2.872   0.950
 1849TIP3    H2 5489   8.298   2.790   1.074
 1850TIP3   OH2 5490   5.507   3.034   1.231
 1850TIP3    H1 5491   5.414   3.019   1.246
 1850TIP3    H2 5492   5.539   2.950   1.198
 1851TIP3   OH2 5493   5.102   0.146   3.199
 1851TIP3    H1 5494   5.141   0.233   3.210
 1851TIP3    H2 5495   5.111   0.104   3.284
 1852TIP3   OH2 5496   0.697   4.819   0.117
 1852TIP3    H1 5497   0.692   4.913   0.137
 1852TIP3    H2 5498   0.791   4.799   0.120
 1853TIP3   OH2 5499   5.272   5.007   2.287
 1853TIP3    H1 5500   5.333   5.061   2.338
 1853TIP3    H2 5501   5.241   4.942   2.349
 1854TIP3   OH2 5502   0.579   2.033   0.637
 1854TIP3    H1 5503   0.507   2.095   0.624
 1854TIP3    H2 5504   0.613   2.053   0.724
 1855TIP3   OH2 5505   5.669   3.016   5.439
 1855TIP3    H1 5506   5.620   2.964   5.503
 1855TIP3    H2 5507   5.602   3.070   5.396
 1856TIP3   OH2 5508   2.120   2.493   1.127
 1856TIP3    H1 5509   2.200   2.455   1.090
 1856TIP3    H2 5510   2.050   2.435   1.097
 1857TIP3   OH2 5511   1.131   3.898   2.911
 1857TIP3    H1 5512   1.222   3.872   2.900
 1857TIP3    H2 5513   1.089   3.821   2.950
 1858TIP3   OH2 5514   0.075   5.738   0.677
 1858TIP3    H1 5515  -0.007   5.761   0.721
 1858TIP3    H2 5516   0.047   5.705   0.591
 1859TIP3   OH2 5517   2.322   2.465   0.491
 1859TIP3    H1 5518   2.302   2.489   0.401
 1859TIP3    H2 5519   2.237   2.446   0.530
 1860TIP3   OH2 5520   8.219   3.188   4.672
 1860TIP3    H1 5521   8.134   3.174   4.631
 1860TIP3    H2 5522   8.233   3.283   4.667
 1861TIP3   OH2 5523   3.835   0.400   1.630
 1861TIP3    H1 5524   3.755   0.355   1.604
 1861TIP3    H2 5525   3.823   0.419   1.723
 1862TIP3   OH2 5526   2.357   4.578   5.139
 1862TIP3    H1 5527   2.360   4.502   5.196
 1862TIP3    H2 5528   2.449   4.606   5.131
 1863TIP3   OH2 5529   0.625   0.626   5.572
 1863TIP3    H1 5530   0.669   0.640   5.488
 1863TIP3    H2 5531   0.593   0.712   5.598
 1864TIP3   OH2 5532   6.559   3.748   0.118
 1864TIP3    H1 5533   6.591   3.660   0.098
 1864TIP3    H2 5534   6.577   3.799   0.039
 1865TIP3   OH2 5535   3.557   3.936   3.700
 1865TIP3    H1 5536   3.575   3.939   3.606
 1865TIP3    H2 5537   3.477   3.988   3.712
 1866TIP3   OH2 5538   4.109   6.684   1.339
 1866TIP3    H1 5539   4.068   6.717   1.419
 1866TIP3    H2 5540   4.103   6.588   1.347
 1867TIP3   OH2 5541   6.531   1.088   6.789
 1867TIP3    H1 5542   6.518   1.026   6.717
 1867TIP3    H2 5543   6.457   1.149   6.782
 1868TIP3   OH2 5544   1.102   5.047   6.520
 1868TIP3    H1 5545   1.120   4.964   6.475
 1868TIP3    H2 5546   1.124   5.114   6.456
 1869TIP3   OH2 5547   3.637   6.853   4.791
 1869TIP3    H1 5548   3.650   6.941   4.756
 1869TIP3    H2 5549   3.709   6.841   4.853
 1870TIP3   OH2 5550   2.780   3.924   0.387
 1870TIP3    H1 5551   2.698   3.970   0.369
 1870TIP3    H2 5552   2.828   3.930   0.305
 1871TIP3   OH2 5553   3.365   7.190   5.025
 1871TIP3    H1 5554   3.383   7.099   5.001
 1871TIP3    H2 5555   3.373   7.192   5.120
 1872TIP3   OH2 5556   7.293   0.342   2.929
 1872TIP3    H1 5557   7.327   0.265   2.975
 1872TIP3    H2 5558   7.361   0.408   2.939
 1873TIP3   OH2 5559   5.857   6.022   6.216
 1873TIP3    H1 5560   5.887   6.096   6.165
 1873TIP3    H2 5561   5.866   5.947   6.158
 1874TIP3   OH2 5562   3.845   1.136   3.613
 1874TIP3    H1 5563   3.879   1.219   3.647
 1874TIP3    H2 5564   3.750   1.144   3.618
 1875TIP3   OH2 5565   4.646   6.002   4.822
 1875TIP3    H1 5566   4.721   6.058   4.800
 1875TIP3    H2 5567   4.570   6.058   4.812
 1876TIP3   OH2 5568   2.861   5.934   2.028
 1876TIP3    H1 5569   2.908   5.948   2.110
 1876TIP3    H2 5570   2.779   5.983   2.038
 1877TIP3   OH2 5571   7.311   2.794   4.830
 1877TIP3    H1 5572   7.367   2.805   4.907
 1877TIP3    H2 5573   7.308   2.700   4.816
 1878TIP3   OH2 5574   7.529   0.767   6.075
 1878TIP3    H1 5575   7.522   0.862   6.063
 1878TIP3    H2 5576   7.466   0.731   6.013
 1879TIP3   OH2 5577   6.574   0.233   3.381
 1879TIP3    H1 5578   6.492   0.234   3.429
 1879TIP3    H2 5579   6.641   0.224   3.448
 1880TIP3   OH2 5580   1.295   1.140   1.595
 1880TIP3    H1 5581   1.370   1.181   1.637
 1880TIP3    H2 5582   1.306   1.046   1.612
 1881TIP3   OH2 5583   0.873   6.758   4.401
 1881TIP3    H1 5584   0.871   6.717   4.314
 1881TIP3    H2 5585   0.955   6.807   4.403
 1882TIP3   OH2 5586   4.777   5.939   6.733
 1882TIP3    H1 5587   4.787   6.015   6.789
 1882TIP3    H2 5588   4.740   5.973   6.651
 1883TIP3   OH2 5589   4.445   2.551   1.955
 1883TIP3    H1 5590   4.376   2.614   1.933
 1883TIP3    H2 5591   4.438   2.484   1.887
 1884TIP3   OH2 5592   3.808   5.980   0.576
 1884TIP3    H1 5593   3.875   6.019   0.632
 1884TIP3    H2 5594   3.730   5.975   0.632
 1885TIP3   OH2 5595   7.432   2.253   2.417
 1885TIP3    H1 5596   7.414   2.341   2.383
 1885TIP3    H2 5597   7.441   2.199   2.338
 1886TIP3   OH2 5598   7.667   5.685   3.552
 1886TIP3    H1 5599   7.661   5.604   3.602
 1886TIP3    H2 5600   7.733   5.667   3.484
 1887TIP3   OH2 5601   4.602   5.163   5.214
 1887TIP3    H1 5602   4.557   5.166   5.130
 1887TIP3    H2 5603   4.596   5.072   5.242
 1888TIP3   OH2 5604   1.694   3.919   1.927
 1888TIP3    H1 5605   1.609   3.877   1.911
 1888TIP3    H2 5606   1.745   3.853   1.974
 1889TIP3   OH2 5607   7.343   3.123   5.352
 1889TIP3    H1 5608   7.283   3.049   5.358
 1889TIP3    H2 5609   7.429   3.086   5.373
 1890TIP3   OH2 5610   2.871   1.020   6.355
 1890TIP3    H1 5611   2.846   1.001   6.265
 1890TIP3    H2 5612   2.908   1.108   6.351
 1891TIP3   OH2 5613   3.825   2.976   2.484
 1891TIP3    H1 5614   3.908   2.989   2.438
 1891TIP3    H2 5615   3.793   3.065   2.500
 1892TIP3   OH2 5616   4.166   4.101   1.228
 1892TIP3    H1 5617   4.078   4.068   1.209
 1892TIP3    H2 5618   4.160   4.134   1.318
 1893TIP3   OH2 5619   7.403   7.432   6.153
 1893TIP3    H1 5620   7.429   7.346   6.120
 1893TIP3    H2 5621   7.372   7.415   6.242
 1894TIP3   OH2 5622   0.908   0.834   4.534
 1894TIP3    H1 5623   0.909   0.782   4.454
 1894TIP3    H2 5624   0.995   0.874   4.538
 1895TIP3   OH2 5625   1.684   7.243   4.242
 1895TIP3    H1 5626   1.730   7.314   4.197
 1895TIP3    H2 5627   1.739   7.166   4.227
 1896TIP3   OH2 5628   1.734   3.671   2.751
 1896TIP3    H1 5629   1.768   3.689   2.838
 1896TIP3    H2 5630   1.702   3.581   2.755
 1897TIP3   OH2 5631   7.128   0.137   3.363
 1897TIP3    H1 5632   7.159   0.221   3.329
 1897TIP3    H2 5633   7.205   0.079   3.360
 1898TIP3   OH2 5634   3.981   5.165   5.399
 1898TIP3    H1 5635   3.949   5.255   5.388
 1898TIP3    H2 5636   4.049   5.156   5.333
 1899TIP3   OH2 5637   5.891   1.171   3.144
 1899TIP3    H1 5638   5.853   1.221   3.216
 1899TIP3    H2 5639   5.835   1.094   3.137
 1900TIP3   OH2 5640   1.818   1.404   0.322
 1900TIP3    H1 5641   1.727   1.404   0.351
 1900TIP3    H2 5642   1.827   1.484   0.270
 1901TIP3   OH2 5643   5.296   4.219   4.174
 1901TIP3    H1 5644   5.378   4.204   4.127
 1901TIP3    H2 5645   5.240   4.264   4.111
 1902TIP3   OH2 5646   1.427   7.079   4.282
 1902TIP3    H1 5647   1.475   6.999   4.263
 1902TIP3    H2 5648   1.486   7.149   4.255
 1903TIP3   OH2 5649   0.296   0.710   5.311
 1903TIP3    H1 5650   0.392   0.709   5.309
 1903TIP3    H2 5651   0.272   0.621   5.337
 1904TIP3   OH2 5652   0.197   4.022   5.047
 1904TIP3    H1 5653   0.197   3.964   4.971
 1904TIP3    H2 5654   0.281   4.066   5.044
 1905TIP3   OH2 5655   2.051   4.946   3.093
 1905TIP3    H1 5656   2.012   4.860   3.085
 1905TIP3    H2 5657   2.070   4.973   3.003
 1906TIP3   OH2 5658   8.118   1.370   3.730
 1906TIP3    H1 5659   8.180   1.329   3.670
 1906TIP3    H2 5660   8.167   1.442   3.769
 1907TIP3   OH2 5661   6.829   4.188   0.488
 1907TIP3    H1 5662   6.745   4.172   0.530
 1907TIP3    H2 5663   6.876   4.105   0.497
 1908TIP3   OH2 5664   0.336   3.134   2.921
 1908TIP3    H1 5665   0.413   3.113   2.974
 1908TIP3    H2 5666   0.268   3.155   2.984
 1909TIP3   OH2 5667   4.016   2.040   3.738
 1909TIP3    H1 5668   4.034   2.093   3.816
 1909TIP3    H2 5669   3.935   2.078   3.702
 1910TIP3   OH2 5670   6.354   5.123   5.944
 1910TIP3    H1 5671   6.312   5.067   6.009
 1910TIP3    H2 5672   6.348   5.075   5.862
 1911TIP3   OH2 5673   0.435   7.174   6.166
 1911TIP3    H1 5674   0.455   7.178   6.072
 1911TIP3    H2 5675   0.364   7.110   6.173
 1912TIP3   OH2 5676   1.131   1.052   6.524
 1912TIP3    H1 5677   1.167   1.128   6.570
 1912TIP3    H2 5678   1.103   1.086   6.439
 1913TIP3   OH2 5679   4.290   5.642   4.892
 1913TIP3    H1 5680   4.261   5.725   4.930
 1913TIP3    H2 5681   4.209   5.595   4.872
 1914TIP3   OH2 5682   6.156   2.049   5.762
 1914TIP3    H1 5683   6.150   2.098   5.845
 1914TIP3    H2 5684   6.206   2.106   5.705
 1915TIP3   OH2 5685   4.075   5.497   4.796
 1915TIP3    H1 5686   4.057   5.552   4.719
 1915TIP3    H2 5687   3.994   5.447   4.808
 1916TIP3   OH2 5688   7.370   4.019   5.726
 1916TIP3    H1 5689   7.310   4.020   5.801
 1916TIP3    H2 5690   7.432   3.949   5.746
 1917TIP3   OH2 5691   4.588   2.309   3.334
 1917TIP3    H1 5692   4.545   2.276   3.256
 1917TIP3    H2 5693   4.517   2.320   3.398
 1918TIP3   OH2 5694   7.042   6.568   2.230
 1918TIP3    H1 5695   7.049   6.474   2.211
 1918TIP3    H2 5696   7.132   6.600   2.225
 1919TIP3   OH2 5697   5.685   1.150   6.267
 1919TIP3    H1 5698   5.763   1.191   6.305
 1919TIP3    H2 5699   5.649   1.216   6.209
 1920TIP3   OH2 5700   4.975   0.351   1.837
 1920TIP3    H1 5701   5.047   0.360   1.774
 1920TIP3    H2 5702   4.999   0.275   1.889
 1921TIP3   OH2 5703   6.334   0.103   3.111
 1921TIP3    H1 5704   6.350   0.058   3.194
 1921TIP3    H2 5705   6.241   0.088   3.093
 1922TIP3   OH2 5706   0.030   4.795   6.571
 1922TIP3    H1 5707   0.016   4.805   6.477
 1922TIP3    H2 5708   0.073   4.877   6.597
 1923TIP3   OH2 5709   4.489   4.622   5.920
 1923TIP3    H1 5710   4.564   4.681   5.913
 1923TIP3    H2 5711   4.432   4.664   5.985
 1924TIP3   OH2 5712   8.239   3.044   4.390
 1924TIP3    H1 5713   8.310   3.086   4.439
 1924TIP3    H2 5714   8.283   2.979   4.335
 1925TIP3   OH2 5715   5.937   1.207   1.119
 1925TIP3    H1 5716   5.864   1.145   1.119
 1925TIP3    H2 5717   6.010   1.157   1.082
 1926TIP3   OH2 5718   6.473   4.506   4.862
 1926TIP3    H1 5719   6.498   4.561   4.936
 1926TIP3    H2 5720   6.553   4.498   4.810
 1927TIP3   OH2 5721   7.541   5.730   6.425
 1927TIP3    H1 5722   7.568   5.787   6.498
 1927TIP3    H2 5723   7.620   5.720   6.372
 1928TIP3   OH2 5724   6.380   1.095   1.009
 1928TIP3    H1 5725   6.454   1.155   1.015
 1928TIP3    H2 5726   6.413   1.020   0.960
 1929TIP3   OH2 5727   7.834   0.661   1.667
 1929TIP3    H1 5728   7.831   0.566   1.677
 1929TIP3    H2 5729   7.749   0.683   1.630
 1930TIP3   OH2 5730   3.112   1.423   0.184
 1930TIP3    H1 5731   3.168   1.449   0.257
 1930TIP3    H2 5732   3.173   1.389   0.118
 1931TIP3   OH2 5733   4.609   6.215   4.148
 1931TIP3    H1 5734   4.650   6.146   4.097
 1931TIP3    H2 5735   4.680   6.276   4.169
 1932TIP3   OH2 5736   1.776   6.320   4.093
 1932TIP3    H1 5737   1.735   6.311   4.007
 1932TIP3    H2 5738   1.858   6.270   4.086
 1933TIP3   OH2 5739   3.501   5.127   3.723
 1933TIP3    H1 5740   3.510   5.153   3.815
 1933TIP3    H2 5741   3.583   5.083   3.702
 1934TIP3   OH2 5742   4.230   4.092   3.406
 1934TIP3    H1 5743   4.221   4.126   3.495
 1934TIP3    H2 5744   4.320   4.059   3.402
 1935TIP3   OH2 5745   5.957   0.517   5.332
 1935TIP3    H1 5746   5.906   0.592   5.302
 1935TIP3    H2 5747   5.959   0.525   5.427
 1936TIP3   OH2 5748   0.092   6.340   6.193
 1936TIP3    H1 5749   0.105   6.380   6.107
 1936TIP3    H2 5750   0.088   6.246   6.175
 1937TIP3   OH2 5751   6.362   4.237   2.720
 1937TIP3    H1 5752   6.336   4.185   2.643
 1937TIP3    H2 5753   6.425   4.181   2.766
 1938TIP3   OH2 5754   6.372   4.118   4.912
 1938TIP3    H1 5755   6.461   4.134   4.881
 1938TIP3    H2 5756   6.378   4.123   5.007
 1939TIP3   OH2 5757   3.750   1.354   2.225
 1939TIP3    H1 5758   3.816   1.314   2.168
 1939TIP3    H2 5759   3.673   1.296   2.217
 1940TIP3   OH2 5760   0.637   6.654   1.049
 1940TIP3    H1 5761   0.575   6.669   1.120
 1940TIP3    H2 5762   0.706   6.719   1.064
 1941TIP3   OH2 5763   2.471   3.668   2.607
 1941TIP3    H1 5764   2.498   3.661   2.699
 1941TIP3    H2 5765   2.502   3.754   2.579
 1942TIP3   OH2 5766   3.641   2.803   2.960
 1942TIP3    H1 5767   3.682   2.719   2.980
 1942TIP3    H2 5768   3.624   2.800   2.866
 1943TIP3   OH2 5769   6.651   3.029   3.248
 1943TIP3    H1 5770   6.719   3.096   3.240
 1943TIP3    H2 5771   6.695   2.955   3.291
 1944TIP3   OH2 5772   2.863   7.198   0.339
 1944TIP3    H1 5773   2.880   7.226   0.429
 1944TIP3    H2 5774   2.917   7.255   0.285
 1945TIP3   OH2 5775   5.978   3.954   6.312
 1945TIP3    H1 5776   5.967   3.859   6.320
 1945TIP3    H2 5777   6.007   3.981   6.399
 1946TIP3   OH2 5778   3.259   0.086   5.367
 1946TIP3    H1 5779   3.164   0.097   5.366
 1946TIP3    H2 5780   3.273  -0.006   5.346
 1947TIP3   OH2 5781   0.743   4.628   2.214
 1947TIP3    H1 5782   0.671   4.686   2.188
 1947TIP3    H2 5783   0.809   4.640   2.145
 1948TIP3   OH2 5784   0.453   0.475   2.575
 1948TIP3    H1 5785   0.529   0.530   2.594
 1948TIP3    H2 5786   0.422   0.447   2.661
 1949TIP3   OH2 5787   5.991   5.414   1.301
 1949TIP3    H1 5788   6.026   5.501   1.280
 1949TIP3    H2 5789   6.069   5.359   1.308
 1950TIP3   OH2 5790   1.510   6.000   5.504
 1950TIP3    H1 5791   1.492   6.063   5.573
 1950TIP3    H2 5792   1.427   5.990   5.457
 1951TIP3   OH2 5793   1.495   2.840   2.635
 1951TIP3    H1 5794   1.505   2.828   2.730
 1951TIP3    H2 5795   1.478   2.751   2.602
 1952TIP3   OH2 5796   5.126   2.161   2.201
 1952TIP3    H1 5797   5.205   2.193   2.245
 1952TIP3    H2 5798   5.146   2.168   2.108
 1953TIP3   OH2 5799   7.569   6.035   0.995
 1953TIP3    H1 5800   7.484   6.065   0.963
 1953TIP3    H2 5801   7.607   5.986   0.922
 1954TIP3   OH2 5802   7.445   4.496   3.748
 1954TIP3    H1 5803   7.358   4.471   3.778
 1954TIP3    H2 5804   7.457   4.452   3.664
 1955TIP3   OH2 5805   4.361   5.908   1.209
 1955TIP3    H1 5806   4.385   5.815   1.208
 1955TIP3    H2 5807   4.266   5.908   1.222
 1956TIP3   OH2 5808   2.937   6.531   2.909
 1956TIP3    H1 5809   2.895   6.463   2.856
 1956TIP3    H2 5810   3.022   6.495   2.932
 1957TIP3   OH2 5811   5.204   0.453   2.798
 1957TIP3    H1 5812   5.142   0.526   2.804
 1957TIP3    H2 5813   5.186   0.400   2.876
 1958TIP3   OH2 5814   0.270   5.240   6.295
 1958TIP3    H1 5815   0.277   5.147   6.315
 1958TIP3    H2 5816   0.336   5.282   6.350
 1959TIP3   OH2 5817   8.305   7.389   2.020
 1959TIP3    H1 5818   8.227   7.436   2.049
 1959TIP3    H2 5819   8.375   7.420   2.078
 1960TIP3   OH2 5820   7.666   3.428   4.738
 1960TIP3    H1 5821   7.584   3.471   4.714
 1960TIP3    H2 5822   7.730   3.499   4.745
 1961TIP3   OH2 5823   7.064   1.478   4.355
 1961TIP3    H1 5824   7.055   1.435   4.270
 1961TIP3    H2 5825   7.126   1.549   4.339
 1962TIP3   OH2 5826   2.943   3.242   5.096
 1962TIP3    H1 5827   2.904   3.165   5.054
 1962TIP3    H2 5828   2.944   3.219   5.190
 1963TIP3   OH2 5829   2.368   0.623   1.091
 1963TIP3    H1 5830   2.300   0.689   1.079
 1963TIP3    H2 5831   2.324   0.540   1.078
 1964TIP3   OH2 5832   1.830   3.892   2.359
 1964TIP3    H1 5833   1.807   3.839   2.283
 1964TIP3    H2 5834   1.925   3.903   2.354
 1965TIP3   OH2 5835   6.741   7.101   3.037
 1965TIP3    H1 5836   6.807   7.067   3.098
 1965TIP3    H2 5837   6.700   7.174   3.083
 1966TIP3   OH2 5838   1.558   4.115   1.739
 1966TIP3    H1 5839   1.599   4.035   1.769
 1966TIP3    H2 5840   1.529   4.159   1.819
 1967TIP3   OH2 5841   5.344   3.446   2.792
 1967TIP3    H1 5842   5.366   3.383   2.861
 1967TIP3    H2 5843   5.273   3.405   2.743
 1968TIP3   OH2 5844   0.294   2.917   1.694
 1968TIP3    H1 5845   0.273   2.996   1.745
 1968TIP3    H2 5846   0.295   2.947   1.603
 1969TIP3   OH2 5847   5.690   5.089   5.900
 1969TIP3    H1 5848   5.667   5.094   5.807
 1969TIP3    H2 5849   5.675   4.998   5.924
 1970TIP3   OH2 5850   7.667   2.271   2.916
 1970TIP3    H1 5851   7.625   2.229   2.841
 1970TIP3    H2 5852   7.710   2.348   2.880
 1971TIP3   OH2 5853   5.543   4.211   6.750
 1971TIP3    H1 5854   5.630   4.178   6.727
 1971TIP3    H2 5855   5.553   4.306   6.752
 1972TIP3   OH2 5856   5.433   0.346   2.090
 1972TIP3    H1 5857   5.498   0.343   2.020
 1972TIP3    H2 5858   5.468   0.286   2.157
 1973TIP3   OH2 5859   3.970   0.792   6.201
 1973TIP3    H1 5860   3.892   0.842   6.177
 1973TIP3    H2 5861   3.964   0.782   6.296
 1974TIP3   OH2 5862   6.198   0.579   3.672
 1974TIP3    H1 5863   6.283   0.615   3.696
 1974TIP3    H2 5864   6.178   0.621   3.588
 1975TIP3   OH2 5865   7.924   7.235   1.933
 1975TIP3    H1 5866   7.994   7.241   1.998
 1975TIP3    H2 5867   7.878   7.154   1.954
 1976TIP3   OH2 5868   4.541   3.187   0.631
 1976TIP3    H1 5869   4.583   3.134   0.698
 1976TIP3    H2 5870   4.483   3.246   0.679
 1977TIP3   OH2 5871   8.290   4.286   4.562
 1977TIP3    H1 5872   8.314   4.374   4.533
 1977TIP3    H2 5873   8.219   4.259   4.503
 1978TIP3   OH2 5874   4.649   4.993   1.386
 1978TIP3    H1 5875   4.675   4.922   1.444
 1978TIP3    H2 5876   4.623   4.950   1.305
 1979TIP3   OH2 5877   0.220   6.693   2.093
 1979TIP3    H1 5878   0.134   6.669   2.129
 1979TIP3    H2 5879   0.258   6.751   2.159
 1980TIP3   OH2 5880   4.518   7.437   0.920
 1980TIP3    H1 5881   4.604   7.409   0.950
 1980TIP3    H2 5882   4.466   7.356   0.918
 1981TIP3   OH2 5883   0.875   4.204   5.171
 1981TIP3    H1 5884   0.848   4.115   5.191
 1981TIP3    H2 5885   0.827   4.227   5.092
 1982TIP3   OH2 5886   7.726   6.796   3.780
 1982TIP3    H1 5887   7.715   6.891   3.771
 1982TIP3    H2 5888   7.669   6.759   3.713
 1983TIP3   OH2 5889   2.003   3.630   3.179
 1983TIP3    H1 5890   1.935   3.627   3.247
 1983TIP3    H2 5891   2.085   3.641   3.228
 1984TIP3   OH2 5892   0.233   2.232   3.887
 1984TIP3    H1 5893   0.292   2.221   3.813
 1984TIP3    H2 5894   0.287   2.213   3.964
 1985TIP3   OH2 5895   7.733   6.314   1.692
 1985TIP3    H1 5896   7.687   6.269   1.621
 1985TIP3    H2 5897   7.817   6.268   1.699
 1986TIP3   OH2 5898   6.892   7.830   0.084
 1986TIP3    H1 5899   6.820   7.799   0.140
 1986TIP3    H2 5900   6.962   7.852   0.146
 1987TIP3   OH2 5901   2.938   0.328   0.849
 1987TIP3    H1 5902   2.866   0.334   0.912
 1987TIP3    H2 5903   2.988   0.251   0.877
 1988TIP3   OH2 5904   7.000   1.027   3.300
 1988TIP3    H1 5905   6.957   1.078   3.369
 1988TIP3    H2 5906   7.039   0.952   3.346
 1989TIP3   OH2 5907   1.648   4.755   5.215
 1989TIP3    H1 5908   1.612   4.829   5.263
 1989TIP3    H2 5909   1.633   4.679   5.273
 1990TIP3   OH2 5910   7.978   5.034   5.444
 1990TIP3    H1 5911   7.884   5.017   5.431
 1990TIP3    H2 5912   7.985   5.057   5.537
 1991TIP3   OH2 5913   2.181   3.052   0.902
 1991TIP3    H1 5914   2.134   2.987   0.954
 1991TIP3    H2 5915   2.170   3.134   0.951
 1992TIP3   OH2 5916   6.408   5.862   4.461
 1992TIP3    H1 5917   6.390   5.934   4.400
 1992TIP3    H2 5918   6.474   5.809   4.416
 1993TIP3   OH2 5919   6.367   1.834   2.735
 1993TIP3    H1 5920   6.326   1.894   2.796
 1993TIP3    H2 5921   6.354   1.874   2.649
 1994TIP3   OH2 5922   0.588   6.720   5.777
 1994TIP3    H1 5923   0.658   6.785   5.768
 1994TIP3    H2 5924   0.627   6.638   5.748
 1995TIP3   OH2 5925   1.052   2.371   0.357
 1995TIP3    H1 5926   1.115   2.336   0.294
 1995TIP3    H2 5927   1.090   2.455   0.384
 1996TIP3   OH2 5928   0.052   0.505   4.865
 1996TIP3    H1 5929  -0.001   0.576   4.902
 1996TIP3    H2 5930   0.132   0.505   4.917
 1997TIP3   OH2 5931   6.378   6.187   4.381
 1997TIP3    H1 5932   6.392   6.166   4.288
 1997TIP3    H2 5933   6.322   6.264   4.379
 1998TIP3   OH2 5934   3.618   4.487   6.547
 1998TIP3    H1 5935   3.547   4.462   6.606
 1998TIP3    H2 5936   3.574   4.527   6.472
 1999TIP3   OH2 5937   7.709   3.141   1.417
 1999TIP3    H1 5938   7.784   3.091   1.447
 1999TIP3    H2 5939   7.740   3.232   1.412
 2000TIP3   OH2 5940   3.869   3.712   1.008
 2000TIP3    H1 5941   3.778   3.694   0.986
 2000TIP3    H2 5942   3.870   3.806   1.028
 2001TIP3   OH2 5943   2.862   7.311   1.624
 2001TIP3    H1 5944   2.860   7.369   1.700
 2001TIP3    H2 5945   2.790   7.250   1.639
 2002TIP3   OH2 5946   1.120   6.967   3.701
 2002TIP3    H1 5947   1.040   6.973   3.754
 2002TIP3    H2 5948   1.104   6.893   3.643
 2003TIP3   OH2 5949   7.495   1.771   3.239
 2003TIP3    H1 5950   7.456   1.838   3.184
 2003TIP3    H2 5951   7.524   1.818   3.318
 2004TIP3   OH2 5952   5.581   2.346   6.042
 2004TIP3    H1 5953   5.574   2.261   5.999
 2004TIP3    H2 5954   5.591   2.408   5.970
 2005TIP3   OH2 5955   1.042   5.367   0.328
 2005TIP3    H1 5956   1.042   5.401   0.418
 2005TIP3    H2 5957   1.106   5.296   0.329
 2006TIP3   OH2 5958   2.676   0.506   2.789
 2006TIP3    H1 5959   2.687   0.424   2.740
 2006TIP3    H2 5960   2.588   0.536   2.765
 2007TIP3   OH2 5961   3.960   1.651   6.303
 2007TIP3    H1 5962   3.939   1.730   6.352
 2007TIP3    H2 5963   3.922   1.666   6.216
 2008TIP3   OH2 5964   1.039   7.645   0.692
 2008TIP3    H1 5965   1.130   7.663   0.670
 2008TIP3    H2 5966   1.012   7.718   0.747
 2009TIP3   OH2 5967   5.090   2.561   1.416
 2009TIP3    H1 5968   5.173   2.606   1.427
 2009TIP3    H2 5969   5.024   2.630   1.416
 2010TIP3   OH2 5970   4.433   3.174   1.408
 2010TIP3    H1 5971   4.424   3.217   1.493
 2010TIP3    H2 5972   4.403   3.239   1.345
 2011TIP3   OH2 5973   3.845   7.430   1.830
 2011TIP3    H1 5974   3.900   7.414   1.906
 2011TIP3    H2 5975   3.867   7.359   1.769
 2012TIP3   OH2 5976   7.318   0.550   1.886
 2012TIP3    H1 5977   7.253   0.480   1.888
 2012TIP3    H2 5978   7.267   0.630   1.901
 2013TIP3   OH2 5979   2.377   5.891   2.179
 2013TIP3    H1 5980   2.318   5.951   2.225
 2013TIP3    H2 5981   2.458   5.893   2.230
 2014TIP3   OH2 5982   6.394   5.133   0.059
 2014TIP3    H1 5983   6.454   5.118  -0.013
 2014TIP3    H2 5984   6.401   5.227   0.076
 2015TIP3   OH2 5985   6.916   4.985   4.133
 2015TIP3    H1 5986   6.970   5.064   4.132
 2015TIP3    H2 5987   6.838   5.008   4.082
 2016TIP3   OH2 5988   3.282   2.101   1.265
 2016TIP3    H1 5989   3.360   2.144   1.299
 2016TIP3    H2 5990   3.240   2.168   1.210
 2017TIP3   OH2 5991   0.465   2.478   2.948
 2017TIP3    H1 5992   0.529   2.532   2.901
 2017TIP3    H2 5993   0.421   2.429   2.878
 2018TIP3   OH2 5994   2.837   5.166   1.795
 2018TIP3    H1 5995   2.921   5.166   1.749
 2018TIP3    H2 5996   2.773   5.185   1.727
 2019TIP3   OH2 5997   2.870   7.584   5.833
 2019TIP3    H1 5998   2.947   7.545   5.874
 2019TIP3    H2 5999   2.900   7.611   5.747
 2020TIP3   OH2 6000   2.526   7.674   4.973
 2020TIP3    H1 6001   2.528   7.585   4.938
 2020TIP3    H2 6002   2.511   7.729   4.896
 2021TIP3   OH2 6003   0.058   0.392   5.844
 2021TIP3    H1 6004   0.089   0.395   5.753
 2021TIP3    H2 6005  -0.020   0.336   5.841
 2022TIP3   OH2 6006   0.741   3.088   4.395
 2022TIP3    H1 6007   0.699   3.173   4.405
 2022TIP3    H2 6008   0.832   3.104   4.420
 2023TIP3   OH2 6009   0.641   1.999   5.196
 2023TIP3    H1 6010   0.697   2.076   5.195
 2023TIP3    H2 6011   0.636   1.975   5.289
 2024TIP3   OH2 6012   7.308   0.014   6.465
 2024TIP3    H1 6013   7.330   0.060   6.546
 2024TIP3    H2 6014   7.217   0.038   6.447
 2025TIP3   OH2 6015   6.666   6.480   3.248
 2025TIP3    H1 6016   6.584   6.530   3.243
 2025TIP3    H2 6017   6.657   6.427   3.326
 2026TIP3   OH2 6018   3.297   7.699   0.637
 2026TIP3    H1 6019   3.247   7.721   0.715
 2026TIP3    H2 6020   3.372   7.650   0.669
 2027TIP3   OH2 6021   5.286   0.452   6.402
 2027TIP3    H1 6022   5.195   0.478   6.420
 2027TIP3    H2 6023   5.326   0.443   6.489
 2028TIP3   OH2 6024   8.284   1.637   1.811
 2028TIP3    H1 6025   8.356   1.658   1.752
 2028TIP3    H2 6026   8.245   1.558   1.773
 2029TIP3   OH2 6027   0.043   6.656   1.342
 2029TIP3    H1 6028   0.072   6.612   1.422
 2029TIP3    H2 6029  -0.029   6.712   1.370
 2030TIP3   OH2 6030   4.082   2.908   1.389
 2030TIP3    H1 6031   4.033   2.848   1.446
 2030TIP3    H2 6032   4.146   2.852   1.345
 2031TIP3   OH2 6033   1.407   4.791   4.820
 2031TIP3    H1 6034   1.463   4.718   4.848
 2031TIP3    H2 6035   1.369   4.825   4.901
 2032TIP3   OH2 6036   3.749   6.022   3.156
 2032TIP3    H1 6037   3.660   6.009   3.187
 2032TIP3    H2 6038   3.803   5.970   3.217
 2033TIP3   OH2 6039   5.108   3.021   2.895
 2033TIP3    H1 6040   5.180   2.971   2.933
 2033TIP3    H2 6041   5.042   2.955   2.874
 2034TIP3   OH2 6042   5.177   2.390   3.332
 2034TIP3    H1 6043   5.179   2.411   3.426
 2034TIP3    H2 6044   5.269   2.386   3.307
 2035TIP3   OH2 6045   2.935   7.800   1.271
 2035TIP3    H1 6046   2.971   7.889   1.273
 2035TIP3    H2 6047   2.894   7.793   1.185
 2036TIP3   OH2 6048   0.138   1.942   5.496
 2036TIP3    H1 6049   0.116   2.003   5.566
 2036TIP3    H2 6050   0.233   1.932   5.502
 2037TIP3   OH2 6051   3.932   1.737   1.298
 2037TIP3    H1 6052   4.025   1.747   1.320
 2037TIP3    H2 6053   3.886   1.749   1.381
 2038TIP3   OH2 6054   3.721   3.619   0.156
 2038TIP3    H1 6055   3.649   3.674   0.186
 2038TIP3    H2 6056   3.690   3.529   0.168
 2039TIP3   OH2 6057   4.916   0.033   1.717
 2039TIP3    H1 6058   4.934   0.021   1.810
 2039TIP3    H2 6059   4.994  -0.001   1.674
 2040TIP3   OH2 6060   0.828   4.841   2.710
 2040TIP3    H1 6061   0.858   4.864   2.622
 2040TIP3    H2 6062   0.765   4.909   2.733
 2041TIP3   OH2 6063   4.531   7.778   5.495
 2041TIP3    H1 6064   4.540   7.808   5.585
 2041TIP3    H2 6065   4.451   7.726   5.495
 2042TIP3   OH2 6066   2.634   4.243   0.992
 2042TIP3    H1 6067   2.602   4.289   1.069
 2042TIP3    H2 6068   2.647   4.153   1.022
 2043TIP3   OH2 6069   6.548   2.050   4.258
 2043TIP3    H1 6070   6.502   2.103   4.192
 2043TIP3    H2 6071   6.483   1.986   4.286
 2044TIP3   OH2 6072   6.448   4.111   6.413
 2044TIP3    H1 6073   6.540   4.136   6.417
 2044TIP3    H2 6074   6.449   4.015   6.407
 2045TIP3   OH2 6075   3.647   3.855   1.604
 2045TIP3    H1 6076   3.708   3.923   1.577
 2045TIP3    H2 6077   3.605   3.827   1.523
 2046TIP3   OH2 6078   6.877   5.536   3.303
 2046TIP3    H1 6079   6.958   5.587   3.298
 2046TIP3    H2 6080   6.820   5.573   3.236
 2047TIP3   OH2 6081   7.351   5.549   1.848
 2047TIP3    H1 6082   7.389   5.478   1.900
 2047TIP3    H2 6083   7.344   5.513   1.760
 2048TIP3   OH2 6084   7.460   2.294   5.057
 2048TIP3    H1 6085   7.444   2.360   5.125
 2048TIP3    H2 6086   7.443   2.210   5.100
 2049TIP3   OH2 6087   3.079   5.170   0.701
 2049TIP3    H1 6088   3.152   5.222   0.735
 2049TIP3    H2 6089   3.118   5.086   0.676
 2050TIP3   OH2 6090   1.490   1.747   5.230
 2050TIP3    H1 6091   1.457   1.820   5.284
 2050TIP3    H2 6092   1.537   1.691   5.291
 2051TIP3   OH2 6093   7.973   7.068   4.553
 2051TIP3    H1 6094   7.970   7.150   4.505
 2051TIP3    H2 6095   8.036   7.014   4.505
 2052TIP3   OH2 6096   4.293   0.234   1.608
 2052TIP3    H1 6097   4.321   0.178   1.535
 2052TIP3    H2 6098   4.222   0.287   1.571
 2053TIP3   OH2 6099   2.744   1.520   4.461
 2053TIP3    H1 6100   2.783   1.603   4.490
 2053TIP3    H2 6101   2.810   1.482   4.402
 2054TIP3   OH2 6102   1.256   0.371   4.562
 2054TIP3    H1 6103   1.218   0.342   4.479
 2054TIP3    H2 6104   1.347   0.391   4.540
 2055TIP3   OH2 6105   2.727   2.874   0.536
 2055TIP3    H1 6106   2.688   2.958   0.511
 2055TIP3    H2 6107   2.653   2.813   0.538
 2056TIP3   OH2 6108   0.204   0.368   6.488
 2056TIP3    H1 6109   0.166   0.288   6.451
 2056TIP3    H2 6110   0.162   0.439   6.440
 2057TIP3   OH2 6111   7.058   0.671   4.741
 2057TIP3    H1 6112   7.115   0.744   4.718
 2057TIP3    H2 6113   7.101   0.629   4.815
 2058TIP3   OH2 6114   0.619   5.555   3.034
 2058TIP3    H1 6115   0.646   5.613   3.106
 2058TIP3    H2 6116   0.655   5.597   2.956
 2059TIP3   OH2 6117   6.477   2.215   6.106
 2059TIP3    H1 6118   6.457   2.250   6.019
 2059TIP3    H2 6119   6.404   2.244   6.161
 2060TIP3   OH2 6120   7.169   5.027   1.768
 2060TIP3    H1 6121   7.125   5.051   1.849
 2060TIP3    H2 6122   7.201   4.938   1.784
 2061TIP3   OH2 6123   0.808   7.261   6.627
 2061TIP3    H1 6124   0.782   7.327   6.691
 2061TIP3    H2 6125   0.903   7.258   6.632
 2062TIP3   OH2 6126   4.609   7.798   5.756
 2062TIP3    H1 6127   4.567   7.884   5.760
 2062TIP3    H2 6128   4.683   7.806   5.817
 2063TIP3   OH2 6129   6.022   1.038   1.710
 2063TIP3    H1 6130   5.997   0.964   1.656
 2063TIP3    H2 6131   6.079   1.001   1.777
 2064TIP3   OH2 6132   5.358   4.308   3.186
 2064TIP3    H1 6133   5.427   4.285   3.123
 2064TIP3    H2 6134   5.296   4.360   3.135
 2065TIP3   OH2 6135   4.051   5.458   2.586
 2065TIP3    H1 6136   4.052   5.430   2.495
 2065TIP3    H2 6137   4.136   5.432   2.620
 2066TIP3   OH2 6138   0.287   7.200   0.755
 2066TIP3    H1 6139   0.306   7.107   0.743
 2066TIP3    H2 6140   0.193   7.205   0.767
 2067TIP3   OH2 6141   7.927   2.663   0.155
 2067TIP3    H1 6142   7.834   2.684   0.168
 2067TIP3    H2 6143   7.931   2.627   0.066
 2068TIP3   OH2 6144   0.896   4.941   5.509
 2068TIP3    H1 6145   0.940   4.945   5.594
 2068TIP3    H2 6146   0.803   4.928   5.531
 2069TIP3   OH2 6147   5.683   4.284   0.200
 2069TIP3    H1 6148   5.636   4.225   0.140
 2069TIP3    H2 6149   5.771   4.290   0.162
 2070TIP3   OH2 6150   4.612   5.804   3.721
 2070TIP3    H1 6151   4.705   5.786   3.712
 2070TIP3    H2 6152   4.588   5.850   3.640
 2071TIP3   OH2 6153   3.366   1.744   5.398
 2071TIP3    H1 6154   3.284   1.702   5.375
 2071TIP3    H2 6155   3.396   1.785   5.317
 2072TIP3   OH2 6156   4.701   7.460   2.425
 2072TIP3    H1 6157   4.611   7.468   2.458
 2072TIP3    H2 6158   4.741   7.544   2.444
 2073TIP3   OH2 6159   2.890   2.319   5.372
 2073TIP3    H1 6160   2.934   2.235   5.379
 2073TIP3    H2 6161   2.823   2.317   5.440
 2074TIP3   OH2 6162   6.566   6.459   0.288
 2074TIP3    H1 6163   6.601   6.527   0.346
 2074TIP3    H2 6164   6.571   6.379   0.339
 2075TIP3   OH2 6165   7.861   2.191  -0.015
 2075TIP3    H1 6166   7.835   2.218   0.072
 2075TIP3    H2 6167   7.781   2.154  -0.054
 2076TIP3   OH2 6168   6.128   7.637   0.398
 2076TIP3    H1 6169   6.183   7.668   0.470
 2076TIP3    H2 6170   6.189   7.608   0.331
 2077TIP3   OH2 6171   0.815   6.813   4.052
 2077TIP3    H1 6172   0.863   6.850   3.978
 2077TIP3    H2 6173   0.881   6.769   4.105
 2078TIP3   OH2 6174   3.436   7.095   5.992
 2078TIP3    H1 6175   3.453   7.165   5.929
 2078TIP3    H2 6176   3.494   7.113   6.066
 2079TIP3   OH2 6177   6.487   5.701   5.980
 2079TIP3    H1 6178   6.429   5.710   5.905
 2079TIP3    H2 6179   6.443   5.749   6.050
 2080TIP3   OH2 6180   6.314   0.403   4.205
 2080TIP3    H1 6181   6.343   0.338   4.141
 2080TIP3    H2 6182   6.390   0.461   4.216
 2081TIP3   OH2 6183   1.160   0.251   4.328
 2081TIP3    H1 6184   1.073   0.229   4.295
 2081TIP3    H2 6185   1.209   0.170   4.323
 2082TIP3   OH2 6186   6.757   0.995   5.418
 2082TIP3    H1 6187   6.798   0.976   5.333
 2082TIP3    H2 6188   6.707   1.075   5.403
 2083TIP3   OH2 6189   3.217   6.286   2.707
 2083TIP3    H1 6190   3.206   6.319   2.796
 2083TIP3    H2 6191   3.309   6.300   2.688
 2084TIP3   OH2 6192   8.289   3.136   6.358
 2084TIP3    H1 6193   8.256   3.222   6.333
 2084TIP3    H2 6194   8.384   3.144   6.350
 2085TIP3   OH2 6195   7.206   3.217   2.852
 2085TIP3    H1 6196   7.167   3.305   2.850
 2085TIP3    H2 6197   7.297   3.231   2.826
 2086TIP3   OH2 6198   8.182   0.742   6.558
 2086TIP3    H1 6199   8.159   0.783   6.475
 2086TIP3    H2 6200   8.277   0.744   6.560
 2087TIP3   OH2 6201   3.875   2.262   4.416
 2087TIP3    H1 6202   3.786   2.290   4.396
 2087TIP3    H2 6203   3.883   2.175   4.376
 2088TIP3   OH2 6204   1.571   4.638   2.340
 2088TIP3    H1 6205   1.504   4.639   2.409
 2088TIP3    H2 6206   1.636   4.702   2.369
 2089TIP3   OH2 6207   4.954   0.013   1.968
 2089TIP3    H1 6208   5.048   0.006   1.983
 2089TIP3    H2 6209   4.923   0.075   2.034
 2090TIP3   OH2 6210   1.050   5.341   5.693
 2090TIP3    H1 6211   0.959   5.361   5.669
 2090TIP3    H2 6212   1.067   5.395   5.770
 2091TIP3   OH2 6213   2.045   2.345   0.547
 2091TIP3    H1 6214   1.992   2.366   0.624
 2091TIP3    H2 6215   1.984   2.352   0.474
 2092TIP3   OH2 6216   2.149   2.728   3.876
 2092TIP3    H1 6217   2.186   2.775   3.950
 2092TIP3    H2 6218   2.195   2.762   3.799
 2093TIP3   OH2 6219   1.813   2.869   2.332
 2093TIP3    H1 6220   1.765   2.925   2.271
 2093TIP3    H2 6221   1.842   2.795   2.279
 2094TIP3   OH2 6222   6.980   2.354   2.299
 2094TIP3    H1 6223   7.012   2.335   2.387
 2094TIP3    H2 6224   6.952   2.445   2.303
 2095TIP3   OH2 6225   0.047   1.772   3.016
 2095TIP3    H1 6226   0.003   1.805   3.095
 2095TIP3    H2 6227   0.042   1.844   2.953
 2096TIP3   OH2 6228   7.499   4.977   2.660
 2096TIP3    H1 6229   7.571   4.981   2.597
 2096TIP3    H2 6230   7.541   4.985   2.746
 2097TIP3   OH2 6231   8.135   2.036   6.060
 2097TIP3    H1 6232   8.092   2.063   6.142
 2097TIP3    H2 6233   8.082   2.077   5.991
 2098TIP3   OH2 6234   6.715   2.113   0.049
 2098TIP3    H1 6235   6.665   2.032   0.063
 2098TIP3    H2 6236   6.648   2.179   0.030
 2099TIP3   OH2 6237   4.660   4.165   0.781
 2099TIP3    H1 6238   4.691   4.084   0.822
 2099TIP3    H2 6239   4.593   4.198   0.842
 2100TIP3   OH2 6240   3.969   2.337   5.641
 2100TIP3    H1 6241   3.952   2.250   5.606
 2100TIP3    H2 6242   4.047   2.367   5.593
 2101TIP3   OH2 6243   3.242   0.310   4.658
 2101TIP3    H1 6244   3.162   0.361   4.650
 2101TIP3    H2 6245   3.302   0.349   4.595
 2102TIP3   OH2 6246   2.391   3.399   3.798
 2102TIP3    H1 6247   2.469   3.364   3.842
 2102TIP3    H2 6248   2.426   3.460   3.733
 2103TIP3   OH2 6249   4.066   4.807   1.143
 2103TIP3    H1 6250   4.112   4.773   1.220
 2103TIP3    H2 6251   4.136   4.824   1.080
 2104TIP3   OH2 6252   2.858   4.264   0.594
 2104TIP3    H1 6253   2.763   4.273   0.605
 2104TIP3    H2 6254   2.867   4.198   0.526
 2105TIP3   OH2 6255   4.385   3.722   0.142
 2105TIP3    H1 6256   4.431   3.667   0.078
 2105TIP3    H2 6257   4.401   3.678   0.226
 2106TIP3   OH2 6258   7.886   2.928   2.304
 2106TIP3    H1 6259   7.805   2.935   2.253
 2106TIP3    H2 6260   7.949   2.983   2.257
 2107TIP3   OH2 6261   7.563   0.773   5.475
 2107TIP3    H1 6262   7.516   0.856   5.482
 2107TIP3    H2 6263   7.618   0.770   5.553
 2108TIP3   OH2 6264   4.452   5.171   4.870
 2108TIP3    H1 6265   4.546   5.187   4.885
 2108TIP3    H2 6266   4.434   5.090   4.917
 2109TIP3   OH2 6267   6.582   0.863   5.025
 2109TIP3    H1 6268   6.531   0.910   5.091
 2109TIP3    H2 6269   6.627   0.932   4.976
 2110TIP3   OH2 6270   2.020   4.393   6.783
 2110TIP3    H1 6271   2.086   4.450   6.822
 2110TIP3    H2 6272   1.941   4.446   6.781
 2111TIP3   OH2 6273   4.022   5.836   2.935
 2111TIP3    H1 6274   4.082   5.849   3.009
 2111TIP3    H2 6275   3.955   5.903   2.946
 2112TIP3   OH2 6276   5.367   5.031   2.898
 2112TIP3    H1 6277   5.350   4.947   2.856
 2112TIP3    H2 6278   5.456   5.023   2.932
 2113TIP3   OH2 6279   8.052   4.993   1.526
 2113TIP3    H1 6280   8.081   5.035   1.445
 2113TIP3    H2 6281   7.964   5.028   1.541
 2114TIP3   OH2 6282   5.720   1.506   6.671
 2114TIP3    H1 6283   5.727   1.451   6.749
 2114TIP3    H2 6284   5.680   1.587   6.703
 2115TIP3   OH2 6285   7.671   3.150   4.723
 2115TIP3    H1 6286   7.689   3.243   4.707
 2115TIP3    H2 6287   7.583   3.137   4.688
 2116TIP3   OH2 6288   7.689   0.054   4.659
 2116TIP3    H1 6289   7.705   0.001   4.581
 2116TIP3    H2 6290   7.600   0.089   4.646
 2117TIP3   OH2 6291   8.126   3.749   2.554
 2117TIP3    H1 6292   8.034   3.773   2.544
 2117TIP3    H2 6293   8.173   3.832   2.559
 2118TIP3   OH2 6294   2.154   2.901   3.522
 2118TIP3    H1 6295   2.147   2.889   3.427
 2118TIP3    H2 6296   2.063   2.902   3.552
 2119TIP3   OH2 6297   2.844   0.741   4.403
 2119TIP3    H1 6298   2.895   0.791   4.339
 2119TIP3    H2 6299   2.766   0.714   4.356
 2120TIP3   OH2 6300   7.000   6.697   5.045
 2120TIP3    H1 6301   7.020   6.626   5.105
 2120TIP3    H2 6302   6.931   6.662   4.989
 2121TIP3   OH2 6303   4.020   6.236   1.676
 2121TIP3    H1 6304   3.989   6.215   1.588
 2121TIP3    H2 6305   4.053   6.154   1.711
 2122TIP3   OH2 6306   2.587   0.080   5.771
 2122TIP3    H1 6307   2.495   0.054   5.766
 2122TIP3    H2 6308   2.622   0.032   5.846
 2123TIP3   OH2 6309   5.556   6.477   4.524
 2123TIP3    H1 6310   5.514   6.425   4.593
 2123TIP3    H2 6311   5.491   6.478   4.453
 2124TIP3   OH2 6312   0.521   7.561   4.493
 2124TIP3    H1 6313   0.472   7.532   4.569
 2124TIP3    H2 6314   0.483   7.513   4.419
 2125TIP3   OH2 6315   3.615   3.224   2.204
 2125TIP3    H1 6316   3.608   3.133   2.177
 2125TIP3    H2 6317   3.697   3.229   2.252
 2126TIP3   OH2 6318   3.130   2.829   0.008
 2126TIP3    H1 6319   3.068   2.893   0.044
 2126TIP3    H2 6320   3.191   2.880  -0.045
 2127TIP3   OH2 6321   8.072   4.195   4.389
 2127TIP3    H1 6322   8.005   4.189   4.458
 2127TIP3    H2 6323   8.048   4.127   4.327
 2128TIP3   OH2 6324   3.091   7.475   2.493
 2128TIP3    H1 6325   3.041   7.545   2.451
 2128TIP3    H2 6326   3.066   7.480   2.585
 2129TIP3   OH2 6327   3.169   4.487   1.917
 2129TIP3    H1 6328   3.079   4.519   1.908
 2129TIP3    H2 6329   3.202   4.480   1.828
 2130TIP3   OH2 6330   1.426   5.903   2.534
 2130TIP3    H1 6331   1.425   5.977   2.474
 2130TIP3    H2 6332   1.514   5.865   2.525
 2131TIP3   OH2 6333   5.988   3.734   4.222
 2131TIP3    H1 6334   5.932   3.682   4.163
 2131TIP3    H2 6335   5.936   3.742   4.302
 2132TIP3   OH2 6336   7.490   1.696   6.518
 2132TIP3    H1 6337   7.470   1.758   6.588
 2132TIP3    H2 6338   7.560   1.737   6.468
 2133TIP3   OH2 6339   5.600   7.776   4.066
 2133TIP3    H1 6340   5.675   7.782   4.007
 2133TIP3    H2 6341   5.588   7.865   4.099
 2134TIP3   OH2 6342   1.758   2.588   2.572
 2134TIP3    H1 6343   1.773   2.680   2.595
 2134TIP3    H2 6344   1.668   2.586   2.539
 2135TIP3   OH2 6345   4.258   0.593   4.294
 2135TIP3    H1 6346   4.209   0.566   4.215
 2135TIP3    H2 6347   4.347   0.607   4.263
 2136TIP3   OH2 6348   5.894   2.707   3.216
 2136TIP3    H1 6349   5.862   2.718   3.305
 2136TIP3    H2 6350   5.865   2.786   3.170
 2137TIP3   OH2 6351   5.299   5.315   0.817
 2137TIP3    H1 6352   5.307   5.301   0.722
 2137TIP3    H2 6353   5.238   5.389   0.824
 2138TIP3   OH2 6354   6.566   6.367   0.714
 2138TIP3    H1 6355   6.540   6.275   0.713
 2138TIP3    H2 6356   6.633   6.374   0.646
 2139TIP3   OH2 6357   0.844   6.532   5.443
 2139TIP3    H1 6358   0.827   6.563   5.354
 2139TIP3    H2 6359   0.894   6.451   5.431
 2140TIP3   OH2 6360   2.351   6.113   5.618
 2140TIP3    H1 6361   2.303   6.042   5.661
 2140TIP3    H2 6362   2.441   6.102   5.647
 2141TIP3   OH2 6363   7.997   7.920   5.471
 2141TIP3    H1 6364   8.000   7.992   5.534
 2141TIP3    H2 6365   7.996   7.841   5.524
 2142TIP3   OH2 6366   6.620   3.552   2.564
 2142TIP3    H1 6367   6.715   3.539   2.558
 2142TIP3    H2 6368   6.588   3.536   2.475
 2143TIP3   OH2 6369   0.308   3.716   2.750
 2143TIP3    H1 6370   0.239   3.757   2.801
 2143TIP3    H2 6371   0.261   3.670   2.679
 2144TIP3   OH2 6372   4.542   5.428   1.333
 2144TIP3    H1 6373   4.623   5.428   1.282
 2144TIP3    H2 6374   4.557   5.364   1.402
 2145TIP3   OH2 6375   2.384   7.622   2.287
 2145TIP3    H1 6376   2.372   7.597   2.196
 2145TIP3    H2 6377   2.318   7.689   2.303
 2146TIP3   OH2 6378   7.431   0.852   1.808
 2146TIP3    H1 6379   7.410   0.791   1.737
 2146TIP3    H2 6380   7.359   0.843   1.870
 2147TIP3   OH2 6381   3.761   7.405   2.693
 2147TIP3    H1 6382   3.789   7.413   2.601
 2147TIP3    H2 6383   3.765   7.495   2.727
 2148TIP3   OH2 6384   7.208   3.030   4.178
 2148TIP3    H1 6385   7.194   2.965   4.247
 2148TIP3    H2 6386   7.122   3.041   4.138
 2149TIP3   OH2 6387   2.383   0.432   2.441
 2149TIP3    H1 6388   2.377   0.466   2.530
 2149TIP3    H2 6389   2.464   0.468   2.406
 2150TIP3   OH2 6390   7.800   7.707   0.165
 2150TIP3    H1 6391   7.722   7.652   0.174
 2150TIP3    H2 6392   7.873   7.645   0.164
 2151TIP3   OH2 6393   1.910   5.967   0.054
 2151TIP3    H1 6394   1.854   5.938   0.126
 2151TIP3    H2 6395   1.867   5.935  -0.025
 2152TIP3   OH2 6396   2.831   7.768   1.895
 2152TIP3    H1 6397   2.878   7.807   1.821
 2152TIP3    H2 6398   2.851   7.826   1.969
 2153TIP3   OH2 6399   2.569   2.521   2.345
 2153TIP3    H1 6400   2.530   2.579   2.280
 2153TIP3    H2 6401   2.548   2.561   2.430
 2154TIP3   OH2 6402   3.886   7.851   0.658
 2154TIP3    H1 6403   3.812   7.873   0.602
 2154TIP3    H2 6404   3.960   7.845   0.598
 2155TIP3   OH2 6405   7.688   4.916   0.522
 2155TIP3    H1 6406   7.601   4.881   0.537
 2155TIP3    H2 6407   7.673   5.006   0.493
 2156TIP3   OH2 6408   6.503   3.678   1.335
 2156TIP3    H1 6409   6.422   3.711   1.376
 2156TIP3    H2 6410   6.473   3.637   1.254
 2157TIP3   OH2 6411   7.240   1.351   0.633
 2157TIP3    H1 6412   7.232   1.432   0.583
 2157TIP3    H2 6413   7.321   1.361   0.684
 2158TIP3   OH2 6414   4.115   1.771   5.515
 2158TIP3    H1 6415   4.040   1.715   5.497
 2158TIP3    H2 6416   4.117   1.779   5.610
 2159TIP3   OH2 6417   0.597   3.168   3.942
 2159TIP3    H1 6418   0.544   3.229   3.994
 2159TIP3    H2 6419   0.663   3.136   4.003
 2160TIP3   OH2 6420   3.393   6.206   4.537
 2160TIP3    H1 6421   3.444   6.280   4.506
 2160TIP3    H2 6422   3.431   6.185   4.623
 2161TIP3   OH2 6423   0.909   3.436   4.488
 2161TIP3    H1 6424   0.922   3.341   4.484
 2161TIP3    H2 6425   0.990   3.473   4.454
 2162TIP3   OH2 6426   3.585   1.992   6.308
 2162TIP3    H1 6427   3.507   1.941   6.285
 2162TIP3    H2 6428   3.600   1.974   6.400
 2163TIP3   OH2 6429   5.190   2.327   0.146
 2163TIP3    H1 6430   5.098   2.341   0.122
 2163TIP3    H2 6431   5.228   2.414   0.146
 2164TIP3   OH2 6432   8.390   4.445   3.013
 2164TIP3    H1 6433   8.312   4.491   2.982
 2164TIP3    H2 6434   8.398   4.472   3.105
 2165TIP3   OH2 6435   2.085   2.208  -0.007
 2165TIP3    H1 6436   2.113   2.208   0.085
 2165TIP3    H2 6437   1.999   2.249  -0.005
 2166TIP3   OH2 6438   3.846   7.332   3.339
 2166TIP3    H1 6439   3.773   7.333   3.277
 2166TIP3    H2 6440   3.920   7.298   3.288
 2167TIP3   OH2 6441   6.505   4.199   5.161
 2167TIP3    H1 6442   6.536   4.149   5.236
 2167TIP3    H2 6443   6.580   4.254   5.136
 2168TIP3   OH2 6444   5.965   2.168   2.028
 2168TIP3    H1 6445   6.020   2.196   2.101
 2168TIP3    H2 6446   6.024   2.117   1.972
 2169TIP3   OH2 6447   6.241   6.115   5.067
 2169TIP3    H1 6448   6.247   6.170   5.145
 2169TIP3    H2 6449   6.156   6.071   5.075
 2170TIP3   OH2 6450   7.326   3.111   0.439
 2170TIP3    H1 6451   7.341   3.195   0.396
 2170TIP3    H2 6452   7.261   3.068   0.383
 2171TIP3   OH2 6453   0.602   4.738   0.835
 2171TIP3    H1 6454   0.513   4.714   0.808
 2171TIP3    H2 6455   0.599   4.833   0.846
 2172TIP3   OH2 6456   3.489   3.318   3.230
 2172TIP3    H1 6457   3.417   3.323   3.167
 2172TIP3    H2 6458   3.451   3.348   3.312
 2173TIP3   OH2 6459   7.489   4.916   2.280
 2173TIP3    H1 6460   7.517   4.993   2.329
 2173TIP3    H2 6461   7.497   4.943   2.188
 2174TIP3   OH2 6462   6.706   6.596   4.035
 2174TIP3    H1 6463   6.711   6.501   4.025
 2174TIP3    H2 6464   6.790   6.621   4.073
 2175TIP3   OH2 6465   2.130   0.065   6.444
 2175TIP3    H1 6466   2.204   0.048   6.502
 2175TIP3    H2 6467   2.168   0.060   6.356
 2176TIP3   OH2 6468   6.096   3.803   1.037
 2176TIP3    H1 6469   6.148   3.781   1.114
 2176TIP3    H2 6470   6.076   3.896   1.048
 2177TIP3   OH2 6471   5.106   1.458   4.399
 2177TIP3    H1 6472   5.031   1.398   4.398
 2177TIP3    H2 6473   5.069   1.544   4.381
 2178TIP3   OH2 6474   5.626   7.009   4.996
 2178TIP3    H1 6475   5.657   7.032   5.084
 2178TIP3    H2 6476   5.675   6.929   4.974
 2179TIP3   OH2 6477   3.555   2.966   1.706
 2179TIP3    H1 6478   3.472   3.011   1.689
 2179TIP3    H2 6479   3.529   2.877   1.729
 2180TIP3   OH2 6480   5.355   0.328   2.387
 2180TIP3    H1 6481   5.262   0.318   2.404
 2180TIP3    H2 6482   5.398   0.313   2.471
 2181TIP3   OH2 6483   5.088   6.447   0.224
 2181TIP3    H1 6484   4.995   6.465   0.242
 2181TIP3    H2 6485   5.087   6.364   0.176
 2182TIP3   OH2 6486   4.951   7.693   2.918
 2182TIP3    H1 6487   5.014   7.628   2.949
 2182TIP3    H2 6488   4.975   7.773   2.965
 2183TIP3   OH2 6489   6.066   3.155   2.762
 2183TIP3    H1 6490   6.020   3.199   2.833
 2183TIP3    H2 6491   6.154   3.194   2.762
 2184TIP3   OH2 6492   2.131   4.191   2.454
 2184TIP3    H1 6493   2.108   4.187   2.547
 2184TIP3    H2 6494   2.168   4.279   2.442
 2185TIP3   OH2 6495   6.286   5.378   2.083
 2185TIP3    H1 6496   6.205   5.376   2.134
 2185TIP3    H2 6497   6.304   5.472   2.072
 2186TIP3   OH2 6498   2.095   7.146   1.014
 2186TIP3    H1 6499   2.094   7.084   0.942
 2186TIP3    H2 6500   2.025   7.116   1.072
 2187TIP3   OH2 6501   2.632   4.775   4.116
 2187TIP3    H1 6502   2.683   4.734   4.046
 2187TIP3    H2 6503   2.645   4.718   4.192
 2188TIP3   OH2 6504   2.056   0.732   5.616
 2188TIP3    H1 6505   2.115   0.801   5.585
 2188TIP3    H2 6506   2.056   0.741   5.711
 2189TIP3   OH2 6507   5.549   1.789   2.078
 2189TIP3    H1 6508   5.644   1.787   2.077
 2189TIP3    H2 6509   5.525   1.740   2.156
 2190TIP3   OH2 6510   1.708   4.452   4.824
 2190TIP3    H1 6511   1.670   4.539   4.840
 2190TIP3    H2 6512   1.699   4.406   4.908
 2191TIP3   OH2 6513   0.611   5.350   2.700
 2191TIP3    H1 6514   0.675   5.402   2.651
 2191TIP3    H2 6515   0.588   5.403   2.776
 2192TIP3   OH2 6516   1.038   7.661   1.677
 2192TIP3    H1 6517   1.011   7.712   1.753
 2192TIP3    H2 6518   1.082   7.724   1.620
 2193TIP3   OH2 6519   6.374   7.473   1.082
 2193TIP3    H1 6520   6.310   7.403   1.066
 2193TIP3    H2 6521   6.427   7.476   1.002
 2194TIP3   OH2 6522   7.042   1.897   5.059
 2194TIP3    H1 6523   7.080   1.825   5.109
 2194TIP3    H2 6524   6.947   1.883   5.065
 2195TIP3   OH2 6525   4.727   6.918   1.780
 2195TIP3    H1 6526   4.801   6.888   1.726
 2195TIP3    H2 6527   4.738   6.872   1.863
 2196TIP3   OH2 6528   3.510   1.216   5.097
 2196TIP3    H1 6529   3.591   1.251   5.134
 2196TIP3    H2 6530   3.468   1.170   5.170
 2197TIP3   OH2 6531   3.662   1.797   2.519
 2197TIP3    H1 6532   3.703   1.825   2.437
 2197TIP3    H2 6533   3.602   1.727   2.494
 2198TIP3   OH2 6534   3.856   2.719   2.580
 2198TIP3    H1 6535   3.840   2.665   2.503
 2198TIP3    H2 6536   3.874   2.806   2.546
 2199TIP3   OH2 6537   1.904   0.042   5.307
 2199TIP3    H1 6538   1.859  -0.031   5.349
 2199TIP3    H2 6539   1.846   0.068   5.236
 2200TIP3   OH2 6540   5.733   0.137   4.376
 2200TIP3    H1 6541   5.808   0.196   4.376
 2200TIP3    H2 6542   5.685   0.159   4.296
 2201TIP3   OH2 6543   7.455   1.642   1.553
 2201TIP3    H1 6544   7.503   1.685   1.483
 2201TIP3    H2 6545   7.443   1.552   1.522
 2202TIP3   OH2 6546   8.131   4.870   2.813
 2202TIP3    H1 6547   8.132   4.823   2.729
 2202TIP3    H2 6548   8.143   4.961   2.789
 2203TIP3   OH2 6549   3.661   0.955   6.510
 2203TIP3    H1 6550   3.614   0.872   6.502
 2203TIP3    H2 6551   3.704   0.966   6.425
 2204TIP3   OH2 6552   6.685   6.864   5.509
 2204TIP3    H1 6553   6.616   6.877   5.443
 2204TIP3    H2 6554   6.767   6.879   5.461
 2205TIP3   OH2 6555   6.001   3.414   0.705
 2205TIP3    H1 6556   5.946   3.362   0.646
 2205TIP3    H2 6557   6.090   3.384   0.686
 2206TIP3   OH2 6558   6.491   7.276   4.024
 2206TIP3    H1 6559   6.530   7.316   4.101
 2206TIP3    H2 6560   6.509   7.183   4.033
 2207TIP3   OH2 6561   5.554   4.472   6.817
 2207TIP3    H1 6562   5.605   4.496   6.894
 2207TIP3    H2 6563   5.466   4.503   6.837
 2208TIP3   OH2 6564   0.511   3.144   5.293
 2208TIP3    H1 6565   0.470   3.213   5.345
 2208TIP3    H2 6566   0.535   3.188   5.211
 2209TIP3   OH2 6567   5.218   4.920   5.387
 2209TIP3    H1 6568   5.165   4.910   5.467
 2209TIP3    H2 6569   5.221   4.832   5.349
 2210TIP3   OH2 6570   3.460   3.444   0.075
 2210TIP3    H1 6571   3.454   3.413   0.165
 2210TIP3    H2 6572   3.380   3.495   0.061
 2211TIP3   OH2 6573   0.973   3.877   6.335
 2211TIP3    H1 6574   0.912   3.816   6.293
 2211TIP3    H2 6575   1.059   3.840   6.318
 2212TIP3   OH2 6576   2.112   2.713   6.070
 2212TIP3    H1 6577   2.106   2.737   5.977
 2212TIP3    H2 6578   2.194   2.754   6.099
 2213TIP3   OH2 6579   3.356   2.570   5.985
 2213TIP3    H1 6580   3.345   2.620   6.065
 2213TIP3    H2 6581   3.424   2.506   6.006
 2214TIP3   OH2 6582   2.769   5.860   6.746
 2214TIP3    H1 6583   2.794   5.798   6.815
 2214TIP3    H2 6584   2.710   5.921   6.790
 2215TIP3   OH2 6585   0.713   4.710   4.260
 2215TIP3    H1 6586   0.622   4.692   4.285
 2215TIP3    H2 6587   0.723   4.668   4.175
 2216TIP3   OH2 6588   4.870   3.229   2.268
 2216TIP3    H1 6589   4.775   3.238   2.273
 2216TIP3    H2 6590   4.891   3.160   2.331
 2217TIP3   OH2 6591   6.870   6.965   1.749
 2217TIP3    H1 6592   6.823   6.974   1.832
 2217TIP3    H2 6593   6.802   6.939   1.686
 2218TIP3   OH2 6594   4.419   7.082   0.042
 2218TIP3    H1 6595   4.464   7.156   0.082
 2218TIP3    H2 6596   4.435   7.009   0.103
 2219TIP3   OH2 6597   2.178   4.026   1.892
 2219TIP3    H1 6598   2.138   4.038   1.979
 2219TIP3    H2 6599   2.104   4.012   1.833
 2220TIP3   OH2 6600   6.331   6.987   1.991
 2220TIP3    H1 6601   6.372   6.906   2.020
 2220TIP3    H2 6602   6.351   7.050   2.061
 2221TIP3   OH2 6603   5.174   4.928   3.724
 2221TIP3    H1 6604   5.145   4.907   3.812
 2221TIP3    H2 6605   5.201   4.845   3.686
 2222TIP3   OH2 6606   1.430   5.257   2.639
 2222TIP3    H1 6607   1.458   5.165   2.642
 2222TIP3    H2 6608   1.428   5.279   2.546
 2223TIP3   OH2 6609   0.576   5.630   4.640
 2223TIP3    H1 6610   0.510   5.562   4.628
 2223TIP3    H2 6611   0.532   5.697   4.692
 2224TIP3   OH2 6612   7.258   1.803   6.665
 2224TIP3    H1 6613   7.314   1.877   6.641
 2224TIP3    H2 6614   7.180   1.812   6.610
 2225TIP3   OH2 6615   1.252   4.808   4.597
 2225TIP3    H1 6616   1.259   4.813   4.692
 2225TIP3    H2 6617   1.340   4.788   4.567
 2226TIP3   OH2 6618   8.161   5.133   2.718
 2226TIP3    H1 6619   8.209   5.207   2.682
 2226TIP3    H2 6620   8.106   5.171   2.787
 2227TIP3   OH2 6621   7.497   3.246   6.665
 2227TIP3    H1 6622   7.423   3.227   6.607
 2227TIP3    H2 6623   7.457   3.260   6.751
 2228TIP3   OH2 6624   5.632   2.039   2.247
 2228TIP3    H1 6625   5.688   2.113   2.271
 2228TIP3    H2 6626   5.619   2.049   2.153
 2229TIP3   OH2 6627   4.063   3.130   2.764
 2229TIP3    H1 6628   4.010   3.052   2.771
 2229TIP3    H2 6629   4.010   3.199   2.804
 2230TIP3   OH2 6630   7.196   5.997   5.533
 2230TIP3    H1 6631   7.170   5.937   5.463
 2230TIP3    H2 6632   7.262   6.054   5.493
 2231TIP3   OH2 6633   6.098   2.448   0.405
 2231TIP3    H1 6634   6.117   2.473   0.315
 2231TIP3    H2 6635   6.122   2.525   0.457
 2232TIP3   OH2 6636   6.278   2.363   1.384
 2232TIP3    H1 6637   6.202   2.408   1.347
 2232TIP3    H2 6638   6.346   2.430   1.388
 2233TIP3   OH2 6639   4.294   2.940   6.433
 2233TIP3    H1 6640   4.202   2.924   6.411
 2233TIP3    H2 6641   4.324   3.003   6.367
 2234TIP3   OH2 6642  -0.021   1.944   1.018
 2234TIP3    H1 6643   0.062   1.985   1.043
 2234TIP3    H2 6644  -0.001   1.893   0.940
 2235TIP3   OH2 6645   6.400   4.815   0.629
 2235TIP3    H1 6646   6.355   4.898   0.612
 2235TIP3    H2 6647   6.468   4.811   0.562
 2236TIP3   OH2 6648   4.064   7.736   3.530
 2236TIP3    H1 6649   4.113   7.656   3.545
 2236TIP3    H2 6650   4.102   7.773   3.450
 2237TIP3   OH2 6651   2.681   5.842   1.741
 2237TIP3    H1 6652   2.650   5.891   1.665
 2237TIP3    H2 6653   2.776   5.853   1.740
 2238TIP3   OH2 6654   5.090   2.114   4.057
 2238TIP3    H1 6655   5.139   2.196   4.057
 2238TIP3    H2 6656   4.999   2.139   4.042
 2239TIP3   OH2 6657   6.456   6.858   0.413
 2239TIP3    H1 6658   6.388   6.878   0.348
 2239TIP3    H2 6659   6.522   6.809   0.364
 2240TIP3   OH2 6660   4.248   4.901   5.802
 2240TIP3    H1 6661   4.275   4.811   5.785
 2240TIP3    H2 6662   4.227   4.903   5.895
 2241TIP3   OH2 6663   7.364   3.669   1.383
 2241TIP3    H1 6664   7.343   3.575   1.386
 2241TIP3    H2 6665   7.376   3.693   1.475
 2242TIP3   OH2 6666   1.288   6.991   6.012
 2242TIP3    H1 6667   1.353   6.986   5.941
 2242TIP3    H2 6668   1.304   6.912   6.065
 2243TIP3   OH2 6669   6.728   1.823   1.036
 2243TIP3    H1 6670   6.696   1.787   1.119
 2243TIP3    H2 6671   6.649   1.854   0.992
 2244TIP3   OH2 6672   3.630   1.229   4.540
 2244TIP3    H1 6673   3.647   1.229   4.446
 2244TIP3    H2 6674   3.616   1.137   4.561
 2245TIP3   OH2 6675   6.060   4.363   0.514
 2245TIP3    H1 6676   6.087   4.274   0.540
 2245TIP3    H2 6677   5.966   4.356   0.500
 2246TIP3   OH2 6678   2.353   7.496   2.032
 2246TIP3    H1 6679   2.395   7.431   2.090
 2246TIP3    H2 6680   2.413   7.504   1.958
 2247TIP3   OH2 6681   5.965   1.824   4.264
 2247TIP3    H1 6682   5.964   1.841   4.170
 2247TIP3    H2 6683   5.912   1.894   4.302
 2248TIP3   OH2 6684   7.612   1.024   2.229
 2248TIP3    H1 6685   7.670   1.027   2.306
 2248TIP3    H2 6686   7.665   1.062   2.159
 2249TIP3   OH2 6687   3.497   7.240   2.764
 2249TIP3    H1 6688   3.535   7.152   2.762
 2249TIP3    H2 6689   3.572   7.298   2.751
 2250TIP3   OH2 6690   2.724   1.209   1.379
 2250TIP3    H1 6691   2.747   1.263   1.303
 2250TIP3    H2 6692   2.706   1.122   1.342
 2251TIP3   OH2 6693   6.969   7.345   2.634
 2251TIP3    H1 6694   6.961   7.310   2.723
 2251TIP3    H2 6695   7.057   7.320   2.606
 2252TIP3   OH2 6696   1.027   3.382   0.094
 2252TIP3    H1 6697   0.944   3.337   0.079
 2252TIP3    H2 6698   1.034   3.388   0.189
 2253TIP3   OH2 6699   4.257   2.040   3.452
 2253TIP3    H1 6700   4.331   1.982   3.472
 2253TIP3    H2 6701   4.262   2.053   3.358
 2254TIP3   OH2 6702   2.049   4.851   6.242
 2254TIP3    H1 6703   1.960   4.882   6.224
 2254TIP3    H2 6704   2.038   4.786   6.311
 2255TIP3   OH2 6705   3.355   6.244   5.462
 2255TIP3    H1 6706   3.401   6.250   5.545
 2255TIP3    H2 6707   3.266   6.217   5.485
 2256TIP3   OH2 6708   0.106   1.584   2.265
 2256TIP3    H1 6709   0.040   1.571   2.197
 2256TIP3    H2 6710   0.063   1.558   2.346
 2257TIP3   OH2 6711   3.594   1.646   4.263
 2257TIP3    H1 6712   3.500   1.627   4.262
 2257TIP3    H2 6713   3.618   1.649   4.171
 2258TIP3   OH2 6714   0.206   3.337   3.770
 2258TIP3    H1 6715   0.224   3.243   3.772
 2258TIP3    H2 6716   0.201   3.363   3.862
 2259TIP3   OH2 6717   8.123   3.546   2.754
 2259TIP3    H1 6718   8.028   3.538   2.743
 2259TIP3    H2 6719   8.147   3.621   2.700
 2260TIP3   OH2 6720   7.704   5.681   1.527
 2260TIP3    H1 6721   7.633   5.647   1.473
 2260TIP3    H2 6722   7.711   5.619   1.600
 2261TIP3   OH2 6723   0.810   2.214   2.880
 2261TIP3    H1 6724   0.851   2.279   2.937
 2261TIP3    H2 6725   0.794   2.261   2.798
 2262TIP3   OH2 6726   3.971   6.015   6.229
 2262TIP3    H1 6727   3.952   5.940   6.286
 2262TIP3    H2 6728   3.902   6.014   6.163
 2263TIP3   OH2 6729   2.028   7.644   3.035
 2263TIP3    H1 6730   2.036   7.739   3.049
 2263TIP3    H2 6731   2.096   7.607   3.091
 2264TIP3   OH2 6732   3.551   7.842   5.484
 2264TIP3    H1 6733   3.608   7.765   5.495
 2264TIP3    H2 6734   3.510   7.830   5.399
 2265TIP3   OH2 6735   1.216   6.923   1.662
 2265TIP3    H1 6736   1.275   6.935   1.737
 2265TIP3    H2 6737   1.191   7.012   1.637
 2266TIP3   OH2 6738   5.606   6.437   5.178
 2266TIP3    H1 6739   5.618   6.489   5.099
 2266TIP3    H2 6740   5.694   6.426   5.213
 2267TIP3   OH2 6741   5.044   2.530   3.159
 2267TIP3    H1 6742   5.086   2.475   3.225
 2267TIP3    H2 6743   4.965   2.481   3.134
 2268TIP3   OH2 6744   7.010   5.823   3.811
 2268TIP3    H1 6745   6.985   5.750   3.753
 2268TIP3    H2 6746   6.997   5.789   3.899
 2269TIP3   OH2 6747   3.877   0.852   2.889
 2269TIP3    H1 6748   3.890   0.822   2.980
 2269TIP3    H2 6749   3.782   0.851   2.877
 2270TIP3   OH2 6750   1.535   5.592   3.483
 2270TIP3    H1 6751   1.463   5.641   3.444
 2270TIP3    H2 6752   1.586   5.560   3.409
 2271TIP3   OH2 6753   5.720   5.404   6.815
 2271TIP3    H1 6754   5.725   5.359   6.899
 2271TIP3    H2 6755   5.770   5.349   6.755
 2272TIP3   OH2 6756   6.659   5.129   1.365
 2272TIP3    H1 6757   6.573   5.132   1.322
 2272TIP3    H2 6758   6.721   5.124   1.292
 2273TIP3   OH2 6759   7.340   1.523   4.359
 2273TIP3    H1 6760   7.381   1.581   4.295
 2273TIP3    H2 6761   7.375   1.552   4.443
 2274TIP3   OH2 6762   6.251   6.649   0.679
 2274TIP3    H1 6763   6.264   6.652   0.585
 2274TIP3    H2 6764   6.160   6.621   0.690
 2275TIP3   OH2 6765   4.087   4.203   1.468
 2275TIP3    H1 6766   4.048   4.281   1.429
 2275TIP3    H2 6767   4.123   4.234   1.551
 2276TIP3   OH2 6768   4.320   5.555   3.772
 2276TIP3    H1 6769   4.409   5.532   3.746
 2276TIP3    H2 6770   4.320   5.548   3.867
 2277TIP3   OH2 6771   5.598   6.622   2.009
 2277TIP3    H1 6772   5.661   6.660   1.948
 2277TIP3    H2 6773   5.649   6.561   2.062
 2278TIP3   OH2 6774   4.707   3.738   4.163
 2278TIP3    H1 6775   4.635   3.796   4.189
 2278TIP3    H2 6776   4.786   3.787   4.185
 2279TIP3   OH2 6777   4.268   5.121   1.403
 2279TIP3    H1 6778   4.329   5.092   1.334
 2279TIP3    H2 6779   4.214   5.187   1.361
 2280TIP3   OH2 6780   6.326   1.474   0.472
 2280TIP3    H1 6781   6.259   1.406   0.467
 2280TIP3    H2 6782   6.290   1.547   0.422
 2281TIP3   OH2 6783   0.355   1.503   0.540
 2281TIP3    H1 6784   0.333   1.419   0.499
 2281TIP3    H2 6785   0.449   1.495   0.561
 2282TIP3   OH2 6786   8.299   0.632   2.861
 2282TIP3    H1 6787   8.226   0.687   2.832
 2282TIP3    H2 6788   8.350   0.617   2.781
 2283TIP3   OH2 6789   4.813   5.760   1.704
 2283TIP3    H1 6790   4.773   5.808   1.776
 2283TIP3    H2 6791   4.831   5.827   1.638
 2284TIP3   OH2 6792   5.781   1.617   1.478
 2284TIP3    H1 6793   5.781   1.661   1.393
 2284TIP3    H2 6794   5.874   1.604   1.498
 2285TIP3   OH2 6795   6.654   2.003   3.955
 2285TIP3    H1 6796   6.723   2.068   3.943
 2285TIP3    H2 6797   6.573   2.054   3.956
 2286TIP3   OH2 6798   8.214   1.923   5.574
 2286TIP3    H1 6799   8.270   1.976   5.630
 2286TIP3    H2 6800   8.197   1.978   5.497
 2287TIP3   OH2 6801   4.448   7.598   3.611
 2287TIP3    H1 6802   4.355   7.574   3.615
 2287TIP3    H2 6803   4.451   7.672   3.551
 2288TIP3   OH2 6804   2.736   6.976   4.469
 2288TIP3    H1 6805   2.800   6.967   4.398
 2288TIP3    H2 6806   2.659   6.928   4.439
 2289TIP3   OH2 6807   3.226   2.896   6.398
 2289TIP3    H1 6808   3.254   2.975   6.352
 2289TIP3    H2 6809   3.190   2.928   6.481
 2290TIP3   OH2 6810   2.029   3.007   4.818
 2290TIP3    H1 6811   1.957   2.951   4.788
 2290TIP3    H2 6812   1.985   3.081   4.859
 2291TIP3   OH2 6813   3.812   4.577   2.600
 2291TIP3    H1 6814   3.743   4.642   2.589
 2291TIP3    H2 6815   3.778   4.516   2.666
 2292TIP3   OH2 6816   8.007   1.463   6.158
 2292TIP3    H1 6817   7.927   1.411   6.154
 2292TIP3    H2 6818   8.054   1.440   6.077
 2293TIP3   OH2 6819   5.585   2.046   4.199
 2293TIP3    H1 6820   5.540   1.962   4.207
 2293TIP3    H2 6821   5.568   2.089   4.283
 2294TIP3   OH2 6822   8.073   2.826   4.079
 2294TIP3    H1 6823   8.023   2.745   4.063
 2294TIP3    H2 6824   8.134   2.831   4.006
 2295TIP3   OH2 6825   2.690   6.986   4.048
 2295TIP3    H1 6826   2.606   7.030   4.064
 2295TIP3    H2 6827   2.667   6.903   4.008
 2296TIP3   OH2 6828   7.296   2.640   0.275
 2296TIP3    H1 6829   7.310   2.636   0.181
 2296TIP3    H2 6830   7.379   2.672   0.311
 2297TIP3   OH2 6831   2.550   0.765   5.073
 2297TIP3    H1 6832   2.503   0.848   5.061
 2297TIP3    H2 6833   2.561   0.757   5.168
 2298TIP3   OH2 6834   1.929   1.009   5.978
 2298TIP3    H1 6835   1.857   1.056   5.936
 2298TIP3    H2 6836   1.994   1.077   5.996
 2299TIP3   OH2 6837   5.310   0.471   5.102
 2299TIP3    H1 6838   5.344   0.514   5.024
 2299TIP3    H2 6839   5.384   0.469   5.162
 2300TIP3   OH2 6840   2.593   1.040   5.711
 2300TIP3    H1 6841   2.538   1.069   5.783
 2300TIP3    H2 6842   2.613   1.120   5.662
 2301TIP3   OH2 6843   3.553   3.975   0.474
 2301TIP3    H1 6844   3.495   3.986   0.549
 2301TIP3    H2 6845   3.615   4.048   0.481
 2302TIP3   OH2 6846   4.213   0.872   4.806
 2302TIP3    H1 6847   4.177   0.803   4.862
 2302TIP3    H2 6848   4.301   0.841   4.784
 2303TIP3   OH2 6849   6.221   3.838   6.471
 2303TIP3    H1 6850   6.218   3.926   6.434
 2303TIP3    H2 6851   6.142   3.795   6.438
 2304TIP3   OH2 6852   4.695   7.735   3.955
 2304TIP3    H1 6853   4.641   7.685   3.894
 2304TIP3    H2 6854   4.776   7.752   3.908
 2305TIP3   OH2 6855   7.688   1.671   6.824
 2305TIP3    H1 6856   7.690   1.767   6.819
 2305TIP3    H2 6857   7.729   1.650   6.908
 2306TIP3   OH2 6858   7.587   4.161   5.153
 2306TIP3    H1 6859   7.623   4.083   5.194
 2306TIP3    H2 6860   7.551   4.212   5.226
 2307TIP3   OH2 6861   5.152   1.249   6.669
 2307TIP3    H1 6862   5.240   1.271   6.701
 2307TIP3    H2 6863   5.136   1.161   6.701
 2308TIP3   OH2 6864   1.406   1.543   2.249
 2308TIP3    H1 6865   1.389   1.608   2.318
 2308TIP3    H2 6866   1.395   1.592   2.167
 2309TIP3   OH2 6867   4.673   6.227   1.955
 2309TIP3    H1 6868   4.738   6.297   1.953
 2309TIP3    H2 6869   4.604   6.261   2.012
 2310TIP3   OH2 6870   3.808   2.671   1.822
 2310TIP3    H1 6871   3.741   2.607   1.846
 2310TIP3    H2 6872   3.811   2.731   1.897
 2311TIP3   OH2 6873   1.525   1.149   0.308
 2311TIP3    H1 6874   1.575   1.108   0.379
 2311TIP3    H2 6875   1.506   1.078   0.247
 2312TIP3   OH2 6876   4.167   1.706   4.921
 2312TIP3    H1 6877   4.132   1.676   5.005
 2312TIP3    H2 6878   4.095   1.695   4.859
 2313TIP3   OH2 6879   5.260   5.031   0.528
 2313TIP3    H1 6880   5.169   5.055   0.546
 2313TIP3    H2 6881   5.253   4.952   0.473
 2314TIP3   OH2 6882   4.648   4.568   2.363
 2314TIP3    H1 6883   4.721   4.540   2.308
 2314TIP3    H2 6884   4.572   4.566   2.306
 2315TIP3   OH2 6885   1.255   2.555   3.031
 2315TIP3    H1 6886   1.300   2.499   3.094
 2315TIP3    H2 6887   1.300   2.639   3.037
 2316TIP3   OH2 6888   8.324   1.562   2.466
 2316TIP3    H1 6889   8.290   1.651   2.477
 2316TIP3    H2 6890   8.262   1.506   2.512
 2317TIP3   OH2 6891   8.235   3.383   0.093
 2317TIP3    H1 6892   8.266   3.471   0.116
 2317TIP3    H2 6893   8.146   3.397   0.060
 2318TIP3   OH2 6894   7.969   2.365   0.584
 2318TIP3    H1 6895   8.019   2.405   0.655
 2318TIP3    H2 6896   8.021   2.288   0.559
 2319TIP3   OH2 6897   0.140   7.081   6.543
 2319TIP3    H1 6898   0.131   7.102   6.450
 2319TIP3    H2 6899   0.233   7.090   6.562
 2320TIP3   OH2 6900   1.796   5.119   3.561
 2320TIP3    H1 6901   1.785   5.162   3.476
 2320TIP3    H2 6902   1.888   5.092   3.562
 2321TIP3   OH2 6903   7.896   0.376   2.900
 2321TIP3    H1 6904   7.940   0.416   2.825
 2321TIP3    H2 6905   7.963   0.371   2.968
 2322TIP3   OH2 6906   5.571   0.119   6.590
 2322TIP3    H1 6907   5.528   0.172   6.522
 2322TIP3    H2 6908   5.638   0.177   6.627
 2323TIP3   OH2 6909   6.532   5.227   2.373
 2323TIP3    H1 6910   6.579   5.201   2.452
 2323TIP3    H2 6911   6.554   5.319   2.361
 2324TIP3   OH2 6912   3.877   5.324   1.669
 2324TIP3    H1 6913   3.903   5.405   1.712
 2324TIP3    H2 6914   3.813   5.285   1.728
 2325TIP3   OH2 6915   0.575   7.764   1.484
 2325TIP3    H1 6916   0.578   7.857   1.462
 2325TIP3    H2 6917   0.605   7.719   1.405
 2326TIP3   OH2 6918   0.208   4.974   5.508
 2326TIP3    H1 6919   0.243   5.029   5.438
 2326TIP3    H2 6920   0.151   4.912   5.465
 2327TIP3   OH2 6921   4.990   2.232   2.425
 2327TIP3    H1 6922   4.897   2.212   2.417
 2327TIP3    H2 6923   5.028   2.209   2.340
 2328TIP3   OH2 6924   7.309   4.065   6.386
 2328TIP3    H1 6925   7.318   3.969   6.393
 2328TIP3    H2 6926   7.216   4.079   6.371
 2329TIP3   OH2 6927   4.507   5.315   6.069
 2329TIP3    H1 6928   4.445   5.244   6.049
 2329TIP3    H2 6929   4.586   5.292   6.021
 2330TIP3   OH2 6930   8.369   3.158   2.439
 2330TIP3    H1 6931   8.354   3.232   2.381
 2330TIP3    H2 6932   8.326   3.183   2.521
 2331TIP3   OH2 6933   8.062   1.211   6.635
 2331TIP3    H1 6934   8.027   1.262   6.562
 2331TIP3    H2 6935   8.120   1.271   6.681
 2332TIP3   OH2 6936   0.472   3.919   0.726
 2332TIP3    H1 6937   0.402   3.898   0.664
 2332TIP3    H2 6938   0.526   3.840   0.729
 2333TIP3   OH2 6939   6.044   6.780   2.128
 2333TIP3    H1 6940   6.045   6.815   2.038
 2333TIP3    H2 6941   6.008   6.851   2.181
 2334TIP3   OH2 6942   7.392   1.121   2.647
 2334TIP3    H1 6943   7.349   1.038   2.666
 2334TIP3    H2 6944   7.345   1.156   2.571
 2335TIP3   OH2 6945   5.201   3.190   2.494
 2335TIP3    H1 6946   5.167   3.198   2.583
 2335TIP3    H2 6947   5.227   3.279   2.470
 2336TIP3   OH2 6948   3.414   7.778   4.698
 2336TIP3    H1 6949   3.328   7.737   4.706
 2336TIP3    H2 6950   3.444   7.789   4.788
 2337TIP3   OH2 6951   5.490   5.747   2.556
 2337TIP3    H1 6952   5.417   5.809   2.553
 2337TIP3    H2 6953   5.497   5.714   2.466
 2338TIP3   OH2 6954   5.687   6.852   2.833
 2338TIP3    H1 6955   5.615   6.858   2.895
 2338TIP3    H2 6956   5.685   6.762   2.801
 2339TIP3   OH2 6957   2.158   5.855   1.212
 2339TIP3    H1 6958   2.170   5.808   1.295
 2339TIP3    H2 6959   2.063   5.869   1.206
 2340TIP3   OH2 6960   7.347   1.044   5.434
 2340TIP3    H1 6961   7.410   1.025   5.504
 2340TIP3    H2 6962   7.383   1.120   5.389
 2341TIP3   OH2 6963   7.312   6.170   0.392
 2341TIP3    H1 6964   7.331   6.190   0.484
 2341TIP3    H2 6965   7.399   6.163   0.352
 2342TIP3   OH2 6966   3.327   2.364   6.542
 2342TIP3    H1 6967   3.417   2.393   6.526
 2342TIP3    H2 6968   3.292   2.344   6.456
 2343TIP3   OH2 6969   3.318   6.913   3.441
 2343TIP3    H1 6970   3.349   6.896   3.352
 2343TIP3    H2 6971   3.254   6.844   3.458
 2344TIP3   OH2 6972   2.396   5.472   5.507
 2344TIP3    H1 6973   2.392   5.389   5.458
 2344TIP3    H2 6974   2.369   5.538   5.443
 2345TIP3   OH2 6975   6.188   6.796   5.022
 2345TIP3    H1 6976   6.229   6.788   5.109
 2345TIP3    H2 6977   6.261   6.816   4.964
 2346TIP3   OH2 6978   5.912   3.788   0.122
 2346TIP3    H1 6979   5.975   3.841   0.171
 2346TIP3    H2 6980   5.871   3.733   0.189
 2347TIP3   OH2 6981   6.694   1.087   4.829
 2347TIP3    H1 6982   6.766   1.149   4.842
 2347TIP3    H2 6983   6.693   1.071   4.735
 2348TIP3   OH2 6984   4.343   4.974   4.263
 2348TIP3    H1 6985   4.417   4.928   4.223
 2348TIP3    H2 6986   4.375   5.062   4.280
 2349TIP3   OH2 6987   1.402   0.977   1.127
 2349TIP3    H1 6988   1.425   0.926   1.049
 2349TIP3    H2 6989   1.350   0.917   1.180
 2350TIP3   OH2 6990   7.531   1.313   1.982
 2350TIP3    H1 6991   7.507   1.390   1.930
 2350TIP3    H2 6992   7.544   1.244   1.917
 2351TIP3   OH2 6993   4.304   3.723   2.107
 2351TIP3    H1 6994   4.276   3.814   2.110
 2351TIP3    H2 6995   4.337   3.705   2.195
 2352TIP3   OH2 6996   6.198   4.878   3.075
 2352TIP3    H1 6997   6.196   4.820   2.998
 2352TIP3    H2 6998   6.118   4.930   3.067
 2353TIP3   OH2 6999   5.360   5.968   1.003
 2353TIP3    H1 7000   5.435   5.943   0.948
 2353TIP3    H2 7001   5.327   6.049   0.963
 2354TIP3   OH2 7002   3.905   1.500   0.922
 2354TIP3    H1 7003   3.915   1.468   1.011
 2354TIP3    H2 7004   3.976   1.458   0.874
 2355TIP3   OH2 7005   2.661   2.135   5.662
 2355TIP3    H1 7006   2.653   2.041   5.648
 2355TIP3    H2 7007   2.750   2.147   5.694
 2356TIP3   OH2 7008   2.822   0.333   1.627
 2356TIP3    H1 7009   2.815   0.278   1.549
 2356TIP3    H2 7010   2.738   0.379   1.630
 2357TIP3   OH2 7011   0.003   1.234   5.955
 2357TIP3    H1 7012   0.098   1.233   5.959
 2357TIP3    H2 7013  -0.018   1.282   5.876
 2358TIP3   OH2 7014   3.583   7.186   2.064
 2358TIP3    H1 7015   3.653   7.121   2.075
 2358TIP3    H2 7016   3.515   7.159   2.125
 2359TIP3   OH2 7017   6.604   4.831   6.484
 2359TIP3    H1 7018   6.641   4.911   6.446
 2359TIP3    H2 7019   6.510   4.847   6.485
 2360TIP3   OH2 7020   2.811   1.165   3.277
 2360TIP3    H1 7021   2.800   1.164   3.182
 2360TIP3    H2 7022   2.804   1.073   3.303
 2361TIP3   OH2 7023   3.086   2.187   4.429
 2361TIP3    H1 7024   3.169   2.227   4.456
 2361TIP3    H2 7025   3.049   2.250   4.367
 2362TIP3   OH2 7026   3.829   0.355   3.463
 2362TIP3    H1 7027   3.736   0.342   3.446
 2362TIP3    H2 7028   3.832   0.411   3.540
 2363TIP3   OH2 7029   6.930   3.346   5.433
 2363TIP3    H1 7030   6.906   3.366   5.342
 2363TIP3    H2 7031   7.018   3.380   5.443
 2364TIP3   OH2 7032   7.530   2.022   2.263
 2364TIP3    H1 7033   7.621   1.994   2.275
 2364TIP3    H2 7034   7.487   2.000   2.346
 2365TIP3   OH2 7035   1.737   6.197   5.405
 2365TIP3    H1 7036   1.707   6.210   5.494
 2365TIP3    H2 7037   1.715   6.106   5.384
 2366TIP3   OH2 7038   2.800   4.382   3.751
 2366TIP3    H1 7039   2.819   4.385   3.845
 2366TIP3    H2 7040   2.872   4.331   3.714
 2367TIP3   OH2 7041   2.962   4.171   0.345
 2367TIP3    H1 7042   2.907   4.123   0.283
 2367TIP3    H2 7043   3.041   4.193   0.295
 2368TIP3   OH2 7044   4.948   6.312   1.866
 2368TIP3    H1 7045   5.039   6.330   1.891
 2368TIP3    H2 7046   4.952   6.293   1.772
 2369TIP3   OH2 7047   1.650   7.636   0.918
 2369TIP3    H1 7048   1.651   7.542   0.935
 2369TIP3    H2 7049   1.588   7.671   0.982
 2370TIP3   OH2 7050   5.322   7.272   1.182
 2370TIP3    H1 7051   5.282   7.344   1.133
 2370TIP3    H2 7052   5.378   7.227   1.119
 2371TIP3   OH2 7053   1.364   2.323   6.442
 2371TIP3    H1 7054   1.359   2.419   6.439
 2371TIP3    H2 7055   1.302   2.294   6.375
 2372TIP3   OH2 7056   1.982   2.103   6.687
 2372TIP3    H1 7057   1.934   2.176   6.726
 2372TIP3    H2 7058   1.935   2.025   6.717
 2373TIP3   OH2 7059   8.173   5.295   0.207
 2373TIP3    H1 7060   8.231   5.247   0.266
 2373TIP3    H2 7061   8.229   5.363   0.169
 2374TIP3   OH2 7062   5.865   0.245   1.498
 2374TIP3    H1 7063   5.818   0.324   1.523
 2374TIP3    H2 7064   5.942   0.243   1.555
 2375TIP3   OH2 7065   5.524   1.024   4.190
 2375TIP3    H1 7066   5.545   1.117   4.197
 2375TIP3    H2 7067   5.607   0.983   4.166
 2376TIP3   OH2 7068   7.171   0.394   3.266
 2376TIP3    H1 7069   7.123   0.443   3.333
 2376TIP3    H2 7070   7.239   0.455   3.236
 2377TIP3   OH2 7071   6.802   2.341   5.429
 2377TIP3    H1 7072   6.839   2.256   5.406
 2377TIP3    H2 7073   6.711   2.322   5.451
 2378TIP3   OH2 7074   2.211   0.391   1.005
 2378TIP3    H1 7075   2.253   0.328   0.948
 2378TIP3    H2 7076   2.171   0.338   1.074
 2379TIP3   OH2 7077   6.582   6.489   1.812
 2379TIP3    H1 7078   6.674   6.516   1.816
 2379TIP3    H2 7079   6.577   6.437   1.732
 2380TIP3   OH2 7080   5.736   5.857   3.952
 2380TIP3    H1 7081   5.798   5.911   3.903
 2380TIP3    H2 7082   5.657   5.857   3.897
 2381TIP3   OH2 7083   1.823   7.128   0.732
 2381TIP3    H1 7084   1.860   7.068   0.798
 2381TIP3    H2 7085   1.896   7.149   0.674
 2382TIP3   OH2 7086   4.370   4.472   2.990
 2382TIP3    H1 7087   4.428   4.414   3.040
 2382TIP3    H2 7088   4.295   4.486   3.048
 2383TIP3   OH2 7089   3.420   0.256   6.185
 2383TIP3    H1 7090   3.506   0.235   6.148
 2383TIP3    H2 7091   3.381   0.171   6.205
 2384TIP3   OH2 7092   0.986   1.678   1.953
 2384TIP3    H1 7093   1.053   1.679   2.021
 2384TIP3    H2 7094   1.003   1.598   1.903
 2385TIP3   OH2 7095   3.891   5.467   5.484
 2385TIP3    H1 7096   3.985   5.479   5.495
 2385TIP3    H2 7097   3.851   5.532   5.541
 2386TIP3   OH2 7098   2.284   5.560   5.237
 2386TIP3    H1 7099   2.291   5.649   5.272
 2386TIP3    H2 7100   2.190   5.541   5.241
 2387TIP3   OH2 7101   3.072   0.504   6.426
 2387TIP3    H1 7102   3.000   0.442   6.442
 2387TIP3    H2 7103   3.038   0.564   6.361
 2388TIP3   OH2 7104   3.049   4.379   1.181
 2388TIP3    H1 7105   3.034   4.285   1.177
 2388TIP3    H2 7106   3.120   4.394   1.118
 2389TIP3   OH2 7107   5.537   6.967   0.693
 2389TIP3    H1 7108   5.502   7.056   0.703
 2389TIP3    H2 7109   5.502   6.937   0.609
 2390TIP3   OH2 7110   0.551   3.797   4.415
 2390TIP3    H1 7111   0.588   3.712   4.390
 2390TIP3    H2 7112   0.595   3.861   4.359
 2391TIP3   OH2 7113   1.791   6.551   5.387
 2391TIP3    H1 7114   1.713   6.535   5.439
 2391TIP3    H2 7115   1.863   6.516   5.439
 2392TIP3   OH2 7116   6.593   0.538   4.219
 2392TIP3    H1 7117   6.643   0.549   4.138
 2392TIP3    H2 7118   6.648   0.481   4.273
 2393TIP3   OH2 7119   6.185   3.318   6.678
 2393TIP3    H1 7120   6.111   3.258   6.682
 2393TIP3    H2 7121   6.196   3.348   6.768
 2394TIP3   OH2 7122   6.809   6.743   3.641
 2394TIP3    H1 7123   6.877   6.703   3.588
 2394TIP3    H2 7124   6.789   6.825   3.596
 2395TIP3   OH2 7125   2.486   3.676   0.307
 2395TIP3    H1 7126   2.524   3.671   0.395
 2395TIP3    H2 7127   2.560   3.662   0.248
 2396TIP3   OH2 7128   4.223   1.065   3.917
 2396TIP3    H1 7129   4.307   1.105   3.895
 2396TIP3    H2 7130   4.246   0.976   3.944
 2397TIP3   OH2 7131   7.196   3.503   6.203
 2397TIP3    H1 7132   7.260   3.563   6.166
 2397TIP3    H2 7133   7.143   3.474   6.128
 2398TIP3   OH2 7134   0.649   7.049   6.516
 2398TIP3    H1 7135   0.714   7.100   6.565
 2398TIP3    H2 7136   0.667   7.070   6.424
 2399TIP3   OH2 7137   3.796   0.693   0.729
 2399TIP3    H1 7138   3.727   0.629   0.713
 2399TIP3    H2 7139   3.871   0.641   0.759
 2400TIP3   OH2 7140   3.587   5.800   3.523
 2400TIP3    H1 7141   3.654   5.869   3.519
 2400TIP3    H2 7142   3.544   5.813   3.607
 2401TIP3   OH2 7143   5.582   6.538   2.643
 2401TIP3    H1 7144   5.502   6.499   2.679
 2401TIP3    H2 7145   5.556   6.570   2.557
 2402TIP3   OH2 7146   4.421   2.472   3.571
 2402TIP3    H1 7147   4.461   2.556   3.546
 2402TIP3    H2 7148   4.478   2.439   3.641
 2403TIP3   OH2 7149   1.080   1.165   1.789
 2403TIP3    H1 7150   1.161   1.173   1.740
 2403TIP3    H2 7151   1.106   1.174   1.881
 2404TIP3   OH2 7152   4.530   0.346   3.166
 2404TIP3    H1 7153   4.603   0.380   3.113
 2404TIP3    H2 7154   4.475   0.300   3.104
 2405TIP3   OH2 7155   7.151   0.939   4.659
 2405TIP3    H1 7156   7.246   0.943   4.660
 2405TIP3    H2 7157   7.126   0.968   4.571
 2406TIP3   OH2 7158   1.539   4.393   3.757
 2406TIP3    H1 7159   1.462   4.447   3.736
 2406TIP3    H2 7160   1.548   4.401   3.852
 2407TIP3   OH2 7161   7.469   0.177   3.303
 2407TIP3    H1 7162   7.421   0.244   3.352
 2407TIP3    H2 7163   7.510   0.123   3.371
 2408TIP3   OH2 7164   1.791   3.981   3.455
 2408TIP3    H1 7165   1.735   3.927   3.511
 2408TIP3    H2 7166   1.824   4.050   3.512
 2409TIP3   OH2 7167   2.560   5.558   3.679
 2409TIP3    H1 7168   2.637   5.503   3.665
 2409TIP3    H2 7169   2.486   5.503   3.652
 2410TIP3   OH2 7170   5.782   1.269   3.952
 2410TIP3    H1 7171   5.745   1.272   4.040
 2410TIP3    H2 7172   5.712   1.299   3.895
 2411TIP3   OH2 7173   6.586   7.171   1.414
 2411TIP3    H1 7174   6.512   7.124   1.375
 2411TIP3    H2 7175   6.644   7.101   1.445
 2412TIP3   OH2 7176   8.340   3.292   0.410
 2412TIP3    H1 7177   8.343   3.355   0.482
 2412TIP3    H2 7178   8.310   3.342   0.335
 2413TIP3   OH2 7179   4.297   2.424   6.507
 2413TIP3    H1 7180   4.334   2.479   6.438
 2413TIP3    H2 7181   4.338   2.455   6.588
 2414TIP3   OH2 7182   7.823   6.064   2.789
 2414TIP3    H1 7183   7.774   6.007   2.730
 2414TIP3    H2 7184   7.756   6.120   2.830
 2415TIP3   OH2 7185   3.825   7.878   4.826
 2415TIP3    H1 7186   3.841   7.920   4.910
 2415TIP3    H2 7187   3.795   7.949   4.769
 2416TIP3   OH2 7188   1.870   6.669   2.009
 2416TIP3    H1 7189   1.846   6.748   2.058
 2416TIP3    H2 7190   1.870   6.697   1.918
 2417TIP3   OH2 7191   7.622   5.464   6.258
 2417TIP3    H1 7192   7.702   5.443   6.210
 2417TIP3    H2 7193   7.649   5.472   6.349
 2418TIP3   OH2 7194   4.267   5.160   6.703
 2418TIP3    H1 7195   4.234   5.086   6.753
 2418TIP3    H2 7196   4.281   5.229   6.768
 2419TIP3   OH2 7197   3.183   4.036   5.405
 2419TIP3    H1 7198   3.176   4.124   5.440
 2419TIP3    H2 7199   3.265   4.002   5.442
 2420TIP3   OH2 7200   2.302   6.275   1.813
 2420TIP3    H1 7201   2.218   6.317   1.833
 2420TIP3    H2 7202   2.279   6.206   1.751
 2421TIP3   OH2 7203   1.001   4.839   5.286
 2421TIP3    H1 7204   0.919   4.808   5.248
 2421TIP3    H2 7205   0.974   4.890   5.363
 2422TIP3   OH2 7206   6.140   4.387   2.373
 2422TIP3    H1 7207   6.098   4.324   2.315
 2422TIP3    H2 7208   6.178   4.452   2.315
 2423TIP3   OH2 7209   6.202   7.712   4.154
 2423TIP3    H1 7210   6.161   7.634   4.118
 2423TIP3    H2 7211   6.213   7.770   4.079
 2424TIP3   OH2 7212   6.866   1.652   4.414
 2424TIP3    H1 7213   6.887   1.714   4.344
 2424TIP3    H2 7214   6.943   1.596   4.419
 2425TIP3   OH2 7215   7.944   2.664   6.627
 2425TIP3    H1 7216   7.966   2.742   6.678
 2425TIP3    H2 7217   7.905   2.604   6.691
 2426TIP3   OH2 7218   7.879   1.269   4.996
 2426TIP3    H1 7219   7.975   1.261   4.996
 2426TIP3    H2 7220   7.861   1.335   5.063
 2427TIP3   OH2 7221   2.740   0.693   5.834
 2427TIP3    H1 7222   2.787   0.665   5.756
 2427TIP3    H2 7223   2.772   0.782   5.851
 2428TIP3   OH2 7224   7.153   4.462   2.920
 2428TIP3    H1 7225   7.147   4.487   3.012
 2428TIP3    H2 7226   7.181   4.371   2.921
 2429TIP3   OH2 7227   5.927   6.869   5.252
 2429TIP3    H1 7228   6.012   6.900   5.281
 2429TIP3    H2 7229   5.908   6.920   5.173
 2430TIP3   OH2 7230   2.482   6.673   2.224
 2430TIP3    H1 7231   2.473   6.658   2.129
 2430TIP3    H2 7232   2.440   6.757   2.239
 2431TIP3   OH2 7233   5.226   2.629   6.345
 2431TIP3    H1 7234   5.311   2.608   6.306
 2431TIP3    H2 7235   5.235   2.603   6.437
 2432TIP3   OH2 7236   4.281   3.681   5.738
 2432TIP3    H1 7237   4.277   3.700   5.832
 2432TIP3    H2 7238   4.345   3.610   5.731
 2433TIP3   OH2 7239   5.325   7.476   6.250
 2433TIP3    H1 7240   5.406   7.440   6.287
 2433TIP3    H2 7241   5.314   7.560   6.295
 2434TIP3   OH2 7242   1.653   3.542   6.777
 2434TIP3    H1 7243   1.616   3.499   6.699
 2434TIP3    H2 7244   1.604   3.504   6.850
 2435TIP3   OH2 7245   2.189   4.394   4.040
 2435TIP3    H1 7246   2.186   4.391   3.944
 2435TIP3    H2 7247   2.266   4.448   4.060
 2436TIP3   OH2 7248   1.011   3.129   1.385
 2436TIP3    H1 7249   1.094   3.115   1.341
 2436TIP3    H2 7250   0.946   3.090   1.327
 2437TIP3   OH2 7251   0.151   0.047   3.703
 2437TIP3    H1 7252   0.063   0.022   3.729
 2437TIP3    H2 7253   0.174   0.120   3.761
 2438TIP3   OH2 7254   6.074   2.926   4.422
 2438TIP3    H1 7255   6.156   2.893   4.457
 2438TIP3    H2 7256   6.009   2.910   4.490
 2439TIP3   OH2 7257   7.313   1.407   1.508
 2439TIP3    H1 7258   7.284   1.384   1.420
 2439TIP3    H2 7259   7.353   1.326   1.542
 2440TIP3   OH2 7260   4.101   6.112   0.547
 2440TIP3    H1 7261   4.172   6.105   0.484
 2440TIP3    H2 7262   4.141   6.091   0.631
 2441TIP3   OH2 7263   0.026   5.935   1.050
 2441TIP3    H1 7264   0.037   5.957   1.143
 2441TIP3    H2 7265   0.114   5.939   1.014
 2442TIP3   OH2 7266   2.355   0.170   3.482
 2442TIP3    H1 7267   2.281   0.163   3.421
 2442TIP3    H2 7268   2.360   0.263   3.503
 2443TIP3   OH2 7269   5.388   1.402   2.379
 2443TIP3    H1 7270   5.296   1.407   2.404
 2443TIP3    H2 7271   5.434   1.449   2.448
 2444TIP3   OH2 7272   4.587   1.167   4.587
 2444TIP3    H1 7273   4.610   1.087   4.540
 2444TIP3    H2 7274   4.514   1.204   4.537
 2445TIP3   OH2 7275   4.853   1.313   0.222
 2445TIP3    H1 7276   4.828   1.315   0.314
 2445TIP3    H2 7277   4.857   1.220   0.200
 2446TIP3   OH2 7278   3.743   4.587   4.419
 2446TIP3    H1 7279   3.737   4.666   4.473
 2446TIP3    H2 7280   3.836   4.567   4.415
 2447TIP3   OH2 7281   3.486   5.713   5.521
 2447TIP3    H1 7282   3.508   5.804   5.502
 2447TIP3    H2 7283   3.501   5.667   5.438
 2448TIP3   OH2 7284   2.626   7.132   1.988
 2448TIP3    H1 7285   2.694   7.094   2.043
 2448TIP3    H2 7286   2.576   7.187   2.048
 2449TIP3   OH2 7287   6.698   6.576   4.644
 2449TIP3    H1 7288   6.636   6.642   4.676
 2449TIP3    H2 7289   6.654   6.537   4.569
 2450TIP3   OH2 7290   6.928   6.044   6.742
 2450TIP3    H1 7291   6.933   5.958   6.701
 2450TIP3    H2 7292   7.014   6.084   6.725
 2451TIP3   OH2 7293   6.407   3.722   2.659
 2451TIP3    H1 7294   6.414   3.770   2.576
 2451TIP3    H2 7295   6.462   3.644   2.646
 2452TIP3   OH2 7296   5.368   3.665   1.743
 2452TIP3    H1 7297   5.305   3.621   1.686
 2452TIP3    H2 7298   5.450   3.617   1.731
 2453TIP3   OH2 7299   7.727   3.271   2.179
 2453TIP3    H1 7300   7.685   3.303   2.259
 2453TIP3    H2 7301   7.820   3.291   2.190
 2454TIP3   OH2 7302   1.727   2.655   6.420
 2454TIP3    H1 7303   1.707   2.749   6.426
 2454TIP3    H2 7304   1.806   2.652   6.365
 2455TIP3   OH2 7305   0.677   1.720   4.008
 2455TIP3    H1 7306   0.634   1.755   4.086
 2455TIP3    H2 7307   0.752   1.670   4.042
 2456TIP3   OH2 7308   5.980   0.183   3.413
 2456TIP3    H1 7309   5.998   0.276   3.430
 2456TIP3    H2 7310   6.052   0.137   3.455
 2457TIP3   OH2 7311   2.222   4.692   2.893
 2457TIP3    H1 7312   2.139   4.660   2.928
 2457TIP3    H2 7313   2.199   4.731   2.809
 2458TIP3   OH2 7314   4.685   5.577   3.956
 2458TIP3    H1 7315   4.767   5.602   3.913
 2458TIP3    H2 7316   4.641   5.660   3.973
 2459TIP3   OH2 7317   7.948   7.724   1.040
 2459TIP3    H1 7318   7.900   7.799   1.004
 2459TIP3    H2 7319   7.946   7.658   0.971
 2460TIP3   OH2 7320   2.155   2.365   6.142
 2460TIP3    H1 7321   2.152   2.371   6.237
 2460TIP3    H2 7322   2.249   2.364   6.120
 2461TIP3   OH2 7323   5.571   0.840   5.203
 2461TIP3    H1 7324   5.532   0.794   5.129
 2461TIP3    H2 7325   5.586   0.929   5.171
 2462TIP3   OH2 7326   5.795   4.885   2.021
 2462TIP3    H1 7327   5.791   4.793   1.995
 2462TIP3    H2 7328   5.788   4.934   1.939
 2463TIP3   OH2 7329   7.804   4.783   1.325
 2463TIP3    H1 7330   7.842   4.707   1.369
 2463TIP3    H2 7331   7.709   4.767   1.327
 2464TIP3   OH2 7332   7.222   5.091   3.923
 2464TIP3    H1 7333   7.224   5.090   4.019
 2464TIP3    H2 7334   7.129   5.097   3.901
 2465TIP3   OH2 7335   5.675   4.602   3.589
 2465TIP3    H1 7336   5.629   4.638   3.664
 2465TIP3    H2 7337   5.605   4.578   3.528
 2466TIP3   OH2 7338   7.932   3.099   1.163
 2466TIP3    H1 7339   7.863   3.034   1.179
 2466TIP3    H2 7340   8.003   3.073   1.222
 2467TIP3   OH2 7341   3.167   3.104   0.985
 2467TIP3    H1 7342   3.167   3.176   0.923
 2467TIP3    H2 7343   3.238   3.125   1.046
 2468TIP3   OH2 7344   4.421   5.836   5.510
 2468TIP3    H1 7345   4.454   5.775   5.577
 2468TIP3    H2 7346   4.357   5.890   5.556
 2469TIP3   OH2 7347   2.068   1.079   6.264
 2469TIP3    H1 7348   2.147   1.114   6.306
 2469TIP3    H2 7349   2.101   1.027   6.191
 2470TIP3   OH2 7350   2.349   2.435   1.992
 2470TIP3    H1 7351   2.398   2.363   2.030
 2470TIP3    H2 7352   2.263   2.399   1.972
 2471TIP3   OH2 7353   2.972   0.519   0.146
 2471TIP3    H1 7354   2.934   0.592   0.194
 2471TIP3    H2 7355   2.974   0.447   0.209
 2472TIP3   OH2 7356   7.193   0.919   2.292
 2472TIP3    H1 7357   7.259   0.860   2.256
 2472TIP3    H2 7358   7.113   0.899   2.243
 2473TIP3   OH2 7359   6.788   5.409   0.602
 2473TIP3    H1 7360   6.793   5.336   0.540
 2473TIP3    H2 7361   6.840   5.478   0.561
 2474TIP3   OH2 7362   4.013   7.182   0.700
 2474TIP3    H1 7363   3.944   7.115   0.704
 2474TIP3    H2 7364   4.095   7.132   0.699
 2475TIP3   OH2 7365   4.097   5.259   0.655
 2475TIP3    H1 7366   4.097   5.299   0.742
 2475TIP3    H2 7367   4.183   5.217   0.648
 2476TIP3   OH2 7368   6.092   1.879   4.033
 2476TIP3    H1 7369   6.168   1.823   4.017
 2476TIP3    H2 7370   6.127   1.968   4.031
 2477TIP3   OH2 7371   2.129   2.793   5.819
 2477TIP3    H1 7372   2.054   2.832   5.774
 2477TIP3    H2 7373   2.188   2.767   5.749
 2478TIP3   OH2 7374   0.419   3.226   6.493
 2478TIP3    H1 7375   0.377   3.299   6.538
 2478TIP3    H2 7376   0.389   3.148   6.540
 2479TIP3   OH2 7377   6.035   2.697   4.916
 2479TIP3    H1 7378   6.089   2.619   4.929
 2479TIP3    H2 7379   5.954   2.678   4.965
 2480TIP3   OH2 7380   5.693   3.236   4.780
 2480TIP3    H1 7381   5.737   3.264   4.700
 2480TIP3    H2 7382   5.697   3.313   4.837
 2481TIP3   OH2 7383   3.744   2.794   0.561
 2481TIP3    H1 7384   3.777   2.722   0.507
 2481TIP3    H2 7385   3.802   2.796   0.637
 2482TIP3   OH2 7386   1.887   5.891   4.197
 2482TIP3    H1 7387   1.907   5.936   4.279
 2482TIP3    H2 7388   1.971   5.882   4.153
 2483TIP3   OH2 7389   1.982   7.413   0.371
 2483TIP3    H1 7390   2.002   7.481   0.307
 2483TIP3    H2 7391   1.905   7.445   0.417
 2484TIP3   OH2 7392   8.223   3.601   3.269
 2484TIP3    H1 7393   8.205   3.669   3.335
 2484TIP3    H2 7394   8.242   3.650   3.189
 2485TIP3   OH2 7395   7.542   7.625   5.283
 2485TIP3    H1 7396   7.458   7.640   5.326
 2485TIP3    H2 7397   7.539   7.678   5.204
 2486TIP3   OH2 7398   6.320   2.657   6.745
 2486TIP3    H1 7399   6.236   2.618   6.770
 2486TIP3    H2 7400   6.303   2.751   6.746
 2487TIP3   OH2 7401   5.204   4.488   2.741
 2487TIP3    H1 7402   5.135   4.422   2.728
 2487TIP3    H2 7403   5.270   4.467   2.674
 2488TIP3   OH2 7404   2.606   7.271   3.134
 2488TIP3    H1 7405   2.560   7.332   3.077
 2488TIP3    H2 7406   2.537   7.229   3.186
 2489TIP3   OH2 7407   1.454   5.313   1.321
 2489TIP3    H1 7408   1.513   5.290   1.393
 2489TIP3    H2 7409   1.389   5.372   1.361
 2490TIP3   OH2 7410   8.039   0.606   6.765
 2490TIP3    H1 7411   8.047   0.511   6.756
 2490TIP3    H2 7412   8.124   0.641   6.736
 2491TIP3   OH2 7413   0.176   0.699   4.414
 2491TIP3    H1 7414   0.123   0.644   4.472
 2491TIP3    H2 7415   0.256   0.715   4.463
 2492TIP3   OH2 7416   7.560   3.453   5.175
 2492TIP3    H1 7417   7.476   3.409   5.162
 2492TIP3    H2 7418   7.623   3.400   5.127
 2493TIP3   OH2 7419   2.602   4.694   5.119
 2493TIP3    H1 7420   2.616   4.782   5.082
 2493TIP3    H2 7421   2.682   4.675   5.167
 2494TIP3   OH2 7422   1.274   7.762   0.658
 2494TIP3    H1 7423   1.274   7.828   0.589
 2494TIP3    H2 7424   1.361   7.722   0.653
 2495TIP3   OH2 7425   6.824   6.993   0.526
 2495TIP3    H1 7426   6.767   7.017   0.598
 2495TIP3    H2 7427   6.882   7.068   0.515
 2496TIP3   OH2 7428   8.225   7.709   1.423
 2496TIP3    H1 7429   8.221   7.733   1.330
 2496TIP3    H2 7430   8.187   7.784   1.469
 2497TIP3   OH2 7431   7.536   6.692   3.573
 2497TIP3    H1 7432   7.491   6.776   3.573
 2497TIP3    H2 7433   7.469   6.628   3.597
 2498TIP3   OH2 7434   0.261   2.256   1.403
 2498TIP3    H1 7435   0.291   2.325   1.462
 2498TIP3    H2 7436   0.266   2.296   1.316
 2499TIP3   OH2 7437   5.537   3.565   0.807
 2499TIP3    H1 7438   5.511   3.654   0.828
 2499TIP3    H2 7439   5.632   3.564   0.821
 2500TIP3   OH2 7440   8.044   1.451   1.366
 2500TIP3    H1 7441   7.960   1.424   1.404
 2500TIP3    H2 7442   8.090   1.496   1.437
 2501TIP3   OH2 7443   8.059   6.031   4.502
 2501TIP3    H1 7444   7.983   6.089   4.500
 2501TIP3    H2 7445   8.120   6.073   4.563
 2502TIP3   OH2 7446   0.478   6.296   5.747
 2502TIP3    H1 7447   0.416   6.238   5.705
 2502TIP3    H2 7448   0.428   6.376   5.766
 2503TIP3   OH2 7449   6.360   3.355   3.650
 2503TIP3    H1 7450   6.412   3.345   3.570
 2503TIP3    H2 7451   6.399   3.293   3.712
 2504TIP3   OH2 7452   1.178   2.932   6.522
 2504TIP3    H1 7453   1.174   2.948   6.616
 2504TIP3    H2 7454   1.237   3.000   6.489
 2505TIP3   OH2 7455   3.876   0.062   4.059
 2505TIP3    H1 7456   3.818   0.077   4.134
 2505TIP3    H2 7457   3.839  -0.015   4.016
 2506TIP3   OH2 7458   7.643   6.373   2.617
 2506TIP3    H1 7459   7.686   6.455   2.593
 2506TIP3    H2 7460   7.704   6.331   2.678
 2507TIP3   OH2 7461   2.236   2.640   6.760
 2507TIP3    H1 7462   2.299   2.574   6.731
 2507TIP3    H2 7463   2.150   2.598   6.746
 2508TIP3   OH2 7464   4.761   3.651   6.403
 2508TIP3    H1 7465   4.665   3.650   6.407
 2508TIP3    H2 7466   4.785   3.559   6.414
 2509TIP3   OH2 7467   2.303   6.434   2.730
 2509TIP3    H1 7468   2.221   6.450   2.776
 2509TIP3    H2 7469   2.288   6.464   2.641
 2510TIP3   OH2 7470   1.527   1.359   0.049
 2510TIP3    H1 7471   1.604   1.413   0.068
 2510TIP3    H2 7472   1.516   1.304   0.127
 2511TIP3   OH2 7473   8.315   7.596   5.734
 2511TIP3    H1 7474   8.345   7.520   5.684
 2511TIP3    H2 7475   8.376   7.666   5.710
 2512TIP3   OH2 7476   7.812   1.632   3.608
 2512TIP3    H1 7477   7.848   1.580   3.536
 2512TIP3    H2 7478   7.881   1.693   3.631
 2513TIP3   OH2 7479   8.338   3.979   0.371
 2513TIP3    H1 7480   8.337   4.041   0.298
 2513TIP3    H2 7481   8.249   3.945   0.375
 2514TIP3   OH2 7482   6.266   2.501   2.396
 2514TIP3    H1 7483   6.284   2.409   2.413
 2514TIP3    H2 7484   6.301   2.547   2.472
 2515TIP3   OH2 7485   3.368   3.839  -0.009
 2515TIP3    H1 7486   3.419   3.890   0.054
 2515TIP3    H2 7487   3.311   3.785   0.045
 2516TIP3   OH2 7488   8.105   0.635   6.073
 2516TIP3    H1 7489   8.118   0.563   6.135
 2516TIP3    H2 7490   8.049   0.598   6.005
 2517TIP3   OH2 7491   1.043   5.537   1.986
 2517TIP3    H1 7492   1.079   5.552   1.899
 2517TIP3    H2 7493   1.020   5.625   2.018
 2518TIP3   OH2 7494   6.530   1.804   4.455
 2518TIP3    H1 7495   6.568   1.762   4.379
 2518TIP3    H2 7496   6.450   1.845   4.422
 2519TIP3   OH2 7497   3.680   7.252   6.259
 2519TIP3    H1 7498   3.685   7.346   6.241
 2519TIP3    H2 7499   3.727   7.211   6.186
 2520TIP3   OH2 7500   2.536   4.082   0.233
 2520TIP3    H1 7501   2.525   4.125   0.318
 2520TIP3    H2 7502   2.469   4.013   0.232
 2521TIP3   OH2 7503   8.337   4.061   3.257
 2521TIP3    H1 7504   8.273   4.130   3.237
 2521TIP3    H2 7505   8.357   4.023   3.172
 2522TIP3   OH2 7506   2.634   3.751   4.829
 2522TIP3    H1 7507   2.690   3.771   4.754
 2522TIP3    H2 7508   2.545   3.756   4.794
 2523TIP3   OH2 7509   2.233   7.054   2.828
 2523TIP3    H1 7510   2.260   7.001   2.903
 2523TIP3    H2 7511   2.141   7.076   2.846
 2524TIP3   OH2 7512   0.750   1.704   2.992
 2524TIP3    H1 7513   0.817   1.725   3.056
 2524TIP3    H2 7514   0.791   1.639   2.934
 2525TIP3   OH2 7515   3.898   6.139   6.775
 2525TIP3    H1 7516   3.853   6.191   6.708
 2525TIP3    H2 7517   3.982   6.183   6.787
 2526TIP3   OH2 7518   4.775   3.156   3.834
 2526TIP3    H1 7519   4.766   3.068   3.872
 2526TIP3    H2 7520   4.822   3.206   3.900
 2527TIP3   OH2 7521   6.095   6.887   1.873
 2527TIP3    H1 7522   6.176   6.931   1.897
 2527TIP3    H2 7523   6.119   6.828   1.802
 2528TIP3   OH2 7524   7.756   7.084   1.701
 2528TIP3    H1 7525   7.671   7.110   1.736
 2528TIP3    H2 7526   7.774   6.999   1.740
 2529TIP3   OH2 7527   5.770   6.728   3.742
 2529TIP3    H1 7528   5.781   6.639   3.706
 2529TIP3    H2 7529   5.820   6.726   3.824
 2530TIP3   OH2 7530   2.640   4.079   3.635
 2530TIP3    H1 7531   2.591   4.161   3.640
 2530TIP3    H2 7532   2.731   4.105   3.625
 2531TIP3   OH2 7533   2.189   6.521   4.768
 2531TIP3    H1 7534   2.151   6.516   4.680
 2531TIP3    H2 7535   2.280   6.547   4.755
 2532TIP3   OH2 7536   0.421   7.443   6.251
 2532TIP3    H1 7537   0.450   7.382   6.183
 2532TIP3    H2 7538   0.464   7.526   6.228
 2533TIP3   OH2 7539   1.845   2.666   2.159
 2533TIP3    H1 7540   1.940   2.663   2.152
 2533TIP3    H2 7541   1.819   2.578   2.184
 2534TIP3   OH2 7542   4.148   6.231   3.013
 2534TIP3    H1 7543   4.157   6.197   2.924
 2534TIP3    H2 7544   4.232   6.273   3.031
 2535TIP3   OH2 7545   7.906   5.426   4.191
 2535TIP3    H1 7546   7.991   5.459   4.218
 2535TIP3    H2 7547   7.844   5.464   4.253
 2536TIP3   OH2 7548   5.811   6.823   1.787
 2536TIP3    H1 7549   5.882   6.854   1.731
 2536TIP3    H2 7550   5.838   6.735   1.815
 2537TIP3   OH2 7551   5.405   6.021   6.751
 2537TIP3    H1 7552   5.416   6.087   6.820
 2537TIP3    H2 7553   5.474   5.957   6.767
 2538TIP3   OH2 7554   4.639   4.520   6.352
 2538TIP3    H1 7555   4.558   4.474   6.329
 2538TIP3    H2 7556   4.612   4.610   6.367
 2539TIP3   OH2 7557   3.879   7.319   5.176
 2539TIP3    H1 7558   3.813   7.381   5.209
 2539TIP3    H2 7559   3.927   7.368   5.109
 2540TIP3   OH2 7560   0.898   1.646   1.596
 2540TIP3    H1 7561   0.960   1.654   1.524
 2540TIP3    H2 7562   0.918   1.561   1.636
 2541TIP3   OH2 7563   3.293   5.887   1.424
 2541TIP3    H1 7564   3.218   5.900   1.482
 2541TIP3    H2 7565   3.359   5.845   1.479
 2542TIP3   OH2 7566   1.420   0.146   4.391
 2542TIP3    H1 7567   1.467   0.225   4.418
 2542TIP3    H2 7568   1.449   0.079   4.453
 2543TIP3   OH2 7569   0.966   2.158   4.708
 2543TIP3    H1 7570   0.906   2.096   4.749
 2543TIP3    H2 7571   1.050   2.111   4.702
 2544TIP3   OH2 7572   4.987   4.215   0.465
 2544TIP3    H1 7573   4.967   4.264   0.386
 2544TIP3    H2 7574   4.936   4.256   0.534
 2545TIP3   OH2 7575   1.410   1.375   3.977
 2545TIP3    H1 7576   1.333   1.327   4.006
 2545TIP3    H2 7577   1.459   1.393   4.058
 2546TIP3   OH2 7578   5.457   2.399   2.096
 2546TIP3    H1 7579   5.546   2.388   2.130
 2546TIP3    H2 7580   5.455   2.488   2.062
 2547TIP3   OH2 7581   0.978   7.284   4.805
 2547TIP3    H1 7582   1.061   7.265   4.761
 2547TIP3    H2 7583   0.933   7.344   4.746
 2548TIP3   OH2 7584   2.567   1.254   5.145
 2548TIP3    H1 7585   2.570   1.188   5.075
 2548TIP3    H2 7586   2.653   1.248   5.187
 2549TIP3   OH2 7587   8.034   1.939   0.582
 2549TIP3    H1 7588   8.074   2.021   0.552
 2549TIP3    H2 7589   8.039   1.881   0.506
 2550TIP3   OH2 7590   3.820   2.103   3.126
 2550TIP3    H1 7591   3.866   2.167   3.071
 2550TIP3    H2 7592   3.774   2.156   3.191
 2551TIP3   OH2 7593   2.113   6.096   5.469
 2551TIP3    H1 7594   2.196   6.120   5.511
 2551TIP3    H2 7595   2.060   6.061   5.540
 2552TIP3   OH2 7596   0.711   5.541   2.370
 2552TIP3    H1 7597   0.685   5.611   2.310
 2552TIP3    H2 7598   0.634   5.485   2.376
 2553TIP3   OH2 7599   1.222   3.749   6.759
 2553TIP3    H1 7600   1.156   3.737   6.691
 2553TIP3    H2 7601   1.171   3.762   6.839
 2554TIP3   OH2 7602   7.048   4.083   3.552
 2554TIP3    H1 7603   6.968   4.134   3.568
 2554TIP3    H2 7604   7.104   4.102   3.628
 2555TIP3   OH2 7605   1.043   5.315   1.359
 2555TIP3    H1 7606   0.983   5.387   1.378
 2555TIP3    H2 7607   1.123   5.357   1.328
 2556TIP3   OH2 7608   6.614   0.999   0.747
 2556TIP3    H1 7609   6.563   1.076   0.772
 2556TIP3    H2 7610   6.705   1.023   0.766
 2557TIP3   OH2 7611   1.036   4.334   5.844
 2557TIP3    H1 7612   1.019   4.244   5.873
 2557TIP3    H2 7613   1.130   4.338   5.831
 2558TIP3   OH2 7614   3.199   2.207   3.400
 2558TIP3    H1 7615   3.196   2.295   3.438
 2558TIP3    H2 7616   3.160   2.151   3.467
 2559TIP3   OH2 7617   1.501   4.506   0.613
 2559TIP3    H1 7618   1.490   4.413   0.595
 2559TIP3    H2 7619   1.427   4.548   0.569
 2560TIP3   OH2 7620   2.467   1.153   0.038
 2560TIP3    H1 7621   2.476   1.224   0.101
 2560TIP3    H2 7622   2.524   1.084   0.071
 2561TIP3   OH2 7623   6.613   1.240   5.387
 2561TIP3    H1 7624   6.665   1.303   5.337
 2561TIP3    H2 7625   6.531   1.286   5.405
 2562TIP3   OH2 7626   2.637   1.505   1.979
 2562TIP3    H1 7627   2.578   1.579   1.996
 2562TIP3    H2 7628   2.630   1.490   1.885
 2563TIP3   OH2 7629   4.103   3.245   3.280
 2563TIP3    H1 7630   4.109   3.340   3.287
 2563TIP3    H2 7631   4.168   3.222   3.213
 2564TIP3   OH2 7632   6.173   6.233   1.021
 2564TIP3    H1 7633   6.091   6.265   1.059
 2564TIP3    H2 7634   6.197   6.300   0.957
 2565TIP3   OH2 7635   1.965   1.970   5.497
 2565TIP3    H1 7636   1.966   2.048   5.552
 2565TIP3    H2 7637   1.876   1.935   5.506
 2566TIP3   OH2 7638   6.086   3.399   5.086
 2566TIP3    H1 7639   6.172   3.381   5.048
 2566TIP3    H2 7640   6.101   3.399   5.181
 2567TIP3   OH2 7641   4.140   4.241   4.344
 2567TIP3    H1 7642   4.135   4.145   4.348
 2567TIP3    H2 7643   4.133   4.269   4.435
 2568TIP3   OH2 7644   2.399   2.931   1.643
 2568TIP3    H1 7645   2.369   2.945   1.732
 2568TIP3    H2 7646   2.492   2.908   1.652
 2569TIP3   OH2 7647   5.050   4.297   4.090
 2569TIP3    H1 7648   4.988   4.292   4.017
 2569TIP3    H2 7649   5.001   4.268   4.166
 2570TIP3   OH2 7650   4.110   0.398   1.462
 2570TIP3    H1 7651   4.028   0.446   1.477
 2570TIP3    H2 7652   4.118   0.396   1.367
 2571TIP3   OH2 7653   4.033   3.714   5.564
 2571TIP3    H1 7654   4.117   3.719   5.517
 2571TIP3    H2 7655   3.970   3.687   5.497
 2572TIP3   OH2 7656   6.645   5.377   2.629
 2572TIP3    H1 7657   6.655   5.284   2.645
 2572TIP3    H2 7658   6.550   5.390   2.619
 2573TIP3   OH2 7659   0.915   2.282   1.918
 2573TIP3    H1 7660   0.988   2.283   1.857
 2573TIP3    H2 7661   0.896   2.374   1.934
 2574TIP3   OH2 7662   0.377   5.621   2.427
 2574TIP3    H1 7663   0.433   5.694   2.403
 2574TIP3    H2 7664   0.365   5.571   2.346
 2575TIP3   OH2 7665   5.456   3.230   1.817
 2575TIP3    H1 7666   5.478   3.223   1.724
 2575TIP3    H2 7667   5.362   3.247   1.819
 2576TIP3   OH2 7668   4.670   4.834   5.944
 2576TIP3    H1 7669   4.698   4.899   6.008
 2576TIP3    H2 7670   4.739   4.768   5.945
 2577TIP3   OH2 7671   7.614   0.360   2.266
 2577TIP3    H1 7672   7.528   0.360   2.223
 2577TIP3    H2 7673   7.661   0.288   2.225
 2578TIP3   OH2 7674   7.447   2.541   2.313
 2578TIP3    H1 7675   7.418   2.552   2.223
 2578TIP3    H2 7676   7.537   2.510   2.306
 2579TIP3   OH2 7677   1.389   0.585   1.547
 2579TIP3    H1 7678   1.363   0.537   1.469
 2579TIP3    H2 7679   1.378   0.522   1.619
 2580TIP3   OH2 7680   3.344   1.154   5.851
 2580TIP3    H1 7681   3.280   1.118   5.913
 2580TIP3    H2 7682   3.416   1.186   5.905
 2581TIP3   OH2 7683   5.691   3.365   0.157
 2581TIP3    H1 7684   5.740   3.423   0.098
 2581TIP3    H2 7685   5.631   3.318   0.099
 2582TIP3   OH2 7686   5.742   5.284   1.917
 2582TIP3    H1 7687   5.665   5.248   1.873
 2582TIP3    H2 7688   5.798   5.315   1.847
 2583TIP3   OH2 7689   0.876   4.127   6.295
 2583TIP3    H1 7690   0.902   4.038   6.316
 2583TIP3    H2 7691   0.956   4.168   6.262
 2584TIP3   OH2 7692   3.650   0.110   2.045
 2584TIP3    H1 7693   3.597   0.146   1.974
 2584TIP3    H2 7694   3.695   0.185   2.083
 2585TIP3   OH2 7695   2.239   5.149   0.809
 2585TIP3    H1 7696   2.252   5.192   0.894
 2585TIP3    H2 7697   2.326   5.149   0.769
 2586TIP3   OH2 7698   6.634   2.386   0.282
 2586TIP3    H1 7699   6.621   2.345   0.197
 2586TIP3    H2 7700   6.558   2.359   0.334
 2587TIP3   OH2 7701   4.743   2.745   3.032
 2587TIP3    H1 7702   4.792   2.686   2.975
 2587TIP3    H2 7703   4.659   2.757   2.988
 2588TIP3   OH2 7704   2.786   4.717   1.744
 2588TIP3    H1 7705   2.875   4.753   1.738
 2588TIP3    H2 7706   2.730   4.795   1.749
 2589TIP3   OH2 7707   3.142   1.986   6.402
 2589TIP3    H1 7708   3.146   2.024   6.315
 2589TIP3    H2 7709   3.222   2.017   6.446
 2590TIP3   OH2 7710   5.525   4.773   4.481
 2590TIP3    H1 7711   5.585   4.715   4.528
 2590TIP3    H2 7712   5.522   4.852   4.534
 2591TIP3   OH2 7713   4.001   4.165   5.645
 2591TIP3    H1 7714   3.970   4.252   5.619
 2591TIP3    H2 7715   3.926   4.108   5.631
 2592TIP3   OH2 7716   4.892   7.106   6.184
 2592TIP3    H1 7717   4.987   7.119   6.189
 2592TIP3    H2 7718   4.878   7.018   6.221
 2593TIP3   OH2 7719   5.403   3.607   3.042
 2593TIP3    H1 7720   5.323   3.566   3.074
 2593TIP3    H2 7721   5.457   3.534   3.012
 2594TIP3   OH2 7722   5.211   1.314   2.588
 2594TIP3    H1 7723   5.181   1.386   2.644
 2594TIP3    H2 7724   5.172   1.236   2.627
 2595TIP3   OH2 7725   6.154   4.508   4.601
 2595TIP3    H1 7726   6.176   4.457   4.679
 2595TIP3    H2 7727   6.141   4.597   4.633
 2596TIP3   OH2 7728   5.666   3.912   6.438
 2596TIP3    H1 7729   5.673   3.817   6.429
 2596TIP3    H2 7730   5.593   3.925   6.499
 2597TIP3   OH2 7731   1.500   5.564   4.630
 2597TIP3    H1 7732   1.495   5.554   4.535
 2597TIP3    H2 7733   1.418   5.527   4.662
 2598TIP3   OH2 7734   2.227   2.619   3.051
 2598TIP3    H1 7735   2.174   2.633   3.129
 2598TIP3    H2 7736   2.233   2.524   3.042
 2599TIP3   OH2 7737   3.450   2.860   3.163
 2599TIP3    H1 7738   3.521   2.836   3.104
 2599TIP3    H2 7739   3.377   2.880   3.105
 2600TIP3   OH2 7740   6.655   6.531   5.482
 2600TIP3    H1 7741   6.721   6.511   5.415
 2600TIP3    H2 7742   6.678   6.619   5.513
 2601TIP3   OH2 7743   6.891   4.787   4.310
 2601TIP3    H1 7744   6.897   4.855   4.243
 2601TIP3    H2 7745   6.982   4.772   4.337
 2602TIP3   OH2 7746   5.829   2.097   1.682
 2602TIP3    H1 7747   5.807   2.020   1.734
 2602TIP3    H2 7748   5.893   2.145   1.736
 2603TIP3   OH2 7749   4.108   3.553   2.246
 2603TIP3    H1 7750   4.101   3.582   2.337
 2603TIP3    H2 7751   4.163   3.619   2.204
 2604TIP3   OH2 7752   7.821   6.985   6.139
 2604TIP3    H1 7753   7.868   6.911   6.178
 2604TIP3    H2 7754   7.786   6.950   6.057
 2605TIP3   OH2 7755   3.332   2.160   0.500
 2605TIP3    H1 7756   3.301   2.174   0.589
 2605TIP3    H2 7757   3.263   2.107   0.459
 2606TIP3   OH2 7758   0.614   7.276   3.447
 2606TIP3    H1 7759   0.590   7.238   3.362
 2606TIP3    H2 7760   0.550   7.345   3.462
 2607TIP3   OH2 7761   0.023   6.922   5.827
 2607TIP3    H1 7762  -0.004   6.891   5.740
 2607TIP3    H2 7763   0.103   6.972   5.810
 2608TIP3   OH2 7764   7.244   5.898   0.243
 2608TIP3    H1 7765   7.243   5.994   0.247
 2608TIP3    H2 7766   7.301   5.871   0.314
 2609TIP3   OH2 7767   0.578   6.740   6.841
 2609TIP3    H1 7768   0.528   6.757   6.761
 2609TIP3    H2 7769   0.660   6.786   6.828
 2610TIP3   OH2 7770   6.628   0.437   6.093
 2610TIP3    H1 7771   6.648   0.510   6.151
 2610TIP3    H2 7772   6.604   0.479   6.010
 2611TIP3   OH2 7773   0.815   6.026   4.416
 2611TIP3    H1 7774   0.900   5.998   4.382
 2611TIP3    H2 7775   0.775   5.945   4.448
 2612TIP3   OH2 7776   6.846   2.590   2.233
 2612TIP3    H1 7777   6.770   2.548   2.272
 2612TIP3    H2 7778   6.813   2.636   2.156
 2613TIP3   OH2 7779   2.707   1.804   6.627
 2613TIP3    H1 7780   2.797   1.770   6.622
 2613TIP3    H2 7781   2.703   1.869   6.556
 2614TIP3   OH2 7782   5.961   0.887   1.234
 2614TIP3    H1 7783   5.974   0.811   1.177
 2614TIP3    H2 7784   5.917   0.951   1.179
 2615TIP3   OH2 7785   5.967   4.851   5.943
 2615TIP3    H1 7786   5.874   4.835   5.925
 2615TIP3    H2 7787   5.969   4.936   5.987
 2616TIP3   OH2 7788   0.558   1.420   4.607
 2616TIP3    H1 7789   0.526   1.339   4.569
 2616TIP3    H2 7790   0.580   1.398   4.697
 2617TIP3   OH2 7791   4.649   6.312   6.847
 2617TIP3    H1 7792   4.642   6.406   6.863
 2617TIP3    H2 7793   4.637   6.303   6.753
 2618TIP3   OH2 7794   4.089   4.621   2.790
 2618TIP3    H1 7795   4.158   4.580   2.737
 2618TIP3    H2 7796   4.010   4.612   2.738
 2619TIP3   OH2 7797   4.290   7.346   5.139
 2619TIP3    H1 7798   4.241   7.420   5.102
 2619TIP3    H2 7799   4.382   7.371   5.129
 2620TIP3   OH2 7800   2.594   1.329   0.404
 2620TIP3    H1 7801   2.566   1.354   0.492
 2620TIP3    H2 7802   2.584   1.233   0.403
 2621TIP3   OH2 7803   0.052   6.867   5.558
 2621TIP3    H1 7804  -0.012   6.930   5.525
 2621TIP3    H2 7805   0.069   6.809   5.484
 2622TIP3   OH2 7806   3.220   7.450   4.933
 2622TIP3    H1 7807   3.249   7.359   4.929
 2622TIP3    H2 7808   3.124   7.445   4.931
 2623TIP3   OH2 7809   7.725   7.055   3.741
 2623TIP3    H1 7810   7.693   7.118   3.806
 2623TIP3    H2 7811   7.763   7.109   3.672
 2624TIP3   OH2 7812   1.255   5.083   3.826
 2624TIP3    H1 7813   1.163   5.083   3.798
 2624TIP3    H2 7814   1.273   4.992   3.848
 2625TIP3   OH2 7815   1.297   0.765   5.700
 2625TIP3    H1 7816   1.263   0.849   5.670
 2625TIP3    H2 7817   1.385   0.760   5.664
 2626TIP3   OH2 7818   2.058   6.379   4.253
 2626TIP3    H1 7819   2.019   6.467   4.248
 2626TIP3    H2 7820   2.081   6.359   4.162
 2627TIP3   OH2 7821   3.688   0.616   3.101
 2627TIP3    H1 7822   3.689   0.650   3.190
 2627TIP3    H2 7823   3.636   0.680   3.052
 2628TIP3   OH2 7824   2.539   5.678   2.739
 2628TIP3    H1 7825   2.466   5.641   2.790
 2628TIP3    H2 7826   2.611   5.683   2.802
 2629TIP3   OH2 7827   4.762   0.553   3.531
 2629TIP3    H1 7828   4.810   0.614   3.586
 2629TIP3    H2 7829   4.677   0.595   3.517
 2630TIP3   OH2 7830   0.379   3.243   3.295
 2630TIP3    H1 7831   0.355   3.187   3.368
 2630TIP3    H2 7832   0.300   3.249   3.242
 2631TIP3   OH2 7833   5.917   2.289   0.524
 2631TIP3    H1 7834   5.946   2.301   0.614
 2631TIP3    H2 7835   5.979   2.339   0.471
 2632TIP3   OH2 7836   5.163   3.469   2.183
 2632TIP3    H1 7837   5.152   3.449   2.275
 2632TIP3    H2 7838   5.201   3.390   2.145
 2633TIP3   OH2 7839   3.883   5.066   6.716
 2633TIP3    H1 7840   3.922   5.102   6.637
 2633TIP3    H2 7841   3.844   4.983   6.688
 2634TIP3   OH2 7842   5.778   1.867   1.798
 2634TIP3    H1 7843   5.783   1.839   1.889
 2634TIP3    H2 7844   5.708   1.814   1.760
 2635TIP3   OH2 7845   3.982   2.787   5.025
 2635TIP3    H1 7846   4.061   2.841   5.026
 2635TIP3    H2 7847   3.985   2.742   4.940
 2636TIP3   OH2 7848   4.464   1.672   5.193
 2636TIP3    H1 7849   4.446   1.612   5.121
 2636TIP3    H2 7850   4.433   1.757   5.162
 2637TIP3   OH2 7851   8.041   3.655   0.854
 2637TIP3    H1 7852   8.023   3.575   0.904
 2637TIP3    H2 7853   8.013   3.726   0.911
 2638TIP3   OH2 7854   5.246   3.737   0.065
 2638TIP3    H1 7855   5.201   3.770  -0.013
 2638TIP3    H2 7856   5.176   3.698   0.118
 2639TIP3   OH2 7857   2.040   6.060   3.052
 2639TIP3    H1 7858   1.972   6.115   3.013
 2639TIP3    H2 7859   2.039   5.980   3.000
 2640TIP3   OH2 7860   2.857   0.980   2.884
 2640TIP3    H1 7861   2.803   0.906   2.911
 2640TIP3    H2 7862   2.805   1.058   2.906
 2641TIP3   OH2 7863   7.058   0.981   3.662
 2641TIP3    H1 7864   7.004   1.030   3.601
 2641TIP3    H2 7865   7.091   1.047   3.724
 2642TIP3   OH2 7866   6.875   6.885   6.017
 2642TIP3    H1 7867   6.792   6.868   6.061
 2642TIP3    H2 7868   6.850   6.906   5.927
 2643TIP3   OH2 7869   1.121   1.828   3.358
 2643TIP3    H1 7870   1.074   1.905   3.390
 2643TIP3    H2 7871   1.116   1.765   3.431
 2644TIP3   OH2 7872   2.318   3.891   0.200
 2644TIP3    H1 7873   2.278   3.903   0.286
 2644TIP3    H2 7874   2.358   3.805   0.204
 2645TIP3   OH2 7875   5.852   6.774   3.999
 2645TIP3    H1 7876   5.821   6.844   4.055
 2645TIP3    H2 7877   5.916   6.727   4.052
 2646TIP3   OH2 7878   1.391   4.498   5.095
 2646TIP3    H1 7879   1.399   4.549   5.176
 2646TIP3    H2 7880   1.399   4.407   5.123
 2647TIP3   OH2 7881   5.170   4.174   6.542
 2647TIP3    H1 7882   5.142   4.086   6.567
 2647TIP3    H2 7883   5.108   4.201   6.474
 2648TIP3   OH2 7884   1.705   0.174   3.982
 2648TIP3    H1 7885   1.610   0.168   3.983
 2648TIP3    H2 7886   1.730   0.178   4.075
 2649TIP3   OH2 7887   4.405   3.910   0.446
 2649TIP3    H1 7888   4.489   3.927   0.489
 2649TIP3    H2 7889   4.362   3.846   0.503
 2650TIP3   OH2 7890   2.736   0.019   1.572
 2650TIP3    H1 7891   2.695  -0.002   1.656
 2650TIP3    H2 7892   2.665   0.054   1.518
 2651TIP3   OH2 7893   5.158   0.979   2.400
 2651TIP3    H1 7894   5.128   0.900   2.355
 2651TIP3    H2 7895   5.115   0.975   2.486
 2652TIP3   OH2 7896   2.690   5.886   3.989
 2652TIP3    H1 7897   2.704   5.955   4.055
 2652TIP3    H2 7898   2.643   5.930   3.918
 2653TIP3   OH2 7899   7.546   5.678   2.186
 2653TIP3    H1 7900   7.478   5.630   2.233
 2653TIP3    H2 7901   7.499   5.726   2.118
 2654TIP3   OH2 7902   0.598   7.728   1.167
 2654TIP3    H1 7903   0.689   7.701   1.175
 2654TIP3    H2 7904   0.602   7.815   1.127
 2655TIP3   OH2 7905   0.089   4.039   0.093
 2655TIP3    H1 7906   0.100   3.954   0.050
 2655TIP3    H2 7907  -0.005   4.057   0.089
 2656TIP3   OH2 7908   6.678   4.926   3.620
 2656TIP3    H1 7909   6.593   4.952   3.655
 2656TIP3    H2 7910   6.728   5.008   3.615
 2657TIP3   OH2 7911   8.163   6.907   2.021
 2657TIP3    H1 7912   8.248   6.921   2.063
 2657TIP3    H2 7913   8.169   6.958   1.939
 2658TIP3   OH2 7914   1.387   0.199   0.756
 2658TIP3    H1 7915   1.446   0.212   0.682
 2658TIP3    H2 7916   1.302   0.230   0.725
 2659TIP3   OH2 7917   1.571   6.560   1.162
 2659TIP3    H1 7918   1.650   6.585   1.211
 2659TIP3    H2 7919   1.604   6.507   1.090
 2660TIP3   OH2 7920   8.038   3.654   5.414
 2660TIP3    H1 7921   7.951   3.663   5.376
 2660TIP3    H2 7922   8.097   3.645   5.340
 2661TIP3   OH2 7923   6.980   5.121   3.825
 2661TIP3    H1 7924   6.978   5.188   3.756
 2661TIP3    H2 7925   6.893   5.082   3.824
 2662TIP3   OH2 7926   7.924   4.023   3.025
 2662TIP3    H1 7927   7.871   4.023   3.105
 2662TIP3    H2 7928   7.997   4.082   3.045
 2663TIP3   OH2 7929   3.406   5.135   4.420
 2663TIP3    H1 7930   3.480   5.084   4.452
 2663TIP3    H2 7931   3.365   5.170   4.499
 2664TIP3   OH2 7932   2.506   0.525   0.277
 2664TIP3    H1 7933   2.554   0.451   0.240
 2664TIP3    H2 7934   2.555   0.602   0.248
 2665TIP3   OH2 7935   5.999   6.601   4.186
 2665TIP3    H1 7936   6.001   6.604   4.282
 2665TIP3    H2 7937   5.954   6.520   4.165
 2666TIP3   OH2 7938   1.210   5.152   2.179
 2666TIP3    H1 7939   1.128   5.107   2.199
 2666TIP3    H2 7940   1.186   5.244   2.174
 2667TIP3   OH2 7941   0.639   5.987   4.215
 2667TIP3    H1 7942   0.724   6.016   4.246
 2667TIP3    H2 7943   0.576   6.040   4.263
 2668TIP3   OH2 7944   7.388   5.864   1.125
 2668TIP3    H1 7945   7.457   5.913   1.082
 2668TIP3    H2 7946   7.332   5.834   1.053
 2669TIP3   OH2 7947   1.399   6.328   5.346
 2669TIP3    H1 7948   1.485   6.341   5.387
 2669TIP3    H2 7949   1.363   6.252   5.391
 2670TIP3   OH2 7950   0.356   4.836   3.073
 2670TIP3    H1 7951   0.291   4.862   3.008
 2670TIP3    H2 7952   0.307   4.825   3.154
 2671TIP3   OH2 7953   5.757   5.721   3.238
 2671TIP3    H1 7954   5.689   5.762   3.291
 2671TIP3    H2 7955   5.837   5.768   3.260
 2672TIP3   OH2 7956   7.248   0.979   5.194
 2672TIP3    H1 7957   7.310   1.042   5.158
 2672TIP3    H2 7958   7.260   0.985   5.289
 2673TIP3   OH2 7959   4.616   1.064   5.819
 2673TIP3    H1 7960   4.538   1.009   5.825
 2673TIP3    H2 7961   4.669   1.039   5.894
 2674TIP3   OH2 7962   1.303   0.180   3.190
 2674TIP3    H1 7963   1.346   0.244   3.133
 2674TIP3    H2 7964   1.304   0.221   3.276
 2675TIP3   OH2 7965   5.441   7.096   1.675
 2675TIP3    H1 7966   5.456   7.004   1.698
 2675TIP3    H2 7967   5.413   7.093   1.583
 2676TIP3   OH2 7968   4.098   1.379   0.767
 2676TIP3    H1 7969   4.149   1.390   0.686
 2676TIP3    H2 7970   4.028   1.319   0.743
 2677TIP3   OH2 7971   6.671   7.508   0.905
 2677TIP3    H1 7972   6.723   7.448   0.958
 2677TIP3    H2 7973   6.732   7.543   0.840
 2678TIP3   OH2 7974   3.356   3.358   4.431
 2678TIP3    H1 7975   3.413   3.281   4.427
 2678TIP3    H2 7976   3.379   3.409   4.353
 2679TIP3   OH2 7977   2.186   7.806   3.218
 2679TIP3    H1 7978   2.126   7.822   3.291
 2679TIP3    H2 7979   2.222   7.892   3.196
 2680TIP3   OH2 7980   0.518   3.808   3.269
 2680TIP3    H1 7981   0.541   3.748   3.339
 2680TIP3    H2 7982   0.469   3.879   3.312
 2681TIP3   OH2 7983   3.116   5.364   2.756
 2681TIP3    H1 7984   3.051   5.364   2.827
 2681TIP3    H2 7985   3.136   5.457   2.743
 2682TIP3   OH2 7986   1.750   7.141   2.540
 2682TIP3    H1 7987   1.758   7.214   2.601
 2682TIP3    H2 7988   1.809   7.164   2.468
 2683TIP3   OH2 7989   4.574   4.205   4.538
 2683TIP3    H1 7990   4.656   4.255   4.527
 2683TIP3    H2 7991   4.518   4.235   4.466
 2684TIP3   OH2 7992   1.859   6.846   0.922
 2684TIP3    H1 7993   1.821   6.803   0.845
 2684TIP3    H2 7994   1.837   6.789   0.995
 2685TIP3   OH2 7995   5.931   5.178   1.621
 2685TIP3    H1 7996   5.965   5.187   1.532
 2685TIP3    H2 7997   5.967   5.254   1.668
 2686TIP3   OH2 7998   8.230   6.596   4.729
 2686TIP3    H1 7999   8.150   6.572   4.682
 2686TIP3    H2 8000   8.232   6.692   4.724
 2687TIP3   OH2 8001   7.338   6.417   2.468
 2687TIP3    H1 8002   7.298   6.473   2.533
 2687TIP3    H2 8003   7.365   6.476   2.397
 2688TIP3   OH2 8004   5.415   5.655   0.703
 2688TIP3    H1 8005   5.329   5.680   0.737
 2688TIP3    H2 8006   5.470   5.645   0.781
 2689TIP3   OH2 8007   7.990   6.704   4.175
 2689TIP3    H1 8008   8.009   6.613   4.195
 2689TIP3    H2 8009   7.984   6.707   4.080
 2690TIP3   OH2 8010   4.798   4.360   5.952
 2690TIP3    H1 8011   4.855   4.284   5.937
 2690TIP3    H2 8012   4.835   4.429   5.895
 2691TIP3   OH2 8013   1.352   3.732   0.265
 2691TIP3    H1 8014   1.426   3.702   0.212
 2691TIP3    H2 8015   1.297   3.655   0.275
 2692TIP3   OH2 8016   0.098   4.404   0.803
 2692TIP3    H1 8017   0.137   4.428   0.720
 2692TIP3    H2 8018   0.166   4.355   0.849
 2693TIP3   OH2 8019   0.028   3.213   1.177
 2693TIP3    H1 8020  -0.008   3.200   1.265
 2693TIP3    H2 8021   0.062   3.127   1.153
 2694TIP3   OH2 8022   7.803   5.839   1.886
 2694TIP3    H1 8023   7.794   5.874   1.974
 2694TIP3    H2 8024   7.714   5.812   1.861
 2695TIP3   OH2 8025   5.741   2.248   2.677
 2695TIP3    H1 8026   5.702   2.316   2.732
 2695TIP3    H2 8027   5.820   2.287   2.642
 2696TIP3   OH2 8028   0.590   7.489   5.478
 2696TIP3    H1 8029   0.609   7.471   5.386
 2696TIP3    H2 8030   0.676   7.490   5.521
 2697TIP3   OH2 8031   6.491   2.342   5.203
 2697TIP3    H1 8032   6.554   2.409   5.230
 2697TIP3    H2 8033   6.503   2.335   5.108
 2698TIP3   OH2 8034   3.890   3.978   1.057
 2698TIP3    H1 8035   3.870   4.014   1.143
 2698TIP3    H2 8036   3.901   4.055   1.000
 2699TIP3   OH2 8037   3.180   2.595   1.733
 2699TIP3    H1 8038   3.165   2.611   1.640
 2699TIP3    H2 8039   3.155   2.503   1.746
 2700TIP3   OH2 8040   8.394   1.549   4.593
 2700TIP3    H1 8041   8.346   1.533   4.512
 2700TIP3    H2 8042   8.401   1.463   4.635
 2701TIP3   OH2 8043   1.145   6.233   5.032
 2701TIP3    H1 8044   1.193   6.311   5.059
 2701TIP3    H2 8045   1.189   6.161   5.077
 2702TIP3   OH2 8046   1.509   7.067   3.187
 2702TIP3    H1 8047   1.511   6.973   3.201
 2702TIP3    H2 8048   1.562   7.103   3.258
 2703TIP3   OH2 8049   5.811   4.283   1.094
 2703TIP3    H1 8050   5.736   4.311   1.147
 2703TIP3    H2 8051   5.863   4.363   1.083
 2704TIP3   OH2 8052   7.435   2.292   3.618
 2704TIP3    H1 8053   7.373   2.234   3.573
 2704TIP3    H2 8054   7.521   2.263   3.587
 2705TIP3   OH2 8055   0.172   4.773   2.874
 2705TIP3    H1 8056   0.192   4.689   2.914
 2705TIP3    H2 8057   0.096   4.805   2.922
 2706TIP3   OH2 8058   6.136   4.158   0.669
 2706TIP3    H1 8059   6.135   4.065   0.691
 2706TIP3    H2 8060   6.205   4.195   0.724
 2707TIP3   OH2 8061   0.554   4.794   4.512
 2707TIP3    H1 8062   0.581   4.777   4.602
 2707TIP3    H2 8063   0.525   4.709   4.479
 2708TIP3   OH2 8064   5.086   1.904   2.097
 2708TIP3    H1 8065   5.072   1.992   2.132
 2708TIP3    H2 8066   5.122   1.855   2.171
 2709TIP3   OH2 8067   5.818   1.844   2.740
 2709TIP3    H1 8068   5.763   1.869   2.666
 2709TIP3    H2 8069   5.778   1.764   2.773
 2710TIP3   OH2 8070   0.657   3.016   3.663
 2710TIP3    H1 8071   0.701   2.933   3.682
 2710TIP3    H2 8072   0.654   3.062   3.747
 2711TIP3   OH2 8073   6.307   6.851   2.332
 2711TIP3    H1 8074   6.388   6.867   2.284
 2711TIP3    H2 8075   6.324   6.772   2.383
 2712TIP3   OH2 8076   4.555   1.886   1.915
 2712TIP3    H1 8077   4.470   1.861   1.950
 2712TIP3    H2 8078   4.573   1.820   1.848
 2713TIP3   OH2 8079   7.954   7.720   3.299
 2713TIP3    H1 8080   7.865   7.687   3.282
 2713TIP3    H2 8081   7.940   7.811   3.326
 2714TIP3   OH2 8082   3.110   0.842   3.780
 2714TIP3    H1 8083   3.044   0.886   3.725
 2714TIP3    H2 8084   3.078   0.853   3.869
 2715TIP3   OH2 8085   2.257   3.284   5.618
 2715TIP3    H1 8086   2.220   3.342   5.551
 2715TIP3    H2 8087   2.239   3.196   5.585
 2716TIP3   OH2 8088   7.445   2.563   3.575
 2716TIP3    H1 8089   7.357   2.591   3.549
 2716TIP3    H2 8090   7.430   2.487   3.631
 2717TIP3   OH2 8091   3.070   1.496   2.013
 2717TIP3    H1 8092   3.156   1.456   2.003
 2717TIP3    H2 8093   3.044   1.520   1.924
 2718TIP3   OH2 8094   1.993   4.625   3.093
 2718TIP3    H1 8095   1.919   4.664   3.141
 2718TIP3    H2 8096   1.990   4.532   3.117
 2719TIP3   OH2 8097   7.051   3.472   6.643
 2719TIP3    H1 8098   7.016   3.469   6.554
 2719TIP3    H2 8099   7.025   3.558   6.676
 2720TIP3   OH2 8100   4.736   1.495   0.736
 2720TIP3    H1 8101   4.702   1.420   0.785
 2720TIP3    H2 8102   4.772   1.553   0.802
 2721TIP3   OH2 8103   3.223   7.038   2.122
 2721TIP3    H1 8104   3.148   6.981   2.102
 2721TIP3    H2 8105   3.259   7.001   2.203
 2722TIP3   OH2 8106   7.059   4.272   4.825
 2722TIP3    H1 8107   7.090   4.247   4.912
 2722TIP3    H2 8108   7.008   4.352   4.840
 2723TIP3   OH2 8109   0.533   2.035   1.087
 2723TIP3    H1 8110   0.587   2.056   1.011
 2723TIP3    H2 8111   0.532   1.939   1.090
 2724TIP3   OH2 8112   4.205   7.040   6.008
 2724TIP3    H1 8113   4.140   6.987   6.055
 2724TIP3    H2 8114   4.288   6.995   6.024
 2725TIP3   OH2 8115   4.227   1.578   2.893
 2725TIP3    H1 8116   4.180   1.560   2.811
 2725TIP3    H2 8117   4.190   1.660   2.924
 2726TIP3   OH2 8118   4.331   3.634   4.776
 2726TIP3    H1 8119   4.397   3.580   4.731
 2726TIP3    H2 8120   4.257   3.575   4.787
 2727TIP3   OH2 8121   2.418   5.612   6.539
 2727TIP3    H1 8122   2.440   5.694   6.495
 2727TIP3    H2 8123   2.337   5.631   6.586
 2728TIP3   OH2 8124   4.355   3.926   5.111
 2728TIP3    H1 8125   4.362   3.940   5.205
 2728TIP3    H2 8126   4.262   3.942   5.092
 2729TIP3   OH2 8127   5.977   4.239   1.337
 2729TIP3    H1 8128   5.904   4.223   1.277
 2729TIP3    H2 8129   6.051   4.193   1.298
 2730TIP3   OH2 8130   3.912   7.801   5.810
 2730TIP3    H1 8131   3.872   7.863   5.871
 2730TIP3    H2 8132   3.851   7.728   5.807
 2731TIP3   OH2 8133   5.012   5.973   5.846
 2731TIP3    H1 8134   5.075   5.942   5.911
 2731TIP3    H2 8135   5.065   6.003   5.773
 2732TIP3   OH2 8136   0.176   7.843   3.458
 2732TIP3    H1 8137   0.269   7.826   3.441
 2732TIP3    H2 8138   0.131   7.770   3.417
 2733TIP3   OH2 8139   2.137   4.703   4.115
 2733TIP3    H1 8140   2.169   4.661   4.195
 2733TIP3    H2 8141   2.055   4.745   4.142
 2734TIP3   OH2 8142   7.645   5.498   0.091
 2734TIP3    H1 8143   7.644   5.403   0.098
 2734TIP3    H2 8144   7.732   5.518   0.056
 2735TIP3   OH2 8145   6.845   4.474   3.015
 2735TIP3    H1 8146   6.891   4.391   3.027
 2735TIP3    H2 8147   6.890   4.517   2.943
 2736TIP3   OH2 8148   4.180   6.240   1.934
 2736TIP3    H1 8149   4.148   6.293   1.861
 2736TIP3    H2 8150   4.161   6.150   1.907
 2737TIP3   OH2 8151   7.432   1.043   6.778
 2737TIP3    H1 8152   7.498   1.101   6.740
 2737TIP3    H2 8153   7.396   1.094   6.851
 2738TIP3   OH2 8154   3.573   2.629   4.849
 2738TIP3    H1 8155   3.492   2.679   4.838
 2738TIP3    H2 8156   3.629   2.657   4.776
 2739TIP3   OH2 8157   2.742   5.479   2.635
 2739TIP3    H1 8158   2.786   5.461   2.718
 2739TIP3    H2 8159   2.651   5.498   2.660
 2740TIP3   OH2 8160   7.641   0.307   3.062
 2740TIP3    H1 8161   7.731   0.321   3.092
 2740TIP3    H2 8162   7.596   0.270   3.137
 2741TIP3   OH2 8163   6.513   4.649   4.484
 2741TIP3    H1 8164   6.437   4.675   4.537
 2741TIP3    H2 8165   6.581   4.713   4.506
 2742TIP3   OH2 8166   7.878   7.379   5.255
 2742TIP3    H1 8167   7.913   7.443   5.317
 2742TIP3    H2 8168   7.789   7.363   5.285
 2743TIP3   OH2 8169   7.685   1.142   1.106
 2743TIP3    H1 8170   7.629   1.117   1.032
 2743TIP3    H2 8171   7.765   1.091   1.094
 2744TIP3   OH2 8172   6.090   4.603   1.499
 2744TIP3    H1 8173   6.073   4.665   1.570
 2744TIP3    H2 8174   6.074   4.517   1.538
 2745TIP3   OH2 8175   1.022   5.162   5.079
 2745TIP3    H1 8176   1.039   5.140   5.171
 2745TIP3    H2 8177   0.950   5.105   5.054
 2746TIP3   OH2 8178   1.020   1.572   6.315
 2746TIP3    H1 8179   0.931   1.558   6.348
 2746TIP3    H2 8180   1.067   1.613   6.388
 2747TIP3   OH2 8181   7.892   0.719   4.392
 2747TIP3    H1 8182   7.931   0.797   4.352
 2747TIP3    H2 8183   7.846   0.676   4.320
 2748TIP3   OH2 8184   7.936   5.384   0.087
 2748TIP3    H1 8185   8.024   5.357   0.111
 2748TIP3    H2 8186   7.890   5.302   0.065
 2749TIP3   OH2 8187   3.695   1.986   2.283
 2749TIP3    H1 8188   3.747   2.024   2.354
 2749TIP3    H2 8189   3.725   2.030   2.204
 2750TIP3   OH2 8190   2.614   2.232   3.406
 2750TIP3    H1 8191   2.599   2.242   3.312
 2750TIP3    H2 8192   2.660   2.312   3.431
 2751TIP3   OH2 8193   1.446   7.872   2.524
 2751TIP3    H1 8194   1.502   7.795   2.512
 2751TIP3    H2 8195   1.420   7.897   2.435
 2752TIP3   OH2 8196   6.402   4.973   2.404
 2752TIP3    H1 8197   6.433   5.054   2.363
 2752TIP3    H2 8198   6.465   4.906   2.378
 2753TIP3   OH2 8199   4.755   0.121   3.939
 2753TIP3    H1 8200   4.718   0.209   3.947
 2753TIP3    H2 8201   4.849   0.133   3.950
 2754TIP3   OH2 8202   2.314   2.100   3.998
 2754TIP3    H1 8203   2.330   2.133   4.086
 2754TIP3    H2 8204   2.304   2.005   4.009
 2755TIP3   OH2 8205   4.521   0.082   4.334
 2755TIP3    H1 8206   4.430   0.053   4.334
 2755TIP3    H2 8207   4.553   0.062   4.422
 2756TIP3   OH2 8208   7.089   4.191   3.308
 2756TIP3    H1 8209   7.065   4.278   3.339
 2756TIP3    H2 8210   7.107   4.141   3.387
 2757TIP3   OH2 8211   7.219   5.797   0.901
 2757TIP3    H1 8212   7.128   5.787   0.873
 2757TIP3    H2 8213   7.265   5.725   0.859
 2758TIP3   OH2 8214   0.158   1.019   5.181
 2758TIP3    H1 8215   0.203   0.967   5.247
 2758TIP3    H2 8216   0.163   0.967   5.101
 2759TIP3   OH2 8217   2.135   2.382   4.791
 2759TIP3    H1 8218   2.118   2.390   4.885
 2759TIP3    H2 8219   2.084   2.305   4.765
 2760TIP3   OH2 8220   1.015   0.899   1.574
 2760TIP3    H1 8221   0.976   0.813   1.590
 2760TIP3    H2 8222   1.057   0.891   1.488
 2761TIP3   OH2 8223   0.177   3.288   3.095
 2761TIP3    H1 8224   0.107   3.223   3.086
 2761TIP3    H2 8225   0.155   3.357   3.033
 2762TIP3   OH2 8226   0.185   3.541   1.752
 2762TIP3    H1 8227   0.271   3.521   1.715
 2762TIP3    H2 8228   0.204   3.579   1.837
 2763TIP3   OH2 8229   5.472   5.082   3.853
 2763TIP3    H1 8230   5.419   5.024   3.907
 2763TIP3    H2 8231   5.559   5.080   3.893
 2764TIP3   OH2 8232   0.886   6.333   2.448
 2764TIP3    H1 8233   0.938   6.253   2.442
 2764TIP3    H2 8234   0.815   6.312   2.508
 2765TIP3   OH2 8235   3.871   1.999   4.313
 2765TIP3    H1 8236   3.777   2.006   4.299
 2765TIP3    H2 8237   3.895   1.917   4.270
 2766TIP3   OH2 8238   8.031   5.325   0.861
 2766TIP3    H1 8239   8.095   5.288   0.801
 2766TIP3    H2 8240   8.073   5.321   0.947
 2767TIP3   OH2 8241   4.882   1.776   1.964
 2767TIP3    H1 8242   4.945   1.829   2.012
 2767TIP3    H2 8243   4.861   1.704   2.023
 2768TIP3   OH2 8244   0.730   6.267   1.772
 2768TIP3    H1 8245   0.734   6.193   1.832
 2768TIP3    H2 8246   0.644   6.307   1.789
 2769TIP3   OH2 8247   4.216   1.421   6.407
 2769TIP3    H1 8248   4.284   1.354   6.393
 2769TIP3    H2 8249   4.251   1.475   6.478
 2770TIP3   OH2 8250   5.759   7.068   2.646
 2770TIP3    H1 8251   5.729   7.148   2.690
 2770TIP3    H2 8252   5.740   6.998   2.709
 2771TIP3   OH2 8253   0.055   1.275   4.722
 2771TIP3    H1 8254   0.037   1.193   4.770
 2771TIP3    H2 8255   0.072   1.246   4.633
 2772TIP3   OH2 8256   0.881   5.016   0.196
 2772TIP3    H1 8257   0.936   4.938   0.199
 2772TIP3    H2 8258   0.905   5.060   0.114
 2773TIP3   OH2 8259   1.102   0.790   5.320
 2773TIP3    H1 8260   1.186   0.745   5.318
 2773TIP3    H2 8261   1.123   0.882   5.330
 2774TIP3   OH2 8262   1.528   1.968   2.191
 2774TIP3    H1 8263   1.487   2.051   2.216
 2774TIP3    H2 8264   1.600   1.994   2.132
 2775TIP3   OH2 8265   4.591   0.417   2.167
 2775TIP3    H1 8266   4.531   0.489   2.185
 2775TIP3    H2 8267   4.635   0.442   2.086
 2776TIP3   OH2 8268   5.268   6.323   1.749
 2776TIP3    H1 8269   5.207   6.249   1.741
 2776TIP3    H2 8270   5.351   6.289   1.715
 2777TIP3   OH2 8271   2.976   5.168   6.038
 2777TIP3    H1 8272   2.987   5.106   5.966
 2777TIP3    H2 8273   2.935   5.117   6.108
 2778TIP3   OH2 8274   1.979   0.923   2.022
 2778TIP3    H1 8275   1.890   0.890   2.033
 2778TIP3    H2 8276   2.000   0.967   2.104
 2779TIP3   OH2 8277   3.510   1.345   0.143
 2779TIP3    H1 8278   3.578   1.319   0.081
 2779TIP3    H2 8279   3.428   1.313   0.104
 2780TIP3   OH2 8280   5.095   6.838   0.667
 2780TIP3    H1 8281   5.137   6.919   0.638
 2780TIP3    H2 8282   5.002   6.859   0.669
 2781TIP3   OH2 8283   4.853   3.236   2.878
 2781TIP3    H1 8284   4.790   3.202   2.941
 2781TIP3    H2 8285   4.857   3.170   2.809
 2782TIP3   OH2 8286   1.215   1.678   3.162
 2782TIP3    H1 8287   1.191   1.738   3.091
 2782TIP3    H2 8288   1.194   1.726   3.242
 2783TIP3   OH2 8289   8.014   7.694   2.897
 2783TIP3    H1 8290   8.078   7.624   2.883
 2783TIP3    H2 8291   8.044   7.738   2.977
 2784TIP3   OH2 8292   8.192   7.509   6.461
 2784TIP3    H1 8293   8.173   7.602   6.457
 2784TIP3    H2 8294   8.286   7.503   6.478
 2785TIP3   OH2 8295   0.176   4.353   6.026
 2785TIP3    H1 8296   0.209   4.326   6.112
 2785TIP3    H2 8297   0.232   4.427   6.001
 2786TIP3   OH2 8298   0.116   7.646   2.733
 2786TIP3    H1 8299   0.052   7.647   2.804
 2786TIP3    H2 8300   0.197   7.679   2.773
 2787TIP3   OH2 8301   7.464   2.766   5.335
 2787TIP3    H1 8302   7.374   2.798   5.331
 2787TIP3    H2 8303   7.485   2.764   5.429
 2788TIP3   OH2 8304   2.960   1.573   1.390
 2788TIP3    H1 8305   2.952   1.564   1.485
 2788TIP3    H2 8306   3.017   1.501   1.363
 2789TIP3   OH2 8307   2.467   4.635   1.400
 2789TIP3    H1 8308   2.467   4.636   1.496
 2789TIP3    H2 8309   2.443   4.724   1.375
 2790TIP3   OH2 8310   3.579   5.595   6.161
 2790TIP3    H1 8311   3.492   5.617   6.126
 2790TIP3    H2 8312   3.618   5.540   6.094
 2791TIP3   OH2 8313   2.472   2.214   5.234
 2791TIP3    H1 8314   2.522   2.137   5.262
 2791TIP3    H2 8315   2.514   2.242   5.152
 2792TIP3   OH2 8316   6.692   2.748   3.573
 2792TIP3    H1 8317   6.672   2.659   3.546
 2792TIP3    H2 8318   6.610   2.796   3.563
 2793TIP3   OH2 8319   6.298   7.374   6.554
 2793TIP3    H1 8320   6.351   7.301   6.589
 2793TIP3    H2 8321   6.330   7.451   6.601
 2794TIP3   OH2 8322   7.536   3.310   4.119
 2794TIP3    H1 8323   7.444   3.302   4.092
 2794TIP3    H2 8324   7.556   3.225   4.159
 2795TIP3   OH2 8325   4.513   4.224   0.531
 2795TIP3    H1 8326   4.514   4.213   0.626
 2795TIP3    H2 8327   4.600   4.194   0.502
 2796TIP3   OH2 8328   6.270   7.169   3.571
 2796TIP3    H1 8329   6.182   7.189   3.539
 2796TIP3    H2 8330   6.324   7.164   3.492
 2797TIP3   OH2 8331   8.134   5.066   5.016
 2797TIP3    H1 8332   8.218   5.049   4.974
 2797TIP3    H2 8333   8.095   4.980   5.029
 2798TIP3   OH2 8334   8.272   2.399   0.381
 2798TIP3    H1 8335   8.205   2.466   0.394
 2798TIP3    H2 8336   8.325   2.432   0.308
 2799TIP3   OH2 8337   4.478   5.116   3.606
 2799TIP3    H1 8338   4.416   5.075   3.545
 2799TIP3    H2 8339   4.503   5.198   3.564
 2800TIP3   OH2 8340   5.931   1.101   2.786
 2800TIP3    H1 8341   5.984   1.116   2.708
 2800TIP3    H2 8342   5.995   1.098   2.858
 2801TIP3   OH2 8343   5.118   0.916   6.340
 2801TIP3    H1 8344   5.158   0.974   6.275
 2801TIP3    H2 8345   5.157   0.831   6.324
 2802TIP3   OH2 8346   5.785   3.026   1.256
 2802TIP3    H1 8347   5.692   3.035   1.233
 2802TIP3    H2 8348   5.832   3.058   1.178
 2803TIP3   OH2 8349   3.055   4.428   0.376
 2803TIP3    H1 8350   3.084   4.409   0.287
 2803TIP3    H2 8351   2.996   4.356   0.398
 2804TIP3   OH2 8352   0.073   5.677   2.456
 2804TIP3    H1 8353   0.077   5.744   2.523
 2804TIP3    H2 8354   0.148   5.694   2.399
 2805TIP3   OH2 8355   6.047   2.559   1.948
 2805TIP3    H1 8356   6.100   2.583   2.024
 2805TIP3    H2 8357   6.110   2.536   1.880
 2806TIP3   OH2 8358   7.015   3.479   2.115
 2806TIP3    H1 8359   7.059   3.550   2.162
 2806TIP3    H2 8360   6.927   3.476   2.154
 2807TIP3   OH2 8361   3.215   4.304   5.872
 2807TIP3    H1 8362   3.219   4.309   5.777
 2807TIP3    H2 8363   3.294   4.349   5.901
 2808TIP3   OH2 8364   6.325   3.960   5.252
 2808TIP3    H1 8365   6.321   3.917   5.337
 2808TIP3    H2 8366   6.341   3.890   5.190
 2809TIP3   OH2 8367   8.095   6.439   1.432
 2809TIP3    H1 8368   8.167   6.501   1.418
 2809TIP3    H2 8369   8.018   6.485   1.399
 2810TIP3   OH2 8370   2.332   4.136   4.046
 2810TIP3    H1 8371   2.388   4.148   4.124
 2810TIP3    H2 8372   2.386   4.167   3.973
 2811TIP3   OH2 8373   2.773   6.547   3.615
 2811TIP3    H1 8374   2.844   6.511   3.563
 2811TIP3    H2 8375   2.701   6.559   3.553
 2812TIP3   OH2 8376   6.589   1.884   2.077
 2812TIP3    H1 8377   6.666   1.921   2.035
 2812TIP3    H2 8378   6.516   1.937   2.043
 2813TIP3   OH2 8379   6.715   2.657   6.109
 2813TIP3    H1 8380   6.793   2.713   6.105
 2813TIP3    H2 8381   6.685   2.651   6.019
 2814TIP3   OH2 8382   5.023   7.774   4.170
 2814TIP3    H1 8383   5.108   7.733   4.155
 2814TIP3    H2 8384   4.961   7.701   4.175
 2815TIP3   OH2 8385   5.465   1.967   1.624
 2815TIP3    H1 8386   5.553   1.977   1.588
 2815TIP3    H2 8387   5.459   1.875   1.649
 2816TIP3   OH2 8388   1.900   1.125   0.390
 2816TIP3    H1 8389   1.986   1.115   0.351
 2816TIP3    H2 8390   1.852   1.180   0.328
 2817TIP3   OH2 8391   8.196   1.153   5.058
 2817TIP3    H1 8392   8.191   1.100   5.137
 2817TIP3    H2 8393   8.191   1.244   5.088
 2818TIP3   OH2 8394   2.866   2.562   6.665
 2818TIP3    H1 8395   2.956   2.533   6.676
 2818TIP3    H2 8396   2.841   2.596   6.751
 2819TIP3   OH2 8397   7.226   7.611   4.038
 2819TIP3    H1 8398   7.169   7.544   4.076
 2819TIP3    H2 8399   7.213   7.688   4.093
 2820TIP3   OH2 8400   5.445   3.375   4.376
 2820TIP3    H1 8401   5.521   3.317   4.386
 2820TIP3    H2 8402   5.376   3.319   4.341
 2821TIP3   OH2 8403   4.014   2.887   4.681
 2821TIP3    H1 8404   4.017   2.926   4.769
 2821TIP3    H2 8405   3.999   2.961   4.623
 2822TIP3   OH2 8406   2.507   2.108   0.769
 2822TIP3    H1 8407   2.412   2.109   0.783
 2822TIP3    H2 8408   2.539   2.185   0.815
 2823TIP3   OH2 8409   3.241   5.869   5.845
 2823TIP3    H1 8410   3.203   5.953   5.819
 2823TIP3    H2 8411   3.166   5.811   5.857
 2824TIP3   OH2 8412   0.431   4.579   1.613
 2824TIP3    H1 8413   0.471   4.665   1.631
 2824TIP3    H2 8414   0.498   4.531   1.565
 2825TIP3   OH2 8415   4.665   2.234   5.498
 2825TIP3    H1 8416   4.723   2.160   5.514
 2825TIP3    H2 8417   4.595   2.199   5.444
 2826TIP3   OH2 8418   8.233   3.452   5.557
 2826TIP3    H1 8419   8.195   3.419   5.476
 2826TIP3    H2 8420   8.194   3.538   5.569
 2827TIP3   OH2 8421   3.164   1.904   2.598
 2827TIP3    H1 8422   3.140   1.943   2.683
 2827TIP3    H2 8423   3.200   1.977   2.548
 2828TIP3   OH2 8424   4.426   3.832   3.902
 2828TIP3    H1 8425   4.505   3.798   3.860
 2828TIP3    H2 8426   4.383   3.754   3.939
 2829TIP3   OH2 8427   0.650   1.666   2.114
 2829TIP3    H1 8428   0.637   1.635   2.203
 2829TIP3    H2 8429   0.679   1.757   2.123
 2830TIP3   OH2 8430   6.428   5.259   4.475
 2830TIP3    H1 8431   6.481   5.194   4.520
 2830TIP3    H2 8432   6.470   5.269   4.389
 2831TIP3   OH2 8433   5.024   3.612   0.120
 2831TIP3    H1 8434   4.988   3.696   0.093
 2831TIP3    H2 8435   4.948   3.557   0.139
 2832TIP3   OH2 8436   2.323   7.565   1.116
 2832TIP3    H1 8437   2.338   7.640   1.059
 2832TIP3    H2 8438   2.410   7.526   1.127
 2833TIP3   OH2 8439   7.970   5.240   1.722
 2833TIP3    H1 8440   8.004   5.250   1.633
 2833TIP3    H2 8441   8.045   5.208   1.773
 2834TIP3   OH2 8442   2.272   3.058   1.866
 2834TIP3    H1 8443   2.293   3.150   1.854
 2834TIP3    H2 8444   2.220   3.055   1.946
 2835TIP3   OH2 8445   5.502   4.298   2.231
 2835TIP3    H1 8446   5.577   4.244   2.203
 2835TIP3    H2 8447   5.539   4.385   2.244
 2836TIP3   OH2 8448   7.431   4.836   0.558
 2836TIP3    H1 8449   7.374   4.878   0.493
 2836TIP3    H2 8450   7.384   4.847   0.641
 2837TIP3   OH2 8451   4.839   5.150   4.033
 2837TIP3    H1 8452   4.843   5.080   3.969
 2837TIP3    H2 8453   4.859   5.107   4.117
 2838TIP3   OH2 8454   4.868   4.830   6.258
 2838TIP3    H1 8455   4.880   4.865   6.346
 2838TIP3    H2 8456   4.921   4.886   6.202
 2839TIP3   OH2 8457   7.656   4.714   3.767
 2839TIP3    H1 8458   7.646   4.626   3.802
 2839TIP3    H2 8459   7.583   4.724   3.706
 2840TIP3   OH2 8460   1.315   5.334   4.469
 2840TIP3    H1 8461   1.320   5.246   4.432
 2840TIP3    H2 8462   1.344   5.323   4.559
 2841TIP3   OH2 8463   3.319   4.635   1.691
 2841TIP3    H1 8464   3.408   4.641   1.656
 2841TIP3    H2 8465   3.293   4.544   1.677
 2842TIP3   OH2 8466   1.384   0.689   1.942
 2842TIP3    H1 8467   1.334   0.769   1.957
 2842TIP3    H2 8468   1.472   0.720   1.920
 2843TIP3   OH2 8469   4.692   5.021   2.912
 2843TIP3    H1 8470   4.622   4.993   2.853
 2843TIP3    H2 8471   4.675   4.972   2.993
 2844TIP3   OH2 8472   4.115   2.273   3.044
 2844TIP3    H1 8473   4.163   2.330   3.104
 2844TIP3    H2 8474   4.038   2.324   3.018
 2845TIP3   OH2 8475   6.306   6.760   5.286
 2845TIP3    H1 8476   6.323   6.845   5.325
 2845TIP3    H2 8477   6.357   6.699   5.338
 2846TIP3   OH2 8478   4.547   5.831   2.494
 2846TIP3    H1 8479   4.602   5.778   2.552
 2846TIP3    H2 8480   4.554   5.788   2.408
 2847TIP3   OH2 8481   5.850   5.374   0.020
 2847TIP3    H1 8482   5.858   5.460   0.061
 2847TIP3    H2 8483   5.929   5.365  -0.033
 2848TIP3   OH2 8484   3.744   6.817   6.365
 2848TIP3    H1 8485   3.832   6.835   6.397
 2848TIP3    H2 8486   3.739   6.721   6.359
 2849TIP3   OH2 8487   4.636   0.904   3.282
 2849TIP3    H1 8488   4.612   0.996   3.296
 2849TIP3    H2 8489   4.637   0.866   3.369
 2850TIP3   OH2 8490   8.097   6.723   1.303
 2850TIP3    H1 8491   8.125   6.781   1.373
 2850TIP3    H2 8492   8.083   6.781   1.227
 2851TIP3   OH2 8493   3.604   0.558   2.625
 2851TIP3    H1 8494   3.574   0.608   2.549
 2851TIP3    H2 8495   3.528   0.552   2.682
 2852TIP3   OH2 8496   0.041   3.565   4.461
 2852TIP3    H1 8497   0.043   3.609   4.545
 2852TIP3    H2 8498   0.028   3.635   4.397
 2853TIP3   OH2 8499   6.043   1.058   4.506
 2853TIP3    H1 8500   6.106   1.130   4.507
 2853TIP3    H2 8501   6.090   0.985   4.546
 2854TIP3   OH2 8502   3.498   2.050   1.667
 2854TIP3    H1 8503   3.447   1.992   1.723
 2854TIP3    H2 8504   3.435   2.085   1.604
 2855TIP3   OH2 8505   4.926   1.239   5.314
 2855TIP3    H1 8506   4.834   1.229   5.289
 2855TIP3    H2 8507   4.973   1.178   5.257
 2856TIP3   OH2 8508   0.431   1.279   5.315
 2856TIP3    H1 8509   0.445   1.200   5.367
 2856TIP3    H2 8510   0.518   1.318   5.306
 2857TIP3   OH2 8511   7.194   6.135   6.713
 2857TIP3    H1 8512   7.245   6.174   6.642
 2857TIP3    H2 8513   7.209   6.193   6.788
 2858TIP3   OH2 8514   7.079   3.471   1.865
 2858TIP3    H1 8515   7.000   3.497   1.817
 2858TIP3    H2 8516   7.050   3.456   1.954
 2859TIP3   OH2 8517   8.183   5.449   1.843
 2859TIP3    H1 8518   8.216   5.367   1.880
 2859TIP3    H2 8519   8.136   5.491   1.915
 2860TIP3   OH2 8520   2.238   0.301   3.119
 2860TIP3    H1 8521   2.197   0.245   3.186
 2860TIP3    H2 8522   2.287   0.240   3.064
 2861TIP3   OH2 8523   6.052   1.574   1.542
 2861TIP3    H1 8524   6.136   1.590   1.500
 2861TIP3    H2 8525   6.068   1.501   1.602
 2862TIP3   OH2 8526   6.396   3.072   5.116
 2862TIP3    H1 8527   6.413   3.150   5.064
 2862TIP3    H2 8528   6.437   3.090   5.201
 2863TIP3   OH2 8529   6.961   5.289   2.391
 2863TIP3    H1 8530   6.929   5.380   2.394
 2863TIP3    H2 8531   6.896   5.243   2.338
 2864TIP3   OH2 8532   2.982   6.755   3.102
 2864TIP3    H1 8533   2.936   6.801   3.172
 2864TIP3    H2 8534   3.073   6.783   3.110
 2865TIP3   OH2 8535   4.010   3.141   6.094
 2865TIP3    H1 8536   4.100   3.157   6.121
 2865TIP3    H2 8537   3.985   3.220   6.045
 2866TIP3   OH2 8538   0.262   3.227   2.152
 2866TIP3    H1 8539   0.332   3.199   2.210
 2866TIP3    H2 8540   0.219   3.298   2.199
 2867TIP3   OH2 8541   0.216   6.002   5.165
 2867TIP3    H1 8542   0.184   5.957   5.243
 2867TIP3    H2 8543   0.307   5.972   5.157
 2868TIP3   OH2 8544   2.211   0.560   3.166
 2868TIP3    H1 8545   2.251   0.478   3.137
 2868TIP3    H2 8546   2.277   0.600   3.223
 2869TIP3   OH2 8547   6.255   0.554   2.457
 2869TIP3    H1 8548   6.322   0.508   2.406
 2869TIP3    H2 8549   6.303   0.622   2.504
 2870TIP3   OH2 8550   0.253   6.314   3.589
 2870TIP3    H1 8551   0.169   6.277   3.617
 2870TIP3    H2 8552   0.271   6.273   3.505
 2871TIP3   OH2 8553   6.010   6.409   3.389
 2871TIP3    H1 8554   6.074   6.350   3.429
 2871TIP3    H2 8555   6.047   6.496   3.399
 2872TIP3   OH2 8556   1.951   4.335   0.216
 2872TIP3    H1 8557   1.989   4.342   0.303
 2872TIP3    H2 8558   2.006   4.390   0.160
 2873TIP3   OH2 8559   5.704   5.194   4.043
 2873TIP3    H1 8560   5.732   5.262   3.982
 2873TIP3    H2 8561   5.668   5.243   4.118
 2874TIP3   OH2 8562   4.718   3.596   4.818
 2874TIP3    H1 8563   4.807   3.578   4.788
 2874TIP3    H2 8564   4.725   3.600   4.913
 2875TIP3   OH2 8565   4.140   2.752   2.119
 2875TIP3    H1 8566   4.175   2.740   2.031
 2875TIP3    H2 8567   4.215   2.783   2.170
 2876TIP3   OH2 8568   2.988   1.690   4.059
 2876TIP3    H1 8569   2.972   1.713   3.968
 2876TIP3    H2 8570   3.025   1.770   4.098
 2877TIP3   OH2 8571   7.059   2.549   1.850
 2877TIP3    H1 8572   6.991   2.494   1.812
 2877TIP3    H2 8573   7.087   2.502   1.929
 2878TIP3   OH2 8574   6.902   1.643   0.722
 2878TIP3    H1 8575   6.938   1.728   0.694
 2878TIP3    H2 8576   6.927   1.583   0.652
 2879TIP3   OH2 8577   4.915   1.064   1.084
 2879TIP3    H1 8578   4.952   1.150   1.102
 2879TIP3    H2 8579   4.844   1.055   1.148
 2880TIP3   OH2 8580   7.151   0.879   5.506
 2880TIP3    H1 8581   7.196   0.960   5.484
 2880TIP3    H2 8582   7.152   0.876   5.602
 2881TIP3   OH2 8583   5.930   2.274   2.997
 2881TIP3    H1 8584   5.952   2.252   3.088
 2881TIP3    H2 8585   5.842   2.239   2.985
 2882TIP3   OH2 8586   4.583   0.949   4.380
 2882TIP3    H1 8587   4.496   0.912   4.394
 2882TIP3    H2 8588   4.641   0.893   4.433
 2883TIP3   OH2 8589   5.908   3.099   5.548
 2883TIP3    H1 8590   5.822   3.064   5.521
 2883TIP3    H2 8591   5.891   3.141   5.633
 2884TIP3   OH2 8592   5.398   5.180   4.196
 2884TIP3    H1 8593   5.352   5.163   4.114
 2884TIP3    H2 8594   5.328   5.190   4.261
 2885TIP3   OH2 8595   2.867   0.304   3.296
 2885TIP3    H1 8596   2.896   0.244   3.227
 2885TIP3    H2 8597   2.906   0.270   3.376
 2886TIP3   OH2 8598   3.868   4.842   5.982
 2886TIP3    H1 8599   3.833   4.929   6.001
 2886TIP3    H2 8600   3.883   4.802   6.068
 2887TIP3   OH2 8601   5.482   3.163   2.157
 2887TIP3    H1 8602   5.538   3.240   2.151
 2887TIP3    H2 8603   5.396   3.194   2.129
 2888TIP3   OH2 8604   6.550   1.995   5.405
 2888TIP3    H1 8605   6.467   1.961   5.372
 2888TIP3    H2 8606   6.617   1.948   5.356
 2889TIP3   OH2 8607   1.248   4.055   1.142
 2889TIP3    H1 8608   1.227   4.128   1.084
 2889TIP3    H2 8609   1.336   4.028   1.115
 2890TIP3   OH2 8610   1.145   4.957   1.381
 2890TIP3    H1 8611   1.080   4.898   1.344
 2890TIP3    H2 8612   1.096   5.012   1.443
 2891TIP3   OH2 8613   5.791   3.897   4.493
 2891TIP3    H1 8614   5.765   3.860   4.578
 2891TIP3    H2 8615   5.883   3.920   4.504
 2892TIP3   OH2 8616   0.429   5.602   4.070
 2892TIP3    H1 8617   0.446   5.534   4.135
 2892TIP3    H2 8618   0.511   5.651   4.065
 2893TIP3   OH2 8619   1.394   7.094   3.982
 2893TIP3    H1 8620   1.435   7.140   4.055
 2893TIP3    H2 8621   1.439   7.127   3.904
 2894TIP3   OH2 8622   3.253   7.564   2.204
 2894TIP3    H1 8623   3.274   7.480   2.246
 2894TIP3    H2 8624   3.252   7.627   2.276
 2895TIP3   OH2 8625   6.624   2.705   2.603
 2895TIP3    H1 8626   6.592   2.726   2.691
 2895TIP3    H2 8627   6.600   2.613   2.590
 2896TIP3   OH2 8628   6.952   6.811   3.341
 2896TIP3    H1 8629   6.867   6.769   3.330
 2896TIP3    H2 8630   6.949   6.887   3.283
 2897TIP3   OH2 8631   5.544   0.546   2.387
 2897TIP3    H1 8632   5.587   0.529   2.471
 2897TIP3    H2 8633   5.501   0.464   2.365
 2898TIP3   OH2 8634   7.608   4.249   2.494
 2898TIP3    H1 8635   7.575   4.326   2.540
 2898TIP3    H2 8636   7.659   4.201   2.560
 2899TIP3   OH2 8637   2.285   1.478   5.952
 2899TIP3    H1 8638   2.285   1.483   5.856
 2899TIP3    H2 8639   2.240   1.558   5.980
 2900TIP3   OH2 8640   7.790   6.364   1.962
 2900TIP3    H1 8641   7.758   6.334   1.878
 2900TIP3    H2 8642   7.767   6.295   2.024
 2901TIP3   OH2 8643   6.687   7.286   1.158
 2901TIP3    H1 8644   6.621   7.246   1.102
 2901TIP3    H2 8645   6.662   7.261   1.247
 2902TIP3   OH2 8646   5.508   3.411   6.582
 2902TIP3    H1 8647   5.447   3.485   6.582
 2902TIP3    H2 8648   5.454   3.337   6.553
 2903TIP3   OH2 8649   2.983   6.688   1.680
 2903TIP3    H1 8650   3.070   6.649   1.689
 2903TIP3    H2 8651   2.974   6.705   1.587
 2904TIP3   OH2 8652   5.437   1.307   3.199
 2904TIP3    H1 8653   5.473   1.390   3.167
 2904TIP3    H2 8654   5.455   1.245   3.128
 2905TIP3   OH2 8655   1.936   3.473   6.455
 2905TIP3    H1 8656   1.871   3.404   6.471
 2905TIP3    H2 8657   1.969   3.495   6.541
 2906TIP3   OH2 8658   7.190   6.401   0.330
 2906TIP3    H1 8659   7.224   6.427   0.416
 2906TIP3    H2 8660   7.210   6.308   0.323
 2907TIP3   OH2 8661   7.138   7.639   1.679
 2907TIP3    H1 8662   7.215   7.675   1.723
 2907TIP3    H2 8663   7.092   7.590   1.747
 2908TIP3   OH2 8664   1.651   2.547   1.609
 2908TIP3    H1 8665   1.619   2.457   1.619
 2908TIP3    H2 8666   1.633   2.569   1.517
 2909TIP3   OH2 8667   5.625   7.359   6.261
 2909TIP3    H1 8668   5.666   7.415   6.195
 2909TIP3    H2 8669   5.576   7.294   6.211
 2910TIP3   OH2 8670   3.138   3.277   3.628
 2910TIP3    H1 8671   3.178   3.286   3.714
 2910TIP3    H2 8672   3.045   3.265   3.645
 2911TIP3   OH2 8673   3.228   2.702   0.312
 2911TIP3    H1 8674   3.231   2.681   0.405
 2911TIP3    H2 8675   3.142   2.671   0.283
 2912TIP3   OH2 8676   1.518   2.803   1.492
 2912TIP3    H1 8677   1.459   2.867   1.452
 2912TIP3    H2 8678   1.575   2.855   1.549
 2913TIP3   OH2 8679   4.592   2.080   4.901
 2913TIP3    H1 8680   4.499   2.088   4.881
 2913TIP3    H2 8681   4.598   2.101   4.994
 2914TIP3   OH2 8682   7.228   7.404   3.343
 2914TIP3    H1 8683   7.173   7.466   3.295
 2914TIP3    H2 8684   7.294   7.376   3.280
 2915TIP3   OH2 8685   1.082   7.335   6.577
 2915TIP3    H1 8686   1.128   7.310   6.497
 2915TIP3    H2 8687   1.116   7.275   6.644
 2916TIP3   OH2 8688   6.232   3.589   0.575
 2916TIP3    H1 8689   6.242   3.504   0.534
 2916TIP3    H2 8690   6.230   3.651   0.502
 2917TIP3   OH2 8691   7.463   4.157   4.891
 2917TIP3    H1 8692   7.462   4.066   4.864
 2917TIP3    H2 8693   7.513   4.158   4.972
 2918TIP3   OH2 8694   4.214   2.377   5.497
 2918TIP3    H1 8695   4.308   2.393   5.486
 2918TIP3    H2 8696   4.177   2.465   5.509
 2919TIP3   OH2 8697   6.691   3.872   1.228
 2919TIP3    H1 8698   6.647   3.797   1.268
 2919TIP3    H2 8699   6.701   3.848   1.136
 2920TIP3   OH2 8700   4.240   7.284   6.435
 2920TIP3    H1 8701   4.256   7.289   6.341
 2920TIP3    H2 8702   4.202   7.369   6.457
 2921TIP3   OH2 8703   3.827   7.354   3.029
 2921TIP3    H1 8704   3.895   7.421   3.032
 2921TIP3    H2 8705   3.800   7.350   2.937
 2922TIP3   OH2 8706   0.837   7.578   5.595
 2922TIP3    H1 8707   0.908   7.548   5.652
 2922TIP3    H2 8708   0.837   7.673   5.604
 2923TIP3   OH2 8709   1.059   1.456   3.105
 2923TIP3    H1 8710   1.114   1.526   3.140
 2923TIP3    H2 8711   0.970   1.482   3.126
 2924TIP3   OH2 8712   4.656   3.236   1.603
 2924TIP3    H1 8713   4.613   3.180   1.667
 2924TIP3    H2 8714   4.726   3.279   1.652
 2925TIP3   OH2 8715   8.060   5.463   3.390
 2925TIP3    H1 8716   8.099   5.467   3.303
 2925TIP3    H2 8717   8.133   5.476   3.450
 2926TIP3   OH2 8718   1.808   0.110   3.204
 2926TIP3    H1 8719   1.844   0.121   3.116
 2926TIP3    H2 8720   1.883   0.123   3.263
 2927TIP3   OH2 8721   6.191   5.221   1.852
 2927TIP3    H1 8722   6.201   5.247   1.943
 2927TIP3    H2 8723   6.127   5.282   1.816
 2928TIP3   OH2 8724   0.324   7.194   2.446
 2928TIP3    H1 8725   0.291   7.275   2.485
 2928TIP3    H2 8726   0.391   7.163   2.507
 2929TIP3   OH2 8727   0.894   2.374   6.366
 2929TIP3    H1 8728   0.954   2.436   6.407
 2929TIP3    H2 8729   0.814   2.424   6.351
 2930TIP3   OH2 8730   6.008   3.452   1.029
 2930TIP3    H1 8731   6.075   3.517   1.008
 2930TIP3    H2 8732   6.010   3.391   0.955
 2931TIP3   OH2 8733   3.518   0.635   5.700
 2931TIP3    H1 8734   3.540   0.543   5.684
 2931TIP3    H2 8735   3.522   0.645   5.795
 2932TIP3   OH2 8736   3.416   1.748   6.358
 2932TIP3    H1 8737   3.407   1.653   6.364
 2932TIP3    H2 8738   3.507   1.765   6.380
 2933TIP3   OH2 8739   0.899   2.416   4.795
 2933TIP3    H1 8740   0.901   2.410   4.700
 2933TIP3    H2 8741   0.888   2.326   4.825
 2934TIP3   OH2 8742   0.912   5.241   5.369
 2934TIP3    H1 8743   0.967   5.188   5.427
 2934TIP3    H2 8744   0.889   5.318   5.421
 2935TIP3   OH2 8745   5.045   5.199   0.476
 2935TIP3    H1 8746   5.049   5.275   0.535
 2935TIP3    H2 8747   5.095   5.225   0.399
 2936TIP3   OH2 8748   1.890   0.119   2.950
 2936TIP3    H1 8749   1.835   0.072   2.887
 2936TIP3    H2 8750   1.950   0.170   2.896
 2937TIP3   OH2 8751   1.934   2.086   4.087
 2937TIP3    H1 8752   1.911   1.997   4.060
 2937TIP3    H2 8753   1.987   2.074   4.166
 2938TIP3   OH2 8754   1.983   5.416   1.077
 2938TIP3    H1 8755   2.076   5.392   1.075
 2938TIP3    H2 8756   1.970   5.465   0.996
 2939TIP3   OH2 8757   3.412   6.250   3.105
 2939TIP3    H1 8758   3.384   6.159   3.102
 2939TIP3    H2 8759   3.452   6.260   3.191
 2940TIP3   OH2 8760   5.734   0.495   1.570
 2940TIP3    H1 8761   5.698   0.530   1.651
 2940TIP3    H2 8762   5.791   0.564   1.536
 2941TIP3   OH2 8763   7.877   3.961   0.178
 2941TIP3    H1 8764   7.951   3.976   0.119
 2941TIP3    H2 8765   7.825   3.894   0.134
 2942TIP3   OH2 8766   2.712   5.359   5.827
 2942TIP3    H1 8767   2.671   5.327   5.747
 2942TIP3    H2 8768   2.656   5.326   5.898
 2943TIP3   OH2 8769   0.653   5.054   0.869
 2943TIP3    H1 8770   0.661   5.145   0.840
 2943TIP3    H2 8771   0.737   5.014   0.845
 2944TIP3   OH2 8772   5.420   4.397   4.593
 2944TIP3    H1 8773   5.346   4.385   4.533
 2944TIP3    H2 8774   5.496   4.404   4.535
 2945TIP3   OH2 8775   0.523   2.100   4.016
 2945TIP3    H1 8776   0.574   2.138   3.945
 2945TIP3    H2 8777   0.543   2.155   4.092
 2946TIP3   OH2 8778   4.676   4.876   3.175
 2946TIP3    H1 8779   4.759   4.828   3.180
 2946TIP3    H2 8780   4.628   4.834   3.103
 2947TIP3   OH2 8781   1.847   2.096   2.152
 2947TIP3    H1 8782   1.881   2.014   2.116
 2947TIP3    H2 8783   1.880   2.164   2.093
 2948TIP3   OH2 8784   7.920   6.140   1.805
 2948TIP3    H1 8785   7.992   6.078   1.795
 2948TIP3    H2 8786   7.960   6.214   1.851
 2949TIP3   OH2 8787   0.243   6.791   1.577
 2949TIP3    H1 8788   0.273   6.823   1.661
 2949TIP3    H2 8789   0.274   6.701   1.573
 2950TIP3   OH2 8790   1.312   5.116   1.616
 2950TIP3    H1 8791   1.297   5.054   1.688
 2950TIP3    H2 8792   1.273   5.074   1.539
 2951TIP3   OH2 8793   5.840   7.558   0.899
 2951TIP3    H1 8794   5.805   7.645   0.879
 2951TIP3    H2 8795   5.764   7.500   0.894
 2952TIP3   OH2 8796   7.970   5.740   2.430
 2952TIP3    H1 8797   7.876   5.730   2.446
 2952TIP3    H2 8798   7.994   5.820   2.478
 2953TIP3   OH2 8799   6.194   7.488   3.135
 2953TIP3    H1 8800   6.203   7.516   3.044
 2953TIP3    H2 8801   6.226   7.398   3.136
 2954TIP3   OH2 8802   5.349   0.593   4.735
 2954TIP3    H1 8803   5.415   0.544   4.784
 2954TIP3    H2 8804   5.281   0.528   4.716
 2955TIP3   OH2 8805   3.135   5.047   2.957
 2955TIP3    H1 8806   3.189   4.984   2.910
 2955TIP3    H2 8807   3.137   5.017   3.048
 2956TIP3   OH2 8808   0.075   7.575   1.429
 2956TIP3    H1 8809   0.043   7.485   1.434
 2956TIP3    H2 8810  -0.004   7.628   1.425
 2957TIP3   OH2 8811   6.334   5.043   2.668
 2957TIP3    H1 8812   6.342   5.013   2.577
 2957TIP3    H2 8813   6.240   5.037   2.687
 2958TIP3   OH2 8814   3.694   0.160   4.295
 2958TIP3    H1 8815   3.630   0.171   4.366
 2958TIP3    H2 8816   3.731   0.073   4.309
 2959TIP3   OH2 8817   7.953   4.008   6.473
 2959TIP3    H1 8818   8.046   4.002   6.454
 2959TIP3    H2 8819   7.916   3.927   6.439
 2960TIP3   OH2 8820   0.585   6.612   2.930
 2960TIP3    H1 8821   0.590   6.578   3.020
 2960TIP3    H2 8822   0.499   6.586   2.899
 2961TIP3   OH2 8823   1.955   5.085   3.300
 2961TIP3    H1 8824   1.990   5.173   3.293
 2961TIP3    H2 8825   2.002   5.035   3.233
 2962TIP3   OH2 8826   5.545   3.016   6.634
 2962TIP3    H1 8827   5.586   2.988   6.716
 2962TIP3    H2 8828   5.615   3.060   6.586
 2963TIP3   OH2 8829   6.263   5.031   4.134
 2963TIP3    H1 8830   6.233   4.946   4.104
 2963TIP3    H2 8831   6.196   5.092   4.104
 2964TIP3   OH2 8832   2.961   6.848   6.386
 2964TIP3    H1 8833   3.004   6.928   6.357
 2964TIP3    H2 8834   3.030   6.798   6.430
 2965TIP3   OH2 8835   6.221   2.994   6.258
 2965TIP3    H1 8836   6.240   2.938   6.332
 2965TIP3    H2 8837   6.258   2.948   6.182
 2966TIP3   OH2 8838   6.923   7.078   5.547
 2966TIP3    H1 8839   6.880   7.135   5.484
 2966TIP3    H2 8840   6.930   6.994   5.503
 2967TIP3   OH2 8841   5.288   4.403   6.230
 2967TIP3    H1 8842   5.233   4.343   6.281
 2967TIP3    H2 8843   5.332   4.457   6.295
 2968TIP3   OH2 8844   2.195   5.579   4.381
 2968TIP3    H1 8845   2.247   5.641   4.330
 2968TIP3    H2 8846   2.121   5.558   4.324
 2969TIP3   OH2 8847   3.119   7.107   3.447
 2969TIP3    H1 8848   3.056   7.094   3.518
 2969TIP3    H2 8849   3.193   7.050   3.470
 2970TIP3   OH2 8850   7.684   6.082   3.178
 2970TIP3    H1 8851   7.609   6.100   3.235
 2970TIP3    H2 8852   7.760   6.107   3.231
 2971TIP3   OH2 8853   7.094   7.904   4.608
 2971TIP3    H1 8854   7.171   7.907   4.664
 2971TIP3    H2 8855   7.098   7.819   4.565
 2972TIP3   OH2 8856   3.637   0.185   2.716
 2972TIP3    H1 8857   3.546   0.156   2.726
 2972TIP3    H2 8858   3.653   0.184   2.622
 2973TIP3   OH2 8859   6.007   2.803   6.488
 2973TIP3    H1 8860   5.961   2.773   6.567
 2973TIP3    H2 8861   5.969   2.751   6.417
 2974TIP3   OH2 8862   6.774   2.706   2.006
 2974TIP3    H1 8863   6.736   2.681   1.922
 2974TIP3    H2 8864   6.773   2.802   2.005
 2975TIP3   OH2 8865   7.407   4.823   3.572
 2975TIP3    H1 8866   7.345   4.758   3.538
 2975TIP3    H2 8867   7.438   4.869   3.494
 2976TIP3   OH2 8868   5.452   4.094   3.877
 2976TIP3    H1 8869   5.507   4.110   3.954
 2976TIP3    H2 8870   5.469   4.169   3.820
 2977TIP3   OH2 8871   7.058   1.041   4.433
 2977TIP3    H1 8872   7.002   1.115   4.454
 2977TIP3    H2 8873   7.117   1.074   4.366
 2978TIP3   OH2 8874   7.903   6.380   5.389
 2978TIP3    H1 8875   7.875   6.471   5.379
 2978TIP3    H2 8876   7.963   6.364   5.317
 2979TIP3   OH2 8877   8.338   1.688   0.406
 2979TIP3    H1 8878   8.307   1.778   0.416
 2979TIP3    H2 8879   8.429   1.696   0.380
 2980TIP3   OH2 8880   2.722   5.594   1.497
 2980TIP3    H1 8881   2.761   5.558   1.576
 2980TIP3    H2 8882   2.739   5.688   1.502
 2981TIP3   OH2 8883   1.627   3.820   4.239
 2981TIP3    H1 8884   1.631   3.818   4.335
 2981TIP3    H2 8885   1.713   3.851   4.212
 2982TIP3   OH2 8886   8.090   2.201   4.468
 2982TIP3    H1 8887   8.130   2.242   4.391
 2982TIP3    H2 8888   8.084   2.108   4.444
 2983TIP3   OH2 8889   1.067   2.580   1.489
 2983TIP3    H1 8890   1.163   2.573   1.492
 2983TIP3    H2 8891   1.050   2.648   1.425
 2984TIP3   OH2 8892   6.687   6.603   0.817
 2984TIP3    H1 8893   6.627   6.528   0.816
 2984TIP3    H2 8894   6.644   6.668   0.873
 2985TIP3   OH2 8895   6.725   7.685   3.705
 2985TIP3    H1 8896   6.681   7.633   3.638
 2985TIP3    H2 8897   6.655   7.736   3.746
 2986TIP3   OH2 8898   4.688   2.738   4.168
 2986TIP3    H1 8899   4.733   2.768   4.247
 2986TIP3    H2 8900   4.645   2.657   4.194
 2987TIP3   OH2 8901   3.569   6.617   3.224
 2987TIP3    H1 8902   3.623   6.539   3.233
 2987TIP3    H2 8903   3.610   6.666   3.152
 2988TIP3   OH2 8904   3.719   4.120   2.605
 2988TIP3    H1 8905   3.746   4.078   2.524
 2988TIP3    H2 8906   3.632   4.156   2.586
 2989TIP3   OH2 8907   6.974   3.184   5.909
 2989TIP3    H1 8908   7.064   3.162   5.886
 2989TIP3    H2 8909   6.946   3.245   5.840
 2990TIP3   OH2 8910   6.563   2.434   1.768
 2990TIP3    H1 8911   6.507   2.390   1.704
 2990TIP3    H2 8912   6.565   2.375   1.843
 2991TIP3   OH2 8913   6.410   6.224   5.439
 2991TIP3    H1 8914   6.322   6.250   5.411
 2991TIP3    H2 8915   6.419   6.133   5.410
 2992TIP3   OH2 8916   1.024   4.698   4.782
 2992TIP3    H1 8917   1.075   4.773   4.813
 2992TIP3    H2 8918   0.973   4.733   4.709
 2993TIP3   OH2 8919   5.974   5.312   4.488
 2993TIP3    H1 8920   6.023   5.232   4.469
 2993TIP3    H2 8921   5.999   5.334   4.578
 2994TIP3   OH2 8922   2.550   1.880   4.815
 2994TIP3    H1 8923   2.639   1.849   4.832
 2994TIP3    H2 8924   2.516   1.903   4.902
 2995TIP3   OH2 8925   0.393   2.220   0.606
 2995TIP3    H1 8926   0.298   2.221   0.591
 2995TIP3    H2 8927   0.416   2.313   0.614
 2996TIP3   OH2 8928   5.086   7.491   5.794
 2996TIP3    H1 8929   5.106   7.530   5.709
 2996TIP3    H2 8930   5.012   7.542   5.827
 2997TIP3   OH2 8931   5.244   1.883   4.538
 2997TIP3    H1 8932   5.337   1.872   4.515
 2997TIP3    H2 8933   5.201   1.902   4.454
 2998TIP3   OH2 8934   7.866   3.455   2.725
 2998TIP3    H1 8935   7.924   3.386   2.757
 2998TIP3    H2 8936   7.778   3.421   2.741
 2999TIP3   OH2 8937   5.376   1.904   0.649
 2999TIP3    H1 8938   5.421   1.877   0.569
 2999TIP3    H2 8939   5.400   1.996   0.660
 3000TIP3   OH2 8940   3.649   6.342   4.864
 3000TIP3    H1 8941   3.726   6.377   4.819
 3000TIP3    H2 8942   3.645   6.250   4.837
 3001TIP3   OH2 8943   5.940   7.044   5.839
 3001TIP3    H1 8944   6.016   7.075   5.889
 3001TIP3    H2 8945   5.875   7.021   5.905
 3002TIP3   OH2 8946   7.830   7.093   5.582
 3002TIP3    H1 8947   7.778   7.173   5.566
 3002TIP3    H2 8948   7.845   7.093   5.677
 3003TIP3   OH2 8949   0.599   3.461   2.702
 3003TIP3    H1 8950   0.558   3.489   2.620
 3003TIP3    H2 8951   0.684   3.426   2.675
 3004TIP3   OH2 8952   4.065   1.660   4.567
 3004TIP3    H1 8953   4.068   1.573   4.528
 3004TIP3    H2 8954   4.023   1.646   4.652
 3005TIP3   OH2 8955   6.375   6.322   0.138
 3005TIP3    H1 8956   6.411   6.238   0.112
 3005TIP3    H2 8957   6.414   6.341   0.223
 3006TIP3   OH2 8958   2.950   7.247   0.593
 3006TIP3    H1 8959   3.031   7.202   0.571
 3006TIP3    H2 8960   2.907   7.189   0.656
 3007TIP3   OH2 8961   3.151   0.063   3.737
 3007TIP3    H1 8962   3.207   0.129   3.697
 3007TIP3    H2 8963   3.211   0.005   3.784
 3008TIP3   OH2 8964   7.394   3.758   0.383
 3008TIP3    H1 8965   7.317   3.709   0.353
 3008TIP3    H2 8966   7.468   3.705   0.354
 3009TIP3   OH2 8967   6.341   5.963   5.339
 3009TIP3    H1 8968   6.288   5.921   5.406
 3009TIP3    H2 8969   6.320   5.917   5.258
 3010TIP3   OH2 8970   6.225   2.476   6.299
 3010TIP3    H1 8971   6.213   2.495   6.206
 3010TIP3    H2 8972   6.300   2.416   6.302
 3011TIP3   OH2 8973   7.695   3.213   0.560
 3011TIP3    H1 8974   7.712   3.307   0.560
 3011TIP3    H2 8975   7.779   3.174   0.584
 3012TIP3   OH2 8976   1.437   6.183   3.965
 3012TIP3    H1 8977   1.500   6.252   3.944
 3012TIP3    H2 8978   1.467   6.150   4.050
 3013TIP3   OH2 8979   4.263   4.383   5.007
 3013TIP3    H1 8980   4.307   4.314   4.957
 3013TIP3    H2 8981   4.249   4.453   4.943
 3014TIP3   OH2 8982   4.045   1.820   0.453
 3014TIP3    H1 8983   4.068   1.876   0.379
 3014TIP3    H2 8984   4.121   1.764   0.465
 3015TIP3   OH2 8985   5.208   6.785   0.927
 3015TIP3    H1 8986   5.254   6.717   0.878
 3015TIP3    H2 8987   5.158   6.832   0.860
 3016TIP3   OH2 8988   5.112   4.933   1.780
 3016TIP3    H1 8989   5.140   4.845   1.805
 3016TIP3    H2 8990   5.146   4.945   1.691
 3017TIP3   OH2 8991   6.220   4.578   6.357
 3017TIP3    H1 8992   6.250   4.494   6.323
 3017TIP3    H2 8993   6.139   4.596   6.309
 3018TIP3   OH2 8994   4.452   4.041   5.722
 3018TIP3    H1 8995   4.429   4.133   5.712
 3018TIP3    H2 8996   4.371   3.993   5.704
 3019TIP3   OH2 8997   3.022   0.136   4.014
 3019TIP3    H1 8998   3.079   0.063   3.988
 3019TIP3    H2 8999   2.963   0.098   4.079
 3020TIP3   OH2 9000   4.790   3.537   2.653
 3020TIP3    H1 9001   4.697   3.547   2.675
 3020TIP3    H2 9002   4.798   3.447   2.623
 3021TIP3   OH2 9003   1.890   1.264   4.488
 3021TIP3    H1 9004   1.865   1.178   4.521
 3021TIP3    H2 9005   1.986   1.263   4.490
 3022TIP3   OH2 9006   7.249   5.697   5.714
 3022TIP3    H1 9007   7.238   5.744   5.797
 3022TIP3    H2 9008   7.188   5.739   5.654
 3023TIP3   OH2 9009   3.312   0.554   4.805
 3023TIP3    H1 9010   3.253   0.500   4.857
 3023TIP3    H2 9011   3.326   0.633   4.858
 3024TIP3   OH2 9012   0.705   7.271   2.829
 3024TIP3    H1 9013   0.727   7.214   2.755
 3024TIP3    H2 9014   0.774   7.337   2.830
 3025TIP3   OH2 9015   6.432   1.615   5.883
 3025TIP3    H1 9016   6.518   1.576   5.899
 3025TIP3    H2 9017   6.446   1.709   5.894
 3026TIP3   OH2 9018   5.260   6.900   1.614
 3026TIP3    H1 9019   5.237   6.829   1.674
 3026TIP3    H2 9020   5.177   6.923   1.572
 3027TIP3   OH2 9021   7.860   5.071   0.206
 3027TIP3    H1 9022   7.904   5.074   0.291
 3027TIP3    H2 9023   7.776   5.115   0.220
 3028TIP3   OH2 9024   5.247   7.121   5.716
 3028TIP3    H1 9025   5.321   7.179   5.732
 3028TIP3    H2 9026   5.175   7.179   5.692
 3029TIP3   OH2 9027   5.361   4.078   2.932
 3029TIP3    H1 9028   5.339   4.017   3.003
 3029TIP3    H2 9029   5.276   4.114   2.905
 3030TIP3   OH2 9030   1.445   6.743   6.708
 3030TIP3    H1 9031   1.483   6.699   6.632
 3030TIP3    H2 9032   1.514   6.802   6.739
 3031TIP3   OH2 9033   0.997   7.069   3.333
 3031TIP3    H1 9034   0.955   7.093   3.250
 3031TIP3    H2 9035   0.955   6.987   3.359
 3032TIP3   OH2 9036   4.313   5.416   2.183
 3032TIP3    H1 9037   4.350   5.468   2.112
 3032TIP3    H2 9038   4.378   5.346   2.197
 3033TIP3   OH2 9039   6.162   2.883   2.441
 3033TIP3    H1 9040   6.166   2.882   2.536
 3033TIP3    H2 9041   6.071   2.858   2.421
 3034TIP3   OH2 9042   2.079   6.636   5.278
 3034TIP3    H1 9043   2.060   6.614   5.187
 3034TIP3    H2 9044   2.108   6.727   5.275
 3035TIP3   OH2 9045   2.751   7.051   3.218
 3035TIP3    H1 9046   2.840   7.055   3.186
 3035TIP3    H2 9047   2.711   7.133   3.188
 3036TIP3   OH2 9048   6.116   5.432   6.638
 3036TIP3    H1 9049   6.058   5.501   6.605
 3036TIP3    H2 9050   6.196   5.479   6.662
 3037TIP3   OH2 9051   1.710   4.123   3.003
 3037TIP3    H1 9052   1.703   4.136   3.098
 3037TIP3    H2 9053   1.658   4.044   2.986
 3038TIP3   OH2 9054   6.763   6.858   2.574
 3038TIP3    H1 9055   6.723   6.894   2.653
 3038TIP3    H2 9056   6.769   6.764   2.591
 3039TIP3   OH2 9057   3.448   1.755   0.386
 3039TIP3    H1 9058   3.361   1.792   0.372
 3039TIP3    H2 9059   3.449   1.731   0.479
 3040TIP3   OH2 9060   8.343   4.305   6.567
 3040TIP3    H1 9061   8.376   4.390   6.595
 3040TIP3    H2 9062   8.273   4.326   6.506
 3041TIP3   OH2 9063   2.644   4.184   6.202
 3041TIP3    H1 9064   2.576   4.241   6.238
 3041TIP3    H2 9065   2.597   4.112   6.162
 3042TIP3   OH2 9066   6.977   0.852   6.583
 3042TIP3    H1 9067   6.972   0.910   6.507
 3042TIP3    H2 9068   7.071   0.849   6.604
 3043TIP3   OH2 9069   8.150   6.745   2.755
 3043TIP3    H1 9070   8.202   6.677   2.712
 3043TIP3    H2 9071   8.114   6.703   2.833
 3044TIP3   OH2 9072   6.017   4.885   2.186
 3044TIP3    H1 9073   6.081   4.911   2.119
 3044TIP3    H2 9074   5.935   4.874   2.138
 3045TIP3   OH2 9075   2.602   7.811   2.144
 3045TIP3    H1 9076   2.650   7.728   2.146
 3045TIP3    H2 9077   2.560   7.812   2.058
 3046TIP3   OH2 9078   1.278   3.782   1.274
 3046TIP3    H1 9079   1.263   3.702   1.224
 3046TIP3    H2 9080   1.296   3.849   1.207
 3047TIP3   OH2 9081   5.859   7.372   2.004
 3047TIP3    H1 9082   5.940   7.360   2.054
 3047TIP3    H2 9083   5.832   7.462   2.024
 3048TIP3   OH2 9084   5.225   6.216   2.642
 3048TIP3    H1 9085   5.134   6.223   2.668
 3048TIP3    H2 9086   5.234   6.127   2.610
 3049TIP3   OH2 9087   7.932   2.310   2.066
 3049TIP3    H1 9088   7.926   2.396   2.107
 3049TIP3    H2 9089   8.025   2.298   2.047
 3050TIP3   OH2 9090   6.715   6.834   0.257
 3050TIP3    H1 9091   6.807   6.813   0.238
 3050TIP3    H2 9092   6.716   6.926   0.284
 3051TIP3   OH2 9093   0.153   7.593   4.403
 3051TIP3    H1 9094   0.169   7.613   4.495
 3051TIP3    H2 9095   0.113   7.507   4.403
 3052TIP3   OH2 9096   2.933   1.225   2.470
 3052TIP3    H1 9097   2.993   1.284   2.425
 3052TIP3    H2 9098   2.895   1.171   2.400
 3053TIP3   OH2 9099   2.044   3.152   6.671
 3053TIP3    H1 9100   1.960   3.164   6.627
 3053TIP3    H2 9101   2.039   3.206   6.749
 3054TIP3   OH2 9102   4.361   1.227   3.250
 3054TIP3    H1 9103   4.344   1.308   3.297
 3054TIP3    H2 9104   4.450   1.237   3.217
 3055TIP3   OH2 9105   4.260   0.706   5.540
 3055TIP3    H1 9106   4.351   0.719   5.570
 3055TIP3    H2 9107   4.237   0.619   5.573
 3056TIP3   OH2 9108   3.072   4.990   4.850
 3056TIP3    H1 9109   3.093   5.066   4.904
 3056TIP3    H2 9110   3.139   4.925   4.873
 3057TIP3   OH2 9111   3.891   2.531   1.118
 3057TIP3    H1 9112   3.973   2.525   1.069
 3057TIP3    H2 9113   3.849   2.445   1.107
 3058TIP3   OH2 9114   5.027   4.452   0.836
 3058TIP3    H1 9115   4.977   4.528   0.864
 3058TIP3    H2 9116   5.100   4.488   0.786
 3059TIP3   OH2 9117   1.376   2.880   0.187
 3059TIP3    H1 9118   1.440   2.822   0.228
 3059TIP3    H2 9119   1.402   2.881   0.094
 3060TIP3   OH2 9120   5.901   0.928   0.138
 3060TIP3    H1 9121   5.965   0.919   0.067
 3060TIP3    H2 9122   5.856   1.010   0.119
 3061TIP3   OH2 9123   5.997   2.263   5.564
 3061TIP3    H1 9124   5.929   2.277   5.631
 3061TIP3    H2 9125   6.072   2.314   5.596
 3062TIP3   OH2 9126   1.803   4.560   3.375
 3062TIP3    H1 9127   1.790   4.523   3.462
 3062TIP3    H2 9128   1.752   4.641   3.375
 3063TIP3   OH2 9129   6.165   1.756   1.936
 3063TIP3    H1 9130   6.127   1.695   1.872
 3063TIP3    H2 9131   6.250   1.780   1.899
 3064TIP3   OH2 9132   5.614   2.405   5.085
 3064TIP3    H1 9133   5.648   2.402   5.174
 3064TIP3    H2 9134   5.637   2.319   5.048
 3065TIP3   OH2 9135   7.954   0.858   0.810
 3065TIP3    H1 9136   7.973   0.872   0.717
 3065TIP3    H2 9137   7.859   0.870   0.818
 3066TIP3   OH2 9138   5.566   0.967   4.618
 3066TIP3    H1 9139   5.593   1.026   4.689
 3066TIP3    H2 9140   5.637   0.904   4.611
 3067TIP3   OH2 9141   1.026   2.690   2.925
 3067TIP3    H1 9142   0.962   2.643   2.872
 3067TIP3    H2 9143   1.080   2.622   2.966
 3068TIP3   OH2 9144   7.560   1.914   1.471
 3068TIP3    H1 9145   7.607   1.840   1.433
 3068TIP3    H2 9146   7.624   1.985   1.475
 3069TIP3   OH2 9147   4.797   6.485   0.326
 3069TIP3    H1 9148   4.832   6.565   0.367
 3069TIP3    H2 9149   4.731   6.516   0.265
 3070TIP3   OH2 9150   7.007   2.750   6.793
 3070TIP3    H1 9151   6.949   2.730   6.866
 3070TIP3    H2 9152   7.000   2.674   6.735
 3071TIP3   OH2 9153   5.235   7.790   6.193
 3071TIP3    H1 9154   5.164   7.852   6.179
 3071TIP3    H2 9155   5.205   7.709   6.151
 3072TIP3   OH2 9156   2.463   6.641   0.964
 3072TIP3    H1 9157   2.549   6.599   0.956
 3072TIP3    H2 9158   2.420   6.592   1.035
 3073TIP3   OH2 9159   7.573   4.912   6.097
 3073TIP3    H1 9160   7.574   4.860   6.016
 3073TIP3    H2 9161   7.528   4.856   6.160
 3074TIP3   OH2 9162   1.367   2.025   6.390
 3074TIP3    H1 9163   1.359   2.116   6.418
 3074TIP3    H2 9164   1.278   1.999   6.368
 3075TIP3   OH2 9165   7.443   7.918   1.572
 3075TIP3    H1 9166   7.388   7.954   1.641
 3075TIP3    H2 9167   7.506   7.862   1.618
 3076TIP3   OH2 9168   3.887   5.617   6.265
 3076TIP3    H1 9169   3.966   5.599   6.213
 3076TIP3    H2 9170   3.819   5.564   6.223
 3077TIP3   OH2 9171   5.375   5.044   0.779
 3077TIP3    H1 9172   5.339   5.052   0.690
 3077TIP3    H2 9173   5.370   5.133   0.815
 3078TIP3   OH2 9174   7.868   4.188   4.911
 3078TIP3    H1 9175   7.819   4.120   4.958
 3078TIP3    H2 9176   7.802   4.254   4.888
 3079TIP3   OH2 9177   0.644   6.896  -0.006
 3079TIP3    H1 9178   0.707   6.969  -0.004
 3079TIP3    H2 9179   0.635   6.871   0.086
 3080TIP3   OH2 9180   3.954   4.196   2.749
 3080TIP3    H1 9181   3.885   4.166   2.690
 3080TIP3    H2 9182   4.031   4.207   2.692
 3081TIP3   OH2 9183   3.498   0.049   1.040
 3081TIP3    H1 9184   3.537   0.045   0.952
 3081TIP3    H2 9185   3.567   0.085   1.095
 3082TIP3   OH2 9186   1.700   3.014   4.428
 3082TIP3    H1 9187   1.609   3.043   4.427
 3082TIP3    H2 9188   1.749   3.088   4.465
 3083TIP3   OH2 9189   5.510   7.675   1.085
 3083TIP3    H1 9190   5.455   7.619   1.029
 3083TIP3    H2 9191   5.593   7.683   1.038
 3084TIP3   OH2 9192   4.516   3.582   5.300
 3084TIP3    H1 9193   4.514   3.500   5.350
 3084TIP3    H2 9194   4.458   3.641   5.349
 3085TIP3   OH2 9195   5.155   5.079   5.160
 3085TIP3    H1 9196   5.184   5.034   5.240
 3085TIP3    H2 9197   5.224   5.143   5.143
 3086TIP3   OH2 9198   3.251   2.202   3.707
 3086TIP3    H1 9199   3.191   2.225   3.778
 3086TIP3    H2 9200   3.277   2.285   3.669
 3087TIP3   OH2 9201   1.125   5.746   6.730
 3087TIP3    H1 9202   1.047   5.777   6.684
 3087TIP3    H2 9203   1.093   5.722   6.817
 3088TIP3   OH2 9204   7.338   0.381   5.198
 3088TIP3    H1 9205   7.254   0.412   5.232
 3088TIP3    H2 9206   7.370   0.321   5.264
 3089TIP3   OH2 9207   3.017   6.052   1.853
 3089TIP3    H1 9208   2.965   6.130   1.832
 3089TIP3    H2 9209   2.961   6.002   1.912
 3090TIP3   OH2 9210   5.596   5.612   0.061
 3090TIP3    H1 9211   5.578   5.699   0.095
 3090TIP3    H2 9212   5.561   5.553   0.128
 3091TIP3   OH2 9213   6.160   0.988   6.718
 3091TIP3    H1 9214   6.071   0.977   6.750
 3091TIP3    H2 9215   6.208   1.022   6.794
 3092TIP3   OH2 9216   7.054   7.082   0.715
 3092TIP3    H1 9217   7.003   7.003   0.736
 3092TIP3    H2 9218   7.145   7.053   0.716
 3093TIP3   OH2 9219   0.188   1.065   2.796
 3093TIP3    H1 9220   0.256   1.036   2.856
 3093TIP3    H2 9221   0.157   0.985   2.753
 3094TIP3   OH2 9222   3.702   5.339   5.337
 3094TIP3    H1 9223   3.712   5.267   5.400
 3094TIP3    H2 9224   3.771   5.401   5.360
 3095TIP3   OH2 9225   7.556   6.622   1.983
 3095TIP3    H1 9226   7.598   6.543   1.951
 3095TIP3    H2 9227   7.591   6.634   2.071
 3096TIP3   OH2 9228   0.099   2.706   4.615
 3096TIP3    H1 9229   0.028   2.709   4.679
 3096TIP3    H2 9230   0.090   2.621   4.572
 3097TIP3   OH2 9231   5.395   7.719   4.907
 3097TIP3    H1 9232   5.303   7.708   4.931
 3097TIP3    H2 9233   5.427   7.788   4.965
 3098TIP3   OH2 9234   4.062   4.602   5.996
 3098TIP3    H1 9235   4.016   4.656   5.931
 3098TIP3    H2 9236   4.104   4.533   5.945
 3099TIP3   OH2 9237   6.068   6.563   1.012
 3099TIP3    H1 9238   6.028   6.559   1.098
 3099TIP3    H2 9239   6.162   6.558   1.028
 3100TIP3   OH2 9240   2.721   3.168   4.680
 3100TIP3    H1 9241   2.687   3.085   4.713
 3100TIP3    H2 9242   2.647   3.228   4.686
 3101TIP3   OH2 9243   4.854   0.454   2.053
 3101TIP3    H1 9244   4.814   0.531   2.014
 3101TIP3    H2 9245   4.913   0.421   1.985
 3102TIP3   OH2 9246   2.125   3.494   5.886
 3102TIP3    H1 9247   2.219   3.508   5.874
 3102TIP3    H2 9248   2.101   3.433   5.816
 3103TIP3   OH2 9249   5.088   1.101   0.322
 3103TIP3    H1 9250   5.009   1.081   0.273
 3103TIP3    H2 9251   5.124   1.016   0.347
 3104TIP3   OH2 9252   4.488   1.562   3.696
 3104TIP3    H1 9253   4.571   1.596   3.730
 3104TIP3    H2 9254   4.508   1.535   3.606
 3105TIP3   OH2 9255   3.202   7.927   6.409
 3105TIP3    H1 9256   3.161   7.900   6.491
 3105TIP3    H2 9257   3.295   7.932   6.429
 3106TIP3   OH2 9258   7.547   7.112   3.419
 3106TIP3    H1 9259   7.506   7.079   3.499
 3106TIP3    H2 9260   7.535   7.207   3.424
 3107TIP3   OH2 9261   6.216   5.760   4.637
 3107TIP3    H1 9262   6.300   5.806   4.628
 3107TIP3    H2 9263   6.231   5.674   4.596
 3108TIP3   OH2 9264   0.146   3.098   6.415
 3108TIP3    H1 9265   0.094   3.069   6.490
 3108TIP3    H2 9266   0.202   3.024   6.394
 3109TIP3   OH2 9267   6.480   1.040   2.446
 3109TIP3    H1 9268   6.519   0.984   2.380
 3109TIP3    H2 9269   6.535   1.118   2.448
 3110TIP3   OH2 9270   1.592   1.202   4.674
 3110TIP3    H1 9271   1.524   1.189   4.741
 3110TIP3    H2 9272   1.665   1.148   4.703
 3111TIP3   OH2 9273   1.583   0.662   1.746
 3111TIP3    H1 9274   1.665   0.615   1.756
 3111TIP3    H2 9275   1.538   0.618   1.673
 3112TIP3   OH2 9276   0.675   3.282   6.564
 3112TIP3    H1 9277   0.711   3.316   6.482
 3112TIP3    H2 9278   0.597   3.233   6.537
 3113TIP3   OH2 9279   0.527   0.877   5.999
 3113TIP3    H1 9280   0.462   0.936   6.038
 3113TIP3    H2 9281   0.547   0.814   6.068
 3114TIP3   OH2 9282   6.904   1.665   6.759
 3114TIP3    H1 9283   6.825   1.648   6.709
 3114TIP3    H2 9284   6.971   1.683   6.693
 3115TIP3   OH2 9285   3.221   5.482   2.020
 3115TIP3    H1 9286   3.174   5.413   1.973
 3115TIP3    H2 9287   3.160   5.556   2.021
 3116TIP3   OH2 9288   7.431   7.848   0.242
 3116TIP3    H1 9289   7.496   7.870   0.175
 3116TIP3    H2 9290   7.472   7.873   0.325
 3117TIP3   OH2 9291   5.239   1.547   1.331
 3117TIP3    H1 9292   5.269   1.594   1.410
 3117TIP3    H2 9293   5.306   1.567   1.266
 3118TIP3   OH2 9294   0.390   1.907   0.102
 3118TIP3    H1 9295   0.456   1.840   0.081
 3118TIP3    H2 9296   0.405   1.976   0.037
 3119TIP3   OH2 9297   4.142   4.317   2.542
 3119TIP3    H1 9298   4.192   4.265   2.479
 3119TIP3    H2 9299   4.186   4.402   2.544
 3120TIP3   OH2 9300   5.715   7.651   3.313
 3120TIP3    H1 9301   5.782   7.703   3.358
 3120TIP3    H2 9302   5.757   7.623   3.232
 3121TIP3   OH2 9303   2.760   6.645   4.250
 3121TIP3    H1 9304   2.790   6.576   4.192
 3121TIP3    H2 9305   2.682   6.681   4.206
 3122TIP3   OH2 9306   7.909   7.904   5.850
 3122TIP3    H1 9307   7.828   7.854   5.861
 3122TIP3    H2 9308   7.917   7.955   5.931
 3123TIP3   OH2 9309   0.842   6.536   1.868
 3123TIP3    H1 9310   0.827   6.449   1.829
 3123TIP3    H2 9311   0.863   6.518   1.960
 3124TIP3   OH2 9312   0.682   6.764   0.643
 3124TIP3    H1 9313   0.660   6.789   0.553
 3124TIP3    H2 9314   0.698   6.669   0.638
 3125TIP3   OH2 9315   2.053   0.743   5.905
 3125TIP3    H1 9316   2.042   0.824   5.955
 3125TIP3    H2 9317   2.131   0.702   5.943
 3126TIP3   OH2 9318   8.029   6.565   1.695
 3126TIP3    H1 9319   8.091   6.631   1.664
 3126TIP3    H2 9320   8.076   6.482   1.684
 3127TIP3   OH2 9321   1.567   6.464   6.025
 3127TIP3    H1 9322   1.599   6.504   6.106
 3127TIP3    H2 9323   1.514   6.390   6.055
 3128TIP3   OH2 9324   7.052   2.067   2.955
 3128TIP3    H1 9325   7.059   2.016   2.874
 3128TIP3    H2 9326   7.097   2.149   2.935
 3129TIP3   OH2 9327   1.879   7.304   4.583
 3129TIP3    H1 9328   1.965   7.305   4.541
 3129TIP3    H2 9329   1.878   7.222   4.633
 3130TIP3   OH2 9330   2.526   6.448   4.567
 3130TIP3    H1 9331   2.433   6.428   4.558
 3130TIP3    H2 9332   2.528   6.528   4.620
 3131TIP3   OH2 9333   3.232   4.681   4.487
 3131TIP3    H1 9334   3.178   4.620   4.437
 3131TIP3    H2 9335   3.222   4.765   4.442
 3132TIP3   OH2 9336   8.006   2.621   6.049
 3132TIP3    H1 9337   7.979   2.590   6.135
 3132TIP3    H2 9338   8.036   2.711   6.063
 3133TIP3   OH2 9339   1.443   6.460   6.821
 3133TIP3    H1 9340   1.396   6.392   6.870
 3133TIP3    H2 9341   1.421   6.541   6.866
 3134TIP3   OH2 9342   1.281   4.301   3.540
 3134TIP3    H1 9343   1.294   4.377   3.483
 3134TIP3    H2 9344   1.288   4.226   3.481
 3135TIP3   OH2 9345   4.187   6.064   4.816
 3135TIP3    H1 9346   4.123   6.127   4.783
 3135TIP3    H2 9347   4.258   6.067   4.752
 3136TIP3   OH2 9348   3.211   2.417   1.445
 3136TIP3    H1 9349   3.250   2.408   1.358
 3136TIP3    H2 9350   3.208   2.512   1.460
 3137TIP3   OH2 9351   7.070   0.556   3.968
 3137TIP3    H1 9352   7.070   0.575   4.062
 3137TIP3    H2 9353   7.038   0.636   3.927
 3138TIP3   OH2 9354   3.355   0.077   6.752
 3138TIP3    H1 9355   3.397   0.163   6.750
 3138TIP3    H2 9356   3.400   0.030   6.823
 3139TIP3   OH2 9357   0.629   2.836   2.300
 3139TIP3    H1 9358   0.603   2.911   2.352
 3139TIP3    H2 9359   0.675   2.874   2.225
 3140TIP3   OH2 9360   8.320   0.276   0.632
 3140TIP3    H1 9361   8.259   0.203   0.644
 3140TIP3    H2 9362   8.326   0.287   0.537
 3141TIP3   OH2 9363   2.580   2.476   6.017
 3141TIP3    H1 9364   2.595   2.539   5.947
 3141TIP3    H2 9365   2.603   2.523   6.097
 3142TIP3   OH2 9366   1.250   7.675   3.902
 3142TIP3    H1 9367   1.302   7.714   3.972
 3142TIP3    H2 9368   1.251   7.741   3.832
 3143TIP3   OH2 9369   4.326   3.227   3.101
 3143TIP3    H1 9370   4.419   3.236   3.082
 3143TIP3    H2 9371   4.305   3.136   3.080
 3144TIP3   OH2 9372   3.056   4.914   5.282
 3144TIP3    H1 9373   3.136   4.864   5.298
 3144TIP3    H2 9374   3.023   4.935   5.369
 3145TIP3   OH2 9375   6.556   3.294   5.899
 3145TIP3    H1 9376   6.508   3.234   5.956
 3145TIP3    H2 9377   6.628   3.326   5.952
 3146TIP3   OH2 9378   5.223   5.773   6.799
 3146TIP3    H1 9379   5.149   5.828   6.823
 3146TIP3    H2 9380   5.194   5.684   6.817
 3147TIP3   OH2 9381   3.283   5.807   0.514
 3147TIP3    H1 9382   3.270   5.874   0.581
 3147TIP3    H2 9383   3.211   5.820   0.453
 3148TIP3   OH2 9384   4.918   0.604   1.405
 3148TIP3    H1 9385   4.886   0.690   1.376
 3148TIP3    H2 9386   4.953   0.620   1.493
 3149TIP3   OH2 9387   5.385   2.203   2.310
 3149TIP3    H1 9388   5.414   2.268   2.375
 3149TIP3    H2 9389   5.424   2.233   2.228
 3150TIP3   OH2 9390   7.128   7.465   5.693
 3150TIP3    H1 9391   7.079   7.544   5.669
 3150TIP3    H2 9392   7.142   7.472   5.787
 3151TIP3   OH2 9393   8.353   2.864   2.462
 3151TIP3    H1 9394   8.291   2.839   2.394
 3151TIP3    H2 9395   8.369   2.957   2.449
 3152TIP3   OH2 9396   0.205   5.188   5.968
 3152TIP3    H1 9397   0.173   5.275   5.993
 3152TIP3    H2 9398   0.177   5.177   5.877
 3153TIP3   OH2 9399   8.323   4.432   3.910
 3153TIP3    H1 9400   8.381   4.470   3.844
 3153TIP3    H2 9401   8.240   4.480   3.898
 3154TIP3   OH2 9402   1.975   0.212   0.844
 3154TIP3    H1 9403   1.944   0.122   0.834
 3154TIP3    H2 9404   2.067   0.209   0.818
 3155TIP3   OH2 9405   6.548   0.024   5.978
 3155TIP3    H1 9406   6.480  -0.029   6.021
 3155TIP3    H2 9407   6.561   0.099   6.036
 3156TIP3   OH2 9408   0.200   5.261   5.357
 3156TIP3    H1 9409   0.188   5.330   5.292
 3156TIP3    H2 9410   0.171   5.182   5.313
 3157TIP3   OH2 9411   3.971   4.993   1.728
 3157TIP3    H1 9412   4.024   5.068   1.754
 3157TIP3    H2 9413   4.033   4.929   1.695
 3158TIP3   OH2 9414   8.061   4.253   2.705
 3158TIP3    H1 9415   8.131   4.262   2.640
 3158TIP3    H2 9416   8.107   4.237   2.787
 3159TIP3   OH2 9417   1.647   5.986   5.224
 3159TIP3    H1 9418   1.726   5.951   5.183
 3159TIP3    H2 9419   1.623   6.061   5.170
 3160TIP3   OH2 9420   5.564   4.679   3.810
 3160TIP3    H1 9421   5.618   4.607   3.844
 3160TIP3    H2 9422   5.538   4.728   3.888
 3161TIP3   OH2 9423   5.087   7.873   5.913
 3161TIP3    H1 9424   5.144   7.921   5.974
 3161TIP3    H2 9425   5.127   7.786   5.907
 3162TIP3   OH2 9426   4.021   1.862   1.722
 3162TIP3    H1 9427   4.052   1.772   1.728
 3162TIP3    H2 9428   4.094   1.909   1.681
 3163TIP3   OH2 9429   4.987   7.443   3.910
 3163TIP3    H1 9430   4.977   7.532   3.876
 3163TIP3    H2 9431   4.902   7.402   3.893
 3164TIP3   OH2 9432   5.467   7.878   4.383
 3164TIP3    H1 9433   5.459   7.783   4.372
 3164TIP3    H2 9434   5.382   7.906   4.416
 3165TIP3   OH2 9435   6.251   4.879   4.867
 3165TIP3    H1 9436   6.266   4.837   4.782
 3165TIP3    H2 9437   6.169   4.842   4.899
 3166TIP3   OH2 9438   3.787   1.303   6.184
 3166TIP3    H1 9439   3.782   1.387   6.229
 3166TIP3    H2 9440   3.865   1.261   6.220
 3167TIP3   OH2 9441   2.689   4.969   2.223
 3167TIP3    H1 9442   2.728   4.984   2.309
 3167TIP3    H2 9443   2.624   4.900   2.238
 3168TIP3   OH2 9444   1.712   4.573   1.269
 3168TIP3    H1 9445   1.642   4.537   1.214
 3168TIP3    H2 9446   1.722   4.509   1.340
 3169TIP3   OH2 9447   4.655   1.647   4.344
 3169TIP3    H1 9448   4.646   1.552   4.343
 3169TIP3    H2 9449   4.674   1.668   4.435
 3170TIP3   OH2 9450   5.493   5.299   4.603
 3170TIP3    H1 9451   5.463   5.383   4.638
 3170TIP3    H2 9452   5.573   5.320   4.554
 3171TIP3   OH2 9453   5.964   3.857   5.679
 3171TIP3    H1 9454   5.927   3.883   5.764
 3171TIP3    H2 9455   5.899   3.886   5.615
 3172TIP3   OH2 9456   0.771   3.983   4.335
 3172TIP3    H1 9457   0.819   4.061   4.363
 3172TIP3    H2 9458   0.838   3.926   4.298
 3173TIP3   OH2 9459   6.156   6.304   5.322
 3173TIP3    H1 9460   6.131   6.382   5.273
 3173TIP3    H2 9461   6.076   6.252   5.327
 3174TIP3   OH2 9462   8.070   0.342   2.522
 3174TIP3    H1 9463   7.981   0.334   2.488
 3174TIP3    H2 9464   8.065   0.412   2.587
 3175TIP3   OH2 9465   6.832   2.562   3.127
 3175TIP3    H1 9466   6.810   2.521   3.043
 3175TIP3    H2 9467   6.811   2.654   3.115
 3176TIP3   OH2 9468   6.774   4.302   1.802
 3176TIP3    H1 9469   6.744   4.393   1.808
 3176TIP3    H2 9470   6.799   4.279   1.891
 3177TIP3   OH2 9471   3.047   7.189   0.014
 3177TIP3    H1 9472   3.074   7.245   0.086
 3177TIP3    H2 9473   2.953   7.177   0.027
 3178TIP3   OH2 9474   3.390   4.094   4.336
 3178TIP3    H1 9475   3.459   4.094   4.402
 3178TIP3    H2 9476   3.415   4.164   4.275
 3179TIP3   OH2 9477   2.872   4.398   5.397
 3179TIP3    H1 9478   2.856   4.491   5.415
 3179TIP3    H2 9479   2.812   4.376   5.326
 3180TIP3   OH2 9480   4.006   1.084   3.405
 3180TIP3    H1 9481   3.951   1.137   3.464
 3180TIP3    H2 9482   4.048   1.149   3.348
 3181TIP3   OH2 9483   0.672   0.078   5.484
 3181TIP3    H1 9484   0.677   0.173   5.487
 3181TIP3    H2 9485   0.613   0.054   5.556
 3182TIP3   OH2 9486   1.406   1.605   5.814
 3182TIP3    H1 9487   1.462   1.551   5.869
 3182TIP3    H2 9488   1.355   1.543   5.763
 3183TIP3   OH2 9489   6.675   6.115   4.171
 3183TIP3    H1 9490   6.724   6.054   4.118
 3183TIP3    H2 9491   6.740   6.157   4.227
 3184TIP3   OH2 9492   1.060   5.915   0.577
 3184TIP3    H1 9493   1.117   5.967   0.521
 3184TIP3    H2 9494   0.988   5.888   0.520
 3185TIP3   OH2 9495   2.769   4.829   2.721
 3185TIP3    H1 9496   2.687   4.849   2.677
 3185TIP3    H2 9497   2.743   4.771   2.793
 3186TIP3   OH2 9498   1.510   1.799   1.485
 3186TIP3    H1 9499   1.461   1.742   1.425
 3186TIP3    H2 9500   1.445   1.827   1.550
 3187TIP3   OH2 9501   8.325   1.058   6.172
 3187TIP3    H1 9502   8.332   1.109   6.091
 3187TIP3    H2 9503   8.353   1.118   6.241
 3188TIP3   OH2 9504   1.179   1.844   2.938
 3188TIP3    H1 9505   1.098   1.868   2.983
 3188TIP3    H2 9506   1.162   1.864   2.845
 3189TIP3   OH2 9507   3.491   1.216   1.959
 3189TIP3    H1 9508   3.451   1.184   1.878
 3189TIP3    H2 9509   3.573   1.257   1.931
 3190TIP3   OH2 9510   8.117   5.627   2.702
 3190TIP3    H1 9511   8.069   5.686   2.759
 3190TIP3    H2 9512   8.154   5.683   2.634
 3191TIP3   OH2 9513   1.001   1.725   0.111
 3191TIP3    H1 9514   1.051   1.772   0.177
 3191TIP3    H2 9515   0.926   1.689   0.159
 3192TIP3   OH2 9516   7.264   3.309   5.152
 3192TIP3    H1 9517   7.300   3.236   5.203
 3192TIP3    H2 9518   7.170   3.307   5.172
 3193TIP3   OH2 9519   7.458   1.750   0.658
 3193TIP3    H1 9520   7.552   1.731   0.655
 3193TIP3    H2 9521   7.431   1.724   0.747
 3194TIP3   OH2 9522   7.848   1.021   5.656
 3194TIP3    H1 9523   7.901   1.021   5.736
 3194TIP3    H2 9524   7.906   0.982   5.590
 3195TIP3   OH2 9525   6.781   4.835   5.390
 3195TIP3    H1 9526   6.756   4.928   5.384
 3195TIP3    H2 9527   6.712   4.795   5.443
 3196TIP3   OH2 9528   6.410   6.134   4.111
 3196TIP3    H1 9529   6.389   6.041   4.105
 3196TIP3    H2 9530   6.502   6.140   4.085
 3197TIP3   OH2 9531   8.014   2.636   2.864
 3197TIP3    H1 9532   7.924   2.641   2.832
 3197TIP3    H2 9533   8.068   2.645   2.786
 3198TIP3   OH2 9534   0.198   6.682   0.451
 3198TIP3    H1 9535   0.125   6.622   0.457
 3198TIP3    H2 9536   0.161   6.768   0.474
 3199TIP3   OH2 9537   2.341   7.213   2.412
 3199TIP3    H1 9538   2.273   7.277   2.391
 3199TIP3    H2 9539   2.356   7.223   2.506
 3200TIP3   OH2 9540   1.888   2.342   3.197
 3200TIP3    H1 9541   1.827   2.404   3.157
 3200TIP3    H2 9542   1.964   2.395   3.222
 3201TIP3   OH2 9543   2.160   4.317   4.808
 3201TIP3    H1 9544   2.190   4.236   4.767
 3201TIP3    H2 9545   2.087   4.290   4.863
 3202TIP3   OH2 9546   7.647   2.413   1.545
 3202TIP3    H1 9547   7.647   2.320   1.567
 3202TIP3    H2 9548   7.559   2.443   1.568
 3203TIP3   OH2 9549   8.175   1.463   4.884
 3203TIP3    H1 9550   8.100   1.514   4.915
 3203TIP3    H2 9551   8.142   1.415   4.808
 3204TIP3   OH2 9552   4.295   5.610   0.267
 3204TIP3    H1 9553   4.365   5.624   0.331
 3204TIP3    H2 9554   4.288   5.515   0.261
 3205TIP3   OH2 9555   4.954   1.487   1.860
 3205TIP3    H1 9556   4.924   1.561   1.807
 3205TIP3    H2 9557   4.892   1.484   1.933
 3206TIP3   OH2 9558   7.188   7.031   5.907
 3206TIP3    H1 9559   7.097   7.055   5.924
 3206TIP3    H2 9560   7.202   6.952   5.959
 3207TIP3   OH2 9561   0.061   4.591   3.640
 3207TIP3    H1 9562  -0.009   4.599   3.576
 3207TIP3    H2 9563   0.032   4.645   3.714
 3208TIP3   OH2 9564   4.897   0.775   3.637
 3208TIP3    H1 9565   4.990   0.753   3.648
 3208TIP3    H2 9566   4.897   0.851   3.578
 3209TIP3   OH2 9567   5.644   4.381   4.438
 3209TIP3    H1 9568   5.648   4.285   4.448
 3209TIP3    H2 9569   5.735   4.409   4.446
 3210TIP3   OH2 9570   3.005   1.645   3.076
 3210TIP3    H1 9571   3.076   1.700   3.108
 3210TIP3    H2 9572   3.041   1.556   3.076
 3211TIP3   OH2 9573   7.037   3.819   0.283
 3211TIP3    H1 9574   7.044   3.735   0.237
 3211TIP3    H2 9575   7.022   3.883   0.213
 3212TIP3   OH2 9576   4.104   6.017   0.060
 3212TIP3    H1 9577   4.072   6.061  -0.019
 3212TIP3    H2 9578   4.030   5.963   0.089
 3213TIP3   OH2 9579   6.330   3.687   2.904
 3213TIP3    H1 9580   6.251   3.740   2.914
 3213TIP3    H2 9581   6.344   3.681   2.810
 3214TIP3   OH2 9582   3.572   3.813   5.264
 3214TIP3    H1 9583   3.532   3.732   5.297
 3214TIP3    H2 9584   3.497   3.871   5.246
 3215TIP3   OH2 9585   4.001   1.327   5.300
 3215TIP3    H1 9586   4.035   1.246   5.263
 3215TIP3    H2 9587   4.076   1.387   5.297
 3216TIP3   OH2 9588   0.717   5.694   2.825
 3216TIP3    H1 9589   0.744   5.768   2.878
 3216TIP3    H2 9590   0.738   5.720   2.735
 3217TIP3   OH2 9591   7.736   7.350   1.198
 3217TIP3    H1 9592   7.802   7.287   1.168
 3217TIP3    H2 9593   7.696   7.308   1.274
 3218TIP3   OH2 9594   8.085   7.040   4.929
 3218TIP3    H1 9595   8.083   6.950   4.963
 3218TIP3    H2 9596   7.993   7.064   4.920
 3219TIP3   OH2 9597   2.842   2.845   5.449
 3219TIP3    H1 9598   2.858   2.751   5.459
 3219TIP3    H2 9599   2.749   2.851   5.429
 3220TIP3   OH2 9600   4.011   7.578   1.107
 3220TIP3    H1 9601   3.974   7.490   1.101
 3220TIP3    H2 9602   4.002   7.614   1.019
 3221TIP3   OH2 9603   7.668   4.949   5.777
 3221TIP3    H1 9604   7.699   5.029   5.818
 3221TIP3    H2 9605   7.643   4.975   5.689
 3222TIP3   OH2 9606   4.856   4.491   5.703
 3222TIP3    H1 9607   4.924   4.557   5.715
 3222TIP3    H2 9608   4.895   4.426   5.644
 3223TIP3   OH2 9609   3.014   4.034   2.625
 3223TIP3    H1 9610   2.962   4.068   2.552
 3223TIP3    H2 9611   3.104   4.033   2.592
 3224TIP3   OH2 9612   6.121   0.632   1.083
 3224TIP3    H1 9613   6.209   0.596   1.073
 3224TIP3    H2 9614   6.065   0.573   1.033
 3225TIP3   OH2 9615   6.567   5.801   6.690
 3225TIP3    H1 9616   6.608   5.886   6.673
 3225TIP3    H2 9617   6.512   5.784   6.614
 3226TIP3   OH2 9618   4.513   5.626   5.650
 3226TIP3    H1 9619   4.584   5.562   5.650
 3226TIP3    H2 9620   4.465   5.608   5.731
 3227TIP3   OH2 9621   0.113   6.161   6.604
 3227TIP3    H1 9622   0.033   6.108   6.602
 3227TIP3    H2 9623   0.159   6.137   6.524
 3228TIP3   OH2 9624   4.396   2.355   0.060
 3228TIP3    H1 9625   4.305   2.344   0.086
 3228TIP3    H2 9626   4.430   2.423   0.118
 3229TIP3   OH2 9627   7.080   2.775   2.207
 3229TIP3    H1 9628   7.010   2.727   2.250
 3229TIP3    H2 9629   7.043   2.803   2.124
 3230TIP3   OH2 9630   4.524   7.733   1.999
 3230TIP3    H1 9631   4.478   7.721   1.916
 3230TIP3    H2 9632   4.465   7.698   2.065
 3231TIP3   OH2 9633   2.213   5.872   5.719
 3231TIP3    H1 9634   2.123   5.848   5.698
 3231TIP3    H2 9635   2.209   5.904   5.810
 3232TIP3   OH2 9636   5.704   5.320   4.803
 3232TIP3    H1 9637   5.626   5.365   4.837
 3232TIP3    H2 9638   5.768   5.327   4.874
 3233TIP3   OH2 9639   6.021   2.693   6.080
 3233TIP3    H1 9640   6.048   2.603   6.096
 3233TIP3    H2 9641   5.981   2.722   6.163
 3234TIP3   OH2 9642   1.518   4.164   6.295
 3234TIP3    H1 9643   1.546   4.089   6.348
 3234TIP3    H2 9644   1.435   4.191   6.335
 3235TIP3   OH2 9645   3.623   2.463   3.458
 3235TIP3    H1 9646   3.709   2.432   3.427
 3235TIP3    H2 9647   3.578   2.383   3.485
 3236TIP3   OH2 9648   1.514   7.354   3.972
 3236TIP3    H1 9649   1.544   7.432   3.926
 3236TIP3    H2 9650   1.515   7.379   4.065
 3237TIP3   OH2 9651   5.579   7.649   0.243
 3237TIP3    H1 9652   5.494   7.661   0.285
 3237TIP3    H2 9653   5.619   7.576   0.291
 3238TIP3   OH2 9654   2.639   1.526   3.333
 3238TIP3    H1 9655   2.548   1.521   3.305
 3238TIP3    H2 9656   2.679   1.588   3.272
 3239TIP3   OH2 9657   8.357   0.140   4.134
 3239TIP3    H1 9658   8.378   0.234   4.138
 3239TIP3    H2 9659   8.356   0.112   4.226
 3240TIP3   OH2 9660   0.995   6.480   2.112
 3240TIP3    H1 9661   0.983   6.431   2.193
 3240TIP3    H2 9662   1.065   6.543   2.132
 3241TIP3   OH2 9663   0.784   7.789   2.173
 3241TIP3    H1 9664   0.810   7.864   2.119
 3241TIP3    H2 9665   0.689   7.784   2.160
 3242TIP3   OH2 9666   7.341   3.581   0.136
 3242TIP3    H1 9667   7.435   3.579   0.156
 3242TIP3    H2 9668   7.326   3.671   0.106
 3243TIP3   OH2 9669   4.317   4.675   3.252
 3243TIP3    H1 9670   4.275   4.591   3.272
 3243TIP3    H2 9671   4.270   4.708   3.176
 3244TIP3   OH2 9672   8.091   5.875   1.915
 3244TIP3    H1 9673   8.087   5.887   2.010
 3244TIP3    H2 9674   8.009   5.831   1.893
 3245TIP3   OH2 9675   1.200   7.149   4.736
 3245TIP3    H1 9676   1.287   7.139   4.698
 3245TIP3    H2 9677   1.209   7.119   4.826
 3246TIP3   OH2 9678   1.159   4.487   4.890
 3246TIP3    H1 9679   1.109   4.560   4.854
 3246TIP3    H2 9680   1.233   4.527   4.934
 3247TIP3   OH2 9681   3.675   4.455   3.969
 3247TIP3    H1 9682   3.767   4.434   3.955
 3247TIP3    H2 9683   3.630   4.417   3.893
 3248TIP3   OH2 9684   3.051   7.227   5.487
 3248TIP3    H1 9685   2.990   7.178   5.433
 3248TIP3    H2 9686   3.047   7.185   5.573
 3249TIP3   OH2 9687   1.678   1.647   3.193
 3249TIP3    H1 9688   1.624   1.687   3.124
 3249TIP3    H2 9689   1.649   1.556   3.196
 3250TIP3   OH2 9690   6.526   4.878   4.009
 3250TIP3    H1 9691   6.460   4.932   4.054
 3250TIP3    H2 9692   6.524   4.795   4.056
 3251TIP3   OH2 9693   6.392   1.018   5.523
 3251TIP3    H1 9694   6.312   1.033   5.473
 3251TIP3    H2 9695   6.410   0.925   5.511
 3252TIP3   OH2 9696   1.022   6.817   1.453
 3252TIP3    H1 9697   1.018   6.766   1.372
 3252TIP3    H2 9698   1.001   6.906   1.426
 3253TIP3   OH2 9699   0.413   4.364   5.010
 3253TIP3    H1 9700   0.416   4.271   4.992
 3253TIP3    H2 9701   0.494   4.383   5.056
 3254TIP3   OH2 9702   5.620   4.548   2.291
 3254TIP3    H1 9703   5.707   4.551   2.332
 3254TIP3    H2 9704   5.570   4.615   2.338
 3255TIP3   OH2 9705   4.989   0.961   3.488
 3255TIP3    H1 9706   5.082   0.976   3.471
 3255TIP3    H2 9707   4.952   1.049   3.497
 3256TIP3   OH2 9708   7.338   0.678   2.920
 3256TIP3    H1 9709   7.285   0.674   2.999
 3256TIP3    H2 9710   7.399   0.605   2.928
 3257TIP3   OH2 9711   0.656   1.057   5.540
 3257TIP3    H1 9712   0.749   1.060   5.519
 3257TIP3    H2 9713   0.647   0.985   5.602
 3258TIP3   OH2 9714   0.420   5.051   6.552
 3258TIP3    H1 9715   0.485   5.104   6.506
 3258TIP3    H2 9716   0.374   5.005   6.483
 3259TIP3   OH2 9717   0.549   6.828   0.260
 3259TIP3    H1 9718   0.556   6.864   0.348
 3259TIP3    H2 9719   0.455   6.831   0.240
 3260TIP3   OH2 9720   5.701   5.452   1.640
 3260TIP3    H1 9721   5.637   5.500   1.693
 3260TIP3    H2 9722   5.785   5.470   1.683
 3261TIP3   OH2 9723   2.896   5.826   6.013
 3261TIP3    H1 9724   2.902   5.796   6.103
 3261TIP3    H2 9725   2.802   5.823   5.992
 3262TIP3   OH2 9726   6.896   6.389   0.280
 3262TIP3    H1 9727   6.989   6.411   0.280
 3262TIP3    H2 9728   6.859   6.443   0.209
 3263TIP3   OH2 9729   6.395   1.584   2.832
 3263TIP3    H1 9730   6.389   1.678   2.820
 3263TIP3    H2 9731   6.325   1.548   2.777
 3264TIP3   OH2 9732   7.449   7.659   3.561
 3264TIP3    H1 9733   7.396   7.680   3.639
 3264TIP3    H2 9734   7.527   7.714   3.569
 3265TIP3   OH2 9735   6.838   4.657   6.340
 3265TIP3    H1 9736   6.814   4.625   6.254
 3265TIP3    H2 9737   6.766   4.715   6.366
 3266TIP3   OH2 9738   0.592   0.238   3.833
 3266TIP3    H1 9739   0.501   0.211   3.846
 3266TIP3    H2 9740   0.604   0.235   3.738
 3267TIP3   OH2 9741   2.626   2.383   4.399
 3267TIP3    H1 9742   2.566   2.313   4.373
 3267TIP3    H2 9743   2.613   2.452   4.334
 3268TIP3   OH2 9744   2.797   5.303   1.199
 3268TIP3    H1 9745   2.883   5.327   1.166
 3268TIP3    H2 9746   2.742   5.294   1.121
 3269TIP3   OH2 9747   6.111   6.996   5.413
 3269TIP3    H1 9748   6.196   7.026   5.445
 3269TIP3    H2 9749   6.047   7.052   5.458
 3270TIP3   OH2 9750   2.640   2.313   0.500
 3270TIP3    H1 9751   2.694   2.318   0.579
 3270TIP3    H2 9752   2.561   2.266   0.527
 3271TIP3   OH2 9753   6.684   2.165   2.540
 3271TIP3    H1 9754   6.715   2.100   2.602
 3271TIP3    H2 9755   6.590   2.171   2.556
 3272TIP3   OH2 9756   8.247   0.268   5.452
 3272TIP3    H1 9757   8.211   0.229   5.373
 3272TIP3    H2 9758   8.171   0.288   5.506
 3273TIP3   OH2 9759   5.651   1.697   5.351
 3273TIP3    H1 9760   5.621   1.676   5.263
 3273TIP3    H2 9761   5.606   1.779   5.372
 3274TIP3   OH2 9762   7.797   5.004   1.696
 3274TIP3    H1 9763   7.703   4.989   1.685
 3274TIP3    H2 9764   7.805   5.098   1.713
 3275TIP3   OH2 9765   2.009   2.733   0.517
 3275TIP3    H1 9766   2.070   2.802   0.542
 3275TIP3    H2 9767   2.054   2.684   0.449
 3276TIP3   OH2 9768   2.782   5.015   4.280
 3276TIP3    H1 9769   2.730   4.959   4.339
 3276TIP3    H2 9770   2.722   5.035   4.208
 3277TIP3   OH2 9771   7.619   3.870   1.945
 3277TIP3    H1 9772   7.573   3.867   1.861
 3277TIP3    H2 9773   7.710   3.890   1.921
 3278TIP3   OH2 9774   1.467   5.272   3.463
 3278TIP3    H1 9775   1.557   5.269   3.431
 3278TIP3    H2 9776   1.437   5.181   3.458
 3279TIP3   OH2 9777   5.426   1.175   3.635
 3279TIP3    H1 9778   5.499   1.216   3.589
 3279TIP3    H2 9779   5.413   1.229   3.713
 3280TIP3   OH2 9780   5.097   5.634   6.558
 3280TIP3    H1 9781   5.101   5.589   6.642
 3280TIP3    H2 9782   5.007   5.668   6.554
 3281TIP3   OH2 9783   3.262   1.866   1.121
 3281TIP3    H1 9784   3.173   1.839   1.142
 3281TIP3    H2 9785   3.274   1.948   1.168
 3282TIP3   OH2 9786   2.720   0.747   2.422
 3282TIP3    H1 9787   2.727   0.825   2.368
 3282TIP3    H2 9788   2.776   0.764   2.498
 3283TIP3   OH2 9789   3.871   0.233   6.805
 3283TIP3    H1 9790   3.825   0.150   6.818
 3283TIP3    H2 9791   3.846   0.286   6.881
 3284TIP3   OH2 9792   6.802   5.362   4.123
 3284TIP3    H1 9793   6.864   5.381   4.053
 3284TIP3    H2 9794   6.724   5.329   4.078
 3285TIP3   OH2 9795   4.819   7.533   0.775
 3285TIP3    H1 9796   4.859   7.449   0.799
 3285TIP3    H2 9797   4.809   7.528   0.680
 3286TIP3   OH2 9798   5.606   5.909   6.462
 3286TIP3    H1 9799   5.574   5.847   6.528
 3286TIP3    H2 9800   5.626   5.855   6.386
 3287TIP3   OH2 9801   7.176   1.550   4.742
 3287TIP3    H1 9802   7.204   1.641   4.757
 3287TIP3    H2 9803   7.116   1.531   4.814
 3288TIP3   OH2 9804   2.026   0.756   4.349
 3288TIP3    H1 9805   2.019   0.814   4.426
 3288TIP3    H2 9806   2.096   0.794   4.297
 3289TIP3   OH2 9807   4.508   3.973   6.183
 3289TIP3    H1 9808   4.493   4.067   6.184
 3289TIP3    H2 9809   4.596   3.963   6.147
 3290TIP3   OH2 9810   7.686   0.431   3.593
 3290TIP3    H1 9811   7.718   0.342   3.592
 3290TIP3    H2 9812   7.764   0.486   3.602
 3291TIP3   OH2 9813   7.577   6.018   1.811
 3291TIP3    H1 9814   7.651   6.015   1.750
 3291TIP3    H2 9815   7.529   6.098   1.787
 3292TIP3   OH2 9816   2.934   0.565   2.875
 3292TIP3    H1 9817   2.941   0.608   2.960
 3292TIP3    H2 9818   2.841   0.566   2.855
 3293TIP3   OH2 9819   7.523   6.478   5.424
 3293TIP3    H1 9820   7.439   6.493   5.467
 3293TIP3    H2 9821   7.507   6.499   5.332
 3294TIP3   OH2 9822   1.904   5.499   0.825
 3294TIP3    H1 9823   1.836   5.530   0.765
 3294TIP3    H2 9824   1.960   5.443   0.770
 3295TIP3   OH2 9825   3.550   6.558   3.759
 3295TIP3    H1 9826   3.485   6.498   3.797
 3295TIP3    H2 9827   3.526   6.565   3.667
 3296TIP3   OH2 9828   6.232   4.714   2.834
 3296TIP3    H1 9829   6.221   4.739   2.742
 3296TIP3    H2 9830   6.281   4.632   2.830
 3297TIP3   OH2 9831   2.027   5.232   1.893
 3297TIP3    H1 9832   1.980   5.284   1.958
 3297TIP3    H2 9833   2.079   5.170   1.945
 3298TIP3   OH2 9834   2.119   6.587   3.077
 3298TIP3    H1 9835   2.114   6.581   2.982
 3298TIP3    H2 9836   2.212   6.581   3.096
 3299TIP3   OH2 9837   5.985   5.680   6.659
 3299TIP3    H1 9838   5.907   5.735   6.668
 3299TIP3    H2 9839   6.058   5.740   6.674
 3300TIP3   OH2 9840   3.221   6.287   4.294
 3300TIP3    H1 9841   3.146   6.318   4.343
 3300TIP3    H2 9842   3.256   6.215   4.346
 3301TIP3   OH2 9843   6.681   1.794   0.153
 3301TIP3    H1 9844   6.767   1.791   0.195
 3301TIP3    H2 9845   6.622   1.828   0.220
 3302TIP3   OH2 9846   4.292   2.562   4.031
 3302TIP3    H1 9847   4.255   2.611   3.957
 3302TIP3    H2 9848   4.298   2.472   3.999
 3303TIP3   OH2 9849   3.210   6.706   4.535
 3303TIP3    H1 9850   3.157   6.714   4.615
 3303TIP3    H2 9851   3.145   6.704   4.464
 3304TIP3   OH2 9852   0.215   2.600   5.473
 3304TIP3    H1 9853   0.157   2.558   5.536
 3304TIP3    H2 9854   0.263   2.528   5.433
 3305TIP3   OH2 9855   3.213   2.887   2.979
 3305TIP3    H1 9856   3.214   2.799   2.941
 3305TIP3    H2 9857   3.120   2.907   2.990
 3306TIP3   OH2 9858   0.739   5.743   3.216
 3306TIP3    H1 9859   0.782   5.699   3.289
 3306TIP3    H2 9860   0.707   5.825   3.252
 3307TIP3   OH2 9861   6.936   3.634   1.210
 3307TIP3    H1 9862   6.957   3.597   1.296
 3307TIP3    H2 9863   6.842   3.618   1.200
 3308TIP3   OH2 9864   7.256   1.830   1.540
 3308TIP3    H1 9865   7.261   1.862   1.450
 3308TIP3    H2 9866   7.327   1.766   1.547
 3309TIP3   OH2 9867   2.448   5.686   2.480
 3309TIP3    H1 9868   2.503   5.747   2.431
 3309TIP3    H2 9869   2.474   5.698   2.571
 3310TIP3   OH2 9870   6.431   2.918   1.155
 3310TIP3    H1 9871   6.459   2.892   1.067
 3310TIP3    H2 9872   6.448   2.842   1.210
 3311TIP3   OH2 9873   6.483   1.272   4.791
 3311TIP3    H1 9874   6.535   1.352   4.795
 3311TIP3    H2 9875   6.547   1.202   4.780
 3312TIP3   OH2 9876   6.592   3.552   3.338
 3312TIP3    H1 9877   6.557   3.584   3.255
 3312TIP3    H2 9878   6.674   3.600   3.349
 3313TIP3   OH2 9879   6.028   1.322   1.342
 3313TIP3    H1 9880   6.058   1.412   1.325
 3313TIP3    H2 9881   5.986   1.295   1.260
 3314TIP3   OH2 9882   3.279   6.687   4.169
 3314TIP3    H1 9883   3.295   6.596   4.144
 3314TIP3    H2 9884   3.347   6.707   4.233
 3315TIP3   OH2 9885   8.293   6.819   2.403
 3315TIP3    H1 9886   8.323   6.754   2.340
 3315TIP3    H2 9887   8.202   6.796   2.421
 3316TIP3   OH2 9888   4.509   5.215   1.491
 3316TIP3    H1 9889   4.423   5.196   1.454
 3316TIP3    H2 9890   4.565   5.144   1.459
 3317TIP3   OH2 9891   2.207   2.658   5.435
 3317TIP3    H1 9892   2.180   2.724   5.371
 3317TIP3    H2 9893   2.125   2.620   5.467
 3318TIP3   OH2 9894   0.913   4.939   6.697
 3318TIP3    H1 9895   0.827   4.938   6.656
 3318TIP3    H2 9896   0.974   4.957   6.625
 3319TIP3   OH2 9897   4.768   3.247   4.276
 3319TIP3    H1 9898   4.734   3.317   4.332
 3319TIP3    H2 9899   4.701   3.179   4.278
 3320TIP3   OH2 9900   1.421   0.453   4.110
 3320TIP3    H1 9901   1.415   0.507   4.189
 3320TIP3    H2 9902   1.333   0.417   4.099
 3321TIP3   OH2 9903   7.873   3.431   6.067
 3321TIP3    H1 9904   7.879   3.379   6.147
 3321TIP3    H2 9905   7.874   3.367   5.996
 3322TIP3   OH2 9906   1.846   3.224   2.436
 3322TIP3    H1 9907   1.912   3.282   2.399
 3322TIP3    H2 9908   1.887   3.187   2.514
 3323TIP3   OH2 9909   6.620   6.304   6.362
 3323TIP3    H1 9910   6.568   6.261   6.294
 3323TIP3    H2 9911   6.559   6.315   6.435
 3324TIP3   OH2 9912   4.619   2.005   5.784
 3324TIP3    H1 9913   4.551   1.937   5.778
 3324TIP3    H2 9914   4.680   1.985   5.713
 3325TIP3   OH2 9915   0.274   1.047   4.212
 3325TIP3    H1 9916   0.215   0.974   4.191
 3325TIP3    H2 9917   0.361   1.008   4.211
 3326TIP3   OH2 9918   0.897   5.767   1.987
 3326TIP3    H1 9919   0.901   5.853   2.028
 3326TIP3    H2 9920   0.814   5.730   2.015
 3327TIP3   OH2 9921   8.142   2.874   4.591
 3327TIP3    H1 9922   8.047   2.862   4.593
 3327TIP3    H2 9923   8.155   2.953   4.539
 3328TIP3   OH2 9924   2.036   4.348   6.285
 3328TIP3    H1 9925   2.091   4.302   6.348
 3328TIP3    H2 9926   2.086   4.347   6.203
 3329TIP3   OH2 9927   6.288   3.240   4.927
 3329TIP3    H1 9928   6.289   3.211   4.836
 3329TIP3    H2 9929   6.214   3.193   4.966
 3330TIP3   OH2 9930   0.108   0.551   6.315
 3330TIP3    H1 9931   0.087   0.497   6.238
 3330TIP3    H2 9932   0.097   0.641   6.284
 3331TIP3   OH2 9933   5.011   4.262   6.327
 3331TIP3    H1 9934   5.046   4.205   6.259
 3331TIP3    H2 9935   4.978   4.339   6.280
 3332TIP3   OH2 9936   8.147   2.684   2.647
 3332TIP3    H1 9937   8.125   2.655   2.558
 3332TIP3    H2 9938   8.176   2.774   2.636
 3333TIP3   OH2 9939   5.149   5.033   5.652
 3333TIP3    H1 9940   5.107   5.062   5.733
 3333TIP3    H2 9941   5.078   5.001   5.597
 3334TIP3   OH2 9942   4.177   0.945   2.792
 3334TIP3    H1 9943   4.236   0.957   2.867
 3334TIP3    H2 9944   4.099   0.905   2.830
 3335TIP3   OH2 9945   1.276   1.936   3.889
 3335TIP3    H1 9946   1.206   1.917   3.952
 3335TIP3    H2 9947   1.238   2.002   3.831
 3336TIP3   OH2 9948   0.123   6.241   1.079
 3336TIP3    H1 9949   0.075   6.226   1.161
 3336TIP3    H2 9950   0.152   6.332   1.085
 3337TIP3   OH2 9951   3.731   5.644   5.645
 3337TIP3    H1 9952   3.658   5.688   5.603
 3337TIP3    H2 9953   3.753   5.699   5.721
 3338TIP3   OH2 9954   3.864   2.911   3.102
 3338TIP3    H1 9955   3.772   2.884   3.096
 3338TIP3    H2 9956   3.914   2.831   3.089
 3339TIP3   OH2 9957   6.274   7.441   3.538
 3339TIP3    H1 9958   6.254   7.355   3.573
 3339TIP3    H2 9959   6.262   7.501   3.612
 3340TIP3   OH2 9960   4.086   4.828   3.492
 3340TIP3    H1 9961   4.016   4.872   3.541
 3340TIP3    H2 9962   4.044   4.803   3.409
 3341TIP3   OH2 9963   2.615   3.776   6.197
 3341TIP3    H1 9964   2.687   3.784   6.260
 3341TIP3    H2 9965   2.657   3.784   6.111
 3342TIP3   OH2 9966   5.367   5.316   3.818
 3342TIP3    H1 9967   5.436   5.380   3.832
 3342TIP3    H2 9968   5.410   5.231   3.831
 3343TIP3   OH2 9969   5.802   0.212   6.473
 3343TIP3    H1 9970   5.834   0.230   6.384
 3343TIP3    H2 9971   5.818   0.118   6.485
 3344TIP3   OH2 9972   8.069   5.306   5.146
 3344TIP3    H1 9973   7.995   5.280   5.200
 3344TIP3    H2 9974   8.092   5.227   5.096
 3345TIP3   OH2 9975   0.218   1.387   5.463
 3345TIP3    H1 9976   0.279   1.329   5.417
 3345TIP3    H2 9977   0.269   1.424   5.534
 3346TIP3   OH2 9978   0.582   6.125   2.609
 3346TIP3    H1 9979   0.650   6.189   2.632
 3346TIP3    H2 9980   0.581   6.125   2.514
 3347TIP3   OH2 9981   7.698   5.184   4.169
 3347TIP3    H1 9982   7.793   5.176   4.177
 3347TIP3    H2 9983   7.677   5.135   4.090
 3348TIP3   OH2 9984   4.660   7.384   5.689
 3348TIP3    H1 9985   4.688   7.447   5.622
 3348TIP3    H2 9986   4.686   7.424   5.772
 3349TIP3   OH2 9987   1.690   2.187   0.683
 3349TIP3    H1 9988   1.625   2.144   0.739
 3349TIP3    H2 9989   1.671   2.153   0.595
 3350TIP3   OH2 9990   4.900   0.861   4.261
 3350TIP3    H1 9991   4.892   0.870   4.167
 3350TIP3    H2 9992   4.966   0.925   4.287
 3351TIP3   OH2 9993   1.651   3.085   4.080
 3351TIP3    H1 9994   1.732   3.134   4.063
 3351TIP3    H2 9995   1.646   3.081   4.176
 3352TIP3   OH2 9996   1.271   4.574   0.456
 3352TIP3    H1 9997   1.319   4.618   0.385
 3352TIP3    H2 9998   1.200   4.633   0.477
 3353TIP3   OH2 9999   3.492   2.072   0.129
 3353TIP3    H110000   3.555   2.110   0.068
 3353TIP3    H210001   3.420   2.135   0.133
 3354TIP3   OH210002   3.118   7.519   6.414
 3354TIP3    H110003   3.144   7.431   6.387
 3354TIP3    H210004   3.090   7.561   6.333
 3355TIP3   OH210005   1.157   4.595   4.422
 3355TIP3    H110006   1.191   4.662   4.481
 3355TIP3    H210007   1.064   4.590   4.443
 3356TIP3   OH210008   4.144   5.688   1.576
 3356TIP3    H110009   4.179   5.634   1.505
 3356TIP3    H210010   4.208   5.757   1.587
 3357TIP3   OH210011   6.549   1.482   0.672
 3357TIP3    H110012   6.578   1.570   0.695
 3357TIP3    H210013   6.478   1.495   0.609
 3358TIP3   OH210014   0.810   0.770   6.868
 3358TIP3    H110015   0.885   0.711   6.858
 3358TIP3    H210016   0.757   0.757   6.789
 3359TIP3   OH210017   6.130   1.298   5.627
 3359TIP3    H110018   6.199   1.242   5.663
 3359TIP3    H210019   6.141   1.382   5.672
 3360TIP3   OH210020   6.256   3.091   4.700
 3360TIP3    H110021   6.168   3.122   4.678
 3360TIP3    H210022   6.262   3.005   4.659
 3361TIP3   OH210023   6.377   0.433   1.262
 3361TIP3    H110024   6.375   0.454   1.169
 3361TIP3    H210025   6.367   0.518   1.306
 3362TIP3   OH210026   1.627   6.292   5.726
 3362TIP3    H110027   1.541   6.334   5.723
 3362TIP3    H210028   1.690   6.364   5.723
 3363TIP3   OH210029   2.349   1.273   2.134
 3363TIP3    H110030   2.425   1.307   2.182
 3363TIP3    H210031   2.381   1.193   2.094
 3364TIP3   OH210032   0.270   3.326   0.854
 3364TIP3    H110033   0.282   3.395   0.919
 3364TIP3    H210034   0.190   3.350   0.808
 3365TIP3   OH210035   0.842   0.143   4.694
 3365TIP3    H110036   0.934   0.127   4.673
 3365TIP3    H210037   0.806   0.183   4.615
 3366TIP3   OH210038   6.725   1.803   1.701
 3366TIP3    H110039   6.781   1.785   1.626
 3366TIP3    H210040   6.763   1.881   1.741
 3367TIP3   OH210041   8.130   2.456   3.047
 3367TIP3    H110042   8.106   2.501   2.967
 3367TIP3    H210043   8.149   2.366   3.020
 3368TIP3   OH210044   2.003   6.963   5.019
 3368TIP3    H110045   2.086   6.942   4.977
 3368TIP3    H210046   2.022   6.954   5.113
 3369TIP3   OH210047   6.210   0.342   3.169
 3369TIP3    H110048   6.234   0.379   3.254
 3369TIP3    H210049   6.275   0.274   3.153
 3370TIP3   OH210050   7.928   5.585   6.760
 3370TIP3    H110051   7.974   5.557   6.839
 3370TIP3    H210052   7.842   5.613   6.791
 3371TIP3   OH210053   5.127   5.583   6.007
 3371TIP3    H110054   5.090   5.521   6.070
 3371TIP3    H210055   5.095   5.669   6.037
 3372TIP3   OH210056   1.457   0.631   1.188
 3372TIP3    H110057   1.383   0.590   1.232
 3372TIP3    H210058   1.532   0.575   1.208
 3373TIP3   OH210059   4.021   1.987   4.997
 3373TIP3    H110060   4.061   2.045   4.932
 3373TIP3    H210061   3.928   1.986   4.974
 3374TIP3   OH210062   2.751   0.494   0.577
 3374TIP3    H110063   2.699   0.416   0.600
 3374TIP3    H210064   2.840   0.472   0.605
 3375TIP3   OH210065   3.127   3.097   0.235
 3375TIP3    H110066   3.061   3.029   0.251
 3375TIP3    H210067   3.202   3.071   0.288
 3376TIP3   OH210068   4.188   7.483   5.381
 3376TIP3    H110069   4.242   7.410   5.351
 3376TIP3    H210070   4.132   7.504   5.307
 3377TIP3   OH210071   1.093   3.635   5.943
 3377TIP3    H110072   1.075   3.722   5.979
 3377TIP3    H210073   1.007   3.595   5.931
 3378TIP3   OH210074   6.741   4.437   2.127
 3378TIP3    H110075   6.756   4.484   2.045
 3378TIP3    H210076   6.732   4.505   2.193
 3379TIP3   OH210077   0.434   0.467   0.510
 3379TIP3    H110078   0.424   0.372   0.521
 3379TIP3    H210079   0.381   0.487   0.433
 3380TIP3   OH210080   6.735   5.003   0.490
 3380TIP3    H110081   6.676   4.928   0.475
 3380TIP3    H210082   6.686   5.079   0.458
 3381TIP3   OH210083   1.698   1.494   3.498
 3381TIP3    H110084   1.661   1.439   3.567
 3381TIP3    H210085   1.625   1.550   3.470
 3382TIP3   OH210086   8.149   0.214   4.926
 3382TIP3    H110087   8.116   0.275   4.992
 3382TIP3    H210088   8.072   0.188   4.875
 3383TIP3   OH210089   6.851   7.149   6.505
 3383TIP3    H110090   6.935   7.194   6.512
 3383TIP3    H210091   6.790   7.205   6.552
 3384TIP3   OH210092   0.107   5.112   5.115
 3384TIP3    H110093   0.029   5.115   5.170
 3384TIP3    H210094   0.077   5.074   5.032
 3385TIP3   OH210095   7.072   7.211   3.452
 3385TIP3    H110096   7.045   7.229   3.541
 3385TIP3    H210097   7.128   7.285   3.428
 3386TIP3   OH210098   5.719   2.273   1.910
 3386TIP3    H110099   5.801   2.233   1.938
 3386TIP3    H210100   5.651   2.212   1.937
 3387TIP3   OH210101   6.705   4.640   2.673
 3387TIP3    H110102   6.778   4.590   2.711
 3387TIP3    H210103   6.627   4.593   2.701
 3388TIP3   OH210104   5.797   4.024   1.545
 3388TIP3    H110105   5.811   4.049   1.453
 3388TIP3    H210106   5.767   3.933   1.541
 3389TIP3   OH210107   4.343   3.664   2.373
 3389TIP3    H110108   4.356   3.719   2.450
 3389TIP3    H210109   4.336   3.575   2.408
 3390TIP3   OH210110   4.631   7.669   6.076
 3390TIP3    H110111   4.700   7.735   6.070
 3390TIP3    H210112   4.577   7.698   6.149
 3391TIP3   OH210113   1.040   5.065   6.227
 3391TIP3    H110114   1.065   4.972   6.232
 3391TIP3    H210115   1.113   5.107   6.181
 3392TIP3   OH210116   1.997   4.440   1.816
 3392TIP3    H110117   2.069   4.497   1.788
 3392TIP3    H210118   2.012   4.427   1.910
 3393TIP3   OH210119   7.303   1.771   4.848
 3393TIP3    H110120   7.293   1.852   4.798
 3393TIP3    H210121   7.351   1.797   4.926
 3394TIP3   OH210122   2.513   3.226   2.841
 3394TIP3    H110123   2.537   3.317   2.860
 3394TIP3    H210124   2.496   3.226   2.747
 3395TIP3   OH210125   0.756   2.552   3.618
 3395TIP3    H110126   0.700   2.544   3.541
 3395TIP3    H210127   0.844   2.533   3.586
 3396TIP3   OH210128   1.699   1.832   3.781
 3396TIP3    H110129   1.761   1.828   3.853
 3396TIP3    H210130   1.634   1.764   3.801
 3397TIP3   OH210131   3.068   4.325   4.956
 3397TIP3    H110132   3.038   4.401   5.005
 3397TIP3    H210133   3.105   4.361   4.875
 3398TIP3   OH210134   6.349   7.882   0.178
 3398TIP3    H110135   6.253   7.885   0.178
 3398TIP3    H210136   6.373   7.855   0.266
 3399TIP3   OH210137   3.708   5.286   2.969
 3399TIP3    H110138   3.616   5.309   2.978
 3399TIP3    H210139   3.713   5.235   2.888
 3400TIP3   OH210140   6.534   0.993   4.025
 3400TIP3    H110141   6.504   0.911   4.063
 3400TIP3    H210142   6.612   0.968   3.975
 3401TIP3   OH210143   7.856   1.222   6.257
 3401TIP3    H110144   7.893   1.147   6.212
 3401TIP3    H210145   7.846   1.194   6.348
 3402TIP3   OH210146   4.864   7.621   6.392
 3402TIP3    H110147   4.813   7.659   6.463
 3402TIP3    H210148   4.870   7.528   6.414
 3403TIP3   OH210149   2.403   6.258   2.106
 3403TIP3    H110150   2.370   6.293   2.023
 3403TIP3    H210151   2.331   6.206   2.141
 3404TIP3   OH210152   3.281   0.053   4.611
 3404TIP3    H110153   3.202   0.015   4.573
 3404TIP3    H210154   3.263   0.147   4.614
 3405TIP3   OH210155   6.942   7.248   2.879
 3405TIP3    H110156   6.986   7.296   2.950
 3405TIP3    H210157   6.875   7.196   2.924
 3406TIP3   OH210158   1.864   4.038   1.333
 3406TIP3    H110159   1.902   4.122   1.357
 3406TIP3    H210160   1.867   4.037   1.237
 3407TIP3   OH210161   1.633   2.153   4.105
 3407TIP3    H110162   1.704   2.122   4.050
 3407TIP3    H210163   1.652   2.117   4.192
 3408TIP3   OH210164   8.356   3.589   1.619
 3408TIP3    H110165   8.435   3.558   1.662
 3408TIP3    H210166   8.381   3.602   1.527
 3409TIP3   OH210167   6.465   1.866   4.713
 3409TIP3    H110168   6.492   1.832   4.627
 3409TIP3    H210169   6.403   1.936   4.692
 3410TIP3   OH210170   3.611   5.216   1.865
 3410TIP3    H110171   3.533   5.182   1.909
 3410TIP3    H210172   3.583   5.300   1.828
 3411TIP3   OH210173   6.541   2.695   2.332
 3411TIP3    H110174   6.571   2.731   2.416
 3411TIP3    H210175   6.580   2.608   2.328
 3412TIP3   OH210176   3.055   2.655   5.990
 3412TIP3    H110177   3.079   2.680   5.900
 3412TIP3    H210178   3.052   2.739   6.037
 3413TIP3   OH210179   4.575   2.444   5.183
 3413TIP3    H110180   4.626   2.502   5.127
 3413TIP3    H210181   4.599   2.356   5.153
 3414TIP3   OH210182   3.246   7.364   3.489
 3414TIP3    H110183   3.223   7.360   3.582
 3414TIP3    H210184   3.228   7.276   3.456
 3415TIP3   OH210185   4.419   3.519   0.328
 3415TIP3    H110186   4.396   3.446   0.271
 3415TIP3    H210187   4.381   3.497   0.413
 3416TIP3   OH210188   6.675   3.136   0.879
 3416TIP3    H110189   6.715   3.193   0.944
 3416TIP3    H210190   6.688   3.048   0.913
 3417TIP3   OH210191   6.964   7.174   0.310
 3417TIP3    H110192   6.874   7.165   0.279
 3417TIP3    H210193   6.955   7.214   0.397
 3418TIP3   OH210194   6.996   2.116   0.509
 3418TIP3    H110195   7.016   2.208   0.524
 3418TIP3    H210196   7.020   2.100   0.418
 3419TIP3   OH210197   7.866   5.430   3.565
 3419TIP3    H110198   7.904   5.436   3.653
 3419TIP3    H210199   7.925   5.481   3.510
 3420TIP3   OH210200   7.811   7.767   1.963
 3420TIP3    H110201   7.845   7.847   2.004
 3420TIP3    H210202   7.733   7.746   2.015
 3421TIP3   OH210203   3.316   6.677   3.050
 3421TIP3    H110204   3.406   6.645   3.043
 3421TIP3    H210205   3.289   6.693   2.960
 3422TIP3   OH210206   5.654   5.763   6.196
 3422TIP3    H110207   5.674   5.797   6.109
 3422TIP3    H210208   5.620   5.675   6.181
 3423TIP3   OH210209   7.621   4.416   3.958
 3423TIP3    H110210   7.686   4.353   3.927
 3423TIP3    H210211   7.567   4.434   3.882
 3424TIP3   OH210212   5.453   1.137   0.860
 3424TIP3    H110213   5.397   1.189   0.918
 3424TIP3    H210214   5.542   1.164   0.882
 3425TIP3   OH210215   7.992   3.357   2.303
 3425TIP3    H110216   8.010   3.448   2.330
 3425TIP3    H210217   7.934   3.323   2.371
 3426TIP3   OH210218   1.063   1.150   3.811
 3426TIP3    H110219   1.031   1.233   3.846
 3426TIP3    H210220   1.049   1.087   3.882
 3427TIP3   OH210221   0.465   3.830   4.733
 3427TIP3    H110222   0.552   3.855   4.702
 3427TIP3    H210223   0.408   3.901   4.705
 3428TIP3   OH210224   7.597   2.505   6.472
 3428TIP3    H110225   7.623   2.495   6.563
 3428TIP3    H210226   7.512   2.462   6.466
 3429TIP3   OH210227   4.965   2.683   5.620
 3429TIP3    H110228   5.043   2.652   5.573
 3429TIP3    H210229   4.895   2.624   5.592
 3430TIP3   OH210230   6.005   2.636   0.749
 3430TIP3    H110231   6.005   2.541   0.760
 3430TIP3    H210232   6.047   2.651   0.664
 3431TIP3   OH210233   3.065   3.758   5.479
 3431TIP3    H110234   3.079   3.848   5.509
 3431TIP3    H210235   2.984   3.730   5.522
 3432TIP3   OH210236   6.610   3.417   0.482
 3432TIP3    H110237   6.535   3.392   0.427
 3432TIP3    H210238   6.680   3.359   0.453
 3433TIP3   OH210239   5.406   4.779   3.452
 3433TIP3    H110240   5.390   4.870   3.474
 3433TIP3    H210241   5.414   4.734   3.536
 3434TIP3   OH210242   7.460   6.511   1.658
 3434TIP3    H110243   7.548   6.544   1.672
 3434TIP3    H210244   7.467   6.455   1.580
 3435TIP3   OH210245   5.794   3.383   6.669
 3435TIP3    H110246   5.797   3.356   6.761
 3435TIP3    H210247   5.701   3.383   6.647
 3436TIP3   OH210248   1.313   1.589   0.297
 3436TIP3    H110249   1.403   1.597   0.265
 3436TIP3    H210250   1.309   1.500   0.333
 3437TIP3   OH210251   2.781   6.446   4.586
 3437TIP3    H110252   2.689   6.425   4.568
 3437TIP3    H210253   2.785   6.542   4.583
 3438TIP3   OH210254   6.395   4.571   1.493
 3438TIP3    H110255   6.468   4.632   1.491
 3438TIP3    H210256   6.319   4.624   1.467
 3439TIP3   OH210257   3.503   3.385   3.893
 3439TIP3    H110258   3.527   3.471   3.860
 3439TIP3    H210259   3.579   3.330   3.875
 3440TIP3   OH210260   2.853   6.726   6.753
 3440TIP3    H110261   2.796   6.769   6.689
 3440TIP3    H210262   2.879   6.796   6.813
 3441TIP3   OH210263   6.302   2.830   4.544
 3441TIP3    H110264   6.382   2.792   4.508
 3441TIP3    H210265   6.301   2.802   4.636
 3442TIP3   OH210266   7.425   6.415   1.079
 3442TIP3    H110267   7.402   6.460   0.997
 3442TIP3    H210268   7.346   6.366   1.102
 3443TIP3   OH210269   1.480   0.180   2.508
 3443TIP3    H110270   1.571   0.153   2.513
 3443TIP3    H210271   1.480   0.257   2.452
 3444TIP3   OH210272   4.202   7.609   4.045
 3444TIP3    H110273   4.202   7.692   4.092
 3444TIP3    H210274   4.162   7.629   3.960
 3445TIP3   OH210275   2.231   4.337   0.285
 3445TIP3    H110276   2.304   4.375   0.334
 3445TIP3    H210277   2.192   4.411   0.238
 3446TIP3   OH210278   6.535   4.855   1.133
 3446TIP3    H110279   6.615   4.863   1.081
 3446TIP3    H210280   6.489   4.781   1.094
 3447TIP3   OH210281   5.555   4.319   4.946
 3447TIP3    H110282   5.465   4.323   4.912
 3447TIP3    H210283   5.608   4.296   4.870
 3448TIP3   OH210284   2.041   6.489   1.773
 3448TIP3    H110285   2.000   6.575   1.767
 3448TIP3    H210286   2.028   6.450   1.687
 3449TIP3   OH210287   0.924   1.483   2.507
 3449TIP3    H110288   0.918   1.533   2.426
 3449TIP3    H210289   0.881   1.400   2.488
 3450TIP3   OH210290   6.227   7.015   5.742
 3450TIP3    H110291   6.250   7.102   5.707
 3450TIP3    H210292   6.298   6.958   5.712
 3451TIP3   OH210293   7.741   7.376   6.285
 3451TIP3    H110294   7.690   7.304   6.247
 3451TIP3    H210295   7.701   7.455   6.248
 3452TIP3   OH210296   3.336   1.684   4.525
 3452TIP3    H110297   3.373   1.599   4.502
 3452TIP3    H210298   3.411   1.744   4.520
 3453TIP3   OH210299   3.053   7.704   3.966
 3453TIP3    H110300   3.100   7.703   3.882
 3453TIP3    H210301   3.108   7.653   4.025
 3454TIP3   OH210302   5.118   7.537   3.477
 3454TIP3    H110303   5.131   7.442   3.483
 3454TIP3    H210304   5.206   7.573   3.470
 3455TIP3   OH210305   7.772   2.654   2.746
 3455TIP3    H110306   7.757   2.748   2.737
 3455TIP3    H210307   7.685   2.615   2.743
 3456TIP3   OH210308   0.409   7.061   2.113
 3456TIP3    H110309   0.461   7.142   2.117
 3456TIP3    H210310   0.318   7.090   2.109
 3457TIP3   OH210311   1.423   4.053   4.239
 3457TIP3    H110312   1.472   3.971   4.232
 3457TIP3    H210313   1.439   4.098   4.156
 3458TIP3   OH210314   7.896   7.115   6.710
 3458TIP3    H110315   7.976   7.072   6.677
 3458TIP3    H210316   7.867   7.170   6.637
 3459TIP3   OH210317   6.148   4.262   6.834
 3459TIP3    H110318   6.142   4.349   6.794
 3459TIP3    H210319   6.060   4.242   6.864
 3460TIP3   OH210320   1.396   1.463   1.336
 3460TIP3    H110321   1.491   1.469   1.342
 3460TIP3    H210322   1.379   1.418   1.254
 3461TIP3   OH210323   5.728   3.744   1.658
 3461TIP3    H110324   5.701   3.797   1.732
 3461TIP3    H210325   5.732   3.655   1.693
 3462TIP3   OH210326   1.583   1.982   2.479
 3462TIP3    H110327   1.513   2.042   2.452
 3462TIP3    H210328   1.609   1.937   2.399
 3463TIP3   OH210329   4.289   3.074   4.710
 3463TIP3    H110330   4.270   3.139   4.778
 3463TIP3    H210331   4.310   3.126   4.632
 3464TIP3   OH210332   6.741   7.657   2.980
 3464TIP3    H110333   6.676   7.647   2.910
 3464TIP3    H210334   6.739   7.751   3.000
 3465TIP3   OH210335   6.257   5.950   3.795
 3465TIP3    H110336   6.249   6.037   3.756
 3465TIP3    H210337   6.349   5.943   3.820
 3466TIP3   OH210338   1.033   0.770   0.690
 3466TIP3    H110339   0.979   0.828   0.637
 3466TIP3    H210340   0.972   0.729   0.751
 3467TIP3   OH210341   6.985   4.472   0.139
 3467TIP3    H110342   6.904   4.465   0.089
 3467TIP3    H210343   7.034   4.542   0.096
 3468TIP3   OH210344   4.280   1.944   4.178
 3468TIP3    H110345   4.326   1.992   4.247
 3468TIP3    H210346   4.251   1.863   4.219
 3469TIP3   OH210347   0.932   7.697   3.468
 3469TIP3    H110348   1.019   7.673   3.501
 3469TIP3    H210349   0.871   7.662   3.533
 3470TIP3   OH210350   6.628   6.637   0.507
 3470TIP3    H110351   6.549   6.691   0.519
 3470TIP3    H210352   6.684   6.661   0.580
 3471TIP3   OH210353   0.999   5.312   6.814
 3471TIP3    H110354   0.953   5.281   6.736
 3471TIP3    H210355   0.937   5.372   6.856
 3472TIP3   OH210356   4.280   5.052   5.282
 3472TIP3    H110357   4.287   5.128   5.340
 3472TIP3    H210358   4.270   4.978   5.342
 3473TIP3   OH210359   2.140   2.198   1.465
 3473TIP3    H110360   2.159   2.235   1.551
 3473TIP3    H210361   2.204   2.237   1.407
 3474TIP3   OH210362   4.881   1.768   5.016
 3474TIP3    H110363   4.825   1.761   5.093
 3474TIP3    H210364   4.821   1.773   4.942
 3475TIP3   OH210365   3.037   2.275   0.922
 3475TIP3    H110366   2.948   2.310   0.931
 3475TIP3    H210367   3.074   2.281   1.010
 3476TIP3   OH210368   4.297   4.682   3.560
 3476TIP3    H110369   4.245   4.746   3.511
 3476TIP3    H210370   4.371   4.662   3.503
 3477TIP3   OH210371   5.894   4.869   6.385
 3477TIP3    H110372   5.887   4.871   6.480
 3477TIP3    H210373   5.944   4.947   6.363
 3478TIP3   OH210374   0.345   4.130   4.361
 3478TIP3    H110375   0.379   4.073   4.430
 3478TIP3    H210376   0.290   4.073   4.307
 3479TIP3   OH210377   0.381   6.945   1.411
 3479TIP3    H110378   0.319   6.903   1.471
 3479TIP3    H210379   0.366   7.038   1.422
 3480TIP3   OH210380   8.277   2.828   3.897
 3480TIP3    H110381   8.260   2.889   3.826
 3480TIP3    H210382   8.342   2.767   3.861
 3481TIP3   OH210383   7.989   0.287   6.436
 3481TIP3    H110384   8.081   0.306   6.454
 3481TIP3    H210385   7.945   0.301   6.519
 3482TIP3   OH210386   8.221   7.053   1.787
 3482TIP3    H110387   8.317   7.045   1.786
 3482TIP3    H210388   8.192   6.996   1.716
 3483TIP3   OH210389   2.716   2.008   0.388
 3483TIP3    H110390   2.724   1.963   0.472
 3483TIP3    H210391   2.622   2.018   0.374
 3484TIP3   OH210392   5.851   0.306   2.442
 3484TIP3    H110393   5.767   0.292   2.487
 3484TIP3    H210394   5.916   0.307   2.512
 3485TIP3   OH210395   2.688   2.028   6.823
 3485TIP3    H110396   2.723   1.952   6.776
 3485TIP3    H210397   2.686   2.001   6.915
 3486TIP3   OH210398   6.745   4.582   1.906
 3486TIP3    H110399   6.684   4.648   1.871
 3486TIP3    H210400   6.829   4.627   1.910
 3487TIP3   OH210401   5.171   4.070   3.848
 3487TIP3    H110402   5.261   4.044   3.865
 3487TIP3    H210403   5.177   4.158   3.812
 3488TIP3   OH210404   0.101   3.518   0.026
 3488TIP3    H110405   0.074   3.447  -0.032
 3488TIP3    H210406   0.025   3.535   0.081
 3489TIP3   OH210407   7.368   4.249   3.565
 3489TIP3    H110408   7.365   4.158   3.534
 3489TIP3    H210409   7.308   4.250   3.640
 3490TIP3   OH210410   3.633   5.058   4.553
 3490TIP3    H110411   3.664   4.990   4.612
 3490TIP3    H210412   3.705   5.121   4.548
 3491TIP3   OH210413   6.726   1.276   1.875
 3491TIP3    H110414   6.642   1.250   1.913
 3491TIP3    H210415   6.736   1.368   1.900
 3492TIP3   OH210416   7.688   2.441   6.734
 3492TIP3    H110417   7.618   2.411   6.792
 3492TIP3    H210418   7.754   2.372   6.738
 3493TIP3   OH210419   5.922   6.970   2.983
 3493TIP3    H110420   5.855   6.909   2.951
 3493TIP3    H210421   5.986   6.975   2.912
 3494TIP3   OH210422   5.560   0.944   3.650
 3494TIP3    H110423   5.484   0.891   3.674
 3494TIP3    H210424   5.528   1.035   3.654
 3495TIP3   OH210425   4.024   4.182   3.267
 3495TIP3    H110426   4.109   4.157   3.303
 3495TIP3    H210427   3.960   4.153   3.332
 3496TIP3   OH210428   5.780   2.262   2.288
 3496TIP3    H110429   5.850   2.253   2.224
 3496TIP3    H210430   5.775   2.355   2.307
 3497TIP3   OH210431   5.886   3.696   1.381
 3497TIP3    H110432   5.818   3.759   1.404
 3497TIP3    H210433   5.883   3.630   1.450
 3498TIP3   OH210434   1.844   0.834   6.816
 3498TIP3    H110435   1.802   0.754   6.848
 3498TIP3    H210436   1.929   0.806   6.783
 3499TIP3   OH210437   4.495   7.234   5.450
 3499TIP3    H110438   4.570   7.188   5.412
 3499TIP3    H210439   4.529   7.322   5.470
 3500TIP3   OH210440   8.365   0.280   4.706
 3500TIP3    H110441   8.387   0.348   4.770
 3500TIP3    H210442   8.287   0.238   4.741
 3501TIP3   OH210443   1.382   3.118   6.465
 3501TIP3    H110444   1.342   3.184   6.408
 3501TIP3    H210445   1.463   3.093   6.421
 3502TIP3   OH210446   7.628   2.949   2.949
 3502TIP3    H110447   7.561   2.973   3.012
 3502TIP3    H210448   7.707   2.995   2.978
 3503TIP3   OH210449   4.893   6.843   5.678
 3503TIP3    H110450   4.862   6.886   5.598
 3503TIP3    H210451   4.889   6.911   5.745
 3504TIP3   OH210452   4.865   0.098   1.024
 3504TIP3    H110453   4.856   0.121   1.116
 3504TIP3    H210454   4.776   0.092   0.991
 3505TIP3   OH210455   0.836   4.357   4.830
 3505TIP3    H110456   0.857   4.420   4.899
 3505TIP3    H210457   0.921   4.333   4.793
 3506TIP3   OH210458   5.535   3.822   5.404
 3506TIP3    H110459   5.473   3.751   5.386
 3506TIP3    H210460   5.561   3.808   5.495
 3507TIP3   OH210461   0.099   7.824   1.932
 3507TIP3    H110462   0.050   7.851   2.009
 3507TIP3    H210463   0.110   7.904   1.881
 3508TIP3   OH210464   1.430   3.817   1.824
 3508TIP3    H110465   1.397   3.746   1.768
 3508TIP3    H210466   1.365   3.887   1.813
 3509TIP3   OH210467   5.724   5.365   1.374
 3509TIP3    H110468   5.819   5.359   1.359
 3509TIP3    H210469   5.717   5.417   1.454
 3510TIP3   OH210470   6.912   1.074   5.172
 3510TIP3    H110471   6.953   1.047   5.090
 3510TIP3    H210472   6.865   1.154   5.151
 3511TIP3   OH210473   6.970   7.181   5.979
 3511TIP3    H110474   7.037   7.240   5.943
 3511TIP3    H210475   6.940   7.226   6.058
 3512TIP3   OH210476   6.054   1.834   1.666
 3512TIP3    H110477   6.054   1.757   1.610
 3512TIP3    H210478   5.968   1.833   1.708
 3513TIP3   OH210479   7.705   3.733   0.718
 3513TIP3    H110480   7.715   3.828   0.723
 3513TIP3    H210481   7.741   3.701   0.800
 3514TIP3   OH210482   7.108   3.198   6.732
 3514TIP3    H110483   7.122   3.254   6.655
 3514TIP3    H210484   7.117   3.109   6.699
 3515TIP3   OH210485   1.789   2.596   4.252
 3515TIP3    H110486   1.820   2.535   4.185
 3515TIP3    H210487   1.694   2.600   4.238
 3516TIP3   OH210488   6.507   7.033   5.920
 3516TIP3    H110489   6.478   6.971   5.853
 3516TIP3    H210490   6.579   7.081   5.880
 3517TIP3   OH210491   7.819   5.517   0.728
 3517TIP3    H110492   7.782   5.538   0.814
 3517TIP3    H210493   7.783   5.584   0.670
 3518TIP3   OH210494   8.171   2.055   1.153
 3518TIP3    H110495   8.135   1.999   1.222
 3518TIP3    H210496   8.232   1.997   1.106
 3519TIP3   OH210497   6.427   5.534   2.883
 3519TIP3    H110498   6.432   5.603   2.817
 3519TIP3    H210499   6.511   5.488   2.877
 3520TIP3   OH210500   5.220   5.839   0.165
 3520TIP3    H110501   5.131   5.847   0.200
 3520TIP3    H210502   5.208   5.836   0.070
 3521TIP3   OH210503   4.961   6.694   0.421
 3521TIP3    H110504   4.965   6.658   0.510
 3521TIP3    H210505   5.047   6.735   0.408
 3522TIP3   OH210506   8.303   5.063   1.114
 3522TIP3    H110507   8.294   4.991   1.051
 3522TIP3    H210508   8.230   5.052   1.174
 3523TIP3   OH210509   6.969   5.429   1.753
 3523TIP3    H110510   6.951   5.401   1.843
 3523TIP3    H210511   7.065   5.437   1.750
 3524TIP3   OH210512   7.624   4.221   6.722
 3524TIP3    H110513   7.585   4.208   6.635
 3524TIP3    H210514   7.705   4.269   6.704
 3525TIP3   OH210515   2.357   6.905   1.014
 3525TIP3    H110516   2.333   6.894   1.106
 3525TIP3    H210517   2.384   6.818   0.986
 3526TIP3   OH210518   8.407   0.652   0.811
 3526TIP3    H110519   8.435   0.636   0.721
 3526TIP3    H210520   8.323   0.607   0.819
 3527TIP3   OH210521   1.086   6.629   3.325
 3527TIP3    H110522   1.017   6.687   3.293
 3527TIP3    H210523   1.043   6.546   3.341
 3528TIP3   OH210524   2.180   5.298   6.435
 3528TIP3    H110525   2.111   5.238   6.464
 3528TIP3    H210526   2.186   5.364   6.504
 3529TIP3   OH210527   8.044   1.318  -0.010
 3529TIP3    H110528   8.016   1.303   0.080
 3529TIP3    H210529   8.117   1.381  -0.003
 3530TIP3   OH210530   6.606   5.947   5.402
 3530TIP3    H110531   6.589   5.911   5.489
 3530TIP3    H210532   6.519   5.957   5.363
 3531TIP3   OH210533   2.916   7.386   3.320
 3531TIP3    H110534   2.986   7.326   3.294
 3531TIP3    H210535   2.847   7.372   3.256
 3532TIP3   OH210536   6.608   6.873   6.125
 3532TIP3    H110537   6.572   6.923   6.052
 3532TIP3    H210538   6.550   6.797   6.134
 3533TIP3   OH210539   8.253   3.916   5.335
 3533TIP3    H110540   8.237   3.933   5.428
 3533TIP3    H210541   8.199   3.979   5.288
 3534TIP3   OH210542   5.261   1.285   4.583
 3534TIP3    H110543   5.319   1.230   4.531
 3534TIP3    H210544   5.185   1.300   4.526
 3535TIP3   OH210545   2.743   6.373   0.503
 3535TIP3    H110546   2.655   6.337   0.487
 3535TIP3    H210547   2.727   6.462   0.535
 3536TIP3   OH210548   8.261   6.233   4.582
 3536TIP3    H110549   8.295   6.279   4.659
 3536TIP3    H210550   8.318   6.261   4.510
 3537TIP3   OH210551   5.457   1.839   2.566
 3537TIP3    H110552   5.377   1.805   2.606
 3537TIP3    H210553   5.468   1.925   2.604
 3538TIP3   OH210554   0.475   3.573   4.153
 3538TIP3    H110555   0.544   3.565   4.219
 3538TIP3    H210556   0.435   3.659   4.171
 3539TIP3   OH210557   3.362   7.573   2.515
 3539TIP3    H110558   3.360   7.627   2.594
 3539TIP3    H210559   3.278   7.529   2.513
 3540TIP3   OH210560   4.909   5.672   0.820
 3540TIP3    H110561   4.897   5.746   0.760
 3540TIP3    H210562   4.840   5.682   0.885
 3541TIP3   OH210563   7.351   6.239   6.505
 3541TIP3    H110564   7.440   6.241   6.539
 3541TIP3    H210565   7.346   6.157   6.456
 3542TIP3   OH210566   6.793   0.535   5.606
 3542TIP3    H110567   6.722   0.501   5.552
 3542TIP3    H210568   6.857   0.464   5.610
 3543TIP3   OH210569   6.977   3.019   0.096
 3543TIP3    H110570   7.045   2.955   0.114
 3543TIP3    H210571   6.976   3.075   0.174
 3544TIP3   OH210572   7.780   4.444   5.626
 3544TIP3    H110573   7.767   4.532   5.660
 3544TIP3    H210574   7.843   4.404   5.686
 3545TIP3   OH210575   0.098   4.648   4.982
 3545TIP3    H110576   0.108   4.584   5.053
 3545TIP3    H210577   0.035   4.608   4.923
 3546TIP3   OH210578   3.734   7.459   6.565
 3546TIP3    H110579   3.656   7.506   6.595
 3546TIP3    H210580   3.804   7.489   6.623
 3547TIP3   OH210581   5.156   0.385   4.659
 3547TIP3    H110582   5.108   0.322   4.712
 3547TIP3    H210583   5.232   0.337   4.627
 3548TIP3   OH210584   0.305   5.211   3.203
 3548TIP3    H110585   0.252   5.168   3.136
 3548TIP3    H210586   0.392   5.174   3.192
 3549TIP3   OH210587   2.115   2.554   0.284
 3549TIP3    H110588   2.049   2.484   0.282
 3549TIP3    H210589   2.147   2.559   0.195
 3550TIP3   OH210590   4.844   2.309   2.157
 3550TIP3    H110591   4.807   2.221   2.163
 3550TIP3    H210592   4.894   2.309   2.075
 3551TIP3   OH210593   6.514   4.390   5.965
 3551TIP3    H110594   6.593   4.393   5.910
 3551TIP3    H210595   6.442   4.394   5.902
 3552TIP3   OH210596   4.928   6.921   0.986
 3552TIP3    H110597   4.909   6.849   0.926
 3552TIP3    H210598   5.022   6.912   1.005
 3553TIP3   OH210599   4.255   4.383   6.119
 3553TIP3    H110600   4.344   4.350   6.122
 3553TIP3    H210601   4.253   4.443   6.045
 3554TIP3   OH210602   5.933   0.773   4.802
 3554TIP3    H110603   5.882   0.773   4.721
 3554TIP3    H210604   6.012   0.823   4.780
 3555TIP3   OH210605   7.991   3.763   0.570
 3555TIP3    H110606   8.013   3.685   0.622
 3555TIP3    H210607   7.895   3.763   0.567
 3556TIP3   OH210608   6.140   0.886   6.022
 3556TIP3    H110609   6.067   0.843   5.978
 3556TIP3    H210610   6.186   0.932   5.953
 3557TIP3   OH210611   1.636   2.128   1.459
 3557TIP3    H110612   1.720   2.143   1.416
 3557TIP3    H210613   1.580   2.092   1.391
 3558TIP3   OH210614   3.756   0.260   6.568
 3558TIP3    H110615   3.819   0.298   6.508
 3558TIP3    H210616   3.796   0.270   6.654
 3559TIP3   OH210617   6.854   4.791   0.272
 3559TIP3    H110618   6.887   4.720   0.327
 3559TIP3    H210619   6.925   4.854   0.269
 3560TIP3   OH210620   3.118   2.153   5.988
 3560TIP3    H110621   3.097   2.076   6.042
 3560TIP3    H210622   3.213   2.147   5.977
 3561TIP3   OH210623   1.398   2.408   0.440
 3561TIP3    H110624   1.373   2.468   0.370
 3561TIP3    H210625   1.399   2.322   0.399
 3562TIP3   OH210626   3.892   1.597   0.357
 3562TIP3    H110627   3.884   1.673   0.415
 3562TIP3    H210628   3.803   1.579   0.329
 3563TIP3   OH210629   2.683   7.790   6.743
 3563TIP3    H110630   2.697   7.880   6.714
 3563TIP3    H210631   2.760   7.742   6.713
 3564TIP3   OH210632   0.572   5.634   5.866
 3564TIP3    H110633   0.555   5.546   5.899
 3564TIP3    H210634   0.515   5.643   5.790
 3565TIP3   OH210635   0.704   1.006   6.457
 3565TIP3    H110636   0.743   1.012   6.544
 3565TIP3    H210637   0.616   0.972   6.472
 3566TIP3   OH210638   5.289   3.896   3.128
 3566TIP3    H110639   5.363   3.838   3.148
 3566TIP3    H210640   5.212   3.846   3.156
 3567TIP3   OH210641   2.167   3.939   6.156
 3567TIP3    H110642   2.119   4.020   6.168
 3567TIP3    H210643   2.103   3.878   6.119
 3568TIP3   OH210644   5.196   6.111   2.333
 3568TIP3    H110645   5.264   6.161   2.288
 3568TIP3    H210646   5.127   6.100   2.267
 3569TIP3   OH210647   7.797   6.566   3.894
 3569TIP3    H110648   7.763   6.646   3.854
 3569TIP3    H210649   7.889   6.565   3.870
 3570TIP3   OH210650   7.594   4.732   3.135
 3570TIP3    H110651   7.565   4.793   3.203
 3570TIP3    H210652   7.677   4.769   3.104
 3571TIP3   OH210653   5.777   4.046   6.702
 3571TIP3    H110654   5.802   4.019   6.614
 3571TIP3    H210655   5.778   3.966   6.754
 3572TIP3   OH210656   1.403   4.674   5.876
 3572TIP3    H110657   1.412   4.662   5.970
 3572TIP3    H210658   1.475   4.623   5.838
 3573TIP3   OH210659   3.524   2.570   4.223
 3573TIP3    H110660   3.477   2.619   4.291
 3573TIP3    H210661   3.481   2.596   4.141
 3574TIP3   OH210662   2.916   2.654   4.157
 3574TIP3    H110663   2.962   2.601   4.092
 3574TIP3    H210664   2.827   2.620   4.157
 3575TIP3   OH210665   5.321   3.040   0.699
 3575TIP3    H110666   5.243   3.036   0.644
 3575TIP3    H210667   5.339   3.134   0.709
 3576TIP3   OH210668   6.094   5.710   3.739
 3576TIP3    H110669   6.147   5.675   3.811
 3576TIP3    H210670   6.140   5.790   3.712
 3577TIP3   OH210671   7.531   1.050   6.030
 3577TIP3    H110672   7.450   1.081   5.989
 3577TIP3    H210673   7.591   1.123   6.022
 3578TIP3   OH210674   2.282   2.265   5.012
 3578TIP3    H110675   2.298   2.324   4.939
 3578TIP3    H210676   2.258   2.323   5.085
 3579TIP3   OH210677   1.006   2.694   2.224
 3579TIP3    H110678   0.983   2.783   2.250
 3579TIP3    H210679   0.935   2.640   2.261
 3580TIP3   OH210680   7.503   3.664   4.996
 3580TIP3    H110681   7.470   3.620   4.918
 3580TIP3    H210682   7.527   3.593   5.055
 3581TIP3   OH210683   5.399   2.948   2.292
 3581TIP3    H110684   5.445   3.022   2.251
 3581TIP3    H210685   5.306   2.970   2.283
 3582TIP3   OH210686   5.390   0.703   0.077
 3582TIP3    H110687   5.406   0.795   0.096
 3582TIP3    H210688   5.439   0.656   0.145
 3583TIP3   OH210689   6.417   2.528   4.650
 3583TIP3    H110690   6.326   2.501   4.643
 3583TIP3    H210691   6.463   2.451   4.684
 3584TIP3   OH210692   6.841   1.246   6.075
 3584TIP3    H110693   6.850   1.232   6.169
 3584TIP3    H210694   6.751   1.277   6.064
 3585TIP3   OH210695   0.911   7.021   6.803
 3585TIP3    H110696   0.921   7.116   6.810
 3585TIP3    H210697   0.989   6.986   6.847
 3586TIP3   OH210698   1.815   6.609   4.120
 3586TIP3    H110699   1.779   6.521   4.129
 3586TIP3    H210700   1.755   6.654   4.060
 3587TIP3   OH210701   2.865   5.464   6.196
 3587TIP3    H110702   2.912   5.455   6.113
 3587TIP3    H210703   2.897   5.392   6.250
 3588TIP3   OH210704   6.059   5.627   0.717
 3588TIP3    H110705   5.997   5.700   0.722
 3588TIP3    H210706   6.006   5.549   0.738
 3589TIP3   OH210707   1.406   1.908   5.452
 3589TIP3    H110708   1.476   1.892   5.515
 3589TIP3    H210709   1.357   1.982   5.489
 3590TIP3   OH210710   1.608   3.115   0.161
 3590TIP3    H110711   1.611   3.210   0.168
 3590TIP3    H210712   1.610   3.084   0.251
 3591TIP3   OH210713   7.395   7.122   6.064
 3591TIP3    H110714   7.372   7.030   6.082
 3591TIP3    H210715   7.331   7.149   5.998
 3592TIP3   OH210716   7.299   3.298   4.831
 3592TIP3    H110717   7.287   3.392   4.824
 3592TIP3    H210718   7.296   3.281   4.926
 3593TIP3   OH210719   6.235   2.554   5.580
 3593TIP3    H110720   6.268   2.621   5.520
 3593TIP3    H210721   6.141   2.571   5.587
 3594TIP3   OH210722   2.912   0.986   1.660
 3594TIP3    H110723   2.917   1.039   1.740
 3594TIP3    H210724   2.830   0.938   1.668
 3595TIP3   OH210725   0.758   3.215   1.559
 3595TIP3    H110726   0.789   3.130   1.526
 3595TIP3    H210727   0.662   3.208   1.553
 3596TIP3   OH210728   8.012   2.904   0.893
 3596TIP3    H110729   8.077   2.855   0.944
 3596TIP3    H210730   8.035   2.996   0.906
 3597TIP3   OH210731   6.898   3.008   6.881
 3597TIP3    H110732   6.926   2.928   6.835
 3597TIP3    H210733   6.918   3.079   6.820
 3598TIP3   OH210734   6.510   6.635   2.497
 3598TIP3    H110735   6.562   6.648   2.576
 3598TIP3    H210736   6.567   6.586   2.438
 3599TIP3   OH210737   6.691   6.042   6.173
 3599TIP3    H110738   6.778   6.040   6.133
 3599TIP3    H210739   6.699   5.988   6.251
 3600TIP3   OH210740   3.401   6.173   6.319
 3600TIP3    H110741   3.400   6.193   6.225
 3600TIP3    H210742   3.473   6.226   6.353
 3601TIP3   OH210743   6.251   5.363   6.083
 3601TIP3    H110744   6.214   5.352   6.171
 3601TIP3    H210745   6.305   5.285   6.070
 3602TIP3   OH210746   0.163   5.353   3.495
 3602TIP3    H110747   0.233   5.327   3.553
 3602TIP3    H210748   0.084   5.312   3.531
 3603TIP3   OH210749   2.871   6.065   4.610
 3603TIP3    H110750   2.809   6.089   4.678
 3603TIP3    H210751   2.954   6.105   4.638
 3604TIP3   OH210752   5.958   7.425   1.554
 3604TIP3    H110753   6.030   7.487   1.551
 3604TIP3    H210754   5.880   7.479   1.564
 3605TIP3   OH210755   0.723   3.662   5.182
 3605TIP3    H110756   0.775   3.670   5.102
 3605TIP3    H210757   0.710   3.568   5.193
 3606TIP3   OH210758   1.286   0.831   6.434
 3606TIP3    H110759   1.334   0.799   6.510
 3606TIP3    H210760   1.225   0.896   6.469
 3607TIP3   OH210761   1.529   1.074   6.120
 3607TIP3    H110762   1.490   1.097   6.204
 3607TIP3    H210763   1.617   1.112   6.123
 3608TIP3   OH210764   7.833   0.674   4.095
 3608TIP3    H110765   7.769   0.683   4.024
 3608TIP3    H210766   7.895   0.746   4.081
 3609TIP3   OH210767   8.083   2.102   2.365
 3609TIP3    H110768   8.111   2.188   2.396
 3609TIP3    H210769   8.131   2.089   2.283
 3610TIP3   OH210770   7.537   0.787   4.025
 3610TIP3    H110771   7.533   0.868   3.975
 3610TIP3    H210772   7.515   0.718   3.962
 3611TIP3   OH210773   0.788   7.385   5.280
 3611TIP3    H110774   0.865   7.378   5.224
 3611TIP3    H210775   0.789   7.305   5.332
 3612TIP3   OH210776   5.132   4.883   4.261
 3612TIP3    H110777   5.142   4.838   4.345
 3612TIP3    H210778   5.174   4.968   4.275
 3613TIP3   OH210779   4.756   6.814   6.210
 3613TIP3    H110780   4.841   6.773   6.199
 3613TIP3    H210781   4.701   6.776   6.141
 3614TIP3   OH210782   0.714   4.163   3.218
 3614TIP3    H110783   0.796   4.162   3.169
 3614TIP3    H210784   0.679   4.075   3.207
 3615TIP3   OH210785   4.638   2.152   5.163
 3615TIP3    H110786   4.565   2.160   5.225
 3615TIP3    H210787   4.682   2.071   5.189
 3616TIP3   OH210788   7.930   7.859   1.275
 3616TIP3    H110789   7.891   7.796   1.336
 3616TIP3    H210790   7.966   7.804   1.205
 3617TIP3   OH210791   5.312   1.025   4.750
 3617TIP3    H110792   5.310   0.943   4.699
 3617TIP3    H210793   5.395   1.066   4.727
 3618TIP3   OH210794   6.460   5.491   2.429
 3618TIP3    H110795   6.463   5.571   2.482
 3618TIP3    H210796   6.417   5.426   2.485
 3619TIP3   OH210797   5.726   4.500   5.436
 3619TIP3    H110798   5.680   4.518   5.354
 3619TIP3    H210799   5.668   4.534   5.504
 3620TIP3   OH210800   2.034   5.469   4.737
 3620TIP3    H110801   2.017   5.549   4.686
 3620TIP3    H210802   2.101   5.495   4.800
 3621TIP3   OH210803   5.371   0.292   5.704
 3621TIP3    H110804   5.357   0.307   5.798
 3621TIP3    H210805   5.335   0.205   5.689
 3622TIP3   OH210806   6.238   3.820   0.399
 3622TIP3    H110807   6.150   3.845   0.429
 3622TIP3    H210808   6.233   3.824   0.303
 3623TIP3   OH210809   8.246   6.466   5.838
 3623TIP3    H110810   8.245   6.376   5.804
 3623TIP3    H210811   8.312   6.511   5.785
 3624TIP3   OH210812   4.876   1.715   6.481
 3624TIP3    H110813   4.892   1.780   6.412
 3624TIP3    H210814   4.782   1.723   6.499
 3625TIP3   OH210815   3.309   2.941   4.659
 3625TIP3    H110816   3.319   3.016   4.718
 3625TIP3    H210817   3.355   2.870   4.703
 3626TIP3   OH210818   2.841   6.209   5.392
 3626TIP3    H110819   2.909   6.276   5.388
 3626TIP3    H210820   2.882   6.135   5.435
 3627TIP3   OH210821   8.184   0.124   1.184
 3627TIP3    H110822   8.237   0.128   1.105
 3627TIP3    H210823   8.185   0.031   1.209
 3628TIP3   OH210824   4.041   1.391   4.460
 3628TIP3    H110825   4.016   1.308   4.499
 3628TIP3    H210826   3.971   1.411   4.398
 3629TIP3   OH210827   8.133   2.791   1.389
 3629TIP3    H110828   8.172   2.744   1.463
 3629TIP3    H210829   8.195   2.778   1.317
 3630TIP3   OH210830   0.794   3.326   3.088
 3630TIP3    H110831   0.794   3.386   3.013
 3630TIP3    H210832   0.733   3.367   3.150
 3631TIP3   OH210833   1.470   5.325   1.045
 3631TIP3    H110834   1.476   5.316   1.140
 3631TIP3    H210835   1.537   5.390   1.023
 3632TIP3   OH210836   0.127   2.327   2.022
 3632TIP3    H110837   0.153   2.419   2.017
 3632TIP3    H210838   0.175   2.292   2.098
 3633TIP3   OH210839   1.975   3.833   4.012
 3633TIP3    H110840   1.968   3.877   4.096
 3633TIP3    H210841   1.996   3.742   4.035
 3634TIP3   OH210842   6.795   2.128   3.681
 3634TIP3    H110843   6.886   2.098   3.684
 3634TIP3    H210844   6.783   2.174   3.763
 3635TIP3   OH210845   7.419   5.746   2.845
 3635TIP3    H110846   7.486   5.677   2.843
 3635TIP3    H210847   7.461   5.819   2.891
 3636TIP3   OH210848   7.007   7.696   4.431
 3636TIP3    H110849   7.035   7.687   4.340
 3636TIP3    H210850   6.947   7.624   4.445
 3637TIP3   OH210851   8.087   4.443   6.825
 3637TIP3    H110852   8.122   4.523   6.863
 3637TIP3    H210853   8.117   4.444   6.734
 3638TIP3   OH210854   0.521   4.891   6.836
 3638TIP3    H110855   0.605   4.873   6.880
 3638TIP3    H210856   0.495   4.806   6.800
 3639TIP3   OH210857   3.106   5.941   1.609
 3639TIP3    H110858   3.110   5.846   1.608
 3639TIP3    H210859   3.060   5.962   1.690
 3640TIP3   OH210860   1.537   3.159   1.527
 3640TIP3    H110861   1.632   3.156   1.542
 3640TIP3    H210862   1.506   3.229   1.584
 3641TIP3   OH210863   0.981   0.810   2.488
 3641TIP3    H110864   0.941   0.786   2.572
 3641TIP3    H210865   0.909   0.845   2.436
 3642TIP3   OH210866   0.688   3.251   2.391
 3642TIP3    H110867   0.702   3.345   2.398
 3642TIP3    H210868   0.733   3.226   2.310
 3643TIP3   OH210869   7.362   6.332   5.757
 3643TIP3    H110870   7.320   6.399   5.812
 3643TIP3    H210871   7.292   6.272   5.734
 3644TIP3   OH210872   0.904   0.079   2.215
 3644TIP3    H110873   0.846   0.007   2.190
 3644TIP3    H210874   0.854   0.158   2.196
 3645TIP3   OH210875   7.022   6.800   0.475
 3645TIP3    H110876   7.058   6.801   0.386
 3645TIP3    H210877   6.945   6.856   0.471
 3646TIP3   OH210878   1.949   4.598   3.948
 3646TIP3    H110879   2.019   4.620   4.009
 3646TIP3    H210880   1.963   4.506   3.926
 3647TIP3   OH210881   5.889   2.531   6.379
 3647TIP3    H110882   5.870   2.447   6.337
 3647TIP3    H210883   5.804   2.563   6.408
 3648TIP3   OH210884   0.591   2.829   5.381
 3648TIP3    H110885   0.618   2.863   5.296
 3648TIP3    H210886   0.535   2.754   5.361
 3649TIP3   OH210887   3.642   0.009   5.748
 3649TIP3    H110888   3.645   0.063   5.827
 3649TIP3    H210889   3.733   0.002   5.720
 3650TIP3   OH210890   6.062   2.088   6.524
 3650TIP3    H110891   5.967   2.096   6.516
 3650TIP3    H210892   6.086   2.155   6.588
 3651TIP3   OH210893   2.196   1.342   6.677
 3651TIP3    H110894   2.147   1.305   6.751
 3651TIP3    H210895   2.249   1.269   6.644
 3652TIP3   OH210896   3.898   2.872   0.293
 3652TIP3    H110897   3.985   2.856   0.256
 3652TIP3    H210898   3.847   2.907   0.221
 3653TIP3   OH210899   4.185   4.115   0.457
 3653TIP3    H110900   4.272   4.084   0.483
 3653TIP3    H210901   4.158   4.055   0.388
 3654TIP3   OH210902   0.180   4.743   1.619
 3654TIP3    H110903   0.128   4.784   1.688
 3654TIP3    H210904   0.226   4.672   1.662
 3655TIP3   OH210905   3.426   4.713   3.420
 3655TIP3    H110906   3.438   4.802   3.454
 3655TIP3    H210907   3.468   4.656   3.485
 3656TIP3   OH210908   3.153   5.959   0.725
 3656TIP3    H110909   3.204   5.898   0.777
 3656TIP3    H210910   3.062   5.931   0.737
 3657TIP3   OH210911   8.111   1.872   4.864
 3657TIP3    H110912   8.142   1.810   4.797
 3657TIP3    H210913   8.134   1.831   4.947
 3658TIP3   OH210914   2.771   4.869   6.010
 3658TIP3    H110915   2.748   4.958   6.036
 3658TIP3    H210916   2.747   4.864   5.918
 3659TIP3   OH210917   6.408   4.891   0.181
 3659TIP3    H110918   6.424   4.916   0.272
 3659TIP3    H210919   6.390   4.974   0.136
 3660TIP3   OH210920   0.817   0.868   3.853
 3660TIP3    H110921   0.788   0.949   3.812
 3660TIP3    H210922   0.883   0.833   3.793
 3661TIP3   OH210923   7.186   0.734   3.206
 3661TIP3    H110924   7.141   0.701   3.284
 3661TIP3    H210925   7.228   0.815   3.236
 3662TIP3   OH210926   8.105   4.379   6.418
 3662TIP3    H110927   8.079   4.452   6.362
 3662TIP3    H210928   8.075   4.301   6.371
 3663TIP3   OH210929   7.050   3.990   0.068
 3663TIP3    H110930   7.012   3.958  -0.014
 3663TIP3    H210931   7.093   4.072   0.044
 3664TIP3   OH210932   5.324   5.194   6.076
 3664TIP3    H110933   5.382   5.118   6.082
 3664TIP3    H210934   5.379   5.262   6.035
 3665TIP3   OH210935   7.097   7.404   0.211
 3665TIP3    H110936   7.021   7.350   0.189
 3665TIP3    H210937   7.080   7.433   0.301
 3666TIP3   OH210938   5.318   3.417   3.717
 3666TIP3    H110939   5.290   3.344   3.662
 3666TIP3    H210940   5.243   3.477   3.718
 3667TIP3   OH210941   3.561   7.482   1.096
 3667TIP3    H110942   3.640   7.480   1.042
 3667TIP3    H210943   3.515   7.401   1.075
 3668TIP3   OH210944   8.009   7.336   5.025
 3668TIP3    H110945   7.946   7.344   5.097
 3668TIP3    H210946   8.086   7.296   5.065
 3669TIP3   OH210947   5.381   7.053   2.550
 3669TIP3    H110948   5.417   7.016   2.469
 3669TIP3    H210949   5.314   7.115   2.520
 3670TIP3   OH210950   7.429   6.679   2.877
 3670TIP3    H110951   7.502   6.631   2.915
 3670TIP3    H210952   7.462   6.768   2.866
 3671TIP3   OH210953   0.512   6.917   2.841
 3671TIP3    H110954   0.485   7.008   2.852
 3671TIP3    H210955   0.430   6.869   2.831
 3672TIP3   OH210956   3.751   6.370   1.068
 3672TIP3    H110957   3.836   6.330   1.085
 3672TIP3    H210958   3.689   6.316   1.116
 3673TIP3   OH210959   3.065   4.370   2.326
 3673TIP3    H110960   3.122   4.294   2.340
 3673TIP3    H210961   2.991   4.355   2.385
 3674TIP3   OH210962   7.484   1.474   5.445
 3674TIP3    H110963   7.502   1.568   5.447
 3674TIP3    H210964   7.509   1.446   5.357
 3675TIP3   OH210965   3.147   7.871   5.554
 3675TIP3    H110966   3.177   7.823   5.632
 3675TIP3    H210967   3.217   7.934   5.536
 3676TIP3   OH210968   0.459   5.057   4.035
 3676TIP3    H110969   0.541   5.009   4.050
 3676TIP3    H210970   0.434   5.035   3.945
 3677TIP3   OH210971   5.856   6.617   6.448
 3677TIP3    H110972   5.899   6.703   6.443
 3677TIP3    H210973   5.873   6.588   6.538
 3678TIP3   OH210974   1.744   4.519   4.301
 3678TIP3    H110975   1.816   4.478   4.254
 3678TIP3    H210976   1.684   4.447   4.321
 3679TIP3   OH210977   4.367   1.669   3.364
 3679TIP3    H110978   4.404   1.728   3.429
 3679TIP3    H210979   4.278   1.702   3.349
 3680TIP3   OH210980   7.757   0.030   1.455
 3680TIP3    H110981   7.791  -0.022   1.528
 3680TIP3    H210982   7.669  -0.005   1.440
 3681TIP3   OH210983   2.741   7.427  -0.003
 3681TIP3    H110984   2.767   7.335  -0.012
 3681TIP3    H210985   2.795   7.461   0.069
 3682TIP3   OH210986   4.242   1.596   6.624
 3682TIP3    H110987   4.183   1.662   6.660
 3682TIP3    H210988   4.276   1.636   6.544
 3683TIP3   OH210989   4.640   3.252   5.931
 3683TIP3    H110990   4.715   3.196   5.915
 3683TIP3    H210991   4.624   3.296   5.847
 3684TIP3   OH210992   6.051   5.075   6.620
 3684TIP3    H110993   6.061   4.980   6.609
 3684TIP3    H210994   6.120   5.113   6.566
 3685TIP3   OH210995   4.710   6.409   5.113
 3685TIP3    H110996   4.747   6.322   5.126
 3685TIP3    H210997   4.777   6.456   5.063
 3686TIP3   OH210998   3.959   4.117   4.592
 3686TIP3    H110999   4.024   4.185   4.576
 3686TIP3    H211000   3.894   4.129   4.522
 3687TIP3   OH211001   3.251   0.250   0.395
 3687TIP3    H111002   3.289   0.314   0.334
 3687TIP3    H211003   3.327   0.214   0.441
 3688TIP3   OH211004   6.006   7.043   0.434
 3688TIP3    H111005   5.918   7.009   0.415
 3688TIP3    H211006   6.065   6.988   0.383
 3689TIP3   OH211007   7.680   3.270   0.960
 3689TIP3    H111008   7.645   3.342   1.012
 3689TIP3    H211009   7.768   3.298   0.936
 3690TIP3   OH211010   0.719   4.457   0.155
 3690TIP3    H111011   0.742   4.421   0.241
 3690TIP3    H211012   0.803   4.475   0.113
 3691TIP3   OH211013   5.322   0.119   1.612
 3691TIP3    H111014   5.401   0.081   1.573
 3691TIP3    H211015   5.258   0.120   1.541
 3692TIP3   OH211016   0.658   4.420   5.102
 3692TIP3    H111017   0.645   4.480   5.176
 3692TIP3    H211018   0.723   4.464   5.047
 3693TIP3   OH211019   2.995   0.791   6.456
 3693TIP3    H111020   3.069   0.816   6.512
 3693TIP3    H211021   2.955   0.875   6.431
 3694TIP3   OH211022   2.494   2.794   6.680
 3694TIP3    H111023   2.468   2.874   6.725
 3694TIP3    H211024   2.423   2.776   6.619
 3695TIP3   OH211025   7.622   7.721   1.674
 3695TIP3    H111026   7.657   7.767   1.750
 3695TIP3    H211027   7.588   7.639   1.709
 3696TIP3   OH211028   1.573   1.281   5.543
 3696TIP3    H111029   1.599   1.194   5.511
 3696TIP3    H211030   1.540   1.264   5.632
 3697TIP3   OH211031   0.078   3.968   3.024
 3697TIP3    H111032   0.130   3.889   3.041
 3697TIP3    H211033   0.138   4.040   3.044
 3698TIP3   OH211034   4.510   4.364   6.005
 3698TIP3    H111035   4.591   4.330   5.969
 3698TIP3    H211036   4.500   4.451   5.965
 3699TIP3   OH211037   2.008   0.475   2.418
 3699TIP3    H111038   2.085   0.516   2.460
 3699TIP3    H211039   1.934   0.525   2.451
 3700TIP3   OH211040   8.180   3.391   4.456
 3700TIP3    H111041   8.273   3.365   4.455
 3700TIP3    H211042   8.136   3.322   4.406
 3701TIP3   OH211043   1.864   2.244   1.377
 3701TIP3    H111044   1.880   2.273   1.287
 3701TIP3    H211045   1.951   2.240   1.417
 3702TIP3   OH211046   1.812   1.836   0.954
 3702TIP3    H111047   1.894   1.786   0.946
 3702TIP3    H211048   1.811   1.867   1.044
 3703TIP3   OH211049   0.196   5.956   3.412
 3703TIP3    H111050   0.183   5.861   3.414
 3703TIP3    H211051   0.233   5.977   3.497
 3704TIP3   OH211052   4.568   5.863   3.451
 3704TIP3    H111053   4.502   5.887   3.387
 3704TIP3    H211054   4.649   5.854   3.400
 3705TIP3   OH211055   0.161   6.312   1.768
 3705TIP3    H111056   0.108   6.366   1.826
 3705TIP3    H211057   0.153   6.223   1.803
 3706TIP3   OH211058   6.809   7.882   0.839
 3706TIP3    H111059   6.838   7.886   0.930
 3706TIP3    H211060   6.853   7.956   0.797
 3707TIP3   OH211061   1.709   1.761   4.263
 3707TIP3    H111062   1.614   1.755   4.266
 3707TIP3    H211063   1.727   1.855   4.263
 3708TIP3   OH211064   4.565   5.880   2.089
 3708TIP3    H111065   4.479   5.886   2.131
 3708TIP3    H211066   4.613   5.815   2.141
 3709TIP3   OH211067   8.319   3.327   0.976
 3709TIP3    H111068   8.224   3.318   0.977
 3709TIP3    H211069   8.348   3.285   1.057
 3710TIP3   OH211070   8.012   5.981   1.027
 3710TIP3    H111071   7.946   5.918   1.058
 3710TIP3    H211072   8.050   5.940   0.950
 3711TIP3   OH211073   1.132   3.325   5.603
 3711TIP3    H111074   1.216   3.298   5.565
 3711TIP3    H211075   1.155   3.362   5.688
 3712TIP3   OH211076   3.307   7.572   1.912
 3712TIP3    H111077   3.368   7.504   1.884
 3712TIP3    H211078   3.299   7.560   2.007
 3713TIP3   OH211079   0.509   2.164   0.336
 3713TIP3    H111080   0.536   2.218   0.410
 3713TIP3    H211081   0.590   2.147   0.288
 3714TIP3   OH211082   5.286   1.013   0.602
 3714TIP3    H111083   5.319   1.101   0.584
 3714TIP3    H211084   5.292   0.968   0.518
 3715TIP3   OH211085   3.065   4.759   1.756
 3715TIP3    H111086   3.105   4.738   1.841
 3715TIP3    H211087   3.137   4.752   1.694
 3716TIP3   OH211088   2.561   3.946   1.029
 3716TIP3    H111089   2.467   3.930   1.037
 3716TIP3    H211090   2.596   3.866   0.992
 3717TIP3   OH211091   6.342   0.140   2.161
 3717TIP3    H111092   6.289   0.215   2.189
 3717TIP3    H211093   6.426   0.153   2.205
 3718TIP3   OH211094   0.255   6.075   4.716
 3718TIP3    H111095   0.172   6.034   4.691
 3718TIP3    H211096   0.230   6.141   4.781
 3719TIP3   OH211097   1.146   1.622   2.575
 3719TIP3    H111098   1.090   1.690   2.611
 3719TIP3    H211099   1.093   1.542   2.577
 3720TIP3   OH211100   2.497   0.515   6.816
 3720TIP3    H111101   2.469   0.447   6.878
 3720TIP3    H211102   2.587   0.535   6.841
 3721TIP3   OH211103   6.373   0.311   5.021
 3721TIP3    H111104   6.294   0.301   5.074
 3721TIP3    H211105   6.419   0.385   5.059
 3722TIP3   OH211106   3.430   6.880   6.510
 3722TIP3    H111107   3.434   6.939   6.435
 3722TIP3    H211108   3.521   6.863   6.533
 3723TIP3   OH211109   7.820   4.844   6.267
 3723TIP3    H111110   7.851   4.778   6.205
 3723TIP3    H211111   7.728   4.856   6.244
 3724TIP3   OH211112   4.925   3.078   1.768
 3724TIP3    H111113   4.843   3.042   1.733
 3724TIP3    H211114   4.906   3.171   1.781
 3725TIP3   OH211115   5.292   2.226   6.284
 3725TIP3    H111116   5.239   2.147   6.297
 3725TIP3    H211117   5.234   2.287   6.239
 3726TIP3   OH211118   8.202   0.804   6.281
 3726TIP3    H111119   8.152   0.758   6.214
 3726TIP3    H211120   8.214   0.892   6.247
 3727TIP3   OH211121   4.867   6.505   4.908
 3727TIP3    H111122   4.836   6.497   4.817
 3727TIP3    H211123   4.934   6.573   4.904
 3728TIP3   OH211124   5.897   0.948   6.816
 3728TIP3    H111125   5.826   0.882   6.812
 3728TIP3    H211126   5.918   0.955   6.909
 3729TIP3   OH211127   1.735   6.833   5.399
 3729TIP3    H111128   1.772   6.751   5.367
 3729TIP3    H211129   1.761   6.899   5.335
 3730TIP3   OH211130   4.369   1.072   2.631
 3730TIP3    H111131   4.313   0.999   2.655
 3730TIP3    H211132   4.337   1.101   2.546
 3731TIP3   OH211133   1.048   5.374   2.209
 3731TIP3    H111134   1.034   5.443   2.144
 3731TIP3    H211135   0.962   5.333   2.219
 3732TIP3   OH211136   0.107   5.563   2.734
 3732TIP3    H111137   0.032   5.521   2.692
 3732TIP3    H211138   0.108   5.652   2.698
 3733TIP3   OH211139   5.138   6.508   2.817
 3733TIP3    H111140   5.074   6.438   2.803
 3733TIP3    H211141   5.085   6.582   2.847
 3734TIP3   OH211142   4.539   6.357   2.480
 3734TIP3    H111143   4.540   6.296   2.406
 3734TIP3    H211144   4.565   6.441   2.442
 3735TIP3   OH211145   7.356   7.289   5.337
 3735TIP3    H111146   7.279   7.270   5.282
 3735TIP3    H211147   7.333   7.254   5.423
 3736TIP3   OH211148   7.530   7.329   4.695
 3736TIP3    H111149   7.624   7.345   4.687
 3736TIP3    H211150   7.490   7.415   4.685
 3737TIP3   OH211151   6.456   4.212   3.445
 3737TIP3    H111152   6.462   4.305   3.467
 3737TIP3    H211153   6.363   4.191   3.454
 3738TIP3   OH211154   6.262   1.939   1.053
 3738TIP3    H111155   6.261   2.013   1.114
 3738TIP3    H211156   6.173   1.902   1.058
 3739TIP3   OH211157   6.701   7.315   4.617
 3739TIP3    H111158   6.629   7.313   4.554
 3739TIP3    H211159   6.760   7.246   4.589
 3740TIP3   OH211160   6.934   6.480   4.504
 3740TIP3    H111161   6.991   6.439   4.569
 3740TIP3    H211162   6.865   6.521   4.555
 3741TIP3   OH211163   4.350   0.529   0.713
 3741TIP3    H111164   4.320   0.462   0.774
 3741TIP3    H211165   4.438   0.500   0.688
 3742TIP3   OH211166   3.014   0.990   5.526
 3742TIP3    H111167   3.083   1.055   5.512
 3742TIP3    H211168   3.007   0.983   5.622
 3743TIP3   OH211169   2.908   7.684   5.574
 3743TIP3    H111170   2.961   7.762   5.556
 3743TIP3    H211171   2.927   7.624   5.502
 3744TIP3   OH211172   6.553   7.659   2.363
 3744TIP3    H111173   6.639   7.638   2.326
 3744TIP3    H211174   6.573   7.713   2.439
 3745TIP3   OH211175   0.876   5.738   5.293
 3745TIP3    H111176   0.850   5.813   5.239
 3745TIP3    H211177   0.880   5.664   5.232
 3746TIP3   OH211178   4.901   6.961   2.856
 3746TIP3    H111179   4.976   7.018   2.838
 3746TIP3    H211180   4.880   6.922   2.772
 3747TIP3   OH211181   3.816   0.459   4.551
 3747TIP3    H111182   3.724   0.475   4.574
 3747TIP3    H211183   3.854   0.425   4.632
 3748TIP3   OH211184   6.159   6.390   3.899
 3748TIP3    H111185   6.084   6.364   3.952
 3748TIP3    H211186   6.129   6.464   3.847
 3749TIP3   OH211187   8.327   2.362   1.494
 3749TIP3    H111188   8.385   2.329   1.425
 3749TIP3    H211189   8.246   2.314   1.482
 3750TIP3   OH211190   3.583   6.989   0.610
 3750TIP3    H111191   3.623   7.072   0.635
 3750TIP3    H211192   3.655   6.939   0.571
 3751TIP3   OH211193   7.595   4.579   0.820
 3751TIP3    H111194   7.679   4.537   0.805
 3751TIP3    H211195   7.556   4.588   0.733
 3752TIP3   OH211196   7.036   5.851   4.281
 3752TIP3    H111197   7.041   5.947   4.287
 3752TIP3    H211198   7.060   5.821   4.369
 3753TIP3   OH211199   7.476   1.414   6.435
 3753TIP3    H111200   7.511   1.430   6.348
 3753TIP3    H211201   7.479   1.499   6.479
 3754TIP3   OH211202   6.234   6.414   2.205
 3754TIP3    H111203   6.181   6.363   2.144
 3754TIP3    H211204   6.174   6.436   2.276
 3755TIP3   OH211205   3.180   6.357   0.419
 3755TIP3    H111206   3.115   6.384   0.484
 3755TIP3    H211207   3.159   6.410   0.342
 3756TIP3   OH211208   3.298   3.062   1.644
 3756TIP3    H111209   3.284   3.001   1.572
 3756TIP3    H211210   3.303   3.148   1.601
 3757TIP3   OH211211   1.502   5.744   1.295
 3757TIP3    H111212   1.471   5.700   1.216
 3757TIP3    H211213   1.463   5.831   1.291
 3758TIP3   OH211214   0.517   2.269   4.457
 3758TIP3    H111215   0.434   2.312   4.437
 3758TIP3    H211216   0.533   2.288   4.549
 3759TIP3   OH211217   5.799   7.633   2.022
 3759TIP3    H111218   5.775   7.718   1.986
 3759TIP3    H211219   5.856   7.653   2.097
 3760TIP3   OH211220   5.209   6.231   3.834
 3760TIP3    H111221   5.280   6.237   3.770
 3760TIP3    H211222   5.246   6.180   3.906
 3761TIP3   OH211223   4.263   3.662   1.356
 3761TIP3    H111224   4.296   3.727   1.295
 3761TIP3    H211225   4.233   3.712   1.432
 3762TIP3   OH211226   3.509   7.907   6.405
 3762TIP3    H111227   3.528   7.825   6.451
 3762TIP3    H211228   3.594   7.939   6.377
 3763TIP3   OH211229   0.540   6.096   6.405
 3763TIP3    H111230   0.590   6.169   6.368
 3763TIP3    H211231   0.463   6.137   6.445
 3764TIP3   OH211232   7.276   6.668   1.540
 3764TIP3    H111233   7.352   6.625   1.578
 3764TIP3    H211234   7.297   6.761   1.543
 3765TIP3   OH211235   0.256   0.927   6.549
 3765TIP3    H111236   0.275   0.944   6.457
 3765TIP3    H211237   0.258   1.014   6.590
 3766TIP3   OH211238   3.762   6.456   0.277
 3766TIP3    H111239   3.759   6.361   0.290
 3766TIP3    H211240   3.731   6.492   0.361
 3767TIP3   OH211241   4.030   6.435   1.354
 3767TIP3    H111242   4.042   6.404   1.265
 3767TIP3    H211243   3.955   6.385   1.387
 3768TIP3   OH211244   7.023   1.679   2.131
 3768TIP3    H111245   6.928   1.682   2.146
 3768TIP3    H211246   7.033   1.707   2.040
 3769TIP3   OH211247   1.368   5.982   0.145
 3769TIP3    H111248   1.449   5.931   0.144
 3769TIP3    H211249   1.300   5.918   0.124
 3770TIP3   OH211250   2.285   0.346   4.401
 3770TIP3    H111251   2.319   0.404   4.468
 3770TIP3    H211252   2.289   0.259   4.440
 3771TIP3   OH211253   5.889   2.569   5.825
 3771TIP3    H111254   5.946   2.513   5.878
 3771TIP3    H211255   5.914   2.658   5.849
 3772TIP3   OH211256   0.992   4.584   6.318
 3772TIP3    H111257   0.910   4.591   6.368
 3772TIP3    H211258   1.053   4.540   6.378
 3773TIP3   OH211259   5.317   6.875   6.082
 3773TIP3    H111260   5.395   6.837   6.122
 3773TIP3    H211261   5.263   6.800   6.057
 3774TIP3   OH211262   4.721   1.894   6.802
 3774TIP3    H111263   4.652   1.842   6.760
 3774TIP3    H211264   4.737   1.849   6.885
 3775TIP3   OH211265   5.678   5.882   3.430
 3775TIP3    H111266   5.698   5.963   3.382
 3775TIP3    H211267   5.595   5.901   3.475
 3776TIP3   OH211268   2.491   0.147   4.870
 3776TIP3    H111269   2.566   0.129   4.926
 3776TIP3    H211270   2.513   0.105   4.786
 3777TIP3   OH211271   7.427   2.550   1.827
 3777TIP3    H111272   7.517   2.524   1.847
 3777TIP3    H211273   7.382   2.549   1.912
 3778TIP3   OH211274   8.056   6.680   4.488
 3778TIP3    H111275   8.089   6.770   4.481
 3778TIP3    H211276   8.111   6.629   4.429
 3779TIP3   OH211277   6.500   1.325   0.310
 3779TIP3    H111278   6.445   1.341   0.233
 3779TIP3    H211279   6.457   1.374   0.380
 3780TIP3   OH211280   3.368   4.506   4.022
 3780TIP3    H111281   3.402   4.561   4.093
 3780TIP3    H211282   3.284   4.546   3.999
 3781TIP3   OH211283   5.914   1.907   5.646
 3781TIP3    H111284   6.002   1.933   5.675
 3781TIP3    H211285   5.904   1.949   5.561
 3782TIP3   OH211286   0.124   2.634   0.759
 3782TIP3    H111287   0.170   2.717   0.770
 3782TIP3    H211288   0.085   2.640   0.671
 3783TIP3   OH211289   5.822   5.340   5.056
 3783TIP3    H111290   5.904   5.311   5.095
 3783TIP3    H211291   5.840   5.429   5.025
 3784TIP3   OH211292   2.915   3.340   6.654
 3784TIP3    H111293   3.005   3.316   6.631
 3784TIP3    H211294   2.924   3.405   6.723
 3785TIP3   OH211295   6.627   5.404   1.687
 3785TIP3    H111296   6.643   5.381   1.779
 3785TIP3    H211297   6.612   5.320   1.644
 3786TIP3   OH211298   1.716   3.701   3.609
 3786TIP3    H111299   1.621   3.708   3.601
 3786TIP3    H211300   1.737   3.754   3.686
 3787TIP3   OH211301   7.790   4.220   3.887
 3787TIP3    H111302   7.874   4.224   3.841
 3787TIP3    H211303   7.747   4.142   3.850
 3788TIP3   OH211304   4.038   7.422   2.291
 3788TIP3    H111305   3.944   7.433   2.303
 3788TIP3    H211306   4.071   7.404   2.379
 3789TIP3   OH211307   3.098   0.979   5.781
 3789TIP3    H111308   3.119   0.996   5.873
 3789TIP3    H211309   3.178   0.940   5.745
 3790TIP3   OH211310   4.404   7.011   1.110
 3790TIP3    H111311   4.311   6.988   1.113
 3790TIP3    H211312   4.449   6.929   1.127
 3791TIP3   OH211313   1.957   3.179   4.078
 3791TIP3    H111314   1.994   3.093   4.056
 3791TIP3    H211315   1.975   3.189   4.172
 3792TIP3   OH211316   1.749   0.938   0.156
 3792TIP3    H111317   1.820   0.941   0.220
 3792TIP3    H211318   1.741   1.029   0.126
 3793TIP3   OH211319   7.911   6.501   3.194
 3793TIP3    H111320   7.933   6.505   3.101
 3793TIP3    H211321   7.817   6.521   3.197
 3794TIP3   OH211322   3.521   1.257   6.130
 3794TIP3    H111323   3.611   1.280   6.151
 3794TIP3    H211324   3.493   1.321   6.065
 3795TIP3   OH211325   0.748   7.703   4.473
 3795TIP3    H111326   0.661   7.669   4.455
 3795TIP3    H211327   0.737   7.761   4.549
 3796TIP3   OH211328   5.857   7.730   0.406
 3796TIP3    H111329   5.806   7.651   0.393
 3796TIP3    H211330   5.948   7.702   0.395
 3797TIP3   OH211331   4.222   6.811   5.258
 3797TIP3    H111332   4.313   6.838   5.271
 3797TIP3    H211333   4.194   6.778   5.343
 3798TIP3   OH211334   1.160   4.062   6.650
 3798TIP3    H111335   1.235   4.017   6.610
 3798TIP3    H211336   1.101   3.992   6.675
 3799TIP3   OH211337   5.042   7.234   5.163
 3799TIP3    H111338   5.133   7.205   5.156
 3799TIP3    H211339   5.045   7.306   5.226
 3800TIP3   OH211340   3.192   4.644   3.015
 3800TIP3    H111341   3.139   4.716   2.981
 3800TIP3    H211342   3.254   4.685   3.075
 3801TIP3   OH211343   4.698   2.785   1.135
 3801TIP3    H111344   4.656   2.701   1.123
 3801TIP3    H211345   4.658   2.843   1.071
 3802TIP3   OH211346   5.225   0.407   0.551
 3802TIP3    H111347   5.148   0.419   0.607
 3802TIP3    H211348   5.297   0.398   0.613
 3803TIP3   OH211349   7.084   5.840   0.597
 3803TIP3    H111350   7.044   5.865   0.680
 3803TIP3    H211351   7.033   5.887   0.531
 3804TIP3   OH211352   6.520   0.847   1.010
 3804TIP3    H111353   6.554   0.786   1.076
 3804TIP3    H211354   6.591   0.853   0.946
 3805TIP3   OH211355   0.669   1.482   5.550
 3805TIP3    H111356   0.748   1.467   5.602
 3805TIP3    H211357   0.643   1.572   5.572
 3806TIP3   OH211358   5.668   3.225   4.433
 3806TIP3    H111359   5.752   3.235   4.389
 3806TIP3    H211360   5.669   3.135   4.467
 3807TIP3   OH211361   2.296   1.253   4.067
 3807TIP3    H111362   2.380   1.265   4.023
 3807TIP3    H211363   2.231   1.266   3.998
 3808TIP3   OH211364   3.455   1.659   5.765
 3808TIP3    H111365   3.528   1.693   5.817
 3808TIP3    H211366   3.398   1.735   5.750
 3809TIP3   OH211367   7.919   5.428   2.687
 3809TIP3    H111368   7.941   5.521   2.697
 3809TIP3    H211369   7.982   5.382   2.743
 3810TIP3   OH211370   0.040   0.339   1.113
 3810TIP3    H111371  -0.028   0.346   1.045
 3810TIP3    H211372  -0.001   0.377   1.191
 3811TIP3   OH211373   5.282   5.276   3.009
 3811TIP3    H111374   5.321   5.188   3.007
 3811TIP3    H211375   5.348   5.333   2.970
 3812TIP3   OH211376   3.840   6.220   1.430
 3812TIP3    H111377   3.792   6.191   1.353
 3812TIP3    H211378   3.806   6.166   1.502
 3813TIP3   OH211379   3.603   4.293   6.173
 3813TIP3    H111380   3.568   4.258   6.255
 3813TIP3    H211381   3.694   4.314   6.193
 3814TIP3   OH211382   3.490   3.311   6.168
 3814TIP3    H111383   3.394   3.314   6.160
 3814TIP3    H211384   3.515   3.401   6.188
 3815TIP3   OH211385   0.072   0.411   1.408
 3815TIP3    H111386   0.057   0.317   1.415
 3815TIP3    H211387   0.038   0.447   1.490
 3816TIP3   OH211388   8.336   1.971   1.721
 3816TIP3    H111389   8.378   2.057   1.717
 3816TIP3    H211390   8.318   1.948   1.630
 3817TIP3   OH211391   3.127   4.500   2.640
 3817TIP3    H111392   3.035   4.487   2.616
 3817TIP3    H211393   3.171   4.519   2.557
 3818TIP3   OH211394   2.567   5.976   1.492
 3818TIP3    H111395   2.584   6.070   1.502
 3818TIP3    H211396   2.596   5.956   1.403
 3819TIP3   OH211397   7.207   5.058   0.656
 3819TIP3    H111398   7.126   5.010   0.676
 3819TIP3    H211399   7.180   5.123   0.592
 3820TIP3   OH211400   6.231   1.075   6.473
 3820TIP3    H111401   6.194   1.040   6.554
 3820TIP3    H211402   6.170   1.046   6.405
 3821TIP3   OH211403   0.240   1.248   0.909
 3821TIP3    H111404   0.266   1.334   0.943
 3821TIP3    H211405   0.272   1.186   0.975
 3822TIP3   OH211406   0.450   1.518   6.396
 3822TIP3    H111407   0.385   1.451   6.375
 3822TIP3    H211408   0.424   1.593   6.342
 3823TIP3   OH211409   2.251   0.584   4.919
 3823TIP3    H111410   2.280   0.662   4.872
 3823TIP3    H211411   2.329   0.552   4.964
 3824TIP3   OH211412   6.289   5.778   5.143
 3824TIP3    H111413   6.327   5.793   5.056
 3824TIP3    H211414   6.356   5.729   5.190
 3825TIP3   OH211415   7.136   7.653   3.212
 3825TIP3    H111416   7.124   7.743   3.183
 3825TIP3    H211417   7.216   7.655   3.264
 3826TIP3   OH211418   6.885   6.116   0.170
 3826TIP3    H111419   6.879   6.208   0.194
 3826TIP3    H211420   6.819   6.104   0.101
 3827TIP3   OH211421   3.935   7.608   3.296
 3827TIP3    H111422   3.886   7.540   3.343
 3827TIP3    H211423   3.950   7.676   3.363
 3828TIP3   OH211424   7.686   5.349   2.153
 3828TIP3    H111425   7.662   5.411   2.084
 3828TIP3    H211426   7.760   5.390   2.198
 3829TIP3   OH211427   2.053   3.574   4.379
 3829TIP3    H111428   2.080   3.642   4.318
 3829TIP3    H211429   2.024   3.502   4.323
 3830TIP3   OH211430   1.420   2.760   2.058
 3830TIP3    H111431   1.392   2.851   2.050
 3830TIP3    H211432   1.423   2.727   1.969
 3831TIP3   OH211433   7.654   7.696   2.576
 3831TIP3    H111434   7.571   7.670   2.614
 3831TIP3    H211435   7.632   7.770   2.519
 3832TIP3   OH211436   3.462   4.045   4.929
 3832TIP3    H111437   3.383   3.995   4.907
 3832TIP3    H211438   3.463   4.117   4.865
 3833TIP3   OH211439   4.453   6.936   6.085
 3833TIP3    H111440   4.463   6.936   6.180
 3833TIP3    H211441   4.526   6.989   6.053
 3834TIP3   OH211442   5.291   2.201   1.970
 3834TIP3    H111443   5.349   2.272   1.995
 3834TIP3    H211444   5.345   2.123   1.975
 3835TIP3   OH211445   1.153   3.103   0.117
 3835TIP3    H111446   1.166   3.168   0.049
 3835TIP3    H211447   1.228   3.044   0.108
 3836TIP3   OH211448   0.763   1.171   3.269
 3836TIP3    H111449   0.832   1.190   3.205
 3836TIP3    H211450   0.785   1.224   3.345
 3837TIP3   OH211451   4.325   0.870   4.449
 3837TIP3    H111452   4.256   0.805   4.440
 3837TIP3    H211453   4.361   0.854   4.537
 3838TIP3   OH211454   0.847   5.112   3.364
 3838TIP3    H111455   0.808   5.054   3.430
 3838TIP3    H211456   0.840   5.199   3.403
 3839TIP3   OH211457   7.063   2.620   1.516
 3839TIP3    H111458   7.059   2.544   1.458
 3839TIP3    H211459   7.058   2.583   1.605
 3840TIP3   OH211460   4.479   1.432   3.443
 3840TIP3    H111461   4.443   1.521   3.440
 3840TIP3    H211462   4.566   1.440   3.402
 3841TIP3   OH211463   3.887   0.672   0.104
 3841TIP3    H111464   3.871   0.610   0.175
 3841TIP3    H211465   3.828   0.745   0.122
 3842TIP3   OH211466   5.799   0.191   1.802
 3842TIP3    H111467   5.820   0.167   1.892
 3842TIP3    H211468   5.798   0.109   1.754
 3843TIP3   OH211469   6.113   5.522   0.958
 3843TIP3    H111470   6.122   5.576   0.879
 3843TIP3    H211471   6.035   5.555   1.001
 3844TIP3   OH211472   8.258   1.688   6.006
 3844TIP3    H111473   8.320   1.615   6.011
 3844TIP3    H211474   8.199   1.665   5.934
 3845TIP3   OH211475   4.124   5.300   2.041
 3845TIP3    H111476   4.151   5.390   2.020
 3845TIP3    H211477   4.198   5.265   2.092
 3846TIP3   OH211478   5.207   6.078   6.471
 3846TIP3    H111479   5.254   6.008   6.516
 3846TIP3    H211480   5.179   6.137   6.541
 3847TIP3   OH211481   4.614   1.309   0.958
 3847TIP3    H111482   4.651   1.221   0.956
 3847TIP3    H211483   4.523   1.298   0.929
 3848TIP3   OH211484   1.181   7.425   1.703
 3848TIP3    H111485   1.142   7.511   1.691
 3848TIP3    H211486   1.106   7.365   1.704
 3849TIP3   OH211487   8.300   5.741   4.115
 3849TIP3    H111488   8.374   5.730   4.174
 3849TIP3    H211489   8.267   5.829   4.133
 3850TIP3   OH211490   4.107   6.278   6.309
 3850TIP3    H111491   4.084   6.308   6.397
 3850TIP3    H211492   4.056   6.198   6.296
 3851TIP3   OH211493   6.794   4.660   1.217
 3851TIP3    H111494   6.846   4.722   1.267
 3851TIP3    H211495   6.832   4.662   1.129
 3852TIP3   OH211496   3.459   1.981   4.865
 3852TIP3    H111497   3.518   1.926   4.813
 3852TIP3    H211498   3.419   1.920   4.927
 3853TIP3   OH211499   4.025   3.003   3.293
 3853TIP3    H111500   4.032   3.096   3.274
 3853TIP3    H211501   3.974   2.967   3.221
 3854TIP3   OH211502   1.760   2.431   4.538
 3854TIP3    H111503   1.798   2.395   4.458
 3854TIP3    H211504   1.711   2.358   4.577
 3855TIP3   OH211505   4.085   4.055   6.126
 3855TIP3    H111506   4.018   4.022   6.067
 3855TIP3    H211507   4.154   4.087   6.067
 3856TIP3   OH211508   7.108   7.450   5.056
 3856TIP3    H111509   7.109   7.372   5.001
 3856TIP3    H211510   7.038   7.504   5.020
 3857TIP3   OH211511   5.439   7.656   3.726
 3857TIP3    H111512   5.494   7.616   3.660
 3857TIP3    H211513   5.471   7.745   3.735
 3858TIP3   OH211514   2.471   4.558   2.853
 3858TIP3    H111515   2.491   4.486   2.911
 3858TIP3    H211516   2.389   4.595   2.887
 3859TIP3   OH211517   4.260   0.055   4.360
 3859TIP3    H111518   4.235   0.145   4.381
 3859TIP3    H211519   4.178   0.006   4.365
 3860TIP3   OH211520   2.120   6.213   3.516
 3860TIP3    H111521   2.109   6.121   3.490
 3860TIP3    H211522   2.083   6.263   3.444
 3861TIP3   OH211523   7.667   2.798   1.840
 3861TIP3    H111524   7.598   2.794   1.774
 3861TIP3    H211525   7.711   2.882   1.824
 3862TIP3   OH211526   7.759   4.276   0.883
 3862TIP3    H111527   7.818   4.200   0.888
 3862TIP3    H211528   7.815   4.348   0.853
 3863TIP3   OH211529   3.352   7.866   6.746
 3863TIP3    H111530   3.347   7.838   6.837
 3863TIP3    H211531   3.264   7.900   6.727
 3864TIP3   OH211532   3.516   4.413   5.224
 3864TIP3    H111533   3.476   4.391   5.140
 3864TIP3    H211534   3.608   4.431   5.203
 3865TIP3   OH211535   1.510   6.619   5.483
 3865TIP3    H111536   1.505   6.660   5.396
 3865TIP3    H211537   1.447   6.667   5.536
 3866TIP3   OH211538   3.971   4.789   3.245
 3866TIP3    H111539   3.969   4.878   3.211
 3866TIP3    H211540   4.011   4.737   3.176
 3867TIP3   OH211541   0.332   7.481   1.378
 3867TIP3    H111542   0.357   7.550   1.316
 3867TIP3    H211543   0.250   7.512   1.417
 3868TIP3   OH211544   0.138   3.509   5.993
 3868TIP3    H111545   0.120   3.441   6.058
 3868TIP3    H211546   0.083   3.485   5.918
 3869TIP3   OH211547   6.022   7.195   3.463
 3869TIP3    H111548   6.006   7.199   3.369
 3869TIP3    H211549   5.971   7.268   3.500
 3870TIP3   OH211550   6.593   1.379   2.968
 3870TIP3    H111551   6.647   1.300   2.969
 3870TIP3    H211552   6.570   1.391   2.875
 3871TIP3   OH211553   4.771   0.152   3.261
 3871TIP3    H111554   4.788   0.246   3.254
 3871TIP3    H211555   4.781   0.119   3.172
 3872TIP3   OH211556   7.940   7.244   3.671
 3872TIP3    H111557   7.892   7.311   3.623
 3872TIP3    H211558   7.994   7.293   3.733
 3873TIP3   OH211559   3.968   0.700   1.209
 3873TIP3    H111560   3.962   0.792   1.231
 3873TIP3    H211561   3.950   0.654   1.291
 3874TIP3   OH211562   5.747   7.468   0.375
 3874TIP3    H111563   5.795   7.463   0.293
 3874TIP3    H211564   5.723   7.378   0.395
 3875TIP3   OH211565   2.399   0.630   3.378
 3875TIP3    H111566   2.341   0.554   3.378
 3875TIP3    H211567   2.480   0.598   3.339
 3876TIP3   OH211568   4.818   7.125   5.617
 3876TIP3    H111569   4.758   7.199   5.629
 3876TIP3    H211570   4.905   7.165   5.616
 3877TIP3   OH211571   2.011   3.037   2.017
 3877TIP3    H111572   1.922   3.067   1.998
 3877TIP3    H211573   2.018   3.042   2.112
 3878TIP3   OH211574   4.549   5.755   4.103
 3878TIP3    H111575   4.455   5.757   4.088
 3878TIP3    H211576   4.562   5.691   4.173
 3879TIP3   OH211577   7.432   6.226   0.629
 3879TIP3    H111578   7.396   6.194   0.712
 3879TIP3    H211579   7.435   6.321   0.639
 3880TIP3   OH211580   3.913   0.681   4.810
 3880TIP3    H111581   3.893   0.588   4.824
 3880TIP3    H211582   4.009   0.686   4.815
 3881TIP3   OH211583   5.487   4.704   0.686
 3881TIP3    H111584   5.422   4.753   0.736
 3881TIP3    H211585   5.552   4.677   0.752
 3882TIP3   OH211586   6.284   1.899   5.261
 3882TIP3    H111587   6.243   1.981   5.234
 3882TIP3    H211588   6.319   1.862   5.180
 3883TIP3   OH211589   4.420   6.228   3.322
 3883TIP3    H111590   4.484   6.285   3.364
 3883TIP3    H211591   4.376   6.184   3.395
 3884TIP3   OH211592   7.084   2.101   2.297
 3884TIP3    H111593   7.162   2.115   2.243
 3884TIP3    H211594   7.055   2.189   2.319
 3885TIP3   OH211595   0.863   0.009   6.681
 3885TIP3    H111596   0.813   0.055   6.749
 3885TIP3    H211597   0.955   0.031   6.700
 3886TIP3   OH211598   1.259   2.204   6.683
 3886TIP3    H111599   1.223   2.124   6.645
 3886TIP3    H211600   1.292   2.254   6.609
 3887TIP3   OH211601   6.751   1.090   3.153
 3887TIP3    H111602   6.831   1.106   3.202
 3887TIP3    H211603   6.699   1.033   3.210
 3888TIP3   OH211604   7.741   0.393   3.909
 3888TIP3    H111605   7.742   0.474   3.857
 3888TIP3    H211606   7.833   0.378   3.930
 3889TIP3   OH211607   0.165   7.161   5.914
 3889TIP3    H111608   0.201   7.116   5.990
 3889TIP3    H211609   0.227   7.142   5.844
 3890TIP3   OH211610   4.786   4.759   0.596
 3890TIP3    H111611   4.868   4.722   0.629
 3890TIP3    H211612   4.780   4.845   0.638
 3891TIP3   OH211613   0.165   0.078   6.214
 3891TIP3    H111614   0.097   0.077   6.281
 3891TIP3    H211615   0.221   0.003   6.234
 3892TIP3   OH211616   1.566   2.288   4.701
 3892TIP3    H111617   1.500   2.303   4.634
 3892TIP3    H211618   1.517   2.256   4.777
 3893TIP3   OH211619   0.454   3.411   2.934
 3893TIP3    H111620   0.432   3.319   2.950
 3893TIP3    H211621   0.488   3.412   2.845
 3894TIP3   OH211622   7.322   4.309   6.717
 3894TIP3    H111623   7.330   4.322   6.812
 3894TIP3    H211624   7.315   4.214   6.706
 3895TIP3   OH211625   5.114   0.883   2.883
 3895TIP3    H111626   5.185   0.823   2.908
 3895TIP3    H211627   5.038   0.827   2.869
 3896TIP3   OH211628   2.931   5.719   2.730
 3896TIP3    H111629   2.874   5.791   2.704
 3896TIP3    H211630   2.977   5.695   2.649
 3897TIP3   OH211631   5.530   6.651   3.503
 3897TIP3    H111632   5.624   6.643   3.490
 3897TIP3    H211633   5.520   6.673   3.596
 3898TIP3   OH211634   6.324   2.678   3.697
 3898TIP3    H111635   6.370   2.594   3.711
 3898TIP3    H211636   6.233   2.653   3.682
 3899TIP3   OH211637   0.932   0.777   3.249
 3899TIP3    H111638   1.011   0.830   3.251
 3899TIP3    H211639   0.861   0.839   3.268
 3900TIP3   OH211640   2.591   4.068   0.518
 3900TIP3    H111641   2.559   3.989   0.561
 3900TIP3    H211642   2.569   4.139   0.579
 3901TIP3   OH211643   5.845   6.586   2.137
 3901TIP3    H111644   5.873   6.556   2.223
 3901TIP3    H211645   5.910   6.652   2.112
 3902TIP3   OH211646   0.981   3.572   3.841
 3902TIP3    H111647   1.043   3.554   3.770
 3902TIP3    H211648   0.965   3.487   3.881
 3903TIP3   OH211649   3.582   7.435   2.202
 3903TIP3    H111650   3.604   7.356   2.153
 3903TIP3    H211651   3.648   7.499   2.176
 3904TIP3   OH211652   3.502   4.567   4.301
 3904TIP3    H111653   3.584   4.554   4.347
 3904TIP3    H211654   3.471   4.653   4.328
 3905TIP3   OH211655   7.554   1.005   3.867
 3905TIP3    H111656   7.608   1.048   3.801
 3905TIP3    H211657   7.493   1.072   3.896
 3906TIP3   OH211658   4.252   4.144   4.038
 3906TIP3    H111659   4.230   4.071   3.979
 3906TIP3    H211660   4.237   4.109   4.126
 3907TIP3   OH211661   3.286   6.850   0.937
 3907TIP3    H111662   3.362   6.868   0.991
 3907TIP3    H211663   3.212   6.856   0.997
 3908TIP3   OH211664   3.485   2.268   1.339
 3908TIP3    H111665   3.527   2.244   1.422
 3908TIP3    H211666   3.513   2.358   1.322
 3909TIP3   OH211667   1.127   1.927   5.203
 3909TIP3    H111668   1.095   1.891   5.120
 3909TIP3    H211669   1.163   2.013   5.178
 3910TIP3   OH211670   2.968   0.646   6.144
 3910TIP3    H111671   3.050   0.672   6.101
 3910TIP3    H211672   2.930   0.729   6.174
 3911TIP3   OH211673   1.503   1.644   3.888
 3911TIP3    H111674   1.579   1.585   3.884
 3911TIP3    H211675   1.469   1.634   3.977
 3912TIP3   OH211676   4.100   3.438   5.270
 3912TIP3    H111677   4.018   3.443   5.319
 3912TIP3    H211678   4.127   3.529   5.259
 3913TIP3   OH211679   4.562   1.926   4.322
 3913TIP3    H111680   4.491   1.942   4.384
 3913TIP3    H211681   4.593   1.838   4.343
 3914TIP3   OH211682   0.575   7.413   1.472
 3914TIP3    H111683   0.484   7.438   1.457
 3914TIP3    H211684   0.608   7.476   1.536
 3915TIP3   OH211685   1.032   2.446   2.376
 3915TIP3    H111686   0.977   2.508   2.424
 3915TIP3    H211687   0.977   2.369   2.363
 3916TIP3   OH211688   0.677   6.741   1.820
 3916TIP3    H111689   0.720   6.657   1.832
 3916TIP3    H211690   0.738   6.805   1.857
 3917TIP3   OH211691   2.866   2.048   3.667
 3917TIP3    H111692   2.873   1.958   3.700
 3917TIP3    H211693   2.775   2.072   3.681
 3918TIP3   OH211694   7.492   3.225   2.398
 3918TIP3    H111695   7.475   3.171   2.321
 3918TIP3    H211696   7.437   3.302   2.387
 3919TIP3   OH211697   2.310   7.234   0.568
 3919TIP3    H111698   2.335   7.149   0.530
 3919TIP3    H211699   2.393   7.273   0.595
 3920TIP3   OH211700   2.534   6.352   6.199
 3920TIP3    H111701   2.588   6.402   6.138
 3920TIP3    H211702   2.456   6.407   6.212
 3921TIP3   OH211703   1.713   1.615   4.675
 3921TIP3    H111704   1.778   1.561   4.719
 3921TIP3    H211705   1.763   1.682   4.629
 3922TIP3   OH211706   7.423   2.901   0.946
 3922TIP3    H111707   7.470   2.818   0.952
 3922TIP3    H211708   7.491   2.968   0.939
 3923TIP3   OH211709   3.301   2.902   1.405
 3923TIP3    H111710   3.252   2.949   1.338
 3923TIP3    H211711   3.389   2.892   1.367
 3924TIP3   OH211712   5.379   3.762   6.019
 3924TIP3    H111713   5.457   3.716   6.051
 3924TIP3    H211714   5.371   3.838   6.077
 3925TIP3   OH211715   3.254   7.166   3.176
 3925TIP3    H111716   3.226   7.175   3.268
 3925TIP3    H211717   3.269   7.072   3.165
 3926TIP3   OH211718   6.595   0.396   5.476
 3926TIP3    H111719   6.579   0.304   5.497
 3926TIP3    H211720   6.508   0.433   5.466
 3927TIP3   OH211721   7.457   2.836   3.452
 3927TIP3    H111722   7.379   2.889   3.462
 3927TIP3    H211723   7.433   2.750   3.487
 3928TIP3   OH211724   7.781   0.666   3.761
 3928TIP3    H111725   7.705   0.683   3.705
 3928TIP3    H211726   7.827   0.750   3.766
 3929TIP3   OH211727   1.685   7.543   6.135
 3929TIP3    H111728   1.767   7.569   6.177
 3929TIP3    H211729   1.648   7.624   6.102
 3930TIP3   OH211730   3.296   7.131   2.611
 3930TIP3    H111731   3.372   7.185   2.633
 3930TIP3    H211732   3.252   7.179   2.540
 3931TIP3   OH211733   3.469   0.617   2.402
 3931TIP3    H111734   3.449   0.525   2.388
 3931TIP3    H211735   3.428   0.663   2.329
 3932TIP3   OH211736   8.330   3.931   5.948
 3932TIP3    H111737   8.255   3.878   5.923
 3932TIP3    H211738   8.323   4.010   5.894
 3933TIP3   OH211739   3.706   3.136   0.785
 3933TIP3    H111740   3.670   3.223   0.802
 3933TIP3    H211741   3.634   3.076   0.803
 3934TIP3   OH211742   3.304   4.865   4.948
 3934TIP3    H111743   3.346   4.832   5.028
 3934TIP3    H211744   3.374   4.913   4.903
 3935TIP3   OH211745   3.321   3.399   1.128
 3935TIP3    H111746   3.313   3.395   1.032
 3935TIP3    H211747   3.342   3.310   1.154
 3936TIP3   OH211748   2.590   6.678   1.439
 3936TIP3    H111749   2.537   6.605   1.408
 3936TIP3    H211750   2.637   6.709   1.362
 3937TIP3   OH211751   1.357   3.346   5.087
 3937TIP3    H111752   1.295   3.290   5.132
 3937TIP3    H211753   1.303   3.408   5.039
 3938TIP3   OH211754   7.757   2.375   5.272
 3938TIP3    H111755   7.690   2.310   5.253
 3938TIP3    H211756   7.838   2.324   5.282
 3939TIP3   OH211757   0.209   0.862   4.930
 3939TIP3    H111758   0.266   0.789   4.906
 3939TIP3    H211759   0.209   0.918   4.853
 3940TIP3   OH211760   6.908   3.647   5.731
 3940TIP3    H111761   6.839   3.605   5.781
 3940TIP3    H211762   6.941   3.716   5.788
 3941TIP3   OH211763   2.399   3.771   5.461
 3941TIP3    H111764   2.481   3.738   5.424
 3941TIP3    H211765   2.336   3.764   5.390
 3942TIP3   OH211766   0.624   6.728   4.888
 3942TIP3    H111767   0.667   6.643   4.876
 3942TIP3    H211768   0.692   6.792   4.869
 3943TIP3   OH211769   7.611   7.431   0.159
 3943TIP3    H111770   7.646   7.351   0.197
 3943TIP3    H211771   7.523   7.407   0.130
 3944TIP3   OH211772   6.868   1.103   6.391
 3944TIP3    H111773   6.836   1.144   6.471
 3944TIP3    H211774   6.791   1.059   6.355
 3945TIP3   OH211775   0.121   1.282   3.189
 3945TIP3    H111776   0.181   1.208   3.194
 3945TIP3    H211777   0.178   1.359   3.187
 3946TIP3   OH211778   0.272   0.514   0.297
 3946TIP3    H111779   0.181   0.484   0.299
 3946TIP3    H211780   0.269   0.598   0.250
 3947TIP3   OH211781   6.712   1.995   3.468
 3947TIP3    H111782   6.702   2.053   3.544
 3947TIP3    H211783   6.699   1.907   3.503
 3948TIP3   OH211784   3.588   4.276   0.717
 3948TIP3    H111785   3.668   4.295   0.668
 3948TIP3    H211786   3.586   4.341   0.786
 3949TIP3   OH211787   7.436   7.612   4.633
 3949TIP3    H111788   7.465   7.657   4.712
 3949TIP3    H211789   7.454   7.673   4.562
 3950TIP3   OH211790   5.591   0.442   1.872
 3950TIP3    H111791   5.648   0.519   1.863
 3950TIP3    H211792   5.626   0.380   1.808
 3951TIP3   OH211793   3.999   7.317   0.967
 3951TIP3    H111794   4.035   7.279   1.047
 3951TIP3    H211795   4.063   7.384   0.942
 3952TIP3   OH211796   0.307   5.913   1.280
 3952TIP3    H111797   0.283   5.822   1.260
 3952TIP3    H211798   0.232   5.948   1.326
 3953TIP3   OH211799   7.671   3.020   0.922
 3953TIP3    H111800   7.683   3.114   0.936
 3953TIP3    H211801   7.720   2.979   0.993
 3954TIP3   OH211802   1.861   3.565   3.406
 3954TIP3    H111803   1.801   3.614   3.463
 3954TIP3    H211804   1.848   3.474   3.430
 3955TIP3   OH211805   6.030   3.238   2.503
 3955TIP3    H111806   5.937   3.243   2.479
 3955TIP3    H211807   6.030   3.207   2.593
 3956TIP3   OH211808   4.151   7.025   2.311
 3956TIP3    H111809   4.230   7.079   2.310
 3956TIP3    H211810   4.176   6.948   2.363
 3957TIP3   OH211811   6.165   2.653   1.390
 3957TIP3    H111812   6.208   2.676   1.472
 3957TIP3    H211813   6.079   2.694   1.395
 3958TIP3   OH211814   0.584   2.302   4.199
 3958TIP3    H111815   0.554   2.289   4.289
 3958TIP3    H211816   0.664   2.355   4.208
 3959TIP3   OH211817   2.751   6.733   3.817
 3959TIP3    H111818   2.667   6.720   3.860
 3959TIP3    H211819   2.750   6.673   3.743
 3960TIP3   OH211820   0.722   1.747   6.684
 3960TIP3    H111821   0.750   1.774   6.597
 3960TIP3    H211822   0.772   1.802   6.744
 3961TIP3   OH211823   1.622   4.158   4.756
 3961TIP3    H111824   1.557   4.185   4.820
 3961TIP3    H211825   1.598   4.206   4.676
 3962TIP3   OH211826   3.721   5.083   2.756
 3962TIP3    H111827   3.705   5.049   2.844
 3962TIP3    H211828   3.641   5.063   2.708
 3963TIP3   OH211829   3.422   5.361   5.548
 3963TIP3    H111830   3.365   5.407   5.609
 3963TIP3    H211831   3.460   5.430   5.493
 3964TIP3   OH211832   7.008   2.856   2.713
 3964TIP3    H111833   7.041   2.773   2.746
 3964TIP3    H211834   6.969   2.898   2.790
 3965TIP3   OH211835   6.329   6.378   0.476
 3965TIP3    H111836   6.253   6.341   0.520
 3965TIP3    H211837   6.296   6.459   0.437
 3966TIP3   OH211838   4.801   7.379   1.345
 3966TIP3    H111839   4.744   7.348   1.275
 3966TIP3    H211840   4.753   7.452   1.385
 3967TIP3   OH211841   5.305   0.351   4.367
 3967TIP3    H111842   5.384   0.312   4.329
 3967TIP3    H211843   5.312   0.331   4.461
 3968TIP3   OH211844   5.312   0.050   5.908
 3968TIP3    H111845   5.399   0.015   5.887
 3968TIP3    H211846   5.328   0.143   5.926
 3969TIP3   OH211847   3.550   6.921   4.437
 3969TIP3    H111848   3.530   6.986   4.370
 3969TIP3    H211849   3.587   6.972   4.509
 3970TIP3   OH211850   5.510   0.335   3.645
 3970TIP3    H111851   5.459   0.254   3.639
 3970TIP3    H211852   5.553   0.342   3.560
 3971TIP3   OH211853   6.106   5.653   1.247
 3971TIP3    H111854   6.199   5.648   1.224
 3971TIP3    H211855   6.090   5.746   1.262
 3972TIP3   OH211856   6.784   7.118   5.789
 3972TIP3    H111857   6.831   7.082   5.714
 3972TIP3    H211858   6.851   7.162   5.840
 3973TIP3   OH211859   6.501   6.716   3.358
 3973TIP3    H111860   6.432   6.782   3.360
 3973TIP3    H211861   6.494   6.671   3.442
 3974TIP3   OH211862   4.691   4.319   0.284
 3974TIP3    H111863   4.678   4.386   0.352
 3974TIP3    H211864   4.786   4.321   0.268
 3975TIP3   OH211865   8.251   4.180   2.507
 3975TIP3    H111866   8.203   4.116   2.454
 3975TIP3    H211867   8.334   4.191   2.460
 3976TIP3   OH211868   0.078   3.312   4.508
 3976TIP3    H111869   0.081   3.407   4.501
 3976TIP3    H211870   0.137   3.291   4.581
 3977TIP3   OH211871   4.689   3.024   4.497
 3977TIP3    H111872   4.649   3.059   4.576
 3977TIP3    H211873   4.636   3.058   4.426
 3978TIP3   OH211874   5.244   1.092   6.119
 3978TIP3    H111875   5.324   1.045   6.140
 3978TIP3    H211876   5.212   1.051   6.039
 3979TIP3   OH211877   5.134   6.222   6.687
 3979TIP3    H111878   5.070   6.152   6.702
 3979TIP3    H211879   5.096   6.298   6.731
 3980TIP3   OH211880   5.643   3.810   1.387
 3980TIP3    H111881   5.563   3.861   1.400
 3980TIP3    H211882   5.614   3.732   1.339
 3981TIP3   OH211883   6.400   3.719   5.379
 3981TIP3    H111884   6.489   3.744   5.403
 3981TIP3    H211885   6.408   3.627   5.352
 3982TIP3   OH211886   0.513   7.531   3.535
 3982TIP3    H111887   0.462   7.468   3.586
 3982TIP3    H211888   0.576   7.566   3.598
 3983TIP3   OH211889   1.288   3.760   4.345
 3983TIP3    H111890   1.341   3.791   4.418
 3983TIP3    H211891   1.242   3.838   4.314
 3984TIP3   OH211892   7.854   3.510   0.260
 3984TIP3    H111893   7.914   3.574   0.222
 3984TIP3    H211894   7.884   3.426   0.227
 3985TIP3   OH211895   4.476   3.750   3.387
 3985TIP3    H111896   4.468   3.832   3.435
 3985TIP3    H211897   4.446   3.771   3.298
 3986TIP3   OH211898   6.723   3.142   2.221
 3986TIP3    H111899   6.708   3.227   2.181
 3986TIP3    H211900   6.720   3.080   2.147
 3987TIP3   OH211901   6.706   2.948   4.532
 3987TIP3    H111902   6.664   3.030   4.507
 3987TIP3    H211903   6.637   2.882   4.520
 3988TIP3   OH211904   0.877   2.756   4.815
 3988TIP3    H111905   0.800   2.759   4.872
 3988TIP3    H211906   0.872   2.671   4.772
 3989TIP3   OH211907   7.698   1.756   5.205
 3989TIP3    H111908   7.732   1.836   5.165
 3989TIP3    H211909   7.776   1.711   5.239
 3990TIP3   OH211910   3.379   1.408   4.930
 3990TIP3    H111911   3.370   1.388   4.837
 3990TIP3    H211912   3.412   1.326   4.969
 3991TIP3   OH211913   7.593   0.504   1.922
 3991TIP3    H111914   7.508   0.548   1.920
 3991TIP3    H211915   7.610   0.482   1.830
 3992TIP3   OH211916   7.902   6.310   6.517
 3992TIP3    H111917   7.997   6.301   6.514
 3992TIP3    H211918   7.871   6.275   6.434
 3993TIP3   OH211919   0.991   3.083   1.014
 3993TIP3    H111920   0.899   3.062   1.002
 3993TIP3    H211921   1.023   3.015   1.073
 3994TIP3   OH211922   8.098   3.706   4.050
 3994TIP3    H111923   8.096   3.621   4.007
 3994TIP3    H211924   8.098   3.686   4.144
 3995TIP3   OH211925   2.659   5.621   5.651
 3995TIP3    H111926   2.687   5.591   5.738
 3995TIP3    H211927   2.566   5.595   5.647
 3996TIP3   OH211928   4.688   6.154   1.029
 3996TIP3    H111929   4.715   6.209   0.955
 3996TIP3    H211930   4.757   6.088   1.036
 3997TIP3   OH211931   3.271   4.141   0.446
 3997TIP3    H111932   3.177   4.144   0.463
 3997TIP3    H211933   3.311   4.130   0.532
 3998TIP3   OH211934   6.875   0.607   3.698
 3998TIP3    H111935   6.938   0.653   3.753
 3998TIP3    H211936   6.929   0.559   3.635
 3999TIP3   OH211937   0.059   6.910   0.008
 3999TIP3    H111938   0.112   6.927   0.085
 3999TIP3    H211939   0.023   6.822   0.021
 4000TIP3   OH211940   0.079   6.894   2.867
 4000TIP3    H111941   0.095   6.801   2.848
 4000TIP3    H211942   0.124   6.941   2.798
 4001TIP3   OH211943   6.438   5.546   4.036
 4001TIP3    H111944   6.431   5.538   4.131
 4001TIP3    H211945   6.495   5.474   4.010
 4002TIP3   OH211946   7.097   3.526   2.968
 4002TIP3    H111947   7.027   3.484   3.016
 4002TIP3    H211948   7.064   3.614   2.949
 4003TIP3   OH211949   4.262   0.788   0.305
 4003TIP3    H111950   4.218   0.822   0.226
 4003TIP3    H211951   4.190   0.769   0.365
 4004TIP3   OH211952   1.728   0.816   0.948
 4004TIP3    H111953   1.773   0.894   0.915
 4004TIP3    H211954   1.709   0.764   0.869
 4005TIP3   OH211955   5.654   2.273   1.607
 4005TIP3    H111956   5.648   2.319   1.691
 4005TIP3    H211957   5.726   2.211   1.620
 4006TIP3   OH211958   8.051   6.962   0.185
 4006TIP3    H111959   7.986   7.032   0.173
 4006TIP3    H211960   8.091   6.952   0.098
 4007TIP3   OH211961   4.436   7.213   5.712
 4007TIP3    H111962   4.487   7.282   5.755
 4007TIP3    H211963   4.440   7.235   5.619
 4008TIP3   OH211964   0.649   3.926   3.632
 4008TIP3    H111965   0.638   3.851   3.573
 4008TIP3    H211966   0.726   3.905   3.685
 4009TIP3   OH211967   2.274   0.552   6.310
 4009TIP3    H111968   2.206   0.520   6.369
 4009TIP3    H211969   2.325   0.474   6.288
 4010TIP3   OH211970   2.967   2.138   2.088
 4010TIP3    H111971   3.046   2.151   2.035
 4010TIP3    H211972   2.911   2.213   2.066
 4011TIP3   OH211973   4.142   1.332   1.267
 4011TIP3    H111974   4.221   1.378   1.238
 4011TIP3    H211975   4.074   1.362   1.207
 4012TIP3   OH211976   0.151   6.596   5.127
 4012TIP3    H111977   0.078   6.570   5.184
 4012TIP3    H211978   0.109   6.623   5.046
 4013TIP3   OH211979   3.485   1.107   2.219
 4013TIP3    H111980   3.394   1.081   2.235
 4013TIP3    H211981   3.487   1.129   2.126
 4014TIP3   OH211982   5.742   0.424   3.771
 4014TIP3    H111983   5.660   0.385   3.741
 4014TIP3    H211984   5.756   0.387   3.858
 4015TIP3   OH211985   3.521   3.888   2.721
 4015TIP3    H111986   3.601   3.934   2.696
 4015TIP3    H211987   3.514   3.901   2.815
 4016TIP3   OH211988   4.873   3.379   1.765
 4016TIP3    H111989   4.871   3.407   1.857
 4016TIP3    H211990   4.897   3.459   1.717
 4017TIP3   OH211991   1.767   5.181   5.407
 4017TIP3    H111992   1.695   5.167   5.469
 4017TIP3    H211993   1.728   5.168   5.321
 4018TIP3   OH211994   1.216   2.677   5.909
 4018TIP3    H111995   1.221   2.627   5.827
 4018TIP3    H211996   1.161   2.624   5.966
 4019TIP3   OH211997   3.923   0.607   1.465
 4019TIP3    H111998   3.887   0.552   1.534
 4019TIP3    H211999   3.891   0.695   1.484
 4020TIP3   OH212000   1.544   1.447   4.556
 4020TIP3    H112001   1.569   1.359   4.583
 4020TIP3    H212002   1.607   1.504   4.601
 4021TIP3   OH212003   8.123   2.429   3.524
 4021TIP3    H112004   8.071   2.430   3.443
 4021TIP3    H212005   8.213   2.444   3.495
 4022TIP3   OH212006   3.879   0.741   6.472
 4022TIP3    H112007   3.909   0.664   6.520
 4022TIP3    H212008   3.867   0.808   6.539
 4023TIP3   OH212009   3.918   0.878   3.190
 4023TIP3    H112010   3.829   0.914   3.194
 4023TIP3    H212011   3.974   0.947   3.224
 4024TIP3   OH212012   7.083   2.398   3.890
 4024TIP3    H112013   7.158   2.410   3.833
 4024TIP3    H212014   7.097   2.459   3.962
 4025TIP3   OH212015   7.958   2.102   3.296
 4025TIP3    H112016   7.939   2.114   3.203
 4025TIP3    H212017   7.873   2.088   3.337
 4026TIP3   OH212018   4.069   1.590   2.656
 4026TIP3    H112019   4.097   1.672   2.616
 4026TIP3    H212020   4.087   1.524   2.590
 4027TIP3   OH212021   5.791   0.644   3.460
 4027TIP3    H112022   5.729   0.615   3.393
 4027TIP3    H212023   5.794   0.739   3.450
 4028TIP3   OH212024   2.799   2.768   2.833
 4028TIP3    H112025   2.879   2.793   2.787
 4028TIP3    H212026   2.748   2.849   2.839
 4029TIP3   OH212027   4.317   5.358   5.640
 4029TIP3    H112028   4.246   5.397   5.690
 4029TIP3    H212029   4.397   5.387   5.685
 4030TIP3   OH212030   0.382   0.336   3.497
 4030TIP3    H112031   0.291   0.361   3.506
 4030TIP3    H212032   0.431   0.410   3.532
 4031TIP3   OH212033   7.834   7.919   1.587
 4031TIP3    H112034   7.792   7.996   1.548
 4031TIP3    H212035   7.792   7.844   1.545
 4032TIP3   OH212036   7.865   5.568   4.857
 4032TIP3    H112037   7.853   5.546   4.765
 4032TIP3    H212038   7.935   5.634   4.857
 4033TIP3   OH212039   6.788   5.058   5.984
 4033TIP3    H112040   6.854   5.061   6.054
 4033TIP3    H212041   6.838   5.072   5.904
 4034TIP3   OH212042   5.792   7.634   4.540
 4034TIP3    H112043   5.863   7.593   4.588
 4034TIP3    H212044   5.749   7.562   4.495
 4035TIP3   OH212045   0.728   6.334   2.691
 4035TIP3    H112046   0.715   6.426   2.712
 4035TIP3    H212047   0.789   6.303   2.758
 4036TIP3   OH212048   4.237   3.397   6.425
 4036TIP3    H112049   4.262   3.467   6.485
 4036TIP3    H212050   4.254   3.316   6.474
 4037TIP3   OH212051   0.844   6.580   6.203
 4037TIP3    H112052   0.763   6.630   6.192
 4037TIP3    H212053   0.879   6.609   6.287
 4038TIP3   OH212054   4.038   0.091   2.618
 4038TIP3    H112055   4.031   0.122   2.708
 4038TIP3    H212056   4.108   0.026   2.620
 4039TIP3   OH212057   1.472   0.779   3.513
 4039TIP3    H112058   1.511   0.834   3.445
 4039TIP3    H212059   1.378   0.786   3.498
 4040TIP3   OH212060   1.947   3.493   1.424
 4040TIP3    H112061   2.022   3.434   1.422
 4040TIP3    H212062   1.969   3.562   1.361
 4041TIP3   OH212063   4.926   0.251   1.317
 4041TIP3    H112064   4.892   0.212   1.398
 4041TIP3    H212065   4.877   0.333   1.308
 4042TIP3   OH212066   5.993   7.180   1.107
 4042TIP3    H112067   5.988   7.228   1.190
 4042TIP3    H212068   6.085   7.184   1.082
 4043TIP3   OH212069   7.964   0.662   2.451
 4043TIP3    H112070   7.926   0.613   2.378
 4043TIP3    H212071   7.966   0.753   2.419
 4044TIP3   OH212072   3.019   4.121   3.860
 4044TIP3    H112073   3.062   4.149   3.941
 4044TIP3    H212074   2.956   4.055   3.887
 4045TIP3   OH212075   2.926   7.132   0.916
 4045TIP3    H112076   2.926   7.040   0.944
 4045TIP3    H212077   2.835   7.159   0.926
 4046TIP3   OH212078   7.671   7.676   6.225
 4046TIP3    H112079   7.651   7.760   6.184
 4046TIP3    H212080   7.730   7.632   6.164
 4047TIP3   OH212081   6.610   0.863   0.358
 4047TIP3    H112082   6.647   0.945   0.391
 4047TIP3    H212083   6.528   0.888   0.317
 4048TIP3   OH212084   1.121   4.880   4.305
 4048TIP3    H112085   1.054   4.880   4.374
 4048TIP3    H212086   1.166   4.964   4.316
 4049TIP3   OH212087   7.581   7.853   4.120
 4049TIP3    H112088   7.648   7.904   4.165
 4049TIP3    H212089   7.508   7.915   4.108
 4050TIP3   OH212090   1.874   1.277   5.678
 4050TIP3    H112091   1.829   1.199   5.712
 4050TIP3    H212092   1.871   1.266   5.582
 4051TIP3   OH212093   1.963   2.087   1.735
 4051TIP3    H112094   2.025   2.015   1.738
 4051TIP3    H212095   1.877   2.046   1.738
 4052TIP3   OH212096   7.354   7.123   1.911
 4052TIP3    H112097   7.360   7.218   1.915
 4052TIP3    H212098   7.284   7.106   1.847
 4053TIP3   OH212099   7.091   6.478   4.004
 4053TIP3    H112100   7.065   6.570   3.997
 4053TIP3    H212101   7.108   6.465   4.097
 4054TIP3   OH212102   4.703   4.503   0.535
 4054TIP3    H112103   4.770   4.442   0.568
 4054TIP3    H212104   4.732   4.589   0.565
 4055TIP3   OH212105   1.263   7.826   1.534
 4055TIP3    H112106   1.217   7.825   1.450
 4055TIP3    H212107   1.245   7.913   1.570
 4056TIP3   OH212108   0.949   1.308   5.343
 4056TIP3    H112109   1.022   1.351   5.298
 4056TIP3    H212110   0.960   1.332   5.435
 4057TIP3   OH212111   0.590   3.000   3.394
 4057TIP3    H112112   0.636   2.937   3.449
 4057TIP3    H212113   0.530   3.045   3.454
 4058TIP3   OH212114   0.192   3.275   4.280
 4058TIP3    H112115   0.244   3.197   4.260
 4058TIP3    H212116   0.142   3.252   4.358
 4059TIP3   OH212117   1.700   5.274   4.740
 4059TIP3    H112118   1.704   5.199   4.799
 4059TIP3    H212119   1.682   5.348   4.797
 4060TIP3   OH212120   1.087   5.484   5.942
 4060TIP3    H112121   1.017   5.546   5.919
 4060TIP3    H212122   1.041   5.411   5.983
 4061TIP3   OH212123   1.178   2.304   2.186
 4061TIP3    H112124   1.133   2.341   2.262
 4061TIP3    H212125   1.224   2.378   2.147
 4062TIP3   OH212126   2.657   2.158   4.985
 4062TIP3    H112127   2.692   2.073   5.010
 4062TIP3    H212128   2.719   2.222   5.022
 4063TIP3   OH212129   6.684   2.408   0.616
 4063TIP3    H112130   6.691   2.314   0.604
 4063TIP3    H212131   6.775   2.438   0.620
 4064TIP3   OH212132   4.709   2.205   2.450
 4064TIP3    H112133   4.696   2.251   2.533
 4064TIP3    H212134   4.635   2.232   2.396
 4065TIP3   OH212135   3.427   2.007   4.028
 4065TIP3    H112136   3.471   1.976   3.949
 4065TIP3    H212137   3.396   2.095   4.006
 4066TIP3   OH212138   0.625   1.709   3.311
 4066TIP3    H112139   0.608   1.799   3.339
 4066TIP3    H212140   0.550   1.686   3.256
 4067TIP3   OH212141   5.038   2.656   4.932
 4067TIP3    H112142   5.125   2.694   4.934
 4067TIP3    H212143   4.986   2.718   4.881
 4068TIP3   OH212144   0.047   6.811   0.778
 4068TIP3    H112145   0.037   6.723   0.743
 4068TIP3    H212146  -0.006   6.812   0.857
 4069TIP3   OH212147   0.796   2.524   1.325
 4069TIP3    H112148   0.738   2.505   1.398
 4069TIP3    H212149   0.825   2.614   1.340
 4070TIP3   OH212150   4.141   3.864   0.962
 4070TIP3    H112151   4.053   3.901   0.977
 4070TIP3    H212152   4.145   3.852   0.867
 4071TIP3   OH212153   7.959   0.795   5.136
 4071TIP3    H112154   7.917   0.771   5.218
 4071TIP3    H212155   7.979   0.888   5.145
 4072TIP3   OH212156   4.850   0.866   5.048
 4072TIP3    H112157   4.791   0.901   4.981
 4072TIP3    H212158   4.916   0.934   5.061
 4073TIP3   OH212159   2.420   1.673   1.970
 4073TIP3    H112160   2.341   1.681   1.917
 4073TIP3    H212161   2.390   1.639   2.054
 4074TIP3   OH212162   7.860   0.410   1.855
 4074TIP3    H112163   7.908   0.447   1.929
 4074TIP3    H212164   7.771   0.398   1.888
 4075TIP3   OH212165   1.603   2.802   6.124
 4075TIP3    H112166   1.611   2.706   6.123
 4075TIP3    H212167   1.634   2.828   6.210
 4076TIP3   OH212168   4.895   4.781   3.028
 4076TIP3    H112169   4.877   4.696   2.988
 4076TIP3    H212170   4.989   4.782   3.041
 4077TIP3   OH212171   8.319   0.895   4.487
 4077TIP3    H112172   8.286   0.855   4.568
 4077TIP3    H212173   8.358   0.821   4.439
 4078TIP3   OH212174   1.075   4.303   4.710
 4078TIP3    H112175   1.112   4.376   4.758
 4078TIP3    H212176   1.097   4.320   4.618
 4079TIP3   OH212177   1.419   6.350   6.434
 4079TIP3    H112178   1.447   6.258   6.429
 4079TIP3    H212179   1.325   6.347   6.415
 4080TIP3   OH212180   7.070   0.075   6.362
 4080TIP3    H112181   7.119   0.073   6.280
 4080TIP3    H212182   6.982   0.104   6.337
 4081TIP3   OH212183   2.421   0.960   3.922
 4081TIP3    H112184   2.406   0.991   3.833
 4081TIP3    H212185   2.333   0.946   3.958
 4082TIP3   OH212186   3.507   0.388   1.005
 4082TIP3    H112187   3.558   0.325   0.954
 4082TIP3    H212188   3.536   0.374   1.096
 4083TIP3   OH212189   0.775   6.556   3.843
 4083TIP3    H112190   0.774   6.572   3.937
 4083TIP3    H212191   0.794   6.642   3.805
 4084TIP3   OH212192   6.565   6.604   2.762
 4084TIP3    H112193   6.654   6.590   2.795
 4084TIP3    H212194   6.514   6.531   2.799
 4085TIP3   OH212195   7.340   3.328   0.270
 4085TIP3    H112196   7.417   3.314   0.216
 4085TIP3    H212197   7.293   3.399   0.228
 4086TIP3   OH212198   2.476   6.896   2.546
 4086TIP3    H112199   2.405   6.843   2.580
 4086TIP3    H212200   2.443   6.986   2.548
 4087TIP3   OH212201   4.151   3.102   5.807
 4087TIP3    H112202   4.146   3.040   5.879
 4087TIP3    H212203   4.070   3.152   5.812
 4088TIP3   OH212204   3.513   5.934   3.265
 4088TIP3    H112205   3.524   5.885   3.346
 4088TIP3    H212206   3.418   5.937   3.251
 4089TIP3   OH212207   7.214   5.465   0.536
 4089TIP3    H112208   7.268   5.488   0.611
 4089TIP3    H212209   7.135   5.518   0.545
 4090TIP3   OH212210   1.450   6.965   0.276
 4090TIP3    H112211   1.528   6.959   0.221
 4090TIP3    H212212   1.377   6.961   0.214
 4091TIP3   OH212213   0.054   6.269   3.855
 4091TIP3    H112214   0.122   6.203   3.836
 4091TIP3    H212215   0.104   6.347   3.878
 4092TIP3   OH212216   2.920   1.037   1.925
 4092TIP3    H112217   2.978   0.993   1.988
 4092TIP3    H212218   2.930   1.130   1.945
 4093TIP3   OH212219   1.293   6.726   0.669
 4093TIP3    H112220   1.276   6.745   0.761
 4093TIP3    H212221   1.252   6.798   0.621
 4094TIP3   OH212222   3.420   3.961   4.019
 4094TIP3    H112223   3.440   4.055   4.019
 4094TIP3    H212224   3.330   3.956   4.052
 4095TIP3   OH212225   2.714   5.033   4.721
 4095TIP3    H112226   2.752   5.096   4.782
 4095TIP3    H212227   2.782   4.967   4.708
 4096TIP3   OH212228   4.879   1.109   6.135
 4096TIP3    H112229   4.786   1.132   6.132
 4096TIP3    H212230   4.893   1.080   6.226
 4097TIP3   OH212231   6.156   5.923   5.905
 4097TIP3    H112232   6.086   5.952   5.846
 4097TIP3    H212233   6.236   5.958   5.867
 4098TIP3   OH212234   7.411   5.987   6.436
 4098TIP3    H112235   7.369   5.966   6.353
 4098TIP3    H212236   7.370   5.928   6.499
 4099TIP3   OH212237   5.200   7.063   4.461
 4099TIP3    H112238   5.127   7.033   4.408
 4099TIP3    H212239   5.227   6.987   4.512
 4100TIP3   OH212240   3.502   5.028   4.863
 4100TIP3    H112241   3.569   5.050   4.798
 4100TIP3    H212242   3.471   5.113   4.894
 4101TIP3   OH212243   2.801   2.212   0.711
 4101TIP3    H112244   2.811   2.227   0.805
 4101TIP3    H212245   2.825   2.120   0.699
 4102TIP3   OH212246   0.534   5.211   6.828
 4102TIP3    H112247   0.444   5.234   6.805
 4102TIP3    H212248   0.550   5.129   6.781
 4103TIP3   OH212249   7.782   0.114   3.807
 4103TIP3    H112250   7.708   0.174   3.807
 4103TIP3    H212251   7.830   0.135   3.888
 4104TIP3   OH212252   6.420   1.899   0.337
 4104TIP3    H112253   6.331   1.878   0.308
 4104TIP3    H212254   6.419   1.884   0.431
 4105TIP3   OH212255   1.094   6.164   0.731
 4105TIP3    H112256   1.086   6.076   0.695
 4105TIP3    H212257   1.138   6.151   0.815
 4106TIP3   OH212258   5.361   2.555   0.137
 4106TIP3    H112259   5.441   2.599   0.164
 4106TIP3    H212260   5.377   2.528   0.047
 4107TIP3   OH212261   8.182   1.657   5.356
 4107TIP3    H112262   8.221   1.678   5.441
 4107TIP3    H212263   8.241   1.592   5.319
 4108TIP3   OH212264   7.673   2.316   4.888
 4108TIP3    H112265   7.707   2.405   4.881
 4108TIP3    H212266   7.594   2.324   4.941
 4109TIP3   OH212267   2.584   6.118   2.603
 4109TIP3    H112268   2.628   6.199   2.577
 4109TIP3    H212269   2.541   6.088   2.523
 4110TIP3   OH212270   3.767   3.506   2.560
 4110TIP3    H112271   3.739   3.538   2.646
 4110TIP3    H212272   3.691   3.520   2.503
 4111TIP3   OH212273   5.293   5.595   5.534
 4111TIP3    H112274   5.265   5.640   5.614
 4111TIP3    H212275   5.338   5.663   5.483
 4112TIP3   OH212276   5.567   2.069   6.227
 4112TIP3    H112277   5.538   2.086   6.317
 4112TIP3    H212278   5.518   2.133   6.174
 4113TIP3   OH212279   3.976   5.841   3.629
 4113TIP3    H112280   4.071   5.835   3.617
 4113TIP3    H212281   3.957   5.781   3.702
 4114TIP3   OH212282   4.369   3.365   3.766
 4114TIP3    H112283   4.354   3.328   3.853
 4114TIP3    H212284   4.284   3.397   3.738
 4115TIP3   OH212285   3.160   1.296   0.617
 4115TIP3    H112286   3.240   1.252   0.645
 4115TIP3    H212287   3.119   1.234   0.557
 4116TIP3   OH212288   4.444   5.692   2.817
 4116TIP3    H112289   4.387   5.746   2.871
 4116TIP3    H212290   4.527   5.740   2.813
 4117TIP3   OH212291   1.128   3.694   1.001
 4117TIP3    H112292   1.056   3.636   1.027
 4117TIP3    H212293   1.207   3.648   1.027
 4118TIP3   OH212294   0.054   6.291   4.392
 4118TIP3    H112295   0.121   6.330   4.449
 4118TIP3    H212296   0.092   6.295   4.304
 4119TIP3   OH212297   8.246   2.048   2.143
 4119TIP3    H112298   8.285   1.976   2.093
 4119TIP3    H212299   8.249   2.123   2.084
 4120TIP3   OH212300   8.206   2.889   6.524
 4120TIP3    H112301   8.150   2.960   6.558
 4120TIP3    H212302   8.231   2.919   6.437
 4121TIP3   OH212303   8.052   1.620   0.111
 4121TIP3    H112304   8.115   1.562   0.153
 4121TIP3    H212305   8.076   1.618   0.018
 4122TIP3   OH212306   4.841   1.085   2.725
 4122TIP3    H112307   4.776   1.015   2.722
 4122TIP3    H212308   4.827   1.135   2.644
 4123TIP3   OH212309   1.549   1.138   4.372
 4123TIP3    H112310   1.563   1.232   4.363
 4123TIP3    H212311   1.619   1.108   4.430
 4124TIP3   OH212312   1.609   0.606   2.932
 4124TIP3    H112313   1.662   0.526   2.934
 4124TIP3    H212314   1.671   0.676   2.956
 4125TIP3   OH212315   3.004   0.708   1.498
 4125TIP3    H112316   2.986   0.676   1.586
 4125TIP3    H212317   3.094   0.680   1.480
 4126TIP3   OH212318   0.048   2.220   1.729
 4126TIP3    H112319  -0.019   2.286   1.711
 4126TIP3    H212320   0.131   2.264   1.714
 4127TIP3   OH212321   4.405   5.358   0.222
 4127TIP3    H112322   4.421   5.362   0.316
 4127TIP3    H212323   4.489   5.383   0.183
 4128TIP3   OH212324   3.721   6.733   3.464
 4128TIP3    H112325   3.692   6.682   3.388
 4128TIP3    H212326   3.776   6.802   3.428
 4129TIP3   OH212327   4.957   4.382   0.236
 4129TIP3    H112328   5.037   4.348   0.196
 4129TIP3    H212329   4.969   4.477   0.238
 4130TIP3   OH212330   0.058   5.400   4.031
 4130TIP3    H112331   0.133   5.353   4.067
 4130TIP3    H212332   0.005   5.424   4.107
 4131TIP3   OH212333   1.500   6.858   1.050
 4131TIP3    H112334   1.473   6.767   1.066
 4131TIP3    H212335   1.531   6.859   0.960
 4132TIP3   OH212336   7.743   1.229   5.543
 4132TIP3    H112337   7.748   1.306   5.600
 4132TIP3    H212338   7.773   1.156   5.597
 4133TIP3   OH212339   8.180   3.946   6.336
 4133TIP3    H112340   8.241   4.010   6.298
 4133TIP3    H212341   8.140   3.903   6.260
 4134TIP3   OH212342   0.976   3.064   3.455
 4134TIP3    H112343   0.899   3.120   3.463
 4134TIP3    H212344   0.944   2.976   3.476
 4135TIP3   OH212345   6.612   7.393   6.428
 4135TIP3    H112346   6.575   7.322   6.375
 4135TIP3    H212347   6.623   7.355   6.515
 4136TIP3   OH212348   3.320   2.003   4.347
 4136TIP3    H112349   3.328   2.094   4.318
 4136TIP3    H212350   3.323   2.009   4.443
 4137TIP3   OH212351   4.030   4.953   5.086
 4137TIP3    H112352   3.939   4.979   5.098
 4137TIP3    H212353   4.081   5.032   5.107
 4138TIP3   OH212354   7.496   4.242   0.907
 4138TIP3    H112355   7.442   4.320   0.921
 4138TIP3    H212356   7.586   4.275   0.907
 4139TIP3   OH212357   6.918   2.562   4.688
 4139TIP3    H112358   7.002   2.544   4.730
 4139TIP3    H212359   6.889   2.476   4.655
 4140TIP3   OH212360   2.682   7.026   4.842
 4140TIP3    H112361   2.606   7.065   4.886
 4140TIP3    H212362   2.665   6.932   4.845
 4141TIP3   OH212363   1.838   0.274   1.106
 4141TIP3    H112364   1.872   0.224   1.180
 4141TIP3    H212365   1.878   0.233   1.029
 4142TIP3   OH212366   5.771   3.157   6.503
 4142TIP3    H112367   5.800   3.236   6.549
 4142TIP3    H212368   5.849   3.127   6.457
 4143TIP3   OH212369   3.233   5.696   1.124
 4143TIP3    H112370   3.262   5.788   1.123
 4143TIP3    H212371   3.182   5.689   1.205
 4144TIP3   OH212372   5.165   3.991   1.037
 4144TIP3    H112373   5.239   4.034   1.079
 4144TIP3    H212374   5.198   3.965   0.951
 4145TIP3   OH212375   1.995   5.423   2.349
 4145TIP3    H112376   2.076   5.464   2.381
 4145TIP3    H212377   1.971   5.474   2.272
 4146TIP3   OH212378   0.307   0.225   4.754
 4146TIP3    H112379   0.220   0.222   4.715
 4146TIP3    H212380   0.328   0.134   4.772
 4147TIP3   OH212381   0.093   1.626   3.367
 4147TIP3    H112382   0.054   1.712   3.352
 4147TIP3    H212383   0.032   1.564   3.327
 4148TIP3   OH212384   5.113   6.015   4.519
 4148TIP3    H112385   5.055   5.942   4.500
 4148TIP3    H212386   5.105   6.073   4.443
 4149TIP3   OH212387   3.497   3.242   1.964
 4149TIP3    H112388   3.496   3.332   1.933
 4149TIP3    H212389   3.542   3.247   2.048
 4150TIP3   OH212390   2.214   3.383   6.120
 4150TIP3    H112391   2.258   3.363   6.037
 4150TIP3    H212392   2.159   3.458   6.100
 4151TIP3   OH212393   0.685   6.847   4.583
 4151TIP3    H112394   0.737   6.865   4.661
 4151TIP3    H212395   0.750   6.832   4.514
 4152TIP3   OH212396   8.279   3.263   4.031
 4152TIP3    H112397   8.356   3.209   4.014
 4152TIP3    H212398   8.231   3.264   3.948
 4153TIP3   OH212399   2.789   1.286   1.112
 4153TIP3    H112400   2.864   1.338   1.082
 4153TIP3    H212401   2.722   1.300   1.045
 4154TIP3   OH212402   2.927   4.397   3.978
 4154TIP3    H112403   3.004   4.358   4.020
 4154TIP3    H212404   2.882   4.442   4.049
 4155TIP3   OH212405   1.403   4.056   5.648
 4155TIP3    H112406   1.446   4.003   5.580
 4155TIP3    H212407   1.331   4.001   5.679
 4156TIP3   OH212408   5.445   2.529   1.308
 4156TIP3    H112409   5.371   2.544   1.250
 4156TIP3    H212410   5.411   2.468   1.374
 4157TIP3   OH212411   0.602   6.178   5.233
 4157TIP3    H112412   0.622   6.268   5.209
 4157TIP3    H212413   0.541   6.185   5.306
 4158TIP3   OH212414   2.318   6.687   4.195
 4158TIP3    H112415   2.284   6.637   4.269
 4158TIP3    H212416   2.245   6.743   4.168
 4159TIP3   OH212417   3.018   6.685   2.214
 4159TIP3    H112418   3.067   6.724   2.141
 4159TIP3    H212419   3.079   6.687   2.288
 4160TIP3   OH212420   0.472   7.023   0.436
 4160TIP3    H112421   0.499   7.102   0.483
 4160TIP3    H212422   0.380   7.039   0.415
 4161TIP3   OH212423   2.012   5.709   5.385
 4161TIP3    H112424   2.084   5.714   5.448
 4161TIP3    H212425   2.020   5.790   5.333
 4162TIP3   OH212426   5.726   2.154   1.204
 4162TIP3    H112427   5.720   2.116   1.292
 4162TIP3    H212428   5.676   2.095   1.149
 4163TIP3   OH212429   1.400   7.453   1.863
 4163TIP3    H112430   1.386   7.548   1.864
 4163TIP3    H212431   1.345   7.422   1.792
 4164TIP3   OH212432   0.352   0.880   0.734
 4164TIP3    H112433   0.333   0.786   0.742
 4164TIP3    H212434   0.412   0.886   0.660
 4165TIP3   OH212435   4.660   3.040   6.485
 4165TIP3    H112436   4.601   3.088   6.543
 4165TIP3    H212437   4.612   3.033   6.403
 4166TIP3   OH212438   2.159   6.133   6.350
 4166TIP3    H112439   2.248   6.117   6.319
 4166TIP3    H212440   2.149   6.076   6.427
 4167TIP3   OH212441   3.371   6.225   6.047
 4167TIP3    H112442   3.457   6.252   6.015
 4167TIP3    H212443   3.319   6.305   6.046
 4168TIP3   OH212444   7.207   3.637   0.796
 4168TIP3    H112445   7.301   3.632   0.812
 4168TIP3    H212446   7.168   3.589   0.870
 4169TIP3   OH212447   1.654   4.372   0.265
 4169TIP3    H112448   1.666   4.461   0.232
 4169TIP3    H212449   1.568   4.346   0.234
 4170TIP3   OH212450   2.608   4.553   4.853
 4170TIP3    H112451   2.567   4.619   4.909
 4170TIP3    H212452   2.536   4.496   4.827
 4171TIP3   OH212453   8.111   5.445   4.449
 4171TIP3    H112454   8.059   5.367   4.467
 4171TIP3    H212455   8.197   5.426   4.489
 4172TIP3   OH212456   2.477   5.733   4.990
 4172TIP3    H112457   2.515   5.743   5.078
 4172TIP3    H212458   2.471   5.822   4.956
 4173TIP3   OH212459   8.094   1.662   6.620
 4173TIP3    H112460   8.153   1.670   6.544
 4173TIP3    H212461   8.006   1.657   6.582
 4174TIP3   OH212462   1.310   5.084   3.040
 4174TIP3    H112463   1.263   5.149   2.988
 4174TIP3    H212464   1.247   5.057   3.107
 4175TIP3   OH212465   1.980   0.484   6.322
 4175TIP3    H112466   2.024   0.471   6.239
 4175TIP3    H212467   1.986   0.399   6.366
 4176TIP3   OH212468   4.025   2.484   0.559
 4176TIP3    H112469   3.995   2.417   0.621
 4176TIP3    H212470   3.947   2.506   0.508
 4177TIP3   OH212471   6.058   7.609   1.092
 4177TIP3    H112472   5.993   7.563   1.039
 4177TIP3    H212473   6.092   7.543   1.152
 4178TIP3   OH212474   4.761   0.575   0.911
 4178TIP3    H112475   4.754   0.541   1.000
 4178TIP3    H212476   4.710   0.514   0.858
 4179TIP3   OH212477   0.482   7.266   1.870
 4179TIP3    H112478   0.523   7.263   1.956
 4179TIP3    H212479   0.459   7.358   1.857
 4180TIP3   OH212480   0.645   0.036   1.333
 4180TIP3    H112481   0.584  -0.038   1.330
 4180TIP3    H212482   0.644   0.065   1.424
 4181TIP3   OH212483   7.062   7.153   1.202
 4181TIP3    H112484   6.972   7.168   1.174
 4181TIP3    H212485   7.063   7.181   1.294
 4182TIP3   OH212486   7.218   4.465   5.851
 4182TIP3    H112487   7.310   4.438   5.851
 4182TIP3    H212488   7.172   4.394   5.807
 4183TIP3   OH212489   7.621   3.644   0.277
 4183TIP3    H112490   7.695   3.585   0.292
 4183TIP3    H212491   7.657   3.714   0.222
 4184TIP3   OH212492   0.241   3.776   5.558
 4184TIP3    H112493   0.252   3.703   5.618
 4184TIP3    H212494   0.252   3.854   5.612
 4185TIP3   OH212495   7.146   4.265   0.790
 4185TIP3    H112496   7.145   4.233   0.700
 4185TIP3    H212497   7.192   4.197   0.840
 4186TIP3   OH212498   0.556   1.754   1.056
 4186TIP3    H112499   0.467   1.755   1.022
 4186TIP3    H212500   0.566   1.667   1.094
 4187TIP3   OH212501   4.638   1.228   6.078
 4187TIP3    H112502   4.638   1.270   5.992
 4187TIP3    H212503   4.668   1.297   6.138
 4188TIP3   OH212504   0.834   3.606   0.833
 4188TIP3    H112505   0.866   3.609   0.743
 4188TIP3    H212506   0.808   3.696   0.852
 4189TIP3   OH212507   1.384   4.306   6.026
 4189TIP3    H112508   1.475   4.311   6.057
 4189TIP3    H212509   1.389   4.328   5.933
 4190TIP3   OH212510   6.074   5.075   3.269
 4190TIP3    H112511   5.985   5.060   3.236
 4190TIP3    H212512   6.072   5.044   3.359
 4191TIP3   OH212513   0.900   6.545   0.371
 4191TIP3    H112514   0.890   6.450   0.364
 4191TIP3    H212515   0.903   6.576   0.281
 4192TIP3   OH212516   0.815   2.345   0.245
 4192TIP3    H112517   0.810   2.249   0.240
 4192TIP3    H212518   0.905   2.363   0.272
 4193TIP3   OH212519   0.304   5.351   2.676
 4193TIP3    H112520   0.398   5.352   2.659
 4193TIP3    H212521   0.284   5.440   2.704
 4194TIP3   OH212522   7.413   6.034   5.372
 4194TIP3    H112523   7.450   6.045   5.284
 4194TIP3    H212524   7.470   6.088   5.428
 4195TIP3   OH212525   6.952   6.864   5.389
 4195TIP3    H112526   6.970   6.892   5.299
 4195TIP3    H212527   7.033   6.820   5.417
 4196TIP3   OH212528   1.953   2.577   2.901
 4196TIP3    H112529   2.002   2.498   2.877
 4196TIP3    H212530   1.862   2.556   2.880
 4197TIP3   OH212531   1.361   4.463   2.465
 4197TIP3    H112532   1.267   4.460   2.447
 4197TIP3    H212533   1.377   4.389   2.523
 4198TIP3   OH212534   5.072   3.165   1.130
 4198TIP3    H112535   5.120   3.247   1.112
 4198TIP3    H212536   5.082   3.114   1.050
 4199TIP3   OH212537   5.633   3.381   5.709
 4199TIP3    H112538   5.679   3.395   5.626
 4199TIP3    H212539   5.621   3.286   5.713
 4200TIP3   OH212540   3.519   7.942   0.840
 4200TIP3    H112541   3.538   7.922   0.749
 4200TIP3    H212542   3.474   7.865   0.873
 4201TIP3   OH212543   0.122   2.205   3.061
 4201TIP3    H112544   0.135   2.290   3.019
 4201TIP3    H212545   0.084   2.225   3.146
 4202TIP3   OH212546   0.802   6.525   1.328
 4202TIP3    H112547   0.707   6.531   1.338
 4202TIP3    H212548   0.820   6.432   1.318
 4203TIP3   OH212549   3.943   4.060   4.086
 4203TIP3    H112550   3.858   4.025   4.059
 4203TIP3    H212551   3.971   4.003   4.158
 4204TIP3   OH212552   2.022   3.345   1.890
 4204TIP3    H112553   2.027   3.437   1.866
 4204TIP3    H212554   2.108   3.309   1.869
 4205TIP3   OH212555   6.242   0.017   1.198
 4205TIP3    H112556   6.243  -0.022   1.111
 4205TIP3    H212557   6.151   0.014   1.226
 4206TIP3   OH212558   2.573   5.739   4.320
 4206TIP3    H112559   2.577   5.645   4.305
 4206TIP3    H212560   2.664   5.765   4.334
 4207TIP3   OH212561   5.134   5.431   2.730
 4207TIP3    H112562   5.204   5.496   2.735
 4207TIP3    H212563   5.097   5.429   2.818
 4208TIP3   OH212564   2.384   5.406   4.508
 4208TIP3    H112565   2.319   5.448   4.451
 4208TIP3    H212566   2.335   5.336   4.552
 4209TIP3   OH212567   0.458   6.312   0.736
 4209TIP3    H112568   0.439   6.305   0.643
 4209TIP3    H212569   0.446   6.405   0.756
 4210TIP3   OH212570   6.776   5.117   5.419
 4210TIP3    H112571   6.800   5.206   5.393
 4210TIP3    H212572   6.843   5.092   5.482
 4211TIP3   OH212573   6.738   6.984   4.265
 4211TIP3    H112574   6.708   6.893   4.259
 4211TIP3    H212575   6.823   6.979   4.307
 4212TIP3   OH212576   5.051   2.456   0.779
 4212TIP3    H112577   4.982   2.398   0.746
 4212TIP3    H212578   5.104   2.400   0.836
 4213TIP3   OH212579   2.648   5.632   0.115
 4213TIP3    H112580   2.646   5.708   0.058
 4213TIP3    H212581   2.693   5.565   0.064
 4214TIP3   OH212582   1.226   2.685   5.552
 4214TIP3    H112583   1.279   2.614   5.588
 4214TIP3    H212584   1.150   2.642   5.514
 4215TIP3   OH212585   7.629   7.362   5.940
 4215TIP3    H112586   7.640   7.342   5.847
 4215TIP3    H212587   7.707   7.412   5.963
 4216TIP3   OH212588   0.973   2.063   3.422
 4216TIP3    H112589   1.051   2.117   3.435
 4216TIP3    H212590   0.906   2.124   3.391
 4217TIP3   OH212591   3.138   7.049   1.777
 4217TIP3    H112592   3.066   7.066   1.716
 4217TIP3    H212593   3.209   7.017   1.721
 4218TIP3   OH212594   6.243   3.996   4.381
 4218TIP3    H112595   6.279   3.913   4.349
 4218TIP3    H212596   6.318   4.042   4.418
 4219TIP3   OH212597   4.420   2.812   6.658
 4219TIP3    H112598   4.464   2.876   6.713
 4219TIP3    H212599   4.388   2.862   6.583
 4220TIP3   OH212600   0.836   0.740   5.841
 4220TIP3    H112601   0.925   0.752   5.873
 4220TIP3    H212602   0.837   0.654   5.798
 4221TIP3   OH212603   8.172   0.202   3.169
 4221TIP3    H112604   8.247   0.163   3.124
 4221TIP3    H212605   8.155   0.145   3.244
 4222TIP3   OH212606   7.338   1.587   6.030
 4222TIP3    H112607   7.263   1.545   5.989
 4222TIP3    H212608   7.405   1.519   6.032
 4223TIP3   OH212609   0.792   1.809   0.954
 4223TIP3    H112610   0.710   1.776   0.992
 4223TIP3    H212611   0.822   1.739   0.897
 4224TIP3   OH212612   5.316   0.777   2.007
 4224TIP3    H112613   5.335   0.689   1.975
 4224TIP3    H212614   5.278   0.822   1.931
 4225TIP3   OH212615   1.784   5.208   5.101
 4225TIP3    H112616   1.840   5.138   5.066
 4225TIP3    H212617   1.832   5.288   5.082
 4226TIP3   OH212618   5.796   5.246   2.190
 4226TIP3    H112619   5.728   5.308   2.220
 4226TIP3    H212620   5.785   5.243   2.095
 4227TIP3   OH212621   8.176   5.715   0.221
 4227TIP3    H112622   8.103   5.746   0.274
 4227TIP3    H212623   8.169   5.764   0.139
 4228TIP3   OH212624   2.343   1.049   0.321
 4228TIP3    H112625   2.385   1.011   0.399
 4228TIP3    H212626   2.346   1.143   0.336
 4229TIP3   OH212627   6.537   4.222   2.022
 4229TIP3    H112628   6.591   4.293   2.057
 4229TIP3    H212629   6.464   4.214   2.084
 4230TIP3   OH212630   4.571   0.041   2.512
 4230TIP3    H112631   4.510  -0.027   2.539
 4230TIP3    H212632   4.571   0.037   2.416
 4231TIP3   OH212633   3.374   4.705   5.772
 4231TIP3    H112634   3.452   4.658   5.744
 4231TIP3    H212635   3.301   4.654   5.738
 4232TIP3   OH212636   6.453   4.503   6.620
 4232TIP3    H112637   6.539   4.528   6.586
 4232TIP3    H212638   6.396   4.577   6.601
 4233TIP3   OH212639   5.314   2.904   3.002
 4233TIP3    H112640   5.288   2.813   3.017
 4233TIP3    H212641   5.409   2.904   3.015
 4234TIP3   OH212642   7.713   1.430   5.725
 4234TIP3    H112643   7.774   1.502   5.710
 4234TIP3    H212644   7.627   1.472   5.733
 4235TIP3   OH212645   6.737   2.971   1.971
 4235TIP3    H112646   6.671   2.964   1.902
 4235TIP3    H212647   6.805   3.027   1.935
 4236TIP3   OH212648   3.183   6.597   1.157
 4236TIP3    H112649   3.168   6.519   1.102
 4236TIP3    H212650   3.263   6.577   1.204
 4237TIP3   OH212651   5.633   3.860   0.636
 4237TIP3    H112652   5.670   3.786   0.589
 4237TIP3    H212653   5.683   3.864   0.718
 4238TIP3   OH212654   7.238   1.334   2.115
 4238TIP3    H112655   7.234   1.387   2.036
 4238TIP3    H212656   7.286   1.387   2.178
 4239TIP3   OH212657   5.857   2.605   4.174
 4239TIP3    H112658   5.782   2.620   4.116
 4239TIP3    H212659   5.861   2.510   4.184
 4240TIP3   OH212660   3.798   4.790   6.253
 4240TIP3    H112661   3.812   4.868   6.308
 4240TIP3    H212662   3.756   4.727   6.312
 4241TIP3   OH212663   1.485   7.162   4.839
 4241TIP3    H112664   1.556   7.097   4.845
 4241TIP3    H212665   1.460   7.161   4.747
 4242TIP3   OH212666   7.326   6.607   2.224
 4242TIP3    H112667   7.340   6.555   2.145
 4242TIP3    H212668   7.361   6.693   2.202
 4243TIP3   OH212669   2.456   0.697   3.689
 4243TIP3    H112670   2.430   0.709   3.597
 4243TIP3    H212671   2.381   0.730   3.739
 4244TIP3   OH212672   7.071   0.892   0.124
 4244TIP3    H112673   7.070   0.936   0.208
 4244TIP3    H212674   7.104   0.804   0.144
 4245TIP3   OH212675   3.057   6.378   5.388
 4245TIP3    H112676   3.100   6.351   5.307
 4245TIP3    H212677   3.077   6.307   5.450
 4246TIP3   OH212678   3.103   2.486   3.923
 4246TIP3    H112679   3.048   2.412   3.898
 4246TIP3    H212680   3.065   2.561   3.879
 4247TIP3   OH212681   0.860   0.614   0.425
 4247TIP3    H112682   0.789   0.568   0.380
 4247TIP3    H212683   0.910   0.545   0.469
 4248TIP3   OH212684   6.949   2.713   1.025
 4248TIP3    H112685   7.012   2.642   1.034
 4248TIP3    H212686   6.933   2.721   0.931
 4249TIP3   OH212687   1.823   3.001   0.750
 4249TIP3    H112688   1.874   2.951   0.813
 4249TIP3    H212689   1.738   2.956   0.745
 4250TIP3   OH212690   7.280   6.796   2.465
 4250TIP3    H112691   7.253   6.732   2.399
 4250TIP3    H212692   7.360   6.760   2.503
 4251TIP3   OH212693   4.877   1.888   4.507
 4251TIP3    H112694   4.942   1.828   4.469
 4251TIP3    H212695   4.809   1.831   4.541
 4252TIP3   OH212696   1.493   0.014   6.499
 4252TIP3    H112697   1.467   0.105   6.512
 4252TIP3    H212698   1.571   0.003   6.553
 4253TIP3   OH212699   4.856   4.180   5.215
 4253TIP3    H112700   4.902   4.207   5.295
 4253TIP3    H212701   4.775   4.230   5.215
 4254TIP3   OH212702   7.967   5.106   4.124
 4254TIP3    H112703   8.045   5.057   4.149
 4254TIP3    H212704   7.999   5.176   4.067
 4255TIP3   OH212705   0.845   7.604   6.319
 4255TIP3    H112706   0.765   7.552   6.321
 4255TIP3    H212707   0.912   7.543   6.287
 4256TIP3   OH212708   3.430   4.819   6.503
 4256TIP3    H112709   3.510   4.871   6.496
 4256TIP3    H212710   3.370   4.860   6.441
 4257TIP3   OH212711   4.305   4.817   0.167
 4257TIP3    H112712   4.274   4.737   0.209
 4257TIP3    H212713   4.396   4.798   0.144
 4258TIP3   OH212714   1.500   5.716   1.771
 4258TIP3    H112715   1.506   5.674   1.685
 4258TIP3    H212716   1.590   5.724   1.800
 4259TIP3   OH212717   1.624   1.540   5.389
 4259TIP3    H112718   1.712   1.574   5.399
 4259TIP3    H212719   1.625   1.456   5.435
 4260TIP3   OH212720   4.903   7.353   6.708
 4260TIP3    H112721   4.949   7.277   6.671
 4260TIP3    H212722   4.812   7.325   6.716
 4261TIP3   OH212723   1.927   1.793   3.988
 4261TIP3    H112724   2.001   1.783   3.927
 4261TIP3    H212725   1.929   1.713   4.041
 4262TIP3   OH212726   6.373   5.656   1.215
 4262TIP3    H112727   6.391   5.639   1.307
 4262TIP3    H212728   6.436   5.600   1.168
 4263TIP3   OH212729   4.676   7.196   2.107
 4263TIP3    H112730   4.691   7.282   2.069
 4263TIP3    H212731   4.595   7.165   2.066
 4264TIP3   OH212732   3.282   3.064   1.918
 4264TIP3    H112733   3.282   3.066   1.822
 4264TIP3    H212734   3.355   3.121   1.943
 4265TIP3   OH212735   0.788   4.128   1.377
 4265TIP3    H112736   0.805   4.121   1.471
 4265TIP3    H212737   0.849   4.067   1.337
 4266TIP3   OH212738   3.486   6.453   6.474
 4266TIP3    H112739   3.575   6.488   6.473
 4266TIP3    H212740   3.433   6.523   6.436
 4267TIP3   OH212741   4.820   4.192   6.728
 4267TIP3    H112742   4.889   4.130   6.751
 4267TIP3    H212743   4.794   4.231   6.812
 4268TIP3   OH212744   7.026   4.235   0.268
 4268TIP3    H112745   7.019   4.320   0.225
 4268TIP3    H212746   6.965   4.240   0.341
 4269TIP3   OH212747   5.934   6.285   4.011
 4269TIP3    H112748   5.839   6.294   4.015
 4269TIP3    H212749   5.958   6.238   4.091
 4270TIP3   OH212750   3.432   7.238   1.091
 4270TIP3    H112751   3.337   7.237   1.100
 4270TIP3    H212752   3.449   7.203   1.004
 4271TIP3   OH212753   3.526   0.189   5.500
 4271TIP3    H112754   3.439   0.150   5.498
 4271TIP3    H212755   3.564   0.160   5.583
 4272TIP3   OH212756   2.044   2.443   5.037
 4272TIP3    H112757   1.951   2.436   5.059
 4272TIP3    H212758   2.089   2.438   5.121
 4273TIP3   OH212759   8.419   6.928   3.133
 4273TIP3    H112760   8.327   6.903   3.120
 4273TIP3    H212761   8.449   6.956   3.047
 4274TIP3   OH212762   8.125   6.190   0.177
 4274TIP3    H112763   8.122   6.283   0.152
 4274TIP3    H212764   8.099   6.143   0.097
 4275TIP3   OH212765   8.305   7.231   5.732
 4275TIP3    H112766   8.372   7.170   5.764
 4275TIP3    H212767   8.354   7.310   5.710
 4276TIP3   OH212768   2.627   1.879   5.595
 4276TIP3    H112769   2.541   1.838   5.599
 4276TIP3    H212770   2.685   1.811   5.559
 4277TIP3   OH212771   5.268   4.692   4.443
 4277TIP3    H112772   5.354   4.727   4.465
 4277TIP3    H212773   5.286   4.607   4.402
 4278TIP3   OH212774   5.080   2.183   5.893
 4278TIP3    H112775   5.001   2.128   5.894
 4278TIP3    H212776   5.135   2.147   5.962
 4279TIP3   OH212777   7.278   3.128   0.728
 4279TIP3    H112778   7.214   3.069   0.769
 4279TIP3    H212779   7.314   3.078   0.655
 4280TIP3   OH212780   0.273   5.867   0.932
 4280TIP3    H112781   0.281   5.962   0.925
 4280TIP3    H212782   0.306   5.833   0.848
 4281TIP3   OH212783   7.817   7.587   6.622
 4281TIP3    H112784   7.841   7.494   6.618
 4281TIP3    H212785   7.734   7.592   6.574
 4282TIP3   OH212786   3.301   6.230   3.407
 4282TIP3    H112787   3.389   6.264   3.393
 4282TIP3    H212788   3.244   6.307   3.402
 4283TIP3   OH212789   3.738   6.742   2.076
 4283TIP3    H112790   3.741   6.829   2.037
 4283TIP3    H212791   3.801   6.746   2.148
 4284TIP3   OH212792   6.022   6.558   6.755
 4284TIP3    H112793   5.991   6.631   6.807
 4284TIP3    H212794   5.946   6.499   6.749
 4285TIP3   OH212795   5.516   5.938   4.139
 4285TIP3    H112796   5.600   5.933   4.095
 4285TIP3    H212797   5.535   5.915   4.230
 4286TIP3   OH212798   7.363   1.786   1.894
 4286TIP3    H112799   7.416   1.707   1.889
 4286TIP3    H212800   7.422   1.854   1.925
 4287TIP3   OH212801   3.871   5.695   5.171
 4287TIP3    H112802   3.890   5.684   5.264
 4287TIP3    H212803   3.806   5.765   5.167
 4288TIP3   OH212804   4.125   4.982   6.824
 4288TIP3    H112805   4.103   4.893   6.795
 4288TIP3    H212806   4.044   5.031   6.813
 4289TIP3   OH212807   5.635   1.267   4.188
 4289TIP3    H112808   5.562   1.325   4.165
 4289TIP3    H212809   5.703   1.325   4.222
 4290TIP3   OH212810   4.993   1.373   6.069
 4290TIP3    H112811   4.962   1.282   6.064
 4290TIP3    H212812   5.019   1.384   6.161
 4291TIP3   OH212813   3.822   3.152   5.314
 4291TIP3    H112814   3.905   3.143   5.361
 4291TIP3    H212815   3.839   3.116   5.227
 4292TIP3   OH212816   0.708   4.184   6.072
 4292TIP3    H112817   0.759   4.197   6.151
 4292TIP3    H212818   0.621   4.160   6.103
 4293TIP3   OH212819   1.176   7.051   6.419
 4293TIP3    H112820   1.094   7.044   6.370
 4293TIP3    H212821   1.164   6.992   6.494
 4294TIP3   OH212822   6.160   6.248   5.784
 4294TIP3    H112823   6.144   6.311   5.714
 4294TIP3    H212824   6.205   6.175   5.741
 4295TIP3   OH212825   5.701   3.881   1.879
 4295TIP3    H112826   5.745   3.818   1.936
 4295TIP3    H212827   5.692   3.960   1.934
 4296TIP3   OH212828   0.476   5.656   5.612
 4296TIP3    H112829   0.551   5.674   5.556
 4296TIP3    H212830   0.411   5.722   5.587
 4297TIP3   OH212831   2.512   2.811   4.147
 4297TIP3    H112832   2.569   2.835   4.074
 4297TIP3    H212833   2.537   2.872   4.217
 4298TIP3   OH212834   7.688   6.284   1.057
 4298TIP3    H112835   7.598   6.318   1.057
 4298TIP3    H212836   7.678   6.192   1.032
 4299TIP3   OH212837   1.670   7.376   3.660
 4299TIP3    H112838   1.718   7.371   3.577
 4299TIP3    H212839   1.578   7.372   3.635
 4300TIP3   OH212840   0.491   7.768   2.080
 4300TIP3    H112841   0.482   7.863   2.095
 4300TIP3    H212842   0.417   7.730   2.128
 4301TIP3   OH212843   7.870   1.566   1.887
 4301TIP3    H112844   7.850   1.656   1.912
 4301TIP3    H212845   7.846   1.514   1.963
 4302TIP3   OH212846   7.158   6.350   1.417
 4302TIP3    H112847   7.232   6.374   1.472
 4302TIP3    H212848   7.197   6.331   1.331
 4303TIP3   OH212849   0.021   2.402   0.686
 4303TIP3    H112850   0.082   2.457   0.735
 4303TIP3    H212851   0.055   2.403   0.596
 4304TIP3   OH212852   3.386   5.466   3.285
 4304TIP3    H112853   3.405   5.373   3.293
 4304TIP3    H212854   3.406   5.502   3.371
 4305TIP3   OH212855   3.577   3.848   1.341
 4305TIP3    H112856   3.514   3.872   1.273
 4305TIP3    H212857   3.650   3.908   1.328
 4306TIP3   OH212858   3.044   5.396   1.789
 4306TIP3    H112859   3.078   5.317   1.749
 4306TIP3    H212860   3.085   5.468   1.740
 4307TIP3   OH212861   4.073   2.431   0.941
 4307TIP3    H112862   4.104   2.370   0.875
 4307TIP3    H212863   4.153   2.466   0.980
 4308TIP3   OH212864   7.339   2.443   1.585
 4308TIP3    H112865   7.371   2.500   1.655
 4308TIP3    H212866   7.337   2.356   1.625
 4309TIP3   OH212867   5.640   3.592   0.488
 4309TIP3    H112868   5.606   3.508   0.458
 4309TIP3    H212869   5.659   3.579   0.581
 4310TIP3   OH212870   0.414   6.474   4.345
 4310TIP3    H112871   0.407   6.553   4.291
 4310TIP3    H212872   0.364   6.495   4.424
 4311TIP3   OH212873   4.932   5.424   2.045
 4311TIP3    H112874   4.838   5.406   2.051
 4311TIP3    H212875   4.938   5.519   2.036
 4312TIP3   OH212876   6.886   6.566   6.560
 4312TIP3    H112877   6.970   6.520   6.571
 4312TIP3    H212878   6.851   6.532   6.478
 4313TIP3   OH212879   6.667   5.719   3.400
 4313TIP3    H112880   6.607   5.728   3.326
 4313TIP3    H212881   6.691   5.626   3.400
 4314TIP3   OH212882   2.204   5.907   6.480
 4314TIP3    H112883   2.175   5.837   6.539
 4314TIP3    H212884   2.291   5.931   6.512
 4315TIP3   OH212885   4.118   3.948   2.043
 4315TIP3    H112886   4.059   4.021   2.063
 4315TIP3    H212887   4.168   3.977   1.967
 4316TIP3   OH212888   3.562   2.476   0.580
 4316TIP3    H112889   3.601   2.426   0.508
 4316TIP3    H212890   3.620   2.460   0.654
 4317TIP3   OH212891   3.117   4.311   5.320
 4317TIP3    H112892   3.096   4.245   5.254
 4317TIP3    H212893   3.033   4.348   5.346
 4318TIP3   OH212894   3.055   7.086   2.775
 4318TIP3    H112895   3.038   7.135   2.695
 4318TIP3    H212896   3.140   7.119   2.806
 4319TIP3   OH212897   4.461   6.631   1.696
 4319TIP3    H112898   4.375   6.594   1.715
 4319TIP3    H212899   4.488   6.587   1.615
 4320TIP3   OH212900   1.871   7.207   6.892
 4320TIP3    H112901   1.810   7.257   6.838
 4320TIP3    H212902   1.901   7.136   6.835
 4321TIP3   OH212903   7.238   4.014   0.344
 4321TIP3    H112904   7.172   4.028   0.276
 4321TIP3    H212905   7.218   3.928   0.380
 4322TIP3   OH212906   1.554   0.828   5.112
 4322TIP3    H112907   1.635   0.860   5.153
 4322TIP3    H212908   1.546   0.738   5.144
 4323TIP3   OH212909   5.631   2.238   0.170
 4323TIP3    H112910   5.618   2.251   0.263
 4323TIP3    H212911   5.587   2.155   0.151
 4324TIP3   OH212912   1.076   0.124   2.006
 4324TIP3    H112913   1.165   0.156   2.018
 4324TIP3    H212914   1.051   0.092   2.093
 4325TIP3   OH212915   5.251   2.478   4.751
 4325TIP3    H112916   5.293   2.473   4.837
 4325TIP3    H212917   5.165   2.439   4.763
 4326TIP3   OH212918   4.751   5.562   3.506
 4326TIP3    H112919   4.805   5.513   3.569
 4326TIP3    H212920   4.810   5.630   3.472
 4327TIP3   OH212921   1.301   3.640   1.516
 4327TIP3    H112922   1.317   3.703   1.445
 4327TIP3    H212923   1.206   3.638   1.526
 4328TIP3   OH212924   6.151   1.645   6.078
 4328TIP3    H112925   6.227   1.608   6.033
 4328TIP3    H212926   6.187   1.682   6.159
 4329TIP3   OH212927   0.642   4.951   1.343
 4329TIP3    H112928   0.712   4.939   1.278
 4329TIP3    H212929   0.581   5.011   1.300
 4330TIP3   OH212930   3.732   5.959   2.450
 4330TIP3    H112931   3.712   5.873   2.489
 4330TIP3    H212932   3.809   5.943   2.395
 4331TIP3   OH212933   7.261   0.292   0.070
 4331TIP3    H112934   7.265   0.198   0.054
 4331TIP3    H212935   7.231   0.329  -0.014
 4332TIP3   OH212936   2.053   7.227   0.597
 4332TIP3    H112937   2.148   7.222   0.589
 4332TIP3    H212938   2.023   7.259   0.512
 4333TIP3   OH212939   0.256   0.049   4.259
 4333TIP3    H112940   0.206   0.087   4.331
 4333TIP3    H212941   0.328   0.002   4.301
 4334TIP3   OH212942   2.754   2.073   4.338
 4334TIP3    H112943   2.745   2.153   4.287
 4334TIP3    H212944   2.666   2.057   4.373
 4335TIP3   OH212945   2.980   4.142   5.804
 4335TIP3    H112946   3.058   4.195   5.824
 4335TIP3    H212947   2.912   4.207   5.788
 4336TIP3   OH212948   7.378   2.240   3.880
 4336TIP3    H112949   7.367   2.327   3.919
 4336TIP3    H212950   7.413   2.258   3.793
 4337TIP3   OH212951   6.598   1.774   2.404
 4337TIP3    H112952   6.506   1.765   2.380
 4337TIP3    H212953   6.596   1.826   2.485
 4338TIP3   OH212954   0.217   5.543   0.512
 4338TIP3    H112955   0.146   5.490   0.548
 4338TIP3    H212956   0.220   5.621   0.568
 4339TIP3   OH212957   6.779   5.453   5.858
 4339TIP3    H112958   6.776   5.536   5.811
 4339TIP3    H212959   6.719   5.464   5.932
 4340TIP3   OH212960   2.142   1.515   2.550
 4340TIP3    H112961   2.086   1.553   2.617
 4340TIP3    H212962   2.208   1.465   2.599
 4341TIP3   OH212963   5.892   1.699   3.730
 4341TIP3    H112964   5.815   1.754   3.717
 4341TIP3    H212965   5.966   1.756   3.707
 4342TIP3   OH212966   3.176   1.921   4.921
 4342TIP3    H112967   3.148   1.839   4.881
 4342TIP3    H212968   3.125   1.988   4.875
 4343TIP3   OH212969   7.594   5.401   6.591
 4343TIP3    H112970   7.593   5.407   6.687
 4343TIP3    H212971   7.682   5.429   6.567
 4344TIP3   OH212972   2.867   1.702   6.223
 4344TIP3    H112973   2.786   1.743   6.253
 4344TIP3    H212974   2.848   1.674   6.134
 4345TIP3   OH212975   2.835   3.795   6.746
 4345TIP3    H112976   2.920   3.756   6.728
 4345TIP3    H212977   2.779   3.721   6.769
 4346TIP3   OH212978   7.015   2.027   4.054
 4346TIP3    H112979   7.084   2.030   4.121
 4346TIP3    H212980   6.963   1.950   4.077
 4347TIP3   OH212981   6.771   5.012   6.376
 4347TIP3    H112982   6.814   4.964   6.306
 4347TIP3    H212983   6.829   5.002   6.451
 4348TIP3   OH212984   8.146   7.128   0.716
 4348TIP3    H112985   8.134   7.218   0.748
 4348TIP3    H212986   8.240   7.112   0.726
 4349TIP3   OH212987   4.719   6.615   6.440
 4349TIP3    H112988   4.747   6.682   6.378
 4349TIP3    H212989   4.800   6.585   6.481
 4350TIP3   OH212990   1.920   2.981   6.242
 4350TIP3    H112991   1.839   2.984   6.293
 4350TIP3    H212992   1.945   3.073   6.232
 4351TIP3   OH212993   7.145   7.033   1.734
 4351TIP3    H112994   7.061   7.071   1.708
 4351TIP3    H212995   7.123   6.946   1.769
 4352TIP3   OH212996   3.463   0.790   3.470
 4352TIP3    H112997   3.485   0.883   3.456
 4352TIP3    H212998   3.413   0.790   3.552
 4353TIP3   OH212999   0.915   7.565   3.138
 4353TIP3    H113000   0.974   7.638   3.122
 4353TIP3    H213001   0.949   7.523   3.216
 4354TIP3   OH213002   1.613   3.607   0.782
 4354TIP3    H113003   1.686   3.638   0.728
 4354TIP3    H213004   1.646   3.527   0.823
 4355TIP3   OH213005   3.231   1.530   3.558
 4355TIP3    H113006   3.148   1.578   3.552
 4355TIP3    H213007   3.206   1.445   3.594
 4356TIP3   OH213008   4.011   4.775   4.562
 4356TIP3    H113009   4.010   4.831   4.484
 4356TIP3    H213010   4.006   4.836   4.635
 4357TIP3   OH213011   4.652   7.173   6.051
 4357TIP3    H113012   4.645   7.111   5.979
 4357TIP3    H213013   4.746   7.181   6.066
 4358TIP3   OH213014   1.199   3.606   2.625
 4358TIP3    H113015   1.265   3.667   2.590
 4358TIP3    H213016   1.249   3.547   2.681
 4359TIP3   OH213017   8.082   2.740   2.359
 4359TIP3    H113018   8.118   2.777   2.278
 4359TIP3    H213019   7.998   2.784   2.371
 4360TIP3   OH213020   3.705   1.753   0.592
 4360TIP3    H113021   3.744   1.731   0.677
 4360TIP3    H213022   3.663   1.672   0.565
 4361TIP3   OH213023   8.239   1.775   4.655
 4361TIP3    H113024   8.314   1.716   4.653
 4361TIP3    H213025   8.181   1.743   4.585
 4362TIP3   OH213026   6.937   4.216   2.947
 4362TIP3    H113027   7.019   4.183   2.981
 4362TIP3    H213028   6.943   4.204   2.852
 4363TIP3   OH213029   1.734   3.707   2.154
 4363TIP3    H113030   1.687   3.646   2.211
 4363TIP3    H213031   1.821   3.668   2.145
 4364TIP3   OH213032   6.960   0.344   4.791
 4364TIP3    H113033   6.975   0.426   4.837
 4364TIP3    H213034   6.896   0.365   4.723
 4365TIP3   OH213035   0.930   2.762   1.682
 4365TIP3    H113036   0.941   2.739   1.590
 4365TIP3    H213037   1.019   2.777   1.713
 4366TIP3   OH213038   4.502   4.739   4.856
 4366TIP3    H113039   4.506   4.704   4.945
 4366TIP3    H213040   4.421   4.791   4.854
 4367TIP3   OH213041   5.555   2.119   6.551
 4367TIP3    H113042   5.537   2.213   6.545
 4367TIP3    H213043   5.559   2.102   6.645
 4368TIP3   OH213044   1.256   7.487   6.724
 4368TIP3    H113045   1.343   7.447   6.716
 4368TIP3    H213046   1.200   7.433   6.668
 4369TIP3   OH213047   7.863   5.226   6.813
 4369TIP3    H113048   7.804   5.298   6.836
 4369TIP3    H213049   7.827   5.192   6.730
 4370TIP3   OH213050   4.167   4.626   3.783
 4370TIP3    H113051   4.217   4.641   3.703
 4370TIP3    H213052   4.194   4.540   3.814
 4371TIP3   OH213053   4.205   6.879   0.352
 4371TIP3    H113054   4.199   6.955   0.294
 4371TIP3    H213055   4.219   6.805   0.293
 4372TIP3   OH213056   4.266   4.268   1.679
 4372TIP3    H113057   4.299   4.351   1.714
 4372TIP3    H213058   4.336   4.237   1.621
 4373TIP3   OH213059   3.744   3.844   1.917
 4373TIP3    H113060   3.743   3.801   1.832
 4373TIP3    H213061   3.813   3.799   1.966
 4374TIP3   OH213062   1.082   4.630   0.954
 4374TIP3    H113063   1.092   4.668   0.867
 4374TIP3    H213064   1.170   4.598   0.977
 4375TIP3   OH213065   2.811   6.066   2.892
 4375TIP3    H113066   2.885   6.075   2.952
 4375TIP3    H213067   2.753   6.003   2.935
 4376TIP3   OH213068   3.401   4.253   4.770
 4376TIP3    H113069   3.422   4.299   4.689
 4376TIP3    H213070   3.357   4.173   4.741
 4377TIP3   OH213071   0.787   3.335   0.855
 4377TIP3    H113072   0.697   3.343   0.822
 4377TIP3    H213073   0.813   3.425   0.876
 4378TIP3   OH213074   2.979   4.776   4.183
 4378TIP3    H113075   2.917   4.849   4.177
 4378TIP3    H213076   3.026   4.792   4.264
 4379TIP3   OH213077   7.626   7.550   1.063
 4379TIP3    H113078   7.547   7.590   1.098
 4379TIP3    H213079   7.646   7.478   1.123
 4380TIP3   OH213080   2.975   5.697   1.282
 4380TIP3    H113081   2.995   5.791   1.280
 4380TIP3    H213082   2.898   5.690   1.340
 4381TIP3   OH213083   4.787   1.322   4.706
 4381TIP3    H113084   4.732   1.386   4.749
 4381TIP3    H213085   4.726   1.255   4.676
 4382TIP3   OH213086   3.996   5.773   2.627
 4382TIP3    H113087   4.043   5.826   2.690
 4382TIP3    H213088   4.025   5.806   2.542
 4383TIP3   OH213089   3.491   4.913   6.782
 4383TIP3    H113090   3.458   4.877   6.700
 4383TIP3    H213091   3.584   4.892   6.782
 4384TIP3   OH213092   4.558   2.776   4.692
 4384TIP3    H113093   4.505   2.791   4.770
 4384TIP3    H213094   4.500   2.795   4.619
 4385TIP3   OH213095   1.243   5.912   5.409
 4385TIP3    H113096   1.185   5.950   5.475
 4385TIP3    H213097   1.211   5.946   5.326
 4386TIP3   OH213098   5.713   5.793   5.094
 4386TIP3    H113099   5.645   5.743   5.139
 4386TIP3    H213100   5.714   5.878   5.138
 4387TIP3   OH213101   6.079   1.214   0.610
 4387TIP3    H113102   6.016   1.176   0.672
 4387TIP3    H213103   6.161   1.168   0.628
 4388TIP3   OH213104   3.923   1.810   2.288
 4388TIP3    H113105   3.966   1.802   2.374
 4388TIP3    H213106   3.855   1.743   2.290
 4389TIP3   OH213107   3.141   4.907   0.625
 4389TIP3    H113108   3.185   4.851   0.689
 4389TIP3    H213109   3.049   4.903   0.649
 4390TIP3   OH213110   4.733   0.058   0.058
 4390TIP3    H113111   4.733   0.113  -0.021
 4390TIP3    H213112   4.718  -0.031   0.024
 4391TIP3   OH213113   8.008   7.789   6.608
 4391TIP3    H113114   7.951   7.712   6.608
 4391TIP3    H213115   8.059   7.782   6.528
 4392TIP3   OH213116   8.206   2.112   3.392
 4392TIP3    H113117   8.117   2.123   3.360
 4392TIP3    H213118   8.198   2.108   3.487
 4393TIP3   OH213119   5.326   6.404   0.311
 4393TIP3    H113120   5.344   6.343   0.240
 4393TIP3    H213121   5.250   6.455   0.282
 4394TIP3   OH213122   3.379   6.260   6.646
 4394TIP3    H113123   3.409   6.313   6.572
 4394TIP3    H213124   3.444   6.275   6.714
 4395TIP3   OH213125   5.526   2.799   1.454
 4395TIP3    H113126   5.452   2.839   1.408
 4395TIP3    H213127   5.530   2.710   1.420
 4396TIP3   OH213128   2.811   7.329   5.602
 4396TIP3    H113129   2.807   7.411   5.650
 4396TIP3    H213130   2.880   7.343   5.537
 4397TIP3   OH213131   7.541   6.442   6.814
 4397TIP3    H113132   7.613   6.485   6.859
 4397TIP3    H213133   7.464   6.493   6.838
 4398TIP3   OH213134   7.242   4.971   5.649
 4398TIP3    H113135   7.313   4.958   5.586
 4398TIP3    H213136   7.203   4.884   5.659
 4399TIP3   OH213137   7.017   3.105   4.537
 4399TIP3    H113138   7.002   3.180   4.595
 4399TIP3    H213139   7.070   3.045   4.589
 4400TIP3   OH213140   4.704   1.723   4.070
 4400TIP3    H113141   4.740   1.806   4.102
 4400TIP3    H213142   4.675   1.677   4.149
 4401TIP3   OH213143   3.708   5.305   2.563
 4401TIP3    H113144   3.712   5.242   2.635
 4401TIP3    H213145   3.757   5.262   2.492
 4402TIP3   OH213146   4.867   7.022   0.729
 4402TIP3    H113147   4.883   7.019   0.823
 4402TIP3    H213148   4.779   7.060   0.720
 4403TIP3   OH213149   7.461   3.934   0.577
 4403TIP3    H113150   7.440   3.871   0.508
 4403TIP3    H213151   7.479   4.016   0.530
 4404TIP3   OH213152   4.826   5.802   3.362
 4404TIP3    H113153   4.897   5.854   3.399
 4404TIP3    H213154   4.866   5.758   3.287
 4405TIP3   OH213155   3.264   7.827   1.869
 4405TIP3    H113156   3.222   7.845   1.953
 4405TIP3    H213157   3.293   7.736   1.876
 4406TIP3   OH213158   3.781   7.371   2.399
 4406TIP3    H113159   3.706   7.377   2.341
 4406TIP3    H213160   3.793   7.277   2.413
 4407TIP3   OH213161   6.791   2.027   1.868
 4407TIP3    H113162   6.762   2.089   1.935
 4407TIP3    H213163   6.884   2.015   1.885
 4408TIP3   OH213164   3.052   5.431   2.396
 4408TIP3    H113165   2.978   5.384   2.433
 4408TIP3    H213166   3.108   5.363   2.360
 4409TIP3   OH213167   1.083   2.787   4.315
 4409TIP3    H113168   1.113   2.832   4.394
 4409TIP3    H213169   1.051   2.702   4.347
 4410TIP3   OH213170   6.879   3.477   3.129
 4410TIP3    H113171   6.841   3.557   3.092
 4410TIP3    H213172   6.877   3.491   3.223
 4411TIP3   OH213173   2.778   3.954   1.477
 4411TIP3    H113174   2.781   3.872   1.427
 4411TIP3    H213175   2.711   3.939   1.544
 4412TIP3   OH213176   1.003   3.666   2.968
 4412TIP3    H113177   1.043   3.594   3.016
 4412TIP3    H213178   0.911   3.640   2.958
 4413TIP3   OH213179   1.114   7.442   0.875
 4413TIP3    H113180   1.061   7.387   0.933
 4413TIP3    H213181   1.051   7.477   0.811
 4414TIP3   OH213182   6.065   0.165   4.805
 4414TIP3    H113183   6.003   0.237   4.798
 4414TIP3    H213184   6.013   0.087   4.789
 4415TIP3   OH213185   0.280   2.426   4.402
 4415TIP3    H113186   0.190   2.450   4.380
 4415TIP3    H213187   0.333   2.500   4.372
 4416TIP3   OH213188   6.201   5.163   1.279
 4416TIP3    H113189   6.277   5.120   1.320
 4416TIP3    H213190   6.238   5.239   1.234
 4417TIP3   OH213191   5.729   6.273   2.653
 4417TIP3    H113192   5.646   6.242   2.690
 4417TIP3    H213193   5.715   6.366   2.639
 4418TIP3   OH213194   5.080   3.009   0.279
 4418TIP3    H113195   5.082   2.934   0.219
 4418TIP3    H213196   5.053   3.083   0.224
 4419TIP3   OH213197   5.481   5.839   0.190
 4419TIP3    H113198   5.389   5.813   0.195
 4419TIP3    H213199   5.509   5.844   0.281
 4420TIP3   OH213200   5.124   3.261   5.887
 4420TIP3    H113201   5.048   3.286   5.940
 4420TIP3    H213202   5.198   3.265   5.947
 4421TIP3   OH213203   2.393   2.236   6.055
 4421TIP3    H113204   2.437   2.321   6.065
 4421TIP3    H213205   2.370   2.232   5.962
 4422TIP3   OH213206   0.613   5.535   6.602
 4422TIP3    H113207   0.597   5.614   6.550
 4422TIP3    H213208   0.701   5.546   6.636
 4423TIP3   OH213209   5.880   3.581   5.104
 4423TIP3    H113210   5.932   3.503   5.086
 4423TIP3    H213211   5.944   3.652   5.106
 4424TIP3   OH213212   1.083   7.880   5.619
 4424TIP3    H113213   1.152   7.906   5.680
 4424TIP3    H213214   1.095   7.937   5.543
 4425TIP3   OH213215   7.611   5.525   2.844
 4425TIP3    H113216   7.541   5.463   2.862
 4425TIP3    H213217   7.692   5.474   2.853
 4426TIP3   OH213218   8.066   0.786   5.779
 4426TIP3    H113219   8.145   0.731   5.785
 4426TIP3    H213220   7.999   0.728   5.743
 4427TIP3   OH213221   1.348   4.631   6.139
 4427TIP3    H113222   1.305   4.545   6.136
 4427TIP3    H213223   1.368   4.645   6.232
 4428TIP3   OH213224   4.002   3.063   4.880
 4428TIP3    H113225   3.964   3.108   4.805
 4428TIP3    H213226   4.015   3.132   4.945
 4429TIP3   OH213227   7.727   1.940   5.461
 4429TIP3    H113228   7.771   1.981   5.536
 4429TIP3    H213229   7.798   1.904   5.408
 4430TIP3   OH213230   2.471   4.039   4.985
 4430TIP3    H113231   2.550   4.058   5.036
 4430TIP3    H213232   2.467   3.943   4.983
 4431TIP3   OH213233   6.893   0.980   2.329
 4431TIP3    H113234   6.940   0.962   2.410
 4431TIP3    H213235   6.892   1.075   2.322
 4432TIP3   OH213236   1.599   1.108   3.125
 4432TIP3    H113237   1.690   1.138   3.126
 4432TIP3    H213238   1.547   1.187   3.139
 4433TIP3   OH213239   0.267   6.222   2.299
 4433TIP3    H113240   0.186   6.272   2.302
 4433TIP3    H213241   0.290   6.220   2.206
 4434TIP3   OH213242   8.271   4.669   3.441
 4434TIP3    H113243   8.281   4.760   3.469
 4434TIP3    H213244   8.190   4.668   3.390
 4435TIP3   OH213245   3.657   3.802   5.679
 4435TIP3    H113246   3.682   3.713   5.701
 4435TIP3    H213247   3.565   3.808   5.703
 4436TIP3   OH213248   2.217   5.597   4.944
 4436TIP3    H113249   2.312   5.595   4.959
 4436TIP3    H213250   2.198   5.689   4.927
 4437TIP3   OH213251   3.559   3.043   5.425
 4437TIP3    H113252   3.576   2.982   5.496
 4437TIP3    H213253   3.644   3.052   5.380
 4438TIP3   OH213254   7.265   6.511   1.938
 4438TIP3    H113255   7.343   6.463   1.965
 4438TIP3    H213256   7.297   6.598   1.916
 4439TIP3   OH213257   0.613   1.171   4.987
 4439TIP3    H113258   0.614   1.263   4.962
 4439TIP3    H213259   0.620   1.172   5.083
 4440TIP3   OH213260   4.971   0.472   0.717
 4440TIP3    H113261   5.003   0.419   0.790
 4440TIP3    H213262   4.916   0.539   0.758
 4441TIP3   OH213263   4.767   1.596   3.717
 4441TIP3    H113264   4.792   1.537   3.646
 4441TIP3    H213265   4.814   1.564   3.793
 4442TIP3   OH213266   4.832   2.465   5.527
 4442TIP3    H113267   4.904   2.416   5.566
 4442TIP3    H213268   4.761   2.401   5.519
 4443TIP3   OH213269   1.426   6.826   2.944
 4443TIP3    H113270   1.363   6.808   3.015
 4443TIP3    H213271   1.371   6.847   2.868
 4444TIP3   OH213272   7.193   4.495   1.903
 4444TIP3    H113273   7.282   4.458   1.900
 4444TIP3    H213274   7.136   4.421   1.882
 4445TIP3   OH213275   3.027   3.655   2.763
 4445TIP3    H113276   3.090   3.711   2.809
 4445TIP3    H213277   2.946   3.706   2.763
 4446TIP3   OH213278   7.149   3.164   6.200
 4446TIP3    H113279   7.161   3.259   6.196
 4446TIP3    H213280   7.195   3.131   6.123
 4447TIP3   OH213281   1.616   6.329   2.481
 4447TIP3    H113282   1.532   6.340   2.525
 4447TIP3    H213283   1.681   6.364   2.542
 4448TIP3   OH213284   2.001   3.230   4.341
 4448TIP3    H113285   1.923   3.235   4.396
 4448TIP3    H213286   2.065   3.182   4.394
 4449TIP3   OH213287   2.048   1.029   5.520
 4449TIP3    H113288   2.141   1.045   5.535
 4449TIP3    H213289   2.012   1.114   5.496
 4450TIP3   OH213290   1.741   3.159   1.201
 4450TIP3    H113291   1.732   3.240   1.253
 4450TIP3    H213292   1.772   3.094   1.264
 4451TIP3   OH213293   6.839   7.365   6.175
 4451TIP3    H113294   6.825   7.459   6.162
 4451TIP3    H213295   6.751   7.329   6.187
 4452TIP3   OH213296   4.709   6.923   4.099
 4452TIP3    H113297   4.686   6.839   4.140
 4452TIP3    H213298   4.631   6.947   4.048
 4453TIP3   OH213299   4.119   0.508   4.083
 4453TIP3    H113300   4.057   0.528   4.013
 4453TIP3    H213301   4.143   0.416   4.067
 4454TIP3   OH213302   2.771   3.747   4.550
 4454TIP3    H113303   2.831   3.688   4.597
 4454TIP3    H213304   2.698   3.690   4.523
 4455TIP3   OH213305   2.910   3.398   2.436
 4455TIP3    H113306   2.834   3.414   2.492
 4455TIP3    H213307   2.976   3.460   2.467
 4456TIP3   OH213308   0.698   7.855   4.710
 4456TIP3    H113309   0.618   7.886   4.666
 4456TIP3    H213310   0.736   7.934   4.749
 4457TIP3   OH213311   5.237   3.186   4.658
 4457TIP3    H113312   5.287   3.119   4.612
 4457TIP3    H213313   5.167   3.209   4.597
 4458TIP3   OH213314   0.422   1.570   6.680
 4458TIP3    H113315   0.508   1.576   6.721
 4458TIP3    H213316   0.440   1.571   6.586
 4459TIP3   OH213317   2.397   7.222   2.681
 4459TIP3    H113318   2.446   7.267   2.749
 4459TIP3    H213319   2.333   7.169   2.729
 4460TIP3   OH213320   5.299   1.443   4.826
 4460TIP3    H113321   5.273   1.390   4.751
 4460TIP3    H213322   5.259   1.529   4.810
 4461TIP3   OH213323   4.883   4.931   4.405
 4461TIP3    H113324   4.814   4.988   4.439
 4461TIP3    H213325   4.943   4.992   4.360
 4462TIP3   OH213326   2.429   2.682   4.508
 4462TIP3    H113327   2.415   2.588   4.526
 4462TIP3    H213328   2.523   2.689   4.490
 4463TIP3   OH213329   0.897   6.458   5.969
 4463TIP3    H113330   0.901   6.535   5.912
 4463TIP3    H213331   0.870   6.493   6.054
 4464TIP3   OH213332   7.652   7.334   5.600
 4464TIP3    H113333   7.657   7.368   5.510
 4464TIP3    H213334   7.566   7.364   5.631
 4465TIP3   OH213335   5.745   3.377   1.121
 4465TIP3    H113336   5.798   3.426   1.057
 4465TIP3    H213337   5.707   3.305   1.070
 4466TIP3   OH213338   4.348   6.193   0.077
 4466TIP3    H113339   4.358   6.100   0.097
 4466TIP3    H213340   4.288   6.196   0.002
 4467TIP3   OH213341   2.977   6.859   0.191
 4467TIP3    H113342   3.070   6.837   0.186
 4467TIP3    H213343   2.940   6.826   0.109
 4468TIP3   OH213344   3.120   1.969   2.852
 4468TIP3    H113345   3.182   1.926   2.911
 4468TIP3    H213346   3.034   1.955   2.893
 4469TIP3   OH213347   7.545   7.402   2.924
 4469TIP3    H113348   7.630   7.443   2.939
 4469TIP3    H213349   7.566   7.312   2.901
 4470TIP3   OH213350   6.981   6.162   2.955
 4470TIP3    H113351   7.003   6.196   2.868
 4470TIP3    H213352   6.931   6.232   2.996
 4471TIP3   OH213353   7.057   4.928   6.810
 4471TIP3    H113354   7.147   4.950   6.832
 4471TIP3    H213355   7.056   4.833   6.808
 4472TIP3   OH213356   6.961   3.806   5.960
 4472TIP3    H113357   6.902   3.748   6.009
 4472TIP3    H213358   6.907   3.883   5.941
 4473TIP3   OH213359   1.576   6.973   2.700
 4473TIP3    H113360   1.662   7.010   2.682
 4473TIP3    H213361   1.535   7.036   2.760
 4474TIP3   OH213362   6.371   0.937   2.128
 4474TIP3    H113363   6.457   0.901   2.148
 4474TIP3    H213364   6.315   0.907   2.200
 4475TIP3   OH213365   3.970   6.349   5.049
 4475TIP3    H113366   3.901   6.391   5.100
 4475TIP3    H213367   3.968   6.395   4.965
 4476TIP3   OH213368   3.909   0.645   5.686
 4476TIP3    H113369   3.895   0.698   5.608
 4476TIP3    H213370   3.822   0.613   5.710
 4477TIP3   OH213371   5.614   5.283   4.335
 4477TIP3    H113372   5.667   5.203   4.343
 4477TIP3    H213373   5.532   5.253   4.296
 4478TIP3   OH213374   6.827   6.512   5.226
 4478TIP3    H113375   6.768   6.546   5.159
 4478TIP3    H213376   6.834   6.419   5.207
 4479TIP3   OH213377   3.215   5.897   0.166
 4479TIP3    H113378   3.154   5.913   0.237
 4479TIP3    H213379   3.163   5.851   0.099
 4480TIP3   OH213380   7.070   1.230   5.360
 4480TIP3    H113381   7.053   1.148   5.315
 4480TIP3    H213382   6.986   1.253   5.400
 4481TIP3   OH213383   2.781   5.250   2.343
 4481TIP3    H113384   2.697   5.287   2.315
 4481TIP3    H213385   2.825   5.227   2.261
 4482TIP3   OH213386   5.802   7.373   5.906
 4482TIP3    H113387   5.743   7.309   5.945
 4482TIP3    H213388   5.883   7.365   5.956
 4483TIP3   OH213389   4.353   5.907   3.280
 4483TIP3    H113390   4.300   5.848   3.227
 4483TIP3    H213391   4.385   5.973   3.217
 4484TIP3   OH213392   4.601   3.527   3.712
 4484TIP3    H113393   4.513   3.493   3.731
 4484TIP3    H213394   4.651   3.508   3.791
 4485TIP3   OH213395   5.322   4.186   1.161
 4485TIP3    H113396   5.294   4.275   1.139
 4485TIP3    H213397   5.345   4.190   1.253
 4486TIP3   OH213398   4.521   5.886   0.845
 4486TIP3    H113399   4.582   5.941   0.796
 4486TIP3    H213400   4.453   5.946   0.875
 4487TIP3   OH213401   3.242   6.036   3.225
 4487TIP3    H113402   3.159   5.999   3.256
 4487TIP3    H213403   3.240   6.127   3.254
 4488TIP3   OH213404   6.397   1.668   5.365
 4488TIP3    H113405   6.416   1.613   5.289
 4488TIP3    H213406   6.362   1.749   5.327
 4489TIP3   OH213407   5.877   1.137   6.620
 4489TIP3    H113408   5.873   1.096   6.707
 4489TIP3    H213409   5.825   1.079   6.564
 4490TIP3   OH213410   4.179   3.935   3.831
 4490TIP3    H113411   4.271   3.909   3.823
 4490TIP3    H213412   4.132   3.852   3.841
 4491TIP3   OH213413   5.542   1.344   0.358
 4491TIP3    H113414   5.464   1.289   0.371
 4491TIP3    H213415   5.609   1.304   0.414
 4492TIP3   OH213416   7.313   2.414   6.486
 4492TIP3    H113417   7.243   2.353   6.463
 4492TIP3    H213418   7.291   2.443   6.575
 4493TIP3   OH213419   0.012   0.631   1.663
 4493TIP3    H113420   0.061   0.700   1.707
 4493TIP3    H213421   0.053   0.550   1.693
 4494TIP3   OH213422   4.577   5.771   6.617
 4494TIP3    H113423   4.507   5.705   6.613
 4494TIP3    H213424   4.541   5.847   6.571
 4495TIP3   OH213425   5.673   1.795   6.739
 4495TIP3    H113426   5.588   1.839   6.745
 4495TIP3    H213427   5.697   1.777   6.830
 4496TIP3   OH213428   6.920   1.866   0.279
 4496TIP3    H113429   7.013   1.846   0.288
 4496TIP3    H213430   6.912   1.958   0.304
 4497TIP3   OH213431   2.453   2.004   0.490
 4497TIP3    H113432   2.366   2.042   0.479
 4497TIP3    H213433   2.490   2.049   0.565
 4498TIP3   OH213434   7.610   4.162   5.651
 4498TIP3    H113435   7.535   4.124   5.697
 4498TIP3    H213436   7.676   4.173   5.718
 4499TIP3   OH213437   2.838   6.330   0.996
 4499TIP3    H113438   2.748   6.304   1.015
 4499TIP3    H213439   2.879   6.251   0.961
 4500TIP3   OH213440   3.931   4.788   0.150
 4500TIP3    H113441   3.989   4.730   0.198
 4500TIP3    H213442   3.882   4.731   0.091
 4501TIP3   OH213443   2.496   7.732   5.255
 4501TIP3    H113444   2.506   7.708   5.163
 4501TIP3    H213445   2.536   7.660   5.303
 4502TIP3   OH213446   7.897   5.562   5.805
 4502TIP3    H113447   7.974   5.616   5.824
 4502TIP3    H213448   7.879   5.577   5.712
 4503TIP3   OH213449   1.404   7.826   5.169
 4503TIP3    H113450   1.393   7.738   5.135
 4503TIP3    H213451   1.477   7.820   5.230
 4504TIP3   OH213452   8.241   5.970   4.295
 4504TIP3    H113453   8.282   5.903   4.349
 4504TIP3    H213454   8.165   5.999   4.346
 4505TIP3   OH213455   2.536   7.357   0.330
 4505TIP3    H113456   2.479   7.293   0.372
 4505TIP3    H213457   2.606   7.306   0.291
 4506TIP3   OH213458   0.629   5.783   4.985
 4506TIP3    H113459   0.606   5.812   5.074
 4506TIP3    H213460   0.544   5.768   4.942
 4507TIP3   OH213461   5.672   1.652   4.405
 4507TIP3    H113462   5.750   1.649   4.460
 4507TIP3    H213463   5.602   1.620   4.462
 4508TIP3   OH213464   3.555   1.331   0.459
 4508TIP3    H113465   3.637   1.378   0.443
 4508TIP3    H213466   3.495   1.364   0.392
 4509TIP3   OH213467   7.613   0.826   4.315
 4509TIP3    H113468   7.638   0.919   4.319
 4509TIP3    H213469   7.620   0.803   4.223
 4510TIP3   OH213470   7.640   4.018   2.347
 4510TIP3    H113471   7.551   4.019   2.312
 4510TIP3    H213472   7.646   4.098   2.400
 4511TIP3   OH213473   8.143   3.367   1.655
 4511TIP3    H113474   8.147   3.331   1.743
 4511TIP3    H213475   8.225   3.416   1.645
 4512TIP3   OH213476   6.514   0.504   6.816
 4512TIP3    H113477   6.589   0.501   6.876
 4512TIP3    H213478   6.542   0.564   6.746
 4513TIP3   OH213479   3.312   4.368   6.299
 4513TIP3    H113480   3.355   4.292   6.339
 4513TIP3    H213481   3.368   4.442   6.323
 4514TIP3   OH213482   5.791   7.530   4.125
 4514TIP3    H113483   5.786   7.617   4.087
 4514TIP3    H213484   5.863   7.535   4.188
 4515TIP3   OH213485   1.168   7.692   6.130
 4515TIP3    H113486   1.218   7.690   6.048
 4515TIP3    H213487   1.227   7.655   6.195
 4516TIP3   OH213488   8.237   6.151   2.027
 4516TIP3    H113489   8.171   6.139   2.095
 4516TIP3    H213490   8.287   6.069   2.028
 4517TIP3   OH213491   2.046   5.254   4.273
 4517TIP3    H113492   2.105   5.257   4.348
 4517TIP3    H213493   2.038   5.345   4.245
 4518TIP3   OH213494   2.481   5.357   3.187
 4518TIP3    H113495   2.508   5.429   3.244
 4518TIP3    H213496   2.445   5.399   3.109
 4519TIP3   OH213497   6.664   5.490   2.004
 4519TIP3    H113498   6.752   5.518   1.977
 4519TIP3    H213499   6.633   5.559   2.063
 4520TIP3   OH213500   4.065   7.872   3.842
 4520TIP3    H113501   4.086   7.928   3.768
 4520TIP3    H213502   4.038   7.933   3.911
 4521TIP3   OH213503   4.826   4.036   0.279
 4521TIP3    H113504   4.840   4.130   0.264
 4521TIP3    H213505   4.732   4.024   0.267
 4522TIP3   OH213506   2.019   2.111   3.229
 4522TIP3    H113507   2.000   2.062   3.150
 4522TIP3    H213508   1.980   2.197   3.214
 4523TIP3   OH213509   2.535   2.015   2.489
 4523TIP3    H113510   2.487   2.092   2.459
 4523TIP3    H213511   2.475   1.942   2.473
 4524TIP3   OH213512   5.758   2.299   4.156
 4524TIP3    H113513   5.697   2.228   4.176
 4524TIP3    H213514   5.836   2.279   4.207
 4525TIP3   OH213515   3.864   7.139   0.068
 4525TIP3    H113516   3.836   7.060   0.021
 4525TIP3    H213517   3.835   7.211   0.012
 4526TIP3   OH213518   1.343   7.612   5.413
 4526TIP3    H113519   1.353   7.522   5.383
 4526TIP3    H213520   1.249   7.624   5.424
 4527TIP3   OH213521   3.371   4.881   0.832
 4527TIP3    H113522   3.388   4.790   0.809
 4527TIP3    H213523   3.313   4.876   0.908
 4528TIP3   OH213524   0.684   3.378   0.363
 4528TIP3    H113525   0.612   3.317   0.349
 4528TIP3    H213526   0.642   3.462   0.381
 4529TIP3   OH213527   2.761   1.765   1.327
 4529TIP3    H113528   2.764   1.785   1.421
 4529TIP3    H213529   2.788   1.673   1.322
 4530TIP3   OH213530   6.168   2.476   4.577
 4530TIP3    H113531   6.138   2.561   4.544
 4530TIP3    H213532   6.136   2.412   4.512
 4531TIP3   OH213533   2.236   4.218   6.453
 4531TIP3    H113534   2.331   4.205   6.444
 4531TIP3    H213535   2.227   4.301   6.499
 4532TIP3   OH213536   8.058   3.685   1.618
 4532TIP3    H113537   8.099   3.665   1.533
 4532TIP3    H213538   7.964   3.680   1.600
 4533TIP3   OH213539   5.805   2.584   1.431
 4533TIP3    H113540   5.825   2.629   1.514
 4533TIP3    H213541   5.827   2.492   1.448
 4534TIP3   OH213542   8.067   6.184   6.155
 4534TIP3    H113543   8.104   6.269   6.177
 4534TIP3    H213544   7.993   6.203   6.098
 4535TIP3   OH213545   6.260   1.262   6.054
 4535TIP3    H113546   6.261   1.329   5.986
 4535TIP3    H213547   6.287   1.182   6.010
 4536TIP3   OH213548   4.433   4.772   1.722
 4536TIP3    H113549   4.372   4.840   1.693
 4536TIP3    H213550   4.449   4.793   1.814
 4537TIP3   OH213551   4.737   1.605   2.435
 4537TIP3    H113552   4.830   1.623   2.418
 4537TIP3    H213553   4.738   1.529   2.493
 4538TIP3   OH213554   3.207   7.539   6.675
 4538TIP3    H113555   3.193   7.632   6.695
 4538TIP3    H213556   3.193   7.533   6.581
 4539TIP3   OH213557   2.474   1.235   0.654
 4539TIP3    H113558   2.408   1.238   0.584
 4539TIP3    H213559   2.473   1.143   0.682
 4540TIP3   OH213560   4.012   5.596   1.776
 4540TIP3    H113561   4.076   5.571   1.843
 4540TIP3    H213562   4.064   5.624   1.702
 4541TIP3   OH213563   5.493   6.168   2.758
 4541TIP3    H113564   5.411   6.161   2.710
 4541TIP3    H213565   5.470   6.214   2.839
 4542TIP3   OH213566   7.446   5.345   2.034
 4542TIP3    H113567   7.474   5.292   1.960
 4542TIP3    H213568   7.516   5.334   2.099
 4543TIP3   OH213569   3.678   0.522   4.036
 4543TIP3    H113570   3.709   0.542   4.124
 4543TIP3    H213571   3.699   0.600   3.985
 4544TIP3   OH213572   6.688   5.591   3.118
 4544TIP3    H113573   6.702   5.574   3.025
 4544TIP3    H213574   6.669   5.684   3.124
 4545TIP3   OH213575   6.546   1.329   6.073
 4545TIP3    H113576   6.525   1.405   6.019
 4545TIP3    H213577   6.497   1.257   6.034
 4546TIP3   OH213578   7.132   0.767   5.077
 4546TIP3    H113579   7.068   0.804   5.017
 4546TIP3    H213580   7.191   0.839   5.097
 4547TIP3   OH213581   5.158   3.541   1.150
 4547TIP3    H113582   5.178   3.625   1.193
 4547TIP3    H213583   5.209   3.544   1.069
 4548TIP3   OH213584   4.658   1.270   5.157
 4548TIP3    H113585   4.659   1.361   5.187
 4548TIP3    H213586   4.565   1.247   5.155
 4549TIP3   OH213587   2.281   3.132   6.542
 4549TIP3    H113588   2.210   3.094   6.593
 4549TIP3    H213589   2.248   3.218   6.514
 4550TIP3   OH213590   4.057   5.691   4.580
 4550TIP3    H113591   4.114   5.703   4.505
 4550TIP3    H213592   4.069   5.770   4.633
 4551TIP3   OH213593   6.398   1.529   4.281
 4551TIP3    H113594   6.380   1.467   4.210
 4551TIP3    H213595   6.485   1.506   4.313
 4552TIP3   OH213596   0.430   7.215   2.702
 4552TIP3    H113597   0.526   7.220   2.697
 4552TIP3    H213598   0.399   7.300   2.672
 4553TIP3   OH213599   8.085   3.233   4.230
 4553TIP3    H113600   8.138   3.240   4.151
 4553TIP3    H213601   8.130   3.167   4.283
 4554TIP3   OH213602   6.308   0.305   4.451
 4554TIP3    H113603   6.242   0.345   4.507
 4554TIP3    H213604   6.282   0.329   4.362
 4555TIP3   OH213605   3.795   2.878   5.971
 4555TIP3    H113606   3.788   2.850   6.063
 4555TIP3    H213607   3.738   2.954   5.965
 4556TIP3   OH213608   0.126   0.464   2.197
 4556TIP3    H113609   0.122   0.513   2.115
 4556TIP3    H213610   0.125   0.531   2.265
 4557TIP3   OH213611   5.337   3.254   3.958
 4557TIP3    H113612   5.361   3.189   3.892
 4557TIP3    H213613   5.384   3.333   3.931
 4558TIP3   OH213614   3.617   7.847   2.871
 4558TIP3    H113615   3.642   7.899   2.795
 4558TIP3    H213616   3.593   7.911   2.937
 4559TIP3   OH213617   5.088   3.577   3.675
 4559TIP3    H113618   5.094   3.624   3.592
 4559TIP3    H213619   5.032   3.632   3.730
 4560TIP3   OH213620   1.486   0.067   1.884
 4560TIP3    H113621   1.417   0.104   1.939
 4560TIP3    H213622   1.444   0.049   1.800
 4561TIP3   OH213623   3.929   3.198   3.022
 4561TIP3    H113624   3.891   3.223   3.106
 4561TIP3    H213625   3.902   3.107   3.010
 4562TIP3   OH213626   2.401   1.217   6.504
 4562TIP3    H113627   2.442   1.131   6.506
 4562TIP3    H213628   2.473   1.279   6.512
 4563TIP3   OH213629   8.391   3.615   4.825
 4563TIP3    H113630   8.324   3.643   4.888
 4563TIP3    H213631   8.342   3.594   4.746
 4564TIP3   OH213632   5.263   4.422   4.379
 4564TIP3    H113633   5.175   4.460   4.378
 4564TIP3    H213634   5.256   4.345   4.322
 4565TIP3   OH213635   0.841   3.694   6.179
 4565TIP3    H113636   0.752   3.709   6.210
 4565TIP3    H213637   0.831   3.685   6.084
 4566TIP3   OH213638   5.644   7.242   2.999
 4566TIP3    H113639   5.663   7.233   2.906
 4566TIP3    H213640   5.584   7.316   3.004
 4567TIP3   OH213641   6.766   1.322   0.635
 4567TIP3    H113642   6.818   1.394   0.598
 4567TIP3    H213643   6.686   1.364   0.666
 4568TIP3   OH213644   5.437   5.660   4.613
 4568TIP3    H113645   5.411   5.747   4.583
 4568TIP3    H213646   5.477   5.676   4.699
 4569TIP3   OH213647   7.198   1.240   3.567
 4569TIP3    H113648   7.163   1.286   3.643
 4569TIP3    H213649   7.292   1.259   3.569
 4570TIP3   OH213650   1.503   3.771   6.087
 4570TIP3    H113651   1.569   3.801   6.025
 4570TIP3    H213652   1.537   3.797   6.173
 4571TIP3   OH213653   3.365   3.749   5.738
 4571TIP3    H113654   3.270   3.740   5.740
 4571TIP3    H213655   3.398   3.666   5.773
 4572TIP3   OH213656   7.634   5.236   1.546
 4572TIP3    H113657   7.606   5.160   1.496
 4572TIP3    H213658   7.642   5.306   1.481
 4573TIP3   OH213659   6.253   1.313   3.806
 4573TIP3    H113660   6.174   1.329   3.858
 4573TIP3    H213661   6.220   1.285   3.720
 4574TIP3   OH213662   3.196   2.540   5.746
 4574TIP3    H113663   3.250   2.554   5.824
 4574TIP3    H213664   3.145   2.461   5.766
 4575TIP3   OH213665   2.035   7.211   0.178
 4575TIP3    H113666   2.028   7.294   0.224
 4575TIP3    H213667   1.951   7.200   0.134
 4576TIP3   OH213668   6.158   2.133   5.193
 4576TIP3    H113669   6.064   2.122   5.179
 4576TIP3    H213670   6.164   2.190   5.270
 4577TIP3   OH213671   0.661   6.502   0.620
 4577TIP3    H113672   0.568   6.486   0.605
 4577TIP3    H213673   0.698   6.415   0.636
 4578TIP3   OH213674   5.176   1.227   5.679
 4578TIP3    H113675   5.222   1.185   5.752
 4578TIP3    H213676   5.119   1.291   5.721
 4579TIP3   OH213677   2.705   1.076   0.827
 4579TIP3    H113678   2.692   1.089   0.921
 4579TIP3    H213679   2.752   1.154   0.798
 4580TIP3   OH213680   3.545   0.951   0.682
 4580TIP3    H113681   3.527   0.947   0.776
 4580TIP3    H213682   3.639   0.933   0.675
 4581TIP3   OH213683   7.263   7.811   6.700
 4581TIP3    H113684   7.284   7.753   6.773
 4581TIP3    H213685   7.324   7.787   6.631
 4582TIP3   OH213686   8.177   1.884   1.913
 4582TIP3    H113687   8.235   1.916   1.844
 4582TIP3    H213688   8.167   1.791   1.894
 4583TIP3   OH213689   1.133   0.070   2.733
 4583TIP3    H113690   1.121   0.165   2.739
 4583TIP3    H213691   1.116   0.038   2.821
 4584TIP3   OH213692   3.674   5.234   6.290
 4584TIP3    H113693   3.652   5.299   6.357
 4584TIP3    H213694   3.638   5.269   6.209
 4585TIP3   OH213695   7.945   1.822   2.036
 4585TIP3    H113696   7.906   1.881   2.101
 4585TIP3    H213697   8.027   1.866   2.011
 4586TIP3   OH213698   0.339   3.094   3.524
 4586TIP3    H113699   0.358   3.090   3.618
 4586TIP3    H213700   0.258   3.044   3.514
 4587TIP3   OH213701   5.973   3.885   0.427
 4587TIP3    H113702   5.937   3.797   0.426
 4587TIP3    H213703   5.899   3.942   0.409
 4588TIP3   OH213704   7.512   5.774   1.935
 4588TIP3    H113705   7.500   5.861   1.896
 4588TIP3    H213706   7.459   5.716   1.881
 4589TIP3   OH213707   2.483   3.556   6.746
 4589TIP3    H113708   2.401   3.511   6.729
 4589TIP3    H213709   2.524   3.567   6.661
 4590TIP3   OH213710   7.842   1.359   5.320
 4590TIP3    H113711   7.753   1.392   5.311
 4590TIP3    H213712   7.840   1.304   5.398
 4591TIP3   OH213713   5.313   1.617   4.345
 4591TIP3    H113714   5.370   1.591   4.417
 4591TIP3    H213715   5.240   1.554   4.348
 4592TIP3   OH213716   6.588   7.708   3.354
 4592TIP3    H113717   6.613   7.653   3.280
 4592TIP3    H213718   6.492   7.710   3.351
 4593TIP3   OH213719   4.890   2.804   0.793
 4593TIP3    H113720   4.943   2.751   0.734
 4593TIP3    H213721   4.904   2.764   0.880
 4594TIP3   OH213722   3.531   4.106   0.031
 4594TIP3    H113723   3.595   4.169   0.064
 4594TIP3    H213724   3.460   4.109   0.094
 4595TIP3   OH213725   4.563   7.500   3.851
 4595TIP3    H113726   4.525   7.529   3.769
 4595TIP3    H213727   4.487   7.483   3.908
 4596TIP3   OH213728   0.818   5.794   3.796
 4596TIP3    H113729   0.837   5.737   3.871
 4596TIP3    H213730   0.753   5.856   3.829
 4597TIP3   OH213731   3.501   2.181   2.034
 4597TIP3    H113732   3.595   2.165   2.045
 4597TIP3    H213733   3.497   2.268   1.993
 4598TIP3   OH213734   5.096   3.791   3.299
 4598TIP3    H113735   5.021   3.839   3.263
 4598TIP3    H213736   5.058   3.711   3.334
 4599TIP3   OH213737   4.789   3.465   5.220
 4599TIP3    H113738   4.695   3.447   5.220
 4599TIP3    H213739   4.824   3.411   5.149
 4600TIP3   OH213740   3.021   4.573   5.136
 4600TIP3    H113741   3.001   4.651   5.085
 4600TIP3    H213742   3.104   4.593   5.178
 4601TIP3   OH213743   3.114   1.106   1.160
 4601TIP3    H113744   3.092   1.192   1.194
 4601TIP3    H213745   3.090   1.110   1.067
 4602TIP3   OH213746   5.544   0.372   3.359
 4602TIP3    H113747   5.533   0.299   3.298
 4602TIP3    H213748   5.579   0.443   3.305
 4603TIP3   OH213749   7.754   4.844   2.313
 4603TIP3    H113750   7.801   4.925   2.291
 4603TIP3    H213751   7.662   4.864   2.295
 4604TIP3   OH213752   4.093   0.681   4.476
 4604TIP3    H113753   4.133   0.662   4.391
 4604TIP3    H213754   4.100   0.600   4.525
 4605TIP3   OH213755   0.400   0.994   5.393
 4605TIP3    H113756   0.434   0.910   5.363
 4605TIP3    H213757   0.348   0.973   5.471
 4606TIP3   OH213758   5.603   4.629   0.970
 4606TIP3    H113759   5.537   4.629   1.039
 4606TIP3    H213760   5.628   4.538   0.960
 4607TIP3   OH213761   0.309   4.532   3.794
 4607TIP3    H113762   0.225   4.549   3.751
 4607TIP3    H213763   0.320   4.437   3.788
 4608TIP3   OH213764   3.041   4.418   3.148
 4608TIP3    H113765   3.060   4.496   3.199
 4608TIP3    H213766   3.005   4.451   3.066
 4609TIP3   OH213767   0.348   4.026   5.634
 4609TIP3    H113768   0.380   4.033   5.544
 4609TIP3    H213769   0.362   4.113   5.671
 4610TIP3   OH213770   7.888   1.252   0.515
 4610TIP3    H113771   7.829   1.180   0.494
 4610TIP3    H213772   7.920   1.231   0.603
 4611TIP3   OH213773   5.712   6.085   5.813
 4611TIP3    H113774   5.675   6.014   5.760
 4611TIP3    H213775   5.671   6.075   5.899
 4612TIP3   OH213776   2.391   2.082   0.085
 4612TIP3    H113777   2.398   2.103  -0.008
 4612TIP3    H213778   2.482   2.069   0.114
 4613TIP3   OH213779   5.341   4.807   0.910
 4613TIP3    H113780   5.271   4.806   0.975
 4613TIP3    H213781   5.342   4.897   0.877
 4614TIP3   OH213782   7.262   1.907   0.054
 4614TIP3    H113783   7.252   1.991   0.009
 4614TIP3    H213784   7.249   1.842  -0.016
 4615TIP3   OH213785   3.278   4.462   1.023
 4615TIP3    H113786   3.266   4.551   0.989
 4615TIP3    H213787   3.358   4.467   1.075
 4616TIP3   OH213788   2.886   6.907   4.225
 4616TIP3    H113789   2.813   6.909   4.164
 4616TIP3    H213790   2.962   6.885   4.171
 4617TIP3   OH213791   4.915   3.316   6.047
 4617TIP3    H113792   4.854   3.387   6.028
 4617TIP3    H213793   4.881   3.241   5.998
 4618TIP3   OH213794   0.303   2.883   3.947
 4618TIP3    H113795   0.209   2.878   3.928
 4618TIP3    H213796   0.323   2.800   3.990
 4619TIP3   OH213797   7.937   5.782   0.360
 4619TIP3    H113798   7.933   5.876   0.374
 4619TIP3    H213799   7.891   5.767   0.278
 4620TIP3   OH213800   7.269   1.175   3.161
 4620TIP3    H113801   7.192   1.224   3.131
 4620TIP3    H213802   7.244   1.140   3.246
 4621TIP3   OH213803   5.572   7.276   0.117
 4621TIP3    H113804   5.477   7.292   0.113
 4621TIP3    H213805   5.611   7.357   0.082
 4622TIP3   OH213806   3.939   7.717   2.999
 4622TIP3    H113807   3.884   7.684   3.070
 4622TIP3    H213808   3.933   7.649   2.932
 4623TIP3   OH213809   2.435   3.948   3.230
 4623TIP3    H113810   2.361   3.912   3.279
 4623TIP3    H213811   2.435   4.042   3.252
 4624TIP3   OH213812   4.137   7.055   5.731
 4624TIP3    H113813   4.212   7.019   5.684
 4624TIP3    H213814   4.168   7.066   5.821
 4625TIP3   OH213815   6.110   5.344   6.332
 4625TIP3    H113816   6.130   5.324   6.423
 4625TIP3    H213817   6.063   5.428   6.335
 4626TIP3   OH213818   5.988   2.890   3.951
 4626TIP3    H113819   6.024   2.916   4.036
 4626TIP3    H213820   6.060   2.904   3.889
 4627TIP3   OH213821   3.225   2.448   3.585
 4627TIP3    H113822   3.265   2.524   3.543
 4627TIP3    H213823   3.131   2.469   3.587
 4628TIP3   OH213824   2.266   1.814   2.838
 4628TIP3    H113825   2.272   1.847   2.748
 4628TIP3    H213826   2.355   1.791   2.862
 4629TIP3   OH213827   1.852   2.896   4.639
 4629TIP3    H113828   1.788   2.867   4.574
 4629TIP3    H213829   1.935   2.899   4.591
 4630TIP3   OH213830   5.129   4.015   4.255
 4630TIP3    H113831   5.073   4.067   4.314
 4630TIP3    H213832   5.199   4.075   4.231
 4631TIP3   OH213833   1.623   7.873   5.359
 4631TIP3    H113834   1.672   7.801   5.319
 4631TIP3    H213835   1.662   7.952   5.322
 4632TIP3   OH213836   6.403   3.458   5.741
 4632TIP3    H113837   6.465   3.446   5.669
 4632TIP3    H213838   6.445   3.417   5.816
 4633TIP3   OH213839   1.974   6.325   2.562
 4633TIP3    H113840   1.914   6.396   2.587
 4633TIP3    H213841   1.928   6.276   2.495
 4634TIP3   OH213842   5.528   3.883   0.282
 4634TIP3    H113843   5.473   3.861   0.358
 4634TIP3    H213844   5.512   3.813   0.220
 4635TIP3   OH213845   0.671   4.288   5.363
 4635TIP3    H113846   0.742   4.254   5.307
 4635TIP3    H213847   0.716   4.338   5.430
 4636TIP3   OH213848   5.448   4.614   1.307
 4636TIP3    H113849   5.475   4.705   1.293
 4636TIP3    H213850   5.452   4.603   1.402
 4637TIP3   OH213851   5.198   7.877   5.626
 4637TIP3    H113852   5.281   7.890   5.672
 4637TIP3    H213853   5.131   7.899   5.691
 4638TIP3   OH213854   0.163   1.936   5.029
 4638TIP3    H113855   0.094   1.982   5.076
 4638TIP3    H213856   0.134   1.935   4.938
 4639TIP3   OH213857   6.019   6.200   4.247
 4639TIP3    H113858   6.016   6.260   4.322
 4639TIP3    H213859   6.082   6.133   4.272
 4640TIP3   OH213860   0.139   7.423   4.847
 4640TIP3    H113861   0.128   7.332   4.818
 4640TIP3    H213862   0.171   7.469   4.770
 4641TIP3   OH213863   5.498   3.675   0.101
 4641TIP3    H113864   5.410   3.709   0.087
 4641TIP3    H213865   5.486   3.599   0.157
 4642TIP3   OH213866   4.935   6.517   5.259
 4642TIP3    H113867   4.889   6.545   5.180
 4642TIP3    H213868   4.934   6.421   5.255
 4643TIP3   OH213869   7.373   3.796   3.894
 4643TIP3    H113870   7.319   3.848   3.834
 4643TIP3    H213871   7.408   3.726   3.840
 4644TIP3   OH213872   7.091   2.317   6.379
 4644TIP3    H113873   7.055   2.402   6.353
 4644TIP3    H213874   7.022   2.254   6.359
 4645TIP3   OH213875   6.103   6.101   0.535
 4645TIP3    H113876   6.045   6.093   0.459
 4645TIP3    H213877   6.103   6.195   0.555
 4646TIP3   OH213878   5.590   5.666   2.787
 4646TIP3    H113879   5.562   5.683   2.697
 4646TIP3    H213880   5.586   5.752   2.830
 4647TIP3   OH213881   3.452   5.753   0.236
 4647TIP3    H113882   3.383   5.798   0.188
 4647TIP3    H213883   3.498   5.823   0.283
 4648TIP3   OH213884   4.156   1.351   3.426
 4648TIP3    H113885   4.180   1.404   3.501
 4648TIP3    H213886   4.203   1.268   3.438
 4649TIP3   OH213887   5.461   2.347   3.346
 4649TIP3    H113888   5.504   2.264   3.367
 4649TIP3    H213889   5.450   2.346   3.251
 4650TIP3   OH213890   5.963   6.371   4.711
 4650TIP3    H113891   5.922   6.332   4.788
 4650TIP3    H213892   5.968   6.300   4.647
 4651TIP3   OH213893   5.561   6.348   5.752
 4651TIP3    H113894   5.486   6.399   5.783
 4651TIP3    H213895   5.571   6.278   5.817
 4652TIP3   OH213896   1.747   0.425   5.671
 4652TIP3    H113897   1.724   0.486   5.740
 4652TIP3    H213898   1.838   0.400   5.690
 4653TIP3   OH213899   8.346   1.403   5.669
 4653TIP3    H113900   8.315   1.492   5.682
 4653TIP3    H213901   8.428   1.413   5.620
 4654TIP3   OH213902   3.956   3.281   1.897
 4654TIP3    H113903   3.974   3.310   1.807
 4654TIP3    H213904   3.877   3.227   1.889
 4655TIP3   OH213905   4.993   5.973   0.682
 4655TIP3    H113906   5.007   6.008   0.769
 4655TIP3    H213907   5.078   5.940   0.655
 4656TIP3   OH213908   6.817   6.743   5.705
 4656TIP3    H113909   6.749   6.708   5.762
 4656TIP3    H213910   6.769   6.788   5.636
 4657TIP3   OH213911   6.408   6.685   1.618
 4657TIP3    H113912   6.345   6.757   1.620
 4657TIP3    H213913   6.462   6.698   1.696
 4658TIP3   OH213914   0.835   2.459   5.931
 4658TIP3    H113915   0.760   2.428   5.982
 4658TIP3    H213916   0.797   2.510   5.860
 4659TIP3   OH213917   2.913   3.170   2.695
 4659TIP3    H113918   2.916   3.262   2.670
 4659TIP3    H213919   3.002   3.138   2.679
 4660TIP3   OH213920   4.729   7.715   6.609
 4660TIP3    H113921   4.714   7.687   6.700
 4660TIP3    H213922   4.722   7.811   6.612
 4661TIP3   OH213923   1.271   4.220   6.375
 4661TIP3    H113924   1.227   4.140   6.402
 4661TIP3    H213925   1.200   4.279   6.349
 4662TIP3   OH213926   4.853   0.422   4.406
 4662TIP3    H113927   4.930   0.476   4.424
 4662TIP3    H213928   4.887   0.332   4.404
 4663TIP3   OH213929   1.451   7.353   1.422
 4663TIP3    H113930   1.433   7.446   1.429
 4663TIP3    H213931   1.518   7.347   1.353
 4664TIP3   OH213932   5.500   0.936   0.198
 4664TIP3    H113933   5.529   0.982   0.120
 4664TIP3    H213934   5.416   0.976   0.220
 4665TIP3   OH213935   4.480   3.000   6.053
 4665TIP3    H113936   4.572   2.974   6.049
 4665TIP3    H213937   4.458   3.025   5.964
 4666TIP3   OH213938   0.422   3.859   1.969
 4666TIP3    H113939   0.338   3.819   1.946
 4666TIP3    H213940   0.411   3.888   2.059
 4667TIP3   OH213941   4.392   6.436   1.986
 4667TIP3    H113942   4.331   6.383   2.037
 4667TIP3    H213943   4.406   6.387   1.905
 4668TIP3   OH213944   7.545   2.936   3.212
 4668TIP3    H113945   7.510   3.015   3.253
 4668TIP3    H213946   7.509   2.864   3.264
 4669TIP3   OH213947   3.589   2.390   6.520
 4669TIP3    H113948   3.635   2.413   6.439
 4669TIP3    H213949   3.636   2.315   6.555
 4670TIP3   OH213950   0.960   6.551   1.560
 4670TIP3    H113951   0.907   6.531   1.483
 4670TIP3    H213952   0.952   6.646   1.571
 4671TIP3   OH213953   8.218   4.574   0.823
 4671TIP3    H113954   8.213   4.614   0.737
 4671TIP3    H213955   8.296   4.518   0.819
 4672TIP3   OH213956   6.160   6.619   1.768
 4672TIP3    H113957   6.131   6.530   1.791
 4672TIP3    H213958   6.208   6.649   1.845
 4673TIP3   OH213959   2.205   2.346   3.026
 4673TIP3    H113960   2.132   2.284   3.024
 4673TIP3    H213961   2.241   2.343   2.938
 4674TIP3   OH213962   6.234   7.165   0.208
 4674TIP3    H113963   6.260   7.086   0.160
 4674TIP3    H213964   6.303   7.178   0.273
 4675TIP3   OH213965   7.121   0.442   0.924
 4675TIP3    H113966   7.130   0.348   0.935
 4675TIP3    H213967   7.077   0.452   0.840
 4676TIP3   OH213968   4.246   5.795   4.130
 4676TIP3    H113969   4.277   5.880   4.162
 4676TIP3    H213970   4.190   5.816   4.056
 4677TIP3   OH213971   0.514   2.651   1.575
 4677TIP3    H113972   0.423   2.652   1.603
 4677TIP3    H213973   0.529   2.561   1.544
 4678TIP3   OH213974   0.492   2.950   0.248
 4678TIP3    H113975   0.576   2.931   0.205
 4678TIP3    H213976   0.426   2.915   0.187
 4679TIP3   OH213977   0.128   4.858   4.441
 4679TIP3    H113978   0.185   4.785   4.463
 4679TIP3    H213979   0.108   4.846   4.348
 4680TIP3   OH213980   6.068   1.902   4.642
 4680TIP3    H113981   6.156   1.909   4.605
 4680TIP3    H213982   6.013   1.880   4.568
 4681TIP3   OH213983   0.991   7.439   6.154
 4681TIP3    H113984   1.041   7.430   6.072
 4681TIP3    H213985   1.043   7.392   6.219
 4682TIP3   OH213986   5.329   7.104   4.006
 4682TIP3    H113987   5.360   7.186   4.045
 4682TIP3    H213988   5.268   7.132   3.938
 4683TIP3   OH213989   6.878   3.511   4.713
 4683TIP3    H113990   6.801   3.454   4.709
 4683TIP3    H213991   6.863   3.576   4.644
 4684TIP3   OH213992   6.176   0.929   2.892
 4684TIP3    H113993   6.159   1.021   2.876
 4684TIP3    H213994   6.231   0.928   2.970
 4685TIP3   OH213995   1.625   2.301   6.375
 4685TIP3    H113996   1.599   2.370   6.314
 4685TIP3    H213997   1.558   2.304   6.444
 4686TIP3   OH213998   7.117   3.836   1.105
 4686TIP3    H113999   7.207   3.805   1.120
 4686TIP3    H214000   7.062   3.771   1.149
 4687TIP3   OH214001   0.934   4.139   0.181
 4687TIP3    H114002   0.988   4.124   0.104
 4687TIP3    H214003   0.956   4.068   0.241
 4688TIP3   OH214004   2.729   7.461   4.600
 4688TIP3    H114005   2.737   7.368   4.621
 4688TIP3    H214006   2.783   7.506   4.664
 4689TIP3   OH214007   0.557   0.315   1.260
 4689TIP3    H114008   0.590   0.225   1.255
 4689TIP3    H214009   0.608   0.356   1.329
 4690TIP3   OH214010   1.934   1.261   5.412
 4690TIP3    H114011   1.855   1.257   5.358
 4690TIP3    H214012   1.964   1.352   5.404
 4691TIP3   OH214013   0.528   1.747   4.226
 4691TIP3    H114014   0.459   1.813   4.231
 4691TIP3    H214015   0.552   1.730   4.317
 4692TIP3   OH214016   1.208   6.684   5.129
 4692TIP3    H114017   1.219   6.771   5.168
 4692TIP3    H214018   1.121   6.686   5.089
 4693TIP3   OH214019   6.969   1.662   5.911
 4693TIP3    H114020   6.985   1.576   5.950
 4693TIP3    H214021   6.969   1.722   5.985
 4694TIP3   OH214022   2.201   3.863   3.358
 4694TIP3    H114023   2.226   3.904   3.441
 4694TIP3    H214024   2.158   3.781   3.384
 4695TIP3   OH214025   8.324   0.409   5.163
 4695TIP3    H114026   8.259   0.463   5.207
 4695TIP3    H214027   8.275   0.361   5.096
 4696TIP3   OH214028   1.255   6.437   6.138
 4696TIP3    H114029   1.178   6.395   6.175
 4696TIP3    H214030   1.308   6.365   6.103
 4697TIP3   OH214031   5.679   2.126   3.687
 4697TIP3    H114032   5.675   2.041   3.731
 4697TIP3    H214033   5.698   2.189   3.757
 4698TIP3   OH214034   0.499   6.705   3.640
 4698TIP3    H114035   0.511   6.616   3.674
 4698TIP3    H214036   0.405   6.711   3.622
 4699TIP3   OH214037   0.259   5.134   0.925
 4699TIP3    H114038   0.301   5.088   0.999
 4699TIP3    H214039   0.290   5.087   0.848
 4700TIP3   OH214040   6.882   5.785   6.574
 4700TIP3    H114041   6.889   5.865   6.521
 4700TIP3    H214042   6.882   5.714   6.510
 4701TIP3   OH214043   4.578   6.368   5.806
 4701TIP3    H114044   4.644   6.404   5.866
 4701TIP3    H214045   4.504   6.346   5.863
 4702TIP3   OH214046   2.417   0.595   2.786
 4702TIP3    H114047   2.385   0.685   2.784
 4702TIP3    H214048   2.344   0.545   2.822
 4703TIP3   OH214049   4.681   2.711   5.497
 4703TIP3    H114050   4.720   2.628   5.468
 4703TIP3    H214051   4.747   2.777   5.478
 4704TIP3   OH214052   1.998   2.599   4.414
 4704TIP3    H114053   1.965   2.597   4.504
 4704TIP3    H214054   1.920   2.589   4.360
 4705TIP3   OH214055   7.655   5.531   0.963
 4705TIP3    H114056   7.636   5.458   1.023
 4705TIP3    H214057   7.571   5.551   0.922
 4706TIP3   OH214058   0.691   1.611   4.477
 4706TIP3    H114059   0.701   1.664   4.556
 4706TIP3    H214060   0.631   1.541   4.501
 4707TIP3   OH214061   5.268   7.868   0.862
 4707TIP3    H114062   5.316   7.792   0.830
 4707TIP3    H214063   5.177   7.837   0.869
 4708TIP3   OH214064   6.979   1.431   2.259
 4708TIP3    H114065   6.978   1.525   2.241
 4708TIP3    H214066   6.993   1.390   2.174
 4709TIP3   OH214067   0.863   7.100   3.053
 4709TIP3    H114068   0.824   7.013   3.049
 4709TIP3    H214069   0.789   7.160   3.043
 4710TIP3   OH214070   2.352   6.337   6.647
 4710TIP3    H114071   2.280   6.374   6.595
 4710TIP3    H214072   2.327   6.245   6.659
 4711TIP3   OH214073   2.715   6.836   1.225
 4711TIP3    H114074   2.695   6.863   1.136
 4711TIP3    H214075   2.738   6.917   1.271
 4712TIP3   OH214076   7.092   2.004   4.553
 4712TIP3    H114077   7.098   2.099   4.543
 4712TIP3    H214078   7.183   1.973   4.548
 4713TIP3   OH214079   4.184   3.658   0.632
 4713TIP3    H114080   4.262   3.675   0.684
 4713TIP3    H214081   4.202   3.574   0.590
 4714TIP3   OH214082   3.704   3.969   3.974
 4714TIP3    H114083   3.694   3.968   3.879
 4714TIP3    H214084   3.616   3.950   4.008
 4715TIP3   OH214085   5.117   0.457   3.216
 4715TIP3    H114086   5.025   0.464   3.243
 4715TIP3    H214087   5.163   0.432   3.296
 4716TIP3   OH214088   4.525   6.120   5.730
 4716TIP3    H114089   4.540   6.213   5.745
 4716TIP3    H214090   4.595   6.077   5.779
 4717TIP3   OH214091   3.403   5.982   6.529
 4717TIP3    H114092   3.397   6.047   6.459
 4717TIP3    H214093   3.477   6.011   6.583
 4718TIP3   OH214094   1.930   4.241   4.929
 4718TIP3    H114095   1.839   4.213   4.927
 4718TIP3    H214096   1.935   4.300   5.005
 4719TIP3   OH214097   2.151   5.325   6.712
 4719TIP3    H114098   2.225   5.266   6.699
 4719TIP3    H214099   2.150   5.342   6.806
 4720TIP3   OH214100   1.714   4.599   0.820
 4720TIP3    H114101   1.671   4.538   0.760
 4720TIP3    H214102   1.643   4.644   0.865
 4721TIP3   OH214103   3.644   1.191   5.380
 4721TIP3    H114104   3.673   1.260   5.320
 4721TIP3    H214105   3.550   1.206   5.390
 4722TIP3   OH214106   4.366   5.602   1.185
 4722TIP3    H114107   4.431   5.555   1.237
 4722TIP3    H214108   4.374   5.565   1.097
 4723TIP3   OH214109   0.466   3.218   0.537
 4723TIP3    H114110   0.371   3.227   0.530
 4723TIP3    H214111   0.494   3.181   0.453
 4724TIP3   OH214112   7.752   7.811   5.132
 4724TIP3    H114113   7.759   7.881   5.197
 4724TIP3    H214114   7.659   7.804   5.114
 4725TIP3   OH214115   5.916   3.718   6.120
 4725TIP3    H114116   5.953   3.651   6.177
 4725TIP3    H214117   5.942   3.691   6.032
 4726TIP3   OH214118   4.370   5.150   0.675
 4726TIP3    H114119   4.426   5.120   0.603
 4726TIP3    H214120   4.383   5.245   0.677
 4727TIP3   OH214121   4.495   3.803   5.954
 4727TIP3    H114122   4.467   3.854   6.029
 4727TIP3    H214123   4.583   3.836   5.935
 4728TIP3   OH214124   4.748   7.795   1.426
 4728TIP3    H114125   4.683   7.821   1.360
 4728TIP3    H214126   4.707   7.722   1.472
 4729TIP3   OH214127   7.672   1.740   0.450
 4729TIP3    H114128   7.614   1.779   0.385
 4729TIP3    H214129   7.658   1.646   0.442
 4730TIP3   OH214130   4.011   5.102   3.195
 4730TIP3    H114131   4.036   5.154   3.119
 4730TIP3    H214132   4.058   5.142   3.268
 4731TIP3   OH214133   0.438   6.750   3.326
 4731TIP3    H114134   0.390   6.668   3.324
 4731TIP3    H214135   0.525   6.727   3.359
 4732TIP3   OH214136   3.152   1.070   6.025
 4732TIP3    H114137   3.066   1.109   6.042
 4732TIP3    H214138   3.204   1.091   6.103
 4733TIP3   OH214139   7.721   7.074   5.264
 4733TIP3    H114140   7.660   7.043   5.196
 4733TIP3    H214141   7.691   7.162   5.284
 4734TIP3   OH214142   2.767   3.173   2.076
 4734TIP3    H114143   2.852   3.157   2.035
 4734TIP3    H214144   2.709   3.195   2.003
 4735TIP3   OH214145   0.926   4.773   1.313
 4735TIP3    H114146   0.929   4.798   1.220
 4735TIP3    H214147   1.009   4.727   1.328
 4736TIP3   OH214148   4.274   2.422   0.459
 4736TIP3    H114149   4.250   2.374   0.379
 4736TIP3    H214150   4.191   2.436   0.505
 4737TIP3   OH214151   6.322   5.599   6.723
 4737TIP3    H114152   6.320   5.684   6.768
 4737TIP3    H214153   6.352   5.619   6.634
 4738TIP3   OH214154   4.281   4.399   3.911
 4738TIP3    H114155   4.251   4.311   3.933
 4738TIP3    H214156   4.304   4.439   3.995
 4739TIP3   OH214157   1.504   4.751   1.932
 4739TIP3    H114158   1.482   4.818   1.997
 4739TIP3    H214159   1.420   4.718   1.902
 4740TIP3   OH214160   1.860   3.484   1.688
 4740TIP3    H114161   1.903   3.552   1.740
 4740TIP3    H214162   1.897   3.494   1.600
 4741TIP3   OH214163   1.701   6.006   4.590
 4741TIP3    H114164   1.645   5.998   4.513
 4741TIP3    H214165   1.693   5.921   4.634
 4742TIP3   OH214166   3.667   6.544   4.590
 4742TIP3    H114167   3.592   6.575   4.641
 4742TIP3    H214168   3.630   6.484   4.526
 4743TIP3   OH214169   2.524   2.032   4.451
 4743TIP3    H114170   2.486   1.946   4.469
 4743TIP3    H214171   2.501   2.085   4.527
 4744TIP3   OH214172   2.329   2.385   1.013
 4744TIP3    H114173   2.376   2.396   0.930
 4744TIP3    H214174   2.390   2.336   1.068
 4745TIP3   OH214175   4.961   6.903   5.386
 4745TIP3    H114176   5.012   6.845   5.330
 4745TIP3    H214177   4.893   6.937   5.328
 4746TIP3   OH214178   6.718   6.438   2.356
 4746TIP3    H114179   6.635   6.390   2.363
 4746TIP3    H214180   6.716   6.476   2.268
 4747TIP3   OH214181   1.199   0.993   0.423
 4747TIP3    H114182   1.192   1.048   0.346
 4747TIP3    H214183   1.120   1.013   0.474
 4748TIP3   OH214184   3.061   5.964   0.399
 4748TIP3    H114185   2.992   6.023   0.367
 4748TIP3    H214186   3.040   5.953   0.492
 4749TIP3   OH214187   6.478   2.947   5.677
 4749TIP3    H114188   6.557   2.978   5.634
 4749TIP3    H214189   6.424   2.913   5.605
 4750TIP3   OH214190   7.298   4.018   1.399
 4750TIP3    H114191   7.342   4.024   1.314
 4750TIP3    H214192   7.310   3.927   1.426
 4751TIP3   OH214193   6.374   0.585   0.421
 4751TIP3    H114194   6.320   0.573   0.343
 4751TIP3    H214195   6.377   0.680   0.434
 4752TIP3   OH214196   3.568   3.090   5.992
 4752TIP3    H114197   3.561   3.175   6.036
 4752TIP3    H214198   3.480   3.073   5.958
 4753TIP3   OH214199   6.318   5.335   1.117
 4753TIP3    H114200   6.403   5.377   1.115
 4753TIP3    H214201   6.256   5.405   1.093
 4754TIP3   OH214202   2.142   0.798   6.740
 4754TIP3    H114203   2.180   0.841   6.817
 4754TIP3    H214204   2.214   0.745   6.705
 4755TIP3   OH214205   0.969   3.369   0.377
 4755TIP3    H114206   0.977   3.355   0.471
 4755TIP3    H214207   0.880   3.403   0.366
 4756TIP3   OH214208   3.594   4.366   0.150
 4756TIP3    H114209   3.559   4.337   0.234
 4756TIP3    H214210   3.677   4.408   0.172
 4757TIP3   OH214211   5.199   2.942   4.889
 4757TIP3    H114212   5.270   3.002   4.912
 4757TIP3    H214213   5.235   2.888   4.819
 4758TIP3   OH214214   8.205   5.038   4.238
 4758TIP3    H114215   8.193   5.052   4.332
 4758TIP3    H214216   8.261   4.961   4.231
 4759TIP3   OH214217   6.768   5.672   5.659
 4759TIP3    H114218   6.714   5.637   5.588
 4759TIP3    H214219   6.740   5.763   5.669
 4760TIP3   OH214220   7.824   4.387   6.609
 4760TIP3    H114221   7.917   4.404   6.621
 4760TIP3    H214222   7.806   4.414   6.518
 4761TIP3   OH214223   0.932   7.028   1.276
 4761TIP3    H114224   0.852   7.062   1.317
 4761TIP3    H214225   0.988   7.104   1.268
 4762TIP3   OH214226   1.296   7.052   3.407
 4762TIP3    H114227   1.287   7.114   3.335
 4762TIP3    H214228   1.211   7.057   3.452
 4763TIP3   OH214229   7.608   6.953   4.153
 4763TIP3    H114230   7.673   7.018   4.180
 4763TIP3    H214231   7.641   6.919   4.070
 4764TIP3   OH214232   5.915   6.983   2.254
 4764TIP3    H114233   5.825   6.979   2.288
 4764TIP3    H214234   5.970   6.988   2.332
 4765TIP3   OH214235   5.510   1.780   4.181
 4765TIP3    H114236   5.442   1.747   4.239
 4765TIP3    H214237   5.585   1.722   4.197
 4766TIP3   OH214238   4.969   5.539   1.416
 4766TIP3    H114239   5.011   5.621   1.390
 4766TIP3    H214240   5.018   5.471   1.370
 4767TIP3   OH214241   2.126   3.575   1.035
 4767TIP3    H114242   2.039   3.570   1.074
 4767TIP3    H214243   2.137   3.667   1.012
 4768TIP3   OH214244   7.147   1.062   0.676
 4768TIP3    H114245   7.175   1.149   0.646
 4768TIP3    H214246   7.058   1.076   0.708
 4769TIP3   OH214247   4.328   4.662   5.667
 4769TIP3    H114248   4.258   4.606   5.635
 4769TIP3    H214249   4.365   4.613   5.741
 4770TIP3   OH214250   3.659   4.023   3.415
 4770TIP3    H114251   3.749   4.051   3.429
 4770TIP3    H214252   3.658   3.990   3.325
 4771TIP3   OH214253   1.568   4.910   1.687
 4771TIP3    H114254   1.581   4.897   1.593
 4771TIP3    H214255   1.572   4.821   1.724
 4772TIP3   OH214256   3.768   1.748   5.061
 4772TIP3    H114257   3.761   1.841   5.042
 4772TIP3    H214258   3.862   1.734   5.076
 4773TIP3   OH214259   8.180   4.661   0.247
 4773TIP3    H114260   8.106   4.610   0.279
 4773TIP3    H214261   8.164   4.750   0.278
 4774TIP3   OH214262   7.888   7.312   3.203
 4774TIP3    H114263   7.868   7.222   3.232
 4774TIP3    H214264   7.943   7.347   3.273
 4775TIP3   OH214265   0.129   5.133   1.241
 4775TIP3    H114266   0.120   5.048   1.283
 4775TIP3    H214267   0.057   5.137   1.178
 4776TIP3   OH214268   3.757   0.947   1.949
 4776TIP3    H114269   3.769   0.872   2.008
 4776TIP3    H214270   3.845   0.973   1.925
 4777TIP3   OH214271   0.029   2.347   5.151
 4777TIP3    H114272  -0.029   2.369   5.078
 4777TIP3    H214273   0.112   2.324   5.110
 4778TIP3   OH214274   0.538   1.961   3.280
 4778TIP3    H114275   0.460   2.009   3.252
 4778TIP3    H214276   0.608   1.994   3.223
 4779TIP3   OH214277   5.331   6.225   0.063
 4779TIP3    H114278   5.389   6.150   0.045
 4779TIP3    H214279   5.339   6.280  -0.015
 4780TIP3   OH214280   7.245   3.473   2.744
 4780TIP3    H114281   7.225   3.539   2.810
 4780TIP3    H214282   7.212   3.510   2.662
 4781TIP3   OH214283   5.213   1.679   4.710
 4781TIP3    H114284   5.124   1.654   4.735
 4781TIP3    H214285   5.201   1.750   4.647
 4782TIP3   OH214286   2.295   3.440   1.543
 4782TIP3    H114287   2.245   3.521   1.532
 4782TIP3    H214288   2.239   3.373   1.503
 4783TIP3   OH214289   6.870   5.783   2.106
 4783TIP3    H114290   6.846   5.822   2.190
 4783TIP3    H214291   6.926   5.848   2.064
 4784TIP3   OH214292   2.813   1.833   2.349
 4784TIP3    H114293   2.900   1.835   2.309
 4784TIP3    H214294   2.788   1.925   2.356
 4785TIP3   OH214295   5.828   0.742   5.204
 4785TIP3    H114296   5.746   0.784   5.230
 4785TIP3    H214297   5.882   0.812   5.168
 4786TIP3   OH214298   0.933   7.820   0.894
 4786TIP3    H114299   0.890   7.765   0.959
 4786TIP3    H214300   1.016   7.846   0.935
 4787TIP3   OH214301   2.851   5.417   0.267
 4787TIP3    H114302   2.902   5.437   0.189
 4787TIP3    H214303   2.781   5.360   0.236
 4788TIP3   OH214304   1.939   6.646   5.963
 4788TIP3    H114305   1.941   6.638   6.058
 4788TIP3    H214306   1.918   6.738   5.947
 4789TIP3   OH214307   6.828  -0.001   0.405
 4789TIP3    H114308   6.754   0.054   0.380
 4789TIP3    H214309   6.896   0.061   0.431
 4790TIP3   OH214310   3.909   3.425   0.685
 4790TIP3    H114311   3.847   3.406   0.755
 4790TIP3    H214312   3.993   3.437   0.730
 4791TIP3   OH214313   5.886   5.949   2.005
 4791TIP3    H114314   5.968   5.969   1.961
 4791TIP3    H214315   5.913   5.903   2.085
 4792TIP3   OH214316   4.396   2.807   1.012
 4792TIP3    H114317   4.394   2.836   1.103
 4792TIP3    H214318   4.363   2.881   0.962
 4793TIP3   OH214319   5.438   1.428   6.460
 4793TIP3    H114320   5.498   1.364   6.496
 4793TIP3    H214321   5.372   1.376   6.413
 4794TIP3   OH214322   6.358   5.889   6.474
 4794TIP3    H114323   6.308   5.922   6.549
 4794TIP3    H214324   6.300   5.903   6.399
 4795TIP3   OH214325   1.195   2.212   1.177
 4795TIP3    H114326   1.208   2.135   1.233
 4795TIP3    H214327   1.176   2.283   1.239
 4796TIP3   OH214328   3.590   6.978   2.765
 4796TIP3    H114329   3.607   6.945   2.853
 4796TIP3    H214330   3.662   6.944   2.713
 4797TIP3   OH214331   2.838   7.668   4.799
 4797TIP3    H114332   2.807   7.648   4.888
 4797TIP3    H214333   2.771   7.726   4.763
 4798TIP3   OH214334   6.047   4.315   3.242
 4798TIP3    H114335   6.120   4.280   3.292
 4798TIP3    H214336   6.049   4.410   3.257
 4799TIP3   OH214337   3.257   5.571   0.327
 4799TIP3    H114338   3.307   5.645   0.292
 4799TIP3    H214339   3.236   5.597   0.417
 4800TIP3   OH214340   1.777   7.665   3.484
 4800TIP3    H114341   1.853   7.620   3.521
 4800TIP3    H214342   1.721   7.684   3.559
 4801TIP3   OH214343   2.817   5.300   4.148
 4801TIP3    H114344   2.886   5.323   4.086
 4801TIP3    H214345   2.737   5.335   4.108
 4802TIP3   OH214346   2.655   5.895   3.012
 4802TIP3    H114347   2.689   5.806   2.999
 4802TIP3    H214348   2.562   5.888   2.988
 4803TIP3   OH214349   4.777   6.187   1.352
 4803TIP3    H114350   4.774   6.224   1.263
 4803TIP3    H214351   4.695   6.139   1.361
 4804TIP3   OH214352   0.058   6.466   0.159
 4804TIP3    H114353   0.048   6.494   0.068
 4804TIP3    H214354  -0.001   6.523   0.208
 4805TIP3   OH214355   7.750   1.670   0.105
 4805TIP3    H114356   7.753   1.761   0.133
 4805TIP3    H214357   7.837   1.635   0.124
 4806TIP3   OH214358   0.945   1.584   2.252
 4806TIP3    H114359   1.029   1.631   2.249
 4806TIP3    H214360   0.938   1.544   2.165
 4807TIP3   OH214361   7.154   1.591   3.447
 4807TIP3    H114362   7.155   1.678   3.488
 4807TIP3    H214363   7.246   1.569   3.435
 4808TIP3   OH214364   5.574   0.748   3.930
 4808TIP3    H114365   5.585   0.833   3.888
 4808TIP3    H214366   5.647   0.741   3.991
 4809TIP3   OH214367   6.731   6.957   3.502
 4809TIP3    H114368   6.754   7.050   3.499
 4809TIP3    H214369   6.671   6.944   3.429
 4810TIP3   OH214370   7.527   2.714   4.374
 4810TIP3    H114371   7.480   2.778   4.428
 4810TIP3    H214372   7.609   2.698   4.421
 4811TIP3   OH214373   6.022   3.497   5.394
 4811TIP3    H114374   6.043   3.585   5.365
 4811TIP3    H214375   5.936   3.504   5.435
 4812TIP3   OH214376   6.302   0.282   2.545
 4812TIP3    H114377   6.327   0.319   2.461
 4812TIP3    H214378   6.330   0.347   2.609
 4813TIP3   OH214379   2.191   2.961   2.772
 4813TIP3    H114380   2.277   2.919   2.776
 4813TIP3    H214381   2.177   2.994   2.861
 4814TIP3   OH214382   7.039   5.987   1.171
 4814TIP3    H114383   7.056   5.915   1.111
 4814TIP3    H214384   6.947   5.976   1.196
 4815TIP3   OH214385   7.314   4.877   4.938
 4815TIP3    H114386   7.396   4.894   4.891
 4815TIP3    H214387   7.319   4.933   5.015
 4816TIP3   OH214388   1.653   7.655   2.421
 4816TIP3    H114389   1.651   7.633   2.328
 4816TIP3    H214390   1.738   7.625   2.451
 4817TIP3   OH214391   0.138   1.091   4.513
 4817TIP3    H114392   0.072   1.024   4.530
 4817TIP3    H214393   0.134   1.105   4.418
 4818TIP3   OH214394   8.304   2.478   3.267
 4818TIP3    H114395   8.261   2.449   3.186
 4818TIP3    H214396   8.370   2.411   3.284
 4819TIP3   OH214397   1.181   0.491   2.336
 4819TIP3    H114398   1.197   0.568   2.390
 4819TIP3    H214399   1.238   0.502   2.260
 4820TIP3   OH214400   4.343   7.752   5.174
 4820TIP3    H114401   4.438   7.759   5.166
 4820TIP3    H214402   4.321   7.673   5.125
 4821TIP3   OH214403   4.278   3.285   4.886
 4821TIP3    H114404   4.330   3.331   4.952
 4821TIP3    H214405   4.218   3.351   4.852
 4822TIP3   OH214406   8.043   3.695   6.589
 4822TIP3    H114407   7.969   3.637   6.608
 4822TIP3    H214408   8.079   3.717   6.675
 4823TIP3   OH214409   8.274   6.536   2.600
 4823TIP3    H114410   8.248   6.477   2.671
 4823TIP3    H214411   8.369   6.544   2.609
 4824TIP3   OH214412   7.921   2.249   3.967
 4824TIP3    H114413   7.929   2.203   4.050
 4824TIP3    H214414   7.852   2.314   3.982
 4825TIP3   OH214415   4.361   4.516   1.757
 4825TIP3    H114416   4.362   4.600   1.711
 4825TIP3    H214417   4.454   4.496   1.771
 4826TIP3   OH214418   6.945   1.352   4.052
 4826TIP3    H114419   6.917   1.294   3.982
 4826TIP3    H214420   6.905   1.437   4.031
 4827TIP3   OH214421   6.003   0.325   0.814
 4827TIP3    H114422   5.944   0.254   0.840
 4827TIP3    H214423   6.079   0.316   0.872
 4828TIP3   OH214424   4.544   0.001   4.047
 4828TIP3    H114425   4.539   0.041   4.134
 4828TIP3    H214426   4.618   0.044   4.005
 4829TIP3   OH214427   7.915   3.458   1.788
 4829TIP3    H114428   7.890   3.549   1.802
 4829TIP3    H214429   7.975   3.460   1.714
 4830TIP3   OH214430   5.441   2.209   5.287
 4830TIP3    H114431   5.368   2.215   5.226
 4830TIP3    H214432   5.519   2.204   5.231
 4831TIP3   OH214433   8.291   1.954   4.127
 4831TIP3    H114434   8.350   1.879   4.136
 4831TIP3    H214435   8.293   1.976   4.034
 4832TIP3   OH214436   6.648   4.479   0.803
 4832TIP3    H114437   6.605   4.521   0.728
 4832TIP3    H214438   6.732   4.449   0.768
 4833TIP3   OH214439   1.520   4.228   6.701
 4833TIP3    H114440   1.441   4.278   6.723
 4833TIP3    H214441   1.492   4.137   6.701
 4834TIP3   OH214442   3.105   0.438   3.820
 4834TIP3    H114443   3.075   0.347   3.823
 4834TIP3    H214444   3.037   0.487   3.866
 4835TIP3   OH214445   2.473   3.152   6.355
 4835TIP3    H114446   2.551   3.172   6.408
 4835TIP3    H214447   2.400   3.165   6.416
 4836TIP3   OH214448   1.886   3.074   5.980
 4836TIP3    H114449   1.904   2.992   6.025
 4836TIP3    H214450   1.960   3.131   6.003
 4837TIP3   OH214451   4.552   7.038   6.325
 4837TIP3    H114452   4.640   7.009   6.300
 4837TIP3    H214453   4.566   7.122   6.368
 4838TIP3   OH214454   5.037   4.717   5.736
 4838TIP3    H114455   5.121   4.689   5.772
 4838TIP3    H214456   5.014   4.795   5.785
 4839TIP3   OH214457   1.321   4.069   0.247
 4839TIP3    H114458   1.296   4.015   0.323
 4839TIP3    H214459   1.300   4.014   0.171
 4840TIP3   OH214460   7.752   2.688   2.423
 4840TIP3    H114461   7.732   2.748   2.351
 4840TIP3    H214462   7.725   2.735   2.502
 4841TIP3   OH214463   0.012   7.429   5.546
 4841TIP3    H114464  -0.026   7.486   5.479
 4841TIP3    H214465   0.039   7.351   5.498
 4842TIP3   OH214466   6.395   6.636   0.180
 4842TIP3    H114467   6.365   6.600   0.096
 4842TIP3    H214468   6.462   6.575   0.209
 4843TIP3   OH214469   1.119   3.399   5.298
 4843TIP3    H114470   1.031   3.366   5.285
 4843TIP3    H214471   1.173   3.321   5.311
 4844TIP3   OH214472   1.048   7.812   3.251
 4844TIP3    H114473   1.006   7.775   3.328
 4844TIP3    H214474   1.066   7.903   3.275
 4845TIP3   OH214475   3.311   4.365   4.295
 4845TIP3    H114476   3.277   4.364   4.384
 4845TIP3    H214477   3.384   4.427   4.298
 4846TIP3   OH214478   4.721   0.622   6.694
 4846TIP3    H114479   4.810   0.614   6.661
 4846TIP3    H214480   4.667   0.636   6.615
 4847TIP3   OH214481   7.281   1.743   6.334
 4847TIP3    H114482   7.276   1.689   6.255
 4847TIP3    H214483   7.349   1.701   6.387
 4848TIP3   OH214484   3.889   6.249   0.719
 4848TIP3    H114485   3.910   6.335   0.683
 4848TIP3    H214486   3.953   6.190   0.680
 4849TIP3   OH214487   7.178   5.006   6.410
 4849TIP3    H114488   7.254   4.949   6.419
 4849TIP3    H214489   7.215   5.090   6.381
 4850TIP3   OH214490   7.395   0.279   1.553
 4850TIP3    H114491   7.405   0.224   1.476
 4850TIP3    H214492   7.316   0.331   1.535
 4851TIP3   OH214493   1.822   6.735   0.667
 4851TIP3    H114494   1.896   6.766   0.615
 4851TIP3    H214495   1.745   6.765   0.618
 4852TIP3   OH214496   4.177   4.200   3.644
 4852TIP3    H114497   4.155   4.292   3.657
 4852TIP3    H214498   4.110   4.153   3.692
 4853TIP3   OH214499   7.477   1.306   3.607
 4853TIP3    H114500   7.542   1.330   3.674
 4853TIP3    H214501   7.453   1.390   3.567
 4854TIP3   OH214502   0.725   0.527   4.898
 4854TIP3    H114503   0.781   0.453   4.876
 4854TIP3    H214504   0.775   0.604   4.870
 4855TIP3   OH214505   5.734   3.225   4.149
 4855TIP3    H114506   5.666   3.163   4.177
 4855TIP3    H214507   5.729   3.224   4.054
 4856TIP3   OH214508   5.464   1.110   3.033
 4856TIP3    H114509   5.484   1.096   2.940
 4856TIP3    H214510   5.392   1.051   3.051
 4857TIP3   OH214511   1.802   7.717   0.056
 4857TIP3    H114512   1.813   7.624   0.077
 4857TIP3    H214513   1.744   7.751   0.125
 4858TIP3   OH214514   0.346   5.862   4.008
 4858TIP3    H114515   0.366   5.782   4.057
 4858TIP3    H214516   0.412   5.864   3.938
 4859TIP3   OH214517   4.023   3.397   6.004
 4859TIP3    H114518   4.100   3.439   6.043
 4859TIP3    H214519   4.036   3.407   5.910
 4860TIP3   OH214520   8.036   7.117   3.442
 4860TIP3    H114521   8.049   7.210   3.425
 4860TIP3    H214522   8.008   7.113   3.533
 4861TIP3   OH214523   3.005   0.358   0.377
 4861TIP3    H114524   3.082   0.302   0.377
 4861TIP3    H214525   3.015   0.413   0.454
 4862TIP3   OH214526   8.312   2.651   1.572
 4862TIP3    H114527   8.350   2.651   1.660
 4862TIP3    H214528   8.335   2.565   1.536
 4863TIP3   OH214529   1.032   4.720   4.101
 4863TIP3    H114530   1.067   4.769   4.175
 4863TIP3    H214531   1.046   4.777   4.026
 4864TIP3   OH214532   7.349   7.313   5.713
 4864TIP3    H114533   7.392   7.385   5.758
 4864TIP3    H214534   7.262   7.347   5.691
 4865TIP3   OH214535   1.188   3.034   5.830
 4865TIP3    H114536   1.210   3.120   5.866
 4865TIP3    H214537   1.214   2.972   5.898
 4866TIP3   OH214538   5.538   5.288   2.337
 4866TIP3    H114539   5.462   5.340   2.312
 4866TIP3    H214540   5.502   5.216   2.389
 4867TIP3   OH214541   0.347   5.798   0.685
 4867TIP3    H114542   0.255   5.772   0.682
 4867TIP3    H214543   0.354   5.872   0.624
 4868TIP3   OH214544   3.916   0.911   3.746
 4868TIP3    H114545   4.011   0.903   3.739
 4868TIP3    H214546   3.895   0.993   3.703
 4869TIP3   OH214547   3.718   4.227   5.592
 4869TIP3    H114548   3.658   4.202   5.663
 4869TIP3    H214549   3.677   4.192   5.513
 4870TIP3   OH214550   5.977   5.771   4.259
 4870TIP3    H114551   5.997   5.679   4.241
 4870TIP3    H214552   6.025   5.820   4.191
 4871TIP3   OH214553   2.549   4.369   2.375
 4871TIP3    H114554   2.559   4.347   2.467
 4871TIP3    H214555   2.584   4.293   2.328
 4872TIP3   OH214556   0.524   2.184   1.358
 4872TIP3    H114557   0.543   2.156   1.268
 4872TIP3    H214558   0.442   2.140   1.380
 4873TIP3   OH214559   0.149   5.135   5.712
 4873TIP3    H114560   0.180   5.069   5.651
 4873TIP3    H214561   0.168   5.219   5.670
 4874TIP3   OH214562   5.484   3.203   1.553
 4874TIP3    H114563   5.503   3.212   1.459
 4874TIP3    H214564   5.393   3.176   1.556
 4875TIP3   OH214565   3.906   0.423   4.824
 4875TIP3    H114566   3.968   0.355   4.851
 4875TIP3    H214567   3.822   0.395   4.860
 4876TIP3   OH214568   4.402   3.971   4.566
 4876TIP3    H114569   4.442   3.925   4.640
 4876TIP3    H214570   4.448   4.055   4.563
 4877TIP3   OH214571   1.758   4.403   3.141
 4877TIP3    H114572   1.759   4.465   3.214
 4877TIP3    H214573   1.734   4.319   3.180
 4878TIP3   OH214574   5.466   6.727   6.709
 4878TIP3    H114575   5.520   6.689   6.640
 4878TIP3    H214576   5.394   6.770   6.663
 4879TIP3   OH214577   7.808   3.926   1.421
 4879TIP3    H114578   7.723   3.945   1.381
 4879TIP3    H214579   7.838   3.846   1.377
 4880TIP3   OH214580   3.009   2.472   3.330
 4880TIP3    H114581   3.078   2.466   3.265
 4880TIP3    H214582   2.930   2.445   3.284
 4881TIP3   OH214583   6.030   1.731   3.142
 4881TIP3    H114584   6.074   1.762   3.221
 4881TIP3    H214585   6.063   1.789   3.073
 4882TIP3   OH214586   3.571   2.912   5.667
 4882TIP3    H114587   3.498   2.948   5.718
 4882TIP3    H214588   3.559   2.817   5.672
 4883TIP3   OH214589   4.654   4.372   5.162
 4883TIP3    H114590   4.568   4.385   5.201
 4883TIP3    H214591   4.702   4.452   5.181
 4884TIP3   OH214592   2.235   0.957   6.517
 4884TIP3    H114593   2.190   0.930   6.597
 4884TIP3    H214594   2.167   0.953   6.449
 4885TIP3   OH214595   0.798   4.551   0.448
 4885TIP3    H114596   0.856   4.483   0.414
 4885TIP3    H214597   0.711   4.525   0.418
 4886TIP3   OH214598   4.981   2.242   1.933
 4886TIP3    H114599   4.930   2.181   1.879
 4886TIP3    H214600   5.072   2.229   1.905
 4887TIP3   OH214601   2.429   6.326   4.050
 4887TIP3    H114602   2.398   6.244   4.089
 4887TIP3    H214603   2.523   6.315   4.040
 4888TIP3   OH214604   2.161   1.529   0.884
 4888TIP3    H114605   2.090   1.547   0.823
 4888TIP3    H214606   2.230   1.591   0.859
 4889TIP3   OH214607   3.048   1.892   1.810
 4889TIP3    H114608   3.006   1.892   1.724
 4889TIP3    H214609   2.978   1.870   1.872
 4890TIP3   OH214610   6.488   2.269   0.760
 4890TIP3    H114611   6.560   2.206   0.760
 4890TIP3    H214612   6.507   2.327   0.686
 4891TIP3   OH214613   8.125   0.086   3.979
 4891TIP3    H114614   8.042   0.071   4.025
 4891TIP3    H214615   8.191   0.086   4.049
 4892TIP3   OH214616   1.509   4.026   5.891
 4892TIP3    H114617   1.498   4.068   5.806
 4892TIP3    H214618   1.600   4.044   5.915
 4893TIP3   OH214619   1.135   0.537   4.176
 4893TIP3    H114620   1.165   0.594   4.246
 4893TIP3    H214621   1.138   0.449   4.214
 4894TIP3   OH214622   5.775   2.287   5.753
 4894TIP3    H114623   5.728   2.204   5.742
 4894TIP3    H214624   5.714   2.353   5.719
 4895TIP3   OH214625   2.577   2.953   2.062
 4895TIP3    H114626   2.670   2.968   2.077
 4895TIP3    H214627   2.536   3.037   2.081
 4896TIP3   OH214628   4.501   3.959   0.187
 4896TIP3    H114629   4.465   3.987   0.271
 4896TIP3    H214630   4.468   3.869   0.176
 4897TIP3   OH214631   1.922   6.637   2.590
 4897TIP3    H114632   1.864   6.684   2.651
 4897TIP3    H214633   1.909   6.682   2.506
 4898TIP3   OH214634   1.882   5.462   4.987
 4898TIP3    H114635   1.847   5.532   4.932
 4898TIP3    H214636   1.926   5.403   4.925
 4899TIP3   OH214637   5.270   6.551   5.002
 4899TIP3    H114638   5.348   6.580   5.049
 4899TIP3    H214639   5.232   6.483   5.057
 4900TIP3   OH214640   7.796   1.697   5.753
 4900TIP3    H114641   7.845   1.772   5.719
 4900TIP3    H214642   7.708   1.732   5.770
 4901TIP3   OH214643   7.466   5.533   6.041
 4901TIP3    H114644   7.526   5.504   6.109
 4901TIP3    H214645   7.379   5.520   6.079
 4902TIP3   OH214646   1.773   7.705   5.788
 4902TIP3    H114647   1.822   7.776   5.828
 4902TIP3    H214648   1.813   7.693   5.702
 4903TIP3   OH214649   6.608   0.627   6.597
 4903TIP3    H114650   6.677   0.602   6.536
 4903TIP3    H214651   6.533   0.647   6.541
 4904TIP3   OH214652   2.970   2.072   5.480
 4904TIP3    H114653   2.877   2.058   5.462
 4904TIP3    H214654   2.976   2.073   5.575
 4905TIP3   OH214655   2.398   2.522   6.409
 4905TIP3    H114656   2.306   2.505   6.387
 4905TIP3    H214657   2.398   2.609   6.446
 4906TIP3   OH214658   6.478   4.482   2.678
 4906TIP3    H114659   6.522   4.455   2.758
 4906TIP3    H214660   6.414   4.413   2.661
 4907TIP3   OH214661   4.301   3.360   2.206
 4907TIP3    H114662   4.232   3.425   2.216
 4907TIP3    H214663   4.260   3.277   2.230
 4908TIP3   OH214664   5.201   1.800   2.703
 4908TIP3    H114665   5.113   1.836   2.691
 4908TIP3    H214666   5.187   1.712   2.736
 4909TIP3   OH214667   2.297   5.484   6.275
 4909TIP3    H114668   2.265   5.420   6.339
 4909TIP3    H214669   2.219   5.516   6.231
 4910TIP3   OH214670   4.437   6.349   3.991
 4910TIP3    H114671   4.362   6.345   4.051
 4910TIP3    H214672   4.508   6.305   4.038
 4911TIP3   OH214673   3.119   3.777   6.010
 4911TIP3    H114674   3.095   3.719   5.937
 4911TIP3    H214675   3.074   3.740   6.086
 4912TIP3   OH214676   0.062   1.397   1.522
 4912TIP3    H114677   0.013   1.318   1.499
 4912TIP3    H214678   0.109   1.372   1.602
 4913TIP3   OH214679   7.044   0.126   1.933
 4913TIP3    H114680   7.013   0.069   2.003
 4913TIP3    H214681   7.099   0.070   1.878
 4914TIP3   OH214682   2.052   0.667   1.495
 4914TIP3    H114683   2.073   0.715   1.575
 4914TIP3    H214684   2.032   0.579   1.525
 4915TIP3   OH214685   6.528   3.052   6.579
 4915TIP3    H114686   6.516   2.963   6.546
 4915TIP3    H214687   6.603   3.086   6.530
 4916TIP3   OH214688   5.884   4.776   3.905
 4916TIP3    H114689   5.888   4.782   3.810
 4916TIP3    H214690   5.907   4.863   3.936
 4917TIP3   OH214691   0.743   6.281   3.999
 4917TIP3    H114692   0.772   6.214   4.062
 4917TIP3    H214693   0.700   6.347   4.053
 4918TIP3   OH214694   5.792   2.105   6.449
 4918TIP3    H114695   5.776   2.160   6.372
 4918TIP3    H214696   5.706   2.094   6.489
 4919TIP3   OH214697   0.929   6.933   5.202
 4919TIP3    H114698   0.870   6.982   5.145
 4919TIP3    H214699   1.016   6.944   5.162
 4920TIP3   OH214700   1.775   4.879   6.132
 4920TIP3    H114701   1.765   4.973   6.118
 4920TIP3    H214702   1.693   4.841   6.101
 4921TIP3   OH214703   4.499   4.237   6.247
 4921TIP3    H114704   4.585   4.222   6.287
 4921TIP3    H214705   4.519   4.283   6.165
 4922TIP3   OH214706   3.037   2.632   2.528
 4922TIP3    H114707   3.117   2.581   2.539
 4922TIP3    H214708   3.062   2.704   2.470
 4923TIP3   OH214709   6.252   7.260   2.529
 4923TIP3    H114710   6.314   7.313   2.480
 4923TIP3    H214711   6.304   7.188   2.566
 4924TIP3   OH214712   2.755   1.253   3.006
 4924TIP3    H114713   2.757   1.282   2.915
 4924TIP3    H214714   2.663   1.234   3.023
 4925TIP3   OH214715   4.927   0.175   6.816
 4925TIP3    H114716   4.952   0.232   6.743
 4925TIP3    H214717   5.009   0.139   6.848
 4926TIP3   OH214718   4.578   0.190   2.755
 4926TIP3    H114719   4.592   0.156   2.666
 4926TIP3    H214720   4.504   0.139   2.788
 4927TIP3   OH214721   6.629   0.174   0.446
 4927TIP3    H114722   6.683   0.253   0.446
 4927TIP3    H214723   6.551   0.199   0.495
 4928TIP3   OH214724   2.387   5.506   2.969
 4928TIP3    H114725   2.294   5.491   2.949
 4928TIP3    H214726   2.390   5.595   3.004
 4929TIP3   OH214727   1.213   3.966   1.500
 4929TIP3    H114728   1.243   3.906   1.432
 4929TIP3    H214729   1.206   4.051   1.457
 4930TIP3   OH214730   0.337   3.454   5.048
 4930TIP3    H114731   0.386   3.384   5.005
 4930TIP3    H214732   0.361   3.533   5.001
 4931TIP3   OH214733   6.528   7.193   0.439
 4931TIP3    H114734   6.562   7.266   0.492
 4931TIP3    H214735   6.471   7.145   0.500
 4932TIP3   OH214736   1.268   0.653   4.404
 4932TIP3    H114737   1.328   0.726   4.416
 4932TIP3    H214738   1.258   0.615   4.492
 4933TIP3   OH214739   7.546   2.314   0.572
 4933TIP3    H114740   7.612   2.383   0.577
 4933TIP3    H214741   7.519   2.300   0.663
 4934TIP3   OH214742   4.636   5.476   2.723
 4934TIP3    H114743   4.700   5.521   2.668
 4934TIP3    H214744   4.572   5.544   2.747
 4935TIP3   OH214745   5.481   7.959   0.007
 4935TIP3    H114746   5.407   7.903   0.031
 4935TIP3    H214747   5.549   7.897  -0.019
 4936TIP3   OH214748   1.056   2.693   5.180
 4936TIP3    H114749   1.140   2.647   5.169
 4936TIP3    H214750   0.994   2.643   5.127
 4937TIP3   OH214751   7.140   2.972   0.899
 4937TIP3    H114752   7.074   2.911   0.933
 4937TIP3    H214753   7.220   2.949   0.946
 4938TIP3   OH214754   2.204   7.912   0.220
 4938TIP3    H114755   2.119   7.950   0.242
 4938TIP3    H214756   2.189   7.866   0.137
 4939TIP3   OH214757   2.228   2.125   4.531
 4939TIP3    H114758   2.309   2.134   4.581
 4939TIP3    H214759   2.159   2.140   4.594
 4940TIP3   OH214760   5.238   1.727   3.144
 4940TIP3    H114761   5.286   1.692   3.069
 4940TIP3    H214762   5.149   1.741   3.112
 4941TIP3   OH214763   7.566   2.180   3.153
 4941TIP3    H114764   7.603   2.220   3.074
 4941TIP3    H214765   7.525   2.099   3.121
 4942TIP3   OH214766   6.368   7.731   1.694
 4942TIP3    H114767   6.350   7.663   1.759
 4942TIP3    H214768   6.432   7.692   1.635
 4943TIP3   OH214769   4.172   7.561   0.263
 4943TIP3    H114770   4.186   7.495   0.195
 4943TIP3    H214771   4.260   7.586   0.291
 4944TIP3   OH214772   8.205   4.583   1.800
 4944TIP3    H114773   8.114   4.559   1.819
 4944TIP3    H214774   8.230   4.526   1.727
 4945TIP3   OH214775   7.879   0.502   0.645
 4945TIP3    H114776   7.922   0.510   0.730
 4945TIP3    H214777   7.936   0.550   0.584
 4946TIP3   OH214778   0.440   6.164   1.167
 4946TIP3    H114779   0.377   6.214   1.219
 4946TIP3    H214780   0.410   6.073   1.175
 4947TIP3   OH214781   0.400   5.279   1.882
 4947TIP3    H114782   0.415   5.201   1.934
 4947TIP3    H214783   0.400   5.248   1.791
 4948TIP3   OH214784   7.225   2.760   5.929
 4948TIP3    H114785   7.248   2.852   5.945
 4948TIP3    H214786   7.148   2.763   5.873
 4949TIP3   OH214787   6.686   7.278   6.662
 4949TIP3    H114788   6.638   7.205   6.700
 4949TIP3    H214789   6.669   7.351   6.722
 4950TIP3   OH214790   7.410   2.734   2.766
 4950TIP3    H114791   7.375   2.758   2.680
 4950TIP3    H214792   7.410   2.815   2.816
 4951TIP3   OH214793   6.823   4.159   1.583
 4951TIP3    H114794   6.917   4.149   1.598
 4951TIP3    H214795   6.790   4.197   1.664
 4952TIP3   OH214796   1.172   2.273   3.437
 4952TIP3    H114797   1.144   2.316   3.356
 4952TIP3    H214798   1.268   2.270   3.431
 4953TIP3   OH214799   2.566   6.174   1.021
 4953TIP3    H114800   2.521   6.105   1.070
 4953TIP3    H214801   2.496   6.232   0.992
 4954TIP3   OH214802   4.625   3.794   3.682
 4954TIP3    H114803   4.629   3.702   3.657
 4954TIP3    H214804   4.712   3.828   3.663
 4955TIP3   OH214805   2.244   3.784   6.391
 4955TIP3    H114806   2.171   3.814   6.338
 4955TIP3    H214807   2.283   3.713   6.339
 4956TIP3   OH214808   0.283   6.932   0.781
 4956TIP3    H114809   0.240   6.863   0.832
 4956TIP3    H214810   0.224   6.948   0.707
 4957TIP3   OH214811   8.237   5.177   0.766
 4957TIP3    H114812   8.317   5.202   0.812
 4957TIP3    H214813   8.266   5.150   0.679
 4958TIP3   OH214814   5.091   0.311   2.579
 4958TIP3    H114815   5.091   0.230   2.631
 4958TIP3    H214816   5.150   0.369   2.626
 4959TIP3   OH214817   6.182   1.133   2.641
 4959TIP3    H114818   6.267   1.153   2.679
 4959TIP3    H214819   6.202   1.085   2.561
 4960TIP3   OH214820   5.246   5.842   4.298
 4960TIP3    H114821   5.300   5.920   4.294
 4960TIP3    H214822   5.210   5.842   4.386
 4961TIP3   OH214823   7.926   2.050   4.149
 4961TIP3    H114824   7.860   1.997   4.194
 4961TIP3    H214825   8.010   2.016   4.178
 4962TIP3   OH214826   7.698   7.388   2.426
 4962TIP3    H114827   7.695   7.475   2.466
 4962TIP3    H214828   7.624   7.386   2.365
 4963TIP3   OH214829   6.667   3.122   5.601
 4963TIP3    H114830   6.756   3.093   5.620
 4963TIP3    H214831   6.661   3.209   5.640
 4964TIP3   OH214832   0.292   3.598   3.803
 4964TIP3    H114833   0.217   3.643   3.841
 4964TIP3    H214834   0.254   3.521   3.760
 4965TIP3   OH214835   2.202   7.038   6.344
 4965TIP3    H114836   2.272   7.081   6.295
 4965TIP3    H214837   2.152   6.990   6.278
 4966TIP3   OH214838   5.823   1.986   3.032
 4966TIP3    H114839   5.876   1.972   2.954
 4966TIP3    H214840   5.758   2.052   3.006
 4967TIP3   OH214841   2.385   3.482   1.995
 4967TIP3    H114842   2.480   3.491   2.008
 4967TIP3    H214843   2.349   3.487   2.084
 4968TIP3   OH214844   2.580   1.923   5.955
 4968TIP3    H114845   2.636   1.996   5.928
 4968TIP3    H214846   2.493   1.946   5.922
 4969TIP3   OH214847   5.956   7.198   3.185
 4969TIP3    H114848   5.941   7.281   3.141
 4969TIP3    H214849   5.965   7.134   3.113
 4970TIP3   OH214850   6.150   7.552   1.977
 4970TIP3    H114851   6.173   7.460   1.963
 4970TIP3    H214852   6.227   7.590   2.019
 4971TIP3   OH214853   5.680   1.969   3.931
 4971TIP3    H114854   5.647   1.990   4.019
 4971TIP3    H214855   5.620   1.903   3.898
 4972TIP3   OH214856   7.722   4.763   2.610
 4972TIP3    H114857   7.781   4.690   2.631
 4972TIP3    H214858   7.750   4.792   2.523
 4973TIP3   OH214859   3.854   2.542   3.593
 4973TIP3    H114860   3.844   2.631   3.558
 4973TIP3    H214861   3.949   2.527   3.592
 4974TIP3   OH214862   3.235   5.869   2.884
 4974TIP3    H114863   3.302   5.814   2.924
 4974TIP3    H214864   3.284   5.932   2.831
 4975TIP3   OH214865   4.786   1.289   3.888
 4975TIP3    H114866   4.802   1.373   3.932
 4975TIP3    H214867   4.766   1.228   3.959
 4976TIP3   OH214868   6.664   0.166   2.364
 4976TIP3    H114869   6.720   0.225   2.415
 4976TIP3    H214870   6.700   0.169   2.275
 4977TIP3   OH214871   4.392   3.587   4.098
 4977TIP3    H114872   4.481   3.551   4.096
 4977TIP3    H214873   4.376   3.607   4.190
 4978TIP3   OH214874   7.679   5.849   5.990
 4978TIP3    H114875   7.626   5.780   5.951
 4978TIP3    H214876   7.629   5.929   5.976
 4979TIP3   OH214877   6.748   6.837   2.165
 4979TIP3    H114878   6.805   6.852   2.241
 4979TIP3    H214879   6.773   6.750   2.133
 4980TIP3   OH214880   5.159   1.635   0.223
 4980TIP3    H114881   5.137   1.725   0.248
 4980TIP3    H214882   5.122   1.582   0.293
 4981TIP3   OH214883   4.209   6.774   2.413
 4981TIP3    H114884   4.251   6.696   2.376
 4981TIP3    H214885   4.182   6.747   2.501
 4982TIP3   OH214886   5.330   1.173   0.233
 4982TIP3    H114887   5.342   1.268   0.236
 4982TIP3    H214888   5.238   1.159   0.253
 4983TIP3   OH214889   2.929   1.453   0.954
 4983TIP3    H114890   2.910   1.543   0.981
 4983TIP3    H214891   3.024   1.447   0.957
 4984TIP3   OH214892   1.073   3.720   0.687
 4984TIP3    H114893   1.078   3.745   0.780
 4984TIP3    H214894   1.163   3.695   0.664
 4985TIP3   OH214895   0.194   4.236   1.611
 4985TIP3    H114896   0.201   4.302   1.542
 4985TIP3    H214897   0.243   4.272   1.685
 4986TIP3   OH214898   6.031   7.548   4.652
 4986TIP3    H114899   6.121   7.581   4.650
 4986TIP3    H214900   6.035   7.470   4.708
 4987TIP3   OH214901   1.076   1.011   3.297
 4987TIP3    H114902   1.066   1.076   3.228
 4987TIP3    H214903   1.170   0.992   3.298
 4988TIP3   OH214904   3.801   7.154   6.038
 4988TIP3    H114905   3.821   7.200   5.956
 4988TIP3    H214906   3.834   7.066   6.025
 4989TIP3   OH214907   7.613   0.725   1.509
 4989TIP3    H114908   7.526   0.709   1.545
 4989TIP3    H214909   7.605   0.703   1.416
 4990TIP3   OH214910   0.912   6.781   2.205
 4990TIP3    H114911   0.868   6.757   2.123
 4990TIP3    H214912   0.945   6.698   2.239
 4991TIP3   OH214913   2.983   6.995   4.759
 4991TIP3    H114914   2.986   7.084   4.724
 4991TIP3    H214915   2.902   6.992   4.810
 4992TIP3   OH214916   2.078   4.281   5.977
 4992TIP3    H114917   2.171   4.281   5.998
 4992TIP3    H214918   2.062   4.194   5.940
 4993TIP3   OH214919   3.656   4.742   5.404
 4993TIP3    H114920   3.638   4.666   5.459
 4993TIP3    H214921   3.752   4.746   5.399
 4994TIP3   OH214922   5.571   5.959   0.824
 4994TIP3    H114923   5.521   5.937   0.746
 4994TIP3    H214924   5.592   6.052   0.813
 4995TIP3   OH214925   3.545   2.206   3.523
 4995TIP3    H114926   3.463   2.184   3.567
 4995TIP3    H214927   3.603   2.132   3.542
 4996TIP3   OH214928   3.241   2.241   5.448
 4996TIP3    H114929   3.146   2.225   5.444
 4996TIP3    H214930   3.260   2.243   5.542
 4997TIP3   OH214931   6.688   3.497   1.172
 4997TIP3    H114932   6.628   3.486   1.245
 4997TIP3    H214933   6.682   3.413   1.124
 4998TIP3   OH214934   2.966   3.095   5.319
 4998TIP3    H114935   2.949   3.014   5.271
 4998TIP3    H214936   2.927   3.081   5.405
 4999TIP3   OH214937   2.000   2.092   5.737
 4999TIP3    H114938   2.069   2.098   5.804
 4999TIP3    H214939   1.922   2.064   5.785
 5000TIP3   OH214940   0.519   7.391   4.225
 5000TIP3    H114941   0.514   7.300   4.195
 5000TIP3    H214942   0.612   7.411   4.222
 5001TIP3   OH214943   6.442   5.858   4.937
 5001TIP3    H114944   6.449   5.951   4.919
 5001TIP3    H214945   6.482   5.815   4.861
 5002TIP3   OH214946   4.983   6.019   4.790
 5002TIP3    H114947   4.904   6.067   4.765
 5002TIP3    H214948   5.043   6.031   4.718
 5003TIP3   OH214949   8.298   6.266   1.615
 5003TIP3    H114950   8.308   6.185   1.665
 5003TIP3    H214951   8.231   6.316   1.663
 5004TIP3   OH214952   2.009   5.520   4.187
 5004TIP3    H114953   1.914   5.534   4.191
 5004TIP3    H214954   2.031   5.535   4.095
 5005TIP3   OH214955   6.032   6.867   0.668
 5005TIP3    H114956   6.048   6.938   0.607
 5005TIP3    H214957   6.007   6.793   0.613
 5006TIP3   OH214958   6.376   2.048   1.933
 5006TIP3    H114959   6.282   2.036   1.925
 5006TIP3    H214960   6.412   2.016   1.851
 5007TIP3   OH214961   6.201   0.926   4.261
 5007TIP3    H114962   6.117   0.970   4.276
 5007TIP3    H214963   6.191   0.884   4.175
 5008TIP3   OH214964   2.621   2.983   4.368
 5008TIP3    H114965   2.566   3.052   4.407
 5008TIP3    H214966   2.694   2.974   4.430
 5009TIP3   OH214967   4.648   3.038   5.573
 5009TIP3    H114968   4.693   3.069   5.652
 5009TIP3    H214969   4.563   3.008   5.603
 5010TIP3   OH214970   6.286   3.572   4.345
 5010TIP3    H114971   6.198   3.600   4.320
 5010TIP3    H214972   6.276   3.535   4.433
 5011TIP3   OH214973   6.829   6.596   2.552
 5011TIP3    H114974   6.781   6.533   2.497
 5011TIP3    H214975   6.851   6.546   2.631
 5012TIP3   OH214976   7.158   1.253   0.243
 5012TIP3    H114977   7.213   1.177   0.224
 5012TIP3    H214978   7.072   1.216   0.263
 5013TIP3   OH214979   0.455   5.086   5.863
 5013TIP3    H114980   0.372   5.133   5.867
 5013TIP3    H214981   0.501   5.126   5.789
 5014TIP3   OH214982   8.127   5.531   0.538
 5014TIP3    H114983   8.219   5.521   0.517
 5014TIP3    H214984   8.117   5.623   0.564
 5015TIP3   OH214985   0.934   4.687   3.528
 5015TIP3    H114986   0.857   4.654   3.482
 5015TIP3    H214987   0.981   4.608   3.555
 5016TIP3   OH214988   0.250   2.902   5.552
 5016TIP3    H114989   0.195   2.824   5.548
 5016TIP3    H214990   0.218   2.952   5.627
 5017TIP3   OH214991   0.054   4.224   1.071
 5017TIP3    H114992   0.100   4.142   1.091
 5017TIP3    H214993   0.122   4.281   1.035
 5018TIP3   OH214994   6.185   2.800   3.443
 5018TIP3    H114995   6.116   2.803   3.509
 5018TIP3    H214996   6.212   2.708   3.442
 5019TIP3   OH214997   4.751   0.496   1.681
 5019TIP3    H114998   4.679   0.495   1.745
 5019TIP3    H214999   4.823   0.453   1.726
 5020TIP3   OH215000   4.457   2.916   1.520
 5020TIP3    H115001   4.516   2.894   1.592
 5020TIP3    H215002   4.505   2.981   1.469
 5021TIP3   OH215003   7.945   3.374   3.587
 5021TIP3    H115004   7.920   3.452   3.538
 5021TIP3    H215005   8.004   3.406   3.656
 5022TIP3   OH215006   4.490   0.483   1.042
 5022TIP3    H115007   4.561   0.498   1.104
 5022TIP3    H215008   4.523   0.416   0.982
 5023TIP3   OH215009   3.030   1.339   3.015
 5023TIP3    H115010   2.940   1.309   3.026
 5023TIP3    H215011   3.046   1.335   2.921
 5024TIP3   OH215012   3.930   0.285   6.142
 5024TIP3    H115013   3.977   0.334   6.209
 5024TIP3    H215014   3.874   0.224   6.190
 5025TIP3   OH215015   0.393   0.849   1.625
 5025TIP3    H115016   0.343   0.910   1.571
 5025TIP3    H215017   0.480   0.847   1.586
 5026TIP3   OH215018   5.127   1.641   3.846
 5026TIP3    H115019   5.065   1.594   3.902
 5026TIP3    H215020   5.081   1.654   3.763
 5027TIP3   OH215021   4.787   7.567   0.508
 5027TIP3    H115022   4.754   7.528   0.426
 5027TIP3    H215023   4.789   7.661   0.491
 5028TIP3   OH215024   6.265   4.434   5.155
 5028TIP3    H115025   6.180   4.465   5.124
 5028TIP3    H215026   6.303   4.388   5.079
 5029TIP3   OH215027   4.137   6.739   2.665
 5029TIP3    H115028   4.202   6.670   2.680
 5029TIP3    H215029   4.053   6.693   2.664
 5030TIP3   OH215030   2.400   3.240   0.267
 5030TIP3    H115031   2.439   3.153   0.274
 5030TIP3    H215032   2.318   3.234   0.316
 5031TIP3   OH215033   4.580   5.649   4.587
 5031TIP3    H115034   4.563   5.556   4.606
 5031TIP3    H215035   4.631   5.647   4.506
 5032TIP3   OH215036   3.592   6.064   4.776
 5032TIP3    H115037   3.541   6.005   4.721
 5032TIP3    H215038   3.636   6.005   4.839
 5033TIP3   OH215039   5.568   2.898   3.112
 5033TIP3    H115040   5.587   2.897   3.206
 5033TIP3    H215041   5.642   2.944   3.073
 5034TIP3   OH215042   1.041   7.033   0.843
 5034TIP3    H115043   1.061   7.009   0.752
 5034TIP3    H215044   0.946   7.036   0.847
 5035TIP3   OH215045   2.139   2.622   0.798
 5035TIP3    H115046   2.080   2.685   0.838
 5035TIP3    H215047   2.093   2.538   0.804
 5036TIP3   OH215048   8.061   4.661   3.266
 5036TIP3    H115049   8.003   4.726   3.228
 5036TIP3    H215050   8.027   4.577   3.235
 5037TIP3   OH215051   3.901   3.380   5.478
 5037TIP3    H115052   3.853   3.302   5.449
 5037TIP3    H215053   3.835   3.448   5.485
 5038TIP3   OH215054   8.003   3.131   1.884
 5038TIP3    H115055   8.051   3.186   1.946
 5038TIP3    H215056   7.971   3.058   1.937
 5039TIP3   OH215057   0.985   2.922   4.110
 5039TIP3    H115058   0.952   2.843   4.066
 5039TIP3    H215059   1.020   2.890   4.193
 5040TIP3   OH215060   8.001   3.952   4.291
 5040TIP3    H115061   8.079   3.904   4.318
 5040TIP3    H215062   7.931   3.886   4.293
 5041TIP3   OH215063   1.749   1.889   0.042
 5041TIP3    H115064   1.833   1.906   0.083
 5041TIP3    H215065   1.771   1.862  -0.048
 5042TIP3   OH215066   3.338   0.516   2.049
 5042TIP3    H115067   3.433   0.511   2.055
 5042TIP3    H215068   3.318   0.609   2.045
 5043TIP3   OH215069   7.669   3.922   5.325
 5043TIP3    H115070   7.695   3.833   5.305
 5043TIP3    H215071   7.611   3.913   5.401
 5044TIP3   OH215072   2.329   4.242   0.849
 5044TIP3    H115073   2.330   4.333   0.879
 5044TIP3    H215074   2.416   4.229   0.809
 5045TIP3   OH215075   8.213   2.820   6.801
 5045TIP3    H115076   8.158   2.890   6.836
 5045TIP3    H215077   8.211   2.833   6.706
 5046TIP3   OH215078   5.168   4.451   3.010
 5046TIP3    H115079   5.118   4.524   3.045
 5046TIP3    H215080   5.200   4.481   2.925
 5047TIP3   OH215081   3.651   0.368   2.919
 5047TIP3    H115082   3.659   0.314   2.840
 5047TIP3    H215083   3.557   0.378   2.932
 5048TIP3   OH215084   5.948   5.949   3.208
 5048TIP3    H115085   6.015   5.996   3.158
 5048TIP3    H215086   5.923   6.009   3.278
 5049TIP3   OH215087   2.456   2.114   4.697
 5049TIP3    H115088   2.458   2.181   4.766
 5049TIP3    H215089   2.490   2.036   4.739
 5050TIP3   OH215090   0.034   0.227   3.391
 5050TIP3    H115091  -0.006   0.314   3.390
 5050TIP3    H215092   0.127   0.243   3.376
 5051TIP3   OH215093   0.449   2.744   2.695
 5051TIP3    H115094   0.365   2.706   2.721
 5051TIP3    H215095   0.442   2.836   2.718
 5052TIP3   OH215096   3.036   7.309   4.744
 5052TIP3    H115097   3.117   7.258   4.736
 5052TIP3    H215098   3.011   7.328   4.654
 5053TIP3   OH215099   4.168   5.797   0.529
 5053TIP3    H115100   4.167   5.758   0.617
 5053TIP3    H215101   4.248   5.848   0.526
 5054TIP3   OH215102   2.242   5.171   5.661
 5054TIP3    H115103   2.182   5.246   5.661
 5054TIP3    H215104   2.297   5.184   5.584
 5055TIP3   OH215105   1.363   0.688   5.385
 5055TIP3    H115106   1.421   0.751   5.427
 5055TIP3    H215107   1.421   0.630   5.336
 5056TIP3   OH215108   0.422   5.731   3.134
 5056TIP3    H115109   0.342   5.733   3.082
 5056TIP3    H215110   0.470   5.655   3.100
 5057TIP3   OH215111   0.822   1.654   0.291
 5057TIP3    H115112   0.865   1.588   0.345
 5057TIP3    H215113   0.740   1.672   0.336
 5058TIP3   OH215114   6.430   1.946   3.607
 5058TIP3    H115115   6.509   1.892   3.613
 5058TIP3    H215116   6.412   1.972   3.697
 5059TIP3   OH215117   6.522   6.437   4.945
 5059TIP3    H115118   6.481   6.501   5.002
 5059TIP3    H215119   6.602   6.480   4.914
 5060TIP3   OH215120   2.971   6.542   6.566
 5060TIP3    H115121   3.063   6.564   6.574
 5060TIP3    H215122   2.931   6.577   6.646
 5061TIP3   OH215123   6.907   0.066   5.299
 5061TIP3    H115124   6.839   0.005   5.328
 5061TIP3    H215125   6.859   0.145   5.273
 5062TIP3   OH215126   8.013   1.769   0.356
 5062TIP3    H115127   7.949   1.806   0.295
 5062TIP3    H215128   8.038   1.686   0.317
 5063TIP3   OH215129   5.157   4.638   3.400
 5063TIP3    H115130   5.235   4.691   3.414
 5063TIP3    H215131   5.103   4.653   3.478
 5064TIP3   OH215132   2.063   7.292   1.893
 5064TIP3    H115133   2.159   7.293   1.885
 5064TIP3    H215134   2.031   7.316   1.806
 5065TIP3   OH215135   7.166   2.013   1.128
 5065TIP3    H115136   7.086   1.973   1.161
 5065TIP3    H215137   7.229   2.005   1.200
 5066TIP3   OH215138   1.009   2.334   5.484
 5066TIP3    H115139   1.004   2.332   5.580
 5066TIP3    H215140   0.994   2.425   5.461
 5067TIP3   OH215141   2.375   6.039   1.194
 5067TIP3    H115142   2.303   5.976   1.196
 5067TIP3    H215143   2.340   6.116   1.239
 5068TIP3   OH215144   7.321   3.400   1.747
 5068TIP3    H115145   7.232   3.397   1.782
 5068TIP3    H215146   7.377   3.381   1.822
 5069TIP3   OH215147   3.657   1.994   0.325
 5069TIP3    H115148   3.611   1.921   0.368
 5069TIP3    H215149   3.602   2.015   0.249
 5070TIP3   OH215150   5.041   4.195   2.530
 5070TIP3    H115151   5.115   4.220   2.475
 5070TIP3    H215152   4.997   4.125   2.481
 5071TIP3   OH215153   2.723   6.893   2.388
 5071TIP3    H115154   2.629   6.894   2.406
 5071TIP3    H215155   2.752   6.808   2.420
 5072TIP3   OH215156   6.710   5.153   6.667
 5072TIP3    H115157   6.778   5.098   6.626
 5072TIP3    H215158   6.649   5.172   6.596
 5073TIP3   OH215159   5.354   1.513   1.723
 5073TIP3    H115160   5.282   1.461   1.758
 5073TIP3    H215161   5.431   1.457   1.734
 5074TIP3   OH215162   4.226   5.916   6.351
 5074TIP3    H115163   4.215   5.916   6.446
 5074TIP3    H215164   4.138   5.932   6.316
 5075TIP3   OH215165   2.495   2.093   2.183
 5075TIP3    H115166   2.578   2.049   2.205
 5075TIP3    H215167   2.471   2.140   2.263
 5076TIP3   OH215168   2.077   1.287   2.334
 5076TIP3    H115169   2.160   1.262   2.293
 5076TIP3    H215170   2.098   1.363   2.388
 5077TIP3   OH215171   5.180   7.395   6.807
 5077TIP3    H115172   5.098   7.378   6.762
 5077TIP3    H215173   5.223   7.309   6.813
 5078TIP3   OH215174   1.516   2.493   5.452
 5078TIP3    H115175   1.567   2.423   5.494
 5078TIP3    H215176   1.539   2.487   5.360
 5079TIP3   OH215177   5.799   4.013   1.264
 5079TIP3    H115178   5.820   4.032   1.172
 5079TIP3    H215179   5.718   3.963   1.260
 5080TIP3   OH215180   5.716   0.374   0.203
 5080TIP3    H115181   5.682   0.349   0.117
 5080TIP3    H215182   5.689   0.303   0.261
 5081TIP3   OH215183   4.578   4.479   5.673
 5081TIP3    H115184   4.551   4.556   5.623
 5081TIP3    H215185   4.668   4.498   5.699
 5082TIP3   OH215186   4.599   6.070   6.543
 5082TIP3    H115187   4.622   6.057   6.451
 5082TIP3    H215188   4.612   6.164   6.558
 5083TIP3   OH215189   2.047   6.266   1.948
 5083TIP3    H115190   2.018   6.336   1.890
 5083TIP3    H215191   2.025   6.298   2.036
 5084TIP3   OH215192   2.282   1.793   0.431
 5084TIP3    H115193   2.250   1.817   0.344
 5084TIP3    H215194   2.353   1.856   0.448
 5085TIP3   OH215195   1.994   2.023   4.340
 5085TIP3    H115196   2.060   2.014   4.408
 5085TIP3    H215197   1.934   1.951   4.354
 5086TIP3   OH215198   4.333   4.210   2.062
 5086TIP3    H115199   4.382   4.132   2.037
 5086TIP3    H215200   4.359   4.226   2.153
 5087TIP3   OH215201   6.573   7.313   0.038
 5087TIP3    H115202   6.524   7.394   0.024
 5087TIP3    H215203   6.663   7.342   0.051
 5088TIP3   OH215204   1.760   3.934   2.655
 5088TIP3    H115205   1.795   3.918   2.567
 5088TIP3    H215206   1.759   3.847   2.697
 5089TIP3   OH215207   6.728   0.395   1.281
 5089TIP3    H115208   6.803   0.336   1.271
 5089TIP3    H215209   6.662   0.343   1.327
 5090TIP3   OH215210   2.692   2.008   5.325
 5090TIP3    H115211   2.663   1.969   5.407
 5090TIP3    H215212   2.715   1.933   5.270
 5091TIP3   OH215213   4.709   2.861   6.060
 5091TIP3    H115214   4.735   2.793   6.122
 5091TIP3    H215215   4.748   2.833   5.977
 5092TIP3   OH215216   3.373   4.595   0.737
 5092TIP3    H115217   3.446   4.544   0.772
 5092TIP3    H215218   3.376   4.580   0.642
 5093TIP3   OH215219   0.826   5.290   0.185
 5093TIP3    H115220   0.852   5.201   0.209
 5093TIP3    H215221   0.879   5.346   0.242
 5094TIP3   OH215222   1.741   0.701   3.588
 5094TIP3    H115223   1.646   0.697   3.588
 5094TIP3    H215224   1.768   0.646   3.514
 5095TIP3   OH215225   3.127   0.357   5.250
 5095TIP3    H115226   3.219   0.330   5.246
 5095TIP3    H215227   3.103   0.348   5.342
 5096TIP3   OH215228   6.103   4.887   1.439
 5096TIP3    H115229   6.083   4.843   1.521
 5096TIP3    H215230   6.163   4.827   1.394
 5097TIP3   OH215231   8.409   1.383   2.958
 5097TIP3    H115232   8.331   1.427   2.993
 5097TIP3    H215233   8.444   1.333   3.032
 5098TIP3   OH215234   5.789   2.546   1.873
 5098TIP3    H115235   5.769   2.453   1.887
 5098TIP3    H215236   5.864   2.563   1.929
 5099TIP3   OH215237   5.998   3.631   6.674
 5099TIP3    H115238   5.965   3.551   6.714
 5099TIP3    H215239   5.965   3.701   6.730
 5100TIP3   OH215240   1.750   5.449   0.247
 5100TIP3    H115241   1.731   5.398   0.325
 5100TIP3    H215242   1.672   5.439   0.192
 5101TIP3   OH215243   0.845   2.442   3.960
 5101TIP3    H115244   0.841   2.487   4.045
 5101TIP3    H215245   0.782   2.489   3.905
 5102TIP3   OH215246   0.347   6.572   6.819
 5102TIP3    H115247   0.311   6.484   6.828
 5102TIP3    H215248   0.438   6.563   6.847
 5103TIP3   OH215249   2.613   1.437   0.057
 5103TIP3    H115250   2.660   1.405   0.134
 5103TIP3    H215251   2.681   1.448  -0.010
 5104TIP3   OH215252   0.423   2.009   4.987
 5104TIP3    H115253   0.474   1.986   5.065
 5104TIP3    H215254   0.332   1.992   5.012
 5105TIP3   OH215255   1.577   7.772   3.661
 5105TIP3    H115256   1.603   7.862   3.680
 5105TIP3    H215257   1.488   7.780   3.625
 5106TIP3   OH215258   6.781   1.814   5.055
 5106TIP3    H115259   6.742   1.832   5.140
 5106TIP3    H215260   6.754   1.724   5.036
 5107TIP3   OH215261   4.855   1.009   2.229
 5107TIP3    H115262   4.779   0.999   2.173
 5107TIP3    H215263   4.858   0.928   2.280
 5108TIP3   OH215264   8.329   0.903   0.079
 5108TIP3    H115265   8.384   0.966   0.124
 5108TIP3    H215266   8.239   0.928   0.101
 5109TIP3   OH215267   6.698   5.440   0.257
 5109TIP3    H115268   6.759   5.374   0.290
 5109TIP3    H215269   6.679   5.495   0.333
 5110TIP3   OH215270   5.605   2.334   3.878
 5110TIP3    H115271   5.523   2.383   3.878
 5110TIP3    H215272   5.628   2.325   3.971
 5111TIP3   OH215273   2.447   7.911   2.345
 5111TIP3    H115274   2.429   7.858   2.423
 5111TIP3    H215275   2.495   7.853   2.286
 5112TIP3   OH215276   4.682   2.220   1.478
 5112TIP3    H115277   4.721   2.283   1.538
 5112TIP3    H215278   4.664   2.270   1.398
 5113TIP3   OH215279   6.099   6.447   5.579
 5113TIP3    H115280   6.076   6.538   5.562
 5113TIP3    H215281   6.139   6.417   5.497
 5114TIP3   OH215282   1.015   5.125   1.557
 5114TIP3    H115283   1.012   5.174   1.640
 5114TIP3    H215284   1.033   5.192   1.491
 5115TIP3   OH215285   1.169   3.041   2.301
 5115TIP3    H115286   1.189   3.130   2.328
 5115TIP3    H215287   1.235   2.987   2.344
 5116TIP3   OH215288   7.075   2.190   1.818
 5116TIP3    H115289   7.076   2.162   1.726
 5116TIP3    H215290   6.996   2.244   1.825
 5117TIP3   OH215291   0.019   3.729   6.128
 5117TIP3    H115292   0.004   3.802   6.067
 5117TIP3    H215293   0.024   3.652   6.072
 5118TIP3   OH215294   0.475   4.176   0.352
 5118TIP3    H115295   0.393   4.153   0.395
 5118TIP3    H215296   0.543   4.136   0.407
 5119TIP3   OH215297   2.428   6.917   2.008
 5119TIP3    H115298   2.429   6.838   1.953
 5119TIP3    H215299   2.518   6.950   2.004
 5120TIP3   OH215300   4.135   7.777   6.514
 5120TIP3    H115301   4.223   7.744   6.528
 5120TIP3    H215302   4.147   7.869   6.490
 5121TIP3   OH215303   6.501   6.494   5.255
 5121TIP3    H115304   6.506   6.518   5.348
 5121TIP3    H215305   6.497   6.398   5.255
 5122TIP3   OH215306   6.562   5.700   0.125
 5122TIP3    H115307   6.540   5.685   0.217
 5122TIP3    H215308   6.589   5.792   0.122
 5123TIP3   OH215309   0.591   2.417   6.133
 5123TIP3    H115310   0.580   2.352   6.202
 5123TIP3    H215311   0.610   2.499   6.179
 5124TIP3   OH215312   0.921   0.328   6.412
 5124TIP3    H115313   0.884   0.367   6.332
 5124TIP3    H215314   1.015   0.343   6.405
 5125TIP3   OH215315   3.565   4.847   1.114
 5125TIP3    H115316   3.603   4.918   1.166
 5125TIP3    H215317   3.606   4.855   1.028
 5126TIP3   OH215318   6.973   3.789   2.950
 5126TIP3    H115319   6.927   3.830   2.877
 5126TIP3    H215320   6.925   3.817   3.028
 5127TIP3   OH215321   8.182   2.391   1.223
 5127TIP3    H115322   8.249   2.325   1.242
 5127TIP3    H215323   8.147   2.414   1.309
 5128TIP3   OH215324   6.859   4.879   2.156
 5128TIP3    H115325   6.881   4.805   2.213
 5128TIP3    H215326   6.930   4.882   2.092
 5129TIP3   OH215327   5.436   5.551   4.038
 5129TIP3    H115328   5.435   5.549   4.133
 5129TIP3    H215329   5.528   5.568   4.015
 5130TIP3   OH215330   3.988   3.721   3.700
 5130TIP3    H115331   3.903   3.691   3.667
 5130TIP3    H215332   4.035   3.751   3.622
 5131TIP3   OH215333   1.111   4.829   6.358
 5131TIP3    H115334   1.044   4.761   6.351
 5131TIP3    H215335   1.193   4.781   6.363
 5132TIP3   OH215336   2.194   1.027   0.685
 5132TIP3    H115337   2.106   0.990   0.679
 5132TIP3    H215338   2.193   1.077   0.767
 5133TIP3   OH215339   3.315   7.005   6.728
 5133TIP3    H115340   3.336   6.955   6.649
 5133TIP3    H215341   3.399   7.045   6.754
 5134TIP3   OH215342   2.707   3.303   5.837
 5134TIP3    H115343   2.775   3.237   5.854
 5134TIP3    H215344   2.649   3.261   5.773
 5135TIP3   OH215345   4.711   6.027   0.678
 5135TIP3    H115346   4.707   6.119   0.705
 5135TIP3    H215347   4.804   6.009   0.667
 5136TIP3   OH215348   5.318   7.733   1.920
 5136TIP3    H115349   5.226   7.712   1.908
 5136TIP3    H215350   5.344   7.776   1.839
 5137TIP3   OH215351   6.046   3.156   1.705
 5137TIP3    H115352   6.069   3.247   1.687
 5137TIP3    H215353   6.129   3.114   1.727
 5138TIP3   OH215354   1.251   6.449   1.375
 5138TIP3    H115355   1.156   6.437   1.375
 5138TIP3    H215356   1.286   6.363   1.399
 5139TIP3   OH215357   7.934   0.684   4.890
 5139TIP3    H115358   7.927   0.728   4.975
 5139TIP3    H215359   8.017   0.716   4.854
 5140TIP3   OH215360   3.172   6.992   6.017
 5140TIP3    H115361   3.152   6.924   5.952
 5140TIP3    H215362   3.261   7.019   5.996
 5141TIP3   OH215363   1.049   0.348   2.822
 5141TIP3    H115364   1.081   0.407   2.889
 5141TIP3    H215365   1.118   0.347   2.755
 5142TIP3   OH215366   7.953   3.267   6.300
 5142TIP3    H115367   7.960   3.296   6.392
 5142TIP3    H215368   7.944   3.172   6.306
 5143TIP3   OH215369   0.279   2.212   2.275
 5143TIP3    H115370   0.187   2.188   2.284
 5143TIP3    H215371   0.326   2.129   2.282
 5144TIP3   OH215372   2.269   6.772   0.625
 5144TIP3    H115373   2.340   6.782   0.562
 5144TIP3    H215374   2.191   6.758   0.571
 5145TIP3   OH215375   5.568   0.618   0.282
 5145TIP3    H115376   5.614   0.702   0.289
 5145TIP3    H215377   5.638   0.554   0.271
 5146TIP3   OH215378   7.859   7.061   2.782
 5146TIP3    H115379   7.892   7.117   2.711
 5146TIP3    H215380   7.835   6.979   2.739
 5147TIP3   OH215381   6.940   2.163   3.409
 5147TIP3    H115382   6.955   2.105   3.335
 5147TIP3    H215383   6.881   2.115   3.467
 5148TIP3   OH215384   5.846   5.774   2.475
 5148TIP3    H115385   5.859   5.799   2.566
 5148TIP3    H215386   5.789   5.843   2.439
 5149TIP3   OH215387   1.837   2.215   2.389
 5149TIP3    H115388   1.852   2.155   2.316
 5149TIP3    H215389   1.808   2.296   2.348
 5150TIP3   OH215390   3.518   0.603   6.765
 5150TIP3    H115391   3.579   0.529   6.761
 5150TIP3    H215392   3.548   0.655   6.840
 5151TIP3   OH215393   2.859   7.213   5.937
 5151TIP3    H115394   2.782   7.246   5.891
 5151TIP3    H215395   2.912   7.173   5.868
 5152TIP3   OH215396   0.789   7.878   5.088
 5152TIP3    H115397   0.707   7.924   5.105
 5152TIP3    H215398   0.819   7.850   5.174
 5153TIP3   OH215399   3.911   4.183   2.262
 5153TIP3    H115400   3.924   4.111   2.325
 5153TIP3    H215401   3.879   4.256   2.315
 5154TIP3   OH215402   1.133   5.945   5.129
 5154TIP3    H115403   1.043   5.972   5.148
 5154TIP3    H215404   1.138   5.943   5.034
 5155TIP3   OH215405   2.926   0.578   3.984
 5155TIP3    H115406   2.845   0.533   3.959
 5155TIP3    H215407   2.946   0.544   4.071
 5156TIP3   OH215408   4.180   7.548   2.082
 5156TIP3    H115409   4.121   7.589   2.019
 5156TIP3    H215410   4.122   7.510   2.148
 5157TIP3   OH215411   3.502   3.495   6.546
 5157TIP3    H115412   3.494   3.590   6.537
 5157TIP3    H215413   3.595   3.477   6.532
 5158TIP3   OH215414   0.136   5.117   2.105
 5158TIP3    H115415   0.109   5.149   2.192
 5158TIP3    H215416   0.121   5.192   2.047
 5159TIP3   OH215417   3.484   1.305   5.652
 5159TIP3    H115418   3.408   1.356   5.625
 5159TIP3    H215419   3.448   1.222   5.684
 5160TIP3   OH215420   4.465   1.449   2.202
 5160TIP3    H115421   4.510   1.534   2.201
 5160TIP3    H215422   4.507   1.399   2.132
 5161TIP3   OH215423   8.312   0.160   2.881
 5161TIP3    H115424   8.223   0.124   2.877
 5161TIP3    H215425   8.356   0.106   2.947
 5162TIP3   OH215426   2.097   6.863   4.368
 5162TIP3    H115427   2.127   6.912   4.444
 5162TIP3    H215428   2.113   6.921   4.294
 5163TIP3   OH215429   1.693   6.060   3.848
 5163TIP3    H115430   1.646   5.988   3.806
 5163TIP3    H215431   1.657   6.139   3.808
 5164TIP3   OH215432   7.996   3.955   3.995
 5164TIP3    H115433   7.924   3.981   4.053
 5164TIP3    H215434   8.029   3.873   4.032
 5165TIP3   OH215435   0.539   0.525   4.218
 5165TIP3    H115436   0.551   0.596   4.280
 5165TIP3    H215437   0.470   0.471   4.257
 5166TIP3   OH215438   1.985   0.150   1.392
 5166TIP3    H115439   1.940   0.083   1.443
 5166TIP3    H215440   2.016   0.105   1.314
 5167TIP3   OH215441   2.060   4.115   0.037
 5167TIP3    H115442   2.115   4.096   0.113
 5167TIP3    H215443   1.999   4.183   0.067
 5168TIP3   OH215444   5.688   2.957   4.804
 5168TIP3    H115445   5.682   3.053   4.805
 5168TIP3    H215446   5.654   2.929   4.889
 5169TIP3   OH215447   7.529   3.547   6.445
 5169TIP3    H115448   7.481   3.468   6.420
 5169TIP3    H215449   7.483   3.580   6.522
 5170TIP3   OH215450   6.758   3.923   6.402
 5170TIP3    H115451   6.725   3.936   6.491
 5170TIP3    H215452   6.847   3.889   6.414
 5171TIP3   OH215453   5.167   1.994   1.805
 5171TIP3    H115454   5.077   2.026   1.814
 5171TIP3    H215455   5.167   1.908   1.847
 5172TIP3   OH215456   6.008   5.791   6.101
 5172TIP3    H115457   5.936   5.748   6.055
 5172TIP3    H215458   6.067   5.821   6.032
 5173TIP3   OH215459   7.660   6.601   2.234
 5173TIP3    H115460   7.747   6.636   2.251
 5173TIP3    H215461   7.648   6.531   2.298
 5174TIP3   OH215462   3.601   5.363   5.026
 5174TIP3    H115463   3.590   5.321   5.111
 5174TIP3    H215464   3.541   5.316   4.968
 5175TIP3   OH215465   0.229   1.641   5.986
 5175TIP3    H115466   0.144   1.601   6.003
 5175TIP3    H215467   0.262   1.595   5.909
 5176TIP3   OH215468   8.017   2.361   5.084
 5176TIP3    H115469   8.038   2.407   5.003
 5176TIP3    H215470   8.064   2.409   5.152
 5177TIP3   OH215471   2.294   6.517   0.378
 5177TIP3    H115472   2.362   6.454   0.401
 5177TIP3    H215473   2.219   6.463   0.352
 5178TIP3   OH215474   1.771   0.771   2.150
 5178TIP3    H115475   1.800   0.707   2.214
 5178TIP3    H215476   1.707   0.825   2.196
 5179TIP3   OH215477   6.090   1.743   1.141
 5179TIP3    H115478   6.139   1.664   1.167
 5179TIP3    H215479   6.015   1.709   1.092
 5180TIP3   OH215480   7.760   4.388   4.201
 5180TIP3    H115481   7.712   4.434   4.270
 5180TIP3    H215482   7.707   4.399   4.123
 5181TIP3   OH215483   7.570   7.580   6.482
 5181TIP3    H115484   7.488   7.625   6.460
 5181TIP3    H215485   7.628   7.600   6.408
 5182TIP3   OH215486   2.407   1.632   1.527
 5182TIP3    H115487   2.423   1.726   1.523
 5182TIP3    H215488   2.494   1.594   1.543
 5183TIP3   OH215489   1.674   2.778   5.657
 5183TIP3    H115490   1.612   2.796   5.586
 5183TIP3    H215491   1.636   2.822   5.733
 5184TIP3   OH215492   5.034   1.695   3.564
 5184TIP3    H115493   4.960   1.691   3.504
 5184TIP3    H215494   5.103   1.646   3.521
 5185TIP3   OH215495   6.298   4.104   2.179
 5185TIP3    H115496   6.308   4.011   2.157
 5185TIP3    H215497   6.210   4.126   2.148
 5186TIP3   OH215498   1.302   6.634   1.563
 5186TIP3    H115499   1.333   6.586   1.640
 5186TIP3    H215500   1.310   6.571   1.491
 5187TIP3   OH215501   5.028   5.787   2.402
 5187TIP3    H115502   5.087   5.835   2.343
 5187TIP3    H215503   5.031   5.836   2.484
 5188TIP3   OH215504   5.392   0.752   5.399
 5188TIP3    H115505   5.365   0.842   5.411
 5188TIP3    H215506   5.442   0.752   5.317
 5189TIP3   OH215507   4.885   4.746   2.486
 5189TIP3    H115508   4.872   4.777   2.576
 5189TIP3    H215509   4.853   4.656   2.487
 5190TIP3   OH215510   2.414   6.112   6.278
 5190TIP3    H115511   2.492   6.061   6.257
 5190TIP3    H215512   2.435   6.201   6.250
 5191TIP3   OH215513   2.257   1.466   5.683
 5191TIP3    H115514   2.273   1.449   5.590
 5191TIP3    H215515   2.163   1.483   5.688
 5192TIP3   OH215516   5.024   4.260   5.771
 5192TIP3    H115517   5.071   4.204   5.708
 5192TIP3    H215518   5.093   4.306   5.818
 5193TIP3   OH215519   7.680   6.231   5.498
 5193TIP3    H115520   7.745   6.297   5.475
 5193TIP3    H215521   7.622   6.275   5.560
 5194TIP3   OH215522   1.008   0.423   1.498
 5194TIP3    H115523   0.994   0.510   1.534
 5194TIP3    H215524   0.979   0.363   1.568
 5195TIP3   OH215525   5.658   2.619   6.478
 5195TIP3    H115526   5.672   2.635   6.571
 5195TIP3    H215527   5.610   2.696   6.448
 5196TIP3   OH215528   0.565   1.111   2.329
 5196TIP3    H115529   0.574   1.206   2.320
 5196TIP3    H215530   0.477   1.097   2.361
 5197TIP3   OH215531   4.972   6.658   6.207
 5197TIP3    H115532   4.977   6.564   6.219
 5197TIP3    H215533   5.023   6.675   6.128
 5198TIP3   OH215534   4.031   4.713   1.848
 5198TIP3    H115535   4.039   4.796   1.895
 5198TIP3    H215536   3.952   4.672   1.886
 5199TIP3   OH215537   7.247   7.851   0.886
 5199TIP3    H115538   7.222   7.936   0.920
 5199TIP3    H215539   7.222   7.854   0.794
 5200TIP3   OH215540   3.531   4.566   2.697
 5200TIP3    H115541   3.527   4.518   2.614
 5200TIP3    H215542   3.458   4.531   2.748
 5201TIP3   OH215543   6.889   2.492   5.743
 5201TIP3    H115544   6.810   2.502   5.690
 5201TIP3    H215545   6.887   2.400   5.770
 5202TIP3   OH215546   5.557   1.800   5.641
 5202TIP3    H115547   5.589   1.713   5.619
 5202TIP3    H215548   5.526   1.837   5.558
 5203TIP3   OH215549   3.015   6.893   5.315
 5203TIP3    H115550   3.092   6.853   5.354
 5203TIP3    H215551   2.948   6.824   5.319
 5204TIP3   OH215552   0.767   3.601   1.129
 5204TIP3    H115553   0.839   3.539   1.126
 5204TIP3    H215554   0.758   3.632   1.039
 5205TIP3   OH215555   6.055   1.852   0.568
 5205TIP3    H115556   6.122   1.905   0.610
 5205TIP3    H215557   5.973   1.897   0.587
 5206TIP3   OH215558   5.817   0.573   0.030
 5206TIP3    H115559   5.768   0.560   0.111
 5206TIP3    H215560   5.868   0.493   0.020
 5207TIP3   OH215561   3.151   4.955   5.598
 5207TIP3    H115562   3.159   4.941   5.693
 5207TIP3    H215563   3.236   4.926   5.563
 5208TIP3   OH215564   7.452   4.101   3.199
 5208TIP3    H115565   7.497   4.037   3.144
 5208TIP3    H215566   7.517   4.170   3.213
 5209TIP3   OH215567   6.166   1.667   0.386
 5209TIP3    H115568   6.092   1.669   0.326
 5209TIP3    H215569   6.147   1.735   0.450
 5210TIP3   OH215570   2.634   1.029   2.357
 5210TIP3    H115571   2.624   1.108   2.304
 5210TIP3    H215572   2.549   1.018   2.400
 5211TIP3   OH215573   8.342   5.003   5.835
 5211TIP3    H115574   8.411   5.055   5.793
 5211TIP3    H215575   8.304   5.062   5.900
 5212TIP3   OH215576   5.683   0.358   4.602
 5212TIP3    H115577   5.761   0.383   4.652
 5212TIP3    H215578   5.697   0.265   4.582
 5213TIP3   OH215579   4.453   7.375   6.067
 5213TIP3    H115580   4.531   7.324   6.089
 5213TIP3    H215581   4.479   7.425   5.990
 5214TIP3   OH215582   7.904   0.187   4.792
 5214TIP3    H115583   7.822   0.138   4.784
 5214TIP3    H215584   7.882   0.275   4.762
 5215TIP3   OH215585   8.153   3.344   5.314
 5215TIP3    H115586   8.133   3.339   5.221
 5215TIP3    H215587   8.148   3.253   5.344
 5216TIP3   OH215588   5.972   1.068   3.466
 5216TIP3    H115589   6.052   1.017   3.456
 5216TIP3    H215590   5.905   1.004   3.490
 5217TIP3   OH215591   3.293   1.433   0.394
 5217TIP3    H115592   3.324   1.507   0.445
 5217TIP3    H215593   3.246   1.378   0.457
 5218TIP3   OH215594   5.783   4.775   2.764
 5218TIP3    H115595   5.723   4.849   2.766
 5218TIP3    H215596   5.849   4.798   2.699
 5219TIP3   OH215597   3.849   3.212   4.068
 5219TIP3    H115598   3.802   3.134   4.041
 5219TIP3    H215599   3.782   3.270   4.104
 5220TIP3   OH215600   4.571   7.476   4.574
 5220TIP3    H115601   4.637   7.436   4.517
 5220TIP3    H215602   4.506   7.406   4.587
 5221TIP3   OH215603   4.294   0.317   5.683
 5221TIP3    H115604   4.322   0.323   5.592
 5221TIP3    H215605   4.226   0.384   5.692
 5222TIP3   OH215606   3.128   7.651   1.061
 5222TIP3    H115607   3.177   7.615   1.134
 5222TIP3    H215608   3.070   7.717   1.100
 5223TIP3   OH215609   6.423   2.195   2.689
 5223TIP3    H115610   6.345   2.211   2.743
 5223TIP3    H215611   6.472   2.128   2.737
 5224TIP3   OH215612   0.522   2.097   6.764
 5224TIP3    H115613   0.473   2.078   6.684
 5224TIP3    H215614   0.455   2.105   6.832
 5225TIP3   OH215615   6.175   5.520   3.554
 5225TIP3    H115616   6.162   5.593   3.616
 5225TIP3    H215617   6.146   5.555   3.470
 5226TIP3   OH215618   5.058   2.683   0.614
 5226TIP3    H115619   5.076   2.607   0.669
 5226TIP3    H215620   5.097   2.660   0.529
 5227TIP3   OH215621   4.952   6.991   2.477
 5227TIP3    H115622   4.907   7.072   2.500
 5227TIP3    H215623   5.039   7.000   2.515
 5228TIP3   OH215624   3.663   6.222   6.503
 5228TIP3    H115625   3.603   6.245   6.574
 5228TIP3    H215626   3.700   6.306   6.475
 5229TIP3   OH215627   5.365   2.913   4.529
 5229TIP3    H115628   5.299   2.858   4.570
 5229TIP3    H215629   5.322   2.950   4.452
 5230TIP3   OH215630   6.857   2.235   3.099
 5230TIP3    H115631   6.944   2.216   3.063
 5230TIP3    H215632   6.825   2.308   3.045
 5231TIP3   OH215633   4.533   3.149   6.718
 5231TIP3    H115634   4.441   3.173   6.733
 5231TIP3    H215635   4.579   3.233   6.716
 5232TIP3   OH215636   3.790   6.047   1.640
 5232TIP3    H115637   3.791   6.109   1.713
 5232TIP3    H215638   3.732   5.976   1.667
 5233TIP3   OH215639   5.764   0.885   4.110
 5233TIP3    H115640   5.817   0.923   4.180
 5233TIP3    H215641   5.795   0.928   4.030
 5234TIP3   OH215642   3.080   4.836   2.016
 5234TIP3    H115643   2.994   4.875   2.000
 5234TIP3    H215644   3.070   4.787   2.097
 5235TIP3   OH215645   2.706   2.058   6.329
 5235TIP3    H115646   2.712   2.150   6.303
 5235TIP3    H215647   2.650   2.059   6.407
 5236TIP3   OH215648   5.166   1.032   1.554
 5236TIP3    H115649   5.132   1.115   1.521
 5236TIP3    H215650   5.092   0.993   1.600
 5237TIP3   OH215651   6.606   0.472   0.284
 5237TIP3    H115652   6.536   0.412   0.260
 5237TIP3    H215653   6.577   0.512   0.366
 5238TIP3   OH215654   2.706   1.011   1.203
 5238TIP3    H115655   2.702   0.927   1.159
 5238TIP3    H215656   2.771   1.061   1.154
 5239TIP3   OH215657   7.784   3.630   2.070
 5239TIP3    H115658   7.691   3.650   2.086
 5239TIP3    H215659   7.812   3.696   2.006
 5240TIP3   OH215660   2.642   5.221   4.479
 5240TIP3    H115661   2.601   5.308   4.480
 5240TIP3    H215662   2.725   5.234   4.433
 5241TIP3   OH215663   5.164   1.412   3.512
 5241TIP3    H115664   5.111   1.375   3.442
 5241TIP3    H215665   5.235   1.458   3.466
 5242TIP3   OH215666   2.919   1.976   4.130
 5242TIP3    H115667   2.856   1.927   4.077
 5242TIP3    H215668   2.874   1.990   4.213
 5243TIP3   OH215669   3.855   3.189   1.341
 5243TIP3    H115670   3.944   3.225   1.338
 5243TIP3    H215671   3.865   3.104   1.383
 5244TIP3   OH215672   0.798   7.668   4.918
 5244TIP3    H115673   0.745   7.669   4.838
 5244TIP3    H215674   0.777   7.750   4.963
 5245TIP3   OH215675   5.270   1.257   6.339
 5245TIP3    H115676   5.309   1.189   6.394
 5245TIP3    H215677   5.246   1.211   6.258
 5246TIP3   OH215678   4.779   2.552   3.546
 5246TIP3    H115679   4.873   2.571   3.539
 5246TIP3    H215680   4.752   2.599   3.625
 5247TIP3   OH215681   3.997   7.278   2.040
 5247TIP3    H115682   4.012   7.311   2.128
 5247TIP3    H215683   3.928   7.213   2.050
 5248TIP3   OH215684   2.049   6.558   3.619
 5248TIP3    H115685   1.990   6.523   3.552
 5248TIP3    H215686   1.992   6.610   3.676
 5249TIP3   OH215687   6.917   2.693   0.124
 5249TIP3    H115688   6.837   2.703   0.175
 5249TIP3    H215689   6.910   2.759   0.056
 5250TIP3   OH215690   6.001   0.297   2.203
 5250TIP3    H115691   5.945   0.238   2.152
 5250TIP3    H215692   5.967   0.292   2.292
 5251TIP3   OH215693   6.987   1.182   2.645
 5251TIP3    H115694   7.021   1.096   2.619
 5251TIP3    H215695   6.936   1.211   2.569
 5252TIP3   OH215696   8.029   0.650   1.456
 5252TIP3    H115697   8.066   0.736   1.473
 5252TIP3    H215698   7.954   0.644   1.515
 5253TIP3   OH215699   1.216   2.297   6.207
 5253TIP3    H115700   1.167   2.379   6.206
 5253TIP3    H215701   1.215   2.267   6.116
 5254TIP3   OH215702   5.291   3.508   5.669
 5254TIP3    H115703   5.383   3.480   5.666
 5254TIP3    H215704   5.295   3.604   5.661
 5255TIP3   OH215705   6.514   5.048   5.230
 5255TIP3    H115706   6.510   5.138   5.196
 5255TIP3    H215707   6.608   5.032   5.241
 5256TIP3   OH215708   7.049   7.772   5.054
 5256TIP3    H115709   7.051   7.740   5.144
 5256TIP3    H215710   6.956   7.772   5.031
 5257TIP3   OH215711   0.221   0.993   1.964
 5257TIP3    H115712   0.239   0.974   2.056
 5257TIP3    H215713   0.267   1.074   1.946
 5258TIP3   OH215714   3.876   6.793   5.289
 5258TIP3    H115715   3.821   6.870   5.298
 5258TIP3    H215716   3.960   6.817   5.327
 5259TIP3   OH215717   6.580   3.512   0.759
 5259TIP3    H115718   6.659   3.490   0.808
 5259TIP3    H215719   6.606   3.505   0.667
 5260TIP3   OH215720   2.469   5.683   6.236
 5260TIP3    H115721   2.543   5.655   6.183
 5260TIP3    H215722   2.412   5.606   6.241
 5261TIP3   OH215723   7.634   1.171   0.383
 5261TIP3    H115724   7.662   1.251   0.429
 5261TIP3    H215725   7.539   1.178   0.381
 5262TIP3   OH215726   6.201   4.909   6.152
 5262TIP3    H115727   6.159   4.994   6.168
 5262TIP3    H215728   6.136   4.845   6.181
 5263TIP3   OH215729   4.583   1.825   0.644
 5263TIP3    H115730   4.493   1.847   0.667
 5263TIP3    H215731   4.637   1.865   0.712
 5264TIP3   OH215732   0.590   0.340   2.373
 5264TIP3    H115733   0.570   0.249   2.398
 5264TIP3    H215734   0.580   0.389   2.455
 5265TIP3   OH215735   6.335   7.258   4.753
 5265TIP3    H115736   6.240   7.267   4.760
 5265TIP3    H215737   6.348   7.213   4.669
 5266TIP3   OH215738   5.052   1.288   1.430
 5266TIP3    H115739   5.122   1.343   1.394
 5266TIP3    H215740   5.001   1.348   1.486
 5267TIP3   OH215741   8.050   1.714   6.299
 5267TIP3    H115742   8.145   1.702   6.309
 5267TIP3    H215743   8.022   1.637   6.250
 5268TIP3   OH215744   8.107   3.006   1.673
 5268TIP3    H115745   8.053   3.048   1.739
 5268TIP3    H215746   8.197   3.015   1.706
 5269TIP3   OH215747   0.180   0.852   5.862
 5269TIP3    H115748   0.182   0.792   5.788
 5269TIP3    H215749   0.109   0.821   5.918
 5270TIP3   OH215750   6.853   5.384   5.383
 5270TIP3    H115751   6.881   5.423   5.301
 5270TIP3    H215752   6.916   5.416   5.448
 5271TIP3   OH215753   1.539   7.103   2.062
 5271TIP3    H115754   1.532   7.089   2.156
 5271TIP3    H215755   1.629   7.079   2.040
 5272TIP3   OH215756   7.752   6.016   1.267
 5272TIP3    H115757   7.717   6.072   1.337
 5272TIP3    H215758   7.686   6.020   1.198
 5273TIP3   OH215759   7.706   3.545   4.401
 5273TIP3    H115760   7.630   3.498   4.434
 5273TIP3    H215761   7.758   3.479   4.355
 5274TIP3   OH215762   2.058   4.939   2.471
 5274TIP3    H115763   2.076   5.030   2.447
 5274TIP3    H215764   2.017   4.945   2.557
 5275TIP3   OH215765   7.798   7.284   0.337
 5275TIP3    H115766   7.726   7.256   0.393
 5275TIP3    H215767   7.866   7.314   0.397
 5276TIP3   OH215768   0.862   4.568   5.006
 5276TIP3    H115769   0.892   4.642   4.953
 5276TIP3    H215770   0.933   4.551   5.067
 5277TIP3   OH215771   4.886   2.371   6.012
 5277TIP3    H115772   4.885   2.276   5.999
 5277TIP3    H215773   4.977   2.396   5.999
 5278TIP3   OH215774   7.022   2.830   3.679
 5278TIP3    H115775   6.995   2.751   3.632
 5278TIP3    H215776   6.942   2.880   3.690
 5279TIP3   OH215777   8.323   6.925   6.354
 5279TIP3    H115778   8.326   6.994   6.420
 5279TIP3    H215779   8.412   6.889   6.351
 5280TIP3   OH215780   4.333   0.283   6.325
 5280TIP3    H115781   4.349   0.300   6.418
 5280TIP3    H215782   4.395   0.339   6.279
 5281TIP3   OH215783   8.040   7.325   5.671
 5281TIP3    H115784   7.982   7.249   5.676
 5281TIP3    H215785   8.116   7.302   5.725
 5282TIP3   OH215786   4.879   5.854   4.392
 5282TIP3    H115787   4.848   5.802   4.466
 5282TIP3    H215788   4.852   5.805   4.315
 5283TIP3   OH215789   8.367   7.747   6.707
 5283TIP3    H115790   8.314   7.720   6.783
 5283TIP3    H215791   8.303   7.755   6.636
 5284TIP3   OH215792   1.355   7.292   0.091
 5284TIP3    H115793   1.265   7.266   0.071
 5284TIP3    H215794   1.402   7.280   0.008
 5285TIP3   OH215795   6.532   0.622   3.494
 5285TIP3    H115796   6.456   0.675   3.471
 5285TIP3    H215797   6.568   0.595   3.410
 5286TIP3   OH215798   0.831   2.147   4.116
 5286TIP3    H115799   0.892   2.201   4.068
 5286TIP3    H215800   0.749   2.197   4.118
 5287TIP3   OH215801   5.261   4.769   4.763
 5287TIP3    H115802   5.352   4.738   4.766
 5287TIP3    H215803   5.210   4.691   4.740
 5288TIP3   OH215804   5.641   3.226   0.913
 5288TIP3    H115805   5.566   3.243   0.856
 5288TIP3    H215806   5.692   3.160   0.866
 5289TIP3   OH215807   5.213   2.741   4.657
 5289TIP3    H115808   5.136   2.708   4.610
 5289TIP3    H215809   5.247   2.664   4.703
 5290TIP3   OH215810   4.166   1.495   6.152
 5290TIP3    H115811   4.089   1.550   6.166
 5290TIP3    H215812   4.196   1.473   6.240
 5291TIP3   OH215813   8.309   3.863   4.029
 5291TIP3    H115814   8.225   3.821   4.046
 5291TIP3    H215815   8.295   3.954   4.055
 5292TIP3   OH215816   7.100   5.605   2.153
 5292TIP3    H115817   7.007   5.615   2.135
 5292TIP3    H215818   7.130   5.694   2.172
 5293TIP3   OH215819   6.122   3.405   1.493
 5293TIP3    H115820   6.118   3.360   1.409
 5293TIP3    H215821   6.031   3.425   1.515
 5294TIP3   OH215822   3.279   0.149   4.176
 5294TIP3    H115823   3.345   0.216   4.194
 5294TIP3    H215824   3.223   0.187   4.108
 5295TIP3   OH215825   1.423   0.291   6.222
 5295TIP3    H115826   1.513   0.270   6.245
 5295TIP3    H215827   1.370   0.231   6.274
 5296TIP3   OH215828   8.163   3.768   1.886
 5296TIP3    H115829   8.244   3.817   1.897
 5296TIP3    H215830   8.167   3.735   1.796
 5297TIP3   OH215831   5.574   0.429   6.067
 5297TIP3    H115832   5.480   0.412   6.074
 5297TIP3    H215833   5.612   0.343   6.049
 5298TIP3   OH215834   4.929   1.264   4.345
 5298TIP3    H115835   4.847   1.233   4.307
 5298TIP3    H215836   4.983   1.185   4.353
 5299TIP3   OH215837   3.471   4.868   5.963
 5299TIP3    H115838   3.444   4.796   5.907
 5299TIP3    H215839   3.523   4.925   5.905
 5300TIP3   OH215840   5.592   6.885   1.490
 5300TIP3    H115841   5.687   6.875   1.497
 5300TIP3    H215842   5.578   6.926   1.404
 5301TIP3   OH215843   3.034   6.467   4.669
 5301TIP3    H115844   2.958   6.461   4.611
 5301TIP3    H215845   3.059   6.560   4.667
 5302TIP3   OH215846   5.178   2.730   2.684
 5302TIP3    H115847   5.263   2.771   2.692
 5302TIP3    H215848   5.163   2.723   2.589
 5303TIP3   OH215849   1.098   5.031   3.235
 5303TIP3    H115850   1.048   5.106   3.267
 5303TIP3    H215851   1.042   4.992   3.168
 5304TIP3   OH215852   2.978   7.133   6.145
 5304TIP3    H115853   3.049   7.088   6.099
 5304TIP3    H215854   2.918   7.160   6.075
 5305TIP3   OH215855   6.689   6.090   5.793
 5305TIP3    H115856   6.722   6.165   5.842
 5305TIP3    H215857   6.663   6.126   5.709
 5306TIP3   OH215858   3.579   4.864   3.936
 5306TIP3    H115859   3.501   4.846   3.988
 5306TIP3    H215860   3.646   4.806   3.972
 5307TIP3   OH215861   2.882   7.464   1.102
 5307TIP3    H115862   2.819   7.447   1.172
 5307TIP3    H215863   2.957   7.408   1.122
 5308TIP3   OH215864   5.548   6.273   0.782
 5308TIP3    H115865   5.567   6.331   0.856
 5308TIP3    H215866   5.592   6.313   0.708
 5309TIP3   OH215867   4.545   0.847   0.674
 5309TIP3    H115868   4.500   0.872   0.593
 5309TIP3    H215869   4.603   0.775   0.649
 5310TIP3   OH215870   8.170   2.375   6.579
 5310TIP3    H115871   8.214   2.452   6.543
 5310TIP3    H215872   8.160   2.316   6.505
 5311TIP3   OH215873   8.022   4.570   4.880
 5311TIP3    H115874   7.997   4.528   4.798
 5311TIP3    H215875   7.950   4.550   4.940
 5312TIP3   OH215876   5.224   5.796   2.210
 5312TIP3    H115877   5.291   5.848   2.165
 5312TIP3    H215878   5.270   5.718   2.240
 5313TIP3   OH215879   0.903   3.835   5.740
 5313TIP3    H115880   0.815   3.804   5.718
 5313TIP3    H215881   0.921   3.796   5.826
 5314TIP3   OH215882   2.957   4.744   5.525
 5314TIP3    H115883   2.997   4.830   5.529
 5314TIP3    H215884   3.011   4.689   5.583
 5315TIP3   OH215885   7.768   0.740   0.052
 5315TIP3    H115886   7.722   0.746   0.136
 5315TIP3    H215887   7.730   0.810  -0.001
 5316TIP3   OH215888   2.951   2.308   4.192
 5316TIP3    H115889   2.885   2.374   4.170
 5316TIP3    H215890   2.918   2.227   4.154
 5317TIP3   OH215891   5.816   4.420   1.718
 5317TIP3    H115892   5.802   4.412   1.624
 5317TIP3    H215893   5.896   4.369   1.735
 5318TIP3   OH215894   7.465   7.065   5.593
 5318TIP3    H115895   7.370   7.068   5.579
 5318TIP3    H215896   7.481   7.130   5.661
 5319TIP3   OH215897   1.055   6.400   1.079
 5319TIP3    H115898   1.044   6.479   1.131
 5319TIP3    H215899   0.993   6.338   1.117
 5320TIP3   OH215900   4.135   1.652   0.189
 5320TIP3    H115901   4.055   1.661   0.240
 5320TIP3    H215902   4.106   1.663   0.098
 5321TIP3   OH215903   6.798   1.396   5.205
 5321TIP3    H115904   6.803   1.455   5.280
 5321TIP3    H215905   6.726   1.431   5.152
 5322TIP3   OH215906   7.097   2.593   2.498
 5322TIP3    H115907   7.167   2.622   2.557
 5322TIP3    H215908   7.088   2.664   2.435
 5323TIP3   OH215909   0.427   4.454   0.766
 5323TIP3    H115910   0.516   4.427   0.745
 5323TIP3    H215911   0.392   4.382   0.818
 5324TIP3   OH215912   5.831   6.376   6.748
 5324TIP3    H115913   5.805   6.316   6.678
 5324TIP3    H215914   5.793   6.338   6.827
 5325TIP3   OH215915   4.151   0.446   3.516
 5325TIP3    H115916   4.087   0.382   3.487
 5325TIP3    H215917   4.205   0.464   3.439
 5326TIP3   OH215918   6.035   4.074   0.994
 5326TIP3    H115919   6.011   4.164   1.017
 5326TIP3    H215920   6.052   4.077   0.900
 5327TIP3   OH215921   2.036   5.574   6.142
 5327TIP3    H115922   2.007   5.591   6.052
 5327TIP3    H215923   1.990   5.493   6.167
 5328TIP3   OH215924   0.347   1.100   4.868
 5328TIP3    H115925   0.331   1.169   4.803
 5328TIP3    H215926   0.411   1.137   4.928
 5329TIP3   OH215927   1.594   1.692   0.915
 5329TIP3    H115928   1.666   1.756   0.918
 5329TIP3    H215929   1.638   1.609   0.896
 5330TIP3   OH215930   8.309   3.575   0.513
 5330TIP3    H115931   8.214   3.570   0.499
 5330TIP3    H215932   8.319   3.605   0.603
 5331TIP3   OH215933   7.697   4.579   0.267
 5331TIP3    H115934   7.699   4.536   0.182
 5331TIP3    H215935   7.755   4.655   0.257
 5332TIP3   OH215936   1.719   5.810   5.462
 5332TIP3    H115937   1.770   5.787   5.384
 5332TIP3    H215938   1.654   5.873   5.430
 5333TIP3   OH215939   2.039   0.021   6.181
 5333TIP3    H115940   2.131   0.044   6.188
 5333TIP3    H215941   2.006   0.075   6.109
 5334TIP3   OH215942   0.433   2.470   0.542
 5334TIP3    H115943   0.497   2.521   0.492
 5334TIP3    H215944   0.348   2.501   0.510
 5335TIP3   OH215945   0.799   2.054   1.652
 5335TIP3    H115946   0.709   2.051   1.683
 5335TIP3    H215947   0.796   2.109   1.573
 5336TIP3   OH215948   4.290   7.259   3.586
 5336TIP3    H115949   4.321   7.251   3.676
 5336TIP3    H215950   4.366   7.235   3.533
 5337TIP3   OH215951   5.977   4.788   4.943
 5337TIP3    H115952   5.991   4.830   5.027
 5337TIP3    H215953   5.901   4.730   4.957
 5338TIP3   OH215954   2.984   0.880   3.518
 5338TIP3    H115955   2.942   0.873   3.432
 5338TIP3    H215956   3.061   0.935   3.503
 5339TIP3   OH215957   1.282   0.848   3.849
 5339TIP3    H115958   1.253   0.910   3.916
 5339TIP3    H215959   1.210   0.785   3.842
 5340TIP3   OH215960   5.514   3.143   2.847
 5340TIP3    H115961   5.580   3.099   2.793
 5340TIP3    H215962   5.434   3.093   2.832
 5341TIP3   OH215963   6.418   2.309   6.512
 5341TIP3    H115964   6.404   2.315   6.606
 5341TIP3    H215965   6.477   2.382   6.491
 5342TIP3   OH215966   6.662   4.870   3.098
 5342TIP3    H115967   6.730   4.911   3.044
 5342TIP3    H215968   6.629   4.798   3.045
 5343TIP3   OH215969   4.858   0.421   3.301
 5343TIP3    H115970   4.842   0.463   3.386
 5343TIP3    H215971   4.810   0.475   3.238
 5344TIP3   OH215972   7.068   6.995   2.879
 5344TIP3    H115973   7.059   6.974   2.786
 5344TIP3    H215974   7.036   7.085   2.886
 5345TIP3   OH215975   0.963   1.155   2.346
 5345TIP3    H115976   0.890   1.162   2.408
 5345TIP3    H215977   1.040   1.180   2.397
 5346TIP3   OH215978   5.999   6.588   0.733
 5346TIP3    H115979   5.927   6.647   0.754
 5346TIP3    H215980   6.039   6.568   0.817
 5347TIP3   OH215981   7.310   4.304   4.708
 5347TIP3    H115982   7.219   4.315   4.735
 5347TIP3    H215983   7.351   4.257   4.780
 5348TIP3   OH215984   3.611   4.263   1.812
 5348TIP3    H115985   3.625   4.175   1.779
 5348TIP3    H215986   3.525   4.260   1.853
 5349TIP3   OH215987   6.673   3.696   0.983
 5349TIP3    H115988   6.655   3.619   1.036
 5349TIP3    H215989   6.593   3.711   0.933
 5350TIP3   OH215990   3.852   3.023   6.303
 5350TIP3    H115991   3.766   3.033   6.263
 5350TIP3    H215992   3.912   3.061   6.239
 5351TIP3   OH215993   4.490   3.915   4.851
 5351TIP3    H115994   4.495   3.940   4.943
 5351TIP3    H215995   4.454   3.825   4.852
 5352TIP3   OH215996   7.765   6.879   2.599
 5352TIP3    H115997   7.741   6.949   2.538
 5352TIP3    H215998   7.688   6.822   2.603
 5353TIP3   OH215999   1.977   2.092   3.792
 5353TIP3    H116000   2.048   2.129   3.844
 5353TIP3    H216001   2.007   2.004   3.769
 5354TIP3   OH216002   7.762   3.281   3.951
 5354TIP3    H116003   7.713   3.283   3.869
 5354TIP3    H216004   7.699   3.309   4.018
 5355TIP3   OH216005   3.698   3.356   4.254
 5355TIP3    H116006   3.641   3.291   4.296
 5355TIP3    H216007   3.651   3.439   4.262
 5356TIP3   OH216008   3.352   4.811   1.313
 5356TIP3    H116009   3.294   4.735   1.324
 5356TIP3    H216010   3.383   4.804   1.223
 5357TIP3   OH216011   1.250   0.453   5.093
 5357TIP3    H116012   1.278   0.441   5.002
 5357TIP3    H216013   1.296   0.533   5.121
 5358TIP3   OH216014   4.843   3.008   2.465
 5358TIP3    H116015   4.853   2.913   2.461
 5358TIP3    H216016   4.850   3.029   2.558
 5359TIP3   OH216017   1.602   5.206   0.306
 5359TIP3    H116018   1.533   5.145   0.332
 5359TIP3    H216019   1.652   5.221   0.387
 5360TIP3   OH216020   4.671   3.925   0.544
 5360TIP3    H116021   4.720   3.876   0.611
 5360TIP3    H216022   4.738   3.953   0.482
 5361TIP3   OH216023   3.308   2.720   2.741
 5361TIP3    H116024   3.402   2.738   2.738
 5361TIP3    H216025   3.295   2.652   2.675
 5362TIP3   OH216026   3.576   3.543   3.498
 5362TIP3    H116027   3.495   3.494   3.487
 5362TIP3    H216028   3.568   3.616   3.436
 5363TIP3   OH216029   7.223   6.894   4.002
 5363TIP3    H116030   7.153   6.835   3.974
 5363TIP3    H216031   7.240   6.950   3.926
 5364TIP3   OH216032   1.837   0.050   3.767
 5364TIP3    H116033   1.785  -0.031   3.759
 5364TIP3    H216034   1.784   0.107   3.823
 5365TIP3   OH216035   4.112   5.681   5.658
 5365TIP3    H116036   4.175   5.612   5.679
 5365TIP3    H216037   4.048   5.678   5.729
 5366TIP3   OH216038   1.243   0.767   6.171
 5366TIP3    H116039   1.260   0.804   6.257
 5366TIP3    H216040   1.324   0.722   6.147
 5367TIP3   OH216041   5.299   6.957   3.620
 5367TIP3    H116042   5.358   6.951   3.545
 5367TIP3    H216043   5.232   7.020   3.593
 5368TIP3   OH216044   5.339   3.572   3.430
 5368TIP3    H116045   5.292   3.564   3.348
 5368TIP3    H216046   5.341   3.666   3.447
 5369TIP3   OH216047   1.446   6.743   4.112
 5369TIP3    H116048   1.511   6.797   4.157
 5369TIP3    H216049   1.414   6.683   4.179
 5370TIP3   OH216050   3.350   6.915   3.174
 5370TIP3    H116051   3.425   6.937   3.119
 5370TIP3    H216052   3.327   6.826   3.148
 5371TIP3   OH216053   7.007   4.132   1.110
 5371TIP3    H116054   6.945   4.096   1.048
 5371TIP3    H216055   7.035   4.057   1.162
 5372TIP3   OH216056   6.140   3.524   3.398
 5372TIP3    H116057   6.055   3.507   3.358
 5372TIP3    H216058   6.203   3.501   3.331
 5373TIP3   OH216059   2.021   3.658   2.636
 5373TIP3    H116060   2.069   3.613   2.706
 5373TIP3    H216061   1.933   3.668   2.671
 5374TIP3   OH216062   1.569   6.774   0.532
 5374TIP3    H116063   1.499   6.752   0.593
 5374TIP3    H216064   1.568   6.870   0.528
 5375TIP3   OH216065   4.309   1.809   1.999
 5375TIP3    H116066   4.258   1.758   2.062
 5375TIP3    H216067   4.261   1.802   1.917
 5376TIP3   OH216068   5.455   5.358   1.263
 5376TIP3    H116069   5.495   5.305   1.195
 5376TIP3    H216070   5.521   5.362   1.333
 5377TIP3   OH216071   4.296   4.368   0.344
 5377TIP3    H116072   4.308   4.339   0.254
 5377TIP3    H216073   4.331   4.297   0.397
 5378TIP3   OH216074   4.121   0.502   5.629
 5378TIP3    H116075   4.067   0.557   5.685
 5378TIP3    H216076   4.074   0.418   5.626
 5379TIP3   OH216077   3.327   1.477   4.166
 5379TIP3    H116078   3.361   1.435   4.087
 5379TIP3    H216079   3.329   1.571   4.145
 5380TIP3   OH216080   5.925   1.760   6.201
 5380TIP3    H116081   5.895   1.835   6.150
 5380TIP3    H216082   5.986   1.714   6.144
 5381TIP3   OH216083   1.053   2.851   1.157
 5381TIP3    H116084   0.986   2.796   1.116
 5381TIP3    H216085   1.122   2.790   1.182
 5382TIP3   OH216086   2.628   0.812   3.387
 5382TIP3    H116087   2.534   0.796   3.377
 5382TIP3    H216088   2.654   0.754   3.460
 5383TIP3   OH216089   6.345   2.802   5.482
 5383TIP3    H116090   6.432   2.767   5.467
 5383TIP3    H216091   6.320   2.841   5.398
 5384TIP3   OH216092   5.738   4.089   0.899
 5384TIP3    H116093   5.765   4.110   0.810
 5384TIP3    H216094   5.776   4.158   0.953
 5385TIP3   OH216095   1.813   6.226   2.983
 5385TIP3    H116096   1.771   6.266   2.907
 5385TIP3    H216097   1.747   6.166   3.018
 5386TIP3   OH216098   5.160   0.443   1.386
 5386TIP3    H116099   5.085   0.496   1.414
 5386TIP3    H216100   5.123   0.356   1.371
 5387TIP3   OH216101   1.403   5.273   0.569
 5387TIP3    H116102   1.401   5.281   0.664
 5387TIP3    H216103   1.312   5.259   0.544
 5388TIP3   OH216104   3.666   7.589   5.563
 5388TIP3    H116105   3.638   7.500   5.585
 5388TIP3    H216106   3.762   7.583   5.557
 5389TIP3   OH216107   0.150   3.118   5.702
 5389TIP3    H116108   0.132   3.123   5.796
 5389TIP3    H216109   0.064   3.129   5.661
 5390TIP3   OH216110   7.712   6.110   6.404
 5390TIP3    H116111   7.636   6.053   6.414
 5390TIP3    H216112   7.708   6.169   6.479
 5391TIP3   OH216113   2.678   5.609   6.063
 5391TIP3    H116114   2.734   5.584   6.137
 5391TIP3    H216115   2.644   5.526   6.030
 5392TIP3   OH216116   5.440   6.138   5.198
 5392TIP3    H116117   5.489   6.216   5.225
 5392TIP3    H216118   5.368   6.132   5.262
 5393TIP3   OH216119   4.723   1.568   5.195
 5393TIP3    H116120   4.634   1.586   5.226
 5393TIP3    H216121   4.780   1.595   5.268
 5394TIP3   OH216122   4.383   2.712   4.245
 5394TIP3    H116123   4.326   2.652   4.198
 5394TIP3    H216124   4.459   2.659   4.270
 5395TIP3   OH216125   1.294   4.724   2.175
 5395TIP3    H116126   1.314   4.815   2.154
 5395TIP3    H216127   1.372   4.691   2.218
 5396TIP3   OH216128   3.333   3.052   0.426
 5396TIP3    H116129   3.378   2.969   0.443
 5396TIP3    H216130   3.272   3.061   0.500
 5397TIP3   OH216131   5.539   5.323   5.961
 5397TIP3    H116132   5.524   5.357   5.872
 5397TIP3    H216133   5.597   5.248   5.948
 5398TIP3   OH216134   5.258   0.689   6.225
 5398TIP3    H116135   5.278   0.603   6.262
 5398TIP3    H216136   5.208   0.669   6.146
 5399TIP3   OH216137   4.998   5.621   3.209
 5399TIP3    H116138   5.005   5.547   3.268
 5399TIP3    H216139   5.072   5.611   3.149
 5400TIP3   OH216140   3.126   4.618   1.333
 5400TIP3    H116141   3.082   4.570   1.263
 5400TIP3    H216142   3.055   4.643   1.393
 5401TIP3   OH216143   6.927   5.252   4.951
 5401TIP3    H116144   6.999   5.315   4.951
 5401TIP3    H216145   6.956   5.183   5.011
 5402TIP3   OH216146   0.628   4.417   1.474
 5402TIP3    H116147   0.596   4.356   1.541
 5402TIP3    H216148   0.714   4.382   1.449
 5403TIP3   OH216149   3.364   4.139   3.094
 5403TIP3    H116150   3.279   4.151   3.052
 5403TIP3    H216151   3.403   4.227   3.095
 5404TIP3   OH216152   5.249   2.426   2.579
 5404TIP3    H116153   5.344   2.425   2.566
 5404TIP3    H216154   5.228   2.338   2.610
 5405TIP3   OH216155   3.724   4.840   0.581
 5405TIP3    H116156   3.746   4.893   0.504
 5405TIP3    H216157   3.665   4.773   0.548
 5406TIP3   OH216158   5.965   7.009   3.650
 5406TIP3    H116159   6.001   7.065   3.583
 5406TIP3    H216160   6.015   7.029   3.729
 5407TIP3   OH216161   4.451   1.887   3.535
 5407TIP3    H116162   4.544   1.912   3.527
 5407TIP3    H216163   4.440   1.864   3.627
 5408TIP3   OH216164   2.795   0.511   1.363
 5408TIP3    H116165   2.861   0.442   1.370
 5408TIP3    H216166   2.843   0.591   1.383
 5409TIP3   OH216167   0.844   5.662   5.734
 5409TIP3    H116168   0.909   5.714   5.781
 5409TIP3    H216169   0.767   5.664   5.790
 5410TIP3   OH216170   3.575   6.228   2.130
 5410TIP3    H116171   3.596   6.319   2.109
 5410TIP3    H216172   3.562   6.227   2.224
 5411TIP3   OH216173   4.062   2.622   4.417
 5411TIP3    H116174   4.125   2.692   4.399
 5411TIP3    H216175   4.062   2.569   4.337
 5412TIP3   OH216176   1.250   2.536   0.216
 5412TIP3    H116177   1.187   2.590   0.264
 5412TIP3    H216178   1.251   2.574   0.128
 5413TIP3   OH216179   6.329   7.071   6.354
 5413TIP3    H116180   6.317   7.165   6.372
 5413TIP3    H216181   6.423   7.057   6.365
 5414TIP3   OH216182   4.371   4.297   5.673
 5414TIP3    H116183   4.429   4.369   5.699
 5414TIP3    H216184   4.365   4.304   5.578
 5415TIP3   OH216185   1.015   3.402   2.491
 5415TIP3    H116186   1.046   3.482   2.533
 5415TIP3    H216187   0.938   3.376   2.542
 5416TIP3   OH216188   0.430   4.781   5.050
 5416TIP3    H116189   0.434   4.794   5.145
 5416TIP3    H216190   0.381   4.699   5.039
 5417TIP3   OH216191   2.714   0.116   5.052
 5417TIP3    H116192   2.759   0.201   5.057
 5417TIP3    H216193   2.709   0.087   5.143
 5418TIP3   OH216194   6.192   0.121   3.620
 5418TIP3    H116195   6.150   0.175   3.687
 5418TIP3    H216196   6.267   0.081   3.665
 5419TIP3   OH216197   1.022   0.525   3.296
 5419TIP3    H116198   0.973   0.483   3.366
 5419TIP3    H216199   0.971   0.604   3.275
 5420TIP3   OH216200   6.779   3.447   4.122
 5420TIP3    H116201   6.715   3.508   4.159
 5420TIP3    H216202   6.737   3.411   4.044
 5421TIP3   OH216203   1.283   5.896   5.980
 5421TIP3    H116204   1.363   5.947   5.974
 5421TIP3    H216205   1.303   5.827   6.043
 5422TIP3   OH216206   1.475   1.992   0.141
 5422TIP3    H116207   1.387   1.978   0.107
 5422TIP3    H216208   1.512   1.904   0.149
 5423TIP3   OH216209   0.933   1.562   0.726
 5423TIP3    H116210   0.937   1.485   0.783
 5423TIP3    H216211   0.913   1.526   0.639
 5424TIP3   OH216212   1.106   0.002   3.042
 5424TIP3    H116213   1.183   0.045   3.080
 5424TIP3    H216214   1.031   0.049   3.079
 5425TIP3   OH216215   1.695   5.263   2.719
 5425TIP3    H116216   1.601   5.271   2.733
 5425TIP3    H216217   1.705   5.186   2.663
 5426TIP3   OH216218   2.034   4.008   6.419
 5426TIP3    H116219   1.996   3.978   6.502
 5426TIP3    H216220   2.115   4.053   6.444
 5427TIP3   OH216221   2.737   0.400   5.782
 5427TIP3    H116222   2.661   0.400   5.839
 5427TIP3    H216223   2.812   0.386   5.840
 5428TIP3   OH216224   1.173   4.465   3.916
 5428TIP3    H116225   1.220   4.488   3.996
 5428TIP3    H216226   1.081   4.467   3.941
 5429TIP3   OH216227   4.820   6.827   2.643
 5429TIP3    H116228   4.860   6.882   2.576
 5429TIP3    H216229   4.727   6.824   2.620
 5430TIP3   OH216230   7.255   3.795   3.022
 5430TIP3    H116231   7.297   3.873   2.984
 5430TIP3    H216232   7.162   3.807   3.005
 5431TIP3   OH216233   0.138   6.199   5.924
 5431TIP3    H116234   0.161   6.166   5.837
 5431TIP3    H216235   0.176   6.286   5.927
 5432TIP3   OH216236   5.120   3.008   2.311
 5432TIP3    H116237   5.153   3.082   2.362
 5432TIP3    H216238   5.087   2.946   2.377
 5433TIP3   OH216239   4.150   7.529   0.598
 5433TIP3    H116240   4.188   7.502   0.681
 5433TIP3    H216241   4.145   7.625   0.603
 5434TIP3   OH216242   1.005   7.889   0.444
 5434TIP3    H116243   0.983   7.923   0.357
 5434TIP3    H216244   0.951   7.810   0.453
 5435TIP3   OH216245   3.956   5.233   6.152
 5435TIP3    H116246   3.901   5.164   6.115
 5435TIP3    H216247   3.928   5.241   6.243
 5436TIP3   OH216248   0.691   2.129   5.513
 5436TIP3    H116249   0.660   2.173   5.592
 5436TIP3    H216250   0.770   2.083   5.542
 5437TIP3   OH216251   0.390   6.540   5.485
 5437TIP3    H116252   0.450   6.583   5.425
 5437TIP3    H216253   0.306   6.538   5.438
 5438TIP3   OH216254   7.890   6.889   3.361
 5438TIP3    H116255   7.817   6.900   3.301
 5438TIP3    H216256   7.921   6.978   3.379
 5439TIP3   OH216257   4.982   5.208   5.780
 5439TIP3    H116258   4.961   5.264   5.854
 5439TIP3    H216259   4.901   5.202   5.730
 5440TIP3   OH216260   7.586   0.214   6.382
 5440TIP3    H116261   7.582   0.167   6.466
 5440TIP3    H216262   7.670   0.188   6.344
 5441TIP3   OH216263   0.714   3.846   0.267
 5441TIP3    H116264   0.776   3.789   0.222
 5441TIP3    H216265   0.768   3.898   0.326
 5442TIP3   OH216266   0.652   3.455   3.272
 5442TIP3    H116267   0.688   3.403   3.343
 5442TIP3    H216268   0.653   3.545   3.304
 5443TIP3   OH216269   6.314   4.275   1.813
 5443TIP3    H116270   6.343   4.325   1.736
 5443TIP3    H216271   6.395   4.255   1.860
 5444TIP3   OH216272   6.699   7.653   1.171
 5444TIP3    H116273   6.781   7.605   1.179
 5444TIP3    H216274   6.652   7.611   1.100
 5445TIP3   OH216275   7.199   0.582   3.700
 5445TIP3    H116276   7.276   0.596   3.644
 5445TIP3    H216277   7.233   0.586   3.789
 5446TIP3   OH216278   5.471   0.788   4.331
 5446TIP3    H116279   5.497   0.857   4.270
 5446TIP3    H216280   5.552   0.744   4.354
 5447TIP3   OH216281   0.565   4.342   3.954
 5447TIP3    H116282   0.608   4.305   3.877
 5447TIP3    H216283   0.601   4.293   4.027
 5448TIP3   OH216284   6.892   0.247   0.149
 5448TIP3    H116285   6.931   0.271   0.233
 5448TIP3    H216286   6.950   0.178   0.115
 5449TIP3   OH216287   7.348   2.143   1.744
 5449TIP3    H116288   7.414   2.104   1.801
 5449TIP3    H216289   7.271   2.153   1.801
 5450TIP3   OH216290   2.464   7.179   1.398
 5450TIP3    H116291   2.407   7.243   1.355
 5450TIP3    H216292   2.485   7.219   1.482
 5451TIP3   OH216293   1.430   5.164   6.800
 5451TIP3    H116294   1.394   5.128   6.881
 5451TIP3    H216295   1.376   5.241   6.781
 5452TIP3   OH216296   2.221   6.669   1.420
 5452TIP3    H116297   2.200   6.715   1.501
 5452TIP3    H216298   2.247   6.738   1.359
 5453TIP3   OH216299   4.625   4.169   2.181
 5453TIP3    H116300   4.666   4.255   2.180
 5453TIP3    H216301   4.632   4.138   2.091
 5454TIP3   OH216302   5.371   4.185   0.877
 5454TIP3    H116303   5.285   4.221   0.854
 5454TIP3    H216304   5.404   4.149   0.794
 5455TIP3   OH216305   3.000   1.672   2.650
 5455TIP3    H116306   3.051   1.752   2.640
 5455TIP3    H216307   3.052   1.605   2.606
 5456TIP3   OH216308   1.925   0.327   0.560
 5456TIP3    H116309   1.891   0.322   0.649
 5456TIP3    H216310   1.944   0.419   0.547
 5457TIP3   OH216311   2.678   1.355   6.243
 5457TIP3    H116312   2.676   1.325   6.334
 5457TIP3    H216313   2.602   1.413   6.236
 5458TIP3   OH216314   2.300   6.924   1.295
 5458TIP3    H116315   2.369   6.973   1.339
 5458TIP3    H216316   2.219   6.960   1.330
 5459TIP3   OH216317   4.646   7.194   1.783
 5459TIP3    H116318   4.687   7.108   1.785
 5459TIP3    H216319   4.578   7.190   1.849
 5460TIP3   OH216320   4.361   1.496   4.492
 5460TIP3    H116321   4.307   1.437   4.439
 5460TIP3    H216322   4.450   1.462   4.482
 5461TIP3   OH216323   5.962   6.591   5.003
 5461TIP3    H116324   6.002   6.660   5.056
 5461TIP3    H216325   6.036   6.536   4.976
 5462TIP3   OH216326   3.858   1.504   4.275
 5462TIP3    H116327   3.775   1.549   4.288
 5462TIP3    H216328   3.845   1.450   4.197
 5463TIP3   OH216329   2.098   4.470   2.388
 5463TIP3    H116330   2.019   4.421   2.410
 5463TIP3    H216331   2.144   4.479   2.471
 5464TIP3   OH216332   1.242   6.826   3.930
 5464TIP3    H116333   1.316   6.865   3.976
 5464TIP3    H216334   1.219   6.890   3.863
 5465TIP3   OH216335   2.307   3.565   5.008
 5465TIP3    H116336   2.376   3.504   5.035
 5465TIP3    H216337   2.297   3.624   5.083
 5466TIP3   OH216338   6.541   7.293   4.962
 5466TIP3    H116339   6.469   7.243   4.923
 5466TIP3    H216340   6.510   7.384   4.962
 5467TIP3   OH216341   2.240   0.994   1.701
 5467TIP3    H116342   2.205   1.077   1.669
 5467TIP3    H216343   2.287   0.957   1.626
 5468TIP3   OH216344   6.568   3.951   4.081
 5468TIP3    H116345   6.483   3.908   4.095
 5468TIP3    H216346   6.547   4.023   4.021
 5469TIP3   OH216347   3.371   0.583   2.776
 5469TIP3    H116348   3.354   0.666   2.821
 5469TIP3    H216349   3.288   0.562   2.734
 5470TIP3   OH216350   5.602   1.035   1.341
 5470TIP3    H116351   5.648   1.113   1.373
 5470TIP3    H216352   5.598   0.976   1.417
 5471TIP3   OH216353   1.999   7.233   5.340
 5471TIP3    H116354   2.000   7.180   5.420
 5471TIP3    H216355   2.092   7.248   5.320
 5472TIP3   OH216356   2.148   2.129   5.353
 5472TIP3    H116357   2.234   2.137   5.394
 5472TIP3    H216358   2.102   2.065   5.407
 5473TIP3   OH216359   5.046   0.684   1.996
 5473TIP3    H116360   5.092   0.752   1.947
 5473TIP3    H216361   5.107   0.661   2.067
 5474TIP3   OH216362   5.901   2.505   1.138
 5474TIP3    H116363   5.892   2.571   1.208
 5474TIP3    H216364   5.904   2.556   1.057
 5475TIP3   OH216365   2.816   6.195   3.482
 5475TIP3    H116366   2.872   6.268   3.456
 5475TIP3    H216367   2.838   6.125   3.420
 5476TIP3   OH216368   6.764   3.112   3.782
 5476TIP3    H116369   6.715   3.035   3.810
 5476TIP3    H216370   6.832   3.124   3.848
 5477TIP3   OH216371   0.683   1.748   6.186
 5477TIP3    H116372   0.732   1.691   6.127
 5477TIP3    H216373   0.706   1.717   6.274
 5478TIP3   OH216374   1.970   5.308   1.570
 5478TIP3    H116375   2.005   5.332   1.656
 5478TIP3    H216376   1.903   5.242   1.590
 5479TIP3   OH216377   2.545   6.856   3.229
 5479TIP3    H116378   2.514   6.870   3.319
 5479TIP3    H216379   2.594   6.936   3.208
 5480TIP3   OH216380   3.547   1.783   2.975
 5480TIP3    H116381   3.528   1.717   3.041
 5480TIP3    H216382   3.634   1.760   2.942
 5481TIP3   OH216383   0.323   1.939   5.858
 5481TIP3    H116384   0.321   1.847   5.885
 5481TIP3    H216385   0.232   1.967   5.861
 5482TIP3   OH216386   1.708   3.232   5.319
 5482TIP3    H116387   1.720   3.165   5.387
 5482TIP3    H216388   1.739   3.313   5.360
 5483TIP3   OH216389   0.773   3.840   0.949
 5483TIP3    H116390   0.691   3.854   0.996
 5483TIP3    H216391   0.787   3.921   0.901
 5484TIP3   OH216392   2.305   6.746   1.669
 5484TIP3    H116393   2.391   6.788   1.669
 5484TIP3    H216394   2.312   6.677   1.735
 5485TIP3   OH216395   4.701   4.441   3.895
 5485TIP3    H116396   4.625   4.447   3.837
 5485TIP3    H216397   4.712   4.530   3.929
 5486TIP3   OH216398   3.478   1.373   1.642
 5486TIP3    H116399   3.571   1.349   1.652
 5486TIP3    H216400   3.454   1.335   1.557
 5487TIP3   OH216401   2.989   0.366   4.187
 5487TIP3    H116402   2.903   0.350   4.226
 5487TIP3    H216403   3.010   0.285   4.141
 5488TIP3   OH216404   0.007   3.568   1.073
 5488TIP3    H116405  -0.018   3.486   1.031
 5488TIP3    H216406   0.026   3.627   1.000
 5489TIP3   OH216407   1.904   7.722   0.909
 5489TIP3    H116408   1.956   7.691   0.983
 5489TIP3    H216409   1.815   7.693   0.927
 5490TIP3   OH216410   5.941   4.547   1.144
 5490TIP3    H116411   5.918   4.587   1.060
 5490TIP3    H216412   5.923   4.616   1.209
 5491TIP3   OH216413   0.441   1.106   3.796
 5491TIP3    H116414   0.536   1.106   3.786
 5491TIP3    H216415   0.409   1.060   3.718
 5492TIP3   OH216416   6.571   6.865   6.798
 5492TIP3    H116417   6.568   6.930   6.869
 5492TIP3    H216418   6.648   6.812   6.818
 5493TIP3   OH216419   4.739   2.712   2.087
 5493TIP3    H116420   4.737   2.642   2.152
 5493TIP3    H216421   4.830   2.742   2.087
 5494TIP3   OH216422   4.429   0.936   0.451
 5494TIP3    H116423   4.390   1.023   0.465
 5494TIP3    H216424   4.364   0.888   0.400
 5495TIP3   OH216425   6.955   0.790   6.849
 5495TIP3    H116426   6.932   0.804   6.757
 5495TIP3    H216427   7.007   0.867   6.873
 5496TIP3   OH216428   6.082   7.640   5.185
 5496TIP3    H116429   5.988   7.625   5.201
 5496TIP3    H216430   6.114   7.678   5.266
 5497TIP3   OH216431   1.500   0.875   0.257
 5497TIP3    H116432   1.575   0.895   0.200
 5497TIP3    H216433   1.539   0.853   0.341
 5498TIP3   OH216434   4.314   1.950   6.429
 5498TIP3    H116435   4.340   1.984   6.515
 5498TIP3    H216436   4.349   1.861   6.427
 5499TIP3   OH216437   7.072   4.972   0.324
 5499TIP3    H116438   7.094   5.050   0.375
 5499TIP3    H216439   7.155   4.926   0.312
 5500TIP3   OH216440   5.566   4.069   0.062
 5500TIP3    H116441   5.486   4.072   0.009
 5500TIP3    H216442   5.554   3.992   0.117
 5501TIP3   OH216443   4.834   1.164   3.652
 5501TIP3    H116444   4.907   1.137   3.708
 5501TIP3    H216445   4.769   1.201   3.713
 5502TIP3   OH216446   5.198   6.957   1.937
 5502TIP3    H116447   5.278   6.921   1.976
 5502TIP3    H216448   5.229   7.017   1.869
 5503TIP3   OH216449   8.223   6.676   3.062
 5503TIP3    H116450   8.268   6.645   3.141
 5503TIP3    H216451   8.196   6.765   3.083
 5504TIP3   OH216452   5.452   7.708   0.741
 5504TIP3    H116453   5.502   7.629   0.721
 5504TIP3    H216454   5.456   7.760   0.661
 5505TIP3   OH216455   5.573   3.409   3.740
 5505TIP3    H116456   5.608   3.420   3.651
 5505TIP3    H216457   5.478   3.412   3.728
 5506TIP3   OH216458   6.457   3.921   0.879
 5506TIP3    H116459   6.447   4.016   0.872
 5506TIP3    H216460   6.442   3.889   0.790
 5507TIP3   OH216461   1.482   0.606   0.891
 5507TIP3    H116462   1.526   0.595   0.975
 5507TIP3    H216463   1.406   0.660   0.909
 5508TIP3   OH216464   6.283   2.774   6.406
 5508TIP3    H116465   6.190   2.751   6.408
 5508TIP3    H216466   6.327   2.695   6.438
 5509TIP3   OH216467   0.035   4.979   2.611
 5509TIP3    H116468   0.127   4.981   2.585
 5509TIP3    H216469   0.031   5.030   2.691
 5510TIP3   OH216470   2.652   4.468   0.324
 5510TIP3    H116471   2.706   4.548   0.324
 5510TIP3    H216472   2.686   4.417   0.250
 5511TIP3   OH216473   6.051   5.106   2.653
 5511TIP3    H116474   6.035   5.192   2.693
 5511TIP3    H216475   6.026   5.116   2.562
 5512TIP3   OH216476   3.163   0.136   1.601
 5512TIP3    H116477   3.101   0.095   1.541
 5512TIP3    H216478   3.247   0.130   1.557
 5513TIP3   OH216479   5.470   4.640   5.533
 5513TIP3    H116480   5.386   4.630   5.577
 5513TIP3    H216481   5.448   4.643   5.440
 5514TIP3   OH216482   5.948   6.232   3.662
 5514TIP3    H116483   6.043   6.243   3.659
 5514TIP3    H216484   5.934   6.151   3.711
 5515TIP3   OH216485   5.881   5.363   0.725
 5515TIP3    H116486   5.883   5.277   0.684
 5515TIP3    H216487   5.814   5.357   0.793
 5516TIP3   OH216488   4.044   6.394   6.549
 5516TIP3    H116489   3.954   6.422   6.532
 5516TIP3    H216490   4.058   6.414   6.642
 5517TIP3   OH216491   3.959   3.888   6.445
 5517TIP3    H116492   3.892   3.952   6.467
 5517TIP3    H216493   4.027   3.939   6.401
 5518TIP3   OH216494   8.215   5.622   0.799
 5518TIP3    H116495   8.169   5.702   0.824
 5518TIP3    H216496   8.145   5.559   0.783
 5519TIP3   OH216497   0.092   5.664   4.991
 5519TIP3    H116498   0.043   5.610   4.930
 5519TIP3    H216499   0.046   5.654   5.075
 5520TIP3   OH216500   5.671   5.208   2.995
 5520TIP3    H116501   5.630   5.291   2.970
 5520TIP3    H216502   5.763   5.232   3.012
 5521TIP3   OH216503   2.919   4.022   5.264
 5521TIP3    H116504   3.006   3.990   5.285
 5521TIP3    H216505   2.876   4.033   5.349
 5522TIP3   OH216506   3.506   0.202   3.206
 5522TIP3    H116507   3.421   0.245   3.192
 5522TIP3    H216508   3.530   0.226   3.295
 5523TIP3   OH216509   7.118   7.231   4.892
 5523TIP3    H116510   7.024   7.216   4.895
 5523TIP3    H216511   7.130   7.298   4.825
 5524TIP3   OH216512   2.570  -0.016   3.049
 5524TIP3    H116513   2.579   0.006   3.142
 5524TIP3    H216514   2.495   0.036   3.020
 5525TIP3   OH216515   5.871   2.717   0.955
 5525TIP3    H116516   5.923   2.698   0.877
 5525TIP3    H216517   5.927   2.773   1.008
 5526TIP3   OH216518   3.549   1.489   4.523
 5526TIP3    H116519   3.583   1.399   4.521
 5526TIP3    H216520   3.614   1.540   4.474
 5527TIP3   OH216521   5.070   1.055   5.101
 5527TIP3    H116522   5.160   1.035   5.076
 5527TIP3    H216523   5.045   1.127   5.044
 5528TIP3   OH216524   2.304   2.617   5.047
 5528TIP3    H116525   2.396   2.640   5.058
 5528TIP3    H216526   2.289   2.545   5.109
 5529TIP3   OH216527   5.900   7.067   6.586
 5529TIP3    H116528   5.928   7.155   6.609
 5529TIP3    H216529   5.804   7.070   6.591
 5530TIP3   OH216530   5.871   7.812   3.447
 5530TIP3    H116531   5.830   7.857   3.521
 5530TIP3    H216532   5.887   7.881   3.383
 5531TIP3   OH216533   2.278   1.895   4.367
 5531TIP3    H116534   2.270   1.957   4.439
 5531TIP3    H216535   2.334   1.825   4.401
 5532TIP3   OH216536   6.328   3.452  -0.015
 5532TIP3    H116537   6.311   3.546  -0.023
 5532TIP3    H216538   6.257   3.419   0.040
 5533TIP3   OH216539   6.891   0.007   6.831
 5533TIP3    H116540   6.915  -0.053   6.761
 5533TIP3    H216541   6.946   0.084   6.816
 5534TIP3   OH216542   2.963   2.752   3.079
 5534TIP3    H116543   2.875   2.725   3.052
 5534TIP3    H216544   3.016   2.673   3.072
 5535TIP3   OH216545   6.344   6.181   3.346
 5535TIP3    H116546   6.437   6.177   3.323
 5535TIP3    H216547   6.300   6.208   3.265
 5536TIP3   OH216548   8.148   6.359   1.869
 5536TIP3    H116549   8.157   6.426   1.937
 5536TIP3    H216550   8.173   6.277   1.912
 5537TIP3   OH216551   3.337   0.141   1.368
 5537TIP3    H116552   3.276   0.137   1.294
 5537TIP3    H216553   3.415   0.184   1.332
 5538TIP3   OH216554   5.703   7.701   5.726
 5538TIP3    H116555   5.740   7.752   5.798
 5538TIP3    H216556   5.780   7.674   5.675
 5539TIP3   OH216557   5.818   0.553   3.001
 5539TIP3    H116558   5.871   0.617   2.954
 5539TIP3    H216559   5.852   0.468   2.972
 5540TIP3   OH216560   6.903   7.461   1.101
 5540TIP3    H116561   6.859   7.381   1.130
 5540TIP3    H216562   6.948   7.437   1.020
 5541TIP3   OH216563   5.005   5.971   5.262
 5541TIP3    H116564   5.032   5.918   5.187
 5541TIP3    H216565   4.910   5.970   5.260
 5542TIP3   OH216566   3.434   6.803   5.789
 5542TIP3    H116567   3.420   6.720   5.743
 5542TIP3    H216568   3.415   6.782   5.881
 5543TIP3   OH216569   4.621   1.611   0.505
 5543TIP3    H116570   4.580   1.678   0.558
 5543TIP3    H216571   4.661   1.551   0.569
 5544TIP3   OH216572   6.441   1.523   3.772
 5544TIP3    H116573   6.504   1.558   3.835
 5544TIP3    H216574   6.389   1.460   3.822
 5545TIP3   OH216575   0.858   3.220   4.780
 5545TIP3    H116576   0.842   3.314   4.777
 5545TIP3    H216577   0.897   3.204   4.866
 5546TIP3   OH216578   6.840   3.870   0.842
 5546TIP3    H116579   6.853   3.825   0.758
 5546TIP3    H216580   6.807   3.802   0.901
 5547TIP3   OH216581   3.751   6.736   3.765
 5547TIP3    H116582   3.741   6.751   3.671
 5547TIP3    H216583   3.674   6.685   3.789
 5548TIP3   OH216584   1.815   6.468   0.765
 5548TIP3    H116585   1.792   6.553   0.728
 5548TIP3    H216586   1.781   6.405   0.702
 5549TIP3   OH216587   3.303   0.899   6.761
 5549TIP3    H116588   3.350   0.830   6.808
 5549TIP3    H216589   3.252   0.852   6.694
 5550TIP3   OH216590   5.333   4.062   4.524
 5550TIP3    H116591   5.409   4.059   4.582
 5550TIP3    H216592   5.353   4.000   4.454
 5551TIP3   OH216593   0.591   6.567   0.201
 5551TIP3    H116594   0.618   6.655   0.226
 5551TIP3    H216595   0.503   6.578   0.165
 5552TIP3   OH216596   2.913   0.992   0.110
 5552TIP3    H116597   2.868   0.953   0.034
 5552TIP3    H216598   2.856   1.065   0.136
 5553TIP3   OH216599   7.220   0.473   6.067
 5553TIP3    H116600   7.155   0.415   6.107
 5553TIP3    H216601   7.288   0.482   6.134
 5554TIP3   OH216602   7.596   3.044   0.371
 5554TIP3    H116603   7.506   3.075   0.383
 5554TIP3    H216604   7.645   3.082   0.444
 5555TIP3   OH216605   2.703   3.059   4.102
 5555TIP3    H116606   2.798   3.046   4.106
 5555TIP3    H216607   2.672   3.035   4.190
 5556TIP3   OH216608   3.896   2.890   2.793
 5556TIP3    H116609   3.879   2.823   2.727
 5556TIP3    H216610   3.858   2.856   2.873
 5557TIP3   OH216611   8.226   1.436   4.019
 5557TIP3    H116612   8.312   1.454   4.059
 5557TIP3    H216613   8.197   1.354   4.061
 5558TIP3   OH216614   7.231   2.787   6.317
 5558TIP3    H116615   7.280   2.869   6.312
 5558TIP3    H216616   7.291   2.722   6.279
 5559TIP3   OH216617   5.041   0.125   4.029
 5559TIP3    H116618   5.034   0.074   4.110
 5559TIP3    H216619   5.116   0.089   3.984
 5560TIP3   OH216620   3.105   2.543   0.889
 5560TIP3    H116621   3.096   2.455   0.926
 5560TIP3    H216622   3.021   2.585   0.905
 5561TIP3   OH216623   6.758   5.360   3.472
 5561TIP3    H116624   6.815   5.344   3.547
 5561TIP3    H216625   6.816   5.396   3.405
 5562TIP3   OH216626   4.358   2.607   3.225
 5562TIP3    H116627   4.422   2.616   3.154
 5562TIP3    H216628   4.407   2.625   3.305
 5563TIP3   OH216629   8.382   7.431   0.333
 5563TIP3    H116630   8.310   7.380   0.298
 5563TIP3    H216631   8.343   7.484   0.403
 5564TIP3   OH216632   4.566   1.703   2.246
 5564TIP3    H116633   4.559   1.795   2.271
 5564TIP3    H216634   4.623   1.664   2.313
 5565TIP3   OH216635   6.882   2.168   5.135
 5565TIP3    H116636   6.909   2.188   5.225
 5565TIP3    H216637   6.919   2.081   5.118
 5566TIP3   OH216638   5.794   3.804   6.804
 5566TIP3    H116639   5.844   3.811   6.885
 5566TIP3    H216640   5.744   3.723   6.813
 5567TIP3   OH216641   3.505   2.678   0.796
 5567TIP3    H116642   3.580   2.619   0.791
 5567TIP3    H216643   3.478   2.676   0.887
 5568TIP3   OH216644   7.962   2.748   4.931
 5568TIP3    H116645   7.906   2.706   4.996
 5568TIP3    H216646   7.900   2.781   4.865
 5569TIP3   OH216647   1.350   0.725   2.271
 5569TIP3    H116648   1.303   0.738   2.353
 5569TIP3    H216649   1.293   0.765   2.205
 5570TIP3   OH216650   2.045   3.457   0.367
 5570TIP3    H116651   2.080   3.370   0.386
 5570TIP3    H216652   2.090   3.515   0.429
 5571TIP3   OH216653   0.298   4.154   2.654
 5571TIP3    H116654   0.323   4.241   2.624
 5571TIP3    H216655   0.218   4.168   2.705
 5572TIP3   OH216656   4.083   5.421   2.318
 5572TIP3    H116657   4.161   5.430   2.263
 5572TIP3    H216658   4.031   5.353   2.274
 5573TIP3   OH216659   4.780   5.206   6.348
 5573TIP3    H116660   4.823   5.269   6.406
 5573TIP3    H216661   4.775   5.126   6.399
 5574TIP3   OH216662   0.029   0.349   6.118
 5574TIP3    H116663   0.117   0.313   6.124
 5574TIP3    H216664   0.022   0.384   6.029
 5575TIP3   OH216665   6.041   5.510   4.171
 5575TIP3    H116666   6.036   5.477   4.261
 5575TIP3    H216667   5.950   5.510   4.141
 5576TIP3   OH216668   2.580   7.464   1.095
 5576TIP3    H116669   2.630   7.467   1.177
 5576TIP3    H216670   2.563   7.371   1.081
 5577TIP3   OH216671   1.720   7.356   0.585
 5577TIP3    H116672   1.737   7.263   0.600
 5577TIP3    H216673   1.775   7.401   0.649
 5578TIP3   OH216674   3.514   5.542   0.047
 5578TIP3    H116675   3.530   5.587  -0.036
 5578TIP3    H216676   3.499   5.613   0.110
 5579TIP3   OH216677   7.103   6.955   3.520
 5579TIP3    H116678   7.058   6.895   3.461
 5579TIP3    H216679   7.078   7.042   3.490
 5580TIP3   OH216680   3.160   0.097   5.049
 5580TIP3    H116681   3.137   0.081   5.141
 5580TIP3    H216682   3.164   0.010   5.010
 5581TIP3   OH216683   8.008   5.853   6.098
 5581TIP3    H116684   8.033   5.944   6.114
 5581TIP3    H216685   7.974   5.853   6.009
 5582TIP3   OH216686   6.155   1.010   1.385
 5582TIP3    H116687   6.113   0.956   1.318
 5582TIP3    H216688   6.086   1.069   1.416
 5583TIP3   OH216689   6.908   1.249   1.228
 5583TIP3    H116690   6.943   1.334   1.253
 5583TIP3    H216691   6.850   1.268   1.153
 5584TIP3   OH216692   3.944   0.033   1.316
 5584TIP3    H116693   3.860   0.016   1.275
 5584TIP3    H216694   3.930   0.112   1.369
 5585TIP3   OH216695   3.290   3.153   5.292
 5585TIP3    H116696   3.204   3.140   5.253
 5585TIP3    H216697   3.285   3.107   5.376
 5586TIP3   OH216698   2.873   3.101   5.933
 5586TIP3    H116699   2.894   3.035   5.867
 5586TIP3    H216700   2.818   3.055   5.997
 5587TIP3   OH216701   2.520   7.005   0.469
 5587TIP3    H116702   2.485   6.916   0.461
 5587TIP3    H216703   2.588   7.010   0.402
 5588TIP3   OH216704   2.852   5.157   0.871
 5588TIP3    H116705   2.920   5.147   0.804
 5588TIP3    H216706   2.849   5.251   0.888
 5589TIP3   OH216707   2.548   5.109   3.410
 5589TIP3    H116708   2.513   5.196   3.429
 5589TIP3    H216709   2.588   5.117   3.324
 5590TIP3   OH216710   0.447   3.720   3.596
 5590TIP3    H116711   0.433   3.656   3.526
 5590TIP3    H216712   0.389   3.692   3.667
 5591TIP3   OH216713   2.650   6.773   6.513
 5591TIP3    H116714   2.575   6.714   6.525
 5591TIP3    H216715   2.710   6.723   6.458
 5592TIP3   OH216716   2.849   7.809   6.401
 5592TIP3    H116717   2.875   7.739   6.460
 5592TIP3    H216718   2.835   7.885   6.457
 5593TIP3   OH216719   3.154   6.017   5.265
 5593TIP3    H116720   3.126   6.052   5.180
 5593TIP3    H216721   3.165   5.923   5.250
 5594TIP3   OH216722   6.465   0.889   1.840
 5594TIP3    H116723   6.439   0.912   1.929
 5594TIP3    H216724   6.555   0.856   1.848
 5595TIP3   OH216725   4.958   2.799   2.811
 5595TIP3    H116726   5.046   2.771   2.783
 5595TIP3    H216727   4.903   2.722   2.796
 5596TIP3   OH216728   2.369   0.498   4.605
 5596TIP3    H116729   2.409   0.436   4.666
 5596TIP3    H216730   2.441   0.554   4.577
 5597TIP3   OH216731   3.270   7.210   2.901
 5597TIP3    H116732   3.294   7.228   2.993
 5597TIP3    H216733   3.351   7.222   2.853
 5598TIP3   OH216734   2.204   5.102   5.948
 5598TIP3    H116735   2.226   5.103   5.855
 5598TIP3    H216736   2.256   5.174   5.985
 5599TIP3   OH216737   7.129   4.681   5.262
 5599TIP3    H116738   7.200   4.616   5.263
 5599TIP3    H216739   7.124   4.712   5.352
 5600TIP3   OH216740   5.595   5.812   2.138
 5600TIP3    H116741   5.534   5.877   2.103
 5600TIP3    H216742   5.657   5.863   2.191
 5601TIP3   OH216743   6.898   3.446   2.612
 5601TIP3    H116744   6.918   3.356   2.638
 5601TIP3    H216745   6.854   3.484   2.688
 5602TIP3   OH216746   1.692   4.258   5.085
 5602TIP3    H116747   1.697   4.332   5.145
 5602TIP3    H216748   1.619   4.205   5.117
 5603TIP3   OH216749   5.302   0.176   3.422
 5603TIP3    H116750   5.383   0.126   3.432
 5603TIP3    H216751   5.234   0.118   3.455
 5604TIP3   OH216752   6.904   0.919   1.059
 5604TIP3    H116753   6.900   0.831   1.098
 5604TIP3    H216754   6.841   0.970   1.109
 5605TIP3   OH216755   2.979   6.360   4.378
 5605TIP3    H116756   2.894   6.348   4.420
 5605TIP3    H216757   3.010   6.446   4.409
 5606TIP3   OH216758   3.802   0.932   0.598
 5606TIP3    H116759   3.807   0.838   0.611
 5606TIP3    H216760   3.798   0.943   0.503
 5607TIP3   OH216761   4.732   4.169   1.564
 5607TIP3    H116762   4.766   4.130   1.483
 5607TIP3    H216763   4.766   4.259   1.563
 5608TIP3   OH216764   3.014   6.905   1.982
 5608TIP3    H116765   3.062   6.927   1.901
 5608TIP3    H216766   2.976   6.820   1.964
 5609TIP3   OH216767   0.466   1.272   2.890
 5609TIP3    H116768   0.385   1.304   2.931
 5609TIP3    H216769   0.536   1.300   2.949
 5610TIP3   OH216770   5.853   2.878   0.040
 5610TIP3    H116771   5.908   2.800   0.029
 5610TIP3    H216772   5.875   2.909   0.128
 5611TIP3   OH216773   6.236   4.878   1.045
 5611TIP3    H116774   6.199   4.826   0.974
 5611TIP3    H216775   6.300   4.935   1.003
 5612TIP3   OH216776   3.432   2.719   1.778
 5612TIP3    H116777   3.500   2.666   1.736
 5612TIP3    H216778   3.353   2.664   1.772
 5613TIP3   OH216779   1.366   1.771   3.662
 5613TIP3    H116780   1.309   1.833   3.709
 5613TIP3    H216781   1.433   1.748   3.726
 5614TIP3   OH216782   1.267   1.048   5.691
 5614TIP3    H116783   1.349   1.091   5.714
 5614TIP3    H216784   1.207   1.071   5.762
 5615TIP3   OH216785   5.439   3.934   4.265
 5615TIP3    H116786   5.477   4.020   4.250
 5615TIP3    H216787   5.373   3.924   4.196
 5616TIP3   OH216788   8.394   4.379   5.035
 5616TIP3    H116789   8.476   4.399   5.081
 5616TIP3    H216790   8.327   4.388   5.102
 5617TIP3   OH216791   5.666   4.769   5.635
 5617TIP3    H116792   5.700   4.806   5.554
 5617TIP3    H216793   5.581   4.733   5.611
 5618TIP3   OH216794   4.721   0.312   3.627
 5618TIP3    H116795   4.745   0.402   3.603
 5618TIP3    H216796   4.785   0.257   3.583
 5619TIP3   OH216797   1.301   0.944   1.980
 5619TIP3    H116798   1.386   0.986   1.991
 5619TIP3    H216799   1.237   1.010   2.007
 5620TIP3   OH216800   5.389   5.721   6.586
 5620TIP3    H116801   5.348   5.736   6.671
 5620TIP3    H216802   5.429   5.635   6.593
 5621TIP3   OH216803   2.969   2.992   6.623
 5621TIP3    H116804   3.029   2.924   6.655
 5621TIP3    H216805   2.977   3.063   6.686
 5622TIP3   OH216806   6.264   2.182   3.456
 5622TIP3    H116807   6.301   2.131   3.383
 5622TIP3    H216808   6.313   2.264   3.456
 5623TIP3   OH216809   0.563   6.004   1.580
 5623TIP3    H116810   0.470   5.997   1.558
 5623TIP3    H216811   0.606   6.025   1.497
 5624TIP3   OH216812   1.633   4.332   2.658
 5624TIP3    H116813   1.582   4.251   2.658
 5624TIP3    H216814   1.658   4.345   2.749
 5625TIP3   OH216815   1.717   2.023   4.352
 5625TIP3    H116816   1.762   2.107   4.363
 5625TIP3    H216817   1.650   2.023   4.421
 5626TIP3   OH216818   5.715   3.383   1.392
 5626TIP3    H116819   5.787   3.322   1.409
 5626TIP3    H216820   5.706   3.382   1.297
 5627TIP3   OH216821   1.855   3.285   5.774
 5627TIP3    H116822   1.909   3.210   5.798
 5627TIP3    H216823   1.769   3.247   5.755
 5628TIP3   OH216824   0.505   0.886   5.083
 5628TIP3    H116825   0.545   0.912   5.000
 5628TIP3    H216826   0.467   0.967   5.118
 5629TIP3   OH216827   3.246   1.234   6.506
 5629TIP3    H116828   3.257   1.208   6.598
 5629TIP3    H216829   3.335   1.251   6.475
 5630TIP3   OH216830   2.671   3.533   3.376
 5630TIP3    H116831   2.741   3.479   3.337
 5630TIP3    H216832   2.717   3.588   3.439
 5631TIP3   OH216833   0.743   2.903   2.560
 5631TIP3    H116834   0.792   2.970   2.514
 5631TIP3    H216835   0.752   2.824   2.506
 5632TIP3   OH216836   7.805   7.400   4.341
 5632TIP3    H116837   7.796   7.474   4.282
 5632TIP3    H216838   7.772   7.432   4.425
 5633TIP3   OH216839   6.335   6.682   3.907
 5633TIP3    H116840   6.324   6.750   3.973
 5633TIP3    H216841   6.410   6.631   3.938
 5634TIP3   OH216842   7.234   0.357   1.275
 5634TIP3    H116843   7.249   0.266   1.302
 5634TIP3    H216844   7.307   0.376   1.216
 5635TIP3   OH216845   6.605   3.440   5.500
 5635TIP3    H116846   6.700   3.442   5.487
 5635TIP3    H216847   6.568   3.455   5.413
 5636TIP3   OH216848   4.073   2.600   6.439
 5636TIP3    H116849   4.147   2.539   6.442
 5636TIP3    H216850   4.030   2.581   6.355
 5637TIP3   OH216851   7.422   6.979   2.952
 5637TIP3    H116852   7.419   6.960   3.046
 5637TIP3    H216853   7.330   6.977   2.924
 5638TIP3   OH216854   6.473   4.039   3.743
 5638TIP3    H116855   6.403   3.992   3.699
 5638TIP3    H216856   6.428   4.094   3.807
 5639TIP3   OH216857   5.602   7.392   6.551
 5639TIP3    H116858   5.628   7.331   6.620
 5639TIP3    H216859   5.634   7.352   6.470
 5640TIP3   OH216860   5.614   4.430   1.925
 5640TIP3    H116861   5.564   4.351   1.943
 5640TIP3    H216862   5.670   4.406   1.851
 5641TIP3   OH216863   4.013   5.489   6.573
 5641TIP3    H116864   3.959   5.491   6.652
 5641TIP3    H216865   4.103   5.496   6.605
 5642TIP3   OH216866   1.401   4.177   2.428
 5642TIP3    H116867   1.359   4.099   2.465
 5642TIP3    H216868   1.481   4.144   2.387
 5643TIP3   OH216869   2.151   3.774   3.684
 5643TIP3    H116870   2.097   3.844   3.722
 5643TIP3    H216871   2.241   3.804   3.697
 5644TIP3   OH216872   3.343   5.954   1.155
 5644TIP3    H116873   3.335   5.942   1.250
 5644TIP3    H216874   3.295   6.035   1.137
 5645TIP3   OH216875   3.313   3.585   0.766
 5645TIP3    H116876   3.358   3.583   0.682
 5645TIP3    H216877   3.321   3.676   0.795
 5646TIP3   OH216878   6.556   2.694   1.804
 5646TIP3    H116879   6.565   2.779   1.761
 5646TIP3    H216880   6.570   2.631   1.734
 5647TIP3   OH216881   7.542   2.019   0.801
 5647TIP3    H116882   7.604   1.962   0.755
 5647TIP3    H216883   7.468   1.962   0.820
 5648TIP3   OH216884   5.179   1.030   1.197
 5648TIP3    H116885   5.114   1.043   1.128
 5648TIP3    H216886   5.206   1.118   1.222
 5649TIP3   OH216887   0.967   1.190   2.798
 5649TIP3    H116888   1.036   1.242   2.756
 5649TIP3    H216889   0.922   1.147   2.725
 5650TIP3   OH216890   0.157   0.305   4.448
 5650TIP3    H116891   0.109   0.376   4.405
 5650TIP3    H216892   0.106   0.285   4.526
 5651TIP3   OH216893   1.042   4.730   0.415
 5651TIP3    H116894   0.968   4.739   0.476
 5651TIP3    H216895   1.002   4.732   0.328
 5652TIP3   OH216896   1.426   3.660   1.005
 5652TIP3    H116897   1.472   3.715   1.069
 5652TIP3    H216898   1.491   3.644   0.937
 5653TIP3   OH216899   4.171   7.105   1.901
 5653TIP3    H116900   4.166   7.197   1.928
 5653TIP3    H216901   4.103   7.061   1.951
 5654TIP3   OH216902   3.406   1.136   0.997
 5654TIP3    H116903   3.499   1.113   0.997
 5654TIP3    H216904   3.395   1.187   0.917
 5655TIP3   OH216905   1.069   5.493   2.836
 5655TIP3    H116906   1.010   5.502   2.760
 5655TIP3    H216907   1.086   5.399   2.842
 5656TIP3   OH216908   0.287   7.663   0.473
 5656TIP3    H116909   0.300   7.754   0.446
 5656TIP3    H216910   0.359   7.645   0.533
 5657TIP3   OH216911   2.524   7.663   0.011
 5657TIP3    H116912   2.515   7.577   0.052
 5657TIP3    H216913   2.580   7.712   0.071
 5658TIP3   OH216914   4.415   1.587   1.427
 5658TIP3    H116915   4.490   1.646   1.426
 5658TIP3    H216916   4.420   1.542   1.343
 5659TIP3   OH216917   0.026   3.379   2.279
 5659TIP3    H116918   0.031   3.446   2.211
 5659TIP3    H216919  -0.006   3.425   2.356
 5660TIP3   OH216920   3.813   1.196   0.299
 5660TIP3    H116921   3.720   1.211   0.282
 5660TIP3    H216922   3.852   1.189   0.212
 5661TIP3   OH216923   2.255   3.327   3.043
 5661TIP3    H116924   2.306   3.250   3.019
 5661TIP3    H216925   2.254   3.327   3.138
 5662TIP3   OH216926   4.937   1.241   0.751
 5662TIP3    H116927   5.006   1.194   0.798
 5662TIP3    H216928   4.865   1.178   0.746
 5663TIP3   OH216929   0.655   7.903   1.733
 5663TIP3    H116930   0.675   7.861   1.650
 5663TIP3    H216931   0.644   7.831   1.795
 5664TIP3   OH216932   2.896   5.367   5.120
 5664TIP3    H116933   2.833   5.377   5.192
 5664TIP3    H216934   2.980   5.353   5.163
 5665TIP3   OH216935   0.746   7.834   6.231
 5665TIP3    H116936   0.734   7.860   6.323
 5665TIP3    H216937   0.814   7.767   6.235
 5666TIP3   OH216938   7.804   6.605   6.320
 5666TIP3    H116939   7.894   6.598   6.349
 5666TIP3    H216940   7.805   6.571   6.230
 5667TIP3   OH216941   2.273   0.063   4.483
 5667TIP3    H116942   2.202   0.084   4.543
 5667TIP3    H216943   2.259  -0.029   4.461
 5668TIP3   OH216944   2.482   3.880   0.680
 5668TIP3    H116945   2.443   3.831   0.753
 5668TIP3    H216946   2.533   3.815   0.632
 5669TIP3   OH216947   2.731   5.687   2.440
 5669TIP3    H116948   2.735   5.605   2.490
 5669TIP3    H216949   2.734   5.756   2.506
 5670TIP3   OH216950   2.299   0.691   1.814
 5670TIP3    H116951   2.237   0.746   1.766
 5670TIP3    H216952   2.304   0.610   1.763
 5671TIP3   OH216953   6.162   0.930   4.799
 5671TIP3    H116954   6.240   0.909   4.747
 5671TIP3    H216955   6.196   0.980   4.873
 5672TIP3   OH216956   4.142   1.050   0.637
 5672TIP3    H116957   4.101   1.041   0.552
 5672TIP3    H216958   4.168   1.142   0.642
 5673TIP3   OH216959   1.738   4.623   6.409
 5673TIP3    H116960   1.716   4.716   6.420
 5673TIP3    H216961   1.666   4.576   6.450
 5674TIP3   OH216962   0.166   0.606   3.787
 5674TIP3    H116963   0.199   0.523   3.753
 5674TIP3    H216964   0.191   0.606   3.880
 5675TIP3   OH216965   2.590   0.504   0.960
 5675TIP3    H116966   2.627   0.479   1.045
 5675TIP3    H216967   2.535   0.580   0.979
 5676TIP3   OH216968   3.644   0.441   4.973
 5676TIP3    H116969   3.597   0.510   5.020
 5676TIP3    H216970   3.577   0.375   4.955
 5677TIP3   OH216971   1.808   1.122   1.313
 5677TIP3    H116972   1.857   1.202   1.332
 5677TIP3    H216973   1.728   1.129   1.364
 5678TIP3   OH216974   7.996   0.181   6.053
 5678TIP3    H116975   8.092   0.177   6.060
 5678TIP3    H216976   7.967   0.214   6.138
 5679TIP3   OH216977   5.309   7.842   3.310
 5679TIP3    H116978   5.336   7.751   3.297
 5679TIP3    H216979   5.361   7.873   3.384
 5680TIP3   OH216980   5.248   2.602   1.152
 5680TIP3    H116981   5.270   2.664   1.082
 5680TIP3    H216982   5.156   2.620   1.172
 5681TIP3   OH216983   5.561   3.603   1.220
 5681TIP3    H116984   5.538   3.516   1.254
 5681TIP3    H216985   5.653   3.595   1.194
 5682TIP3   OH216986   4.709   1.714   4.605
 5682TIP3    H116987   4.781   1.661   4.638
 5682TIP3    H216988   4.669   1.751   4.684
 5683TIP3   OH216989   5.941   1.356   6.131
 5683TIP3    H116990   6.010   1.384   6.192
 5683TIP3    H216991   5.863   1.405   6.159
 5684TIP3   OH216992   5.999   6.628   4.621
 5684TIP3    H116993   5.998   6.544   4.666
 5684TIP3    H216994   5.916   6.669   4.646
 5685TIP3   OH216995   3.543   7.267   5.805
 5685TIP3    H116996   3.621   7.261   5.749
 5685TIP3    H216997   3.475   7.303   5.747
 5686TIP3   OH216998   5.645   7.794   2.745
 5686TIP3    H116999   5.558   7.791   2.706
 5686TIP3    H217000   5.689   7.865   2.697
 5687TIP3   OH217001   0.154   4.134   6.274
 5687TIP3    H117002   0.144   4.104   6.364
 5687TIP3    H217003   0.180   4.226   6.282
 5688TIP3   OH217004   4.025   7.562   3.824
 5688TIP3    H117005   3.962   7.635   3.824
 5688TIP3    H217006   3.974   7.486   3.851
 5689TIP3   OH217007   7.816   4.487   2.820
 5689TIP3    H117008   7.822   4.480   2.725
 5689TIP3    H217009   7.851   4.574   2.840
 5690TIP3   OH217010   2.281   7.003   2.229
 5690TIP3    H117011   2.323   7.049   2.301
 5690TIP3    H217012   2.345   7.007   2.157
 5691TIP3   OH217013   4.082   7.156   3.016
 5691TIP3    H117014   4.064   7.203   3.097
 5691TIP3    H217015   4.001   7.163   2.965
 5692TIP3   OH217016   6.945   5.612   0.259
 5692TIP3    H117017   6.907   5.549   0.198
 5692TIP3    H217018   6.979   5.682   0.204
 5693TIP3   OH217019   7.008   7.910   6.805
 5693TIP3    H117020   7.092   7.882   6.768
 5693TIP3    H217021   6.943   7.857   6.760
 5694TIP3   OH217022   5.767   4.281   6.041
 5694TIP3    H117023   5.838   4.253   5.983
 5694TIP3    H217024   5.689   4.240   6.003
 5695TIP3   OH217025   6.531   2.430   2.608
 5695TIP3    H117026   6.521   2.336   2.621
 5695TIP3    H217027   6.448   2.468   2.638
 5696TIP3   OH217028   0.711   6.158   0.870
 5696TIP3    H117029   0.622   6.158   0.833
 5696TIP3    H217030   0.728   6.250   0.891
 5697TIP3   OH217031   4.362   3.624   4.406
 5697TIP3    H117032   4.274   3.634   4.368
 5697TIP3    H217033   4.350   3.647   4.498
 5698TIP3   OH217034   1.458   4.903   0.692
 5698TIP3    H117035   1.540   4.855   0.680
 5698TIP3    H217036   1.481   4.975   0.750
 5699TIP3   OH217037   4.132   7.847   2.131
 5699TIP3    H117038   4.069   7.855   2.202
 5699TIP3    H217039   4.088   7.792   2.066
 5700TIP3   OH217040   5.121   1.028   4.360
 5700TIP3    H117041   5.175   1.023   4.281
 5700TIP3    H217042   5.182   1.008   4.431
 5701TIP3   OH217043   6.376   0.277   6.688
 5701TIP3    H117044   6.407   0.361   6.722
 5701TIP3    H217045   6.293   0.263   6.732
 5702TIP3   OH217046   1.458   0.746   6.647
 5702TIP3    H117047   1.459   0.833   6.686
 5702TIP3    H217048   1.432   0.688   6.719
 5703TIP3   OH217049   6.034   0.574   0.708
 5703TIP3    H117050   6.129   0.565   0.707
 5703TIP3    H217051   6.002   0.492   0.746
 5704TIP3   OH217052   7.882   7.482   3.907
 5704TIP3    H117053   7.858   7.521   3.822
 5704TIP3    H217054   7.974   7.456   3.895
 5705TIP3   OH217055   1.678   5.798   5.966
 5705TIP3    H117056   1.640   5.797   5.878
 5705TIP3    H217057   1.759   5.747   5.958
 5706TIP3   OH217058   1.133   1.749   6.480
 5706TIP3    H117059   1.151   1.803   6.557
 5706TIP3    H217060   1.212   1.756   6.427
 5707TIP3   OH217061   4.165   7.870   4.204
 5707TIP3    H117062   4.114   7.926   4.263
 5707TIP3    H217063   4.245   7.920   4.187
 5708TIP3   OH217064   8.387   3.863   1.695
 5708TIP3    H117065   8.372   3.775   1.661
 5708TIP3    H217066   8.430   3.848   1.780
 5709TIP3   OH217067   1.610   1.029   0.779
 5709TIP3    H117068   1.578   0.994   0.696
 5709TIP3    H217069   1.566   1.113   0.788
 5710TIP3   OH217070   0.291   7.210   3.625
 5710TIP3    H117071   0.318   7.146   3.559
 5710TIP3    H217072   0.212   7.173   3.664
 5711TIP3   OH217073   0.087   3.603   5.358
 5711TIP3    H117074   0.012   3.603   5.299
 5711TIP3    H217075   0.082   3.519   5.404
 5712TIP3   OH217076   1.507   5.941   4.395
 5712TIP3    H117077   1.530   5.932   4.303
 5712TIP3    H217078   1.458   6.024   4.399
 5713TIP3   OH217079   2.951   4.004   2.113
 5713TIP3    H117080   3.023   3.982   2.054
 5713TIP3    H217081   2.873   4.004   2.057
 5714TIP3   OH217082   5.395   3.177   5.383
 5714TIP3    H117083   5.360   3.196   5.296
 5714TIP3    H217084   5.351   3.239   5.440
 5715TIP3   OH217085   5.520   3.331   5.111
 5715TIP3    H117086   5.554   3.345   5.199
 5715TIP3    H217087   5.588   3.365   5.053
 5716TIP3   OH217088   5.899   1.407   5.537
 5716TIP3    H117089   5.962   1.353   5.586
 5716TIP3    H217090   5.942   1.426   5.454
 5717TIP3   OH217091   5.851   7.785   6.628
 5717TIP3    H117092   5.808   7.723   6.687
 5717TIP3    H217093   5.870   7.734   6.549
 5718TIP3   OH217094   3.027   1.781   5.191
 5718TIP3    H117095   2.967   1.783   5.266
 5718TIP3    H217096   3.080   1.703   5.204
 5719TIP3   OH217097   4.604   2.799   0.541
 5719TIP3    H117098   4.597   2.889   0.572
 5719TIP3    H217099   4.572   2.746   0.613
 5720TIP3   OH217100   8.310   3.478   2.521
 5720TIP3    H117101   8.282   3.399   2.568
 5720TIP3    H217102   8.238   3.540   2.533
 5721TIP3   OH217103   1.943   7.012   6.192
 5721TIP3    H117104   1.911   7.091   6.235
 5721TIP3    H217105   1.910   6.940   6.247
 5722TIP3   OH217106   5.922   7.694   3.737
 5722TIP3    H117107   5.906   7.741   3.819
 5722TIP3    H217108   5.984   7.750   3.689
 5723TIP3   OH217109   1.327   3.573   5.389
 5723TIP3    H117110   1.358   3.523   5.464
 5723TIP3    H217111   1.247   3.529   5.362
 5724TIP3   OH217112   4.106   3.161   3.587
 5724TIP3    H117113   4.086   3.254   3.596
 5724TIP3    H217114   4.152   3.154   3.504
 5725TIP3   OH217115   7.319   0.210   6.650
 5725TIP3    H117116   7.227   0.235   6.654
 5725TIP3    H217117   7.361   0.262   6.719
 5726TIP3   OH217118   8.383   6.089  -0.020
 5726TIP3    H117119   8.304   6.092   0.033
 5726TIP3    H217120   8.447   6.043   0.035
 5727TIP3   OH217121   1.493   5.081   4.150
 5727TIP3    H117122   1.567   5.078   4.210
 5727TIP3    H217123   1.526   5.130   4.074
 5728TIP3   OH217124   6.780   7.071   2.398
 5728TIP3    H117125   6.805   7.005   2.463
 5728TIP3    H217126   6.685   7.059   2.389
 5729TIP3   OH217127   3.212   7.262   5.826
 5729TIP3    H117128   3.227   7.340   5.773
 5729TIP3    H217129   3.124   7.273   5.860
 5730TIP3   OH217130   0.777   3.926   5.254
 5730TIP3    H117131   0.713   3.922   5.325
 5730TIP3    H217132   0.764   3.844   5.206
 5731TIP3   OH217133   3.688   1.527   6.329
 5731TIP3    H117134   3.729   1.608   6.359
 5731TIP3    H217135   3.609   1.520   6.383
 5732TIP3   OH217136   0.674   0.937   0.223
 5732TIP3    H117137   0.718   0.922   0.139
 5732TIP3    H217138   0.581   0.921   0.205
 5733TIP3   OH217139   1.091   6.331   1.885
 5733TIP3    H117140   1.051   6.356   1.968
 5733TIP3    H217141   1.070   6.238   1.875
 5734TIP3   OH217142   2.525   7.415   3.414
 5734TIP3    H117143   2.529   7.392   3.321
 5734TIP3    H217144   2.482   7.501   3.415
 5735TIP3   OH217145   3.626   7.529   4.261
 5735TIP3    H117146   3.582   7.562   4.339
 5735TIP3    H217147   3.718   7.524   4.285
 5736TIP3   OH217148   3.024   0.312   2.846
 5736TIP3    H117149   3.046   0.278   2.933
 5736TIP3    H217150   3.005   0.404   2.861
 5737TIP3   OH217151   3.939   5.727   0.788
 5737TIP3    H117152   3.946   5.804   0.844
 5737TIP3    H217153   4.029   5.695   0.780
 5738TIP3   OH217154   3.229   1.891   3.805
 5738TIP3    H117155   3.141   1.865   3.778
 5738TIP3    H217156   3.214   1.965   3.864
 5739TIP3   OH217157   3.821   6.817   2.687
 5739TIP3    H117158   3.769   6.828   2.607
 5739TIP3    H217159   3.888   6.886   2.680
 5740TIP3   OH217160   7.675   3.062   3.587
 5740TIP3    H117161   7.692   2.974   3.620
 5740TIP3    H217162   7.660   3.050   3.493
 5741TIP3   OH217163   0.914   0.333   4.905
 5741TIP3    H117164   0.982   0.278   4.944
 5741TIP3    H217165   0.907   0.302   4.814
 5742TIP3   OH217166   3.972   4.319   6.734
 5742TIP3    H117167   4.047   4.281   6.779
 5742TIP3    H217168   3.899   4.303   6.794
 5743TIP3   OH217169   8.076   3.688   5.677
 5743TIP3    H117170   7.990   3.715   5.710
 5743TIP3    H217171   8.061   3.663   5.586
 5744TIP3   OH217172   2.301   1.778   3.618
 5744TIP3    H117173   2.317   1.808   3.528
 5744TIP3    H217174   2.368   1.823   3.670
 5745TIP3   OH217175   7.801   1.067   0.193
 5745TIP3    H117176   7.759   1.019   0.265
 5745TIP3    H217177   7.775   1.158   0.206
 5746TIP3   OH217178   3.556   2.594   0.298
 5746TIP3    H117179   3.530   2.504   0.277
 5746TIP3    H217180   3.483   2.630   0.347
 5747TIP3   OH217181   8.348   2.604   3.564
 5747TIP3    H117182   8.290   2.615   3.640
 5747TIP3    H217183   8.316   2.667   3.500
 5748TIP3   OH217184   7.015   0.161   0.469
 5748TIP3    H117185   7.105   0.194   0.470
 5748TIP3    H217186   6.961   0.239   0.471
 5749TIP3   OH217187   6.784   4.895   2.615
 5749TIP3    H117188   6.785   4.882   2.710
 5749TIP3    H217189   6.766   4.808   2.579
 5750TIP3   OH217190   0.359   5.308   4.046
 5750TIP3    H117191   0.327   5.328   4.134
 5750TIP3    H217192   0.387   5.216   4.051
 5751TIP3   OH217193   0.631   6.204   3.618
 5751TIP3    H117194   0.573   6.240   3.685
 5751TIP3    H217195   0.712   6.255   3.625
 5752TIP3   OH217196   6.940   0.227   2.860
 5752TIP3    H117197   6.971   0.292   2.922
 5752TIP3    H217198   6.849   0.251   2.843
 5753TIP3   OH217199   6.105   2.061   1.825
 5753TIP3    H117200   6.089   1.987   1.766
 5753TIP3    H217201   6.138   2.130   1.767
 5754TIP3   OH217202   5.126   0.648   3.032
 5754TIP3    H117203   5.103   0.576   3.090
 5754TIP3    H217204   5.095   0.727   3.077
 5755TIP3   OH217205   5.633   3.010   0.443
 5755TIP3    H117206   5.619   2.918   0.464
 5755TIP3    H217207   5.625   3.015   0.348
 5756TIP3   OH217208   0.633   1.109   0.758
 5756TIP3    H117209   0.660   1.045   0.824
 5756TIP3    H217210   0.607   1.056   0.683
 5757TIP3   OH217211   3.747   3.776   6.717
 5757TIP3    H117212   3.749   3.859   6.764
 5757TIP3    H217213   3.829   3.733   6.740
 5758TIP3   OH217214   7.834   1.810   6.146
 5758TIP3    H117215   7.838   1.743   6.078
 5758TIP3    H217216   7.922   1.809   6.185
 5759TIP3   OH217217   3.405   0.667   1.709
 5759TIP3    H117218   3.404   0.741   1.648
 5759TIP3    H217219   3.494   0.665   1.743
 5760TIP3   OH217220   4.702   5.240   4.934
 5760TIP3    H117221   4.778   5.232   4.876
 5760TIP3    H217222   4.739   5.260   5.020
 5761TIP3   OH217223   5.988   0.296   4.393
 5761TIP3    H117224   6.017   0.342   4.472
 5761TIP3    H217225   5.994   0.361   4.323
 5762TIP3   OH217226   4.761   7.135   4.241
 5762TIP3    H117227   4.729   7.082   4.169
 5762TIP3    H217228   4.773   7.222   4.204
 5763TIP3   OH217229   8.179   7.452   1.371
 5763TIP3    H117230   8.098   7.442   1.422
 5763TIP3    H217231   8.215   7.536   1.398
 5764TIP3   OH217232   1.919   6.589   0.249
 5764TIP3    H117233   1.972   6.579   0.328
 5764TIP3    H217234   1.869   6.507   0.244
 5765TIP3   OH217235   0.265   2.922   4.578
 5765TIP3    H117236   0.349   2.878   4.559
 5765TIP3    H217237   0.200   2.851   4.574
 5766TIP3   OH217238   5.561   3.001   4.215
 5766TIP3    H117239   5.480   3.005   4.268
 5766TIP3    H217240   5.537   2.950   4.138
 5767TIP3   OH217241   1.045   7.620   5.018
 5767TIP3    H117242   0.977   7.638   4.952
 5767TIP3    H217243   1.031   7.529   5.042
 5768TIP3   OH217244   1.597   6.045   2.911
 5768TIP3    H117245   1.535   5.993   2.961
 5768TIP3    H217246   1.544   6.089   2.844
 5769TIP3   OH217247   7.342   3.987   3.426
 5769TIP3    H117248   7.381   3.903   3.450
 5769TIP3    H217249   7.389   4.014   3.348
 5770TIP3   OH217250   0.954   5.468   0.566
 5770TIP3    H117251   0.966   5.438   0.656
 5770TIP3    H217252   0.876   5.421   0.536
 5771TIP3   OH217253   7.240   6.967   1.481
 5771TIP3    H117254   7.208   7.055   1.463
 5771TIP3    H217255   7.253   6.965   1.576
 5772TIP3   OH217256   1.025   6.896   6.059
 5772TIP3    H117257   1.107   6.942   6.040
 5772TIP3    H217258   1.021   6.827   5.993
 5773TIP3   OH217259   3.654   3.579   1.382
 5773TIP3    H117260   3.662   3.670   1.351
 5773TIP3    H217261   3.739   3.559   1.420
 5774TIP3   OH217262   5.737   4.330   5.647
 5774TIP3    H117263   5.809   4.388   5.672
 5774TIP3    H217264   5.746   4.317   5.553
 5775TIP3   OH217265   1.978   1.286   1.633
 5775TIP3    H117266   1.987   1.191   1.626
 5775TIP3    H217267   1.970   1.316   1.542
 5776TIP3   OH217268   4.247   2.352   3.256
 5776TIP3    H117269   4.244   2.427   3.316
 5776TIP3    H217270   4.340   2.335   3.242
 5777TIP3   OH217271   4.951   7.323   0.927
 5777TIP3    H117272   4.996   7.377   0.993
 5777TIP3    H217273   5.000   7.241   0.925
 5778TIP3   OH217274   4.045   0.804   3.479
 5778TIP3    H117275   4.014   0.894   3.466
 5778TIP3    H217276   4.098   0.808   3.558
 5779TIP3   OH217277   8.025   0.535   3.721
 5779TIP3    H117278   7.944   0.584   3.734
 5779TIP3    H217279   8.038   0.488   3.804
 5780TIP3   OH217280   3.932   7.020   1.324
 5780TIP3    H117281   4.002   7.073   1.287
 5780TIP3    H217282   3.852   7.059   1.290
 5781TIP3   OH217283   0.846   2.478   3.053
 5781TIP3    H117284   0.832   2.543   2.985
 5781TIP3    H217285   0.773   2.492   3.114
 5782TIP3   OH217286   3.852   4.809   5.707
 5782TIP3    H117287   3.873   4.903   5.701
 5782TIP3    H217288   3.848   4.791   5.800
 5783TIP3   OH217289   5.541   5.484   6.605
 5783TIP3    H117290   5.564   5.423   6.535
 5783TIP3    H217291   5.599   5.460   6.678
 5784TIP3   OH217292   5.795   7.093   0.935
 5784TIP3    H117293   5.810   7.127   1.023
 5784TIP3    H217294   5.774   7.171   0.883
 5785TIP3   OH217295   0.928   5.710   0.409
 5785TIP3    H117296   0.975   5.695   0.327
 5785TIP3    H217297   0.964   5.645   0.469
 5786TIP3   OH217298   1.117   5.519   6.555
 5786TIP3    H117299   1.038   5.466   6.565
 5786TIP3    H217300   1.108   5.587   6.622
 5787TIP3   OH217301   6.809   2.212   2.079
 5787TIP3    H117302   6.891   2.247   2.114
 5787TIP3    H217303   6.747   2.220   2.152
 5788TIP3   OH217304   7.810   4.116   1.945
 5788TIP3    H117305   7.824   4.083   1.856
 5788TIP3    H217306   7.870   4.064   1.999
 5789TIP3   OH217307   4.480   3.230   0.253
 5789TIP3    H117308   4.445   3.210   0.340
 5789TIP3    H217309   4.575   3.230   0.265
 5790TIP3   OH217310   1.680   5.105   4.525
 5790TIP3    H117311   1.591   5.090   4.491
 5790TIP3    H217312   1.676   5.193   4.564
 5791TIP3   OH217313   4.989   1.824   4.134
 5791TIP3    H117314   4.949   1.893   4.080
 5791TIP3    H217315   5.083   1.832   4.117
 5792TIP3   OH217316   6.363   1.712   3.285
 5792TIP3    H117317   6.308   1.683   3.358
 5792TIP3    H217318   6.325   1.794   3.257
 5793TIP3   OH217319   7.780   4.709   5.780
 5793TIP3    H117320   7.759   4.800   5.758
 5793TIP3    H217321   7.714   4.684   5.844
 5794TIP3   OH217322   1.104   6.733   3.571
 5794TIP3    H117323   1.121   6.698   3.483
 5794TIP3    H217324   1.172   6.692   3.626
 5795TIP3   OH217325   7.569   2.722   0.601
 5795TIP3    H117326   7.597   2.644   0.649
 5795TIP3    H217327   7.632   2.790   0.627
 5796TIP3   OH217328   6.475   3.853   6.363
 5796TIP3    H117329   6.384   3.852   6.394
 5796TIP3    H217330   6.515   3.777   6.405
 5797TIP3   OH217331   3.937   7.652   0.344
 5797TIP3    H117332   4.025   7.614   0.339
 5797TIP3    H217333   3.952   7.745   0.361
 5798TIP3   OH217334   1.312   2.557   3.647
 5798TIP3    H117335   1.341   2.645   3.623
 5798TIP3    H217336   1.380   2.499   3.612
 5799TIP3   OH217337   6.273   4.795   4.307
 5799TIP3    H117338   6.332   4.767   4.238
 5799TIP3    H217339   6.257   4.888   4.289
 5800TIP3   OH217340   4.933   4.211   4.944
 5800TIP3    H117341   4.930   4.181   5.034
 5800TIP3    H217342   4.981   4.143   4.897
 5801TIP3   OH217343   3.014   6.032   6.316
 5801TIP3    H117344   3.033   6.067   6.404
 5801TIP3    H217345   3.070   6.083   6.258
 5802TIP3   OH217346   2.126   1.682   2.035
 5802TIP3    H117347   2.153   1.590   2.031
 5802TIP3    H217348   2.063   1.686   2.107
 5803TIP3   OH217349   6.887   4.415   4.479
 5803TIP3    H117350   6.929   4.365   4.409
 5803TIP3    H217351   6.960   4.454   4.527
 5804TIP3   OH217352   6.068   7.855   0.190
 5804TIP3    H117353   5.989   7.865   0.243
 5804TIP3    H217354   6.040   7.872   0.100
 5805TIP3   OH217355   3.253   0.815   6.282
 5805TIP3    H117356   3.248   0.755   6.356
 5805TIP3    H217357   3.300   0.891   6.316
 5806TIP3   OH217358   7.396   0.258   5.454
 5806TIP3    H117359   7.392   0.353   5.466
 5806TIP3    H217360   7.437   0.226   5.534
 5807TIP3   OH217361   8.391   3.175   6.842
 5807TIP3    H117362   8.348   3.172   6.757
 5807TIP3    H217363   8.353   3.103   6.891
 5808TIP3   OH217364   7.953   7.537   6.299
 5808TIP3    H117365   7.880   7.476   6.288
 5808TIP3    H217366   8.026   7.482   6.328
 5809TIP3   OH217367   7.336   4.296   1.417
 5809TIP3    H117368   7.251   4.291   1.374
 5809TIP3    H217369   7.364   4.205   1.427
 5810TIP3   OH217370   7.000   4.698   2.338
 5810TIP3    H117371   7.060   4.723   2.268
 5810TIP3    H217372   7.042   4.623   2.380
 5811TIP3   OH217373   3.434   5.728   2.980
 5811TIP3    H117374   3.421   5.735   3.075
 5811TIP3    H217375   3.449   5.635   2.965
 5812TIP3   OH217376   1.046   0.655   2.765
 5812TIP3    H117377   1.073   0.573   2.723
 5812TIP3    H217378   1.003   0.627   2.846
 5813TIP3   OH217379   7.851   6.033   4.960
 5813TIP3    H117380   7.872   6.103   4.899
 5813TIP3    H217381   7.871   6.071   5.046
 5814TIP3   OH217382   2.786   0.555   3.314
 5814TIP3    H117383   2.750   0.561   3.225
 5814TIP3    H217384   2.826   0.468   3.317
 5815TIP3   OH217385   8.166   7.396   1.767
 5815TIP3    H117386   8.112   7.321   1.790
 5815TIP3    H217387   8.106   7.456   1.721
 5816TIP3   OH217388   5.831   6.146   0.715
 5816TIP3    H117389   5.875   6.216   0.667
 5816TIP3    H217390   5.756   6.123   0.659
 5817TIP3   OH217391   4.023   6.116   4.103
 5817TIP3    H117392   4.112   6.114   4.138
 5817TIP3    H217393   4.023   6.048   4.036
 5818TIP3   OH217394   6.183   4.572   3.165
 5818TIP3    H117395   6.166   4.641   3.229
 5818TIP3    H217396   6.273   4.545   3.182
 5819TIP3   OH217397   6.827   2.231   3.949
 5819TIP3    H117398   6.876   2.191   4.021
 5819TIP3    H217399   6.864   2.319   3.941
 5820TIP3   OH217400   2.992   5.958   1.122
 5820TIP3    H117401   3.008   6.045   1.085
 5820TIP3    H217402   2.980   5.901   1.046
 5821TIP3   OH217403   1.191   3.226   3.174
 5821TIP3    H117404   1.261   3.228   3.110
 5821TIP3    H217405   1.163   3.134   3.177
 5822TIP3   OH217406   2.595   1.228   3.429
 5822TIP3    H117407   2.669   1.206   3.372
 5822TIP3    H217408   2.605   1.321   3.447
 5823TIP3   OH217409   4.570   5.443   3.714
 5823TIP3    H117410   4.603   5.475   3.798
 5823TIP3    H217411   4.625   5.486   3.648
 5824TIP3   OH217412   5.445   7.210   6.114
 5824TIP3    H117413   5.369   7.265   6.094
 5824TIP3    H217414   5.417   7.158   6.190
 5825TIP3   OH217415   6.181   1.598   4.729
 5825TIP3    H117416   6.241   1.671   4.746
 5825TIP3    H217417   6.098   1.627   4.768
 5826TIP3   OH217418   7.965   2.192   5.915
 5826TIP3    H117419   7.976   2.282   5.883
 5826TIP3    H217420   7.879   2.166   5.883
 5827TIP3   OH217421   7.881   4.800   6.613
 5827TIP3    H117422   7.956   4.855   6.592
 5827TIP3    H217423   7.898   4.767   6.701
 5828TIP3   OH217424   7.464   3.087   2.625
 5828TIP3    H117425   7.469   3.138   2.544
 5828TIP3    H217426   7.377   3.047   2.622
 5829TIP3   OH217427   1.431   6.172   2.372
 5829TIP3    H117428   1.514   6.214   2.391
 5829TIP3    H217429   1.368   6.244   2.366
 5830TIP3   OH217430   4.155   1.813   3.305
 5830TIP3    H117431   4.186   1.898   3.275
 5830TIP3    H217432   4.080   1.794   3.248
 5831TIP3   OH217433   0.259   4.150   0.721
 5831TIP3    H117434   0.336   4.181   0.768
 5831TIP3    H217435   0.268   4.055   0.721
 5832TIP3   OH217436   3.324   1.842   1.772
 5832TIP3    H117437   3.236   1.879   1.780
 5832TIP3    H217438   3.309   1.750   1.750
 5833TIP3   OH217439   1.673   7.659   1.300
 5833TIP3    H117440   1.649   7.720   1.230
 5833TIP3    H217441   1.762   7.684   1.323
 5834TIP3   OH217442   4.255   1.116   4.339
 5834TIP3    H117443   4.278   1.026   4.359
 5834TIP3    H217444   4.173   1.131   4.386
 5835TIP3   OH217445   2.255   0.938   0.073
 5835TIP3    H117446   2.270   1.004   0.141
 5835TIP3    H217447   2.245   0.856   0.122
 5836TIP3   OH217448   5.641   1.503   1.679
 5836TIP3    H117449   5.634   1.537   1.590
 5836TIP3    H217450   5.712   1.439   1.676
 5837TIP3   OH217451   0.367   4.419   4.144
 5837TIP3    H117452   0.354   4.332   4.183
 5837TIP3    H217453   0.417   4.402   4.064
 5838TIP3   OH217454   5.138   3.970   0.725
 5838TIP3    H117455   5.113   3.924   0.645
 5838TIP3    H217456   5.138   4.062   0.700
 5839TIP3   OH217457   5.799   0.244   4.849
 5839TIP3    H117458   5.733   0.219   4.913
 5839TIP3    H217459   5.798   0.173   4.785
 5840TIP3   OH217460   1.671   5.760   6.586
 5840TIP3    H117461   1.721   5.841   6.596
 5840TIP3    H217462   1.580   5.787   6.592
 5841TIP3   OH217463   6.487   4.330   1.614
 5841TIP3    H117464   6.573   4.372   1.613
 5841TIP3    H217465   6.441   4.369   1.540
 5842TIP3   OH217466   8.299   5.507   0.058
 5842TIP3    H117467   8.237   5.576   0.079
 5842TIP3    H217468   8.369   5.516   0.122
 5843TIP3   OH217469   6.934   4.807   1.883
 5843TIP3    H117470   7.019   4.777   1.849
 5843TIP3    H217471   6.953   4.894   1.920
 5844TIP3   OH217472   0.425   4.351   2.218
 5844TIP3    H117473   0.455   4.263   2.240
 5844TIP3    H217474   0.349   4.337   2.161
 5845TIP3   OH217475   6.974   5.811   2.989
 5845TIP3    H117476   6.958   5.847   3.076
 5845TIP3    H217477   7.010   5.884   2.939
 5846TIP3   OH217478   3.874   4.001   5.947
 5846TIP3    H117479   3.913   3.924   5.904
 5846TIP3    H217480   3.782   3.979   5.957
 5847TIP3   OH217481   4.196   7.662   6.103
 5847TIP3    H117482   4.292   7.655   6.105
 5847TIP3    H217483   4.169   7.596   6.039
 5848TIP3   OH217484   3.149   4.664   3.969
 5848TIP3    H117485   3.109   4.713   4.041
 5848TIP3    H217486   3.201   4.729   3.922
 5849TIP3   OH217487   0.121   4.537   2.171
 5849TIP3    H117488   0.136   4.559   2.263
 5849TIP3    H217489   0.045   4.589   2.146
 5850TIP3   OH217490   5.996   3.176   4.625
 5850TIP3    H117491   5.948   3.096   4.606
 5850TIP3    H217492   5.975   3.234   4.552
 5851TIP3   OH217493   1.453   1.940   6.081
 5851TIP3    H117494   1.487   2.012   6.029
 5851TIP3    H217495   1.444   1.976   6.169
 5852TIP3   OH217496   6.119   7.397   5.454
 5852TIP3    H117497   6.132   7.312   5.498
 5852TIP3    H217498   6.196   7.448   5.477
 5853TIP3   OH217499   4.677   1.127   3.432
 5853TIP3    H117500   4.691   1.173   3.350
 5853TIP3    H217501   4.747   1.159   3.490
 5854TIP3   OH217502   4.364   0.309   6.849
 5854TIP3    H117503   4.425   0.308   6.922
 5854TIP3    H217504   4.396   0.380   6.792
 5855TIP3   OH217505   5.878   6.425   5.216
 5855TIP3    H117506   5.936   6.449   5.287
 5855TIP3    H217507   5.891   6.494   5.150
 5856TIP3   OH217508   7.897   4.669   6.047
 5856TIP3    H117509   7.909   4.631   5.959
 5856TIP3    H217510   7.950   4.613   6.104
 5857TIP3   OH217511   8.134   5.312   5.799
 5857TIP3    H117512   8.171   5.399   5.783
 5857TIP3    H217513   8.041   5.322   5.779
 5858TIP3   OH217514   5.207   6.457   2.120
 5858TIP3    H117515   5.244   6.491   2.038
 5858TIP3    H217516   5.254   6.375   2.135
 5859TIP3   OH217517   1.746   4.018   6.828
 5859TIP3    H117518   1.696   3.938   6.846
 5859TIP3    H217519   1.831   4.002   6.869
 5860TIP3   OH217520   7.660   7.835   3.860
 5860TIP3    H117521   7.641   7.825   3.954
 5860TIP3    H217522   7.587   7.888   3.827
 5861TIP3   OH217523   4.242   5.313   5.387
 5861TIP3    H117524   4.260   5.394   5.340
 5861TIP3    H217525   4.276   5.328   5.475
 5862TIP3   OH217526   5.444   2.256   0.971
 5862TIP3    H117527   5.508   2.323   0.995
 5862TIP3    H217528   5.387   2.248   1.047
 5863TIP3   OH217529   6.993   0.962   4.892
 5863TIP3    H117530   7.040   0.976   4.810
 5863TIP3    H217531   6.906   0.932   4.864
 5864TIP3   OH217532   2.669   0.030   0.804
 5864TIP3    H117533   2.658   0.070   0.891
 5864TIP3    H217534   2.584   0.041   0.762
 5865TIP3   OH217535   3.529   2.623   1.372
 5865TIP3    H117536   3.486   2.612   1.457
 5865TIP3    H217537   3.577   2.705   1.380
 5866TIP3   OH217538   1.285   2.588   5.133
 5866TIP3    H117539   1.306   2.593   5.040
 5866TIP3    H217540   1.337   2.515   5.165
 5867TIP3   OH217541   0.075   7.071   3.889
 5867TIP3    H117542   0.147   7.121   3.927
 5867TIP3    H217543  -0.004   7.115   3.920
 5868TIP3   OH217544   0.314   6.387   5.137
 5868TIP3    H117545   0.258   6.464   5.150
 5868TIP3    H217546   0.395   6.423   5.101
 5869TIP3   OH217547   5.375   0.622   1.056
 5869TIP3    H117548   5.407   0.696   1.004
 5869TIP3    H217549   5.415   0.634   1.141
 5870TIP3   OH217550   5.036   0.509   5.226
 5870TIP3    H117551   5.127   0.514   5.198
 5870TIP3    H217552   5.023   0.417   5.249
 5871TIP3   OH217553   2.741   1.667   3.805
 5871TIP3    H117554   2.691   1.663   3.724
 5871TIP3    H217555   2.757   1.576   3.828
 5872TIP3   OH217556   8.225   3.827   1.112
 5872TIP3    H117557   8.243   3.736   1.137
 5872TIP3    H217558   8.292   3.847   1.046
 5873TIP3   OH217559   5.340   0.652   0.451
 5873TIP3    H117560   5.296   0.567   0.460
 5873TIP3    H217561   5.410   0.637   0.387
 5874TIP3   OH217562   1.972   2.888   6.789
 5874TIP3    H117563   1.985   2.868   6.881
 5874TIP3    H217564   1.876   2.893   6.779
 5875TIP3   OH217565   7.971   6.438   5.812
 5875TIP3    H117566   7.943   6.520   5.771
 5875TIP3    H217567   8.048   6.462   5.863
 5876TIP3   OH217568   7.653   6.555   6.581
 5876TIP3    H117569   7.732   6.502   6.585
 5876TIP3    H217570   7.596   6.518   6.649
 5877TIP3   OH217571   1.631   3.880   1.086
 5877TIP3    H117572   1.711   3.932   1.076
 5877TIP3    H217573   1.632   3.853   1.178
 5878TIP3   OH217574   6.325   3.581   6.654
 5878TIP3    H117575   6.301   3.644   6.586
 5878TIP3    H217576   6.252   3.520   6.657
 5879TIP3   OH217577   8.384   6.278   1.357
 5879TIP3    H117578   8.323   6.316   1.293
 5879TIP3    H217579   8.333   6.274   1.438
 5880TIP3   OH217580   4.648   3.806   1.451
 5880TIP3    H117581   4.620   3.715   1.441
 5880TIP3    H217582   4.576   3.848   1.499
 5881TIP3   OH217583   1.737   7.366   0.960
 5881TIP3    H117584   1.804   7.387   0.894
 5881TIP3    H217585   1.732   7.271   0.959
 5882TIP3   OH217586   6.989   0.615   5.941
 5882TIP3    H117587   7.003   0.678   6.011
 5882TIP3    H217588   7.050   0.544   5.960
 5883TIP3   OH217589   7.751   2.837   5.352
 5883TIP3    H117590   7.739   2.927   5.381
 5883TIP3    H217591   7.664   2.799   5.354
 5884TIP3   OH217592   2.842   5.826   4.391
 5884TIP3    H117593   2.827   5.845   4.484
 5884TIP3    H217594   2.899   5.897   4.361
 5885TIP3   OH217595   3.060   0.672   5.720
 5885TIP3    H117596   3.125   0.603   5.733
 5885TIP3    H217597   3.077   0.735   5.790
 5886TIP3   OH217598   6.715   2.712   6.600
 5886TIP3    H117599   6.718   2.778   6.530
 5886TIP3    H217600   6.725   2.763   6.680
 5887TIP3   OH217601   7.786   2.565   1.377
 5887TIP3    H117602   7.725   2.527   1.440
 5887TIP3    H217603   7.790   2.502   1.305
 5888TIP3   OH217604   7.357   7.673   2.152
 5888TIP3    H117605   7.264   7.652   2.148
 5888TIP3    H217606   7.360   7.765   2.177
 5889TIP3   OH217607   7.464   7.595   5.578
 5889TIP3    H117608   7.401   7.569   5.645
 5889TIP3    H217609   7.413   7.650   5.518
 5890TIP3   OH217610   4.236   2.136   2.401
 5890TIP3    H117611   4.185   2.182   2.468
 5890TIP3    H217612   4.172   2.113   2.333
 5891TIP3   OH217613   8.107   7.228   2.157
 5891TIP3    H117614   8.147   7.282   2.226
 5891TIP3    H217615   8.181   7.198   2.104
 5892TIP3   OH217616   3.077   6.162   1.423
 5892TIP3    H117617   3.092   6.076   1.462
 5892TIP3    H217618   2.983   6.164   1.404
 5893TIP3   OH217619   1.841   4.833   2.931
 5893TIP3    H117620   1.877   4.745   2.919
 5893TIP3    H217621   1.823   4.864   2.843
 5894TIP3   OH217622   3.276   6.199   4.943
 5894TIP3    H117623   3.256   6.114   4.904
 5894TIP3    H217624   3.295   6.256   4.869
 5895TIP3   OH217625   8.014   0.344   3.949
 5895TIP3    H117626   8.052   0.260   3.975
 5895TIP3    H217627   8.054   0.408   4.008
 5896TIP3   OH217628   4.357   4.271   2.810
 5896TIP3    H117629   4.422   4.295   2.744
 5896TIP3    H217630   4.354   4.346   2.869
 5897TIP3   OH217631   8.428   5.726   1.550
 5897TIP3    H117632   8.405   5.814   1.521
 5897TIP3    H217633   8.344   5.684   1.567
 5898TIP3   OH217634   1.611   2.587   3.088
 5898TIP3    H117635   1.551   2.542   3.147
 5898TIP3    H217636   1.624   2.673   3.126
 5899TIP3   OH217637   1.966   0.836   0.634
 5899TIP3    H117638   1.932   0.912   0.681
 5899TIP3    H217639   2.016   0.787   0.699
 5900TIP3   OH217640   5.883   2.863   6.236
 5900TIP3    H117641   5.876   2.932   6.170
 5900TIP3    H217642   5.926   2.905   6.310
 5901TIP3   OH217643   8.066   3.114   2.183
 5901TIP3    H117644   8.031   3.194   2.224
 5901TIP3    H217645   8.156   3.136   2.161
 5902TIP3   OH217646   0.452   7.787   3.389
 5902TIP3    H117647   0.457   7.701   3.432
 5902TIP3    H217648   0.501   7.845   3.447
 5903TIP3   OH217649   6.194   5.597   3.956
 5903TIP3    H117650   6.284   5.589   3.987
 5903TIP3    H217651   6.141   5.557   4.025
 5904TIP3   OH217652   5.117   2.995   0.561
 5904TIP3    H117653   5.078   2.914   0.597
 5904TIP3    H217654   5.098   2.990   0.467
 5905TIP3   OH217655   8.060   0.925   2.402
 5905TIP3    H117656   8.138   0.979   2.393
 5905TIP3    H217657   7.988   0.989   2.407
 5906TIP3   OH217658   5.838   2.707   4.458
 5906TIP3    H117659   5.798   2.622   4.477
 5906TIP3    H217660   5.769   2.771   4.479
 5907TIP3   OH217661   4.206   0.835   3.687
 5907TIP3    H117662   4.230   0.763   3.745
 5907TIP3    H217663   4.290   0.871   3.658
 5908TIP3   OH217664   3.445   7.032   0.019
 5908TIP3    H117665   3.520   7.030   0.078
 5908TIP3    H217666   3.421   7.125   0.014
 5909TIP3   OH217667   8.157   6.903   3.163
 5909TIP3    H117668   8.098   6.892   3.237
 5909TIP3    H217669   8.131   6.985   3.123
 5910TIP3   OH217670   6.835   2.316   0.881
 5910TIP3    H117671   6.773   2.274   0.821
 5910TIP3    H217672   6.919   2.275   0.860
 5911TIP3   OH217673   6.447   5.944   3.419
 5911TIP3    H117674   6.410   6.027   3.388
 5911TIP3    H217675   6.373   5.883   3.419
 5912TIP3   OH217676   6.120   5.246   3.638
 5912TIP3    H117677   6.137   5.334   3.604
 5912TIP3    H217678   6.170   5.241   3.719
 5913TIP3   OH217679   1.617   7.537   5.215
 5913TIP3    H117680   1.708   7.568   5.218
 5913TIP3    H217681   1.597   7.530   5.121
 5914TIP3   OH217682   5.111   3.257   0.467
 5914TIP3    H117683   5.145   3.258   0.377
 5914TIP3    H217684   5.141   3.173   0.503
 5915TIP3   OH217685   7.392   1.185   4.030
 5915TIP3    H117686   7.455   1.244   4.073
 5915TIP3    H217687   7.331   1.160   4.100
 5916TIP3   OH217688   1.437   2.199   2.333
 5916TIP3    H117689   1.347   2.225   2.354
 5916TIP3    H217690   1.484   2.281   2.321
 5917TIP3   OH217691   6.909   4.685   0.703
 5917TIP3    H117692   6.864   4.680   0.787
 5917TIP3    H217693   6.949   4.771   0.702
 5918TIP3   OH217694   8.342   0.816   3.673
 5918TIP3    H117695   8.435   0.823   3.693
 5918TIP3    H217696   8.308   0.904   3.688
 5919TIP3   OH217697   1.648   4.907   3.117
 5919TIP3    H117698   1.629   4.994   3.084
 5919TIP3    H217699   1.717   4.873   3.060
 5920TIP3   OH217700   8.113   1.376   5.258
 5920TIP3    H117701   8.182   1.389   5.323
 5920TIP3    H217702   8.034   1.361   5.310
 5921TIP3   OH217703   0.558   2.756   6.047
 5921TIP3    H117704   0.583   2.774   6.137
 5921TIP3    H217705   0.640   2.735   6.002
 5922TIP3   OH217706   2.682   0.812   5.525
 5922TIP3    H117707   2.660   0.839   5.614
 5922TIP3    H217708   2.745   0.741   5.536
 5923TIP3   OH217709   2.167   3.241   0.456
 5923TIP3    H117710   2.246   3.242   0.511
 5923TIP3    H217711   2.118   3.164   0.488
 5924TIP3   OH217712   6.074   4.287   1.568
 5924TIP3    H117713   6.053   4.260   1.478
 5924TIP3    H217714   6.146   4.230   1.594
 5925TIP3   OH217715   1.275   1.992   2.505
 5925TIP3    H117716   1.211   1.964   2.440
 5925TIP3    H217717   1.254   2.084   2.522
 5926TIP3   OH217718   0.842   2.821   5.508
 5926TIP3    H117719   0.767   2.848   5.455
 5926TIP3    H217720   0.833   2.870   5.589
 5927TIP3   OH217721   0.214   0.337   0.757
 5927TIP3    H117722   0.127   0.297   0.767
 5927TIP3    H217723   0.263   0.274   0.705
 5928TIP3   OH217724   6.479   2.632   0.625
 5928TIP3    H117725   6.422   2.590   0.561
 5928TIP3    H217726   6.566   2.594   0.608
 5929TIP3   OH217727   2.556   1.390   4.866
 5929TIP3    H117728   2.545   1.375   4.960
 5929TIP3    H217729   2.480   1.349   4.826
 5930TIP3   OH217730   6.870   6.566   0.050
 5930TIP3    H117731   6.912   6.604  -0.027
 5930TIP3    H217732   6.888   6.628   0.120
 5931TIP3   OH217733   7.396   1.517   2.775
 5931TIP3    H117734   7.318   1.564   2.806
 5931TIP3    H217735   7.364   1.429   2.755
 5932TIP3   OH217736   6.645   4.149   1.170
 5932TIP3    H117737   6.706   4.142   1.096
 5932TIP3    H217738   6.635   4.059   1.201
 5933TIP3   OH217739   6.079   7.700   0.767
 5933TIP3    H117740   6.055   7.679   0.857
 5933TIP3    H217741   6.027   7.639   0.714
 5934TIP3   OH217742   5.817   1.412   3.264
 5934TIP3    H117743   5.809   1.491   3.317
 5934TIP3    H217744   5.906   1.415   3.230
 5935TIP3   OH217745   7.829   5.489   6.069
 5935TIP3    H117746   7.855   5.399   6.047
 5935TIP3    H217747   7.838   5.537   5.987
 5936TIP3   OH217748   6.059   3.359   3.866
 5936TIP3    H117749   6.119   3.371   3.792
 5936TIP3    H217750   6.065   3.266   3.887
 5937TIP3   OH217751   3.918   6.949   1.823
 5937TIP3    H117752   3.899   6.876   1.764
 5937TIP3    H217753   3.946   6.908   1.905
 5938TIP3   OH217754   3.034   3.291   6.060
 5938TIP3    H117755   2.979   3.217   6.032
 5938TIP3    H217756   3.044   3.279   6.154
 5939TIP3   OH217757   0.149   3.987   3.969
 5939TIP3    H117758   0.198   3.999   3.888
 5939TIP3    H217759   0.079   3.925   3.947
 5940TIP3   OH217760   3.267   3.789   0.279
 5940TIP3    H117761   3.277   3.884   0.276
 5940TIP3    H217762   3.179   3.775   0.313
 5941TIP3   OH217763   5.594   0.904   2.112
 5941TIP3    H117764   5.654   0.976   2.098
 5941TIP3    H217765   5.649   0.832   2.144
 5942TIP3   OH217766   4.850   1.503   0.021
 5942TIP3    H117767   4.848   1.452   0.103
 5942TIP3    H217768   4.853   1.594   0.049
 5943TIP3   OH217769   2.480   0.490   5.104
 5943TIP3    H117770   2.444   0.473   5.191
 5943TIP3    H217771   2.551   0.551   5.119
 5944TIP3   OH217772   1.669   1.609   1.314
 5944TIP3    H117773   1.602   1.676   1.301
 5944TIP3    H217774   1.736   1.652   1.367
 5945TIP3   OH217775   3.978   1.355   0.453
 5945TIP3    H117776   3.923   1.301   0.396
 5945TIP3    H217777   3.976   1.442   0.412
 5946TIP3   OH217778   4.697   0.036   6.808
 5946TIP3    H117779   4.649   0.087   6.742
 5946TIP3    H217780   4.783   0.079   6.813
 5947TIP3   OH217781   6.713   1.780   5.336
 5947TIP3    H117782   6.673   1.694   5.350
 5947TIP3    H217783   6.807   1.763   5.338
 5948TIP3   OH217784   4.184   4.512  -0.001
 5948TIP3    H117785   4.154   4.422   0.000
 5948TIP3    H217786   4.168   4.544   0.088
 5949TIP3   OH217787   5.633   3.728   4.788
 5949TIP3    H117788   5.668   3.814   4.810
 5949TIP3    H217789   5.542   3.746   4.763
 5950TIP3   OH217790   0.872   6.166   5.986
 5950TIP3    H117791   0.794   6.125   5.949
 5950TIP3    H217792   0.861   6.259   5.971
 5951TIP3   OH217793   3.404   7.342   0.388
 5951TIP3    H117794   3.332   7.404   0.397
 5951TIP3    H217795   3.369   7.259   0.422
 5952TIP3   OH217796   8.083   6.576   6.377
 5952TIP3    H117797   8.113   6.516   6.309
 5952TIP3    H217798   8.147   6.567   6.447
 5953TIP3   OH217799   3.036   3.155   2.028
 5953TIP3    H117800   3.105   3.157   1.962
 5953TIP3    H217801   3.048   3.070   2.072
 5954TIP3   OH217802   3.499   0.241   5.829
 5954TIP3    H117803   3.504   0.220   5.923
 5954TIP3    H217804   3.438   0.176   5.794
 5955TIP3   OH217805   6.870   2.317   4.563
 5955TIP3    H117806   6.820   2.236   4.554
 5955TIP3    H217807   6.960   2.293   4.541
 5956TIP3   OH217808   7.912   2.168   4.918
 5956TIP3    H117809   7.825   2.206   4.904
 5956TIP3    H217810   7.950   2.221   4.988
 5957TIP3   OH217811   1.881   1.968   0.685
 5957TIP3    H117812   1.832   2.050   0.688
 5957TIP3    H217813   1.957   1.983   0.741
 5958TIP3   OH217814   4.213   4.019   1.798
 5958TIP3    H117815   4.253   4.096   1.756
 5958TIP3    H217816   4.183   3.965   1.726
 5959TIP3   OH217817   0.285   0.069   6.821
 5959TIP3    H117818   0.257  -0.001   6.762
 5959TIP3    H217819   0.352   0.117   6.772
 5960TIP3   OH217820   5.882   4.807   3.351
 5960TIP3    H117821   5.875   4.828   3.258
 5960TIP3    H217822   5.800   4.763   3.372
 5961TIP3   OH217823   0.254   6.533   3.310
 5961TIP3    H117824   0.315   6.460   3.309
 5961TIP3    H217825   0.169   6.494   3.330
 5962TIP3   OH217826   7.261   3.347   4.117
 5962TIP3    H117827   7.185   3.357   4.174
 5962TIP3    H217828   7.225   3.353   4.028
 5963TIP3   OH217829   2.760   0.425   2.051
 5963TIP3    H117830   2.843   0.415   2.004
 5963TIP3    H217831   2.716   0.497   2.005
 5964TIP3   OH217832   1.068   6.085   1.482
 5964TIP3    H117833   1.067   6.161   1.540
 5964TIP3    H217834   1.008   6.023   1.523
 5965TIP3   OH217835   1.876   2.264   4.360
 5965TIP3    H117836   1.940   2.193   4.355
 5965TIP3    H217837   1.905   2.327   4.294
 5966TIP3   OH217838   0.530   3.932   1.057
 5966TIP3    H117839   0.505   4.019   1.026
 5966TIP3    H217840   0.560   3.946   1.147
 5967TIP3   OH217841   7.930   3.885   3.727
 5967TIP3    H117842   7.915   3.796   3.759
 5967TIP3    H217843   7.970   3.930   3.801
 5968TIP3   OH217844   4.330   4.916   1.946
 5968TIP3    H117845   4.242   4.909   1.984
 5968TIP3    H217846   4.387   4.931   2.022
 5969TIP3   OH217847   5.455   6.107   6.334
 5969TIP3    H117848   5.362   6.097   6.357
 5969TIP3    H217849   5.499   6.040   6.386
 5970TIP3   OH217850   3.226   6.647   0.095
 5970TIP3    H117851   3.226   6.622   0.002
 5970TIP3    H217852   3.178   6.577   0.139
 5971TIP3   OH217853   5.594   0.890   1.796
 5971TIP3    H117854   5.619   0.924   1.882
 5971TIP3    H217855   5.515   0.939   1.773
 5972TIP3   OH217856   3.135   5.435   4.455
 5972TIP3    H117857   3.051   5.477   4.439
 5972TIP3    H217858   3.193   5.506   4.483
 5973TIP3   OH217859   3.007   5.452   3.727
 5973TIP3    H117860   3.066   5.525   3.714
 5973TIP3    H217861   3.044   5.380   3.676
 5974TIP3   OH217862   3.258   6.960   1.417
 5974TIP3    H117863   3.345   6.978   1.452
 5974TIP3    H217864   3.274   6.911   1.337
 5975TIP3   OH217865   5.268   6.927   4.209
 5975TIP3    H117866   5.296   6.995   4.148
 5975TIP3    H217867   5.187   6.961   4.247
 5976TIP3   OH217868   2.532   7.617   3.068
 5976TIP3    H117869   2.604   7.557   3.084
 5976TIP3    H217870   2.572   7.692   3.025
 5977TIP3   OH217871   7.788   7.400   1.748
 5977TIP3    H117872   7.695   7.413   1.765
 5977TIP3    H217873   7.812   7.325   1.802
 5978TIP3   OH217874   7.254   5.890   3.702
 5978TIP3    H117875   7.165   5.879   3.735
 5978TIP3    H217876   7.298   5.808   3.721
 5979TIP3   OH217877   1.044   7.851   2.989
 5979TIP3    H117878   1.067   7.827   3.079
 5979TIP3    H217879   1.124   7.888   2.952
 5980TIP3   OH217880   5.409   6.472   6.799
 5980TIP3    H117881   5.350   6.525   6.746
 5980TIP3    H217882   5.468   6.536   6.840
 5981TIP3   OH217883   8.108   7.568   5.931
 5981TIP3    H117884   8.184   7.538   5.982
 5981TIP3    H217885   8.142   7.579   5.842
 5982TIP3   OH217886   2.832   7.293   6.689
 5982TIP3    H117887   2.868   7.271   6.603
 5982TIP3    H217888   2.765   7.226   6.704
 5983TIP3   OH217889   3.891   6.916   4.219
 5983TIP3    H117890   3.908   6.998   4.266
 5983TIP3    H217891   3.889   6.849   4.287
 5984TIP3   OH217892   7.731   5.606   4.340
 5984TIP3    H117893   7.676   5.581   4.415
 5984TIP3    H217894   7.800   5.659   4.378
 5985TIP3   OH217895   6.707   4.242   6.421
 5985TIP3    H117896   6.758   4.293   6.483
 5985TIP3    H217897   6.673   4.306   6.358
 5986TIP3   OH217898   3.730   5.796   2.156
 5986TIP3    H117899   3.801   5.735   2.173
 5986TIP3    H217900   3.669   5.784   2.229
 5987TIP3   OH217901   6.849   5.548   2.347
 5987TIP3    H117902   6.909   5.622   2.360
 5987TIP3    H217903   6.767   5.588   2.320
 5988TIP3   OH217904   1.334   2.614   6.412
 5988TIP3    H117905   1.240   2.628   6.425
 5988TIP3    H217906   1.375   2.678   6.470
 5989TIP3   OH217907   1.787   2.384   5.516
 5989TIP3    H117908   1.822   2.335   5.441
 5989TIP3    H217909   1.777   2.318   5.584
 5990TIP3   OH217910   2.870   5.423   3.154
 5990TIP3    H117911   2.962   5.445   3.138
 5990TIP3    H217912   2.829   5.507   3.176
 5991TIP3   OH217913   5.972   0.322   3.002
 5991TIP3    H117914   5.937   0.254   3.058
 5991TIP3    H217915   6.057   0.344   3.039
 5992TIP3   OH217916   0.438   2.853   6.511
 5992TIP3    H117917   0.446   2.901   6.429
 5992TIP3    H217918   0.423   2.921   6.577
 5993TIP3   OH217919   5.933   6.160   1.272
 5993TIP3    H117920   5.909   6.245   1.309
 5993TIP3    H217921   5.880   6.153   1.192
 5994TIP3   OH217922   3.497   7.531   3.425
 5994TIP3    H117923   3.410   7.494   3.444
 5994TIP3    H217924   3.539   7.539   3.511
 5995TIP3   OH217925   7.425   5.364   2.942
 5995TIP3    H117926   7.337   5.327   2.942
 5995TIP3    H217927   7.429   5.417   3.022
 5996TIP3   OH217928   5.776   0.518   5.065
 5996TIP3    H117929   5.776   0.452   5.134
 5996TIP3    H217930   5.813   0.596   5.106
 5997TIP3   OH217931   6.515   4.755   1.822
 5997TIP3    H117932   6.487   4.835   1.866
 5997TIP3    H217933   6.480   4.762   1.733
 5998TIP3   OH217934   2.352   1.946   3.092
 5998TIP3    H117935   2.319   2.034   3.109
 5998TIP3    H217936   2.290   1.909   3.028
 5999TIP3   OH217937   7.235   7.901   1.388
 5999TIP3    H117938   7.249   7.834   1.321
 5999TIP3    H217939   7.316   7.900   1.440
 6000TIP3   OH217940   7.220   3.674   4.085
 6000TIP3    H117941   7.286   3.732   4.048
 6000TIP3    H217942   7.178   3.725   4.153
 6001TIP3   OH217943   2.555   4.556   1.670
 6001TIP3    H117944   2.622   4.603   1.718
 6001TIP3    H217945   2.603   4.497   1.612
 6002TIP3   OH217946   1.183   1.851   4.681
 6002TIP3    H117947   1.098   1.809   4.665
 6002TIP3    H217948   1.247   1.792   4.640
 6003TIP3   OH217949   4.251   6.704   3.532
 6003TIP3    H117950   4.277   6.749   3.452
 6003TIP3    H217951   4.286   6.615   3.522
 6004TIP3   OH217952   0.461   5.204   1.208
 6004TIP3    H117953   0.403   5.205   1.284
 6004TIP3    H217954   0.449   5.289   1.166
 6005TIP3   OH217955   0.692   2.223   3.813
 6005TIP3    H117956   0.765   2.285   3.814
 6005TIP3    H217957   0.715   2.160   3.744
 6006TIP3   OH217958   6.008   5.443   1.740
 6006TIP3    H117959   6.012   5.487   1.655
 6006TIP3    H217960   6.048   5.506   1.801
 6007TIP3   OH217961   5.582   5.123   5.648
 6007TIP3    H117962   5.585   5.117   5.552
 6007TIP3    H217963   5.583   5.217   5.666
 6008TIP3   OH217964   6.678   3.640   2.187
 6008TIP3    H117965   6.733   3.565   2.212
 6008TIP3    H217966   6.670   3.692   2.267
 6009TIP3   OH217967   3.739   5.055   1.538
 6009TIP3    H117968   3.780   5.018   1.616
 6009TIP3    H217969   3.657   5.007   1.528
 6010TIP3   OH217970   0.230   6.529   1.177
 6010TIP3    H117971   0.203   6.604   1.231
 6010TIP3    H217972   0.286   6.567   1.110
 6011TIP3   OH217973   5.113   7.167   1.462
 6011TIP3    H117974   5.195   7.117   1.457
 6011TIP3    H217975   5.106   7.192   1.554
 6012TIP3   OH217976   1.510  -0.030   5.501
 6012TIP3    H117977   1.582   0.021   5.538
 6012TIP3    H217978   1.454   0.034   5.458
 6013TIP3   OH217979   7.507   7.869   0.841
 6013TIP3    H117980   7.412   7.868   0.854
 6013TIP3    H217981   7.529   7.779   0.820
 6014TIP3   OH217982   2.394   6.603   3.190
 6014TIP3    H117983   2.441   6.686   3.185
 6014TIP3    H217984   2.371   6.594   3.282
 6015TIP3   OH217985   1.096   2.052   1.792
 6015TIP3    H117986   1.140   2.047   1.877
 6015TIP3    H217987   1.003   2.058   1.814
 6016TIP3   OH217988   7.412   0.175   5.791
 6016TIP3    H117989   7.430   0.151   5.882
 6016TIP3    H217990   7.496   0.206   5.757
 6017TIP3   OH217991   6.276   0.602   3.074
 6017TIP3    H117992   6.267   0.508   3.088
 6017TIP3    H217993   6.194   0.640   3.104
 6018TIP3   OH217994   3.340   4.736   2.522
 6018TIP3    H117995   3.358   4.647   2.492
 6018TIP3    H217996   3.319   4.785   2.443
 6019TIP3   OH217997   4.547   5.085   4.047
 6019TIP3    H117998   4.505   5.135   4.118
 6019TIP3    H217999   4.640   5.106   4.054
 6020TIP3   OH218000   3.147   4.287   0.152
 6020TIP3    H118001   3.231   4.313   0.116
 6020TIP3    H218002   3.083   4.311   0.085
 6021TIP3   OH218003   4.286   0.736   6.819
 6021TIP3    H118004   4.278   0.826   6.787
 6021TIP3    H218005   4.357   0.740   6.883
 6022TIP3   OH218006   0.844   3.279   2.665
 6022TIP3    H118007   0.780   3.211   2.647
 6022TIP3    H218008   0.915   3.234   2.711
 6023TIP3   OH218009   7.867   6.830   1.522
 6023TIP3    H118010   7.961   6.832   1.541
 6023TIP3    H218011   7.846   6.920   1.496
 6024TIP3   OH218012   2.892   0.076   0.237
 6024TIP3    H118013   2.832   0.055   0.166
 6024TIP3    H218014   2.839   0.122   0.301
 6025TIP3   OH218015   1.732   6.183   3.300
 6025TIP3    H118016   1.704   6.139   3.381
 6025TIP3    H218017   1.801   6.126   3.266
 6026TIP3   OH218018   3.290   2.560   1.218
 6026TIP3    H118019   3.312   2.517   1.135
 6026TIP3    H218020   3.367   2.547   1.273
 6027TIP3   OH218021   2.068   3.366   0.700
 6027TIP3    H118022   2.036   3.280   0.676
 6027TIP3    H218023   2.163   3.363   0.684
 6028TIP3   OH218024   6.811   3.706   4.545
 6028TIP3    H118025   6.747   3.778   4.549
 6028TIP3    H218026   6.854   3.717   4.461
 6029TIP3   OH218027   7.406   1.964   3.067
 6029TIP3    H118028   7.392   1.938   2.976
 6029TIP3    H218029   7.343   2.034   3.082
 6030TIP3   OH218030   1.542   1.065   2.003
 6030TIP3    H118031   1.549   1.157   2.031
 6030TIP3    H218032   1.607   1.057   1.933
 6031TIP3   OH218033   5.222   4.285   4.746
 6031TIP3    H118034   5.295   4.308   4.688
 6031TIP3    H218035   5.216   4.190   4.739
 6032TIP3   OH218036   6.840   1.260   2.405
 6032TIP3    H118037   6.749   1.288   2.409
 6032TIP3    H218038   6.884   1.327   2.354
 6033TIP3   OH218039   5.564   0.075   2.468
 6033TIP3    H118040   5.478   0.090   2.508
 6033TIP3    H218041   5.614   0.030   2.537
 6034TIP3   OH218042   0.799   3.063   1.239
 6034TIP3    H118043   0.749   3.143   1.222
 6034TIP3    H218044   0.763   2.998   1.179
 6035TIP3   OH218045   7.415   6.093   1.280
 6035TIP3    H118046   7.353   6.146   1.228
 6035TIP3    H218047   7.398   6.003   1.251
 6036TIP3   OH218048   7.235   2.972   3.583
 6036TIP3    H118049   7.187   3.043   3.539
 6036TIP3    H218050   7.172   2.901   3.589
 6037TIP3   OH218051   1.428   3.624   4.117
 6037TIP3    H118052   1.464   3.699   4.070
 6037TIP3    H218053   1.388   3.662   4.195
 6038TIP3   OH218054   5.040   4.568   4.026
 6038TIP3    H118055   5.060   4.479   4.054
 6038TIP3    H218056   4.965   4.593   4.079
 6039TIP3   OH218057   6.010   0.393   0.021
 6039TIP3    H118058   6.056   0.348  -0.049
 6039TIP3    H218059   5.994   0.326   0.087
 6040TIP3   OH218060   1.678   4.420   5.323
 6040TIP3    H118061   1.729   4.454   5.396
 6040TIP3    H218062   1.596   4.389   5.363
 6041TIP3   OH218063   3.891   1.389   3.683
 6041TIP3    H118064   3.859   1.479   3.686
 6041TIP3    H218065   3.927   1.373   3.770
 6042TIP3   OH218066   1.991   6.138   1.120
 6042TIP3    H118067   2.009   6.168   1.031
 6042TIP3    H218068   1.949   6.052   1.108
 6043TIP3   OH218069   3.571   6.418   0.859
 6043TIP3    H118070   3.596   6.510   0.853
 6043TIP3    H218071   3.643   6.377   0.909
 6044TIP3   OH218072   6.917   2.311   6.791
 6044TIP3    H118073   6.987   2.317   6.856
 6044TIP3    H218074   6.920   2.395   6.744
 6045TIP3   OH218075   0.955   7.263   1.688
 6045TIP3    H118076   0.921   7.296   1.772
 6045TIP3    H218077   0.915   7.177   1.679
 6046TIP3   OH218078   2.580   1.448   5.759
 6046TIP3    H118079   2.574   1.412   5.670
 6046TIP3    H218080   2.535   1.385   5.814
 6047TIP3   OH218081   6.537   0.927   2.775
 6047TIP3    H118082   6.593   0.956   2.847
 6047TIP3    H218083   6.546   0.995   2.709
 6048TIP3   OH218084   1.034   0.603   6.595
 6048TIP3    H118085   0.982   0.631   6.519
 6048TIP3    H218086   1.075   0.684   6.627
 6049TIP3   OH218087   8.343   7.791   4.935
 6049TIP3    H118088   8.353   7.880   4.968
 6049TIP3    H218089   8.372   7.735   5.007
 6050TIP3   OH218090   0.275   6.905   2.327
 6050TIP3    H118091   0.297   6.852   2.404
 6050TIP3    H218092   0.340   6.974   2.326
 6051TIP3   OH218093   6.561   7.204   2.649
 6051TIP3    H118094   6.536   7.251   2.729
 6051TIP3    H218095   6.609   7.268   2.598
 6052TIP3   OH218096   2.544   3.245   3.965
 6052TIP3    H118097   2.578   3.158   3.984
 6052TIP3    H218098   2.476   3.260   4.031
 6053TIP3   OH218099   8.120   2.531   4.877
 6053TIP3    H118100   8.088   2.520   4.787
 6053TIP3    H218101   8.074   2.609   4.909
 6054TIP3   OH218102   6.577   7.565   2.757
 6054TIP3    H118103   6.572   7.653   2.720
 6054TIP3    H218104   6.642   7.520   2.702
 6055TIP3   OH218105   6.468   4.198   0.840
 6055TIP3    H118106   6.412   4.274   0.824
 6055TIP3    H218107   6.542   4.233   0.890
 6056TIP3   OH218108   7.338   0.095   1.336
 6056TIP3    H118109   7.356   0.055   1.251
 6056TIP3    H218110   7.261   0.048   1.368
 6057TIP3   OH218111   0.221   2.381   6.249
 6057TIP3    H118112   0.299   2.326   6.241
 6057TIP3    H218113   0.254   2.471   6.240
 6058TIP3   OH218114   4.456   3.754   0.726
 6058TIP3    H118115   4.471   3.729   0.817
 6058TIP3    H218116   4.507   3.834   0.714
 6059TIP3   OH218117   1.849   0.406   3.850
 6059TIP3    H118118   1.781   0.456   3.895
 6059TIP3    H218119   1.851   0.322   3.895
 6060TIP3   OH218120   5.338   1.727   1.532
 6060TIP3    H118121   5.247   1.751   1.552
 6060TIP3    H218122   5.356   1.654   1.591
 6061TIP3   OH218123   7.928   3.636   2.299
 6061TIP3    H118124   7.912   3.730   2.298
 6061TIP3    H218125   7.874   3.602   2.227
 6062TIP3   OH218126   7.130   4.137   1.917
 6062TIP3    H118127   7.066   4.159   1.985
 6062TIP3    H218128   7.104   4.049   1.888
 6063TIP3   OH218129   7.599   4.075   1.274
 6063TIP3    H118130   7.532   4.067   1.207
 6063TIP3    H218131   7.637   4.162   1.260
 6064TIP3   OH218132   0.983   5.764   2.418
 6064TIP3    H118133   1.066   5.747   2.463
 6064TIP3    H218134   1.008   5.779   2.326
 6065TIP3   OH218135   6.104   7.007   2.455
 6065TIP3    H118136   6.169   6.954   2.410
 6065TIP3    H218137   6.151   7.087   2.480
 6066TIP3   OH218138   0.601   3.983   5.464
 6066TIP3    H118139   0.585   4.078   5.465
 6066TIP3    H218140   0.623   3.962   5.555
 6067TIP3   OH218141   4.423   2.836   2.304
 6067TIP3    H118142   4.356   2.880   2.357
 6067TIP3    H218143   4.492   2.902   2.293
 6068TIP3   OH218144   7.557   4.232   2.919
 6068TIP3    H118145   7.548   4.327   2.924
 6068TIP3    H218146   7.650   4.218   2.903
 6069TIP3   OH218147   3.052   2.735   5.217
 6069TIP3    H118148   3.142   2.741   5.246
 6069TIP3    H218149   3.002   2.711   5.295
 6070TIP3   OH218150   3.477   0.355   0.221
 6070TIP3    H118151   3.439   0.312   0.144
 6070TIP3    H218152   3.562   0.313   0.233
 6071TIP3   OH218153   5.283   7.835   2.369
 6071TIP3    H118154   5.252   7.862   2.282
 6071TIP3    H218155   5.315   7.916   2.409
 6072TIP3   OH218156   5.927   6.055   3.871
 6072TIP3    H118157   5.978   5.994   3.923
 6072TIP3    H218158   5.924   6.135   3.923
 6073TIP3   OH218159   2.741   1.741   3.193
 6073TIP3    H118160   2.695   1.779   3.118
 6073TIP3    H218161   2.814   1.693   3.155
 6074TIP3   OH218162   7.278   2.803   0.556
 6074TIP3    H118163   7.269   2.883   0.503
 6074TIP3    H218164   7.372   2.788   0.560
 6075TIP3   OH218165   5.281   0.742   6.648
 6075TIP3    H118166   5.300   0.775   6.560
 6075TIP3    H218167   5.357   0.690   6.672
 6076TIP3   OH218168   7.682   1.708   4.481
 6076TIP3    H118169   7.611   1.695   4.544
 6076TIP3    H218170   7.698   1.622   4.443
 6077TIP3   OH218171   2.323   5.196   0.517
 6077TIP3    H118172   2.404   5.226   0.477
 6077TIP3    H218173   2.329   5.101   0.517
 6078TIP3   OH218174   7.138   0.687   0.310
 6078TIP3    H118175   7.148   0.604   0.265
 6078TIP3    H218176   7.044   0.691   0.332
 6079TIP3   OH218177   5.207   1.781   0.817
 6079TIP3    H118178   5.273   1.822   0.762
 6079TIP3    H218179   5.124   1.810   0.780
 6080TIP3   OH218180  -0.011   6.887   4.237
 6080TIP3    H118181   0.061   6.948   4.219
 6080TIP3    H218182   0.032   6.813   4.280
 6081TIP3   OH218183   6.585   6.974   5.228
 6081TIP3    H118184   6.643   6.979   5.152
 6081TIP3    H218185   6.510   7.028   5.205
 6082TIP3   OH218186   2.590   6.909   6.279
 6082TIP3    H118187   2.508   6.941   6.239
 6082TIP3    H218188   2.567   6.894   6.370
 6083TIP3   OH218189   3.876   5.245   1.377
 6083TIP3    H118190   3.914   5.304   1.442
 6083TIP3    H218191   3.833   5.177   1.430
 6084TIP3   OH218192   0.381   5.953   2.778
 6084TIP3    H118193   0.434   6.014   2.726
 6084TIP3    H218194   0.445   5.893   2.815
 6085TIP3   OH218195   2.576   1.811   1.785
 6085TIP3    H118196   2.521   1.765   1.849
 6085TIP3    H218197   2.515   1.865   1.735
 6086TIP3   OH218198   4.448   0.045   0.251
 6086TIP3    H118199   4.355   0.066   0.266
 6086TIP3    H218200   4.458   0.047   0.156
 6087TIP3   OH218201   3.000   3.643   2.040
 6087TIP3    H118202   3.012   3.558   2.082
 6087TIP3    H218203   2.905   3.651   2.031
 6088TIP3   OH218204   4.817   7.508   2.786
 6088TIP3    H118205   4.803   7.453   2.864
 6088TIP3    H218206   4.856   7.588   2.820
 6089TIP3   OH218207   1.599   2.879   0.813
 6089TIP3    H118208   1.545   2.800   0.801
 6089TIP3    H218209   1.554   2.929   0.880
 6090TIP3   OH218210   2.888   6.293   6.699
 6090TIP3    H118211   2.794   6.280   6.689
 6090TIP3    H218212   2.908   6.367   6.642
 6091TIP3   OH218213   3.771   0.875   4.389
 6091TIP3    H118214   3.815   0.883   4.474
 6091TIP3    H218215   3.796   0.955   4.343
 6092TIP3   OH218216   7.003   2.984   6.380
 6092TIP3    H118217   7.090   2.954   6.405
 6092TIP3    H218218   7.018   3.063   6.327
 6093TIP3   OH218219   6.504   6.153   6.841
 6093TIP3    H118220   6.445   6.229   6.838
 6093TIP3    H218221   6.524   6.135   6.749
 6094TIP3   OH218222   7.253   7.718   3.787
 6094TIP3    H118223   7.241   7.668   3.868
 6094TIP3    H218224   7.178   7.694   3.732
 6095TIP3   OH218225   0.296   2.828   0.929
 6095TIP3    H118226   0.341   2.761   0.878
 6095TIP3    H218227   0.351   2.840   1.007
 6096TIP3   OH218228   6.687   3.268   1.720
 6096TIP3    H118229   6.770   3.243   1.680
 6096TIP3    H218230   6.627   3.277   1.647
 6097TIP3   OH218231   2.071   0.156   3.661
 6097TIP3    H118232   2.102   0.134   3.573
 6097TIP3    H218233   1.992   0.103   3.672
 6098TIP3   OH218234   0.877   7.475   2.890
 6098TIP3    H118235   0.880   7.513   2.978
 6098TIP3    H218236   0.867   7.551   2.832
 6099TIP3   OH218237   7.975   0.810   5.439
 6099TIP3    H118238   7.935   0.769   5.516
 6099TIP3    H218239   8.053   0.757   5.421
 6100TIP3   OH218240   7.026   0.948   4.085
 6100TIP3    H118241   7.041   0.871   4.030
 6100TIP3    H218242   7.108   0.958   4.134
 6101TIP3   OH218243   4.720   5.394   4.145
 6101TIP3    H118244   4.709   5.451   4.069
 6101TIP3    H218245   4.758   5.314   4.110
 6102TIP3   OH218246   5.867   6.170   3.392
 6102TIP3    H118247   5.899   6.258   3.370
 6102TIP3    H218248   5.904   6.152   3.478
 6103TIP3   OH218249   4.165   2.345   1.735
 6103TIP3    H118250   4.198   2.406   1.669
 6103TIP3    H218251   4.242   2.315   1.781
 6104TIP3   OH218252   0.590   5.839   1.291
 6104TIP3    H118253   0.495   5.833   1.287
 6104TIP3    H218254   0.616   5.769   1.350
 6105TIP3   OH218255   4.735   4.942   4.879
 6105TIP3    H118256   4.761   4.953   4.971
 6105TIP3    H218257   4.663   4.879   4.882
 6106TIP3   OH218258   5.184   0.104   6.785
 6106TIP3    H118259   5.155   0.019   6.752
 6106TIP3    H218260   5.202   0.156   6.706
 6107TIP3   OH218261   0.673   0.431   1.493
 6107TIP3    H118262   0.649   0.500   1.556
 6107TIP3    H218263   0.716   0.364   1.547
 6108TIP3   OH218264   3.710   2.157   5.145
 6108TIP3    H118265   3.777   2.162   5.212
 6108TIP3    H218266   3.645   2.222   5.172
 6109TIP3   OH218267   1.723   1.899   6.486
 6109TIP3    H118268   1.741   1.902   6.580
 6109TIP3    H218269   1.691   1.810   6.471
 6110TIP3   OH218270   0.386   0.527   1.676
 6110TIP3    H118271   0.418   0.616   1.663
 6110TIP3    H218272   0.368   0.495   1.587
 6111TIP3   OH218273   1.379   4.798   4.201
 6111TIP3    H118274   1.291   4.822   4.229
 6111TIP3    H218275   1.377   4.703   4.192
 6112TIP3   OH218276   3.872   3.529   4.406
 6112TIP3    H118277   3.885   3.560   4.495
 6112TIP3    H218278   3.781   3.550   4.387
 6113TIP3   OH218279   3.698   0.258   5.240
 6113TIP3    H118280   3.729   0.211   5.317
 6113TIP3    H218281   3.743   0.343   5.243
 6114TIP3   OH218282   5.166   5.766   0.824
 6114TIP3    H118283   5.076   5.757   0.854
 6114TIP3    H218284   5.197   5.847   0.863
 6115TIP3   OH218285   7.288   0.257   0.462
 6115TIP3    H118286   7.308   0.165   0.444
 6115TIP3    H218287   7.365   0.305   0.431
 6116TIP3   OH218288   3.455   1.655   4.997
 6116TIP3    H118289   3.550   1.667   4.991
 6116TIP3    H218290   3.439   1.570   4.956
 6117TIP3   OH218291   3.173   2.335   0.294
 6117TIP3    H118292   3.208   2.321   0.382
 6117TIP3    H218293   3.083   2.366   0.309
 6118TIP3   OH218294   1.387   4.033   2.129
 6118TIP3    H118295   1.446   4.088   2.181
 6118TIP3    H218296   1.435   3.951   2.117
 6119TIP3   OH218297   2.069   1.720   6.420
 6119TIP3    H118298   1.993   1.774   6.442
 6119TIP3    H218299   2.061   1.643   6.476
 6120TIP3   OH218300   5.594   6.640   1.312
 6120TIP3    H118301   5.532   6.696   1.264
 6120TIP3    H218302   5.614   6.690   1.391
 6121TIP3   OH218303   0.832   0.414   0.682
 6121TIP3    H118304   0.807   0.331   0.641
 6121TIP3    H218305   0.865   0.389   0.768
 6122TIP3   OH218306   7.726   2.116   5.788
 6122TIP3    H118307   7.656   2.055   5.810
 6122TIP3    H218308   7.681   2.197   5.763
 6123TIP3   OH218309   0.275   4.567   3.447
 6123TIP3    H118310   0.278   4.661   3.468
 6123TIP3    H218311   0.211   4.531   3.508
 6124TIP3   OH218312   6.192   7.137   2.858
 6124TIP3    H118313   6.149   7.206   2.807
 6124TIP3    H218314   6.209   7.068   2.794
 6125TIP3   OH218315   5.655   4.154   5.414
 6125TIP3    H118316   5.637   4.177   5.323
 6125TIP3    H218317   5.689   4.065   5.409
 6126TIP3   OH218318   1.935   4.558   2.777
 6126TIP3    H118319   2.016   4.526   2.736
 6126TIP3    H218320   1.908   4.487   2.835
 6127TIP3   OH218321   0.593   1.588   0.711
 6127TIP3    H118322   0.665   1.644   0.684
 6127TIP3    H218323   0.518   1.647   0.719
 6128TIP3   OH218324   7.360   5.533   2.307
 6128TIP3    H118325   7.288   5.568   2.255
 6128TIP3    H218326   7.320   5.461   2.357
 6129TIP3   OH218327   1.665   7.324   1.820
 6129TIP3    H118328   1.643   7.255   1.758
 6129TIP3    H218329   1.582   7.369   1.836
 6130TIP3   OH218330   1.345   6.172   1.473
 6130TIP3    H118331   1.265   6.165   1.525
 6130TIP3    H218332   1.340   6.100   1.410
 6131TIP3   OH218333   0.089   5.900   3.168
 6131TIP3    H118334   0.119   5.948   3.091
 6131TIP3    H218335   0.136   5.941   3.241
 6132TIP3   OH218336   5.236   2.107   6.785
 6132TIP3    H118337   5.175   2.055   6.837
 6132TIP3    H218338   5.194   2.116   6.700
 6133TIP3   OH218339   0.329   6.872   1.824
 6133TIP3    H118340   0.413   6.827   1.830
 6133TIP3    H218341   0.272   6.825   1.885
 6134TIP3   OH218342   0.940   5.993   5.691
 6134TIP3    H118343   0.852   6.025   5.712
 6134TIP3    H218344   0.958   5.927   5.758
 6135TIP3   OH218345   0.553   0.363   3.281
 6135TIP3    H118346   0.484   0.419   3.246
 6135TIP3    H218347   0.516   0.327   3.361
 6136TIP3   OH218348   5.675   3.884   6.154
 6136TIP3    H118349   5.770   3.875   6.162
 6136TIP3    H218350   5.647   3.924   6.236
 6137TIP3   OH218351   4.163   6.339   0.855
 6137TIP3    H118352   4.248   6.364   0.892
 6137TIP3    H218353   4.176   6.345   0.761
 6138TIP3   OH218354   3.949   4.779   2.229
 6138TIP3    H118355   3.857   4.800   2.214
 6138TIP3    H218356   3.963   4.799   2.321
 6139TIP3   OH218357   5.457   6.824   5.769
 6139TIP3    H118358   5.362   6.828   5.770
 6139TIP3    H218359   5.484   6.910   5.737
 6140TIP3   OH218360   3.224   0.680   0.047
 6140TIP3    H118361   3.157   0.619   0.016
 6140TIP3    H218362   3.307   0.641   0.017
 6141TIP3   OH218363   5.118   0.670   2.377
 6141TIP3    H118364   5.149   0.602   2.318
 6141TIP3    H218365   5.029   0.644   2.400
 6142TIP3   OH218366   1.813   1.237   2.310
 6142TIP3    H118367   1.905   1.265   2.308
 6142TIP3    H218368   1.763   1.316   2.329
 6143TIP3   OH218369   6.577   5.458   0.782
 6143TIP3    H118370   6.513   5.445   0.712
 6143TIP3    H218371   6.660   5.429   0.745
 6144TIP3   OH218372   0.231   4.769   1.017
 6144TIP3    H118373   0.260   4.780   0.927
 6144TIP3    H218374   0.242   4.856   1.056
 6145TIP3   OH218375   6.636   6.945   1.913
 6145TIP3    H118376   6.670   6.903   1.992
 6145TIP3    H218377   6.574   6.881   1.877
 6146TIP3   OH218378   7.896   2.555   2.173
 6146TIP3    H118379   7.820   2.556   2.232
 6146TIP3    H218380   7.876   2.623   2.108
 6147TIP3   OH218381   1.754   2.059   6.272
 6147TIP3    H118382   1.729   2.004   6.347
 6147TIP3    H218383   1.718   2.145   6.293
 6148TIP3   OH218384   1.591   4.958   1.441
 6148TIP3    H118385   1.559   5.040   1.478
 6148TIP3    H218386   1.532   4.939   1.368
 6149TIP3   OH218387   8.063   3.396   2.010
 6149TIP3    H118388   7.988   3.416   1.953
 6149TIP3    H218389   8.033   3.419   2.098
 6150TIP3   OH218390   6.183   6.907   6.163
 6150TIP3    H118391   6.183   6.815   6.189
 6150TIP3    H218392   6.217   6.954   6.239
 6151TIP3   OH218393   5.527   1.561   3.164
 6151TIP3    H118394   5.593   1.603   3.109
 6151TIP3    H218395   5.564   1.563   3.252
 6152TIP3   OH218396   4.628   2.808   3.661
 6152TIP3    H118397   4.604   2.807   3.753
 6152TIP3    H218398   4.683   2.886   3.651
 6153TIP3   OH218399   4.553   6.806   3.504
 6153TIP3    H118400   4.563   6.747   3.578
 6153TIP3    H218401   4.643   6.825   3.476
 6154TIP3   OH218402   0.628   0.869   5.743
 6154TIP3    H118403   0.602   0.906   5.827
 6154TIP3    H218404   0.707   0.818   5.762
 6155TIP3   OH218405   0.128   4.806   5.238
 6155TIP3    H118406   0.180   4.882   5.213
 6155TIP3    H218407   0.100   4.767   5.155
 6156TIP3   OH218408   4.383   6.186   6.733
 6156TIP3    H118409   4.458   6.138   6.699
 6156TIP3    H218410   4.372   6.260   6.673
 6157TIP3   OH218411   0.779   2.971   6.095
 6157TIP3    H118412   0.726   3.049   6.082
 6157TIP3    H218413   0.844   2.974   6.025
 6158TIP3   OH218414   2.777   2.707   3.497
 6158TIP3    H118415   2.699   2.687   3.445
 6158TIP3    H218416   2.833   2.757   3.438
 6159TIP3   OH218417   5.243   3.934   2.013
 6159TIP3    H118418   5.249   3.907   1.921
 6159TIP3    H218419   5.156   3.904   2.040
 6160TIP3   OH218420   0.450   5.355   6.452
 6160TIP3    H118421   0.537   5.382   6.481
 6160TIP3    H218422   0.392   5.382   6.523
 6161TIP3   OH218423   4.117   0.070   5.759
 6161TIP3    H118424   4.172   0.148   5.761
 6161TIP3    H218425   4.155   0.015   5.690
 6162TIP3   OH218426   4.642   7.104   2.911
 6162TIP3    H118427   4.709   7.163   2.945
 6162TIP3    H218428   4.684   7.018   2.908
 6163TIP3   OH218429   5.351   6.274   1.379
 6163TIP3    H118430   5.351   6.200   1.318
 6163TIP3    H218431   5.259   6.290   1.397
 6164TIP3   OH218432   0.982   4.254   2.541
 6164TIP3    H118433   0.907   4.299   2.581
 6164TIP3    H218434   1.009   4.189   2.606
 6165TIP3   OH218435   4.250   1.341   2.055
 6165TIP3    H118436   4.282   1.257   2.024
 6165TIP3    H218437   4.329   1.393   2.070
 6166TIP3   OH218438   6.717   1.036   4.251
 6166TIP3    H118439   6.621   1.029   4.242
 6166TIP3    H218440   6.751   0.993   4.172
 6167TIP3   OH218441   7.992   4.857   3.533
 6167TIP3    H118442   7.914   4.893   3.573
 6167TIP3    H218443   7.968   4.842   3.442
 6168TIP3   OH218444   5.513   1.838   1.330
 6168TIP3    H118445   5.570   1.886   1.390
 6168TIP3    H218446   5.449   1.796   1.387
 6169TIP3   OH218447   3.593   4.130   5.341
 6169TIP3    H118448   3.627   4.178   5.266
 6169TIP3    H218449   3.510   4.092   5.310
 6170TIP3   OH218450   0.293   2.366   1.720
 6170TIP3    H118451   0.285   2.461   1.710
 6170TIP3    H218452   0.381   2.352   1.754
 6171TIP3   OH218453   4.581   1.774   2.585
 6171TIP3    H118454   4.547   1.726   2.660
 6171TIP3    H218455   4.625   1.708   2.532
 6172TIP3   OH218456   8.363   3.588   1.341
 6172TIP3    H118457   8.394   3.580   1.250
 6172TIP3    H218458   8.306   3.513   1.353
 6173TIP3   OH218459   6.112   0.762   4.489
 6173TIP3    H118460   6.140   0.787   4.402
 6173TIP3    H218461   6.192   0.740   4.536
 6174TIP3   OH218462   4.503   4.819   2.419
 6174TIP3    H118463   4.493   4.872   2.498
 6174TIP3    H218464   4.591   4.782   2.425
 6175TIP3   OH218465   3.950   0.729   1.927
 6175TIP3    H118466   4.023   0.790   1.918
 6175TIP3    H218467   3.975   0.654   1.874
 6176TIP3   OH218468   2.157   5.808   2.000
 6176TIP3    H118469   2.085   5.774   1.948
 6176TIP3    H218470   2.122   5.887   2.042
 6177TIP3   OH218471   6.964   0.773   5.308
 6177TIP3    H118472   7.008   0.764   5.223
 6177TIP3    H218473   7.029   0.816   5.364
 6178TIP3   OH218474   2.319  -0.035   3.632
 6178TIP3    H118475   2.339   0.042   3.578
 6178TIP3    H218476   2.310   0.000   3.721
 6179TIP3   OH218477   4.463   3.101   6.297
 6179TIP3    H118478   4.491   3.191   6.288
 6179TIP3    H218479   4.465   3.066   6.207
 6180TIP3   OH218480   0.772   5.566   1.770
 6180TIP3    H118481   0.732   5.493   1.818
 6180TIP3    H218482   0.792   5.631   1.837
 6181TIP3   OH218483   1.922   2.898   3.990
 6181TIP3    H118484   1.892   2.899   4.081
 6181TIP3    H218485   1.957   2.810   3.977
 6182TIP3   OH218486   5.394   6.541   3.295
 6182TIP3    H118487   5.437   6.577   3.373
 6182TIP3    H218488   5.342   6.613   3.261
 6183TIP3   OH218489   6.848   5.244   0.364
 6183TIP3    H118490   6.804   5.166   0.331
 6183TIP3    H218491   6.940   5.220   0.367
 6184TIP3   OH218492   0.901   4.787   2.437
 6184TIP3    H118493   0.985   4.740   2.436
 6184TIP3    H218494   0.842   4.732   2.386
 6185TIP3   OH218495   7.097   2.119   6.716
 6185TIP3    H118496   7.017   2.141   6.763
 6185TIP3    H218497   7.068   2.071   6.638
 6186TIP3   OH218498   3.463   2.980   4.154
 6186TIP3    H118499   3.425   2.894   4.137
 6186TIP3    H218500   3.549   2.977   4.112
 6187TIP3   OH218501   4.899   3.133   0.080
 6187TIP3    H118502   4.806   3.112   0.074
 6187TIP3    H218503   4.909   3.209   0.023
 6188TIP3   OH218504   6.343   0.846   0.487
 6188TIP3    H118505   6.346   0.925   0.433
 6188TIP3    H218506   6.322   0.878   0.575
 6189TIP3   OH218507   1.309   4.894   5.047
 6189TIP3    H118508   1.375   4.963   5.034
 6189TIP3    H218509   1.332   4.855   5.131
 6190TIP3   OH218510   7.600   2.763   5.588
 6190TIP3    H118511   7.543   2.740   5.661
 6190TIP3    H218512   7.652   2.836   5.621
 6191TIP3   OH218513   8.222   1.398   6.429
 6191TIP3    H118514   8.133   1.432   6.416
 6191TIP3    H218515   8.278   1.461   6.384
 6192TIP3   OH218516   7.192   6.912   1.110
 6192TIP3    H118517   7.285   6.922   1.129
 6192TIP3    H218518   7.156   7.000   1.120
 6193TIP3   OH218519   8.371   1.451   1.069
 6193TIP3    H118520   8.350   1.542   1.086
 6193TIP3    H218521   8.464   1.444   1.088
 6194TIP3   OH218522   7.744   0.960   4.837
 6194TIP3    H118523   7.756   0.887   4.776
 6194TIP3    H218524   7.830   1.002   4.841
 6195TIP3   OH218525   2.821   2.579   5.090
 6195TIP3    H118526   2.871   2.607   5.166
 6195TIP3    H218527   2.888   2.556   5.025
 6196TIP3   OH218528   1.585   1.042   5.356
 6196TIP3    H118529   1.640   0.965   5.372
 6196TIP3    H218530   1.632   1.091   5.289
 6197TIP3   OH218531   1.422   6.078   6.376
 6197TIP3    H118532   1.507   6.037   6.357
 6197TIP3    H218533   1.386   6.025   6.447
 6198TIP3   OH218534   2.232   3.786   5.241
 6198TIP3    H118535   2.209   3.871   5.206
 6198TIP3    H218536   2.153   3.756   5.286
 6199TIP3   OH218537   6.879   5.406   6.630
 6199TIP3    H118538   6.828   5.479   6.665
 6199TIP3    H218539   6.833   5.328   6.661
 6200TIP3   OH218540   1.189   2.939   4.544
 6200TIP3    H118541   1.266   2.984   4.510
 6200TIP3    H218542   1.225   2.860   4.585
 6201TIP3   OH218543   5.281   1.024  -0.009
 6201TIP3    H118544   5.320   1.090   0.048
 6201TIP3    H218545   5.190   1.052  -0.019
 6202TIP3   OH218546   7.382   7.479   4.950
 6202TIP3    H118547   7.349   7.435   4.872
 6202TIP3    H218548   7.320   7.457   5.019
 6203TIP3   OH218549   0.515   3.373   0.757
 6203TIP3    H118550   0.530   3.333   0.671
 6203TIP3    H218551   0.428   3.343   0.782
 6204TIP3   OH218552   4.663   4.536   3.156
 6204TIP3    H118553   4.624   4.510   3.240
 6204TIP3    H218554   4.598   4.593   3.116
 6205TIP3   OH218555   1.439   1.379   2.814
 6205TIP3    H118556   1.437   1.470   2.843
 6205TIP3    H218557   1.439   1.385   2.718
 6206TIP3   OH218558   4.899   7.530   2.190
 6206TIP3    H118559   4.850   7.551   2.270
 6206TIP3    H218560   4.833   7.497   2.129
 6207TIP3   OH218561   8.252   6.863   3.914
 6207TIP3    H118562   8.346   6.867   3.899
 6207TIP3    H218563   8.241   6.886   4.006
 6208TIP3   OH218564   2.679   1.405   3.806
 6208TIP3    H118565   2.647   1.340   3.868
 6208TIP3    H218566   2.608   1.415   3.742
 6209TIP3   OH218567   0.754   5.544   0.858
 6209TIP3    H118568   0.773   5.540   0.951
 6209TIP3    H218569   0.791   5.627   0.829
 6210TIP3   OH218570   5.680   6.141   0.117
 6210TIP3    H118571   5.709   6.154   0.027
 6210TIP3    H218572   5.587   6.123   0.110
 6211TIP3   OH218573   7.898   4.640   2.186
 6211TIP3    H118574   7.871   4.695   2.260
 6211TIP3    H218575   7.969   4.689   2.144
 6212TIP3   OH218576   6.370   1.739   2.251
 6212TIP3    H118577   6.428   1.759   2.177
 6212TIP3    H218578   6.314   1.669   2.219
 6213TIP3   OH218579   1.991   1.014   5.130
 6213TIP3    H118580   2.070   1.067   5.123
 6213TIP3    H218581   2.010   0.936   5.078
 6214TIP3   OH218582   6.928   4.962   0.680
 6214TIP3    H118583   6.881   4.981   0.761
 6214TIP3    H218584   6.862   4.974   0.611
 6215TIP3   OH218585   3.107   1.447   3.977
 6215TIP3    H118586   3.024   1.400   3.973
 6215TIP3    H218587   3.085   1.531   4.017
 6216TIP3   OH218588   4.115   5.007   0.233
 6216TIP3    H118589   4.056   4.941   0.197
 6216TIP3    H218590   4.200   4.963   0.238
 6217TIP3   OH218591   3.585   6.335   6.812
 6217TIP3    H118592   3.590   6.322   6.907
 6217TIP3    H218593   3.675   6.352   6.785
 6218TIP3   OH218594   4.239   4.873   2.291
 6218TIP3    H118595   4.321   4.873   2.339
 6218TIP3    H218596   4.219   4.780   2.278
 6219TIP3   OH218597   3.398   4.214   3.955
 6219TIP3    H118598   3.469   4.229   3.892
 6219TIP3    H218599   3.376   4.302   3.987
 6220TIP3   OH218600   1.915   5.369   2.936
 6220TIP3    H118601   1.840   5.348   2.992
 6220TIP3    H218602   1.877   5.381   2.849
 6221TIP3   OH218603   2.249   2.100   3.563
 6221TIP3    H118604   2.239   2.025   3.504
 6221TIP3    H218605   2.176   2.091   3.625
 6222TIP3   OH218606   4.534   6.520   0.234
 6222TIP3    H118607   4.475   6.474   0.294
 6222TIP3    H218608   4.476   6.562   0.171
 6223TIP3   OH218609   4.897   1.881   6.256
 6223TIP3    H118610   4.963   1.868   6.188
 6223TIP3    H218611   4.881   1.975   6.256
 6224TIP3   OH218612   2.752   5.655   2.918
 6224TIP3    H118613   2.742   5.561   2.907
 6224TIP3    H218614   2.831   5.678   2.869
 6225TIP3   OH218615   3.603   0.279   1.564
 6225TIP3    H118616   3.523   0.328   1.580
 6225TIP3    H218617   3.597   0.251   1.472
 6226TIP3   OH218618   4.646   5.297   2.945
 6226TIP3    H118619   4.647   5.205   2.918
 6226TIP3    H218620   4.654   5.346   2.863
 6227TIP3   OH218621   7.429   5.668   1.337
 6227TIP3    H118622   7.417   5.721   1.416
 6227TIP3    H218623   7.424   5.732   1.265
 6228TIP3   OH218624   0.184   2.895   3.053
 6228TIP3    H118625   0.241   2.874   3.127
 6228TIP3    H218626   0.115   2.949   3.090
 6229TIP3   OH218627   5.471   4.905   4.223
 6229TIP3    H118628   5.445   4.859   4.303
 6229TIP3    H218629   5.477   4.997   4.249
 6230TIP3   OH218630   6.863   2.507   2.654
 6230TIP3    H118631   6.943   2.545   2.619
 6230TIP3    H218632   6.798   2.577   2.648
 6231TIP3   OH218633   0.716   3.336   6.822
 6231TIP3    H118634   0.700   3.330   6.728
 6231TIP3    H218635   0.670   3.415   6.850
 6232TIP3   OH218636   5.305   6.483   2.621
 6232TIP3    H118637   5.247   6.513   2.690
 6232TIP3    H218638   5.299   6.388   2.624
 6233TIP3   OH218639   8.126   4.337   5.478
 6233TIP3    H118640   8.072   4.406   5.439
 6233TIP3    H218641   8.180   4.305   5.407
 6234TIP3   OH218642   1.443   1.305   0.708
 6234TIP3    H118643   1.489   1.366   0.766
 6234TIP3    H218644   1.355   1.298   0.745
 6235TIP3   OH218645   5.763   7.571   2.688
 6235TIP3    H118646   5.706   7.641   2.719
 6235TIP3    H218647   5.810   7.608   2.614
 6236TIP3   OH218648   6.938   4.447   2.729
 6236TIP3    H118649   7.027   4.449   2.764
 6236TIP3    H218650   6.926   4.358   2.697
 6237TIP3   OH218651   2.379   2.035   1.267
 6237TIP3    H118652   2.437   1.962   1.248
 6237TIP3    H218653   2.401   2.101   1.201
 6238TIP3   OH218654   3.516   5.663   2.322
 6238TIP3    H118655   3.460   5.734   2.289
 6238TIP3    H218656   3.480   5.584   2.281
 6239TIP3   OH218657   6.106   2.453   5.940
 6239TIP3    H118658   6.076   2.367   5.969
 6239TIP3    H218659   6.201   2.451   5.952
 6240TIP3   OH218660   8.352   3.229   1.427
 6240TIP3    H118661   8.411   3.219   1.502
 6240TIP3    H218662   8.269   3.259   1.465
 6241TIP3   OH218663   6.049   3.068   6.627
 6241TIP3    H118664   6.089   3.002   6.684
 6241TIP3    H218665   6.032   3.021   6.545
 6242TIP3   OH218666   6.317   7.661   0.592
 6242TIP3    H118667   6.266   7.675   0.672
 6242TIP3    H218668   6.396   7.713   0.605
 6243TIP3   OH218669   6.017   4.214   6.288
 6243TIP3    H118670   5.990   4.135   6.240
 6243TIP3    H218671   6.039   4.182   6.375
 6244TIP3   OH218672   7.034   4.006   4.435
 6244TIP3    H118673   7.027   4.095   4.401
 6244TIP3    H218674   7.026   4.015   4.530
 6245TIP3   OH218675   2.196   4.235   3.652
 6245TIP3    H118676   2.128   4.254   3.587
 6245TIP3    H218677   2.155   4.171   3.710
 6246TIP3   OH218678   4.317   3.861   1.149
 6246TIP3    H118679   4.285   3.946   1.180
 6246TIP3    H218680   4.263   3.841   1.073
 6247TIP3   OH218681   0.759   3.407   5.521
 6247TIP3    H118682   0.671   3.441   5.505
 6247TIP3    H218683   0.817   3.479   5.500
 6248TIP3   OH218684   4.776   7.589   1.085
 6248TIP3    H118685   4.737   7.517   1.134
 6248TIP3    H218686   4.790   7.554   0.997
 6249TIP3   OH218687   3.194   6.107   6.797
 6249TIP3    H118688   3.250   6.144   6.729
 6249TIP3    H218689   3.113   6.085   6.752
 6250TIP3   OH218690   8.351   4.000   0.651
 6250TIP3    H118691   8.378   4.023   0.562
 6250TIP3    H218692   8.307   4.079   0.684
 6251TIP3   OH218693   6.535   5.287   5.487
 6251TIP3    H118694   6.605   5.223   5.502
 6251TIP3    H218695   6.512   5.318   5.575
 6252TIP3   OH218696   7.629   7.638   2.144
 6252TIP3    H118697   7.534   7.626   2.145
 6252TIP3    H218698   7.663   7.549   2.129
 6253TIP3   OH218699   4.213   4.222   1.000
 6253TIP3    H118700   4.255   4.307   1.014
 6253TIP3    H218701   4.208   4.183   1.087
 6254TIP3   OH218702   8.055   4.588   3.612
 6254TIP3    H118703   7.978   4.593   3.555
 6254TIP3    H218704   8.090   4.677   3.612
 6255TIP3   OH218705   2.034   6.186   0.837
 6255TIP3    H118706   2.118   6.164   0.798
 6255TIP3    H218707   1.970   6.172   0.767
 6256TIP3   OH218708   2.697   7.167   3.843
 6256TIP3    H118709   2.679   7.114   3.766
 6256TIP3    H218710   2.732   7.105   3.907
 6257TIP3   OH218711   2.042   4.648   0.888
 6257TIP3    H118712   2.034   4.554   0.904
 6257TIP3    H218713   2.003   4.689   0.966
 6258TIP3   OH218714   1.323   0.463   2.089
 6258TIP3    H118715   1.408   0.496   2.060
 6258TIP3    H218716   1.264   0.537   2.078
 6259TIP3   OH218717   7.703   3.707   3.496
 6259TIP3    H118718   7.772   3.757   3.452
 6259TIP3    H218719   7.746   3.670   3.573
 6260TIP3   OH218720   4.637   1.945   2.386
 6260TIP3    H118721   4.625   1.909   2.474
 6260TIP3    H218722   4.642   2.040   2.399
 6261TIP3   OH218723   4.125   5.210   3.436
 6261TIP3    H118724   4.177   5.131   3.456
 6261TIP3    H218725   4.179   5.282   3.468
 6262TIP3   OH218726   4.242   5.909   6.630
 6262TIP3    H118727   4.165   5.868   6.669
 6262TIP3    H218728   4.258   5.987   6.683
 6263TIP3   OH218729   3.227   3.839   5.000
 6263TIP3    H118730   3.198   3.928   5.022
 6263TIP3    H218731   3.226   3.792   5.083
 6264TIP3   OH218732   5.370   5.984   4.991
 6264TIP3    H118733   5.455   5.944   4.971
 6264TIP3    H218734   5.385   6.032   5.073
 6265TIP3   OH218735   4.657   3.389   6.638
 6265TIP3    H118736   4.689   3.388   6.548
 6265TIP3    H218737   4.731   3.419   6.690
 6266TIP3   OH218738   2.264   0.361   4.097
 6266TIP3    H118739   2.339   0.373   4.155
 6266TIP3    H218740   2.234   0.449   4.077
 6267TIP3   OH218741   3.237   4.640   6.512
 6267TIP3    H118742   3.178   4.673   6.443
 6267TIP3    H218743   3.311   4.701   6.511
 6268TIP3   OH218744   6.406   4.969   5.475
 6268TIP3    H118745   6.453   5.019   5.408
 6268TIP3    H218746   6.384   4.886   5.433
 6269TIP3   OH218747   6.892   7.554   5.475
 6269TIP3    H118748   6.829   7.626   5.479
 6269TIP3    H218749   6.972   7.590   5.512
 6270TIP3   OH218750   2.939   0.266   1.323
 6270TIP3    H118751   2.975   0.178   1.332
 6270TIP3    H218752   3.015   0.322   1.307
 6271TIP3   OH218753   6.338   5.825   2.944
 6271TIP3    H118754   6.344   5.791   2.855
 6271TIP3    H218755   6.260   5.782   2.980
 6272TIP3   OH218756   4.569   2.271   1.171
 6272TIP3    H118757   4.503   2.272   1.240
 6272TIP3    H218758   4.581   2.364   1.148
 6273TIP3   OH218759   6.329   7.251   3.058
 6273TIP3    H118760   6.410   7.265   3.009
 6273TIP3    H218761   6.277   7.193   3.002
 6274TIP3   OH218762   0.364   2.375   5.314
 6274TIP3    H118763   0.443   2.404   5.359
 6274TIP3    H218764   0.355   2.282   5.338
 6275TIP3   OH218765   4.502   6.880   0.202
 6275TIP3    H118766   4.594   6.854   0.194
 6275TIP3    H218767   4.498   6.934   0.281
 6276TIP3   OH218768   5.145   7.404   5.375
 6276TIP3    H118769   5.232   7.387   5.339
 6276TIP3    H218770   5.111   7.477   5.322
 6277TIP3   OH218771   5.215   4.432   5.321
 6277TIP3    H118772   5.294   4.476   5.288
 6277TIP3    H218773   5.176   4.494   5.382
 6278TIP3   OH218774   6.829   7.851   2.205
 6278TIP3    H118775   6.860   7.930   2.161
 6278TIP3    H218776   6.819   7.877   2.297
 6279TIP3   OH218777   6.737   1.836   4.158
 6279TIP3    H118778   6.710   1.903   4.221
 6279TIP3    H218779   6.696   1.861   4.076
 6280TIP3   OH218780   3.096   3.431   4.095
 6280TIP3    H118781   3.131   3.386   4.017
 6280TIP3    H218782   3.173   3.472   4.135
 6281TIP3   OH218783   0.443   5.201   1.603
 6281TIP3    H118784   0.404   5.230   1.520
 6281TIP3    H218785   0.535   5.185   1.581
 6282TIP3   OH218786   1.478   4.232  -0.003
 6282TIP3    H118787   1.524   4.316   0.008
 6282TIP3    H218788   1.518   4.174   0.061
 6283TIP3   OH218789   4.073   6.477   5.859
 6283TIP3    H118790   4.079   6.474   5.955
 6283TIP3    H218791   4.070   6.385   5.833
 6284TIP3   OH218792   7.476   6.303   1.447
 6284TIP3    H118793   7.543   6.335   1.386
 6284TIP3    H218794   7.447   6.221   1.410
 6285TIP3   OH218795   7.999   6.879   5.746
 6285TIP3    H118796   8.064   6.950   5.745
 6285TIP3    H218797   7.919   6.920   5.780
 6286TIP3   OH218798   8.112   2.794   3.336
 6286TIP3    H118799   8.026   2.799   3.377
 6286TIP3    H218800   8.105   2.724   3.272
 6287TIP3   OH218801   6.615   7.224   2.163
 6287TIP3    H118802   6.611   7.218   2.067
 6287TIP3    H218803   6.699   7.267   2.180
 6288TIP3   OH218804   4.214   2.729   5.288
 6288TIP3    H118805   4.206   2.804   5.230
 6288TIP3    H218806   4.305   2.731   5.318
 6289TIP3   OH218807   3.814   3.502   3.607
 6289TIP3    H118808   3.844   3.414   3.583
 6289TIP3    H218809   3.724   3.507   3.576
 6290TIP3   OH218810   4.488   5.580   1.697
 6290TIP3    H118811   4.437   5.630   1.761
 6290TIP3    H218812   4.473   5.489   1.720
 6291TIP3   OH218813   0.602   6.030   0.095
 6291TIP3    H118814   0.549   6.091   0.042
 6291TIP3    H218815   0.640   6.085   0.163
 6292TIP3   OH218816   3.768   5.670   2.784
 6292TIP3    H118817   3.761   5.733   2.856
 6292TIP3    H218818   3.697   5.608   2.800
 6293TIP3   OH218819   5.527   4.484   3.388
 6293TIP3    H118820   5.546   4.416   3.324
 6293TIP3    H218821   5.438   4.465   3.417
 6294TIP3   OH218822   4.247   5.517   2.948
 6294TIP3    H118823   4.247   5.550   3.038
 6294TIP3    H218824   4.313   5.570   2.903
 6295TIP3   OH218825   7.918   4.206   0.557
 6295TIP3    H118826   7.852   4.148   0.518
 6295TIP3    H218827   7.985   4.147   0.591
 6296TIP3   OH218828   5.259   5.111   1.915
 6296TIP3    H118829   5.297   5.065   1.990
 6296TIP3    H218830   5.210   5.044   1.868
 6297TIP3   OH218831   7.022   4.429   1.031
 6297TIP3    H118832   7.099   4.375   1.017
 6297TIP3    H218833   6.949   4.376   1.000
 6298TIP3   OH218834   6.098   4.044   5.129
 6298TIP3    H118835   6.181   4.057   5.175
 6298TIP3    H218836   6.111   3.965   5.078
 6299TIP3   OH218837   8.347   0.923   4.037
 6299TIP3    H118838   8.373   0.853   4.097
 6299TIP3    H218839   8.423   0.936   3.981
 6300TIP3   OH218840   3.099   6.890   6.851
 6300TIP3    H118841   3.159   6.939   6.795
 6300TIP3    H218842   3.102   6.801   6.816
 6301TIP3   OH218843   3.323   4.739   3.746
 6301TIP3    H118844   3.412   4.774   3.749
 6301TIP3    H218845   3.335   4.645   3.763
 6302TIP3   OH218846   7.103   3.597   4.480
 6302TIP3    H118847   7.073   3.659   4.413
 6302TIP3    H218848   7.118   3.516   4.432
 6303TIP3   OH218849   5.415   4.915   2.051
 6303TIP3    H118850   5.397   4.943   2.141
 6303TIP3    H218851   5.459   4.831   2.061
 6304TIP3   OH218852   6.314   1.398   3.359
 6304TIP3    H118853   6.403   1.400   3.397
 6304TIP3    H218854   6.328   1.399   3.265
 6305TIP3   OH218855   2.896   5.828   0.081
 6305TIP3    H118856   2.979   5.818   0.033
 6305TIP3    H218857   2.828   5.821   0.014
 6306TIP3   OH218858   2.832   5.714   3.199
 6306TIP3    H118859   2.904   5.732   3.138
 6306TIP3    H218860   2.809   5.799   3.236
 6307TIP3   OH218861   7.164   5.135   3.415
 6307TIP3    H118862   7.135   5.146   3.324
 6307TIP3    H218863   7.254   5.169   3.415
 6308TIP3   OH218864   5.450   0.894   5.726
 6308TIP3    H118865   5.530   0.894   5.674
 6308TIP3    H218866   5.437   0.985   5.750
 6309TIP3   OH218867   0.549   3.147   3.088
 6309TIP3    H118868   0.638   3.177   3.070
 6309TIP3    H218869   0.523   3.195   3.167
 6310TIP3   OH218870   1.382   2.526   4.120
 6310TIP3    H118871   1.375   2.571   4.204
 6310TIP3    H218872   1.314   2.458   4.123
 6311TIP3   OH218873   8.068   3.875   0.345
 6311TIP3    H118874   8.046   3.831   0.427
 6311TIP3    H218875   7.988   3.920   0.318
 6312TIP3   OH218876   3.373   6.833   2.733
 6312TIP3    H118877   3.443   6.870   2.788
 6312TIP3    H218878   3.368   6.892   2.658
 6313TIP3   OH218879   0.890   6.894   1.904
 6313TIP3    H118880   0.852   6.968   1.855
 6313TIP3    H218881   0.984   6.906   1.897
 6314TIP3   OH218882   1.488   0.907   4.615
 6314TIP3    H118883   1.429   0.957   4.672
 6314TIP3    H218884   1.472   0.816   4.638
 6315TIP3   OH218885   0.550   2.425   5.654
 6315TIP3    H118886   0.512   2.390   5.735
 6315TIP3    H218887   0.519   2.515   5.650
 6316TIP3   OH218888   0.297   4.818   2.236
 6316TIP3    H118889   0.227   4.821   2.301
 6316TIP3    H218890   0.253   4.832   2.153
 6317TIP3   OH218891   0.147   7.560   6.850
 6317TIP3    H118892   0.220   7.595   6.799
 6317TIP3    H218893   0.090   7.635   6.865
 6318TIP3   OH218894   7.986   0.956   4.582
 6318TIP3    H118895   8.046   0.905   4.636
 6318TIP3    H218896   7.912   0.898   4.567
 6319TIP3   OH218897   2.601   3.099   6.108
 6319TIP3    H118898   2.582   3.161   6.037
 6319TIP3    H218899   2.545   3.127   6.180
 6320TIP3   OH218900   0.737   4.067   3.920
 6320TIP3    H118901   0.829   4.088   3.906
 6320TIP3    H218902   0.739   3.990   3.977
 6321TIP3   OH218903   6.627   4.034   5.649
 6321TIP3    H118904   6.573   4.107   5.678
 6321TIP3    H218905   6.578   3.956   5.675
 6322TIP3   OH218906   7.758   5.670   3.286
 6322TIP3    H118907   7.734   5.578   3.277
 6322TIP3    H218908   7.768   5.701   3.197
 6323TIP3   OH218909   6.410   5.672   3.249
 6323TIP3    H118910   6.434   5.732   3.177
 6323TIP3    H218911   6.330   5.629   3.218
 6324TIP3   OH218912   0.874   7.663   1.100
 6324TIP3    H118913   0.861   7.587   1.043
 6324TIP3    H218914   0.912   7.628   1.180
 6325TIP3   OH218915   5.646   1.540   5.576
 6325TIP3    H118916   5.621   1.588   5.497
 6325TIP3    H218917   5.740   1.525   5.567
 6326TIP3   OH218918   1.440   1.342   2.522
 6326TIP3    H118919   1.474   1.386   2.443
 6326TIP3    H218920   1.484   1.257   2.522
 6327TIP3   OH218921   6.403   1.121   4.259
 6327TIP3    H118922   6.434   1.127   4.169
 6327TIP3    H218923   6.334   1.056   4.257
 6328TIP3   OH218924   5.024   0.535   1.127
 6328TIP3    H118925   5.063   0.622   1.113
 6328TIP3    H218926   5.077   0.497   1.197
 6329TIP3   OH218927   3.069   0.153   1.909
 6329TIP3    H118928   3.128   0.164   1.984
 6329TIP3    H218929   3.127   0.148   1.833
 6330TIP3   OH218930   1.439   3.190   3.546
 6330TIP3    H118931   1.391   3.273   3.553
 6330TIP3    H218932   1.381   3.125   3.584
 6331TIP3   OH218933   4.857   3.416   2.048
 6331TIP3    H118934   4.799   3.343   2.029
 6331TIP3    H218935   4.907   3.388   2.124
 6332TIP3   OH218936   5.908   7.404   3.641
 6332TIP3    H118937   5.866   7.392   3.726
 6332TIP3    H218938   5.941   7.494   3.643
 6333TIP3   OH218939   5.690   0.226   0.578
 6333TIP3    H118940   5.786   0.236   0.577
 6333TIP3    H218941   5.656   0.314   0.593
 6334TIP3   OH218942   8.180   1.103   4.380
 6334TIP3    H118943   8.138   1.127   4.463
 6334TIP3    H218944   8.247   1.039   4.404
 6335TIP3   OH218945   5.815   1.470   4.190
 6335TIP3    H118946   5.784   1.534   4.255
 6335TIP3    H218947   5.842   1.523   4.115
 6336TIP3   OH218948   7.036   0.658   4.233
 6336TIP3    H118949   6.951   0.703   4.225
 6336TIP3    H218950   7.092   0.721   4.278
 6337TIP3   OH218951   1.014   0.370   6.709
 6337TIP3    H118952   1.016   0.432   6.636
 6337TIP3    H218953   0.922   0.344   6.716
 6338TIP3   OH218954   6.756   5.925   4.532
 6338TIP3    H118955   6.745   5.833   4.507
 6338TIP3    H218956   6.710   5.974   4.464
 6339TIP3   OH218957   6.154   1.671   5.517
 6339TIP3    H118958   6.233   1.688   5.465
 6339TIP3    H218959   6.082   1.701   5.462
 6340TIP3   OH218960   4.444   5.517   6.558
 6340TIP3    H118961   4.438   5.476   6.471
 6340TIP3    H218962   4.507   5.463   6.606
 6341TIP3   OH218963   1.670   5.651   5.234
 6341TIP3    H118964   1.578   5.674   5.243
 6341TIP3    H218965   1.693   5.679   5.145
 6342TIP3   OH218966   6.214   6.158   2.600
 6342TIP3    H118967   6.135   6.129   2.645
 6342TIP3    H218968   6.182   6.216   2.531
 6343TIP3   OH218969   6.912   2.533   6.625
 6343TIP3    H118970   6.951   2.523   6.538
 6343TIP3    H218971   6.829   2.577   6.608
 6344TIP3   OH218972   0.778   1.182   1.202
 6344TIP3    H118973   0.707   1.221   1.252
 6344TIP3    H218974   0.745   1.096   1.175
 6345TIP3   OH218975   1.759   2.905   2.889
 6345TIP3    H118976   1.806   2.932   2.810
 6345TIP3    H218977   1.720   2.821   2.866
 6346TIP3   OH218978   1.404   0.733   2.748
 6346TIP3    H118979   1.470   0.802   2.744
 6346TIP3    H218980   1.441   0.668   2.808
 6347TIP3   OH218981   6.355   3.434   2.995
 6347TIP3    H118982   6.366   3.510   2.938
 6347TIP3    H218983   6.371   3.358   2.938
 6348TIP3   OH218984   3.871   2.159   2.413
 6348TIP3    H118985   3.937   2.192   2.474
 6348TIP3    H218986   3.919   2.100   2.355
 6349TIP3   OH218987   7.411   1.987   4.656
 6349TIP3    H118988   7.498   2.021   4.679
 6349TIP3    H218989   7.351   2.056   4.684
 6350TIP3   OH218990   3.920   1.464   1.219
 6350TIP3    H118991   3.835   1.427   1.195
 6350TIP3    H218992   3.901   1.555   1.244
 6351TIP3   OH218993   2.931   5.635   5.185
 6351TIP3    H118994   2.858   5.629   5.246
 6351TIP3    H218995   2.926   5.554   5.134
 6352TIP3   OH218996   0.470   4.172   6.204
 6352TIP3    H118997   0.391   4.125   6.177
 6352TIP3    H218998   0.456   4.262   6.173
 6353TIP3   OH218999   6.933   5.816   0.829
 6353TIP3    H119000   6.886   5.737   0.802
 6353TIP3    H219001   6.865   5.874   0.863
 6354TIP3   OH219002   6.565   4.717   0.022
 6354TIP3    H119003   6.524   4.757   0.099
 6354TIP3    H219004   6.646   4.768   0.009
 6355TIP3   OH219005   0.520   6.529   1.401
 6355TIP3    H119006   0.465   6.451   1.405
 6355TIP3    H219007   0.530   6.555   1.493
 6356TIP3   OH219008   1.321   7.635   2.189
 6356TIP3    H119009   1.274   7.583   2.124
 6356TIP3    H219010   1.378   7.692   2.137
 6357TIP3   OH219011   5.683   5.309   6.371
 6357TIP3    H119012   5.665   5.227   6.325
 6357TIP3    H219013   5.728   5.283   6.451
 6358TIP3   OH219014   7.188   7.639   6.317
 6358TIP3    H119015   7.127   7.567   6.332
 6358TIP3    H219016   7.218   7.627   6.227
 6359TIP3   OH219017   6.606   2.955   5.986
 6359TIP3    H119018   6.546   3.014   5.939
 6359TIP3    H219019   6.629   2.888   5.921
 6360TIP3   OH219020   1.198   3.706   6.418
 6360TIP3    H119021   1.253   3.781   6.440
 6360TIP3    H219022   1.251   3.655   6.356
 6361TIP3   OH219023   3.757   3.149   6.707
 6361TIP3    H119024   3.810   3.086   6.755
 6361TIP3    H219025   3.739   3.218   6.770
 6362TIP3   OH219026   2.982   3.391   2.160
 6362TIP3    H119027   2.977   3.304   2.119
 6362TIP3    H219028   2.955   3.376   2.250
 6363TIP3   OH219029   5.107   2.082   0.491
 6363TIP3    H119030   5.034   2.133   0.527
 6363TIP3    H219031   5.178   2.145   0.480
 6364TIP3   OH219032   5.615   7.500   4.820
 6364TIP3    H119033   5.708   7.479   4.827
 6364TIP3    H219034   5.575   7.464   4.899
 6365TIP3   OH219035   8.252   0.125   2.477
 6365TIP3    H119036   8.175   0.181   2.490
 6365TIP3    H219037   8.319   0.163   2.534
 6366TIP3   OH219038   6.728   1.517   5.448
 6366TIP3    H119039   6.650   1.543   5.497
 6366TIP3    H219040   6.797   1.514   5.513
 6367TIP3   OH219041   1.493   5.898   0.792
 6367TIP3    H119042   1.455   5.984   0.808
 6367TIP3    H219043   1.439   5.860   0.722
 6368TIP3   OH219044   3.944   0.103   5.394
 6368TIP3    H119045   3.909   0.050   5.323
 6368TIP3    H219046   4.029   0.133   5.363
 6369TIP3   OH219047   1.049   6.955   2.375
 6369TIP3    H119048   1.058   7.028   2.314
 6369TIP3    H219049   0.987   6.895   2.333
 6370TIP3   OH219050   6.077   0.007   3.069
 6370TIP3    H119051   5.994   0.030   3.112
 6370TIP3    H219052   6.057   0.014   2.975
 6371TIP3   OH219053   4.474   0.447   6.634
 6371TIP3    H119054   4.418   0.506   6.584
 6371TIP3    H219055   4.560   0.455   6.592
 6372TIP3   OH219056   3.398   2.974   6.747
 6372TIP3    H119057   3.320   2.930   6.712
 6372TIP3    H219058   3.471   2.917   6.722
 6373TIP3   OH219059   4.413   7.675   1.027
 6373TIP3    H119060   4.350   7.638   1.088
 6373TIP3    H219061   4.474   7.603   1.009
 6374TIP3   OH219062   2.759   7.652   4.116
 6374TIP3    H119063   2.844   7.661   4.075
 6374TIP3    H219064   2.773   7.676   4.208
 6375TIP3   OH219065   8.351   1.998   5.240
 6375TIP3    H119066   8.368   2.086   5.274
 6375TIP3    H219067   8.404   1.940   5.295
 6376TIP3   OH219068   3.310   3.000   3.767
 6376TIP3    H119069   3.284   2.973   3.679
 6376TIP3    H219070   3.351   3.086   3.754
 6377TIP3   OH219071   1.016   1.179   3.098
 6377TIP3    H119072   1.017   1.176   3.002
 6377TIP3    H219073   1.030   1.271   3.119
 6378TIP3   OH219074   7.640   4.324   1.596
 6378TIP3    H119075   7.688   4.397   1.635
 6378TIP3    H219076   7.579   4.364   1.535
 6379TIP3   OH219077   1.261   4.312   6.708
 6379TIP3    H119078   1.208   4.345   6.781
 6379TIP3    H219079   1.224   4.226   6.689
 6380TIP3   OH219080   1.966   1.282   2.710
 6380TIP3    H119081   1.958   1.262   2.617
 6380TIP3    H219082   1.984   1.197   2.751
 6381TIP3   OH219083   7.492   6.689   6.374
 6381TIP3    H119084   7.419   6.627   6.379
 6381TIP3    H219085   7.455   6.772   6.404
 6382TIP3   OH219086   6.843   0.262   5.924
 6382TIP3    H119087   6.768   0.303   5.969
 6382TIP3    H219088   6.869   0.327   5.858
 6383TIP3   OH219089   2.741   1.047   5.409
 6383TIP3    H119090   2.835   1.042   5.390
 6383TIP3    H219091   2.718   0.958   5.437
 6384TIP3   OH219092   1.225   5.039   1.090
 6384TIP3    H119093   1.182   5.052   1.174
 6384TIP3    H219094   1.317   5.063   1.106
 6385TIP3   OH219095   3.246   0.840   4.354
 6385TIP3    H119096   3.245   0.752   4.316
 6385TIP3    H219097   3.156   0.870   4.347
 6386TIP3   OH219098   7.426   1.630   4.625
 6386TIP3    H119099   7.353   1.569   4.637
 6386TIP3    H219100   7.427   1.682   4.706
 6387TIP3   OH219101   0.075   4.534   5.712
 6387TIP3    H119102   0.164   4.507   5.736
 6387TIP3    H219103   0.060   4.614   5.763
 6388TIP3   OH219104   0.698   7.145   6.244
 6388TIP3    H119105   0.606   7.146   6.217
 6388TIP3    H219106   0.741   7.206   6.184
 6389TIP3   OH219107   0.138   0.756   1.061
 6389TIP3    H119108   0.067   0.778   1.121
 6389TIP3    H219109   0.094   0.731   0.980
 6390TIP3   OH219110   6.603   4.314   6.813
 6390TIP3    H119111   6.699   4.312   6.808
 6390TIP3    H219112   6.578   4.394   6.769
 6391TIP3   OH219113   6.966   3.182   0.729
 6391TIP3    H119114   7.001   3.173   0.817
 6391TIP3    H219115   6.950   3.276   0.719
 6392TIP3   OH219116   4.904   0.948   1.657
 6392TIP3    H119117   4.827   0.894   1.638
 6392TIP3    H219118   4.869   1.036   1.670
 6393TIP3   OH219119   5.384   0.354   3.990
 6393TIP3    H119120   5.309   0.389   4.038
 6393TIP3    H219121   5.345   0.297   3.924
 6394TIP3   OH219122   6.444   4.004   3.198
 6394TIP3    H119123   6.392   3.954   3.261
 6394TIP3    H219124   6.380   4.046   3.141
 6395TIP3   OH219125   0.680   3.787   6.752
 6395TIP3    H119126   0.749   3.829   6.803
 6395TIP3    H219127   0.605   3.847   6.758
 6396TIP3   OH219128   7.578   2.134   4.045
 6396TIP3    H119129   7.632   2.072   3.996
 6396TIP3    H219130   7.525   2.178   3.978
 6397TIP3   OH219131   4.454   0.615   0.308
 6397TIP3    H119132   4.395   0.689   0.294
 6397TIP3    H219133   4.403   0.552   0.357
 6398TIP3   OH219134   5.102   4.548   4.750
 6398TIP3    H119135   5.075   4.560   4.659
 6398TIP3    H219136   5.106   4.453   4.762
 6399TIP3   OH219137   1.791   0.131   4.238
 6399TIP3    H119138   1.788   0.094   4.326
 6399TIP3    H219139   1.774   0.225   4.251
 6400TIP3   OH219140   7.871   1.218   4.454
 6400TIP3    H119141   7.777   1.236   4.461
 6400TIP3    H219142   7.886   1.143   4.511
 6401TIP3   OH219143   2.163   6.578   6.762
 6401TIP3    H119144   2.132   6.496   6.723
 6401TIP3    H219145   2.095   6.642   6.740
 6402TIP3   OH219146   7.817   3.555   6.629
 6402TIP3    H119147   7.749   3.528   6.567
 6402TIP3    H219148   7.790   3.642   6.657
 6403TIP3   OH219149   4.821   4.688   5.473
 6403TIP3    H119150   4.847   4.777   5.497
 6403TIP3    H219151   4.733   4.679   5.510
 6404TIP3   OH219152   1.123   4.943   2.737
 6404TIP3    H119153   1.108   4.908   2.825
 6404TIP3    H219154   1.119   4.866   2.679
 6405TIP3   OH219155   1.204   1.403   6.188
 6405TIP3    H119156   1.173   1.482   6.233
 6405TIP3    H219157   1.299   1.405   6.197
 6406TIP3   OH219158   3.196   7.555   4.137
 6406TIP3    H119159   3.204   7.463   4.162
 6406TIP3    H219160   3.129   7.591   4.196
 6407TIP3   OH219161   4.936   6.376   6.171
 6407TIP3    H119162   4.846   6.380   6.138
 6407TIP3    H219163   4.987   6.343   6.097
 6408TIP3   OH219164   2.459   0.942   0.530
 6408TIP3    H119165   2.504   0.858   0.543
 6408TIP3    H219166   2.393   0.945   0.598
 6409TIP3   OH219167   1.371   4.983   3.597
 6409TIP3    H119168   1.278   4.974   3.575
 6409TIP3    H219169   1.371   5.034   3.678
 6410TIP3   OH219170   6.331   0.485   5.381
 6410TIP3    H119171   6.242   0.450   5.391
 6410TIP3    H219172   6.324   0.577   5.406
 6411TIP3   OH219173   0.224   3.742   3.114
 6411TIP3    H119174   0.316   3.756   3.135
 6411TIP3    H219175   0.205   3.654   3.147
 6412TIP3   OH219176   2.475   7.156   4.125
 6412TIP3    H119177   2.411   7.198   4.068
 6412TIP3    H219178   2.530   7.228   4.156
 6413TIP3   OH219179   1.676   3.400   2.815
 6413TIP3    H119180   1.642   3.331   2.872
 6413TIP3    H219181   1.771   3.397   2.829
 6414TIP3   OH219182   0.679   4.494   1.849
 6414TIP3    H119183   0.771   4.475   1.830
 6414TIP3    H219184   0.682   4.564   1.914
 6415TIP3   OH219185   3.314   0.882   5.647
 6415TIP3    H119186   3.328   0.787   5.646
 6415TIP3    H219187   3.402   0.919   5.647
 6416TIP3   OH219188   4.235   0.815   1.967
 6416TIP3    H119189   4.218   0.798   2.060
 6416TIP3    H219190   4.258   0.730   1.930
 6417TIP3   OH219191   5.487   3.511   2.359
 6417TIP3    H119192   5.467   3.445   2.293
 6417TIP3    H219193   5.540   3.576   2.312
 6418TIP3   OH219194   4.144   4.731   3.040
 6418TIP3    H119195   4.185   4.803   2.993
 6418TIP3    H219196   4.100   4.680   2.972
 6419TIP3   OH219197   6.595   7.933   0.034
 6419TIP3    H119198   6.508   7.944   0.073
 6419TIP3    H219199   6.643   7.878   0.096
 6420TIP3   OH219200   6.611   5.515   1.382
 6420TIP3    H119201   6.622   5.434   1.432
 6420TIP3    H219202   6.667   5.505   1.305
 6421TIP3   OH219203   3.835   3.685   1.699
 6421TIP3    H119204   3.869   3.623   1.635
 6421TIP3    H219205   3.794   3.754   1.647
 6422TIP3   OH219206   8.230   3.965   2.678
 6422TIP3    H119207   8.161   3.977   2.744
 6422TIP3    H219208   8.249   4.054   2.647
 6423TIP3   OH219209   4.746   1.413   6.265
 6423TIP3    H119210   4.838   1.423   6.290
 6423TIP3    H219211   4.716   1.502   6.248
 6424TIP3   OH219212   5.782   7.371   5.633
 6424TIP3    H119213   5.830   7.453   5.619
 6424TIP3    H219214   5.752   7.377   5.724
 6425TIP3   OH219215   5.715   4.998   2.500
 6425TIP3    H119216   5.792   5.013   2.445
 6425TIP3    H219217   5.745   5.015   2.589
 6426TIP3   OH219218   0.701   3.211   5.983
 6426TIP3    H119219   0.762   3.254   5.924
 6426TIP3    H219220   0.622   3.266   5.981
 6427TIP3   OH219221   6.567   4.423   6.259
 6427TIP3    H119222   6.516   4.386   6.187
 6427TIP3    H219223   6.540   4.515   6.263
 6428TIP3   OH219224   0.853   6.358   5.133
 6428TIP3    H119225   0.925   6.354   5.195
 6428TIP3    H219226   0.894   6.355   5.047
 6429TIP3   OH219227   0.759   5.508   1.140
 6429TIP3    H119228   0.692   5.464   1.193
 6429TIP3    H219229   0.823   5.540   1.204
 6430TIP3   OH219230   7.360   2.745   2.488
 6430TIP3    H119231   7.379   2.803   2.414
 6430TIP3    H219232   7.386   2.658   2.458
 6431TIP3   OH219233   2.791   3.939   1.901
 6431TIP3    H119234   2.839   3.929   1.819
 6431TIP3    H219235   2.738   3.860   1.908
 6432TIP3   OH219236   8.001   0.897   0.544
 6432TIP3    H119237   7.915   0.927   0.513
 6432TIP3    H219238   8.028   0.832   0.480
 6433TIP3   OH219239   4.795   6.510   1.951
 6433TIP3    H119240   4.852   6.450   1.904
 6433TIP3    H219241   4.840   6.526   2.034
 6434TIP3   OH219242   6.381   0.911   0.064
 6434TIP3    H119243   6.442   0.944   0.131
 6434TIP3    H219244   6.420   0.939  -0.019
 6435TIP3   OH219245   7.168   7.370   3.835
 6435TIP3    H119246   7.176   7.436   3.767
 6435TIP3    H219247   7.128   7.415   3.909
 6436TIP3   OH219248   5.140   7.623   5.573
 6436TIP3    H119249   5.203   7.582   5.513
 6436TIP3    H219250   5.160   7.717   5.569
 6437TIP3   OH219251   0.839   2.209   0.640
 6437TIP3    H119252   0.871   2.140   0.582
 6437TIP3    H219253   0.744   2.212   0.623
 6438TIP3   OH219254   4.938   1.090   6.419
 6438TIP3    H119255   5.012   1.030   6.415
 6438TIP3    H219256   4.900   1.077   6.505
 6439TIP3   OH219257   6.351   3.510   1.878
 6439TIP3    H119258   6.428   3.556   1.911
 6439TIP3    H219259   6.347   3.534   1.785
 6440TIP3   OH219260   1.085   6.769   4.212
 6440TIP3    H119261   1.126   6.755   4.126
 6440TIP3    H219262   1.097   6.862   4.230
 6441TIP3   OH219263   5.067   3.527   4.251
 6441TIP3    H119264   5.130   3.559   4.186
 6441TIP3    H219265   5.006   3.599   4.263
 6442TIP3   OH219266   5.609   2.765   2.235
 6442TIP3    H119267   5.686   2.816   2.259
 6442TIP3    H219268   5.536   2.826   2.241
 6443TIP3   OH219269   1.345   1.716   6.303
 6443TIP3    H119270   1.439   1.734   6.302
 6443TIP3    H219271   1.315   1.743   6.216
 6444TIP3   OH219272   1.265   4.554   4.152
 6444TIP3    H119273   1.185   4.597   4.181
 6444TIP3    H219274   1.270   4.474   4.204
 6445TIP3   OH219275   7.858   1.562   3.997
 6445TIP3    H119276   7.904   1.541   3.916
 6445TIP3    H219277   7.890   1.498   4.061
 6446TIP3   OH219278   4.021   6.881   2.078
 6446TIP3    H119279   4.048   6.789   2.071
 6446TIP3    H219280   4.085   6.919   2.139
 6447TIP3   OH219281   5.274   3.362   1.336
 6447TIP3    H119282   5.342   3.342   1.272
 6447TIP3    H219283   5.209   3.412   1.287
 6448TIP3   OH219284   3.460   2.339   0.321
 6448TIP3    H119285   3.383   2.363   0.270
 6448TIP3    H219286   3.429   2.269   0.379
 6449TIP3   OH219287   6.007   6.872   6.436
 6449TIP3    H119288   6.005   6.946   6.496
 6449TIP3    H219289   6.099   6.862   6.414
 6450TIP3   OH219290   3.876   2.376   2.926
 6450TIP3    H119291   3.827   2.442   2.976
 6450TIP3    H219292   3.834   2.374   2.841
 6451TIP3   OH219293   7.096   0.119   4.483
 6451TIP3    H119294   7.187   0.108   4.456
 6451TIP3    H219295   7.075   0.211   4.463
 6452TIP3   OH219296   1.224   6.700   2.048
 6452TIP3    H119297   1.169   6.778   2.062
 6452TIP3    H219298   1.282   6.698   2.124
 6453TIP3   OH219299   4.804   3.597   5.792
 6453TIP3    H119300   4.807   3.606   5.887
 6453TIP3    H219301   4.828   3.683   5.758
 6454TIP3   OH219302   1.255   2.099   2.040
 6454TIP3    H119303   1.332   2.120   1.987
 6454TIP3    H219304   1.230   2.183   2.080
 6455TIP3   OH219305   4.639   6.104   3.570
 6455TIP3    H119306   4.618   6.043   3.499
 6455TIP3    H219307   4.556   6.146   3.592
 6456TIP3   OH219308   8.060   1.827   3.232
 6456TIP3    H119309   8.047   1.921   3.245
 6456TIP3    H219310   7.983   1.786   3.271
 6457TIP3   OH219311   3.781   4.361   3.358
 6457TIP3    H119312   3.689   4.373   3.379
 6457TIP3    H219313   3.827   4.422   3.416
 6458TIP3   OH219314   3.533   4.581   1.200
 6458TIP3    H119315   3.623   4.563   1.228
 6458TIP3    H219316   3.536   4.670   1.166
 6459TIP3   OH219317   4.628   5.367   5.426
 6459TIP3    H119318   4.670   5.445   5.391
 6459TIP3    H219319   4.582   5.329   5.352
 6460TIP3   OH219320   3.816   7.649   1.653
 6460TIP3    H119321   3.814   7.588   1.727
 6460TIP3    H219322   3.730   7.690   1.653
 6461TIP3   OH219323   4.005   7.755   0.876
 6461TIP3    H119324   3.986   7.802   0.795
 6461TIP3    H219325   4.053   7.818   0.929
 6462TIP3   OH219326   4.459   7.070   1.971
 6462TIP3    H119327   4.453   6.988   2.021
 6462TIP3    H219328   4.369   7.097   1.958
 6463TIP3   OH219329   1.824   6.038   6.118
 6463TIP3    H119330   1.895   5.978   6.143
 6463TIP3    H219331   1.837   6.053   6.025
 6464TIP3   OH219332   7.176   4.166   5.081
 6464TIP3    H119333   7.234   4.112   5.135
 6464TIP3    H219334   7.105   4.192   5.140
 6465TIP3   OH219335   3.017   4.137   3.077
 6465TIP3    H119336   2.929   4.107   3.103
 6465TIP3    H219337   3.027   4.221   3.122
 6466TIP3   OH219338   6.439   0.014   6.754
 6466TIP3    H119339   6.444   0.109   6.763
 6466TIP3    H219340   6.346  -0.006   6.754
 6467TIP3   OH219341   5.296   2.266   0.385
 6467TIP3    H119342   5.243   2.274   0.305
 6467TIP3    H219343   5.370   2.210   0.359
 6468TIP3   OH219344   4.408   6.081   4.659
 6468TIP3    H119345   4.356   6.018   4.610
 6468TIP3    H219346   4.461   6.125   4.593
 6469TIP3   OH219347   0.119   4.524   1.880
 6469TIP3    H119348   0.131   4.573   1.962
 6469TIP3    H219349   0.209   4.503   1.853
 6470TIP3   OH219350   0.353   1.895   4.658
 6470TIP3    H119351   0.375   1.803   4.642
 6470TIP3    H219352   0.318   1.897   4.747
 6471TIP3   OH219353   0.851   4.995   3.017
 6471TIP3    H119354   0.893   4.909   3.008
 6471TIP3    H219355   0.759   4.979   2.993
 6472TIP3   OH219356   2.857   4.349   6.176
 6472TIP3    H119357   2.774   4.325   6.136
 6472TIP3    H219358   2.865   4.292   6.253
 6473TIP3   OH219359   6.177   3.503   6.303
 6473TIP3    H119360   6.255   3.474   6.350
 6473TIP3    H219361   6.212   3.548   6.226
 6474TIP3   OH219362   5.963   3.389   4.840
 6474TIP3    H119363   5.990   3.391   4.932
 6474TIP3    H219364   5.982   3.299   4.811
 6475TIP3   OH219365   1.553   1.693   0.154
 6475TIP3    H119366   1.632   1.746   0.141
 6475TIP3    H219367   1.511   1.692   0.068
 6476TIP3   OH219368   2.558   4.091   5.802
 6476TIP3    H119369   2.584   4.011   5.847
 6476TIP3    H219370   2.513   4.061   5.724
 6477TIP3   OH219371   4.252   7.147   1.425
 6477TIP3    H119372   4.277   7.147   1.517
 6477TIP3    H219373   4.241   7.055   1.403
 6478TIP3   OH219374   7.760   3.783   4.252
 6478TIP3    H119375   7.749   3.705   4.306
 6478TIP3    H219376   7.671   3.803   4.222
 6479TIP3   OH219377   0.320   0.043   2.986
 6479TIP3    H119378   0.314   0.082   2.899
 6479TIP3    H219379   0.353  -0.046   2.970
 6480TIP3   OH219380   2.923   2.828   0.725
 6480TIP3    H119381   2.935   2.735   0.707
 6480TIP3    H219382   2.847   2.853   0.673
 6481TIP3   OH219383   0.140   3.514   2.640
 6481TIP3    H119384   0.202   3.451   2.602
 6481TIP3    H219385   0.061   3.506   2.586
 6482TIP3   OH219386   5.610   6.369   6.047
 6482TIP3    H119387   5.690   6.367   6.099
 6482TIP3    H219388   5.629   6.430   5.975
 6483TIP3   OH219389   6.946   4.256   2.100
 6483TIP3    H119390   7.018   4.260   2.163
 6483TIP3    H219391   6.891   4.332   2.121
 6484TIP3   OH219392   3.140   7.591   3.707
 6484TIP3    H119393   3.131   7.496   3.709
 6484TIP3    H219394   3.235   7.606   3.710
 6485TIP3   OH219395   4.838   4.605   0.939
 6485TIP3    H119396   4.760   4.562   0.974
 6485TIP3    H219397   4.818   4.699   0.945
 6486TIP3   OH219398   4.776   3.566   6.095
 6486TIP3    H119399   4.705   3.626   6.116
 6486TIP3    H219400   4.840   3.580   6.165
 6487TIP3   OH219401   2.151   5.345   0.401
 6487TIP3    H119402   2.096   5.369   0.475
 6487TIP3    H219403   2.213   5.282   0.437
 6488TIP3   OH219404   0.801   3.227   0.111
 6488TIP3    H119405   0.828   3.151   0.162
 6488TIP3    H219406   0.757   3.284   0.174
 6489TIP3   OH219407   5.136   2.232   1.413
 6489TIP3    H119408   5.057   2.269   1.453
 6489TIP3    H219409   5.196   2.218   1.486
 6490TIP3   OH219410   2.008   7.501   4.147
 6490TIP3    H119411   2.040   7.563   4.213
 6490TIP3    H219412   1.912   7.510   4.151
 6491TIP3   OH219413   8.067   3.707   6.143
 6491TIP3    H119414   8.058   3.616   6.113
 6491TIP3    H219415   8.150   3.736   6.105
 6492TIP3   OH219416   5.721   0.950   6.448
 6492TIP3    H119417   5.645   0.922   6.498
 6492TIP3    H219418   5.685   1.003   6.376
 6493TIP3   OH219419   0.381   4.729   1.860
 6493TIP3    H119420   0.299   4.749   1.905
 6493TIP3    H219421   0.431   4.677   1.923
 6494TIP3   OH219422   0.989   0.640   6.230
 6494TIP3    H119423   1.073   0.679   6.207
 6494TIP3    H219424   0.958   0.690   6.305
 6495TIP3   OH219425   3.360   6.633   6.310
 6495TIP3    H119426   3.328   6.721   6.329
 6495TIP3    H219427   3.280   6.580   6.302
 6496TIP3   OH219428   3.778   4.492   5.231
 6496TIP3    H119429   3.748   4.580   5.205
 6496TIP3    H219430   3.844   4.469   5.165
 6497TIP3   OH219431   6.192   3.711   1.281
 6497TIP3    H119432   6.190   3.787   1.339
 6497TIP3    H219433   6.119   3.656   1.311
 6498TIP3   OH219434   5.078   5.072   6.691
 6498TIP3    H119435   5.114   5.125   6.762
 6498TIP3    H219436   5.057   4.988   6.732
 6499TIP3   OH219437   4.060   0.585   0.977
 6499TIP3    H119438   4.041   0.633   1.057
 6499TIP3    H219439   3.981   0.533   0.961
 6500TIP3   OH219440   7.991   3.332   5.027
 6500TIP3    H119441   8.022   3.379   4.950
 6500TIP3    H219442   8.068   3.285   5.059
 6501TIP3   OH219443   6.114   5.704   3.060
 6501TIP3    H119444   6.021   5.726   3.059
 6501TIP3    H219445   6.119   5.616   3.023
 6502TIP3   OH219446   5.041   0.326   5.721
 6502TIP3    H119447   5.055   0.409   5.768
 6502TIP3    H219448   5.106   0.326   5.651
 6503TIP3   OH219449   0.286   4.549   5.476
 6503TIP3    H119450   0.319   4.524   5.562
 6503TIP3    H219451   0.212   4.491   5.460
 6504TIP3   OH219452   5.844   5.657   2.181
 6504TIP3    H119453   5.753   5.682   2.197
 6504TIP3    H219454   5.896   5.729   2.218
 6505TIP3   OH219455   7.798   5.404   3.263
 6505TIP3    H119456   7.849   5.408   3.344
 6505TIP3    H219457   7.786   5.310   3.247
 6506TIP3   OH219458   4.966   7.045   0.328
 6506TIP3    H119459   5.032   7.029   0.396
 6506TIP3    H219460   5.014   7.092   0.260
 6507TIP3   OH219461   4.030   3.537   3.294
 6507TIP3    H119462   4.045   3.617   3.243
 6507TIP3    H219463   3.943   3.507   3.268
 6508TIP3   OH219464   2.421   7.583   0.418
 6508TIP3    H119465   2.346   7.591   0.359
 6508TIP3    H219466   2.465   7.503   0.389
 6509TIP3   OH219467   2.696   4.738   0.581
 6509TIP3    H119468   2.623   4.728   0.520
 6509TIP3    H219469   2.772   4.702   0.534
 6510TIP3   OH219470   5.599   6.129   3.179
 6510TIP3    H119471   5.552   6.195   3.129
 6510TIP3    H219472   5.576   6.146   3.270
 6511TIP3   OH219473   0.318   1.496   5.768
 6511TIP3    H119474   0.380   1.568   5.780
 6511TIP3    H219475   0.369   1.417   5.788
 6512TIP3   OH219476   0.813   3.901   2.547
 6512TIP3    H119477   0.824   3.908   2.452
 6512TIP3    H219478   0.868   3.826   2.572
 6513TIP3   OH219479   3.567   2.342   5.283
 6513TIP3    H119480   3.650   2.388   5.298
 6513TIP3    H219481   3.499   2.406   5.302
 6514TIP3   OH219482   7.366   0.999   3.610
 6514TIP3    H119483   7.276   1.026   3.625
 6514TIP3    H219484   7.414   1.080   3.595
 6515TIP3   OH219485   6.871   1.849   4.595
 6515TIP3    H119486   6.953   1.896   4.581
 6515TIP3    H219487   6.876   1.774   4.536
 6516TIP3   OH219488   7.394   3.227   0.966
 6516TIP3    H119489   7.489   3.221   0.956
 6516TIP3    H219490   7.359   3.188   0.886
 6517TIP3   OH219491   1.727   6.898   0.137
 6517TIP3    H119492   1.773   6.860   0.062
 6517TIP3    H219493   1.677   6.825   0.174
 6518TIP3   OH219494   5.318   1.903   2.273
 6518TIP3    H119495   5.299   1.990   2.309
 6518TIP3    H219496   5.414   1.900   2.267
 6519TIP3   OH219497   1.635   3.182   3.342
 6519TIP3    H119498   1.577   3.182   3.419
 6519TIP3    H219499   1.721   3.159   3.377
 6520TIP3   OH219500   2.758   5.912   2.664
 6520TIP3    H119501   2.700   5.962   2.607
 6520TIP3    H219502   2.764   5.964   2.744
 6521TIP3   OH219503   4.514   0.384   0.145
 6521TIP3    H119504   4.498   0.472   0.181
 6521TIP3    H219505   4.438   0.333   0.171
 6522TIP3   OH219506   7.803   0.191   5.370
 6522TIP3    H119507   7.799   0.217   5.278
 6522TIP3    H219508   7.712   0.178   5.396
 6523TIP3   OH219509   7.607   4.991   2.007
 6523TIP3    H119510   7.562   4.980   1.923
 6523TIP3    H219511   7.693   5.027   1.983
 6524TIP3   OH219512   0.078   6.205   0.802
 6524TIP3    H119513   0.155   6.150   0.818
 6524TIP3    H219514   0.060   6.247   0.886
 6525TIP3   OH219515   6.818   6.254   1.119
 6525TIP3    H119516   6.824   6.318   1.190
 6525TIP3    H219517   6.779   6.177   1.159
 6526TIP3   OH219518   3.715   3.628   2.802
 6526TIP3    H119519   3.769   3.634   2.881
 6526TIP3    H219520   3.625   3.625   2.835
 6527TIP3   OH219521   5.292   2.773   1.915
 6527TIP3    H119522   5.255   2.707   1.974
 6527TIP3    H219523   5.377   2.795   1.954
 6528TIP3   OH219524   4.620   2.132   6.544
 6528TIP3    H119525   4.636   2.204   6.483
 6528TIP3    H219526   4.678   2.150   6.618
 6529TIP3   OH219527   6.387   5.282   4.823
 6529TIP3    H119528   6.373   5.256   4.914
 6529TIP3    H219529   6.451   5.219   4.790
 6530TIP3   OH219530   8.340   5.454   3.772
 6530TIP3    H119531   8.402   5.443   3.845
 6530TIP3    H219532   8.266   5.501   3.810
 6531TIP3   OH219533   1.102   7.186   2.214
 6531TIP3    H119534   1.176   7.229   2.169
 6531TIP3    H219535   1.032   7.251   2.212
 6532TIP3   OH219536   3.043   7.606   4.355
 6532TIP3    H119537   2.957   7.649   4.355
 6532TIP3    H219538   3.104   7.676   4.377
 6533TIP3   OH219539   5.984   0.616   2.375
 6533TIP3    H119540   6.073   0.613   2.411
 6533TIP3    H219541   5.958   0.524   2.367
 6534TIP3   OH219542   4.830   0.168   5.715
 6534TIP3    H119543   4.808   0.122   5.795
 6534TIP3    H219544   4.921   0.197   5.728
 6535TIP3   OH219545   1.834   7.775   2.731
 6535TIP3    H119546   1.764   7.838   2.745
 6535TIP3    H219547   1.830   7.716   2.806
 6536TIP3   OH219548   7.773   7.907   0.948
 6536TIP3    H119549   7.700   7.883   0.891
 6536TIP3    H219550   7.732   7.947   1.025
 6537TIP3   OH219551   0.359   6.426   6.257
 6537TIP3    H119552   0.388   6.357   6.198
 6537TIP3    H219553   0.264   6.412   6.265
 6538TIP3   OH219554   6.092   0.470   4.569
 6538TIP3    H119555   6.096   0.564   4.555
 6538TIP3    H219556   6.119   0.457   4.660
 6539TIP3   OH219557   0.075   3.636   6.687
 6539TIP3    H119558   0.017   3.587   6.746
 6539TIP3    H219559   0.022   3.711   6.659
 6540TIP3   OH219560   5.298   5.839   5.393
 6540TIP3    H119561   5.250   5.792   5.325
 6540TIP3    H219562   5.253   5.924   5.400
 6541TIP3   OH219563   4.098   1.247   5.952
 6541TIP3    H119564   4.111   1.286   5.866
 6541TIP3    H219565   4.096   1.321   6.013
 6542TIP3   OH219566   5.261   6.759   3.146
 6542TIP3    H119567   5.217   6.774   3.062
 6542TIP3    H219568   5.192   6.772   3.211
 6543TIP3   OH219569   0.978   6.785   0.501
 6543TIP3    H119570   0.925   6.767   0.578
 6543TIP3    H219571   0.967   6.708   0.445
 6544TIP3   OH219572   6.953   5.031   4.646
 6544TIP3    H119573   6.910   5.050   4.563
 6544TIP3    H219574   6.997   5.112   4.670
 6545TIP3   OH219575   4.322   0.991   6.766
 6545TIP3    H119576   4.270   1.061   6.728
 6545TIP3    H219577   4.399   0.984   6.710
 6546TIP3   OH219578   8.261   5.122   5.558
 6546TIP3    H119579   8.205   5.048   5.581
 6546TIP3    H219580   8.248   5.185   5.629
 6547TIP3   OH219581   2.520   0.417   0.719
 6547TIP3    H119582   2.538   0.423   0.813
 6547TIP3    H219583   2.441   0.470   0.707
 6548TIP3   OH219584   3.334   0.439   3.075
 6548TIP3    H119585   3.362   0.479   2.993
 6548TIP3    H219586   3.336   0.510   3.139
 6549TIP3   OH219587   5.306   3.970   2.278
 6549TIP3    H119588   5.290   3.963   2.184
 6549TIP3    H219589   5.393   3.931   2.290
 6550TIP3   OH219590   5.304   5.561   3.146
 6550TIP3    H119591   5.345   5.512   3.217
 6550TIP3    H219592   5.271   5.493   3.087
 6551TIP3   OH219593   3.637   5.838   1.138
 6551TIP3    H119594   3.568   5.771   1.137
 6551TIP3    H219595   3.590   5.920   1.156
 6552TIP3   OH219596   4.696   6.047   3.219
 6552TIP3    H119597   4.624   6.072   3.160
 6552TIP3    H219598   4.769   6.104   3.192
 6553TIP3   OH219599   4.151   0.223   6.724
 6553TIP3    H119600   4.222   0.262   6.775
 6553TIP3    H219601   4.072   0.265   6.758
 6554TIP3   OH219602   2.494   6.144   0.206
 6554TIP3    H119603   2.478   6.065   0.257
 6554TIP3    H219604   2.485   6.116   0.115
 6555TIP3   OH219605   6.127   5.336   4.734
 6555TIP3    H119606   6.131   5.396   4.809
 6555TIP3    H219607   6.211   5.290   4.736
 6556TIP3   OH219608   7.572   7.851   1.240
 6556TIP3    H119609   7.599   7.780   1.298
 6556TIP3    H219610   7.495   7.817   1.194
 6557TIP3   OH219611   5.894   6.944   4.411
 6557TIP3    H119612   5.884   7.033   4.447
 6557TIP3    H219613   5.811   6.927   4.367
 6558TIP3   OH219614   7.643   0.643   2.260
 6558TIP3    H119615   7.727   0.680   2.234
 6558TIP3    H219616   7.644   0.554   2.226
 6559TIP3   OH219617   1.331   1.616   0.810
 6559TIP3    H119618   1.414   1.653   0.838
 6559TIP3    H219619   1.320   1.644   0.719
 6560TIP3   OH219620   7.135   6.427   4.254
 6560TIP3    H119621   7.217   6.473   4.270
 6560TIP3    H219622   7.071   6.468   4.313
 6561TIP3   OH219623   7.920   6.195   1.468
 6561TIP3    H119624   8.002   6.208   1.420
 6561TIP3    H219625   7.926   6.105   1.502
 6562TIP3   OH219626   3.920   3.438   6.388
 6562TIP3    H119627   3.846   3.378   6.390
 6562TIP3    H219628   3.995   3.385   6.413
 6563TIP3   OH219629   1.954   4.803   2.223
 6563TIP3    H119630   2.045   4.776   2.237
 6563TIP3    H219631   1.927   4.842   2.306
 6564TIP3   OH219632   1.970   7.532   3.629
 6564TIP3    H119633   1.982   7.512   3.722
 6564TIP3    H219634   1.938   7.450   3.591
 6565TIP3   OH219635   6.440   5.441   0.550
 6565TIP3    H119636   6.425   5.522   0.501
 6565TIP3    H219637   6.364   5.387   0.531
 6566TIP3   OH219638   0.153   5.375   1.973
 6566TIP3    H119639   0.239   5.338   1.955
 6566TIP3    H219640   0.115   5.393   1.886
 6567TIP3   OH219641   2.471   2.707   2.937
 6567TIP3    H119642   2.506   2.713   3.026
 6567TIP3    H219643   2.386   2.664   2.947
 6568TIP3   OH219644   1.143   6.978   0.551
 6568TIP3    H119645   1.166   7.016   0.467
 6568TIP3    H219646   1.082   6.907   0.530
 6569TIP3   OH219647   0.477   7.109   5.270
 6569TIP3    H119648   0.488   7.040   5.205
 6569TIP3    H219649   0.383   7.128   5.270
 6570TIP3   OH219650   7.788   7.572   4.144
 6570TIP3    H119651   7.813   7.514   4.072
 6570TIP3    H219652   7.711   7.619   4.111
 6571TIP3   OH219653   2.081   5.001   1.709
 6571TIP3    H119654   2.031   4.965   1.636
 6571TIP3    H219655   2.039   5.085   1.727
 6572TIP3   OH219656   5.101   1.933   1.527
 6572TIP3    H119657   5.154   1.965   1.600
 6572TIP3    H219658   5.146   1.965   1.449
 6573TIP3   OH219659   3.983   2.665   2.300
 6573TIP3    H119660   4.026   2.581   2.282
 6573TIP3    H219661   4.020   2.725   2.236
 6574TIP3   OH219662   4.397   3.861   3.094
 6574TIP3    H119663   4.444   3.837   3.015
 6574TIP3    H219664   4.397   3.957   3.094
 6575TIP3   OH219665   7.176   1.044   1.169
 6575TIP3    H119666   7.100   1.019   1.222
 6575TIP3    H219667   7.140   1.061   1.082
 6576TIP3   OH219668   4.905   3.746   3.800
 6576TIP3    H119669   4.850   3.680   3.841
 6576TIP3    H219670   4.901   3.821   3.859
 6577TIP3   OH219671   7.916   7.066   0.900
 6577TIP3    H119672   7.918   6.976   0.867
 6577TIP3    H219673   7.994   7.107   0.864
 6578TIP3   OH219674   5.191   4.981   4.513
 6578TIP3    H119675   5.124   4.931   4.561
 6578TIP3    H219676   5.273   4.956   4.555
 6579TIP3   OH219677   4.721   2.955   6.811
 6579TIP3    H119678   4.667   3.008   6.753
 6579TIP3    H219679   4.803   3.003   6.819
 6580TIP3   OH219680   7.927   6.317   2.354
 6580TIP3    H119681   7.937   6.314   2.449
 6580TIP3    H219682   7.915   6.410   2.334
 6581TIP3   OH219683   1.646   7.386   1.235
 6581TIP3    H119684   1.651   7.394   1.140
 6581TIP3    H219685   1.676   7.471   1.268
 6582TIP3   OH219686   2.122   5.914   4.055
 6582TIP3    H119687   2.144   5.821   4.066
 6582TIP3    H219688   2.149   5.955   4.137
 6583TIP3   OH219689   5.748   0.059   4.645
 6583TIP3    H119690   5.661   0.025   4.667
 6583TIP3    H219691   5.746   0.068   4.550
 6584TIP3   OH219692   6.029   4.158   2.094
 6584TIP3    H119693   6.041   4.214   2.018
 6584TIP3    H219694   5.934   4.156   2.108
 6585TIP3   OH219695   5.023   6.296   4.959
 6585TIP3    H119696   5.003   6.290   5.052
 6585TIP3    H219697   4.960   6.359   4.925
 6586TIP3   OH219698   8.204   6.536   5.005
 6586TIP3    H119699   8.223   6.505   4.916
 6586TIP3    H219700   8.253   6.477   5.062
 6587TIP3   OH219701   6.034   2.913   5.240
 6587TIP3    H119702   6.057   2.952   5.324
 6587TIP3    H219703   6.117   2.881   5.205
 6588TIP3   OH219704   4.708   1.247   3.183
 6588TIP3    H119705   4.763   1.217   3.111
 6588TIP3    H219706   4.700   1.341   3.170
 6589TIP3   OH219707   3.355   3.557   4.186
 6589TIP3    H119708   3.420   3.563   4.116
 6589TIP3    H219709   3.291   3.624   4.165
 6590TIP3   OH219710   6.650   5.912   1.677
 6590TIP3    H119711   6.653   5.818   1.696
 6590TIP3    H219712   6.562   5.926   1.644
 6591TIP3   OH219713   5.461   4.975   1.442
 6591TIP3    H119714   5.454   4.891   1.488
 6591TIP3    H219715   5.553   4.999   1.451
 6592TIP3   OH219716   6.485   4.473   5.318
 6592TIP3    H119717   6.437   4.508   5.393
 6592TIP3    H219718   6.417   4.453   5.254
 6593TIP3   OH219719   6.362   3.487   1.594
 6593TIP3    H119720   6.339   3.580   1.592
 6593TIP3    H219721   6.280   3.441   1.575
 6594TIP3   OH219722   5.669   7.586   6.136
 6594TIP3    H119723   5.612   7.651   6.176
 6594TIP3    H219724   5.757   7.609   6.165
 6595TIP3   OH219725   6.788   1.984   6.254
 6595TIP3    H119726   6.699   1.958   6.232
 6595TIP3    H219727   6.788   2.080   6.246
 6596TIP3   OH219728   0.611   6.349   2.051
 6596TIP3    H119729   0.527   6.317   2.085
 6596TIP3    H219730   0.660   6.270   2.030
 6597TIP3   OH219731   5.549   1.396   3.865
 6597TIP3    H119732   5.522   1.430   3.951
 6597TIP3    H219733   5.504   1.453   3.802
 6598TIP3   OH219734   0.352   7.826   6.347
 6598TIP3    H119735   0.419   7.771   6.307
 6598TIP3    H219736   0.400   7.895   6.392
 6599TIP3   OH219737   4.370   5.776   1.876
 6599TIP3    H119738   4.337   5.810   1.960
 6599TIP3    H219739   4.404   5.853   1.831
 6600TIP3   OH219740   2.576   6.587   3.424
 6600TIP3    H119741   2.541   6.511   3.379
 6600TIP3    H219742   2.500   6.628   3.465
 6601TIP3   OH219743   3.450   4.687   0.286
 6601TIP3    H119744   3.459   4.755   0.352
 6601TIP3    H219745   3.532   4.691   0.236
 6602TIP3   OH219746   2.004   3.573   6.165
 6602TIP3    H119747   1.987   3.620   6.246
 6602TIP3    H219748   1.989   3.637   6.096
 6603TIP3   OH219749   0.306   0.610   4.017
 6603TIP3    H119750   0.379   0.591   4.076
 6603TIP3    H219751   0.342   0.673   3.954
 6604TIP3   OH219752   1.817   5.686   6.320
 6604TIP3    H119753   1.833   5.674   6.413
 6604TIP3    H219754   1.874   5.622   6.277
 6605TIP3   OH219755   5.833   3.163   0.520
 6605TIP3    H119756   5.752   3.115   0.505
 6605TIP3    H219757   5.889   3.103   0.570
 6606TIP3   OH219758   7.970   0.220   0.356
 6606TIP3    H119759   7.998   0.307   0.325
 6606TIP3    H219760   8.052   0.172   0.369
 6607TIP3   OH219761   3.484   3.787   6.575
 6607TIP3    H119762   3.484   3.853   6.507
 6607TIP3    H219763   3.568   3.799   6.620
 6608TIP3   OH219764   0.671   2.813   6.295
 6608TIP3    H119765   0.687   2.850   6.382
 6608TIP3    H219766   0.722   2.868   6.236
 6609TIP3   OH219767   2.580   3.805   3.570
 6609TIP3    H119768   2.668   3.767   3.571
 6609TIP3    H219769   2.594   3.897   3.590
 6610TIP3   OH219770   5.624   3.066   0.156
 6610TIP3    H119771   5.584   3.103   0.078
 6610TIP3    H219772   5.717   3.062   0.137
 6611TIP3   OH219773   3.950   0.163   2.876
 6611TIP3    H119774   3.899   0.112   2.939
 6611TIP3    H219775   3.894   0.170   2.799
 6612TIP3   OH219776   4.591   5.774   3.135
 6612TIP3    H119777   4.633   5.846   3.181
 6612TIP3    H219778   4.600   5.796   3.043
 6613TIP3   OH219779   5.908   2.066   5.107
 6613TIP3    H119780   5.908   2.014   5.027
 6613TIP3    H219781   5.856   2.143   5.087
 6614TIP3   OH219782   4.238   3.675   1.802
 6614TIP3    H119783   4.228   3.593   1.851
 6614TIP3    H219784   4.318   3.714   1.836
 6615TIP3   OH219785   7.780   5.073   6.577
 6615TIP3    H119786   7.741   5.079   6.490
 6615TIP3    H219787   7.766   4.982   6.603
 6616TIP3   OH219788   1.658   0.930   3.725
 6616TIP3    H119789   1.661   1.004   3.664
 6616TIP3    H219790   1.653   0.852   3.669
 6617TIP3   OH219791   6.549   6.704   5.086
 6617TIP3    H119792   6.554   6.773   5.152
 6617TIP3    H219793   6.519   6.627   5.133
 6618TIP3   OH219794   0.314   5.091   4.309
 6618TIP3    H119795   0.406   5.072   4.327
 6618TIP3    H219796   0.279   5.009   4.274
 6619TIP3   OH219797   1.725   7.399   6.667
 6619TIP3    H119798   1.697   7.485   6.698
 6619TIP3    H219799   1.645   7.358   6.634
 6620TIP3   OH219800   0.550   1.595   1.550
 6620TIP3    H119801   0.575   1.679   1.512
 6620TIP3    H219802   0.463   1.610   1.586
 6621TIP3   OH219803   2.354   2.815   0.189
 6621TIP3    H119804   2.296   2.751   0.230
 6621TIP3    H219805   2.314   2.832   0.103
 6622TIP3   OH219806   5.190   7.368   6.046
 6622TIP3    H119807   5.235   7.418   6.115
 6622TIP3    H219808   5.104   7.410   6.038
 6623TIP3   OH219809   1.610   6.023   0.531
 6623TIP3    H119810   1.624   6.011   0.625
 6623TIP3    H219811   1.548   5.954   0.507
 6624TIP3   OH219812   0.937   0.237   5.890
 6624TIP3    H119813   0.973   0.148   5.894
 6624TIP3    H219814   0.962   0.276   5.974
 6625TIP3   OH219815   2.798   1.721   5.852
 6625TIP3    H119816   2.862   1.752   5.788
 6625TIP3    H219817   2.748   1.799   5.875
 6626TIP3   OH219818   1.168   0.702   0.447
 6626TIP3    H119819   1.180   0.788   0.406
 6626TIP3    H219820   1.096   0.715   0.509
 6627TIP3   OH219821   1.681   4.874   4.150
 6627TIP3    H119822   1.698   4.919   4.068
 6627TIP3    H219823   1.586   4.881   4.162
 6628TIP3   OH219824   0.702   1.140   3.837
 6628TIP3    H119825   0.742   1.211   3.786
 6628TIP3    H219826   0.743   1.148   3.923
 6629TIP3   OH219827   6.031   2.173   6.005
 6629TIP3    H119828   5.961   2.108   6.005
 6629TIP3    H219829   6.084   2.152   6.081
 6630TIP3   OH219830   6.364   5.833   0.586
 6630TIP3    H119831   6.273   5.825   0.556
 6630TIP3    H219832   6.364   5.790   0.672
 6631TIP3   OH219833   1.076   7.448   3.316
 6631TIP3    H119834   1.138   7.380   3.292
 6631TIP3    H219835   1.131   7.523   3.339
 6632TIP3   OH219836   7.605   3.171   5.976
 6632TIP3    H119837   7.652   3.109   6.032
 6632TIP3    H219838   7.513   3.154   5.993
 6633TIP3   OH219839   1.180   7.544   0.015
 6633TIP3    H119840   1.246   7.482   0.047
 6633TIP3    H219841   1.139   7.579   0.094
 6634TIP3   OH219842   4.719   1.932   0.870
 6634TIP3    H119843   4.670   2.013   0.885
 6634TIP3    H219844   4.744   1.903   0.957
 6635TIP3   OH219845   0.697   4.747   3.330
 6635TIP3    H119846   0.702   4.653   3.313
 6635TIP3    H219847   0.663   4.784   3.249
 6636TIP3   OH219848   5.025   2.765   1.200
 6636TIP3    H119849   4.968   2.722   1.137
 6636TIP3    H219850   4.973   2.839   1.233
 6637TIP3   OH219851   8.278   3.631   5.903
 6637TIP3    H119852   8.254   3.653   5.813
 6637TIP3    H219853   8.287   3.536   5.903
 6638TIP3   OH219854   7.929   1.655   4.752
 6638TIP3    H119855   7.922   1.631   4.844
 6638TIP3    H219856   7.901   1.747   4.749
 6639TIP3   OH219857   8.272   5.205   6.020
 6639TIP3    H119858   8.321   5.287   6.028
 6639TIP3    H219859   8.220   5.216   5.941
 6640TIP3   OH219860   7.707   2.014   3.348
 6640TIP3    H119861   7.654   2.042   3.273
 6640TIP3    H219862   7.649   2.021   3.423
 6641TIP3   OH219863   1.533   2.005   1.221
 6641TIP3    H119864   1.505   1.914   1.205
 6641TIP3    H219865   1.625   2.007   1.195
 6642TIP3   OH219866   0.095   3.328   5.414
 6642TIP3    H119867   0.070   3.269   5.343
 6642TIP3    H219868   0.057   3.288   5.492
 6643TIP3   OH219869   5.204   3.775   1.363
 6643TIP3    H119870   5.129   3.826   1.334
 6643TIP3    H219871   5.265   3.840   1.398
 6644TIP3   OH219872   6.951   7.650   2.809
 6644TIP3    H119873   6.884   7.613   2.866
 6644TIP3    H219874   7.033   7.611   2.839
 6645TIP3   OH219875   1.707   5.767   3.660
 6645TIP3    H119876   1.784   5.721   3.694
 6645TIP3    H219877   1.668   5.706   3.598
 6646TIP3   OH219878   3.707   2.968   4.001
 6646TIP3    H119879   3.700   2.923   3.917
 6646TIP3    H219880   3.765   2.912   4.053
 6647TIP3   OH219881   6.353   4.946   6.737
 6647TIP3    H119882   6.327   4.938   6.829
 6647TIP3    H219883   6.312   4.871   6.694
 6648TIP3   OH219884   2.437   5.843   1.878
 6648TIP3    H119885   2.528   5.843   1.849
 6648TIP3    H219886   2.386   5.856   1.798
 6649TIP3   OH219887   7.316   7.035   4.922
 6649TIP3    H119888   7.379   7.107   4.917
 6649TIP3    H219889   7.231   7.077   4.903
 6650TIP3   OH219890   1.138   0.110   6.633
 6650TIP3    H119891   1.232   0.111   6.651
 6650TIP3    H219892   1.104   0.184   6.681
 6651TIP3   OH219893   5.536   5.156   1.078
 6651TIP3    H119894   5.630   5.163   1.096
 6651TIP3    H219895   5.526   5.070   1.038
 6652TIP3   OH219896   2.065   4.806   1.915
 6652TIP3    H119897   2.154   4.780   1.940
 6652TIP3    H219898   2.078   4.871   1.846
 6653TIP3   OH219899   5.252   4.454   1.152
 6653TIP3    H119900   5.272   4.487   1.240
 6653TIP3    H219901   5.247   4.532   1.097
 6654TIP3   OH219902   0.314   6.604   2.816
 6654TIP3    H119903   0.289   6.663   2.887
 6654TIP3    H219904   0.245   6.539   2.813
 6655TIP3   OH219905   0.700   4.409   0.695
 6655TIP3    H119906   0.779   4.360   0.676
 6655TIP3    H219907   0.700   4.481   0.631
 6656TIP3   OH219908   4.431   7.561   5.840
 6656TIP3    H119909   4.410   7.586   5.750
 6656TIP3    H219910   4.503   7.618   5.864
 6657TIP3   OH219911   5.279   1.307   1.001
 6657TIP3    H119912   5.213   1.376   0.995
 6657TIP3    H219913   5.321   1.322   1.086
 6658TIP3   OH219914   0.431   1.807   0.708
 6658TIP3    H119915   0.468   1.887   0.672
 6658TIP3    H219916   0.338   1.827   0.723
 6659TIP3   OH219917   5.984   0.249   0.552
 6659TIP3    H119918   6.060   0.261   0.495
 6659TIP3    H219919   6.007   0.295   0.632
 6660TIP3   OH219920   2.950   7.635   2.786
 6660TIP3    H119921   3.013   7.569   2.757
 6660TIP3    H219922   2.987   7.670   2.867
 6661TIP3   OH219923   5.022   6.942   6.391
 6661TIP3    H119924   5.012   6.874   6.324
 6661TIP3    H219925   5.103   6.919   6.437
 6662TIP3   OH219926   0.490   5.792   0.164
 6662TIP3    H119927   0.536   5.857   0.112
 6662TIP3    H219928   0.550   5.773   0.237
 6663TIP3   OH219929   7.511   3.081   1.872
 6663TIP3    H119930   7.454   3.050   1.942
 6663TIP3    H219931   7.514   3.176   1.885
 6664TIP3   OH219932   5.454   2.597   3.449
 6664TIP3    H119933   5.481   2.616   3.538
 6664TIP3    H219934   5.475   2.504   3.437
 6665TIP3   OH219935   3.454   2.680   3.495
 6665TIP3    H119936   3.511   2.606   3.516
 6665TIP3    H219937   3.512   2.744   3.453
 6666TIP3   OH219938   5.504   7.631   4.282
 6666TIP3    H119939   5.562   7.659   4.211
 6666TIP3    H219940   5.555   7.565   4.330
 6667TIP3   OH219941   2.476   5.958   4.803
 6667TIP3    H119942   2.383   5.944   4.817
 6667TIP3    H219943   2.495   5.917   4.719
 6668TIP3   OH219944   0.143   6.439   4.161
 6668TIP3    H119945   0.230   6.463   4.129
 6668TIP3    H219946   0.087   6.511   4.132
 6669TIP3   OH219947   2.230   4.880   3.920
 6669TIP3    H119948   2.198   4.822   3.989
 6669TIP3    H219949   2.216   4.968   3.954
 6670TIP3   OH219950   5.526   4.106   1.652
 6670TIP3    H119951   5.616   4.076   1.645
 6670TIP3    H219952   5.520   4.143   1.740
 6671TIP3   OH219953   7.736   2.497   0.664
 6671TIP3    H119954   7.811   2.444   0.637
 6671TIP3    H219955   7.741   2.499   0.759
 6672TIP3   OH219956   0.631   5.144   0.046
 6672TIP3    H119957   0.602   5.206  -0.020
 6672TIP3    H219958   0.689   5.195   0.103
 6673TIP3   OH219959   2.004   4.321   0.516
 6673TIP3    H119960   2.048   4.251   0.467
 6673TIP3    H219961   2.075   4.376   0.548
 6674TIP3   OH219962   8.389   3.076   3.126
 6674TIP3    H119963   8.329   3.034   3.064
 6674TIP3    H219964   8.333   3.102   3.200
 6675TIP3   OH219965   6.938   0.999   2.052
 6675TIP3    H119966   6.901   1.079   2.015
 6675TIP3    H219967   6.914   1.002   2.145
 6676TIP3   OH219968   3.117   0.394   2.457
 6676TIP3    H119969   3.063   0.325   2.419
 6676TIP3    H219970   3.095   0.473   2.407
 6677TIP3   OH219971   4.862   6.712   0.809
 6677TIP3    H119972   4.817   6.642   0.858
 6677TIP3    H219973   4.916   6.665   0.745
 6678TIP3   OH219974   1.697   5.784   0.960
 6678TIP3    H119975   1.681   5.689   0.959
 6678TIP3    H219976   1.619   5.821   0.919
 6679TIP3   OH219977   1.290   1.095   4.471
 6679TIP3    H119978   1.306   1.092   4.565
 6679TIP3    H219979   1.374   1.119   4.433
 6680TIP3   OH219980   0.712   4.024   1.877
 6680TIP3    H119981   0.617   4.015   1.873
 6680TIP3    H219982   0.728   4.118   1.870
 6681TIP3   OH219983   4.460   1.180   3.851
 6681TIP3    H119984   4.494   1.154   3.937
 6681TIP3    H219985   4.410   1.259   3.868
 6682TIP3   OH219986   4.904   5.258   1.509
 6682TIP3    H119987   4.954   5.286   1.432
 6682TIP3    H219988   4.893   5.163   1.497
 6683TIP3   OH219989   5.343   4.720   6.171
 6683TIP3    H119990   5.390   4.652   6.123
 6683TIP3    H219991   5.250   4.699   6.157
 6684TIP3   OH219992   7.338   5.563   6.448
 6684TIP3    H119993   7.418   5.614   6.434
 6684TIP3    H219994   7.367   5.486   6.498
 6685TIP3   OH219995   0.658   2.779   4.960
 6685TIP3    H119996   0.586   2.725   4.994
 6685TIP3    H219997   0.680   2.838   5.031
 6686TIP3   OH219998   2.529   1.306   0.995
 6686TIP3    H119999   2.496   1.221   0.967
 6686TIP3    H220000   2.466   1.335   1.062
 6687TIP3   OH220001   0.186   1.959   0.666
 6687TIP3    H120002   0.237   1.993   0.593
 6687TIP3    H220003   0.117   2.024   0.679
 6688TIP3   OH220004   4.340   1.508   0.674
 6688TIP3    H120005   4.326   1.545   0.586
 6688TIP3    H220006   4.435   1.518   0.688
 6689TIP3   OH220007   7.662   7.351   2.050
 6689TIP3    H120008   7.746   7.385   2.020
 6689TIP3    H220009   7.672   7.256   2.048
 6690TIP3   OH220010   5.109   7.065   2.170
 6690TIP3    H120011   5.135   7.030   2.085
 6690TIP3    H220012   5.088   7.156   2.154
 6691TIP3   OH220013   5.937   5.536   6.418
 6691TIP3    H120014   5.932   5.593   6.495
 6691TIP3    H220015   5.846   5.522   6.393
 6692TIP3   OH220016   3.572   7.638   4.513
 6692TIP3    H120017   3.643   7.629   4.576
 6692TIP3    H220018   3.495   7.656   4.566
 6693TIP3   OH220019   4.992   0.234   5.300
 6693TIP3    H120020   4.905   0.202   5.323
 6693TIP3    H220021   5.011   0.194   5.215
 6694TIP3   OH220022   4.787   4.445   4.913
 6694TIP3    H120023   4.753   4.429   5.001
 6694TIP3    H220024   4.863   4.388   4.906
 6695TIP3   OH220025   5.263   3.201   3.485
 6695TIP3    H120026   5.175   3.235   3.500
 6695TIP3    H220027   5.250   3.127   3.425
 6696TIP3   OH220028   3.554   0.630   4.443
 6696TIP3    H120029   3.607   0.596   4.516
 6696TIP3    H220030   3.618   0.651   4.375
 6697TIP3   OH220031   4.358   6.458   3.540
 6697TIP3    H120032   4.419   6.470   3.613
 6697TIP3    H220033   4.297   6.391   3.571
 6698TIP3   OH220034   4.780   2.670   6.769
 6698TIP3    H120035   4.703   2.632   6.812
 6698TIP3    H220036   4.791   2.756   6.809
 6699TIP3   OH220037   5.768   7.896   1.288
 6699TIP3    H120038   5.738   7.962   1.351
 6699TIP3    H220039   5.745   7.812   1.329
 6700TIP3   OH220040   1.907   1.133   3.611
 6700TIP3    H120041   1.990   1.169   3.581
 6700TIP3    H220042   1.840   1.177   3.558
 6701TIP3   OH220043   2.935   4.703   4.479
 6701TIP3    H120044   3.004   4.765   4.501
 6701TIP3    H220045   2.869   4.714   4.548
 6702TIP3   OH220046   3.590   0.845   2.964
 6702TIP3    H120047   3.631   0.884   3.041
 6702TIP3    H220048   3.497   0.866   2.973
 6703TIP3   OH220049   2.982   4.232   6.751
 6703TIP3    H120050   2.903   4.205   6.705
 6703TIP3    H220051   3.036   4.274   6.684
 6704TIP3   OH220052   8.270   6.873   4.778
 6704TIP3    H120053   8.329   6.925   4.724
 6704TIP3    H220054   8.229   6.935   4.838
 6705TIP3   OH220055   8.306   3.658   0.771
 6705TIP3    H120056   8.219   3.636   0.804
 6705TIP3    H220057   8.320   3.749   0.797
 6706TIP3   OH220058   4.884   2.497   6.359
 6706TIP3    H120059   4.837   2.574   6.393
 6706TIP3    H220060   4.976   2.516   6.375
 6707TIP3   OH220061   5.753   2.495   5.578
 6707TIP3    H120062   5.839   2.492   5.619
 6707TIP3    H220063   5.735   2.588   5.566
 6708TIP3   OH220064   7.617   7.361   5.331
 6708TIP3    H120065   7.599   7.452   5.305
 6708TIP3    H220066   7.531   7.319   5.333
 6709TIP3   OH220067   4.679   4.745   3.992
 6709TIP3    H120068   4.584   4.738   3.980
 6709TIP3    H220069   4.700   4.674   4.053
 6710TIP3   OH220070   6.124   3.303   1.245
 6710TIP3    H120071   6.175   3.241   1.193
 6710TIP3    H220072   6.075   3.354   1.181
 6711TIP3   OH220073   5.217   3.466   2.482
 6711TIP3    H120074   5.292   3.516   2.449
 6711TIP3    H220075   5.166   3.529   2.532
 6712TIP3   OH220076   4.012   5.866   3.964
 6712TIP3    H120077   4.015   5.931   3.894
 6712TIP3    H220078   3.922   5.834   3.964
 6713TIP3   OH220079   7.371   3.366   6.353
 6713TIP3    H120080   7.303   3.415   6.306
 6713TIP3    H220081   7.331   3.281   6.370
 6714TIP3   OH220082   2.594   6.164   4.973
 6714TIP3    H120083   2.676   6.114   4.976
 6714TIP3    H220084   2.556   6.141   4.888
 6715TIP3   OH220085   0.846   6.758   3.648
 6715TIP3    H120086   0.940   6.745   3.632
 6715TIP3    H220087   0.805   6.744   3.563
 6716TIP3   OH220088   2.217   5.731   4.635
 6716TIP3    H120089   2.307   5.761   4.624
 6716TIP3    H220090   2.199   5.680   4.556
 6717TIP3   OH220091   3.671   3.537   4.797
 6717TIP3    H120092   3.687   3.547   4.891
 6717TIP3    H220093   3.581   3.569   4.785
 6718TIP3   OH220094   7.326   6.122   2.193
 6718TIP3    H120095   7.381   6.057   2.236
 6718TIP3    H220096   7.290   6.077   2.117
 6719TIP3   OH220097   2.205   0.966   2.912
 6719TIP3    H120098   2.255   0.927   2.840
 6719TIP3    H220099   2.256   1.043   2.936
 6720TIP3   OH220100   5.824   2.979   3.278
 6720TIP3    H120101   5.774   3.030   3.342
 6720TIP3    H220102   5.915   2.991   3.306
 6721TIP3   OH220103   3.434   5.315   2.960
 6721TIP3    H120104   3.375   5.363   3.018
 6721TIP3    H220105   3.376   5.259   2.908
 6722TIP3   OH220106   1.146   7.003   1.965
 6722TIP3    H120107   1.220   7.043   1.919
 6722TIP3    H220108   1.130   7.061   2.039
 6723TIP3   OH220109   1.218   6.059   0.358
 6723TIP3    H120110   1.284   6.115   0.317
 6723TIP3    H220111   1.170   6.022   0.284
 6724TIP3   OH220112   0.207   3.660   2.066
 6724TIP3    H120113   0.280   3.600   2.079
 6724TIP3    H220114   0.181   3.685   2.155
 6725TIP3   OH220115   0.002   6.460   1.959
 6725TIP3    H120116   0.024   6.473   2.051
 6725TIP3    H220117   0.007   6.547   1.920
 6726TIP3   OH220118   0.371   7.712   2.780
 6726TIP3    H120119   0.401   7.623   2.795
 6726TIP3    H220120   0.450   7.761   2.757
 6727TIP3   OH220121   5.239   2.995   4.257
 6727TIP3    H120122   5.144   2.990   4.241
 6727TIP3    H220123   5.265   3.076   4.213
 6728TIP3   OH220124   7.536   7.432   3.393
 6728TIP3    H120125   7.492   7.432   3.308
 6728TIP3    H220126   7.474   7.477   3.451
 6729TIP3   OH220127   8.101   5.295   1.487
 6729TIP3    H120128   8.195   5.283   1.498
 6729TIP3    H220129   8.088   5.390   1.486
 6730TIP3   OH220130   0.145   6.510   1.570
 6730TIP3    H120131   0.082   6.443   1.541
 6730TIP3    H220132   0.183   6.474   1.650
 6731TIP3   OH220133   5.917   6.362   0.074
 6731TIP3    H120134   5.997   6.310   0.086
 6731TIP3    H220135   5.846   6.300   0.093
 6732TIP3   OH220136   1.162   1.035   5.958
 6732TIP3    H120137   1.207   1.043   6.042
 6732TIP3    H220138   1.138   0.942   5.953
 6733TIP3   OH220139   6.679   4.048   2.550
 6733TIP3    H120140   6.666   3.995   2.472
 6733TIP3    H220141   6.689   4.138   2.517
 6734TIP3   OH220142   5.956   1.685   4.909
 6734TIP3    H120143   5.913   1.599   4.902
 6734TIP3    H220144   5.993   1.686   4.998
 6735TIP3   OH220145   1.411   0.202   1.226
 6735TIP3    H120146   1.407   0.107   1.230
 6735TIP3    H220147   1.486   0.221   1.168
 6736TIP3   OH220148   7.660   6.520   3.114
 6736TIP3    H120149   7.665   6.461   3.038
 6736TIP3    H220150   7.592   6.481   3.169
 6737TIP3   OH220151   3.392   6.293   3.808
 6737TIP3    H120152   3.416   6.201   3.821
 6737TIP3    H220153   3.371   6.325   3.895
 6738TIP3   OH220154   5.278   2.220   5.525
 6738TIP3    H120155   5.232   2.157   5.469
 6738TIP3    H220156   5.341   2.262   5.466
 6739TIP3   OH220157   4.534   0.581   1.380
 6739TIP3    H120158   4.547   0.587   1.474
 6739TIP3    H220159   4.519   0.672   1.353
 6740TIP3   OH220160   5.410   7.222   0.653
 6740TIP3    H120161   5.436   7.269   0.574
 6740TIP3    H220162   5.324   7.257   0.676
 6741TIP3   OH220163   2.149   4.558   3.618
 6741TIP3    H120164   2.130   4.504   3.694
 6741TIP3    H220165   2.094   4.636   3.629
 6742TIP3   OH220166   0.270   2.440   5.064
 6742TIP3    H120167   0.305   2.422   5.151
 6742TIP3    H220168   0.276   2.535   5.055
 6743TIP3   OH220169   2.805   1.976   0.131
 6743TIP3    H120170   2.760   1.894   0.113
 6743TIP3    H220171   2.808   1.982   0.227
 6744TIP3   OH220172   3.872   2.052   0.906
 6744TIP3    H120173   3.816   2.043   0.829
 6744TIP3    H220174   3.961   2.041   0.873
 6745TIP3   OH220175   7.472   0.414   4.965
 6745TIP3    H120176   7.427   0.407   5.049
 6745TIP3    H220177   7.431   0.347   4.910
 6746TIP3   OH220178   7.801   0.110   0.151
 6746TIP3    H120179   7.872   0.144   0.205
 6746TIP3    H220180   7.752   0.052   0.209
 6747TIP3   OH220181   6.366   0.760   2.604
 6747TIP3    H120182   6.419   0.804   2.670
 6747TIP3    H220183   6.276   0.789   2.622
 6748TIP3   OH220184   7.619   3.454   1.332
 6748TIP3    H120185   7.595   3.399   1.257
 6748TIP3    H220186   7.714   3.461   1.327
 6749TIP3   OH220187   7.041   3.821   1.573
 6749TIP3    H120188   6.998   3.880   1.511
 6749TIP3    H220189   7.030   3.734   1.534
 6750TIP3   OH220190   5.741   2.347   5.307
 6750TIP3    H120191   5.723   2.387   5.392
 6750TIP3    H220192   5.835   2.361   5.294
 6751TIP3   OH220193   0.035   1.626   5.188
 6751TIP3    H120194   0.047   1.541   5.146
 6751TIP3    H220195  -0.017   1.677   5.126
 6752TIP3   OH220196   3.764   6.516   6.135
 6752TIP3    H120197   3.765   6.603   6.095
 6752TIP3    H220198   3.818   6.525   6.214
 6753TIP3   OH220199   7.031   0.987   2.948
 6753TIP3    H120200   7.021   0.901   2.987
 6753TIP3    H220201   6.993   1.048   3.012
 6754TIP3   OH220202   6.173   6.450   4.886
 6754TIP3    H120203   6.230   6.373   4.882
 6754TIP3    H220204   6.107   6.433   4.819
 6755TIP3   OH220205   7.812   1.372   2.812
 6755TIP3    H120206   7.751   1.305   2.778
 6755TIP3    H220207   7.898   1.341   2.785
 6756TIP3   OH220208   5.624   1.398   1.028
 6756TIP3    H120209   5.716   1.424   1.021
 6756TIP3    H220210   5.587   1.420   0.943
 6757TIP3   OH220211   7.193   6.808   5.465
 6757TIP3    H120212   7.261   6.819   5.398
 6757TIP3    H220213   7.195   6.889   5.515
 6758TIP3   OH220214   4.113   7.278   0.426
 6758TIP3    H120215   4.077   7.239   0.506
 6758TIP3    H220216   4.121   7.371   0.446
 6759TIP3   OH220217   3.468   2.535   6.786
 6759TIP3    H120218   3.451   2.468   6.720
 6759TIP3    H220219   3.509   2.488   6.858
 6760TIP3   OH220220   1.250   0.569   0.724
 6760TIP3    H120221   1.175   0.628   0.734
 6760TIP3    H220222   1.272   0.543   0.813
 6761TIP3   OH220223   3.290   5.276   4.637
 6761TIP3    H120224   3.343   5.348   4.671
 6761TIP3    H220225   3.201   5.311   4.634
 6762TIP3   OH220226   6.375   6.410   4.070
 6762TIP3    H120227   6.383   6.315   4.075
 6762TIP3    H220228   6.294   6.425   4.022
 6763TIP3   OH220229   6.613   6.605   5.832
 6763TIP3    H120230   6.560   6.635   5.905
 6763TIP3    H220231   6.557   6.539   5.789
 6764TIP3   OH220232   4.476   5.237   3.210
 6764TIP3    H120233   4.454   5.151   3.174
 6764TIP3    H220234   4.401   5.259   3.265
 6765TIP3   OH220235   5.555   1.296   6.064
 6765TIP3    H120236   5.507   1.323   5.986
 6765TIP3    H220237   5.616   1.368   6.082
 6766TIP3   OH220238   6.734   2.917   0.014
 6766TIP3    H120239   6.759   2.949  -0.072
 6766TIP3    H220240   6.803   2.948   0.072
 6767TIP3   OH220241   7.178   5.308   0.825
 6767TIP3    H120242   7.221   5.261   0.753
 6767TIP3    H220243   7.226   5.391   0.832
 6768TIP3   OH220244   4.312   1.277   0.932
 6768TIP3    H120245   4.288   1.192   0.895
 6768TIP3    H220246   4.248   1.338   0.896
 6769TIP3   OH220247   4.938   5.036   2.999
 6769TIP3    H120248   4.957   4.942   3.003
 6769TIP3    H220249   4.864   5.042   2.939
 6770TIP3   OH220250   0.382   4.121   0.008
 6770TIP3    H120251   0.471   4.144   0.035
 6770TIP3    H220252   0.354   4.056   0.072
 6771TIP3   OH220253   4.422   6.410   0.902
 6771TIP3    H120254   4.474   6.330   0.892
 6771TIP3    H220255   4.421   6.426   0.996
 6772TIP3   OH220256   4.483   2.247   2.338
 6772TIP3    H120257   4.488   2.264   2.244
 6772TIP3    H220258   4.393   2.217   2.352
 6773TIP3   OH220259   1.796   2.642   3.928
 6773TIP3    H120260   1.876   2.599   3.899
 6773TIP3    H220261   1.741   2.570   3.959
 6774TIP3   OH220262   3.096   2.370   0.587
 6774TIP3    H120263   3.096   2.343   0.678
 6774TIP3    H220264   3.028   2.316   0.545
 6775TIP3   OH220265   1.477   4.628   2.666
 6775TIP3    H120266   1.443   4.558   2.611
 6775TIP3    H220267   1.533   4.584   2.729
 6776TIP3   OH220268   0.870   2.599   4.573
 6776TIP3    H120269   0.842   2.685   4.541
 6776TIP3    H220270   0.833   2.537   4.510
 6777TIP3   OH220271   1.101   3.944   0.885
 6777TIP3    H120272   1.163   3.998   0.934
 6777TIP3    H220273   1.122   3.854   0.911
 6778TIP3   OH220274   6.613   4.212   4.844
 6778TIP3    H120275   6.667   4.149   4.890
 6778TIP3    H220276   6.673   4.283   4.820
 6779TIP3   OH220277   0.282   3.322   4.723
 6779TIP3    H120278   0.317   3.411   4.731
 6779TIP3    H220279   0.358   3.269   4.697
 6780TIP3   OH220280   4.048   0.807   2.546
 6780TIP3    H120281   4.095   0.871   2.599
 6780TIP3    H220282   4.100   0.727   2.553
 6781TIP3   OH220283   6.070   6.597   5.311
 6781TIP3    H120284   6.153   6.641   5.326
 6781TIP3    H220285   6.011   6.666   5.280
 6782TIP3   OH220286   6.551   7.784   0.756
 6782TIP3    H120287   6.633   7.828   0.779
 6782TIP3    H220288   6.535   7.724   0.829
 6783TIP3   OH220289   2.441   3.107   4.544
 6783TIP3    H120290   2.440   3.171   4.615
 6783TIP3    H220291   2.437   3.022   4.589
 6784TIP3   OH220292   4.374   4.582   6.621
 6784TIP3    H120293   4.309   4.640   6.581
 6784TIP3    H220294   4.411   4.534   6.548
 6785TIP3   OH220295   1.989   1.967   1.438
 6785TIP3    H120296   2.073   1.988   1.397
 6785TIP3    H220297   1.965   2.046   1.487
 6786TIP3   OH220298   5.181   2.967   3.323
 6786TIP3    H120299   5.221   2.886   3.292
 6786TIP3    H220300   5.089   2.945   3.337
 6787TIP3   OH220301   4.018   7.696   1.922
 6787TIP3    H120302   3.979   7.780   1.897
 6787TIP3    H220303   4.074   7.673   1.848
 6788TIP3   OH220304   3.771   2.408   2.421
 6788TIP3    H120305   3.818   2.326   2.409
 6788TIP3    H220306   3.739   2.405   2.511
 6789TIP3   OH220307   5.272   7.657   5.896
 6789TIP3    H120308   5.352   7.612   5.924
 6789TIP3    H220309   5.207   7.588   5.886
 6790TIP3   OH220310   1.225   2.210   1.595
 6790TIP3    H120311   1.183   2.136   1.640
 6790TIP3    H220312   1.166   2.232   1.523
 6791TIP3   OH220313   6.721   5.999   1.210
 6791TIP3    H120314   6.753   5.921   1.164
 6791TIP3    H220315   6.629   6.004   1.186
 6792TIP3   OH220316   0.193   3.812   4.864
 6792TIP3    H120317   0.260   3.767   4.916
 6792TIP3    H220318   0.128   3.744   4.844
 6793TIP3   OH220319   2.517   0.355   1.589
 6793TIP3    H120320   2.432   0.398   1.592
 6793TIP3    H220321   2.532   0.338   1.496
 6794TIP3   OH220322   1.841   2.817   1.620
 6794TIP3    H120323   1.929   2.836   1.652
 6794TIP3    H220324   1.794   2.787   1.698
 6795TIP3   OH220325   5.622   1.126   4.841
 6795TIP3    H120326   5.666   1.082   4.913
 6795TIP3    H220327   5.602   1.213   4.874
 6796TIP3   OH220328   6.953   0.322   3.762
 6796TIP3    H120329   6.984   0.367   3.841
 6796TIP3    H220330   6.880   0.268   3.792
 6797TIP3   OH220331   5.420   5.027   3.610
 6797TIP3    H120332   5.338   5.038   3.657
 6797TIP3    H220333   5.488   5.029   3.677
 6798TIP3   OH220334   4.775   7.442   3.653
 6798TIP3    H120335   4.822   7.522   3.631
 6798TIP3    H220336   4.692   7.473   3.690
 6799TIP3   OH220337   2.318   0.322   2.836
 6799TIP3    H120338   2.250   0.256   2.820
 6799TIP3    H220339   2.400   0.276   2.821
 6800TIP3   OH220340   1.053   2.284   3.956
 6800TIP3    H120341   1.113   2.281   3.882
 6800TIP3    H220342   1.020   2.374   3.957
 6801TIP3   OH220343   4.066   1.022   2.110
 6801TIP3    H120344   4.066   1.008   2.015
 6801TIP3    H220345   4.062   0.934   2.147
 6802TIP3   OH220346   2.628   6.171   5.576
 6802TIP3    H120347   2.701   6.160   5.514
 6802TIP3    H220348   2.664   6.225   5.646
 6803TIP3   OH220349   7.392   6.787   0.180
 6803TIP3    H120350   7.364   6.879   0.186
 6803TIP3    H220351   7.477   6.790   0.138
 6804TIP3   OH220352   1.231   6.554   0.940
 6804TIP3    H120353   1.209   6.641   0.974
 6804TIP3    H220354   1.166   6.496   0.980
 6805TIP3   OH220355   6.142   7.380   1.228
 6805TIP3    H120356   6.111   7.322   1.297
 6805TIP3    H220357   6.220   7.422   1.265
 6806TIP3   OH220358   5.717   1.053   5.105
 6806TIP3    H120359   5.805   1.044   5.068
 6806TIP3    H220360   5.731   1.082   5.195
 6807TIP3   OH220361   3.711   5.872   5.305
 6807TIP3    H120362   3.625   5.914   5.312
 6807TIP3    H220363   3.749   5.882   5.392
 6808TIP3   OH220364   6.976   4.050   5.530
 6808TIP3    H120365   7.060   4.080   5.494
 6808TIP3    H220366   6.910   4.098   5.480
 6809TIP3   OH220367   1.911   2.306   5.261
 6809TIP3    H120368   1.844   2.277   5.200
 6809TIP3    H220369   1.981   2.241   5.251
 6810TIP3   OH220370   7.435   4.920   3.823
 6810TIP3    H120371   7.400   4.880   3.743
 6810TIP3    H220372   7.357   4.951   3.869
 6811TIP3   OH220373   7.239   2.788   3.826
 6811TIP3    H120374   7.290   2.864   3.853
 6811TIP3    H220375   7.166   2.825   3.777
 6812TIP3   OH220376   2.685   3.582   5.812
 6812TIP3    H120377   2.632   3.517   5.765
 6812TIP3    H220378   2.727   3.532   5.882
 6813TIP3   OH220379   5.273   6.669   4.603
 6813TIP3    H120380   5.285   6.600   4.668
 6813TIP3    H220381   5.278   6.624   4.519
 6814TIP3   OH220382   7.336   3.574   6.631
 6814TIP3    H120383   7.330   3.552   6.724
 6814TIP3    H220384   7.264   3.526   6.591
 6815TIP3   OH220385   5.944   3.682   3.241
 6815TIP3    H120386   5.989   3.618   3.186
 6815TIP3    H220387   5.857   3.690   3.203
 6816TIP3   OH220388   6.178   3.248   4.249
 6816TIP3    H120389   6.158   3.160   4.218
 6816TIP3    H220390   6.092   3.292   4.253
 6817TIP3   OH220391   6.200   1.028   3.241
 6817TIP3    H120392   6.252   0.963   3.195
 6817TIP3    H220393   6.193   1.102   3.180
 6818TIP3   OH220394   4.343   6.615   6.642
 6818TIP3    H120395   4.385   6.677   6.582
 6818TIP3    H220396   4.337   6.533   6.593
 6819TIP3   OH220397   3.399   0.277   4.914
 6819TIP3    H120398   3.335   0.293   4.845
 6819TIP3    H220399   3.355   0.217   4.975
 6820TIP3   OH220400   5.174   3.263   5.614
 6820TIP3    H120401   5.231   3.340   5.618
 6820TIP3    H220402   5.164   3.237   5.706
 6821TIP3   OH220403   0.531   1.654   5.823
 6821TIP3    H120404   0.579   1.707   5.760
 6821TIP3    H220405   0.599   1.610   5.874
 6822TIP3   OH220406   6.631   1.747   0.737
 6822TIP3    H120407   6.616   1.820   0.797
 6822TIP3    H220408   6.719   1.717   0.758
 6823TIP3   OH220409   3.602   0.900   5.265
 6823TIP3    H120410   3.573   0.879   5.176
 6823TIP3    H220411   3.621   0.993   5.263
 6824TIP3   OH220412   0.219   3.232   0.149
 6824TIP3    H120413   0.211   3.327   0.164
 6824TIP3    H220414   0.277   3.224   0.073
 6825TIP3   OH220415   3.503   0.850   2.016
 6825TIP3    H120416   3.589   0.853   1.974
 6825TIP3    H220417   3.521   0.870   2.108
 6826TIP3   OH220418   6.287   4.416   5.784
 6826TIP3    H120419   6.256   4.414   5.693
 6826TIP3    H220420   6.227   4.476   5.828
 6827TIP3   OH220421   5.420   3.979   6.642
 6827TIP3    H120422   5.447   4.067   6.671
 6827TIP3    H220423   5.329   3.990   6.614
 6828TIP3   OH220424   2.606   7.327   5.879
 6828TIP3    H120425   2.565   7.242   5.891
 6828TIP3    H220426   2.566   7.362   5.799
 6829TIP3   OH220427   2.640   6.092   2.035
 6829TIP3    H120428   2.624   6.165   1.975
 6829TIP3    H220429   2.553   6.053   2.050
 6830TIP3   OH220430   0.869   0.174   1.059
 6830TIP3    H120431   0.820   0.110   1.111
 6830TIP3    H220432   0.959   0.144   1.064
 6831TIP3   OH220433   6.014   5.108   4.824
 6831TIP3    H120434   6.015   5.107   4.920
 6831TIP3    H220435   6.060   5.188   4.800
 6832TIP3   OH220436   3.997   5.219   6.439
 6832TIP3    H120437   4.000   5.290   6.503
 6832TIP3    H220438   4.086   5.215   6.403
 6833TIP3   OH220439   6.023   0.567   6.080
 6833TIP3    H120440   5.962   0.507   6.035
 6833TIP3    H220441   6.020   0.539   6.172
 6834TIP3   OH220442   7.510   1.616   2.538
 6834TIP3    H120443   7.579   1.556   2.509
 6834TIP3    H220444   7.503   1.600   2.632
 6835TIP3   OH220445   3.781   7.640   3.946
 6835TIP3    H120446   3.803   7.715   4.001
 6835TIP3    H220447   3.732   7.581   4.003
 6836TIP3   OH220448   0.063   5.064   6.190
 6836TIP3    H120449   0.122   5.139   6.201
 6836TIP3    H220450   0.000   5.094   6.124
 6837TIP3   OH220451   0.299   1.855   3.568
 6837TIP3    H120452   0.271   1.771   3.603
 6837TIP3    H220453   0.392   1.861   3.590
 6838TIP3   OH220454   4.544   2.090   0.139
 6838TIP3    H120455   4.470   2.088   0.077
 6838TIP3    H220456   4.531   2.169   0.191
 6839TIP3   OH220457   2.995   7.499   5.378
 6839TIP3    H120458   3.082   7.533   5.362
 6839TIP3    H220459   2.974   7.447   5.300
 6840TIP3   OH220460   1.250   5.606   3.886
 6840TIP3    H120461   1.295   5.554   3.819
 6840TIP3    H220462   1.255   5.696   3.853
 6841TIP3   OH220463   8.184   3.248   2.630
 6841TIP3    H120464   8.137   3.296   2.698
 6841TIP3    H220465   8.131   3.171   2.612
 6842TIP3   OH220466   0.667   6.466   3.173
 6842TIP3    H120467   0.680   6.455   3.267
 6842TIP3    H220468   0.578   6.434   3.157
 6843TIP3   OH220469   0.338   7.270   4.978
 6843TIP3    H120470   0.305   7.346   4.930
 6843TIP3    H220471   0.297   7.277   5.065
 6844TIP3   OH220472   8.232   5.737   1.102
 6844TIP3    H120473   8.159   5.774   1.150
 6844TIP3    H220474   8.282   5.812   1.072
 6845TIP3   OH220475   3.924   2.163   3.429
 6845TIP3    H120476   3.864   2.108   3.479
 6845TIP3    H220477   4.000   2.108   3.413
 6846TIP3   OH220478   1.087   0.554   6.885
 6846TIP3    H120479   1.116   0.598   6.805
 6846TIP3    H220480   1.066   0.465   6.858
 6847TIP3   OH220481   6.524   2.530   2.898
 6847TIP3    H120482   6.494   2.566   2.981
 6847TIP3    H220483   6.447   2.531   2.842
 6848TIP3   OH220484   3.187   4.979   3.710
 6848TIP3    H120485   3.220   4.889   3.708
 6848TIP3    H220486   3.161   4.993   3.801
 6849TIP3   OH220487   2.405   6.331   3.305
 6849TIP3    H120488   2.451   6.255   3.341
 6849TIP3    H220489   2.360   6.369   3.380
 6850TIP3   OH220490   2.400   1.045   0.959
 6850TIP3    H120491   2.416   1.031   1.052
 6850TIP3    H220492   2.391   0.957   0.923
 6851TIP3   OH220493   8.070   4.909   6.335
 6851TIP3    H120494   7.975   4.903   6.334
 6851TIP3    H220495   8.089   5.000   6.311
 6852TIP3   OH220496   7.115   5.703   6.432
 6852TIP3    H120497   7.185   5.637   6.423
 6852TIP3    H220498   7.132   5.745   6.516
 6853TIP3   OH220499   7.513   6.108   5.102
 6853TIP3    H120500   7.445   6.174   5.117
 6853TIP3    H220501   7.570   6.148   5.036
 6854TIP3   OH220502   7.700   5.184   3.558
 6854TIP3    H120503   7.783   5.232   3.567
 6854TIP3    H220504   7.681   5.187   3.464
 6855TIP3   OH220505   1.673   1.653   2.845
 6855TIP3    H120506   1.707   1.568   2.872
 6855TIP3    H220507   1.611   1.677   2.914
 6856TIP3   OH220508   2.588   4.335   5.567
 6856TIP3    H120509   2.523   4.354   5.635
 6856TIP3    H220510   2.663   4.300   5.616
 6857TIP3   OH220511   0.043   0.125   1.506
 6857TIP3    H120512  -0.026   0.086   1.561
 6857TIP3    H220513   0.121   0.122   1.560
 6858TIP3   OH220514   6.452   0.146   1.270
 6858TIP3    H120515   6.406   0.230   1.263
 6858TIP3    H220516   6.386   0.081   1.247
 6859TIP3   OH220517   3.530   7.384   1.844
 6859TIP3    H120518   3.626   7.389   1.837
 6859TIP3    H220519   3.514   7.311   1.903
 6860TIP3   OH220520   6.910   1.510   0.481
 6860TIP3    H120521   6.833   1.515   0.425
 6860TIP3    H220522   6.982   1.537   0.425
 6861TIP3   OH220523   5.414   3.705   6.741
 6861TIP3    H120524   5.357   3.665   6.675
 6861TIP3    H220525   5.431   3.794   6.708
 6862TIP3   OH220526   3.545   6.861   1.096
 6862TIP3    H120527   3.622   6.916   1.112
 6862TIP3    H220528   3.579   6.772   1.091
 6863TIP3   OH220529   6.891   3.961   1.389
 6863TIP3    H120530   6.858   4.028   1.449
 6863TIP3    H220531   6.824   3.955   1.321
 6864TIP3   OH220532   8.353   2.576   6.212
 6864TIP3    H120533   8.425   2.518   6.189
 6864TIP3    H220534   8.342   2.633   6.136
 6865TIP3   OH220535   7.630   4.316   3.241
 6865TIP3    H120536   7.588   4.372   3.176
 6865TIP3    H220537   7.600   4.350   3.326
 6866TIP3   OH220538   4.565   6.526   0.645
 6866TIP3    H120539   4.544   6.518   0.738
 6866TIP3    H220540   4.641   6.468   0.633
 6867TIP3   OH220541   5.632   5.284   2.646
 6867TIP3    H120542   5.688   5.362   2.646
 6867TIP3    H220543   5.600   5.277   2.556
 6868TIP3   OH220544   7.938   5.885   4.036
 6868TIP3    H120545   7.964   5.823   3.967
 6868TIP3    H220546   7.986   5.965   4.015
 6869TIP3   OH220547   5.033   3.330   3.570
 6869TIP3    H120548   5.039   3.403   3.631
 6869TIP3    H220549   4.983   3.363   3.496
 6870TIP3   OH220550   7.361   1.982   1.315
 6870TIP3    H120551   7.423   1.959   1.384
 6870TIP3    H220552   7.417   2.003   1.240
 6871TIP3   OH220553   1.130   1.336   3.610
 6871TIP3    H120554   1.110   1.259   3.663
 6871TIP3    H220555   1.183   1.391   3.666
 6872TIP3   OH220556   4.080   7.501   6.531
 6872TIP3    H120557   4.101   7.595   6.528
 6872TIP3    H220558   4.034   7.490   6.613
 6873TIP3   OH220559   7.267   4.612   4.820
 6873TIP3    H120560   7.257   4.701   4.855
 6873TIP3    H220561   7.244   4.555   4.893
 6874TIP3   OH220562   1.353   4.694   1.492
 6874TIP3    H120563   1.310   4.717   1.574
 6874TIP3    H220564   1.343   4.599   1.485
 6875TIP3   OH220565   8.055   4.497   4.604
 6875TIP3    H120566   8.046   4.494   4.508
 6875TIP3    H220567   8.140   4.538   4.619
 6876TIP3   OH220568   2.709   1.602   4.750
 6876TIP3    H120569   2.781   1.581   4.690
 6876TIP3    H220570   2.655   1.523   4.751
 6877TIP3   OH220571   3.872   4.541   6.614
 6877TIP3    H120572   3.891   4.467   6.671
 6877TIP3    H220573   3.779   4.531   6.591
 6878TIP3   OH220574   3.998   7.744   4.577
 6878TIP3    H120575   4.037   7.797   4.647
 6878TIP3    H220576   3.983   7.805   4.506
 6879TIP3   OH220577   1.806   0.396   2.711
 6879TIP3    H120578   1.773   0.418   2.799
 6879TIP3    H220579   1.846   0.477   2.680
 6880TIP3   OH220580   7.951   0.971   4.290
 6880TIP3    H120581   7.876   1.030   4.286
 6880TIP3    H220582   8.027   1.029   4.292
 6881TIP3   OH220583   2.522   4.416   1.251
 6881TIP3    H120584   2.495   4.363   1.326
 6881TIP3    H220585   2.495   4.505   1.273
 6882TIP3   OH220586   5.155   3.970   4.777
 6882TIP3    H120587   5.135   3.983   4.684
 6882TIP3    H220588   5.080   3.921   4.811
 6883TIP3   OH220589   5.213   5.096   2.660
 6883TIP3    H120590   5.257   5.121   2.740
 6883TIP3    H220591   5.124   5.130   2.669
 6884TIP3   OH220592   1.833   5.012   6.636
 6884TIP3    H120593   1.751   5.026   6.685
 6884TIP3    H220594   1.901   5.015   6.703
 6885TIP3   OH220595   4.470   7.466   2.167
 6885TIP3    H120596   4.544   7.524   2.181
 6885TIP3    H220597   4.393   7.519   2.187
 6886TIP3   OH220598   0.869   0.920   0.420
 6886TIP3    H120599   0.810   0.936   0.346
 6886TIP3    H220600   0.876   0.825   0.425
 6887TIP3   OH220601   0.777   3.817   1.282
 6887TIP3    H120602   0.823   3.887   1.235
 6887TIP3    H220603   0.748   3.757   1.213
 6888TIP3   OH220604   5.669   7.036   5.719
 6888TIP3    H120605   5.678   7.071   5.807
 6888TIP3    H220606   5.754   7.052   5.677
 6889TIP3   OH220607   1.919   4.093   6.195
 6889TIP3    H120608   1.956   4.072   6.281
 6889TIP3    H220609   1.903   4.187   6.199
 6890TIP3   OH220610   1.683   5.317   0.736
 6890TIP3    H120611   1.643   5.230   0.733
 6890TIP3    H220612   1.686   5.339   0.829
 6891TIP3   OH220613   7.058   1.272   6.289
 6891TIP3    H120614   7.127   1.288   6.353
 6891TIP3    H220615   7.010   1.197   6.324
 6892TIP3   OH220616   5.726   0.656   1.810
 6892TIP3    H120617   5.801   0.698   1.852
 6892TIP3    H220618   5.654   0.719   1.820
 6893TIP3   OH220619   2.338   7.181   1.875
 6893TIP3    H120620   2.265   7.119   1.880
 6893TIP3    H220621   2.413   7.134   1.910
 6894TIP3   OH220622   0.828   5.595   4.893
 6894TIP3    H120623   0.773   5.669   4.918
 6894TIP3    H220624   0.847   5.549   4.975
 6895TIP3   OH220625   7.637   3.589   6.039
 6895TIP3    H120626   7.642   3.522   5.971
 6895TIP3    H220627   7.728   3.600   6.068
 6896TIP3   OH220628   5.772   2.422   3.273
 6896TIP3    H120629   5.774   2.517   3.290
 6896TIP3    H220630   5.709   2.412   3.202
 6897TIP3   OH220631   6.937   0.552   3.352
 6897TIP3    H120632   6.863   0.539   3.292
 6897TIP3    H220633   6.948   0.467   3.394
 6898TIP3   OH220634   3.195   1.243   5.520
 6898TIP3    H120635   3.135   1.261   5.448
 6898TIP3    H220636   3.191   1.322   5.574
 6899TIP3   OH220637   7.742   2.532   5.775
 6899TIP3    H120638   7.799   2.608   5.784
 6899TIP3    H220639   7.740   2.515   5.681
 6900TIP3   OH220640   3.565   7.260   4.325
 6900TIP3    H120641   3.570   7.199   4.252
 6900TIP3    H220642   3.591   7.344   4.287
 6901TIP3   OH220643   4.917   3.996   3.900
 6901TIP3    H120644   5.008   4.021   3.887
 6901TIP3    H220645   4.896   4.025   3.989
 6902TIP3   OH220646   6.234   3.310   0.574
 6902TIP3    H120647   6.276   3.325   0.659
 6902TIP3    H220648   6.239   3.216   0.560
 6903TIP3   OH220649   5.186   3.721   0.859
 6903TIP3    H120650   5.177   3.810   0.826
 6903TIP3    H220651   5.258   3.726   0.923
 6904TIP3   OH220652   5.914   2.758   1.286
 6904TIP3    H120653   5.870   2.833   1.246
 6904TIP3    H220654   5.854   2.730   1.356
 6905TIP3   OH220655   2.262   5.570   5.956
 6905TIP3    H120656   2.194   5.620   6.001
 6905TIP3    H220657   2.235   5.571   5.864
 6906TIP3   OH220658   5.912   1.072   0.802
 6906TIP3    H120659   5.839   1.051   0.859
 6906TIP3    H220660   5.937   0.989   0.762
 6907TIP3   OH220661   6.458   7.148   6.648
 6907TIP3    H120662   6.408   7.133   6.728
 6907TIP3    H220663   6.448   7.067   6.598
 6908TIP3   OH220664   4.187   0.731   5.275
 6908TIP3    H120665   4.110   0.783   5.300
 6908TIP3    H220666   4.231   0.712   5.358
 6909TIP3   OH220667   3.773   5.749   1.662
 6909TIP3    H120668   3.854   5.700   1.677
 6909TIP3    H220669   3.725   5.697   1.598
 6910TIP3   OH220670   6.998   3.091   1.934
 6910TIP3    H120671   7.019   2.999   1.947
 6910TIP3    H220672   7.059   3.138   1.990
 6911TIP3   OH220673   3.821   7.064   2.119
 6911TIP3    H120674   3.879   6.990   2.099
 6911TIP3    H220675   3.825   7.073   2.214
 6912TIP3   OH220676   6.963   6.734   2.886
 6912TIP3    H120677   6.994   6.825   2.885
 6912TIP3    H220678   7.041   6.682   2.901
 6913TIP3   OH220679   0.754   7.164   2.550
 6913TIP3    H120680   0.686   7.099   2.568
 6913TIP3    H220681   0.836   7.118   2.569
 6914TIP3   OH220682   1.823   0.792   5.166
 6914TIP3    H120683   1.834   0.714   5.112
 6914TIP3    H220684   1.861   0.863   5.113
 6915TIP3   OH220685   6.659   3.837   3.732
 6915TIP3    H120686   6.745   3.876   3.717
 6915TIP3    H220687   6.602   3.911   3.749
 6916TIP3   OH220688   6.648   6.938   1.588
 6916TIP3    H120689   6.558   6.968   1.599
 6916TIP3    H220690   6.641   6.864   1.528
 6917TIP3   OH220691   0.465   0.030   5.696
 6917TIP3    H120692   0.436   0.103   5.751
 6917TIP3    H220693   0.407   0.033   5.620
 6918TIP3   OH220694   3.820   3.639   5.023
 6918TIP3    H120695   3.806   3.731   5.042
 6918TIP3    H220696   3.905   3.636   4.978
 6919TIP3   OH220697   1.154   2.105   6.003
 6919TIP3    H120698   1.087   2.051   6.044
 6919TIP3    H220699   1.155   2.077   5.912
 6920TIP3   OH220700   7.110   1.222   1.687
 6920TIP3    H120701   7.197   1.254   1.661
 6920TIP3    H220702   7.122   1.189   1.776
 6921TIP3   OH220703   8.042   2.440   1.466
 6921TIP3    H120704   7.964   2.492   1.445
 6921TIP3    H220705   8.062   2.463   1.557
 6922TIP3   OH220706   5.170   2.356   0.996
 6922TIP3    H120707   5.178   2.429   1.057
 6922TIP3    H220708   5.182   2.278   1.051
 6923TIP3   OH220709   1.054   7.299   3.779
 6923TIP3    H120710   1.149   7.302   3.783
 6923TIP3    H220711   1.033   7.301   3.686
 6924TIP3   OH220712   5.135   7.829   0.417
 6924TIP3    H120713   5.053   7.793   0.383
 6924TIP3    H220714   5.131   7.922   0.394
 6925TIP3   OH220715   1.077   1.816   0.692
 6925TIP3    H120716   1.026   1.744   0.731
 6925TIP3    H220717   1.133   1.773   0.628
 6926TIP3   OH220718   5.868   6.272   4.958
 6926TIP3    H120719   5.822   6.188   4.959
 6926TIP3    H220720   5.872   6.300   5.049
 6927TIP3   OH220721   5.707   0.485   0.996
 6927TIP3    H120722   5.747   0.570   0.976
 6927TIP3    H220723   5.684   0.448   0.911
 6928TIP3   OH220724   4.933   5.206   2.645
 6928TIP3    H120725   4.839   5.197   2.632
 6928TIP3    H220726   4.944   5.290   2.690
 6929TIP3   OH220727   6.719   2.219   4.935
 6929TIP3    H120728   6.767   2.151   4.887
 6929TIP3    H220729   6.764   2.224   5.019
 6930TIP3   OH220730   0.652   6.303   0.215
 6930TIP3    H120731   0.649   6.397   0.195
 6930TIP3    H220732   0.726   6.293   0.275
 6931TIP3   OH220733   6.997   0.361   5.577
 6931TIP3    H120734   7.044   0.285   5.613
 6931TIP3    H220735   7.061   0.432   5.579
 6932TIP3   OH220736   0.774   0.978   4.914
 6932TIP3    H120737   0.697   1.033   4.932
 6932TIP3    H220738   0.824   0.980   4.996
 6933TIP3   OH220739   5.817   4.809   0.669
 6933TIP3    H120740   5.801   4.891   0.715
 6933TIP3    H220741   5.750   4.807   0.600
 6934TIP3   OH220742   4.804   5.694   2.576
 6934TIP3    H120743   4.873   5.698   2.511
 6934TIP3    H220744   4.850   5.693   2.660
 6935TIP3   OH220745   6.191   6.603   0.363
 6935TIP3    H120746   6.258   6.660   0.325
 6935TIP3    H220747   6.115   6.613   0.307
 6936TIP3   OH220748   1.039   7.350   2.581
 6936TIP3    H120749   0.970   7.416   2.576
 6936TIP3    H220750   1.079   7.349   2.494
 6937TIP3   OH220751   0.515   2.568   1.990
 6937TIP3    H120752   0.537   2.488   1.943
 6937TIP3    H220753   0.562   2.637   1.943
 6938TIP3   OH220754   7.997   0.195   4.429
 6938TIP3    H120755   8.062   0.265   4.433
 6938TIP3    H220756   8.020   0.137   4.501
 6939TIP3   OH220757   3.836   3.015   5.090
 6939TIP3    H120758   3.868   3.020   5.000
 6939TIP3    H220759   3.854   2.925   5.118
 6940TIP3   OH220760   0.845   4.972   5.012
 6940TIP3    H120761   0.811   4.911   5.077
 6940TIP3    H220762   0.794   4.955   4.933
 6941TIP3   OH220763   2.832   1.268   4.590
 6941TIP3    H120764   2.839   1.356   4.554
 6941TIP3    H220765   2.743   1.241   4.568
 6942TIP3   OH220766   6.775   2.942   4.789
 6942TIP3    H120767   6.705   2.884   4.820
 6942TIP3    H220768   6.765   2.943   4.694
 6943TIP3   OH220769   1.552   3.397   2.021
 6943TIP3    H120770   1.579   3.439   2.103
 6943TIP3    H220771   1.475   3.346   2.045
 6944TIP3   OH220772   5.281   5.860   3.448
 6944TIP3    H120773   5.275   5.801   3.523
 6944TIP3    H220774   5.324   5.938   3.483
 6945TIP3   OH220775   5.090   7.338   2.174
 6945TIP3    H120776   5.021   7.399   2.199
 6945TIP3    H220777   5.120   7.369   2.089
 6946TIP3   OH220778   0.118   1.584   6.529
 6946TIP3    H120779   0.139   1.513   6.469
 6946TIP3    H220780   0.203   1.617   6.558
 6947TIP3   OH220781   3.140   1.962   3.525
 6947TIP3    H120782   3.060   1.910   3.539
 6947TIP3    H220783   3.174   1.977   3.613
 6948TIP3   OH220784   6.064   4.339   1.879
 6948TIP3    H120785   6.151   4.313   1.848
 6948TIP3    H220786   6.078   4.421   1.925
 6949TIP3   OH220787   1.274   5.181   0.092
 6949TIP3    H120788   1.250   5.273   0.081
 6949TIP3    H220789   1.368   5.178   0.075
 6950TIP3   OH220790   3.638   2.226   5.553
 6950TIP3    H120791   3.603   2.261   5.471
 6950TIP3    H220792   3.688   2.149   5.526
 6951TIP3   OH220793   1.946   4.174   0.841
 6951TIP3    H120794   1.953   4.263   0.875
 6951TIP3    H220795   1.862   4.172   0.795
 6952TIP3   OH220796   1.381   1.745   2.038
 6952TIP3    H120797   1.407   1.833   2.066
 6952TIP3    H220798   1.387   1.747   1.943
 6953TIP3   OH220799   2.680   3.469   2.081
 6953TIP3    H120800   2.748   3.401   2.089
 6953TIP3    H220801   2.708   3.537   2.142
 6954TIP3   OH220802   6.741   5.928   2.301
 6954TIP3    H120803   6.649   5.955   2.305
 6954TIP3    H220804   6.790   6.003   2.334
 6955TIP3   OH220805   3.192   6.176   1.158
 6955TIP3    H120806   3.152   6.192   1.244
 6955TIP3    H220807   3.178   6.259   1.111
 6956TIP3   OH220808   3.322   0.813   0.584
 6956TIP3    H120809   3.306   0.783   0.494
 6956TIP3    H220810   3.402   0.865   0.577
 6957TIP3   OH220811   1.541   5.753   2.184
 6957TIP3    H120812   1.493   5.836   2.190
 6957TIP3    H220813   1.519   5.707   2.265
 6958TIP3   OH220814   5.452   7.467   2.968
 6958TIP3    H120815   5.397   7.490   2.893
 6958TIP3    H220816   5.486   7.551   2.999
 6959TIP3   OH220817   5.805   1.990   0.625
 6959TIP3    H120818   5.787   2.079   0.656
 6959TIP3    H220819   5.735   1.937   0.663
 6960TIP3   OH220820   0.950   4.201   3.082
 6960TIP3    H120821   0.904   4.233   3.005
 6960TIP3    H220822   1.009   4.273   3.106
 6961TIP3   OH220823   4.026   2.386   5.236
 6961TIP3    H120824   4.070   2.460   5.196
 6961TIP3    H220825   3.969   2.425   5.303
 6962TIP3   OH220826   1.208   1.608   1.056
 6962TIP3    H120827   1.178   1.698   1.062
 6962TIP3    H220828   1.250   1.601   0.970
 6963TIP3   OH220829   5.602   3.338   6.340
 6963TIP3    H120830   5.614   3.257   6.389
 6963TIP3    H220831   5.547   3.392   6.396
 6964TIP3   OH220832   0.089   6.880   3.386
 6964TIP3    H120833   0.091   6.892   3.291
 6964TIP3    H220834  -0.001   6.902   3.410
 6965TIP3   OH220835   5.588   2.389   0.661
 6965TIP3    H120836   5.615   2.455   0.596
 6965TIP3    H220837   5.633   2.416   0.742
 6966TIP3   OH220838   1.619   2.980   1.844
 6966TIP3    H120839   1.664   2.904   1.881
 6966TIP3    H220840   1.684   3.050   1.847
 6967TIP3   OH220841   7.638   3.090   4.293
 6967TIP3    H120842   7.716   3.055   4.251
 6967TIP3    H220843   7.565   3.046   4.248
 6968TIP3   OH220844   5.739   5.441   3.281
 6968TIP3    H120845   5.719   5.439   3.374
 6968TIP3    H220846   5.732   5.534   3.257
 6969TIP3   OH220847   5.961   4.495   5.707
 6969TIP3    H120848   5.945   4.569   5.649
 6969TIP3    H220849   6.007   4.531   5.783
 6970TIP3   OH220850   1.577   0.251   0.552
 6970TIP3    H120851   1.627   0.317   0.504
 6970TIP3    H220852   1.624   0.169   0.537
 6971TIP3   OH220853   5.498   4.904   6.068
 6971TIP3    H120854   5.449   4.838   6.117
 6971TIP3    H220855   5.448   4.917   5.988
 6972TIP3   OH220856   3.606   5.154   4.176
 6972TIP3    H120857   3.588   5.153   4.270
 6972TIP3    H220858   3.647   5.070   4.158
 6973TIP3   OH220859   8.014   4.800   1.139
 6973TIP3    H120860   8.062   4.716   1.138
 6973TIP3    H220861   7.937   4.782   1.192
 6974TIP3   OH220862   7.056   2.652   0.675
 6974TIP3    H120863   7.121   2.612   0.733
 6974TIP3    H220864   7.108   2.708   0.617
 6975TIP3   OH220865   4.270   2.760   6.129
 6975TIP3    H120866   4.214   2.796   6.197
 6975TIP3    H220867   4.327   2.832   6.102
 6976TIP3   OH220868   2.252   0.407   1.356
 6976TIP3    H120869   2.203   0.421   1.437
 6976TIP3    H220870   2.207   0.463   1.292
 6977TIP3   OH220871   6.956   7.074   3.934
 6977TIP3    H120872   6.924   7.138   3.998
 6977TIP3    H220873   6.946   7.117   3.850
 6978TIP3   OH220874   8.039   7.101   4.123
 6978TIP3    H120875   8.036   7.044   4.045
 6978TIP3    H220876   8.120   7.151   4.113
 6979TIP3   OH220877   4.831   7.603   5.013
 6979TIP3    H120878   4.763   7.665   5.039
 6979TIP3    H220879   4.859   7.633   4.926
 6980TIP3   OH220880   0.570   0.293   2.765
 6980TIP3    H120881   0.597   0.246   2.844
 6980TIP3    H220882   0.652   0.322   2.725
 6981TIP3   OH220883   8.255   0.383   4.487
 6981TIP3    H120884   8.216   0.462   4.523
 6981TIP3    H220885   8.314   0.351   4.556
 6982TIP3   OH220886   6.341   3.323   6.453
 6982TIP3    H120887   6.411   3.258   6.450
 6982TIP3    H220888   6.301   3.311   6.539
 6983TIP3   OH220889   4.533   4.515   2.134
 6983TIP3    H120890   4.467   4.474   2.079
 6983TIP3    H220891   4.573   4.581   2.078
 6984TIP3   OH220892   3.768   0.534   5.261
 6984TIP3    H120893   3.747   0.614   5.212
 6984TIP3    H220894   3.707   0.535   5.335
 6985TIP3   OH220895   2.336   6.388   3.567
 6985TIP3    H120896   2.369   6.375   3.656
 6985TIP3    H220897   2.246   6.357   3.569
 6986TIP3   OH220898   1.252   1.512   3.796
 6986TIP3    H120899   1.290   1.456   3.864
 6986TIP3    H220900   1.309   1.589   3.794
 6987TIP3   OH220901   6.744   2.101   6.825
 6987TIP3    H120902   6.715   2.117   6.735
 6987TIP3    H220903   6.818   2.161   6.837
 6988TIP3   OH220904   5.053   1.424   2.159
 6988TIP3    H120905   5.118   1.494   2.151
 6988TIP3    H220906   4.969   1.470   2.159
 6989TIP3   OH220907   1.611   3.121   6.134
 6989TIP3    H120908   1.609   3.066   6.212
 6989TIP3    H220909   1.702   3.119   6.105
 6990TIP3   OH220910   3.703   0.695   3.379
 6990TIP3    H120911   3.775   0.757   3.369
 6990TIP3    H220912   3.633   0.747   3.419
 6991TIP3   OH220913   2.914   4.536   1.916
 6991TIP3    H120914   2.865   4.600   1.863
 6991TIP3    H220915   2.907   4.570   2.006
 6992TIP3   OH220916   1.181   4.642   2.675
 6992TIP3    H120917   1.188   4.638   2.579
 6992TIP3    H220918   1.252   4.587   2.706
 6993TIP3   OH220919   6.995   5.963   3.226
 6993TIP3    H120920   6.932   6.033   3.246
 6993TIP3    H220921   7.063   5.972   3.293
 6994TIP3   OH220922   0.410   5.128   0.677
 6994TIP3    H120923   0.489   5.182   0.666
 6994TIP3    H220924   0.434   5.044   0.639
 6995TIP3   OH220925   1.643   6.890   6.809
 6995TIP3    H120926   1.600   6.974   6.825
 6995TIP3    H220927   1.713   6.886   6.874
 6996TIP3   OH220928   7.646   2.960   6.614
 6996TIP3    H120929   7.687   2.905   6.547
 6996TIP3    H220930   7.620   3.039   6.566
 6997TIP3   OH220931   0.871   3.007   1.834
 6997TIP3    H120932   0.858   2.929   1.779
 6997TIP3    H220933   0.933   3.061   1.784
 6998TIP3   OH220934   0.967   2.598   5.423
 6998TIP3    H120935   0.922   2.662   5.478
 6998TIP3    H220936   0.949   2.627   5.333
 6999TIP3   OH220937   2.211   4.842   6.005
 6999TIP3    H120938   2.144   4.832   6.073
 6999TIP3    H220939   2.201   4.933   5.976
 7000TIP3   OH220940   6.029   5.158   5.110
 7000TIP3    H120941   6.070   5.073   5.129
 7000TIP3    H220942   6.034   5.206   5.192
 7001TIP3   OH220943   5.045   0.655   1.648
 7001TIP3    H120944   5.059   0.748   1.668
 7001TIP3    H220945   5.047   0.612   1.734
 7002TIP3   OH220946   4.700   1.854   3.771
 7002TIP3    H120947   4.718   1.760   3.766
 7002TIP3    H220948   4.729   1.889   3.687
 7003TIP3   OH220949   1.644   5.355   1.819
 7003TIP3    H120950   1.692   5.398   1.890
 7003TIP3    H220951   1.554   5.386   1.828
 7004TIP3   OH220952   0.912   2.286   6.697
 7004TIP3    H120953   0.996   2.244   6.714
 7004TIP3    H220954   0.870   2.292   6.782
 7005TIP3   OH220955   3.548   6.874   2.223
 7005TIP3    H120956   3.613   6.814   2.186
 7005TIP3    H220957   3.464   6.841   2.192
 7006TIP3   OH220958   7.296   1.203   4.302
 7006TIP3    H120959   7.352   1.164   4.369
 7006TIP3    H220960   7.266   1.286   4.341
 7007TIP3   OH220961   3.792   7.772   6.472
 7007TIP3    H120962   3.844   7.692   6.462
 7007TIP3    H220963   3.857   7.840   6.492
 7008TIP3   OH220964   6.614   3.570   3.655
 7008TIP3    H120965   6.626   3.665   3.660
 7008TIP3    H220966   6.588   3.554   3.564
 7009TIP3   OH220967   6.301   7.415   0.797
 7009TIP3    H120968   6.354   7.483   0.756
 7009TIP3    H220969   6.216   7.421   0.753
 7010TIP3   OH220970   1.985   0.284   5.692
 7010TIP3    H120971   2.060   0.342   5.696
 7010TIP3    H220972   1.984   0.251   5.602
 7011TIP3   OH220973   5.829   2.298   1.404
 7011TIP3    H120974   5.804   2.263   1.318
 7011TIP3    H220975   5.749   2.296   1.456
 7012TIP3   OH220976   3.324   5.789   0.832
 7012TIP3    H120977   3.280   5.784   0.917
 7012TIP3    H220978   3.369   5.705   0.824
 7013TIP3   OH220979   2.206   0.602   4.018
 7013TIP3    H120980   2.239   0.681   4.062
 7013TIP3    H220981   2.166   0.635   3.938
 7014TIP3   OH220982   2.968   6.762   0.445
 7014TIP3    H120983   2.927   6.682   0.413
 7014TIP3    H220984   3.020   6.794   0.371
 7015TIP3   OH220985   7.496   0.267   4.452
 7015TIP3    H120986   7.468   0.354   4.423
 7015TIP3    H220987   7.590   0.265   4.437
 7016TIP3   OH220988   0.916   4.488   1.663
 7016TIP3    H120989   1.009   4.501   1.682
 7016TIP3    H220990   0.883   4.576   1.645
 7017TIP3   OH220991   5.012   5.272   1.832
 7017TIP3    H120992   5.096   5.230   1.813
 7017TIP3    H220993   5.013   5.285   1.927
 7018TIP3   OH220994   1.617   4.781   3.363
 7018TIP3    H120995   1.643   4.824   3.282
 7018TIP3    H220996   1.526   4.806   3.375
 7019TIP3   OH220997   3.466   6.718   4.993
 7019TIP3    H120998   3.556   6.686   4.998
 7019TIP3    H220999   3.469   6.788   4.928
 7020TIP3   OH221000   2.899   3.770   2.437
 7020TIP3    H121001   2.984   3.727   2.427
 7020TIP3    H221002   2.895   3.794   2.529
 7021TIP3   OH221003   2.648   2.583   1.724
 7021TIP3    H121004   2.715   2.527   1.765
 7021TIP3    H221005   2.674   2.589   1.632
 7022TIP3   OH221006   3.521   0.807   3.994
 7022TIP3    H121007   3.575   0.783   3.919
 7022TIP3    H221008   3.525   0.731   4.052
 7023TIP3   OH221009   5.585   2.700   0.085
 7023TIP3    H121010   5.621   2.788   0.093
 7023TIP3    H221011   5.656   2.648   0.050
 7024TIP3   OH221012   5.132   4.162   1.565
 7024TIP3    H121013   5.063   4.145   1.628
 7024TIP3    H221014   5.186   4.083   1.566
 7025TIP3   OH221015   8.060   1.455   1.713
 7025TIP3    H121016   8.003   1.488   1.783
 7025TIP3    H221017   8.001   1.442   1.639
 7026TIP3   OH221018   2.411   3.521   0.696
 7026TIP3    H121019   2.353   3.553   0.627
 7026TIP3    H221020   2.416   3.427   0.681
 7027TIP3   OH221021   3.791   2.202   0.422
 7027TIP3    H121022   3.742   2.125   0.394
 7027TIP3    H221023   3.787   2.261   0.348
 7028TIP3   OH221024   7.319   5.428   0.264
 7028TIP3    H121025   7.298   5.418   0.357
 7028TIP3    H221026   7.405   5.469   0.263
 7029TIP3   OH221027   3.620   7.080   4.632
 7029TIP3    H121028   3.552   7.130   4.677
 7029TIP3    H221029   3.695   7.140   4.627
 7030TIP3   OH221030   3.581   4.930   3.244
 7030TIP3    H121031   3.498   4.886   3.225
 7030TIP3    H221032   3.644   4.858   3.254
 7031TIP3   OH221033   7.037   1.685   2.617
 7031TIP3    H121034   7.095   1.746   2.571
 7031TIP3    H221035   7.068   1.599   2.591
 7032TIP3   OH221036   1.745   0.017   4.719
 7032TIP3    H121037   1.765  -0.003   4.810
 7032TIP3    H221038   1.781   0.105   4.705
 7033TIP3   OH221039   4.727   0.597   0.292
 7033TIP3    H121040   4.633   0.618   0.291
 7033TIP3    H221041   4.736   0.525   0.230
 7034TIP3   OH221042   7.955   5.329   2.436
 7034TIP3    H121043   7.956   5.360   2.526
 7034TIP3    H221044   8.046   5.307   2.416
 7035TIP3   OH221045   6.126   1.893   2.184
 7035TIP3    H121046   6.055   1.857   2.238
 7035TIP3    H221047   6.130   1.837   2.107
 7036TIP3   OH221048   2.893   3.989   0.135
 7036TIP3    H121049   2.817   4.003   0.080
 7036TIP3    H221050   2.968   4.002   0.077
 7037TIP3   OH221051   7.620   1.144   4.298
 7037TIP3    H121052   7.681   1.155   4.225
 7037TIP3    H221053   7.562   1.220   4.292
 7038TIP3   OH221054   7.089   3.506   1.013
 7038TIP3    H121055   7.089   3.419   1.053
 7038TIP3    H221056   7.032   3.558   1.069
 7039TIP3   OH221057   5.036   0.350   3.731
 7039TIP3    H121058   4.953   0.352   3.779
 7039TIP3    H221059   5.011   0.321   3.643
 7040TIP3   OH221060   3.758   7.633   0.869
 7040TIP3    H121061   3.830   7.588   0.826
 7040TIP3    H221062   3.778   7.726   0.860
 7041TIP3   OH221063   3.530   4.012   1.825
 7041TIP3    H121064   3.505   3.980   1.738
 7041TIP3    H221065   3.599   3.953   1.853
 7042TIP3   OH221066   1.162   1.449   4.226
 7042TIP3    H121067   1.067   1.456   4.229
 7042TIP3    H221068   1.190   1.448   4.317
 7043TIP3   OH221069   1.041   3.638   1.499
 7043TIP3    H121070   1.000   3.722   1.481
 7043TIP3    H221071   0.973   3.574   1.477
 7044TIP3   OH221072   5.796   3.388   2.203
 7044TIP3    H121073   5.887   3.402   2.177
 7044TIP3    H221074   5.755   3.350   2.126
 7045TIP3   OH221075   4.492   6.956   3.941
 7045TIP3    H121076   4.441   6.884   3.906
 7045TIP3    H221077   4.461   7.033   3.893
 7046TIP3   OH221078   0.878   6.955   0.241
 7046TIP3    H121079   0.929   6.932   0.164
 7046TIP3    H221080   0.942   6.962   0.311
 7047TIP3   OH221081   8.294   4.909   0.421
 7047TIP3    H121082   8.361   4.931   0.356
 7047TIP3    H221083   8.315   4.820   0.448
 7048TIP3   OH221084   5.863   2.504   5.016
 7048TIP3    H121085   5.906   2.484   5.098
 7048TIP3    H221086   5.769   2.496   5.036
 7049TIP3   OH221087   0.745   2.234   4.940
 7049TIP3    H121088   0.702   2.307   4.984
 7049TIP3    H221089   0.798   2.193   5.008
 7050TIP3   OH221090   0.295   7.874   4.457
 7050TIP3    H121091   0.270   7.794   4.504
 7050TIP3    H221092   0.328   7.843   4.373
 7051TIP3   OH221093   2.390   4.199   3.350
 7051TIP3    H121094   2.361   4.182   3.440
 7051TIP3    H221095   2.369   4.291   3.334
 7052TIP3   OH221096   2.809   0.502   2.542
 7052TIP3    H121097   2.812   0.418   2.587
 7052TIP3    H221098   2.758   0.559   2.599
 7053TIP3   OH221099   6.518   5.330   5.212
 7053TIP3    H121100   6.436   5.350   5.166
 7053TIP3    H221101   6.494   5.331   5.304
 7054TIP3   OH221102   2.682   5.192   4.996
 7054TIP3    H121103   2.657   5.285   4.991
 7054TIP3    H221104   2.775   5.194   5.017
 7055TIP3   OH221105   0.543   6.209   2.349
 7055TIP3    H121106   0.577   6.298   2.356
 7055TIP3    H221107   0.449   6.220   2.337
 7056TIP3   OH221108   4.106   7.177   4.265
 7056TIP3    H121109   4.093   7.255   4.211
 7056TIP3    H221110   4.032   7.177   4.325
 7057TIP3   OH221111   2.547   6.043   6.836
 7057TIP3    H121112   2.553   6.121   6.782
 7057TIP3    H221113   2.465   6.054   6.885
 7058TIP3   OH221114   1.818   5.382   6.763
 7058TIP3    H121115   1.855   5.301   6.798
 7058TIP3    H221116   1.811   5.439   6.840
 7059TIP3   OH221117   3.708   2.787   3.715
 7059TIP3    H121118   3.775   2.761   3.778
 7059TIP3    H221119   3.751   2.852   3.659
 7060TIP3   OH221120   5.147   4.630   0.619
 7060TIP3    H121121   5.106   4.682   0.550
 7060TIP3    H221122   5.134   4.683   0.699
 7061TIP3   OH221123   5.852   5.253   3.777
 7061TIP3    H121124   5.946   5.242   3.792
 7061TIP3    H221125   5.838   5.220   3.688
 7062TIP3   OH221126   4.470   0.093   5.784
 7062TIP3    H121127   4.522   0.045   5.720
 7062TIP3    H221128   4.419   0.155   5.731
 7063TIP3   OH221129   2.550   5.167   1.065
 7063TIP3    H121130   2.455   5.167   1.060
 7063TIP3    H221131   2.578   5.118   0.987
 7064TIP3   OH221132   1.329   0.533   3.287
 7064TIP3    H121133   1.358   0.597   3.222
 7064TIP3    H221134   1.237   0.554   3.302
 7065TIP3   OH221135   3.146   5.362   5.208
 7065TIP3    H121136   3.138   5.405   5.294
 7065TIP3    H221137   3.192   5.426   5.154
 7066TIP3   OH221138   7.867   7.553   4.574
 7066TIP3    H121139   7.859   7.620   4.642
 7066TIP3    H221140   7.886   7.603   4.494
 7067TIP3   OH221141   2.445   1.940   3.795
 7067TIP3    H121142   2.403   1.987   3.867
 7067TIP3    H221143   2.518   1.996   3.769
 7068TIP3   OH221144   0.106   7.352   1.077
 7068TIP3    H121145   0.085   7.352   1.171
 7068TIP3    H221146   0.062   7.273   1.043
 7069TIP3   OH221147   1.502   2.233   3.025
 7069TIP3    H121148   1.419   2.186   3.029
 7069TIP3    H221149   1.560   2.182   3.082
 7070TIP3   OH221150   0.422   2.911   1.982
 7070TIP3    H121151   0.509   2.894   2.017
 7070TIP3    H221152   0.369   2.837   2.012
 7071TIP3   OH221153   0.354   1.872   1.287
 7071TIP3    H121154   0.296   1.801   1.261
 7071TIP3    H221155   0.305   1.952   1.265
 7072TIP3   OH221156   7.731   2.433   6.049
 7072TIP3    H121157   7.752   2.442   5.956
 7072TIP3    H221158   7.724   2.523   6.081
 7073TIP3   OH221159   8.020   6.268   4.741
 7073TIP3    H121160   8.099   6.265   4.688
 7073TIP3    H221161   7.983   6.355   4.723
 7074TIP3   OH221162   2.650   1.032   0.339
 7074TIP3    H121163   2.729   1.063   0.383
 7074TIP3    H221164   2.601   0.986   0.408
 7075TIP3   OH221165   1.634   3.128   3.008
 7075TIP3    H121166   1.706   3.150   3.066
 7075TIP3    H221167   1.652   3.038   2.980
 7076TIP3   OH221168   2.626   0.743   4.240
 7076TIP3    H121169   2.608   0.649   4.232
 7076TIP3    H221170   2.644   0.771   4.150
 7077TIP3   OH221171   6.428   6.957   1.317
 7077TIP3    H121172   6.361   6.914   1.263
 7077TIP3    H221173   6.378   7.004   1.383
 7078TIP3   OH221174   4.532   2.697   3.431
 7078TIP3    H121175   4.576   2.748   3.498
 7078TIP3    H221176   4.603   2.649   3.387
 7079TIP3   OH221177   0.024   2.504   0.992
 7079TIP3    H121178   0.009   2.575   0.929
 7079TIP3    H221179  -0.029   2.431   0.960
 7080TIP3   OH221180   1.708   2.148   5.181
 7080TIP3    H121181   1.749   2.062   5.185
 7080TIP3    H221182   1.673   2.154   5.092
 7081TIP3   OH221183   4.992   6.535   0.650
 7081TIP3    H121184   5.077   6.495   0.633
 7081TIP3    H221185   4.942   6.467   0.696
 7082TIP3   OH221186   4.905   6.247   6.430
 7082TIP3    H121187   4.840   6.182   6.402
 7082TIP3    H221188   4.974   6.242   6.364
 7083TIP3   OH221189   7.030   6.944   4.703
 7083TIP3    H121190   7.042   6.849   4.704
 7083TIP3    H221191   7.118   6.979   4.692
 7084TIP3   OH221192   1.920   2.619   6.231
 7084TIP3    H121193   1.855   2.601   6.163
 7084TIP3    H221194   1.992   2.661   6.186
 7085TIP3   OH221195   6.343   2.966   0.206
 7085TIP3    H121196   6.416   2.919   0.246
 7085TIP3    H221197   6.384   3.038   0.158
 7086TIP3   OH221198   0.048   4.771   4.703
 7086TIP3    H121199   0.001   4.718   4.768
 7086TIP3    H221200   0.036   4.724   4.620
 7087TIP3   OH221201   6.998   5.726   4.764
 7087TIP3    H121202   6.999   5.741   4.859
 7087TIP3    H221203   6.911   5.754   4.736
 7088TIP3   OH221204   0.820   7.026   1.635
 7088TIP3    H121205   0.796   6.958   1.571
 7088TIP3    H221206   0.739   7.073   1.652
 7089TIP3   OH221207   5.555   4.150   3.449
 7089TIP3    H121208   5.594   4.074   3.491
 7089TIP3    H221209   5.627   4.213   3.441
 7090TIP3   OH221210   6.558   1.247   0.831
 7090TIP3    H121211   6.633   1.265   0.887
 7090TIP3    H221212   6.538   1.331   0.790
 7091TIP3   OH221213   2.472   4.970   0.575
 7091TIP3    H121214   2.439   4.880   0.573
 7091TIP3    H221215   2.536   4.974   0.504
 7092TIP3   OH221216   4.970   1.940   2.646
 7092TIP3    H121217   4.918   2.020   2.636
 7092TIP3    H221218   4.938   1.882   2.576
 7093TIP3   OH221219   3.771   5.454   5.980
 7093TIP3    H121220   3.761   5.369   6.024
 7093TIP3    H221221   3.772   5.433   5.887
 7094TIP3   OH221222   1.692   1.951   2.979
 7094TIP3    H121223   1.717   2.014   3.047
 7094TIP3    H221224   1.672   2.005   2.902
 7095TIP3   OH221225   1.568   4.300   4.392
 7095TIP3    H121226   1.637   4.242   4.422
 7095TIP3    H221227   1.487   4.254   4.412
 7096TIP3   OH221228   3.186   7.803   5.822
 7096TIP3    H121229   3.224   7.858   5.890
 7096TIP3    H221230   3.142   7.732   5.870
 7097TIP3   OH221231   3.737   6.685   5.044
 7097TIP3    H121232   3.780   6.752   5.098
 7097TIP3    H221233   3.757   6.603   5.087
 7098TIP3   OH221234   7.432   0.581   0.562
 7098TIP3    H121235   7.516   0.560   0.602
 7098TIP3    H221236   7.371   0.517   0.598
 7099TIP3   OH221237   3.501   1.804   1.510
 7099TIP3    H121238   3.418   1.851   1.522
 7099TIP3    H221239   3.535   1.793   1.598
 7100TIP3   OH221240   0.226   5.603   3.880
 7100TIP3    H121241   0.164   5.561   3.939
 7100TIP3    H221242   0.309   5.601   3.926
 7101TIP3   OH221243   7.216   0.540   2.346
 7101TIP3    H121244   7.201   0.445   2.338
 7101TIP3    H221245   7.161   0.579   2.278
 7102TIP3   OH221246   0.613   0.149   3.013
 7102TIP3    H121247   0.569   0.195   3.085
 7102TIP3    H221248   0.569   0.064   3.008
 7103TIP3   OH221249   1.717   5.835   0.205
 7103TIP3    H121250   1.677   5.870   0.285
 7103TIP3    H221251   1.644   5.794   0.158
 7104TIP3   OH221252   5.959   4.361   5.401
 7104TIP3    H121253   5.956   4.337   5.308
 7104TIP3    H221254   5.883   4.418   5.413
 7105TIP3   OH221255   6.752   5.205   4.364
 7105TIP3    H121256   6.693   5.130   4.358
 7105TIP3    H221257   6.779   5.221   4.273
 7106TIP3   OH221258   2.330   5.322   6.054
 7106TIP3    H121259   2.315   5.397   5.997
 7106TIP3    H221260   2.313   5.354   6.142
 7107TIP3   OH221261   7.177   1.155   3.862
 7107TIP3    H121262   7.254   1.177   3.914
 7107TIP3    H221263   7.126   1.096   3.917
 7108TIP3   OH221264   0.576   7.500   2.607
 7108TIP3    H121265   0.541   7.582   2.574
 7108TIP3    H221266   0.527   7.483   2.688
 7109TIP3   OH221267   6.966   5.580   2.851
 7109TIP3    H121268   7.037   5.573   2.787
 7109TIP3    H221269   6.993   5.651   2.909
 7110TIP3   OH221270   3.376   5.021   3.502
 7110TIP3    H121271   3.438   5.033   3.574
 7110TIP3    H221272   3.291   5.010   3.544
 7111TIP3   OH221273   2.497   7.026   5.906
 7111TIP3    H121274   2.592   7.023   5.889
 7111TIP3    H221275   2.461   6.955   5.852
 7112TIP3   OH221276   6.455   0.315   0.762
 7112TIP3    H121277   6.481   0.270   0.843
 7112TIP3    H221278   6.434   0.244   0.701
 7113TIP3   OH221279   3.567   2.252   4.618
 7113TIP3    H121280   3.554   2.270   4.711
 7113TIP3    H221281   3.624   2.323   4.588
 7114TIP3   OH221282   6.676   0.012   1.905
 7114TIP3    H121283   6.674   0.068   1.983
 7114TIP3    H221284   6.586  -0.021   1.897
 7115TIP3   OH221285   5.122   1.068   2.676
 7115TIP3    H121286   5.030   1.091   2.691
 7115TIP3    H221287   5.143   1.008   2.747
 7116TIP3   OH221288   8.404   5.447   0.659
 7116TIP3    H121289   8.351   5.523   0.682
 7116TIP3    H221290   8.413   5.398   0.741
 7117TIP3   OH221291   7.683   7.756   5.810
 7117TIP3    H121292   7.630   7.683   5.842
 7117TIP3    H221293   7.634   7.791   5.736
 7118TIP3   OH221294   4.324   1.927   4.889
 7118TIP3    H121295   4.294   1.942   4.799
 7118TIP3    H221296   4.262   1.863   4.925
 7119TIP3   OH221297   3.587   3.207   1.417
 7119TIP3    H121298   3.669   3.251   1.396
 7119TIP3    H221299   3.587   3.201   1.512
 7120TIP3   OH221300   5.349   3.790   5.755
 7120TIP3    H121301   5.354   3.797   5.850
 7120TIP3    H221302   5.418   3.849   5.723
 7121TIP3   OH221303   6.623   5.549   4.505
 7121TIP3    H121304   6.661   5.492   4.572
 7121TIP3    H221305   6.674   5.530   4.426
 7122TIP3   OH221306   2.545   5.840   3.263
 7122TIP3    H121307   2.463   5.877   3.231
 7122TIP3    H221308   2.604   5.845   3.187
 7123TIP3   OH221309   4.075   2.947   1.750
 7123TIP3    H121310   3.989   2.946   1.709
 7123TIP3    H221311   4.134   2.979   1.682
 7124TIP3   OH221312   4.676   7.213   6.762
 7124TIP3    H121313   4.634   7.230   6.678
 7124TIP3    H221314   4.619   7.148   6.805
 7125TIP3   OH221315   5.500   4.588   5.983
 7125TIP3    H121316   5.589   4.622   5.990
 7125TIP3    H221317   5.503   4.524   5.912
 7126TIP3   OH221318   5.017   3.601   6.253
 7126TIP3    H121319   5.069   3.677   6.278
 7126TIP3    H221320   5.039   3.586   6.161
 7127TIP3   OH221321   1.218   3.485   0.331
 7127TIP3    H121322   1.239   3.395   0.354
 7127TIP3    H221323   1.128   3.497   0.362
 7128TIP3   OH221324   2.831   4.965   1.969
 7128TIP3    H121325   2.760   4.976   2.032
 7128TIP3    H221326   2.823   5.040   1.911
 7129TIP3   OH221327   0.303   1.009   6.060
 7129TIP3    H121328   0.257   0.963   5.990
 7129TIP3    H221329   0.268   1.098   6.057
 7130TIP3   OH221330   5.849   7.355   4.837
 7130TIP3    H121331   5.901   7.364   4.917
 7130TIP3    H221332   5.894   7.288   4.786
 7131TIP3   OH221333   0.393   0.229   5.870
 7131TIP3    H121334   0.357   0.241   5.958
 7131TIP3    H221335   0.424   0.316   5.845
 7132TIP3   OH221336   0.201   7.329   3.371
 7132TIP3    H121337   0.248   7.295   3.447
 7132TIP3    H221338   0.112   7.296   3.380
 7133TIP3   OH221339   2.236   5.676   1.033
 7133TIP3    H121340   2.214   5.746   1.094
 7133TIP3    H221341   2.207   5.709   0.948
 7134TIP3   OH221342   1.119   2.056   0.794
 7134TIP3    H121343   1.114   2.116   0.720
 7134TIP3    H221344   1.100   1.970   0.757
 7135TIP3   OH221345   1.563   5.249   1.585
 7135TIP3    H121346   1.582   5.287   1.671
 7135TIP3    H221347   1.471   5.222   1.591
 7136TIP3   OH221348   4.884   5.761   3.751
 7136TIP3    H121349   4.955   5.733   3.693
 7136TIP3    H221350   4.927   5.818   3.815
 7137TIP3   OH221351   1.427   3.263   1.295
 7137TIP3    H121352   1.374   3.192   1.260
 7137TIP3    H221353   1.479   3.222   1.364
 7138TIP3   OH221354   3.023   6.483   2.511
 7138TIP3    H121355   2.994   6.469   2.421
 7138TIP3    H221356   3.089   6.415   2.526
 7139TIP3   OH221357   3.832   3.679   5.380
 7139TIP3    H121358   3.778   3.758   5.379
 7139TIP3    H221359   3.888   3.688   5.303
 7140TIP3   OH221360   1.153   1.528   4.491
 7140TIP3    H121361   1.155   1.471   4.568
 7140TIP3    H221362   1.218   1.596   4.509
 7141TIP3   OH221363   2.094   6.784   6.420
 7141TIP3    H121364   2.130   6.855   6.474
 7141TIP3    H221365   2.163   6.765   6.356
 7142TIP3   OH221366   1.344   7.871   3.558
 7142TIP3    H121367   1.274   7.912   3.609
 7142TIP3    H221368   1.379   7.942   3.504
 7143TIP3   OH221369   7.551   4.865   4.208
 7143TIP3    H121370   7.639   4.884   4.176
 7143TIP3    H221371   7.527   4.784   4.164
 7144TIP3   OH221372   3.642   1.050   5.854
 7144TIP3    H121373   3.606   0.997   5.925
 7144TIP3    H221374   3.594   1.021   5.776
 7145TIP3   OH221375   2.531   5.029   6.346
 7145TIP3    H121376   2.446   5.031   6.301
 7145TIP3    H221377   2.543   4.937   6.369
 7146TIP3   OH221378   5.282   7.444   0.507
 7146TIP3    H121379   5.218   7.404   0.449
 7146TIP3    H221380   5.310   7.524   0.461
 7147TIP3   OH221381   0.626   2.873   1.427
 7147TIP3    H121382   0.598   2.965   1.426
 7147TIP3    H221383   0.587   2.837   1.507
 7148TIP3   OH221384   7.108   6.163   3.674
 7148TIP3    H121385   7.192   6.124   3.650
 7148TIP3    H221386   7.048   6.134   3.606
 7149TIP3   OH221387   2.743   7.488   6.072
 7149TIP3    H121388   2.809   7.535   6.020
 7149TIP3    H221389   2.708   7.422   6.012
 7150TIP3   OH221390   6.656   0.450   4.925
 7150TIP3    H121391   6.709   0.522   4.959
 7150TIP3    H221392   6.579   0.447   4.983
 7151TIP3   OH221393   6.254   6.649   2.029
 7151TIP3    H121394   6.187   6.700   2.075
 7151TIP3    H221395   6.276   6.578   2.090
 7152TIP3   OH221396   0.266   4.531   3.009
 7152TIP3    H121397   0.188   4.486   3.040
 7152TIP3    H221398   0.319   4.544   3.088
 7153TIP3   OH221399   3.110   2.076   5.141
 7153TIP3    H121400   3.114   2.002   5.203
 7153TIP3    H221401   3.154   2.044   5.062
 7154TIP3   OH221402   0.541   0.958   4.164
 7154TIP3    H121403   0.594   0.890   4.123
 7154TIP3    H221404   0.606   1.022   4.196
 7155TIP3   OH221405   1.694   2.560   5.017
 7155TIP3    H121406   1.687   2.609   4.936
 7155TIP3    H221407   1.687   2.626   5.086
 7156TIP3   OH221408   7.920   1.706   2.461
 7156TIP3    H121409   7.985   1.658   2.410
 7156TIP3    H221410   7.838   1.659   2.445
 7157TIP3   OH221411   0.617   4.877   1.975
 7157TIP3    H121412   0.536   4.895   1.928
 7157TIP3    H221413   0.590   4.860   2.066
 7158TIP3   OH221414   3.845   5.958   4.274
 7158TIP3    H121415   3.890   6.016   4.213
 7158TIP3    H221416   3.900   5.957   4.352
 7159TIP3   OH221417   7.308   3.782   1.643
 7159TIP3    H121418   7.304   3.860   1.697
 7159TIP3    H221419   7.221   3.776   1.603
 7160TIP3   OH221420   7.502   5.556   5.747
 7160TIP3    H121421   7.418   5.596   5.722
 7160TIP3    H221422   7.504   5.563   5.842
 7161TIP3   OH221423   1.397   4.780   2.993
 7161TIP3    H121424   1.389   4.810   2.902
 7161TIP3    H221425   1.455   4.844   3.034
 7162TIP3   OH221426   4.008   1.137   6.274
 7162TIP3    H121427   3.960   1.055   6.262
 7162TIP3    H221428   4.091   1.124   6.228
 7163TIP3   OH221429   4.311   5.486   4.386
 7163TIP3    H121430   4.245   5.551   4.362
 7163TIP3    H221431   4.297   5.471   4.480
 7164TIP3   OH221432   7.976   4.556   1.511
 7164TIP3    H121433   8.023   4.631   1.549
 7164TIP3    H221434   8.028   4.531   1.435
 7165TIP3   OH221435   1.666   6.885   1.783
 7165TIP3    H121436   1.616   6.811   1.816
 7165TIP3    H221437   1.660   6.877   1.688
 7166TIP3   OH221438   2.569   2.575   0.633
 7166TIP3    H121439   2.665   2.577   0.628
 7166TIP3    H221440   2.541   2.548   0.546
 7167TIP3   OH221441   5.270   5.930   2.531
 7167TIP3    H121442   5.182   5.906   2.560
 7167TIP3    H221443   5.255   5.985   2.454
 7168TIP3   OH221444   2.780   0.487   6.671
 7168TIP3    H121445   2.854   0.427   6.662
 7168TIP3    H221446   2.788   0.523   6.759
 7169TIP3   OH221447   4.514   6.100   1.423
 7169TIP3    H121448   4.423   6.081   1.401
 7169TIP3    H221449   4.526   6.065   1.511
 7170TIP3   OH221450   5.979   0.266   2.706
 7170TIP3    H121451   5.969   0.269   2.801
 7170TIP3    H221452   6.009   0.177   2.688
 7171TIP3   OH221453   0.962   7.210   4.324
 7171TIP3    H121454   1.000   7.149   4.261
 7171TIP3    H221455   0.878   7.171   4.348
 7172TIP3   OH221456   3.615   6.576   5.420
 7172TIP3    H121457   3.540   6.522   5.397
 7172TIP3    H221458   3.666   6.582   5.339
 7173TIP3   OH221459   5.920   2.552   2.985
 7173TIP3    H121460   5.930   2.583   3.075
 7173TIP3    H221461   5.966   2.468   2.984
 7174TIP3   OH221462   4.595   2.560   2.533
 7174TIP3    H121463   4.638   2.555   2.447
 7174TIP3    H221464   4.514   2.511   2.521
 7175TIP3   OH221465   5.871   2.069   4.352
 7175TIP3    H121466   5.923   2.149   4.345
 7175TIP3    H221467   5.787   2.098   4.388
 7176TIP3   OH221468   1.155   4.447   0.712
 7176TIP3    H121469   1.077   4.502   0.706
 7176TIP3    H221470   1.220   4.490   0.655
 7177TIP3   OH221471   7.320   4.038   1.762
 7177TIP3    H121472   7.248   4.076   1.812
 7177TIP3    H221473   7.398   4.052   1.816
 7178TIP3   OH221474   0.269   6.734   3.060
 7178TIP3    H121475   0.179   6.765   3.074
 7178TIP3    H221476   0.309   6.737   3.147
 7179TIP3   OH221477   7.989   7.349   0.503
 7179TIP3    H121478   8.040   7.421   0.541
 7179TIP3    H221479   8.055   7.289   0.469
 7180TIP3   OH221480   2.210   1.546   0.286
 7180TIP3    H121481   2.129   1.580   0.248
 7180TIP3    H221482   2.271   1.540   0.213
 7181TIP3   OH221483   4.585   6.636   4.579
 7181TIP3    H121484   4.513   6.575   4.563
 7181TIP3    H221485   4.550   6.721   4.552
 7182TIP3   OH221486   4.909   4.941   0.370
 7182TIP3    H121487   4.927   5.025   0.413
 7182TIP3    H221488   4.850   4.895   0.430
 7183TIP3   OH221489   4.429   3.543   6.082
 7183TIP3    H121490   4.392   3.481   6.019
 7183TIP3    H221491   4.447   3.622   6.030
 7184TIP3   OH221492   3.439   3.359   4.956
 7184TIP3    H121493   3.413   3.452   4.956
 7184TIP3    H221494   3.533   3.361   4.977
 7185TIP3   OH221495   7.796   1.085   2.452
 7185TIP3    H121496   7.829   1.165   2.412
 7185TIP3    H221497   7.745   1.114   2.527
 7186TIP3   OH221498   1.781   6.780   6.325
 7186TIP3    H121499   1.751   6.690   6.310
 7186TIP3    H221500   1.840   6.773   6.400
 7187TIP3   OH221501   1.020   5.637   1.004
 7187TIP3    H121502   1.054   5.585   1.076
 7187TIP3    H221503   0.978   5.712   1.046
 7188TIP3   OH221504   7.220   1.510   1.887
 7188TIP3    H121505   7.183   1.596   1.870
 7188TIP3    H221506   7.307   1.513   1.846
 7189TIP3   OH221507   3.512   0.681   6.514
 7189TIP3    H121508   3.497   0.653   6.605
 7189TIP3    H221509   3.465   0.616   6.462
 7190TIP3   OH221510   4.784   4.574   6.854
 7190TIP3    H121511   4.841   4.639   6.813
 7190TIP3    H221512   4.749   4.523   6.781
 7191TIP3   OH221513   0.373   3.259   5.805
 7191TIP3    H121514   0.297   3.200   5.807
 7191TIP3    H221515   0.430   3.222   5.738
 7192TIP3   OH221516   2.567   7.783   2.798
 7192TIP3    H121517   2.590   7.691   2.805
 7192TIP3    H221518   2.507   7.788   2.724
 7193TIP3   OH221519   6.627   2.885   5.224
 7193TIP3    H121520   6.608   2.969   5.265
 7193TIP3    H221521   6.555   2.872   5.162
 7194TIP3   OH221522   7.602   4.668   5.257
 7194TIP3    H121523   7.697   4.677   5.261
 7194TIP3    H221524   7.586   4.620   5.175
 7195TIP3   OH221525   0.813   2.397   1.643
 7195TIP3    H121526   0.814   2.441   1.727
 7195TIP3    H221527   0.904   2.371   1.628
 7196TIP3   OH221528   0.678   2.659   2.935
 7196TIP3    H121529   0.660   2.752   2.921
 7196TIP3    H221530   0.662   2.645   3.028
 7197TIP3   OH221531   6.255   1.730   0.785
 7197TIP3    H121532   6.203   1.650   0.789
 7197TIP3    H221533   6.218   1.787   0.852
 7198TIP3   OH221534   6.512   1.327   3.550
 7198TIP3    H121535   6.547   1.244   3.581
 7198TIP3    H221536   6.491   1.375   3.630
 7199TIP3   OH221537   2.814   7.062   1.336
 7199TIP3    H121538   2.893   7.109   1.362
 7199TIP3    H221539   2.743   7.125   1.348
 7200TIP3   OH221540   8.211   4.492   2.373
 7200TIP3    H121541   8.194   4.400   2.394
 7200TIP3    H221542   8.254   4.489   2.287
 7201TIP3   OH221543   8.167   7.902   4.343
 7201TIP3    H121544   8.186   7.812   4.368
 7201TIP3    H221545   8.085   7.898   4.295
 7202TIP3   OH221546   7.785   2.993   1.705
 7202TIP3    H121547   7.777   3.076   1.752
 7202TIP3    H221548   7.854   3.008   1.640
 7203TIP3   OH221549   6.095   3.082   0.091
 7203TIP3    H121550   6.150   3.007   0.070
 7203TIP3    H221551   6.031   3.048   0.154
 7204TIP3   OH221552   1.391   6.135   2.727
 7204TIP3    H121553   1.315   6.174   2.683
 7204TIP3    H221554   1.408   6.055   2.678
 7205TIP3   OH221555   1.296   6.083   5.726
 7205TIP3    H121556   1.217   6.061   5.776
 7205TIP3    H221557   1.368   6.069   5.787
 7206TIP3   OH221558   5.262   4.392   1.540
 7206TIP3    H121559   5.203   4.319   1.561
 7206TIP3    H221560   5.333   4.353   1.490
 7207TIP3   OH221561   7.936   1.978   5.187
 7207TIP3    H121562   8.000   2.024   5.242
 7207TIP3    H221563   7.980   1.899   5.159
 7208TIP3   OH221564   2.034   1.689   4.742
 7208TIP3    H121565   2.081   1.647   4.815
 7208TIP3    H221566   2.044   1.782   4.759
 7209TIP3   OH221567   2.955   2.308   3.780
 7209TIP3    H121568   2.872   2.346   3.750
 7209TIP3    H221569   2.943   2.213   3.770
 7210TIP3   OH221570   4.159   5.620   6.351
 7210TIP3    H121571   4.145   5.580   6.437
 7210TIP3    H221572   4.175   5.712   6.370
 7211TIP3   OH221573   2.002   0.891   2.374
 7211TIP3    H121574   2.018   0.912   2.466
 7211TIP3    H221575   1.912   0.920   2.359
 7212TIP3   OH221576   1.525   1.224   1.719
 7212TIP3    H121577   1.525   1.310   1.762
 7212TIP3    H221578   1.610   1.186   1.742
 7213TIP3   OH221579   6.147   1.964   1.417
 7213TIP3    H121580   6.213   1.895   1.429
 7213TIP3    H221581   6.170   2.004   1.333
 7214TIP3   OH221582   0.723   3.821   4.046
 7214TIP3    H121583   0.657   3.819   3.976
 7214TIP3    H221584   0.780   3.747   4.028
 7215TIP3   OH221585   0.433   2.246   3.718
 7215TIP3    H121586   0.446   2.216   3.627
 7215TIP3    H221587   0.521   2.248   3.755
 7216TIP3   OH221588   2.131   1.206   5.747
 7216TIP3    H121589   2.041   1.229   5.724
 7216TIP3    H221590   2.179   1.210   5.664
 7217TIP3   OH221591   4.503   3.941   4.132
 7217TIP3    H121592   4.424   3.942   4.186
 7217TIP3    H221593   4.471   3.936   4.042
 7218TIP3   OH221594   2.288   6.470   6.194
 7218TIP3    H121595   2.279   6.485   6.288
 7218TIP3    H221596   2.261   6.553   6.154
 7219TIP3   OH221597   4.152   5.727   0.073
 7219TIP3    H121598   4.102   5.654   0.037
 7219TIP3    H221599   4.210   5.688   0.137
 7220TIP3   OH221600   4.662   3.074   1.100
 7220TIP3    H121601   4.710   3.115   1.172
 7220TIP3    H221602   4.729   3.025   1.052
 7221TIP3   OH221603   0.520   0.758   3.865
 7221TIP3    H121604   0.523   0.705   3.786
 7221TIP3    H221605   0.606   0.799   3.871
 7222TIP3   OH221606   0.721   7.096   4.324
 7222TIP3    H121607   0.651   7.033   4.340
 7222TIP3    H221608   0.713   7.118   4.231
 7223TIP3   OH221609   6.611   0.773   5.519
 7223TIP3    H121610   6.651   0.857   5.494
 7223TIP3    H221611   6.685   0.719   5.547
 7224TIP3   OH221612   5.582   4.677   0.415
 7224TIP3    H121613   5.553   4.705   0.502
 7224TIP3    H221614   5.638   4.602   0.431
 7225TIP3   OH221615   7.596   4.927   4.744
 7225TIP3    H121616   7.617   4.926   4.838
 7225TIP3    H221617   7.564   5.016   4.728
 7226TIP3   OH221618   7.216   5.912   2.780
 7226TIP3    H121619   7.200   5.923   2.687
 7226TIP3    H221620   7.297   5.861   2.785
 7227TIP3   OH221621   5.024   1.659   2.488
 7227TIP3    H121622   5.066   1.619   2.564
 7227TIP3    H221623   5.090   1.657   2.419
 7228TIP3   OH221624   4.738   1.765   3.190
 7228TIP3    H121625   4.738   1.847   3.142
 7228TIP3    H221626   4.806   1.776   3.256
 7229TIP3   OH221627   1.144   0.529   1.020
 7229TIP3    H121628   1.117   0.513   1.111
 7229TIP3    H221629   1.171   0.620   1.018
 7230TIP3   OH221630   8.287   5.979   1.708
 7230TIP3    H121631   8.248   5.974   1.620
 7230TIP3    H221632   8.219   5.945   1.766
 7231TIP3   OH221633   2.506   7.636   2.516
 7231TIP3    H121634   2.457   7.628   2.434
 7231TIP3    H221635   2.582   7.579   2.504
 7232TIP3   OH221636   0.674   2.030   2.399
 7232TIP3    H121637   0.601   2.046   2.338
 7232TIP3    H221638   0.730   1.968   2.354
 7233TIP3   OH221639   1.281   5.448   1.490
 7233TIP3    H121640   1.366   5.470   1.529
 7233TIP3    H221641   1.251   5.530   1.450
 7234TIP3   OH221642   7.513   2.788   0.366
 7234TIP3    H121643   7.517   2.880   0.391
 7234TIP3    H221644   7.550   2.741   0.440
 7235TIP3   OH221645   5.788   4.463   2.712
 7235TIP3    H121646   5.807   4.470   2.618
 7235TIP3    H221647   5.775   4.369   2.726
 7236TIP3   OH221648   0.394   3.556   4.708
 7236TIP3    H121649   0.386   3.541   4.614
 7236TIP3    H221650   0.414   3.649   4.716
 7237TIP3   OH221651   5.526   3.363   3.010
 7237TIP3    H121652   5.590   3.370   3.080
 7237TIP3    H221653   5.547   3.281   2.965
 7238TIP3   OH221654   4.444   1.071   6.523
 7238TIP3    H121655   4.363   1.120   6.535
 7238TIP3    H221656   4.464   1.080   6.430
 7239TIP3   OH221657   2.927   4.258   1.823
 7239TIP3    H121658   2.884   4.208   1.893
 7239TIP3    H221659   2.928   4.348   1.855
 7240TIP3   OH221660   0.267   5.331   3.773
 7240TIP3    H121661   0.231   5.417   3.795
 7240TIP3    H221662   0.324   5.309   3.847
 7241TIP3   OH221663   2.263   6.864   4.961
 7241TIP3    H121664   2.320   6.940   4.961
 7241TIP3    H221665   2.322   6.789   4.961
 7242TIP3   OH221666   6.309   0.776   6.212
 7242TIP3    H121667   6.282   0.685   6.219
 7242TIP3    H221668   6.234   0.820   6.173
 7243TIP3   OH221669   7.828   0.116   6.312
 7243TIP3    H121670   7.880   0.196   6.324
 7243TIP3    H221671   7.864   0.055   6.376
 7244TIP3   OH221672   4.314   6.355   0.327
 7244TIP3    H121673   4.344   6.265   0.340
 7244TIP3    H221674   4.226   6.346   0.289
 7245TIP3   OH221675   5.596   7.523   0.591
 7245TIP3    H121676   5.637   7.473   0.662
 7245TIP3    H221677   5.625   7.480   0.511
 7246TIP3   OH221678   5.118   6.470   4.035
 7246TIP3    H121679   5.045   6.421   4.073
 7246TIP3    H221680   5.132   6.428   3.950
 7247TIP3   OH221681   7.297   2.138   2.108
 7247TIP3    H121682   7.364   2.207   2.104
 7247TIP3    H221683   7.347   2.057   2.121
 7248TIP3   OH221684   8.063   4.357   0.935
 7248TIP3    H121685   8.028   4.409   0.863
 7248TIP3    H221686   8.113   4.419   0.988
 7249TIP3   OH221687   7.381   3.669   6.130
 7249TIP3    H121688   7.475   3.656   6.143
 7249TIP3    H221689   7.375   3.706   6.042
 7250TIP3   OH221690   6.586   3.117   0.239
 7250TIP3    H121691   6.578   3.190   0.177
 7250TIP3    H221692   6.645   3.149   0.307
 7251TIP3   OH221693   5.164   3.004   0.936
 7251TIP3    H121694   5.219   2.936   0.974
 7251TIP3    H221695   5.210   3.032   0.857
 7252TIP3   OH221696   3.251   5.003   1.820
 7252TIP3    H121697   3.192   4.939   1.860
 7252TIP3    H221698   3.334   4.955   1.811
 7253TIP3   OH221699   4.263   4.683   4.338
 7253TIP3    H121700   4.274   4.778   4.344
 7253TIP3    H221701   4.351   4.648   4.353
 7254TIP3   OH221702   5.345   2.835   1.029
 7254TIP3    H121703   5.349   2.795   0.942
 7254TIP3    H221704   5.436   2.833   1.059
 7255TIP3   OH221705   6.353   1.359   5.397
 7255TIP3    H121706   6.264   1.338   5.425
 7255TIP3    H221707   6.342   1.412   5.318
 7256TIP3   OH221708   3.856   6.571   2.964
 7256TIP3    H121709   3.932   6.623   2.990
 7256TIP3    H221710   3.881   6.480   2.983
 7257TIP3   OH221711   6.010   2.253   2.545
 7257TIP3    H121712   6.043   2.338   2.573
 7257TIP3    H221713   6.007   2.259   2.450
 7258TIP3   OH221714   7.634   1.698   1.320
 7258TIP3    H121715   7.714   1.697   1.267
 7258TIP3    H221716   7.564   1.672   1.261
 7259TIP3   OH221717   2.509   0.396   3.177
 7259TIP3    H121718   2.444   0.326   3.170
 7259TIP3    H221719   2.548   0.385   3.263
 7260TIP3   OH221720   4.604   1.780   1.447
 7260TIP3    H121721   4.664   1.842   1.488
 7260TIP3    H221722   4.612   1.797   1.353
 7261TIP3   OH221723   7.353   6.153   4.708
 7261TIP3    H121724   7.404   6.166   4.788
 7261TIP3    H221725   7.299   6.076   4.726
 7262TIP3   OH221726   8.236   3.808   3.040
 7262TIP3    H121727   8.263   3.731   2.990
 7262TIP3    H221728   8.304   3.873   3.022
 7263TIP3   OH221729   1.869   2.375   0.777
 7263TIP3    H121730   1.867   2.353   0.870
 7263TIP3    H221731   1.791   2.333   0.741
 7264TIP3   OH221732   0.047   1.327   0.742
 7264TIP3    H121733   0.119   1.304   0.801
 7264TIP3    H221734  -0.032   1.321   0.796
 7265TIP3   OH221735   3.026   3.263   1.706
 7265TIP3    H121736   3.084   3.290   1.634
 7265TIP3    H221737   3.040   3.329   1.774
 7266TIP3   OH221738   1.410   7.629   1.375
 7266TIP3    H121739   1.380   7.699   1.433
 7266TIP3    H221740   1.499   7.653   1.351
 7267TIP3   OH221741   2.948   0.081   3.155
 7267TIP3    H121742   2.882   0.012   3.160
 7267TIP3    H221743   3.012   0.048   3.091
 7268TIP3   OH221744   5.047   7.000   4.803
 7268TIP3    H121745   5.066   7.029   4.892
 7268TIP3    H221746   5.016   6.910   4.813
 7269TIP3   OH221747   5.113   7.678   1.282
 7269TIP3    H121748   5.092   7.591   1.316
 7269TIP3    H221749   5.039   7.732   1.308
 7270TIP3   OH221750   3.996   2.398   6.179
 7270TIP3    H121751   3.992   2.374   6.086
 7270TIP3    H221752   4.088   2.388   6.203
 7271TIP3   OH221753   4.102   2.434   5.896
 7271TIP3    H121754   4.075   2.521   5.924
 7271TIP3    H221755   4.039   2.410   5.828
 7272TIP3   OH221756   5.066   7.116   2.724
 7272TIP3    H121757   5.091   7.154   2.808
 7272TIP3    H221758   5.038   7.191   2.671
 7273TIP3   OH221759   3.134   0.578   4.303
 7273TIP3    H121760   3.163   0.552   4.390
 7273TIP3    H221761   3.061   0.518   4.283
 7274TIP3   OH221762   0.827   4.558   6.114
 7274TIP3    H121763   0.829   4.654   6.115
 7274TIP3    H221764   0.906   4.533   6.163
 7275TIP3   OH221765   5.833   7.769   5.203
 7275TIP3    H121766   5.786   7.741   5.281
 7275TIP3    H221767   5.816   7.862   5.196
 7276TIP3   OH221768   1.912   6.912   2.752
 7276TIP3    H121769   1.989   6.908   2.695
 7276TIP3    H221770   1.910   7.002   2.783
 7277TIP3   OH221771   7.613   7.014   5.935
 7277TIP3    H121772   7.554   7.077   5.978
 7277TIP3    H221773   7.555   6.961   5.881
 7278TIP3   OH221774   2.132   7.439   5.726
 7278TIP3    H121775   2.188   7.485   5.663
 7278TIP3    H221776   2.190   7.421   5.801
 7279TIP3   OH221777   1.658   5.045   2.562
 7279TIP3    H121778   1.644   5.048   2.467
 7279TIP3    H221779   1.598   4.977   2.593
 7280TIP3   OH221780   6.567   0.752   0.618
 7280TIP3    H121781   6.525   0.785   0.539
 7280TIP3    H221782   6.574   0.829   0.675
 7281TIP3   OH221783   1.191   1.386   4.719
 7281TIP3    H121784   1.162   1.328   4.789
 7281TIP3    H221785   1.285   1.398   4.736
 7282TIP3   OH221786   6.952   5.420   6.353
 7282TIP3    H121787   6.927   5.447   6.442
 7282TIP3    H221788   7.030   5.366   6.365
 7283TIP3   OH221789   2.127   6.617   5.573
 7283TIP3    H121790   2.082   6.565   5.640
 7283TIP3    H221791   2.093   6.583   5.490
 7284TIP3   OH221792   5.531   4.006   1.110
 7284TIP3    H121793   5.449   4.055   1.116
 7284TIP3    H221794   5.573   4.039   1.030
 7285TIP3   OH221795   8.312   3.124   5.573
 7285TIP3    H121796   8.295   3.066   5.499
 7285TIP3    H221797   8.231   3.121   5.625
 7286TIP3   OH221798   8.025   4.452   4.303
 7286TIP3    H121799   8.026   4.370   4.352
 7286TIP3    H221800   8.018   4.424   4.211
 7287TIP3   OH221801   2.671   3.899   5.549
 7287TIP3    H121802   2.723   3.979   5.547
 7287TIP3    H221803   2.580   3.929   5.552
 7288TIP3   OH221804   1.080   0.673   2.131
 7288TIP3    H121805   1.006   0.626   2.170
 7288TIP3    H221806   1.053   0.765   2.134
 7289TIP3   OH221807   4.452   6.629   3.908
 7289TIP3    H121808   4.473   6.548   3.954
 7289TIP3    H221809   4.503   6.624   3.827
 7290TIP3   OH221810   1.751   7.422   2.657
 7290TIP3    H121811   1.782   7.512   2.663
 7290TIP3    H221812   1.659   7.426   2.681
 7291TIP3   OH221813   7.914   5.463   0.363
 7291TIP3    H121814   7.953   5.453   0.276
 7291TIP3    H221815   7.985   5.498   0.417
 7292TIP3   OH221816   3.941   5.834   6.422
 7292TIP3    H121817   3.942   5.751   6.376
 7292TIP3    H221818   3.949   5.810   6.515
 7293TIP3   OH221819   5.170   2.438   3.623
 7293TIP3    H121820   5.104   2.372   3.646
 7293TIP3    H221821   5.254   2.391   3.628
 7294TIP3   OH221822   7.611   4.555   4.400
 7294TIP3    H121823   7.561   4.635   4.418
 7294TIP3    H221824   7.557   4.485   4.437
 7295TIP3   OH221825   7.211   5.879   6.648
 7295TIP3    H121826   7.187   5.842   6.733
 7295TIP3    H221827   7.199   5.973   6.658
 7296TIP3   OH221828   6.471   4.654   4.148
 7296TIP3    H121829   6.472   4.629   4.240
 7296TIP3    H221830   6.437   4.578   4.102
 7297TIP3   OH221831   1.593   2.803   4.232
 7297TIP3    H121832   1.502   2.834   4.232
 7297TIP3    H221833   1.619   2.806   4.140
 7298TIP3   OH221834   5.610   4.605   4.230
 7298TIP3    H121835   5.617   4.701   4.223
 7298TIP3    H221836   5.583   4.590   4.321
 7299TIP3   OH221837   0.280   4.507   0.533
 7299TIP3    H121838   0.259   4.414   0.520
 7299TIP3    H221839   0.337   4.508   0.610
 7300TIP3   OH221840   1.882   3.626   1.156
 7300TIP3    H121841   1.837   3.558   1.105
 7300TIP3    H221842   1.813   3.667   1.208
 7301TIP3   OH221843   4.466   1.778   6.730
 7301TIP3    H121844   4.432   1.720   6.798
 7301TIP3    H221845   4.414   1.858   6.738
 7302TIP3   OH221846   1.657   3.895   4.688
 7302TIP3    H121847   1.677   3.837   4.762
 7302TIP3    H221848   1.650   3.982   4.727
 7303TIP3   OH221849   6.042   6.376   2.459
 7303TIP3    H121850   6.097   6.450   2.485
 7303TIP3    H221851   5.958   6.415   2.436
 7304TIP3   OH221852   1.238   7.541   2.770
 7304TIP3    H121853   1.245   7.526   2.864
 7304TIP3    H221854   1.154   7.501   2.746
 7305TIP3   OH221855   4.576   2.488   4.240
 7305TIP3    H121856   4.518   2.427   4.286
 7305TIP3    H221857   4.590   2.448   4.155
 7306TIP3   OH221858   4.481   6.452   3.046
 7306TIP3    H121859   4.428   6.504   2.985
 7306TIP3    H221860   4.476   6.500   3.128
 7307TIP3   OH221861   6.112   3.663   3.906
 7307TIP3    H121862   6.108   3.572   3.936
 7307TIP3    H221863   6.134   3.657   3.813
 7308TIP3   OH221864   8.056   5.715   6.358
 7308TIP3    H121865   7.980   5.755   6.401
 7308TIP3    H221866   8.048   5.740   6.266
 7309TIP3   OH221867   0.647   5.056   2.745
 7309TIP3    H121868   0.670   5.148   2.729
 7309TIP3    H221869   0.557   5.058   2.776
 7310TIP3   OH221870   6.118   2.647   4.277
 7310TIP3    H121871   6.108   2.553   4.258
 7310TIP3    H221872   6.206   2.668   4.248
 7311TIP3   OH221873   1.138   1.877   1.125
 7311TIP3    H121874   1.170   1.919   1.205
 7311TIP3    H221875   1.061   1.928   1.100
 7312TIP3   OH221876   2.200   2.747   2.423
 7312TIP3    H121877   2.174   2.729   2.333
 7312TIP3    H221878   2.264   2.680   2.444
 7313TIP3   OH221879   4.336   2.049   4.421
 7313TIP3    H121880   4.265   2.112   4.410
 7313TIP3    H221881   4.300   1.981   4.478
 7314TIP3   OH221882   0.411   4.162   5.319
 7314TIP3    H121883   0.474   4.232   5.301
 7314TIP3    H221884   0.429   4.095   5.253
 7315TIP3   OH221885   0.979   7.742   2.406
 7315TIP3    H121886   0.939   7.675   2.460
 7315TIP3    H221887   0.929   7.740   2.324
 7316TIP3   OH221888   1.667   1.624   0.399
 7316TIP3    H121889   1.609   1.561   0.441
 7316TIP3    H221890   1.621   1.651   0.319
 7317TIP3   OH221891   1.507   4.848   4.458
 7317TIP3    H121892   1.499   4.842   4.362
 7317TIP3    H221893   1.578   4.788   4.480
 7318TIP3   OH221894   0.271   3.079   5.055
 7318TIP3    H121895   0.193   3.121   5.091
 7318TIP3    H221896   0.305   3.026   5.127
 7319TIP3   OH221897   0.442   3.708   4.984
 7319TIP3    H121898   0.472   3.717   4.893
 7319TIP3    H221899   0.510   3.751   5.036
 7320TIP3   OH221900   4.246   5.685   0.791
 7320TIP3    H121901   4.270   5.620   0.857
 7320TIP3    H221902   4.317   5.749   0.794
 7321TIP3   OH221903   6.012   7.743   2.861
 7321TIP3    H121904   6.023   7.650   2.879
 7321TIP3    H221905   5.949   7.747   2.789
 7322TIP3   OH221906   1.274   3.412   4.597
 7322TIP3    H121907   1.296   3.326   4.631
 7322TIP3    H221908   1.303   3.473   4.665
 7323TIP3   OH221909   0.159   3.077   0.807
 7323TIP3    H121910   0.224   3.017   0.773
 7323TIP3    H221911   0.204   3.162   0.811
 7324TIP3   OH221912   6.994   4.158   2.694
 7324TIP3    H121913   6.987   4.107   2.614
 7324TIP3    H221914   7.069   4.216   2.679
 7325TIP3   OH221915   6.400   1.495   1.000
 7325TIP3    H121916   6.327   1.496   0.938
 7325TIP3    H221917   6.436   1.584   0.994
 7326TIP3   OH221918   3.279   4.040   0.184
 7326TIP3    H121919   3.246   4.099   0.252
 7326TIP3    H221920   3.214   4.044   0.114
 7327TIP3   OH221921   4.926   7.518   0.150
 7327TIP3    H121922   4.947   7.596   0.099
 7327TIP3    H221923   4.871   7.550   0.222
 7328TIP3   OH221924   3.734   2.797   2.303
 7328TIP3    H121925   3.811   2.745   2.280
 7328TIP3    H221926   3.758   2.841   2.384
 7329TIP3   OH221927   0.338   4.456   5.747
 7329TIP3    H121928   0.406   4.398   5.714
 7329TIP3    H221929   0.360   4.470   5.839
 7330TIP3   OH221930   1.826   4.537   0.500
 7330TIP3    H121931   1.743   4.490   0.515
 7330TIP3    H221932   1.893   4.477   0.531
 7331TIP3   OH221933   4.430   1.674   6.407
 7331TIP3    H121934   4.508   1.728   6.417
 7331TIP3    H221935   4.464   1.590   6.375
 7332TIP3   OH221936   5.984   2.233   1.124
 7332TIP3    H121937   5.966   2.327   1.116
 7332TIP3    H221938   5.899   2.192   1.113
 7333TIP3   OH221939   1.285   4.675   1.749
 7333TIP3    H121940   1.270   4.766   1.775
 7333TIP3    H221941   1.229   4.624   1.808
 7334TIP3   OH221942   0.050   4.062   5.663
 7334TIP3    H121943   0.099   4.066   5.581
 7334TIP3    H221944  -0.010   3.988   5.652
 7335TIP3   OH221945   2.069   6.471   4.532
 7335TIP3    H121946   2.022   6.517   4.463
 7335TIP3    H221947   2.037   6.381   4.528
 7336TIP3   OH221948   3.528   4.000   2.408
 7336TIP3    H121949   3.468   3.934   2.373
 7336TIP3    H221950   3.510   4.078   2.357
 7337TIP3   OH221951   7.885   4.418   3.253
 7337TIP3    H121952   7.794   4.389   3.250
 7337TIP3    H221953   7.928   4.356   3.311
 7338TIP3   OH221954   2.201   7.706   3.945
 7338TIP3    H121955   2.280   7.758   3.960
 7338TIP3    H221956   2.189   7.656   4.026
 7339TIP3   OH221957   2.087   3.522   0.111
 7339TIP3    H121958   2.075   3.457   0.043
 7339TIP3    H221959   2.075   3.474   0.193
 7340TIP3   OH221960   4.204   7.635   3.229
 7340TIP3    H121961   4.202   7.701   3.160
 7340TIP3    H221962   4.113   7.604   3.234
 7341TIP3   OH221963   2.916   0.231   4.768
 7341TIP3    H121964   2.885   0.215   4.857
 7341TIP3    H221965   2.932   0.325   4.764
 7342TIP3   OH221966   4.818   7.866   5.945
 7342TIP3    H121967   4.901   7.883   5.900
 7342TIP3    H221968   4.827   7.911   6.029
 7343TIP3   OH221969   1.490   2.381   2.781
 7343TIP3    H121970   1.420   2.317   2.784
 7343TIP3    H221971   1.549   2.355   2.852
 7344TIP3   OH221972   5.975   7.510   4.345
 7344TIP3    H121973   5.981   7.531   4.439
 7344TIP3    H221974   6.055   7.461   4.327
 7345TIP3   OH221975   8.343   2.384   4.894
 7345TIP3    H121976   8.355   2.350   4.805
 7345TIP3    H221977   8.265   2.439   4.888
 7346TIP3   OH221978   3.802   4.794   3.619
 7346TIP3    H121979   3.838   4.809   3.706
 7346TIP3    H221980   3.777   4.881   3.588
 7347TIP3   OH221981   5.371   7.018   0.111
 7347TIP3    H121982   5.464   7.024   0.090
 7347TIP3    H221983   5.327   7.057   0.035
 7348TIP3   OH221984   7.762   6.512   0.547
 7348TIP3    H121985   7.814   6.478   0.475
 7348TIP3    H221986   7.688   6.556   0.505
 7349TIP3   OH221987   8.342   0.215   2.145
 7349TIP3    H121988   8.327   0.243   2.235
 7349TIP3    H221989   8.423   0.259   2.120
 7350TIP3   OH221990   0.687   2.204   6.557
 7350TIP3    H121991   0.682   2.160   6.641
 7350TIP3    H221992   0.771   2.250   6.559
 7351TIP3   OH221993   5.542   2.912   3.480
 7351TIP3    H121994   5.626   2.870   3.495
 7351TIP3    H221995   5.484   2.840   3.452
 7352TIP3   OH221996   1.365   0.344   1.687
 7352TIP3    H121997   1.448   0.298   1.675
 7352TIP3    H221998   1.299   0.274   1.694
 7353TIP3   OH221999   7.559   1.360   4.157
 7353TIP3    H122000   7.594   1.407   4.233
 7353TIP3    H222001   7.519   1.429   4.103
 7354TIP3   OH222002   4.001   5.938   2.066
 7354TIP3    H122003   4.029   5.978   2.149
 7354TIP3    H222004   3.919   5.894   2.088
 7355TIP3   OH222005   5.187   5.571   3.881
 7355TIP3    H122006   5.127   5.497   3.876
 7355TIP3    H222007   5.274   5.533   3.868
 7356TIP3   OH222008   5.466   1.983   4.986
 7356TIP3    H122009   5.510   1.906   4.950
 7356TIP3    H222010   5.522   2.057   4.959
 7357TIP3   OH222011   4.932   4.033   1.716
 7357TIP3    H122012   4.925   3.974   1.790
 7357TIP3    H222013   4.842   4.042   1.684
 7358TIP3   OH222014   6.120   4.928   0.476
 7358TIP3    H122015   6.189   4.986   0.509
 7358TIP3    H222016   6.066   4.910   0.552
 7359TIP3   OH222017   0.556   0.959   1.910
 7359TIP3    H122018   0.512   1.032   1.952
 7359TIP3    H222019   0.519   0.881   1.952
 7360TIP3   OH222020   5.380   4.011   6.152
 7360TIP3    H122021   5.414   4.044   6.235
 7360TIP3    H222022   5.336   4.087   6.113
 7361TIP3   OH222023   2.058   1.824   3.719
 7361TIP3    H122024   2.153   1.809   3.714
 7361TIP3    H222025   2.028   1.816   3.629
 7362TIP3   OH222026   0.145   6.352   6.836
 7362TIP3    H122027   0.112   6.286   6.897
 7362TIP3    H222028   0.119   6.321   6.749
 7363TIP3   OH222029   6.840   4.964   2.934
 7363TIP3    H122030   6.907   4.907   2.896
 7363TIP3    H222031   6.888   5.042   2.961
 7364TIP3   OH222032   7.613   0.055   0.601
 7364TIP3    H122033   7.635   0.017   0.516
 7364TIP3    H222034   7.641   0.146   0.595
 7365TIP3   OH222035   3.143   0.430   1.206
 7365TIP3    H122036   3.157   0.349   1.156
 7365TIP3    H222037   3.110   0.493   1.142
 7366TIP3   OH222038   1.647   3.279   4.763
 7366TIP3    H122039   1.595   3.218   4.816
 7366TIP3    H222040   1.600   3.285   4.680
 7367TIP3   OH222041   1.084   2.426   1.714
 7367TIP3    H122042   1.145   2.357   1.687
 7367TIP3    H222043   1.087   2.490   1.643
 7368TIP3   OH222044   3.016   3.999   4.599
 7368TIP3    H122045   2.955   4.071   4.616
 7368TIP3    H222046   2.968   3.940   4.541
 7369TIP3   OH222047   1.521   6.366   2.840
 7369TIP3    H122048   1.452   6.309   2.807
 7369TIP3    H222049   1.481   6.412   2.914
 7370TIP3   OH222050   7.592   2.125   5.315
 7370TIP3    H122051   7.556   2.191   5.375
 7370TIP3    H222052   7.638   2.063   5.372
 7371TIP3   OH222053   0.654   2.717   3.183
 7371TIP3    H122054   0.589   2.786   3.196
 7371TIP3    H222055   0.737   2.764   3.172
 7372TIP3   OH222056   2.093   4.285   3.176
 7372TIP3    H122057   2.100   4.308   3.269
 7372TIP3    H222058   2.071   4.192   3.176
 7373TIP3   OH222059   1.914   2.776   0.910
 7373TIP3    H122060   1.835   2.737   0.873
 7373TIP3    H222061   1.902   2.771   1.005
 7374TIP3   OH222062   7.952   0.995   2.720
 7374TIP3    H122063   7.861   0.965   2.726
 7374TIP3    H222064   7.972   0.988   2.627
 7375TIP3   OH222065   8.137   3.487   3.774
 7375TIP3    H122066   8.165   3.397   3.794
 7375TIP3    H222067   8.217   3.530   3.744
 7376TIP3   OH222068   3.683   7.490   5.243
 7376TIP3    H122069   3.587   7.486   5.241
 7376TIP3    H222070   3.704   7.574   5.202
 7377TIP3   OH222071   7.654   5.976   2.301
 7377TIP3    H122072   7.562   5.958   2.319
 7377TIP3    H222073   7.702   5.914   2.357
 7378TIP3   OH222074   6.654   0.221   2.082
 7378TIP3    H122075   6.743   0.256   2.080
 7378TIP3    H222076   6.597   0.297   2.069
 7379TIP3   OH222077   6.518   2.092   1.196
 7379TIP3    H122078   6.428   2.125   1.201
 7379TIP3    H222079   6.571   2.170   1.181
 7380TIP3   OH222080   2.346   4.252   1.816
 7380TIP3    H122081   2.387   4.224   1.735
 7380TIP3    H222082   2.305   4.173   1.851
 7381TIP3   OH222083   0.576   2.279   3.129
 7381TIP3    H122084   0.548   2.367   3.102
 7381TIP3    H222085   0.501   2.223   3.109
 7382TIP3   OH222086   8.085   6.527   3.684
 7382TIP3    H122087   8.057   6.442   3.650
 7382TIP3    H222088   8.064   6.589   3.613
 7383TIP3   OH222089   7.739   5.723   6.235
 7383TIP3    H122090   7.716   5.780   6.161
 7383TIP3    H222091   7.787   5.650   6.196
 7384TIP3   OH222092   4.932   7.117   4.585
 7384TIP3    H122093   4.977   7.079   4.661
 7384TIP3    H222094   4.891   7.042   4.542
 7385TIP3   OH222095   0.088   7.331   4.470
 7385TIP3    H122096   0.074   7.307   4.562
 7385TIP3    H222097   0.155   7.271   4.440
 7386TIP3   OH222098   6.294   4.787   1.285
 7386TIP3    H122099   6.383   4.775   1.251
 7386TIP3    H222100   6.241   4.807   1.208
 7387TIP3   OH222101   0.825   0.832   2.729
 7387TIP3    H122102   0.846   0.783   2.808
 7387TIP3    H222103   0.837   0.924   2.754
 7388TIP3   OH222104   1.703   0.235   6.312
 7388TIP3    H122105   1.768   0.217   6.380
 7388TIP3    H222106   1.660   0.316   6.340
 7389TIP3   OH222107   2.650   1.484   2.790
 7389TIP3    H122108   2.692   1.564   2.821
 7389TIP3    H222109   2.723   1.427   2.765
 7390TIP3   OH222110   2.148   6.974   1.832
 7390TIP3    H122111   2.184   6.896   1.787
 7390TIP3    H222112   2.093   7.016   1.766
 7391TIP3   OH222113   5.802   7.877   2.162
 7391TIP3    H122114   5.803   7.971   2.181
 7391TIP3    H222115   5.709   7.854   2.159
 7392TIP3   OH222116   7.145   5.645   3.268
 7392TIP3    H122117   7.155   5.733   3.233
 7392TIP3    H222118   7.215   5.594   3.227
 7393TIP3   OH222119   7.833   5.528   6.505
 7393TIP3    H122120   7.869   5.526   6.594
 7393TIP3    H222121   7.904   5.563   6.451
 7394TIP3   OH222122   2.912   2.144   3.373
 7394TIP3    H122123   2.996   2.187   3.360
 7394TIP3    H222124   2.892   2.157   3.466
 7395TIP3   OH222125   1.907   4.813   5.867
 7395TIP3    H122126   1.857   4.847   5.941
 7395TIP3    H222127   1.943   4.730   5.899
 7396TIP3   OH222128   4.391   6.132   5.021
 7396TIP3    H122129   4.478   6.157   4.989
 7396TIP3    H222130   4.349   6.089   4.947
 7397TIP3   OH222131   0.836   1.531   3.232
 7397TIP3    H122132   0.859   1.499   3.319
 7397TIP3    H222133   0.776   1.604   3.248
 7398TIP3   OH222134   0.966   2.953   5.272
 7398TIP3    H122135   1.027   2.882   5.290
 7398TIP3    H222136   0.973   3.011   5.348
 7399TIP3   OH222137   0.680   2.797   6.841
 7399TIP3    H122138   0.630   2.763   6.767
 7399TIP3    H222139   0.652   2.888   6.849
 7400TIP3   OH222140   7.074   4.436   2.406
 7400TIP3    H122141   7.134   4.403   2.339
 7400TIP3    H222142   7.093   4.382   2.483
 7401TIP3   OH222143   1.512   4.058   2.746
 7401TIP3    H122144   1.462   3.988   2.788
 7401TIP3    H222145   1.590   4.014   2.713
 7402TIP3   OH222146   1.477   6.820   5.144
 7402TIP3    H122147   1.531   6.743   5.159
 7402TIP3    H222148   1.411   6.792   5.080
 7403TIP3   OH222149   4.994   2.383   4.837
 7403TIP3    H122150   4.918   2.359   4.784
 7403TIP3    H222151   4.986   2.477   4.851
 7404TIP3   OH222152   0.160   5.400   5.600
 7404TIP3    H122153   0.169   5.352   5.518
 7404TIP3    H222154   0.190   5.489   5.580
 7405TIP3   OH222155   1.708   1.060   6.766
 7405TIP3    H122156   1.664   1.059   6.681
 7405TIP3    H222157   1.741   0.971   6.777
 7406TIP3   OH222158   1.275   3.458   1.170
 7406TIP3    H122159   1.323   3.391   1.218
 7406TIP3    H222160   1.341   3.502   1.116
 7407TIP3   OH222161   4.916   7.342   2.582
 7407TIP3    H122162   4.876   7.408   2.639
 7407TIP3    H222163   4.842   7.303   2.535
 7408TIP3   OH222164   5.421   5.401   3.345
 7408TIP3    H122165   5.412   5.306   3.331
 7408TIP3    H222166   5.510   5.411   3.378
 7409TIP3   OH222167   1.562   2.531   3.491
 7409TIP3    H122168   1.579   2.578   3.573
 7409TIP3    H222169   1.645   2.488   3.471
 7410TIP3   OH222170   3.000   5.785   0.923
 7410TIP3    H122171   2.913   5.745   0.926
 7410TIP3    H222172   3.036   5.757   0.839
 7411TIP3   OH222173   1.819   2.936   1.368
 7411TIP3    H122174   1.844   2.866   1.309
 7411TIP3    H222175   1.828   2.898   1.456
 7412TIP3   OH222176   1.352   7.825   6.358
 7412TIP3    H122177   1.333   7.732   6.370
 7412TIP3    H222178   1.445   7.828   6.337
 7413TIP3   OH222179   6.196   4.714   0.818
 7413TIP3    H122180   6.138   4.669   0.757
 7413TIP3    H222181   6.221   4.795   0.773
 7414TIP3   OH222182   4.200   4.604   2.246
 7414TIP3    H122183   4.106   4.587   2.242
 7414TIP3    H222184   4.229   4.599   2.155
 7415TIP3   OH222185   2.178   7.496   1.428
 7415TIP3    H122186   2.206   7.431   1.492
 7415TIP3    H222187   2.181   7.450   1.344
 7416TIP3   OH222188   3.027   7.843   1.722
 7416TIP3    H122189   3.113   7.808   1.745
 7416TIP3    H222190   2.996   7.788   1.650
 7417TIP3   OH222191   6.728   4.499   0.321
 7417TIP3    H122192   6.801   4.503   0.382
 7417TIP3    H222193   6.751   4.560   0.251
 7418TIP3   OH222194   3.812   5.035   6.391
 7418TIP3    H122195   3.756   5.097   6.345
 7418TIP3    H222196   3.894   5.082   6.404
 7419TIP3   OH222197   2.473   3.665   3.238
 7419TIP3    H122198   2.565   3.650   3.261
 7419TIP3    H222199   2.471   3.756   3.207
 7420TIP3   OH222200   6.784   6.523   4.904
 7420TIP3    H122201   6.817   6.435   4.888
 7420TIP3    H222202   6.744   6.549   4.821
 7421TIP3   OH222203   4.313   4.972   3.434
 7421TIP3    H122204   4.320   4.934   3.346
 7421TIP3    H222205   4.238   4.927   3.473
 7422TIP3   OH222206   6.244   3.180   3.161
 7422TIP3    H122207   6.166   3.218   3.202
 7422TIP3    H222208   6.311   3.247   3.171
 7423TIP3   OH222209   0.382   6.543   5.766
 7423TIP3    H122210   0.431   6.622   5.789
 7423TIP3    H222211   0.399   6.531   5.673
 7424TIP3   OH222212   7.583   5.420   1.343
 7424TIP3    H122213   7.555   5.506   1.311
 7424TIP3    H222214   7.502   5.368   1.345
 7425TIP3   OH222215   4.007   3.333   6.683
 7425TIP3    H122216   3.994   3.427   6.698
 7425TIP3    H222217   3.919   3.297   6.681
 7426TIP3   OH222218   5.590   0.087   1.466
 7426TIP3    H122219   5.583   0.066   1.373
 7426TIP3    H222220   5.661   0.151   1.471
 7427TIP3   OH222221   0.772   7.897   3.043
 7427TIP3    H122222   0.771   7.969   3.106
 7427TIP3    H222223   0.864   7.869   3.040
 7428TIP3   OH222224   8.336   7.702   2.961
 7428TIP3    H122225   8.272   7.767   2.991
 7428TIP3    H222226   8.403   7.701   3.029
 7429TIP3   OH222227   5.314   5.563   0.305
 7429TIP3    H122228   5.300   5.645   0.352
 7429TIP3    H222229   5.402   5.536   0.330
 7430TIP3   OH222230   6.110   1.267   2.271
 7430TIP3    H122231   6.036   1.212   2.298
 7430TIP3    H222232   6.187   1.224   2.310
 7431TIP3   OH222233   2.586   1.683   3.581
 7431TIP3    H122234   2.588   1.641   3.495
 7431TIP3    H222235   2.494   1.678   3.608
 7432TIP3   OH222236   2.537   0.088   1.394
 7432TIP3    H122237   2.544   0.172   1.348
 7432TIP3    H222238   2.447   0.061   1.380
 7433TIP3   OH222239   1.705   5.496   1.014
 7433TIP3    H122240   1.751   5.480   1.097
 7433TIP3    H222241   1.771   5.479   0.947
 7434TIP3   OH222242   6.061   6.289   1.990
 7434TIP3    H122243   6.079   6.328   1.905
 7434TIP3    H222244   6.054   6.196   1.973
 7435TIP3   OH222245   7.425   6.797   4.806
 7435TIP3    H122246   7.371   6.735   4.854
 7435TIP3    H222247   7.392   6.883   4.832
 7436TIP3   OH222248   3.228   3.767   4.062
 7436TIP3    H122249   3.139   3.747   4.092
 7436TIP3    H222250   3.221   3.766   3.966
 7437TIP3   OH222251   6.595   0.527   5.832
 7437TIP3    H122252   6.658   0.559   5.767
 7437TIP3    H222253   6.576   0.437   5.805
 7438TIP3   OH222254   3.652   4.811   2.546
 7438TIP3    H122255   3.560   4.789   2.563
 7438TIP3    H222256   3.648   4.880   2.480
 7439TIP3   OH222257   7.051   4.775   5.004
 7439TIP3    H122258   7.134   4.821   4.996
 7439TIP3    H222259   7.046   4.751   5.097
 7440TIP3   OH222260   5.376   7.914   5.817
 7440TIP3    H122261   5.341   7.830   5.846
 7440TIP3    H222262   5.402   7.958   5.897
 7441TIP3   OH222263   0.308   1.040   6.320
 7441TIP3    H122264   0.302   1.012   6.229
 7441TIP3    H222265   0.285   1.133   6.318
 7442TIP3   OH222266   0.377   1.980   6.548
 7442TIP3    H122267   0.455   1.972   6.494
 7442TIP3    H222268   0.304   1.963   6.488
 7443TIP3   OH222269   4.488   0.599   3.881
 7443TIP3    H122270   4.400   0.567   3.859
 7443TIP3    H222271   4.472   0.666   3.948
 7444TIP3   OH222272   6.460   5.016   1.906
 7444TIP3    H122273   6.476   5.083   1.973
 7444TIP3    H222274   6.476   5.060   1.823
 7445TIP3   OH222275   0.663   7.150   4.068
 7445TIP3    H122276   0.616   7.093   4.009
 7445TIP3    H222277   0.718   7.204   4.011
 7446TIP3   OH222278   8.323   3.994   2.201
 7446TIP3    H122279   8.392   4.017   2.263
 7446TIP3    H222280   8.273   4.075   2.191
 7447TIP3   OH222281   0.718   3.593   4.316
 7447TIP3    H122282   0.749   3.522   4.371
 7447TIP3    H222283   0.770   3.586   4.236
 7448TIP3   OH222284   4.297   0.432   0.443
 7448TIP3    H122285   4.297   0.475   0.528
 7448TIP3    H222286   4.266   0.343   0.460
 7449TIP3   OH222287   5.148   4.719   1.315
 7449TIP3    H122288   5.094   4.732   1.393
 7449TIP3    H222289   5.211   4.791   1.317
 7450TIP3   OH222290   0.856   2.545   1.898
 7450TIP3    H122291   0.798   2.616   1.867
 7450TIP3    H222292   0.942   2.568   1.863
 7451TIP3   OH222293   0.272   3.495   5.663
 7451TIP3    H122294   0.297   3.412   5.704
 7451TIP3    H222295   0.180   3.506   5.684
 7452TIP3   OH222296   0.835   1.896   1.212
 7452TIP3    H122297   0.900   1.837   1.251
 7452TIP3    H222298   0.824   1.865   1.122
 7453TIP3   OH222299   2.627   1.718   4.241
 7453TIP3    H122300   2.626   1.804   4.199
 7453TIP3    H222301   2.707   1.718   4.294
 7454TIP3   OH222302   3.498   5.593   1.116
 7454TIP3    H122303   3.495   5.500   1.139
 7454TIP3    H222304   3.408   5.623   1.126
 7455TIP3   OH222305   3.558   4.985   2.348
 7455TIP3    H122306   3.477   4.960   2.304
 7455TIP3    H222307   3.619   5.005   2.276
 7456TIP3   OH222308   2.927   7.216   4.246
 7456TIP3    H122309   2.918   7.139   4.302
 7456TIP3    H222310   2.951   7.286   4.307
 7457TIP3   OH222311   7.204   4.380   4.333
 7457TIP3    H122312   7.272   4.331   4.286
 7457TIP3    H222313   7.122   4.337   4.308
 7458TIP3   OH222314   0.399   7.150   2.971
 7458TIP3    H122315   0.309   7.150   3.004
 7458TIP3    H222316   0.393   7.182   2.882
 7459TIP3   OH222317   4.285   3.920   4.303
 7459TIP3    H122318   4.193   3.899   4.315
 7459TIP3    H222319   4.321   3.923   4.392
 7460TIP3   OH222320   1.639   6.974   3.813
 7460TIP3    H122321   1.557   7.002   3.772
 7460TIP3    H222322   1.673   7.053   3.855
 7461TIP3   OH222323   2.473   5.755   0.832
 7461TIP3    H122324   2.477   5.664   0.805
 7461TIP3    H222325   2.379   5.772   0.845
 7462TIP3   OH222326   4.132   7.112   3.413
 7462TIP3    H122327   4.177   7.153   3.487
 7462TIP3    H222328   4.152   7.167   3.338
 7463TIP3   OH222329   1.470   5.009   0.416
 7463TIP3    H122330   1.501   4.929   0.372
 7463TIP3    H222331   1.467   4.985   0.509
 7464TIP3   OH222332   1.202   0.339   2.576
 7464TIP3    H122333   1.185   0.381   2.492
 7464TIP3    H222334   1.286   0.295   2.565
 7465TIP3   OH222335   0.137   0.679   5.638
 7465TIP3    H122336   0.144   0.751   5.575
 7465TIP3    H222337   0.139   0.600   5.584
 7466TIP3   OH222338   4.935   5.033   3.651
 7466TIP3    H122339   5.011   4.978   3.668
 7466TIP3    H222340   4.904   5.059   3.738
 7467TIP3   OH222341   6.803   3.336   6.496
 7467TIP3    H122342   6.852   3.409   6.458
 7467TIP3    H222343   6.752   3.375   6.566
 7468TIP3   OH222344   6.868   7.863   4.191
 7468TIP3    H122345   6.909   7.821   4.116
 7468TIP3    H222346   6.941   7.884   4.250
 7469TIP3   OH222347   5.656   0.570   4.411
 7469TIP3    H122348   5.597   0.528   4.348
 7469TIP3    H222349   5.667   0.505   4.481
 7470TIP3   OH222350   4.797   7.664   1.788
 7470TIP3    H122351   4.703   7.662   1.803
 7470TIP3    H222352   4.815   7.584   1.739
 7471TIP3   OH222353   7.451   1.868   2.798
 7471TIP3    H122354   7.489   1.786   2.830
 7471TIP3    H222355   7.510   1.895   2.727
 7472TIP3   OH222356   6.264   3.909   3.621
 7472TIP3    H122357   6.245   3.818   3.647
 7472TIP3    H222358   6.194   3.960   3.661
 7473TIP3   OH222359   7.647   0.465   6.440
 7473TIP3    H122360   7.649   0.378   6.399
 7473TIP3    H222361   7.681   0.450   6.528
 7474TIP3   OH222362   2.521   0.005   4.625
 7474TIP3    H122363   2.562   0.004   4.538
 7474TIP3    H222364   2.432   0.035   4.610
 7475TIP3   OH222365   7.937   0.693   0.350
 7475TIP3    H122366   7.862   0.728   0.301
 7475TIP3    H222367   7.953   0.607   0.310
 7476TIP3   OH222368   5.288   1.676   5.915
 7476TIP3    H122369   5.285   1.669   5.820
 7476TIP3    H222370   5.372   1.718   5.933
 7477TIP3   OH222371   3.293   4.436   3.279
 7477TIP3    H122372   3.219   4.398   3.232
 7477TIP3    H222373   3.366   4.429   3.218
 7478TIP3   OH222374   3.784   1.719   6.719
 7478TIP3    H122375   3.867   1.759   6.693
 7478TIP3    H222376   3.789   1.714   6.815
 7479TIP3   OH222377   7.185   1.235   5.620
 7479TIP3    H122378   7.280   1.242   5.627
 7479TIP3    H222379   7.169   1.205   5.531
 7480TIP3   OH222380   7.909   4.794   0.870
 7480TIP3    H122381   7.837   4.857   0.859
 7480TIP3    H222382   7.925   4.792   0.964
 7481TIP3   OH222383   1.051   7.871   6.304
 7481TIP3    H122384   1.100   7.842   6.227
 7481TIP3    H222385   1.087   7.819   6.377
 7482TIP3   OH222386   1.526   5.062   2.333
 7482TIP3    H122387   1.489   5.146   2.361
 7482TIP3    H222388   1.497   5.051   2.243
 7483TIP3   OH222389   5.471   7.326   3.259
 7483TIP3    H122390   5.493   7.329   3.166
 7483TIP3    H222391   5.537   7.268   3.297
 7484TIP3   OH222392   6.417   5.592   4.324
 7484TIP3    H122393   6.491   5.567   4.379
 7484TIP3    H222394   6.341   5.579   4.380
 7485TIP3   OH222395   0.840   0.151   0.659
 7485TIP3    H122396   0.914   0.115   0.709
 7485TIP3    H222397   0.765   0.099   0.688
 7486TIP3   OH222398   2.283   0.986   5.852
 7486TIP3    H122399   2.234   1.060   5.814
 7486TIP3    H222400   2.237   0.967   5.934
 7487TIP3   OH222401   4.605   5.334   4.512
 7487TIP3    H122402   4.624   5.242   4.529
 7487TIP3    H222403   4.544   5.360   4.581
 7488TIP3   OH222404   8.169   7.799   6.380
 7488TIP3    H122405   8.115   7.793   6.301
 7488TIP3    H222406   8.247   7.846   6.352
 7489TIP3   OH222407   7.090   1.355   3.097
 7489TIP3    H122408   7.152   1.419   3.130
 7489TIP3    H222409   7.048   1.398   3.023
 7490TIP3   OH222410   8.370   2.616   2.801
 7490TIP3    H122411   8.300   2.646   2.744
 7490TIP3    H222412   8.417   2.551   2.749
 7491TIP3   OH222413   0.716   2.658   0.028
 7491TIP3    H122414   0.687   2.567   0.027
 7491TIP3    H222415   0.791   2.660  -0.031
 7492TIP3   OH222416   3.437   4.355   5.483
 7492TIP3    H122417   3.418   4.399   5.401
 7492TIP3    H222418   3.518   4.307   5.467
 7493TIP3   OH222419   1.733   6.440   2.063
 7493TIP3    H122420   1.729   6.391   1.981
 7493TIP3    H222421   1.764   6.527   2.038
 7494TIP3   OH222422   7.786   3.223   3.018
 7494TIP3    H122423   7.855   3.167   3.055
 7494TIP3    H222424   7.820   3.312   3.029
 7495TIP3   OH222425   5.786   6.453   6.252
 7495TIP3    H122426   5.791   6.493   6.339
 7495TIP3    H222427   5.816   6.522   6.193
 7496TIP3   OH222428   1.580   6.558   3.083
 7496TIP3    H122429   1.567   6.636   3.029
 7496TIP3    H222430   1.675   6.542   3.080
 7497TIP3   OH222431   3.977   0.595   3.292
 7497TIP3    H122432   3.967   0.685   3.259
 7497TIP3    H222433   4.024   0.606   3.375
 7498TIP3   OH222434   4.824   5.629   0.268
 7498TIP3    H122435   4.871   5.692   0.214
 7498TIP3    H222436   4.880   5.615   0.344
 7499TIP3   OH222437  -0.003   3.904   0.940
 7499TIP3    H122438   0.087   3.919   0.967
 7499TIP3    H222439  -0.032   3.987   0.903
 7500TIP3   OH222440   1.833   3.911   5.005
 7500TIP3    H122441   1.834   3.884   5.097
 7500TIP3    H222442   1.772   3.985   5.002
 7501TIP3   OH222443   1.797   0.587   4.528
 7501TIP3    H122444   1.785   0.651   4.458
 7501TIP3    H222445   1.882   0.547   4.511
 7502TIP3   OH222446   6.573   5.429   6.047
 7502TIP3    H122447   6.539   5.401   6.132
 7502TIP3    H222448   6.514   5.498   6.019
 7503TIP3   OH222449   1.001   6.696   5.599
 7503TIP3    H122450   0.922   6.652   5.568
 7503TIP3    H222451   1.040   6.735   5.521
 7504TIP3   OH222452   7.332   2.958   2.901
 7504TIP3    H122453   7.412   3.010   2.909
 7504TIP3    H222454   7.262   3.023   2.905
 7505TIP3   OH222455   4.182   1.160   6.517
 7505TIP3    H122456   4.106   1.192   6.468
 7505TIP3    H222457   4.180   1.209   6.599
 7506TIP3   OH222458   1.089   4.576   5.454
 7506TIP3    H122459   1.002   4.600   5.485
 7506TIP3    H222460   1.146   4.647   5.483
 7507TIP3   OH222461   4.395   3.459   5.072
 7507TIP3    H122462   4.319   3.515   5.055
 7507TIP3    H222463   4.423   3.482   5.160
 7508TIP3   OH222464   0.546   6.468   5.040
 7508TIP3    H122465   0.607   6.416   4.988
 7508TIP3    H222466   0.596   6.492   5.118
 7509TIP3   OH222467   7.554   3.341   1.958
 7509TIP3    H122468   7.571   3.433   1.940
 7509TIP3    H222469   7.603   3.323   2.039
 7510TIP3   OH222470   2.332   4.717   0.110
 7510TIP3    H122471   2.418   4.760   0.117
 7510TIP3    H222472   2.340   4.660   0.033
 7511TIP3   OH222473   0.131   5.907   5.402
 7511TIP3    H122474   0.038   5.922   5.418
 7511TIP3    H222475   0.175   5.971   5.456
 7512TIP3   OH222476   2.919   4.790   4.996
 7512TIP3    H122477   2.965   4.838   4.927
 7512TIP3    H222478   2.833   4.831   5.001
 7513TIP3   OH222479   1.794   3.745   5.238
 7513TIP3    H122480   1.863   3.754   5.304
 7513TIP3    H222481   1.721   3.706   5.284
 7514TIP3   OH222482   4.015   3.679   4.630
 7514TIP3    H122483   4.077   3.752   4.641
 7514TIP3    H222484   3.929   3.720   4.633
 7515TIP3   OH222485   2.591   7.646   5.830
 7515TIP3    H122486   2.662   7.589   5.860
 7515TIP3    H222487   2.537   7.590   5.774
 7516TIP3   OH222488   6.711   3.844   5.165
 7516TIP3    H122489   6.627   3.823   5.124
 7516TIP3    H222490   6.724   3.775   5.230
 7517TIP3   OH222491   1.140   4.487   6.516
 7517TIP3    H122492   1.160   4.571   6.558
 7517TIP3    H222493   1.179   4.421   6.574
 7518TIP3   OH222494   5.956   5.816   1.603
 7518TIP3    H122495   5.990   5.727   1.591
 7518TIP3    H222496   5.910   5.812   1.687
 7519TIP3   OH222497   7.343   4.487   1.617
 7519TIP3    H122498   7.355   4.421   1.549
 7519TIP3    H222499   7.369   4.443   1.698
 7520TIP3   OH222500   7.386   2.995   6.275
 7520TIP3    H122501   7.480   3.005   6.262
 7520TIP3    H222502   7.347   3.027   6.194
 7521TIP3   OH222503   3.059   7.362   4.475
 7521TIP3    H122504   3.140   7.323   4.445
 7521TIP3    H222505   3.055   7.447   4.431
 7522TIP3   OH222506   3.834   4.430   0.682
 7522TIP3    H122507   3.767   4.493   0.660
 7522TIP3    H222508   3.906   4.482   0.717
 7523TIP3   OH222509   6.721   2.775   5.833
 7523TIP3    H122510   6.816   2.787   5.830
 7523TIP3    H222511   6.703   2.715   5.760
 7524TIP3   OH222512   4.763   4.625   5.203
 7524TIP3    H122513   4.782   4.702   5.150
 7524TIP3    H222514   4.819   4.634   5.280
 7525TIP3   OH222515   5.565   2.672   1.969
 7525TIP3    H122516   5.611   2.740   2.017
 7525TIP3    H222517   5.634   2.624   1.922
 7526TIP3   OH222518   2.823   3.082   3.143
 7526TIP3    H122519   2.818   3.138   3.220
 7526TIP3    H222520   2.815   3.143   3.069
 7527TIP3   OH222521   3.757   5.774   4.650
 7527TIP3    H122522   3.769   5.712   4.722
 7527TIP3    H222523   3.842   5.776   4.606
 7528TIP3   OH222524   1.477   2.136   1.869
 7528TIP3    H122525   1.479   2.231   1.874
 7528TIP3    H222526   1.554   2.112   1.817
 7529TIP3   OH222527   8.046   4.806   5.047
 7529TIP3    H122528   8.100   4.772   5.119
 7529TIP3    H222529   8.044   4.735   4.983
 7530TIP3   OH222530   3.443   6.676   6.048
 7530TIP3    H122531   3.471   6.587   6.027
 7530TIP3    H222532   3.403   6.668   6.135
 7531TIP3   OH222533   1.069   1.624   3.549
 7531TIP3    H122534   1.137   1.600   3.611
 7531TIP3    H222535   1.012   1.548   3.544
 7532TIP3   OH222536   6.251   7.602   5.568
 7532TIP3    H122537   6.194   7.670   5.532
 7532TIP3    H222538   6.229   7.599   5.661
 7533TIP3   OH222539   6.934   3.715   6.714
 7533TIP3    H122540   6.915   3.761   6.632
 7533TIP3    H222541   6.848   3.686   6.745
 7534TIP3   OH222542   1.055   1.202   4.557
 7534TIP3    H122543   1.135   1.174   4.512
 7534TIP3    H222544   1.082   1.279   4.608
 7535TIP3   OH222545   8.201   7.766   1.133
 7535TIP3    H122546   8.272   7.714   1.096
 7535TIP3    H222547   8.122   7.731   1.091
 7536TIP3   OH222548   6.367   1.402   0.084
 7536TIP3    H122549   6.305   1.355   0.029
 7536TIP3    H222550   6.334   1.492   0.086
 7537TIP3   OH222551   0.108   7.843   0.691
 7537TIP3    H122552   0.077   7.754   0.670
 7537TIP3    H222553   0.029   7.890   0.718
 7538TIP3   OH222554   6.847   5.248   0.866
 7538TIP3    H122555   6.939   5.223   0.853
 7538TIP3    H222556   6.834   5.323   0.808
 7539TIP3   OH222557   2.464   2.259   2.392
 7539TIP3    H122558   2.520   2.337   2.384
 7539TIP3    H222559   2.391   2.288   2.446
 7540TIP3   OH222560   8.188   6.166   6.845
 7540TIP3    H122561   8.181   6.245   6.792
 7540TIP3    H222562   8.108   6.164   6.897
 7541TIP3   OH222563   3.343   4.282   1.969
 7541TIP3    H122564   3.276   4.349   1.976
 7541TIP3    H222565   3.311   4.222   1.902
 7542TIP3   OH222566   6.165   7.313   4.410
 7542TIP3    H122567   6.229   7.384   4.409
 7542TIP3    H222568   6.213   7.238   4.446
 7543TIP3   OH222569   0.435   1.126   5.746
 7543TIP3    H122570   0.359   1.070   5.727
 7543TIP3    H222571   0.482   1.132   5.663
 7544TIP3   OH222572   5.162   1.982   3.544
 7544TIP3    H122573   5.129   1.913   3.601
 7544TIP3    H222574   5.200   2.047   3.604
 7545TIP3   OH222575   1.995   1.488   6.559
 7545TIP3    H122576   2.064   1.480   6.626
 7545TIP3    H222577   1.932   1.420   6.582
 7546TIP3   OH222578   5.382   7.144   1.415
 7546TIP3    H122579   5.453   7.095   1.371
 7546TIP3    H222580   5.361   7.214   1.353
 7547TIP3   OH222581   2.997   1.826   5.688
 7547TIP3    H122582   2.944   1.800   5.612
 7547TIP3    H222583   3.087   1.824   5.656
 7548TIP3   OH222584   4.670   5.385   6.638
 7548TIP3    H122585   4.635   5.295   6.635
 7548TIP3    H222586   4.762   5.376   6.615
 7549TIP3   OH222587   1.468   3.205   5.893
 7549TIP3    H122588   1.526   3.204   5.969
 7549TIP3    H222589   1.385   3.240   5.926
 7550TIP3   OH222590   3.236   1.646   4.783
 7550TIP3    H122591   3.140   1.644   4.776
 7550TIP3    H222592   3.265   1.675   4.696
 7551TIP3   OH222593   3.332   5.266   1.892
 7551TIP3    H122594   3.360   5.277   1.802
 7551TIP3    H222595   3.306   5.174   1.898
 7552TIP3   OH222596   1.471   7.113   2.912
 7552TIP3    H122597   1.485   7.207   2.924
 7552TIP3    H222598   1.507   7.073   2.991
 7553TIP3   OH222599   2.717   4.410   1.490
 7553TIP3    H122600   2.666   4.421   1.409
 7553TIP3    H222601   2.805   4.388   1.460
 7554TIP3   OH222602   7.808   1.971   1.825
 7554TIP3    H122603   7.858   1.918   1.888
 7554TIP3    H222604   7.872   2.034   1.791
 7555TIP3   OH222605   2.866   7.116   5.277
 7555TIP3    H122606   2.899   7.026   5.281
 7555TIP3    H222607   2.770   7.106   5.271
 7556TIP3   OH222608   8.223   2.717   5.502
 7556TIP3    H122609   8.149   2.751   5.452
 7556TIP3    H222610   8.294   2.708   5.438
 7557TIP3   OH222611   7.366   4.496   6.490
 7557TIP3    H122612   7.413   4.561   6.542
 7557TIP3    H222613   7.347   4.426   6.552
 7558TIP3   OH222614   0.042   4.243   2.800
 7558TIP3    H122615   0.029   4.303   2.873
 7558TIP3    H222616  -0.016   4.169   2.818
 7559TIP3   OH222617   1.862   6.445   3.121
 7559TIP3    H122618   1.949   6.485   3.117
 7559TIP3    H222619   1.872   6.363   3.073
 7560TIP3   OH222620   0.514   6.912   4.390
 7560TIP3    H122621   0.454   6.840   4.372
 7560TIP3    H222622   0.558   6.887   4.471
 7561TIP3   OH222623   1.218   7.863   4.381
 7561TIP3    H122624   1.132   7.838   4.347
 7561TIP3    H222625   1.199   7.915   4.459
 7562TIP3   OH222626   5.840   0.859   6.167
 7562TIP3    H122627   5.869   0.783   6.117
 7562TIP3    H222628   5.777   0.824   6.230
 7563TIP3   OH222629   5.782   2.712   3.478
 7563TIP3    H122630   5.860   2.735   3.527
 7563TIP3    H222631   5.723   2.674   3.543
 7564TIP3   OH222632   5.353   1.553   2.049
 7564TIP3    H122633   5.326   1.539   1.958
 7564TIP3    H222634   5.439   1.594   2.042
 7565TIP3   OH222635   2.635   4.141   2.257
 7565TIP3    H122636   2.555   4.112   2.302
 7565TIP3    H222637   2.698   4.071   2.272
 7566TIP3   OH222638   0.368   0.940   2.987
 7566TIP3    H122639   0.462   0.926   2.989
 7566TIP3    H222640   0.351   1.002   3.058
 7567TIP3   OH222641   6.266   1.847   6.564
 7567TIP3    H122642   6.317   1.925   6.582
 7567TIP3    H222643   6.175   1.877   6.564
 7568TIP3   OH222644   7.525   7.711   4.344
 7568TIP3    H122645   7.511   7.616   4.338
 7568TIP3    H222646   7.538   7.739   4.253
 7569TIP3   OH222647   2.053   6.498   2.844
 7569TIP3    H122648   1.985   6.433   2.858
 7569TIP3    H222649   2.033   6.537   2.758
 7570TIP3   OH222650   5.953   5.321   2.767
 7570TIP3    H122651   5.940   5.347   2.858
 7570TIP3    H222652   5.910   5.390   2.716
 7571TIP3   OH222653   4.426   3.792   2.595
 7571TIP3    H122654   4.379   3.832   2.667
 7571TIP3    H222655   4.510   3.838   2.592
 7572TIP3   OH222656   7.648   6.136   0.440
 7572TIP3    H122657   7.597   6.176   0.510
 7572TIP3    H222658   7.614   6.176   0.360
 7573TIP3   OH222659   2.505   1.664   6.776
 7573TIP3    H122660   2.556   1.594   6.815
 7573TIP3    H222661   2.570   1.726   6.742
 7574TIP3   OH222662   7.953   3.020   1.462
 7574TIP3    H122663   7.953   2.933   1.422
 7574TIP3    H222664   8.029   3.019   1.521
 7575TIP3   OH222665   7.563   6.959   5.074
 7575TIP3    H122666   7.572   7.045   5.031
 7575TIP3    H222667   7.475   6.930   5.050
 7576TIP3   OH222668   1.421   7.500   6.043
 7576TIP3    H122669   1.494   7.438   6.051
 7576TIP3    H222670   1.464   7.586   6.036
 7577TIP3   OH222671   5.179   4.983   1.510
 7577TIP3    H122672   5.149   5.035   1.436
 7577TIP3    H222673   5.269   4.959   1.489
 7578TIP3   OH222674   7.172   4.490   6.122
 7578TIP3    H122675   7.251   4.444   6.151
 7578TIP3    H222676   7.176   4.486   6.026
 7579TIP3   OH222677   4.031   7.111   5.209
 7579TIP3    H122678   4.003   7.050   5.278
 7579TIP3    H222679   3.969   7.184   5.216
 7580TIP3   OH222680   2.083   4.890   0.719
 7580TIP3    H122681   2.057   4.812   0.768
 7580TIP3    H222682   2.118   4.949   0.785
 7581TIP3   OH222683   6.402   4.339   1.295
 7581TIP3    H122684   6.345   4.263   1.309
 7581TIP3    H222685   6.342   4.409   1.271
 7582TIP3   OH222686   4.863   3.503   2.977
 7582TIP3    H122687   4.844   3.413   2.951
 7582TIP3    H222688   4.806   3.556   2.922
 7583TIP3   OH222689   2.214   0.308   6.788
 7583TIP3    H122690   2.234   0.216   6.768
 7583TIP3    H222691   2.224   0.314   6.883
 7584TIP3   OH222692   1.447   4.003   0.920
 7584TIP3    H122693   1.484   4.084   0.884
 7584TIP3    H222694   1.519   3.964   0.970
 7585TIP3   OH222695   6.649   3.276   2.719
 7585TIP3    H122696   6.658   3.372   2.716
 7585TIP3    H222697   6.654   3.249   2.628
 7586TIP3   OH222698   2.363   1.848   5.237
 7586TIP3    H122699   2.442   1.801   5.262
 7586TIP3    H222700   2.312   1.855   5.318
 7587TIP3   OH222701   2.381   0.071   2.016
 7587TIP3    H122702   2.381   0.127   2.094
 7587TIP3    H222703   2.414   0.128   1.946
 7588TIP3   OH222704   4.709   5.200   1.703
 7588TIP3    H122705   4.634   5.201   1.643
 7588TIP3    H222706   4.672   5.177   1.788
 7589TIP3   OH222707   5.881   2.163   3.916
 7589TIP3    H122708   5.825   2.086   3.922
 7589TIP3    H222709   5.835   2.230   3.967
 7590TIP3   OH222710   2.253   5.433   0.882
 7590TIP3    H122711   2.348   5.417   0.880
 7590TIP3    H222712   2.243   5.512   0.934
 7591TIP3   OH222713   5.972   4.543   2.936
 7591TIP3    H122714   6.060   4.553   2.900
 7591TIP3    H222715   5.987   4.533   3.030
 7592TIP3   OH222716   1.501   3.841   3.883
 7592TIP3    H122717   1.485   3.817   3.792
 7592TIP3    H222718   1.414   3.862   3.917
 7593TIP3   OH222719   7.769   3.280   6.797
 7593TIP3    H122720   7.685   3.286   6.751
 7593TIP3    H222721   7.746   3.262   6.888
 7594TIP3   OH222722   1.853   3.736   6.362
 7594TIP3    H122723   1.867   3.645   6.390
 7594TIP3    H222724   1.876   3.788   6.439
 7595TIP3   OH222725   0.434   6.447   3.712
 7595TIP3    H122726   0.474   6.381   3.769
 7595TIP3    H222727   0.361   6.402   3.671
 7596TIP3   OH222728   3.188   2.338   5.113
 7596TIP3    H122729   3.242   2.342   5.033
 7596TIP3    H222730   3.176   2.245   5.129
 7597TIP3   OH222731   4.464   3.997   1.978
 7597TIP3    H122732   4.529   4.009   1.908
 7597TIP3    H222733   4.384   3.974   1.931
 7598TIP3   OH222734   4.682   4.231   3.352
 7598TIP3    H122735   4.695   4.262   3.442
 7598TIP3    H222736   4.768   4.200   3.324
 7599TIP3   OH222737   2.599   1.692   5.248
 7599TIP3    H122738   2.654   1.696   5.327
 7599TIP3    H222739   2.662   1.688   5.176
 7600TIP3   OH222740   3.196   0.437   5.880
 7600TIP3    H122741   3.226   0.347   5.892
 7600TIP3    H222742   3.105   0.437   5.911
 7601TIP3   OH222743   1.858   4.797   5.597
 7601TIP3    H122744   1.925   4.866   5.597
 7601TIP3    H222745   1.848   4.773   5.689
 7602TIP3   OH222746   7.307   7.143   4.530
 7602TIP3    H122747   7.374   7.139   4.463
 7602TIP3    H222748   7.341   7.205   4.595
 7603TIP3   OH222749   4.604   2.001   6.202
 7603TIP3    H122750   4.527   1.974   6.251
 7603TIP3    H222751   4.572   2.071   6.144
 7604TIP3   OH222752   0.596   1.945   6.383
 7604TIP3    H122753   0.658   1.900   6.439
 7604TIP3    H222754   0.618   1.916   6.294
 7605TIP3   OH222755   5.179   5.498   6.862
 7605TIP3    H122756   5.175   5.426   6.800
 7605TIP3    H222757   5.259   5.483   6.911
 7606TIP3   OH222758   5.839   6.671   1.138
 7606TIP3    H122759   5.869   6.759   1.115
 7606TIP3    H222760   5.770   6.685   1.202
 7607TIP3   OH222761   6.465   3.575   4.741
 7607TIP3    H122762   6.372   3.552   4.729
 7607TIP3    H222763   6.511   3.518   4.679
 7608TIP3   OH222764   7.150   3.649   2.256
 7608TIP3    H122765   7.189   3.726   2.214
 7608TIP3    H222766   7.081   3.685   2.312
 7609TIP3   OH222767   4.359   4.349   2.326
 7609TIP3    H122768   4.316   4.421   2.279
 7609TIP3    H222769   4.450   4.375   2.332
 7610TIP3   OH222770   6.387   7.054   0.626
 7610TIP3    H122771   6.368   6.995   0.699
 7610TIP3    H222772   6.406   6.995   0.552
 7611TIP3   OH222773   6.039   2.360   0.791
 7611TIP3    H122774   6.018   2.336   0.881
 7611TIP3    H222775   6.132   2.342   0.782
 7612TIP3   OH222776   0.215   3.600   0.470
 7612TIP3    H122777   0.169   3.519   0.493
 7612TIP3    H222778   0.305   3.572   0.455
 7613TIP3   OH222779   5.822   1.783   2.057
 7613TIP3    H122780   5.892   1.724   2.031
 7613TIP3    H222781   5.858   1.832   2.132
 7614TIP3   OH222782   5.501   2.034   1.929
 7614TIP3    H122783   5.521   2.035   1.835
 7614TIP3    H222784   5.514   1.943   1.956
 7615TIP3   OH222785   5.860   0.345   1.185
 7615TIP3    H122786   5.781   0.347   1.239
 7615TIP3    H222787   5.828   0.357   1.096
 7616TIP3   OH222788   7.545   4.156   6.469
 7616TIP3    H122789   7.596   4.164   6.388
 7616TIP3    H222790   7.456   4.136   6.440
 7617TIP3   OH222791   4.424   7.192   2.277
 7617TIP3    H122792   4.451   7.280   2.251
 7617TIP3    H222793   4.488   7.134   2.236
 7618TIP3   OH222794   2.746   5.668   0.818
 7618TIP3    H122795   2.694   5.749   0.815
 7618TIP3    H222796   2.748   5.637   0.728
 7619TIP3   OH222797   3.662   1.420   1.148
 7619TIP3    H122798   3.617   1.486   1.201
 7619TIP3    H222799   3.630   1.337   1.182
 7620TIP3   OH222800   6.555   2.962   0.666
 7620TIP3    H122801   6.553   2.875   0.705
 7620TIP3    H222802   6.596   3.017   0.732
 7621TIP3   OH222803   6.342   1.895   5.663
 7621TIP3    H122804   6.297   1.849   5.592
 7621TIP3    H222805   6.277   1.956   5.698
 7622TIP3   OH222806   1.496   6.775   6.083
 7622TIP3    H122807   1.464   6.719   6.153
 7622TIP3    H222808   1.491   6.721   6.004
 7623TIP3   OH222809   8.325   5.984   2.822
 7623TIP3    H122810   8.337   6.001   2.916
 7623TIP3    H222811   8.304   6.069   2.785
 7624TIP3   OH222812   1.387   7.507   3.068
 7624TIP3    H122813   1.412   7.496   3.160
 7624TIP3    H222814   1.463   7.476   3.019
 7625TIP3   OH222815   7.638   4.824   3.398
 7625TIP3    H122816   7.712   4.867   3.356
 7625TIP3    H222817   7.675   4.747   3.440
 7626TIP3   OH222818   8.366   0.810   5.051
 7626TIP3    H122819   8.436   0.847   4.996
 7626TIP3    H222820   8.290   0.807   4.994
 7627TIP3   OH222821   0.915   4.101   5.926
 7627TIP3    H122822   0.867   4.101   5.842
 7627TIP3    H222823   0.848   4.120   5.991
 7628TIP3   OH222824   6.694   7.595   4.993
 7628TIP3    H122825   6.664   7.618   5.082
 7628TIP3    H222826   6.673   7.672   4.941
 7629TIP3   OH222827   1.855   1.222   6.553
 7629TIP3    H122828   1.783   1.160   6.546
 7629TIP3    H222829   1.910   1.188   6.623
 7630TIP3   OH222830   5.430   2.951   5.583
 7630TIP3    H122831   5.351   2.897   5.588
 7630TIP3    H222832   5.410   3.017   5.517
 7631TIP3   OH222833   4.150   2.265   6.716
 7631TIP3    H122834   4.193   2.324   6.778
 7631TIP3    H222835   4.187   2.289   6.631
 7632TIP3   OH222836   5.683   2.981   1.662
 7632TIP3    H122837   5.703   3.064   1.618
 7632TIP3    H222838   5.619   2.939   1.604
 7633TIP3   OH222839   6.362   2.396   0.480
 7633TIP3    H122840   6.268   2.411   0.476
 7633TIP3    H222841   6.376   2.316   0.429
 7634TIP3   OH222842   2.802   2.384   2.405
 7634TIP3    H122843   2.733   2.445   2.377
 7634TIP3    H222844   2.841   2.427   2.481
 7635TIP3   OH222845   2.080   0.702   0.830
 7635TIP3    H122846   2.124   0.746   0.902
 7635TIP3    H222847   2.035   0.628   0.872
 7636TIP3   OH222848   6.858   0.392   0.459
 7636TIP3    H122849   6.785   0.432   0.506
 7636TIP3    H222850   6.875   0.450   0.386
 7637TIP3   OH222851   1.897   4.845   0.128
 7637TIP3    H122852   1.911   4.891   0.045
 7637TIP3    H222853   1.949   4.895   0.192
 7638TIP3   OH222854   3.582   7.778   6.151
 7638TIP3    H122855   3.643   7.708   6.174
 7638TIP3    H222856   3.511   7.770   6.215
 7639TIP3   OH222857   4.845   4.929   1.887
 7639TIP3    H122858   4.930   4.923   1.844
 7639TIP3    H222859   4.848   5.012   1.935
 7640TIP3   OH222860   0.491   7.766   3.905
 7640TIP3    H122861   0.527   7.681   3.880
 7640TIP3    H222862   0.397   7.751   3.915
 7641TIP3   OH222863   6.266   6.785   6.489
 7641TIP3    H122864   6.215   6.824   6.560
 7641TIP3    H222865   6.355   6.817   6.504
 7642TIP3   OH222866   3.578   4.279   3.762
 7642TIP3    H122867   3.665   4.305   3.733
 7642TIP3    H222868   3.549   4.214   3.698
 7643TIP3   OH222869   7.644   2.058   4.787
 7643TIP3    H122870   7.646   2.154   4.792
 7643TIP3    H222871   7.619   2.030   4.875
 7644TIP3   OH222872   4.949   1.764   5.820
 7644TIP3    H122873   5.024   1.758   5.760
 7644TIP3    H222874   4.929   1.672   5.840
 7645TIP3   OH222875   2.385   4.599   4.023
 7645TIP3    H122876   2.415   4.671   4.079
 7645TIP3    H222877   2.446   4.599   3.949
 7646TIP3   OH222878   2.726   7.647   1.507
 7646TIP3    H122879   2.644   7.650   1.555
 7646TIP3    H222880   2.734   7.734   1.468
 7647TIP3   OH222881   7.945   2.526   6.335
 7647TIP3    H122882   7.858   2.563   6.351
 7647TIP3    H222883   7.979   2.508   6.423
 7648TIP3   OH222884   2.877   1.494   5.657
 7648TIP3    H122885   2.872   1.577   5.609
 7648TIP3    H222886   2.948   1.507   5.719
 7649TIP3   OH222887   4.339   1.210   0.478
 7649TIP3    H122888   4.269   1.204   0.413
 7649TIP3    H222889   4.388   1.289   0.453
 7650TIP3   OH222890   7.597   7.189   0.472
 7650TIP3    H122891   7.508   7.220   0.487
 7650TIP3    H222892   7.591   7.094   0.481
 7651TIP3   OH222893   1.661   1.231   3.925
 7651TIP3    H122894   1.608   1.153   3.946
 7651TIP3    H222895   1.605   1.283   3.868
 7652TIP3   OH222896   4.312   2.834   4.555
 7652TIP3    H122897   4.253   2.851   4.482
 7652TIP3    H222898   4.284   2.894   4.624
 7653TIP3   OH222899   1.143   3.508   3.612
 7653TIP3    H122900   1.210   3.492   3.679
 7653TIP3    H222901   1.142   3.428   3.560
 7654TIP3   OH222902   3.578   2.348   4.872
 7654TIP3    H122903   3.672   2.336   4.857
 7654TIP3    H222904   3.568   2.442   4.889
 7655TIP3   OH222905   1.471   1.655   3.029
 7655TIP3    H122906   1.425   1.671   2.946
 7655TIP3    H222907   1.402   1.660   3.095
 7656TIP3   OH222908   4.934   3.320   3.300
 7656TIP3    H122909   4.876   3.243   3.304
 7656TIP3    H222910   5.020   3.284   3.278
 7657TIP3   OH222911   4.791   4.433   1.412
 7657TIP3    H122912   4.703   4.458   1.381
 7657TIP3    H222913   4.841   4.420   1.331
 7658TIP3   OH222914   6.932   5.802   5.009
 7658TIP3    H122915   6.881   5.882   5.020
 7658TIP3    H222916   6.874   5.732   5.037
 7659TIP3   OH222917   1.181   5.728   4.187
 7659TIP3    H122918   1.277   5.722   4.185
 7659TIP3    H222919   1.157   5.751   4.097
 7660TIP3   OH222920   4.148   6.929   1.160
 7660TIP3    H122921   4.079   6.942   1.096
 7660TIP3    H222922   4.109   6.873   1.227
 7661TIP3   OH222923   7.818   4.612   3.451
 7661TIP3    H122924   7.866   4.577   3.376
 7661TIP3    H222925   7.747   4.550   3.466
 7662TIP3   OH222926   3.648   5.387   5.744
 7662TIP3    H122927   3.673   5.458   5.685
 7662TIP3    H222928   3.556   5.370   5.725
 7663TIP3   OH222929   5.025   5.286   2.949
 7663TIP3    H122930   5.118   5.266   2.963
 7663TIP3    H222931   4.979   5.204   2.968
 7664TIP3   OH222932   1.540   3.468   3.905
 7664TIP3    H122933   1.505   3.524   3.974
 7664TIP3    H222934   1.628   3.446   3.934
 7665TIP3   OH222935   4.249   3.407   0.533
 7665TIP3    H122936   4.313   3.366   0.590
 7665TIP3    H222937   4.200   3.334   0.495
 7666TIP3   OH222938   5.883   6.713   0.459
 7666TIP3    H122939   5.897   6.682   0.369
 7666TIP3    H222940   5.863   6.633   0.509
 7667TIP3   OH222941   0.789   3.586   5.932
 7667TIP3    H122942   0.727   3.626   5.872
 7667TIP3    H222943   0.740   3.516   5.974
 7668TIP3   OH222944   2.283   4.450   3.409
 7668TIP3    H122945   2.217   4.489   3.466
 7668TIP3    H222946   2.259   4.478   3.321
 7669TIP3   OH222947   1.391   7.748   2.900
 7669TIP3    H122948   1.354   7.679   2.845
 7669TIP3    H222949   1.401   7.708   2.986
 7670TIP3   OH222950   8.140   2.457   0.773
 7670TIP3    H122951   8.147   2.393   0.844
 7670TIP3    H222952   8.229   2.464   0.738
 7671TIP3   OH222953   2.482   7.298   2.162
 7671TIP3    H122954   2.409   7.286   2.222
 7671TIP3    H222955   2.560   7.292   2.216
 7672TIP3   OH222956   5.613   6.007   6.054
 7672TIP3    H122957   5.540   6.035   6.109
 7672TIP3    H222958   5.688   6.004   6.113
 7673TIP3   OH222959   3.768   7.014   3.058
 7673TIP3    H122960   3.801   7.088   3.007
 7673TIP3    H222961   3.686   7.046   3.095
 7674TIP3   OH222962   4.049   3.023   1.995
 7674TIP3    H122963   3.953   3.016   2.002
 7674TIP3    H222964   4.070   2.980   1.912
 7675TIP3   OH222965   8.159   2.939   5.088
 7675TIP3    H122966   8.120   2.877   5.027
 7675TIP3    H222967   8.164   3.021   5.039
 7676TIP3   OH222968   8.280   5.533   4.787
 7676TIP3    H122969   8.276   5.476   4.864
 7676TIP3    H222970   8.197   5.580   4.788
 7677TIP3   OH222971   3.776   1.854   1.072
 7677TIP3    H122972   3.805   1.933   1.028
 7677TIP3    H222973   3.844   1.835   1.136
 7678TIP3   OH222974   8.067   3.276   0.705
 7678TIP3    H122975   8.097   3.186   0.710
 7678TIP3    H222976   8.039   3.298   0.794
 7679TIP3   OH222977   3.925   1.618   4.826
 7679TIP3    H122978   3.856   1.552   4.820
 7679TIP3    H222979   3.881   1.701   4.807
 7680TIP3   OH222980   1.256   5.484   1.136
 7680TIP3    H122981   1.313   5.411   1.113
 7680TIP3    H222982   1.292   5.559   1.088
 7681TIP3   OH222983   5.785   6.789   0.012
 7681TIP3    H122984   5.794   6.885   0.014
 7681TIP3    H222985   5.691   6.774   0.015
 7682TIP3   OH222986   5.123   5.179   2.148
 7682TIP3    H122987   5.163   5.110   2.201
 7682TIP3    H222988   5.145   5.156   2.058
 7683TIP3   OH222989   4.388   5.372   1.813
 7683TIP3    H122990   4.350   5.312   1.749
 7683TIP3    H222991   4.449   5.318   1.864
 7684TIP3   OH222992   5.892   7.184   1.733
 7684TIP3    H122993   5.872   7.125   1.660
 7684TIP3    H222994   5.939   7.257   1.692
 7685TIP3   OH222995   4.369   0.567   4.748
 7685TIP3    H122996   4.413   0.583   4.832
 7685TIP3    H222997   4.429   0.511   4.699
 7686TIP3   OH222998   2.894   7.378   5.159
 7686TIP3    H122999   2.870   7.359   5.068
 7686TIP3    H223000   2.878   7.296   5.205
 7687TIP3   OH223001   6.767   1.769   3.205
 7687TIP3    H123002   6.849   1.800   3.243
 7687TIP3    H223003   6.793   1.714   3.131
 7688TIP3   OH223004   6.209   3.088   5.516
 7688TIP3    H123005   6.114   3.094   5.516
 7688TIP3    H223006   6.233   3.090   5.609
 7689TIP3   OH223007   3.977   1.298   6.723
 7689TIP3    H123008   3.959   1.357   6.650
 7689TIP3    H223009   3.917   1.224   6.709
 7690TIP3   OH223010   0.360   4.417   1.820
 7690TIP3    H123011   0.443   4.370   1.825
 7690TIP3    H223012   0.380   4.493   1.765
 7691TIP3   OH223013   5.085   0.608   6.771
 7691TIP3    H123014   5.148   0.675   6.743
 7691TIP3    H223015   5.066   0.558   6.692
 7692TIP3   OH223016   3.973   7.042   5.460
 7692TIP3    H123017   3.881   7.036   5.486
 7692TIP3    H223018   4.016   7.088   5.532
 7693TIP3   OH223019   6.988   3.201   2.645
 7693TIP3    H123020   6.904   3.154   2.641
 7693TIP3    H223021   7.008   3.206   2.739
 7694TIP3   OH223022   3.262   0.679   0.359
 7694TIP3    H123023   3.240   0.687   0.267
 7694TIP3    H223024   3.178   0.674   0.404
 7695TIP3   OH223025   5.410   0.338   1.110
 7695TIP3    H123026   5.416   0.432   1.095
 7695TIP3    H223027   5.481   0.301   1.058
 7696TIP3   OH223028   6.803   4.203   3.511
 7696TIP3    H123029   6.732   4.198   3.447
 7696TIP3    H223030   6.758   4.219   3.594
 7697TIP3   OH223031   2.607   3.330   1.075
 7697TIP3    H123032   2.514   3.320   1.097
 7697TIP3    H223033   2.619   3.423   1.061
 7698TIP3   OH223034   4.879   4.475   6.201
 7698TIP3    H123035   4.853   4.420   6.127
 7698TIP3    H223036   4.798   4.493   6.248
 7699TIP3   OH223037   2.498   0.331   6.557
 7699TIP3    H123038   2.526   0.374   6.638
 7699TIP3    H223039   2.403   0.346   6.554
 7700TIP3   OH223040   4.791   4.374   4.570
 7700TIP3    H123041   4.885   4.372   4.588
 7700TIP3    H223042   4.760   4.454   4.612
 7701TIP3   OH223043   3.672   6.986   5.354
 7701TIP3    H123044   3.651   6.910   5.407
 7701TIP3    H223045   3.596   7.043   5.362
 7702TIP3   OH223046   0.005   6.966   2.127
 7702TIP3    H123047   0.032   7.056   2.111
 7702TIP3    H223048   0.078   6.927   2.175
 7703TIP3   OH223049   6.011   4.182   4.824
 7703TIP3    H123050   6.036   4.141   4.907
 7703TIP3    H223051   6.093   4.184   4.773
 7704TIP3   OH223052   6.275   0.308   5.935
 7704TIP3    H123053   6.360   0.301   5.891
 7704TIP3    H223054   6.270   0.230   5.990
 7705TIP3   OH223055   4.274   7.749   4.859
 7705TIP3    H123056   4.253   7.808   4.787
 7705TIP3    H223057   4.362   7.774   4.886
 7706TIP3   OH223058   7.651   0.963   3.381
 7706TIP3    H123059   7.710   0.944   3.307
 7706TIP3    H223060   7.606   1.044   3.355
 7707TIP3   OH223061   6.025   4.797   1.706
 7707TIP3    H123062   5.950   4.777   1.763
 7707TIP3    H223063   6.078   4.858   1.757
 7708TIP3   OH223064   6.804   2.111   1.599
 7708TIP3    H123065   6.895   2.081   1.594
 7708TIP3    H223066   6.779   2.097   1.690
 7709TIP3   OH223067   3.260   3.378   5.949
 7709TIP3    H123068   3.227   3.468   5.951
 7709TIP3    H223069   3.182   3.324   5.958
 7710TIP3   OH223070   1.770   7.447   4.799
 7710TIP3    H123071   1.813   7.378   4.849
 7710TIP3    H223072   1.811   7.444   4.713
 7711TIP3   OH223073   6.849   4.742   3.473
 7711TIP3    H123074   6.877   4.816   3.419
 7711TIP3    H223075   6.825   4.674   3.410
 7712TIP3   OH223076   8.396   2.666   5.913
 7712TIP3    H123077   8.333   2.596   5.898
 7712TIP3    H223078   8.385   2.726   5.839
 7713TIP3   OH223079   0.341   2.325   2.752
 7713TIP3    H123080   0.335   2.232   2.773
 7713TIP3    H223081   0.288   2.335   2.673
 7714TIP3   OH223082   6.688   4.441   1.332
 7714TIP3    H123083   6.687   4.468   1.423
 7714TIP3    H223084   6.716   4.519   1.284
 7715TIP3   OH223085   4.988   7.383   4.561
 7715TIP3    H123086   4.958   7.412   4.475
 7715TIP3    H223087   4.982   7.288   4.558
 7716TIP3   OH223088   0.967   4.002   1.192
 7716TIP3    H123089   1.060   3.986   1.205
 7716TIP3    H223090   0.954   3.989   1.098
 7717TIP3   OH223091   7.670   5.140   6.243
 7717TIP3    H123092   7.721   5.185   6.176
 7717TIP3    H223093   7.643   5.058   6.201
 7718TIP3   OH223094   2.699   2.440   5.568
 7718TIP3    H123095   2.622   2.434   5.512
 7718TIP3    H223096   2.746   2.517   5.536
 7719TIP3   OH223097   4.777   7.281   0.032
 7719TIP3    H123098   4.701   7.268   0.089
 7719TIP3    H223099   4.839   7.329   0.086
 7720TIP3   OH223100   1.961   1.655   2.243
 7720TIP3    H123101   1.952   1.671   2.336
 7720TIP3    H223102   1.871   1.661   2.209
 7721TIP3   OH223103   6.046   5.208   4.145
 7721TIP3    H123104   6.072   5.283   4.090
 7721TIP3    H223105   5.990   5.246   4.212
 7722TIP3   OH223106   5.054   1.982   4.721
 7722TIP3    H123107   5.123   1.932   4.678
 7722TIP3    H223108   5.027   2.047   4.656
 7723TIP3   OH223109   6.153   6.831   4.493
 7723TIP3    H123110   6.083   6.883   4.453
 7723TIP3    H223111   6.108   6.752   4.525
 7724TIP3   OH223112   7.428   7.793   6.025
 7724TIP3    H123113   7.448   7.878   5.986
 7724TIP3    H223114   7.361   7.811   6.091
 7725TIP3   OH223115   2.770   7.906   5.151
 7725TIP3    H123116   2.776   7.813   5.130
 7725TIP3    H223117   2.846   7.923   5.208
 7726TIP3   OH223118   0.501   4.244   6.622
 7726TIP3    H123119   0.562   4.315   6.602
 7726TIP3    H223120   0.556   4.166   6.626
 7727TIP3   OH223121   6.095   2.289   2.266
 7727TIP3    H123122   6.116   2.382   2.259
 7727TIP3    H223123   6.181   2.247   2.278
 7728TIP3   OH223124   7.730   6.271   6.183
 7728TIP3    H123125   7.731   6.190   6.234
 7728TIP3    H223126   7.783   6.251   6.106
 7729TIP3   OH223127   1.253   0.131   6.347
 7729TIP3    H123128   1.212   0.213   6.373
 7729TIP3    H223129   1.288   0.094   6.428
 7730TIP3   OH223130   6.297   2.823   5.187
 7730TIP3    H123131   6.316   2.910   5.151
 7730TIP3    H223132   6.343   2.762   5.130
 7731TIP3   OH223133   5.683   7.740   1.741
 7731TIP3    H123134   5.680   7.660   1.688
 7731TIP3    H223135   5.604   7.788   1.716
 7732TIP3   OH223136   2.926   4.712   2.426
 7732TIP3    H123137   2.888   4.798   2.409
 7732TIP3    H223138   2.900   4.692   2.516
 7733TIP3   OH223139   5.975   3.768   3.510
 7733TIP3    H123140   5.989   3.752   3.417
 7733TIP3    H223141   5.933   3.688   3.542
 7734TIP3   OH223142   7.054   6.057   2.099
 7734TIP3    H123143   7.095   6.061   2.013
 7734TIP3    H223144   7.028   6.147   2.117
 7735TIP3   OH223145   1.275   4.300   5.701
 7735TIP3    H123146   1.331   4.223   5.691
 7735TIP3    H223147   1.321   4.369   5.653
 7736TIP3   OH223148   2.104   2.759   1.524
 7736TIP3    H123149   2.036   2.714   1.574
 7736TIP3    H223150   2.185   2.737   1.571
 7737TIP3   OH223151   1.334   3.282   4.287
 7737TIP3    H123152   1.414   3.335   4.290
 7737TIP3    H223153   1.263   3.346   4.298
 7738TIP3   OH223154   0.421   3.534   0.192
 7738TIP3    H123155   0.327   3.517   0.199
 7738TIP3    H223156   0.449   3.481   0.117
 7739TIP3   OH223157   5.749   6.951   0.446
 7739TIP3    H123158   5.798   6.871   0.467
 7739TIP3    H223159   5.658   6.922   0.437
 7740TIP3   OH223160   5.063   3.165   1.407
 7740TIP3    H123161   5.054   3.170   1.312
 7740TIP3    H223162   5.148   3.205   1.426
 7741TIP3   OH223163   2.731   5.628   5.389
 7741TIP3    H123164   2.693   5.648   5.475
 7741TIP3    H223165   2.744   5.533   5.390
 7742TIP3   OH223166   2.729   3.673   0.183
 7742TIP3    H123167   2.712   3.581   0.160
 7742TIP3    H223168   2.811   3.670   0.232
 7743TIP3   OH223169   0.609   4.690   4.748
 7743TIP3    H123170   0.540   4.687   4.815
 7743TIP3    H223171   0.664   4.764   4.775
 7744TIP3   OH223172   1.080   7.553   1.276
 7744TIP3    H123173   1.143   7.527   1.344
 7744TIP3    H223174   0.997   7.564   1.324
 7745TIP3   OH223175   1.760   3.428   6.004
 7745TIP3    H123176   1.780   3.408   5.912
 7745TIP3    H223177   1.846   3.429   6.047
 7746TIP3   OH223178   7.973   7.700   5.660
 7746TIP3    H123179   7.965   7.745   5.744
 7746TIP3    H223180   7.882   7.685   5.633
 7747TIP3   OH223181   8.355   6.352   2.248
 7747TIP3    H123182   8.315   6.306   2.174
 7747TIP3    H223183   8.309   6.319   2.325
 7748TIP3   OH223184   5.130   0.040   4.762
 7748TIP3    H123185   5.209  -0.010   4.742
 7748TIP3    H223186   5.161   0.112   4.819
 7749TIP3   OH223187   2.350   3.970   3.584
 7749TIP3    H123188   2.436   3.934   3.605
 7749TIP3    H223189   2.342   4.048   3.640
 7750TIP3   OH223190   4.892   2.336   4.311
 7750TIP3    H123191   4.910   2.275   4.240
 7750TIP3    H223192   4.797   2.334   4.322
 7751TIP3   OH223193   6.117   5.734   0.458
 7751TIP3    H123194   6.084   5.687   0.535
 7751TIP3    H223195   6.038   5.770   0.417
 7752TIP3   OH223196   7.423   4.012   2.840
 7752TIP3    H123197   7.351   4.075   2.836
 7752TIP3    H223198   7.502   4.065   2.843
 7753TIP3   OH223199   0.460   4.625   1.084
 7753TIP3    H123200   0.386   4.679   1.059
 7753TIP3    H223201   0.526   4.641   1.016
 7754TIP3   OH223202   5.882   1.311   0.350
 7754TIP3    H123203   5.918   1.378   0.408
 7754TIP3    H223204   5.853   1.241   0.409
 7755TIP3   OH223205   4.376   1.433   3.913
 7755TIP3    H123206   4.368   1.506   3.975
 7755TIP3    H223207   4.405   1.474   3.832
 7756TIP3   OH223208   4.558   3.893   0.995
 7756TIP3    H123209   4.617   3.823   1.021
 7756TIP3    H223210   4.483   3.884   1.053
 7757TIP3   OH223211   2.644   3.702   1.882
 7757TIP3    H123212   2.638   3.672   1.791
 7757TIP3    H223213   2.652   3.621   1.933
 7758TIP3   OH223214   6.255   1.388   4.101
 7758TIP3    H123215   6.177   1.352   4.143
 7758TIP3    H223216   6.230   1.401   4.010
 7759TIP3   OH223217   7.013   5.418   6.031
 7759TIP3    H123218   6.931   5.457   6.001
 7759TIP3    H223219   6.997   5.324   6.031
 7760TIP3   OH223220   2.639   3.045   0.913
 7760TIP3    H123221   2.556   3.018   0.873
 7760TIP3    H223222   2.623   3.044   1.007
 7761TIP3   OH223223   6.838   5.478   0.028
 7761TIP3    H123224   6.785   5.463   0.106
 7761TIP3    H223225   6.844   5.391  -0.013
 7762TIP3   OH223226   6.641   1.723   1.300
 7762TIP3    H123227   6.650   1.805   1.348
 7762TIP3    H223228   6.690   1.659   1.352
 7763TIP3   OH223229   4.625   1.550   6.595
 7763TIP3    H123230   4.695   1.563   6.659
 7763TIP3    H223231   4.565   1.623   6.609
 7764TIP3   OH223232   2.897   7.657   2.437
 7764TIP3    H123233   2.875   7.749   2.446
 7764TIP3    H223234   2.859   7.631   2.353
 7765TIP3   OH223235   2.983   6.798   1.417
 7765TIP3    H123236   3.051   6.858   1.389
 7765TIP3    H223237   2.901   6.846   1.402
 7766TIP3   OH223238   7.780   2.020   1.274
 7766TIP3    H123239   7.838   2.011   1.198
 7766TIP3    H223240   7.829   1.982   1.347
 7767TIP3   OH223241   3.753   6.088   0.911
 7767TIP3    H123242   3.764   6.169   0.861
 7767TIP3    H223243   3.702   6.032   0.853
 7768TIP3   OH223244   7.169   1.136   1.938
 7768TIP3    H123245   7.211   1.202   1.993
 7768TIP3    H223246   7.145   1.066   1.998
 7769TIP3   OH223247   5.469   2.813   6.446
 7769TIP3    H123248   5.516   2.867   6.509
 7769TIP3    H223249   5.407   2.763   6.499
 7770TIP3   OH223250   4.985   2.963   6.196
 7770TIP3    H123251   4.973   2.943   6.289
 7770TIP3    H223252   4.980   2.878   6.153
 7771TIP3   OH223253   1.850   3.202   4.581
 7771TIP3    H123254   1.822   3.269   4.643
 7771TIP3    H223255   1.878   3.128   4.636
 7772TIP3   OH223256   1.581   3.476   2.271
 7772TIP3    H123257   1.607   3.396   2.316
 7772TIP3    H223258   1.494   3.497   2.306
 7773TIP3   OH223259   4.938   6.578   3.129
 7773TIP3    H123260   4.871   6.523   3.169
 7773TIP3    H223261   4.914   6.583   3.037
 7774TIP3   OH223262   7.052   2.053   3.722
 7774TIP3    H123263   7.020   2.081   3.807
 7774TIP3    H223264   7.147   2.048   3.732
 7775TIP3   OH223265   3.754   6.096   1.189
 7775TIP3    H123266   3.733   6.102   1.096
 7775TIP3    H223267   3.808   6.017   1.197
 7776TIP3   OH223268   5.393   2.255   3.679
 7776TIP3    H123269   5.483   2.262   3.710
 7776TIP3    H223270   5.359   2.177   3.723
 7777TIP3   OH223271   3.399   6.797   1.656
 7777TIP3    H123272   3.431   6.839   1.576
 7777TIP3    H223273   3.396   6.867   1.721
 7778TIP3   OH223274  -0.023   7.599   1.001
 7778TIP3    H123275   0.016   7.638   0.922
 7778TIP3    H223276   0.021   7.515   1.010
 7779TIP3   OH223277   2.211   2.300   3.811
 7779TIP3    H123278   2.243   2.252   3.887
 7779TIP3    H223279   2.290   2.334   3.769
 7780TIP3   OH223280   7.580   2.185   2.665
 7780TIP3    H123281   7.506   2.203   2.608
 7780TIP3    H223282   7.657   2.203   2.610
 7781TIP3   OH223283   6.807   5.733   1.157
 7781TIP3    H123284   6.770   5.689   1.080
 7781TIP3    H223285   6.875   5.674   1.188
 7782TIP3   OH223286   0.777   3.807   2.054
 7782TIP3    H123287   0.687   3.787   2.081
 7782TIP3    H223288   0.767   3.855   1.972
 7783TIP3   OH223289   5.032   4.826   0.791
 7783TIP3    H123290   5.060   4.813   0.881
 7783TIP3    H223291   5.056   4.916   0.771
 7784TIP3   OH223292   0.782   1.525   6.018
 7784TIP3    H123293   0.864   1.574   6.014
 7784TIP3    H223294   0.791   1.469   6.095
 7785TIP3   OH223295   0.065   3.071   4.060
 7785TIP3    H123296   0.005   2.998   4.076
 7785TIP3    H223297   0.141   3.051   4.115
 7786TIP3   OH223298   3.826   2.996   1.584
 7786TIP3    H123299   3.828   2.923   1.523
 7786TIP3    H223300   3.735   3.000   1.614
 7787TIP3   OH223301   2.748   4.731   4.704
 7787TIP3    H123302   2.694   4.794   4.657
 7787TIP3    H223303   2.685   4.677   4.752
 7788TIP3   OH223304   4.340   3.066   2.040
 7788TIP3    H123305   4.245   3.056   2.044
 7788TIP3    H223306   4.354   3.160   2.033
 7789TIP3   OH223307   2.486   3.797   6.891
 7789TIP3    H123308   2.427   3.837   6.827
 7789TIP3    H223309   2.503   3.709   6.857
 7790TIP3   OH223310   5.860   3.644   0.369
 7790TIP3    H123311   5.895   3.562   0.334
 7790TIP3    H223312   5.774   3.620   0.403
 7791TIP3   OH223313   0.147   4.892   4.170
 7791TIP3    H123314   0.147   4.820   4.106
 7791TIP3    H223315   0.121   4.969   4.119
 7792TIP3   OH223316   0.953   5.873   6.561
 7792TIP3    H123317   0.906   5.866   6.478
 7792TIP3    H223318   1.026   5.932   6.542
 7793TIP3   OH223319   5.546   2.129   4.439
 7793TIP3    H123320   5.463   2.177   4.451
 7793TIP3    H223321   5.582   2.122   4.528
 7794TIP3   OH223322   3.512   3.558   5.876
 7794TIP3    H123323   3.445   3.496   5.905
 7794TIP3    H223324   3.587   3.541   5.933
 7795TIP3   OH223325   3.465   2.961   0.786
 7795TIP3    H123326   3.513   2.879   0.792
 7795TIP3    H223327   3.373   2.935   0.782
 7796TIP3   OH223328   3.929   0.896   1.507
 7796TIP3    H123329   3.882   0.923   1.427
 7796TIP3    H223330   3.876   0.930   1.578
 7797TIP3   OH223331   6.306   2.257   4.372
 7797TIP3    H123332   6.221   2.295   4.351
 7797TIP3    H223333   6.365   2.290   4.305
 7798TIP3   OH223334   7.020   5.060   6.154
 7798TIP3    H123335   7.055   4.992   6.211
 7798TIP3    H223336   7.098   5.110   6.127
 7799TIP3   OH223337   4.672   5.398   0.937
 7799TIP3    H123338   4.683   5.493   0.936
 7799TIP3    H223339   4.683   5.374   1.029
 7800TIP3   OH223340   4.817   3.841   0.779
 7800TIP3    H123341   4.866   3.917   0.811
 7800TIP3    H223342   4.787   3.797   0.859
 7801TIP3   OH223343   1.465   1.261   1.145
 7801TIP3    H123344   1.432   1.177   1.112
 7801TIP3    H223345   1.518   1.238   1.221
 7802TIP3   OH223346   2.767   5.793   4.666
 7802TIP3    H123347   2.802   5.882   4.676
 7802TIP3    H223348   2.785   5.750   4.750
 7803TIP3   OH223349   8.265   1.847   2.515
 7803TIP3    H123350   8.214   1.843   2.596
 7803TIP3    H223351   8.217   1.907   2.458
 7804TIP3   OH223352   1.757   5.521   5.480
 7804TIP3    H123353   1.749   5.616   5.476
 7804TIP3    H223354   1.763   5.494   5.388
 7805TIP3   OH223355   6.449   4.793   5.732
 7805TIP3    H123356   6.417   4.748   5.811
 7805TIP3    H223357   6.541   4.768   5.727
 7806TIP3   OH223358   0.222   5.958   6.784
 7806TIP3    H123359   0.222   5.886   6.721
 7806TIP3    H223360   0.176   6.029   6.738
 7807TIP3   OH223361   7.464   2.340   4.492
 7807TIP3    H123362   7.438   2.317   4.581
 7807TIP3    H223363   7.472   2.257   4.446
 7808TIP3   OH223364   3.322   3.594   2.768
 7808TIP3    H123365   3.366   3.589   2.683
 7808TIP3    H223366   3.321   3.504   2.799
 7809TIP3   OH223367   7.269   6.250   3.308
 7809TIP3    H123368   7.256   6.215   3.219
 7809TIP3    H223369   7.192   6.219   3.357
 7810TIP3   OH223370   4.272   1.729   4.372
 7810TIP3    H123371   4.338   1.673   4.411
 7810TIP3    H223372   4.194   1.715   4.426
 7811TIP3   OH223373   1.930   7.658   2.515
 7811TIP3    H123374   1.894   7.719   2.580
 7811TIP3    H223375   2.011   7.698   2.486
 7812TIP3   OH223376   0.674   2.554   6.384
 7812TIP3    H123377   0.668   2.648   6.368
 7812TIP3    H223378   0.658   2.545   6.478
 7813TIP3   OH223379   7.273   0.287   2.653
 7813TIP3    H123380   7.365   0.312   2.641
 7813TIP3    H223381   7.265   0.269   2.746
 7814TIP3   OH223382   4.891   0.369   3.954
 7814TIP3    H123383   4.862   0.410   4.035
 7814TIP3    H223384   4.971   0.321   3.979
 7815TIP3   OH223385   7.500   6.449   4.756
 7815TIP3    H123386   7.530   6.393   4.685
 7815TIP3    H223387   7.417   6.486   4.725
 7816TIP3   OH223388   7.649   6.748   3.262
 7816TIP3    H123389   7.618   6.728   3.351
 7816TIP3    H223390   7.636   6.666   3.214
 7817TIP3   OH223391   2.610   3.544   6.493
 7817TIP3    H123392   2.541   3.587   6.443
 7817TIP3    H223393   2.689   3.559   6.441
 7818TIP3   OH223394   7.106   0.609   5.580
 7818TIP3    H123395   7.113   0.690   5.531
 7818TIP3    H223396   7.054   0.632   5.657
 7819TIP3   OH223397   6.701   7.357   0.597
 7819TIP3    H123398   6.794   7.377   0.601
 7819TIP3    H223399   6.691   7.279   0.651
 7820TIP3   OH223400   7.837   4.090   5.468
 7820TIP3    H123401   7.811   4.023   5.404
 7820TIP3    H223402   7.755   4.114   5.512
 7821TIP3   OH223403   4.547   0.842   1.429
 7821TIP3    H123404   4.584   0.850   1.342
 7821TIP3    H223405   4.457   0.874   1.420
 7822TIP3   OH223406   4.906   2.097   1.057
 7822TIP3    H123407   4.844   2.045   1.107
 7822TIP3    H223408   4.986   2.044   1.057
 7823TIP3   OH223409   1.988   3.464   5.209
 7823TIP3    H123410   1.900   3.502   5.216
 7823TIP3    H223411   2.010   3.471   5.116
 7824TIP3   OH223412   5.850   7.682   2.445
 7824TIP3    H123413   5.806   7.747   2.390
 7824TIP3    H223414   5.929   7.659   2.396
 7825TIP3   OH223415   6.132   5.849   6.327
 7825TIP3    H123416   6.090   5.820   6.246
 7825TIP3    H223417   6.063   5.846   6.393
 7826TIP3   OH223418   1.742   6.391   6.745
 7826TIP3    H123419   1.697   6.420   6.665
 7826TIP3    H223420   1.694   6.313   6.772
 7827TIP3   OH223421   1.679   6.108   1.657
 7827TIP3    H123422   1.770   6.117   1.687
 7827TIP3    H223423   1.678   6.024   1.610
 7828TIP3   OH223424   5.534   0.177   4.962
 7828TIP3    H123425   5.532   0.123   5.042
 7828TIP3    H223426   5.538   0.113   4.891
 7829TIP3   OH223427   4.029   4.638   0.736
 7829TIP3    H123428   4.015   4.727   0.770
 7829TIP3    H223429   4.123   4.624   0.741
 7830TIP3   OH223430   2.840   6.157   1.327
 7830TIP3    H123431   2.784   6.233   1.309
 7830TIP3    H223432   2.788   6.081   1.303
 7831TIP3   OH223433   7.442   0.992   3.012
 7831TIP3    H123434   7.366   1.039   3.047
 7831TIP3    H223435   7.414   0.964   2.925
 7832TIP3   OH223436   3.333   7.544   0.015
 7832TIP3    H123437   3.381   7.605  -0.041
 7832TIP3    H223438   3.250   7.589   0.033
 7833TIP3   OH223439   4.854   0.586   2.319
 7833TIP3    H123440   4.795   0.525   2.363
 7833TIP3    H223441   4.893   0.534   2.249
 7834TIP3   OH223442   1.868   1.803   4.518
 7834TIP3    H123443   1.949   1.755   4.531
 7834TIP3    H223444   1.823   1.757   4.447
 7835TIP3   OH223445   3.016   0.832   1.137
 7835TIP3    H123446   3.054   0.919   1.147
 7835TIP3    H223447   3.029   0.789   1.222
 7836TIP3   OH223448   3.977   5.932   1.432
 7836TIP3    H123449   3.908   5.956   1.494
 7836TIP3    H223450   4.054   5.918   1.486
 7837TIP3   OH223451   2.312   7.034   3.668
 7837TIP3    H123452   2.218   7.031   3.651
 7837TIP3    H223453   2.330   7.126   3.687
 7838TIP3   OH223454   4.961   5.965   0.240
 7838TIP3    H123455   4.881   6.017   0.243
 7838TIP3    H223456   5.013   6.003   0.169
 7839TIP3   OH223457   3.530   7.784   4.967
 7839TIP3    H123458   3.494   7.791   5.055
 7839TIP3    H223459   3.548   7.875   4.942
 7840TIP3   OH223460   3.062   7.742   6.243
 7840TIP3    H123461   3.105   7.809   6.296
 7840TIP3    H223462   2.969   7.749   6.265
 7841TIP3   OH223463   7.943   0.887   3.722
 7841TIP3    H123464   8.016   0.935   3.761
 7841TIP3    H223465   7.971   0.872   3.631
 7842TIP3   OH223466   1.303   6.918   2.723
 7842TIP3    H123467   1.386   6.922   2.676
 7842TIP3    H223468   1.296   7.003   2.767
 7843TIP3   OH223469   0.761   3.666   3.698
 7843TIP3    H123470   0.684   3.647   3.751
 7843TIP3    H223471   0.834   3.628   3.747
 7844TIP3   OH223472   2.176   6.090   4.345
 7844TIP3    H123473   2.106   6.051   4.398
 7844TIP3    H223474   2.156   6.183   4.344
 7845TIP3   OH223475   0.879   2.835   0.422
 7845TIP3    H123476   0.926   2.917   0.436
 7845TIP3    H223477   0.813   2.856   0.356
 7846TIP3   OH223478   3.129   4.274   4.088
 7846TIP3    H123479   3.139   4.183   4.118
 7846TIP3    H223480   3.179   4.325   4.152
 7847TIP3   OH223481   0.576   5.534   3.806
 7847TIP3    H123482   0.654   5.479   3.804
 7847TIP3    H223483   0.544   5.527   3.896
 7848TIP3   OH223484   3.807   1.096   4.856
 7848TIP3    H123485   3.781   1.014   4.813
 7848TIP3    H223486   3.872   1.068   4.921
 7849TIP3   OH223487   2.536   6.923   6.811
 7849TIP3    H123488   2.482   6.845   6.804
 7849TIP3    H223489   2.537   6.960   6.723
 7850TIP3   OH223490   5.674   7.225   0.449
 7850TIP3    H123491   5.583   7.204   0.429
 7850TIP3    H223492   5.718   7.141   0.449
 7851TIP3   OH223493   5.102   6.380   5.920
 7851TIP3    H123494   5.179   6.352   5.970
 7851TIP3    H223495   5.136   6.397   5.832
 7852TIP3   OH223496   1.527   0.426   4.469
 7852TIP3    H123497   1.548   0.500   4.526
 7852TIP3    H223498   1.601   0.420   4.409
 7853TIP3   OH223499   8.097   0.328   6.770
 7853TIP3    H123500   8.152   0.291   6.700
 7853TIP3    H223501   8.056   0.251   6.810
 7854TIP3   OH223502   2.071   6.974   0.808
 7854TIP3    H123503   2.036   6.891   0.840
 7854TIP3    H223504   2.085   6.960   0.715
 7855TIP3   OH223505   4.953   5.738   2.803
 7855TIP3    H123506   4.932   5.675   2.872
 7855TIP3    H223507   5.044   5.760   2.817
 7856TIP3   OH223508   1.563   5.418   3.003
 7856TIP3    H123509   1.508   5.445   2.929
 7856TIP3    H223510   1.587   5.499   3.047
 7857TIP3   OH223511   2.418   3.089   3.739
 7857TIP3    H123512   2.465   3.096   3.656
 7857TIP3    H223513   2.467   3.143   3.800
 7858TIP3   OH223514   1.995   1.699   0.188
 7858TIP3    H123515   1.967   1.729   0.274
 7858TIP3    H223516   2.040   1.774   0.149
 7859TIP3   OH223517   0.517   6.621   1.646
 7859TIP3    H123518   0.574   6.680   1.694
 7859TIP3    H223519   0.460   6.583   1.713
 7860TIP3   OH223520   1.954   6.736   4.725
 7860TIP3    H123521   1.919   6.674   4.661
 7860TIP3    H223522   1.899   6.723   4.803
 7861TIP3   OH223523   5.084   0.271   2.952
 7861TIP3    H123524   5.075   0.223   3.035
 7861TIP3    H223525   4.995   0.302   2.934
 7862TIP3   OH223526   6.442   0.709   4.358
 7862TIP3    H123527   6.377   0.753   4.303
 7862TIP3    H223528   6.501   0.666   4.296
 7863TIP3   OH223529   2.530   3.742   2.853
 7863TIP3    H123530   2.585   3.791   2.915
 7863TIP3    H223531   2.441   3.755   2.885
 7864TIP3   OH223532   4.538   0.173   6.620
 7864TIP3    H123533   4.499   0.257   6.646
 7864TIP3    H223534   4.465   0.111   6.624
 7865TIP3   OH223535   2.512   4.576   3.518
 7865TIP3    H123536   2.542   4.652   3.469
 7865TIP3    H223537   2.433   4.547   3.472
 7866TIP3   OH223538   2.381   0.855   2.698
 7866TIP3    H123539   2.402   0.819   2.612
 7866TIP3    H223540   2.458   0.905   2.723
 7867TIP3   OH223541   6.572   5.766   4.704
 7867TIP3    H123542   6.575   5.732   4.615
 7867TIP3    H223543   6.553   5.690   4.759
 7868TIP3   OH223544   2.817   6.083   0.335
 7868TIP3    H123545   2.762   6.105   0.259
 7868TIP3    H223546   2.799   5.990   0.351
 7869TIP3   OH223547   1.056   2.507   4.345
 7869TIP3    H123548   1.109   2.448   4.293
 7869TIP3    H223549   1.015   2.451   4.411
 7870TIP3   OH223550   2.076   7.583   2.148
 7870TIP3    H123551   2.073   7.507   2.206
 7870TIP3    H223552   2.149   7.565   2.089
 7871TIP3   OH223553   6.737   7.792   5.417
 7871TIP3    H123554   6.779   7.849   5.353
 7871TIP3    H223555   6.647   7.822   5.421
 7872TIP3   OH223556   0.879   1.059   6.660
 7872TIP3    H123557   0.897   1.032   6.750
 7872TIP3    H223558   0.963   1.052   6.616
 7873TIP3   OH223559   6.533   4.706   2.933
 7873TIP3    H123560   6.558   4.614   2.940
 7873TIP3    H223561   6.445   4.704   2.894
 7874TIP3   OH223562   4.651   2.135   2.818
 7874TIP3    H123563   4.602   2.117   2.737
 7874TIP3    H223564   4.695   2.218   2.801
 7875TIP3   OH223565   7.797   0.703   6.642
 7875TIP3    H123566   7.828   0.763   6.573
 7875TIP3    H223567   7.866   0.636   6.648
 7876TIP3   OH223568   1.989   3.578   4.081
 7876TIP3    H123569   1.919   3.522   4.048
 7876TIP3    H223570   2.066   3.553   4.029
 7877TIP3   OH223571   2.328   6.162   3.044
 7877TIP3    H123572   2.365   6.195   2.962
 7877TIP3    H223573   2.238   6.138   3.023
 7878TIP3   OH223574   8.265   7.217   2.661
 7878TIP3    H123575   8.244   7.144   2.719
 7878TIP3    H223576   8.310   7.176   2.586
 7879TIP3   OH223577   3.572   5.040   5.744
 7879TIP3    H123578   3.534   5.122   5.776
 7879TIP3    H223579   3.533   5.026   5.658
 7880TIP3   OH223580   6.771   4.695   5.978
 7880TIP3    H123581   6.783   4.608   6.017
 7880TIP3    H223582   6.860   4.731   5.974
 7881TIP3   OH223583   5.446   2.708   5.083
 7881TIP3    H123584   5.406   2.639   5.030
 7881TIP3    H223585   5.505   2.662   5.143
 7882TIP3   OH223586   7.069   0.103   5.054
 7882TIP3    H123587   7.052   0.058   4.972
 7882TIP3    H223588   7.088   0.194   5.028
 7883TIP3   OH223589   7.549   0.931   6.335
 7883TIP3    H123590   7.547   0.859   6.399
 7883TIP3    H223591   7.604   0.898   6.264
 7884TIP3   OH223592   5.516   4.012   5.639
 7884TIP3    H123593   5.568   4.042   5.564
 7884TIP3    H223594   5.445   4.076   5.646
 7885TIP3   OH223595   7.929   0.018   3.144
 7885TIP3    H123596   7.956   0.108   3.158
 7885TIP3    H223597   7.988  -0.034   3.199
 7886TIP3   OH223598   2.482   4.738   0.389
 7886TIP3    H123599   2.390   4.753   0.369
 7886TIP3    H223600   2.526   4.817   0.359
 7887TIP3   OH223601   6.255   4.350   4.805
 7887TIP3    H123602   6.323   4.415   4.791
 7887TIP3    H223603   6.301   4.273   4.839
 7888TIP3   OH223604   5.498   6.040   3.550
 7888TIP3    H123605   5.518   6.058   3.642
 7888TIP3    H223606   5.498   6.126   3.509
 7889TIP3   OH223607   7.512   7.464   1.725
 7889TIP3    H123608   7.487   7.411   1.649
 7889TIP3    H223609   7.430   7.486   1.769
 7890TIP3   OH223610   6.725   5.321   4.686
 7890TIP3    H123611   6.760   5.308   4.775
 7890TIP3    H223612   6.666   5.247   4.673
 7891TIP3   OH223613   2.865   1.384   3.426
 7891TIP3    H123614   2.807   1.439   3.373
 7891TIP3    H223615   2.883   1.308   3.370
 7892TIP3   OH223616   5.635   0.178   5.542
 7892TIP3    H123617   5.671   0.148   5.625
 7892TIP3    H223618   5.565   0.239   5.567
 7893TIP3   OH223619   0.940   0.388   5.506
 7893TIP3    H123620   0.975   0.300   5.520
 7893TIP3    H223621   1.006   0.433   5.453
 7894TIP3   OH223622   1.331   0.192   2.091
 7894TIP3    H123623   1.409   0.197   2.145
 7894TIP3    H223624   1.307   0.283   2.073
 7895TIP3   OH223625   7.839   6.804   3.046
 7895TIP3    H123626   7.780   6.800   3.122
 7895TIP3    H223627   7.913   6.857   3.076
 7896TIP3   OH223628   0.396   3.790   5.316
 7896TIP3    H123629   0.424   3.872   5.275
 7896TIP3    H223630   0.476   3.754   5.354
 7897TIP3   OH223631   4.189   6.171   5.198
 7897TIP3    H123632   4.263   6.179   5.138
 7897TIP3    H223633   4.112   6.192   5.145
 7898TIP3   OH223634   6.117   5.578   1.532
 7898TIP3    H123635   6.204   5.563   1.571
 7898TIP3    H223636   6.135   5.615   1.446
 7899TIP3   OH223637   4.749   4.620   4.700
 7899TIP3    H123638   4.769   4.569   4.779
 7899TIP3    H223639   4.680   4.680   4.728
 7900TIP3   OH223640   7.977   4.378   2.171
 7900TIP3    H123641   7.974   4.469   2.199
 7900TIP3    H223642   7.952   4.328   2.249
 7901TIP3   OH223643   3.240   6.493   3.341
 7901TIP3    H123644   3.311   6.505   3.278
 7901TIP3    H223645   3.218   6.581   3.370
 7902TIP3   OH223646   3.438   5.132   6.485
 7902TIP3    H123647   3.525   5.169   6.470
 7902TIP3    H223648   3.379   5.207   6.483
 7903TIP3   OH223649   6.956   6.974   6.708
 7903TIP3    H123650   6.922   7.010   6.626
 7903TIP3    H223651   6.975   7.050   6.762
 7904TIP3   OH223652   5.859   7.444   5.329
 7904TIP3    H123653   5.933   7.415   5.383
 7904TIP3    H223654   5.855   7.381   5.258
 7905TIP3   OH223655   1.782   0.044   2.204
 7905TIP3    H123656   1.839   0.062   2.129
 7905TIP3    H223657   1.705   0.099   2.190
 7906TIP3   OH223658   7.842   6.638   2.845
 7906TIP3    H123659   7.899   6.573   2.886
 7906TIP3    H223660   7.831   6.706   2.912
 7907TIP3   OH223661   3.269   5.689   3.197
 7907TIP3    H123662   3.270   5.732   3.282
 7907TIP3    H223663   3.298   5.599   3.215
 7908TIP3   OH223664   6.701   1.135   0.411
 7908TIP3    H123665   6.713   1.159   0.503
 7908TIP3    H223666   6.688   1.219   0.366
 7909TIP3   OH223667   5.990   0.097   1.285
 7909TIP3    H123668   5.966   0.165   1.222
 7909TIP3    H223669   5.948   0.125   1.367
 7910TIP3   OH223670   1.455   7.532   4.190
 7910TIP3    H123671   1.443   7.622   4.161
 7910TIP3    H223672   1.423   7.532   4.281
 7911TIP3   OH223673   1.517   6.236   1.184
 7911TIP3    H123674   1.502   6.309   1.244
 7911TIP3    H223675   1.549   6.278   1.104
 7912TIP3   OH223676   5.331   6.903   4.754
 7912TIP3    H123677   5.267   6.919   4.823
 7912TIP3    H223678   5.283   6.853   4.688
 7913TIP3   OH223679   5.127   4.369   3.489
 7913TIP3    H123680   5.142   4.455   3.448
 7913TIP3    H223681   5.050   4.334   3.444
 7914TIP3   OH223682   0.301   3.523   1.027
 7914TIP3    H123683   0.219   3.537   1.074
 7914TIP3    H223684   0.350   3.604   1.040
 7915TIP3   OH223685   1.207   2.035   4.917
 7915TIP3    H123686   1.280   1.973   4.921
 7915TIP3    H223687   1.129   1.980   4.909
 7916TIP3   OH223688   7.068   6.794   0.892
 7916TIP3    H123689   7.008   6.725   0.919
 7916TIP3    H223690   7.107   6.825   0.974
 7917TIP3   OH223691   1.500   4.863   6.052
 7917TIP3    H123692   1.444   4.797   6.092
 7917TIP3    H223693   1.485   4.855   5.958
 7918TIP3   OH223694   1.000   1.461   1.766
 7918TIP3    H123695   1.079   1.435   1.718
 7918TIP3    H223696   0.987   1.391   1.830
 7919TIP3   OH223697   0.662   6.390   6.769
 7919TIP3    H123698   0.648   6.438   6.851
 7919TIP3    H223699   0.631   6.450   6.701
 7920TIP3   OH223700   4.840   0.455   2.615
 7920TIP3    H123701   4.908   0.388   2.606
 7920TIP3    H223702   4.767   0.422   2.562
 7921TIP3   OH223703   0.167   7.132   5.629
 7921TIP3    H123704   0.207   7.207   5.586
 7921TIP3    H223705   0.230   7.061   5.617
 7922TIP3   OH223706   1.140   5.833   0.134
 7922TIP3    H123707   1.084   5.756   0.121
 7922TIP3    H223708   1.106   5.897   0.073
 7923TIP3   OH223709   7.499   1.773   5.434
 7923TIP3    H123710   7.581   1.820   5.451
 7923TIP3    H223711   7.447   1.833   5.381
 7924TIP3   OH223712   4.343   7.222   0.902
 7924TIP3    H123713   4.372   7.223   0.811
 7924TIP3    H223714   4.367   7.135   0.934
 7925TIP3   OH223715   8.318   4.141   4.920
 7925TIP3    H123716   8.347   4.131   4.829
 7925TIP3    H223717   8.361   4.221   4.951
 7926TIP3   OH223718   6.505   7.533   5.593
 7926TIP3    H123719   6.512   7.439   5.604
 7926TIP3    H223720   6.411   7.550   5.588
 7927TIP3   OH223721   4.251   5.900   5.275
 7927TIP3    H123722   4.311   5.902   5.349
 7927TIP3    H223723   4.223   5.991   5.264
 7928TIP3   OH223724   6.127   7.666   6.374
 7928TIP3    H123725   6.189   7.738   6.366
 7928TIP3    H223726   6.106   7.662   6.467
 7929TIP3   OH223727   1.253   3.192   4.064
 7929TIP3    H123728   1.175   3.229   4.106
 7929TIP3    H223729   1.324   3.210   4.125
 7930TIP3   OH223730   0.256   7.407   2.597
 7930TIP3    H123731   0.219   7.470   2.535
 7930TIP3    H223732   0.216   7.430   2.681
 7931TIP3   OH223733   4.015   0.994   1.822
 7931TIP3    H123734   4.076   0.949   1.764
 7931TIP3    H223735   4.001   1.079   1.780
 7932TIP3   OH223736   6.575   3.358   1.475
 7932TIP3    H123737   6.527   3.303   1.414
 7932TIP3    H223738   6.507   3.405   1.524
 7933TIP3   OH223739   3.793   5.299   0.579
 7933TIP3    H123740   3.700   5.299   0.554
 7933TIP3    H223741   3.807   5.386   0.616
 7934TIP3   OH223742   3.357   2.714   4.416
 7934TIP3    H123743   3.274   2.722   4.370
 7934TIP3    H223744   3.335   2.670   4.498
 7935TIP3   OH223745   7.924   2.872   2.003
 7935TIP3    H123746   7.853   2.927   2.035
 7935TIP3    H223747   7.881   2.804   1.952
 7936TIP3   OH223748   6.121   3.340   0.147
 7936TIP3    H123749   6.043   3.357   0.201
 7936TIP3    H223750   6.121   3.245   0.134
 7937TIP3   OH223751   7.137   7.479   0.741
 7937TIP3    H123752   7.064   7.531   0.776
 7937TIP3    H223753   7.189   7.543   0.691
 7938TIP3   OH223754   4.925   3.865   1.327
 7938TIP3    H123755   4.924   3.961   1.329
 7938TIP3    H223756   4.833   3.840   1.324
 7939TIP3   OH223757   6.284   2.792   1.601
 7939TIP3    H123758   6.313   2.875   1.564
 7939TIP3    H223759   6.232   2.816   1.677
 7940TIP3   OH223760   0.338   0.986   0.993
 7940TIP3    H123761   0.283   0.925   1.042
 7940TIP3    H223762   0.328   0.959   0.902
 7941TIP3   OH223763   0.870   4.598   4.469
 7941TIP3    H123764   0.826   4.646   4.399
 7941TIP3    H223765   0.800   4.549   4.512
 7942TIP3   OH223766   3.688   5.906   0.323
 7942TIP3    H123767   3.755   5.856   0.370
 7942TIP3    H223768   3.667   5.979   0.381
 7943TIP3   OH223769   1.331   6.861   2.318
 7943TIP3    H123770   1.253   6.905   2.352
 7943TIP3    H223771   1.402   6.922   2.335
 7944TIP3   OH223772   6.611   6.060   1.943
 7944TIP3    H123773   6.581   6.107   2.021
 7944TIP3    H223774   6.698   6.095   1.926
 7945TIP3   OH223775   5.745   6.306   4.389
 7945TIP3    H123776   5.685   6.367   4.432
 7945TIP3    H223777   5.829   6.351   4.389
 7946TIP3   OH223778   5.784   3.941   3.833
 7946TIP3    H123779   5.785   4.035   3.819
 7946TIP3    H223780   5.876   3.917   3.845
 7947TIP3   OH223781   1.834   2.333   2.652
 7947TIP3    H123782   1.786   2.415   2.650
 7947TIP3    H223783   1.838   2.305   2.561
 7948TIP3   OH223784   4.332   6.908   3.335
 7948TIP3    H123785   4.261   6.949   3.385
 7948TIP3    H223786   4.411   6.930   3.384
 7949TIP3   OH223787   3.615   2.226   3.259
 7949TIP3    H123788   3.586   2.217   3.349
 7949TIP3    H223789   3.579   2.310   3.230
 7950TIP3   OH223790   6.809   3.011   2.530
 7950TIP3    H123791   6.879   2.958   2.568
 7950TIP3    H223792   6.732   2.954   2.532
 7951TIP3   OH223793   1.689   1.713   1.663
 7951TIP3    H123794   1.760   1.682   1.606
 7951TIP3    H223795   1.622   1.744   1.602
 7952TIP3   OH223796   5.143   3.018   1.915
 7952TIP3    H123797   5.063   3.016   1.862
 7952TIP3    H223798   5.179   2.930   1.907
 7953TIP3   OH223799   0.311   1.662   5.143
 7953TIP3    H123800   0.296   1.726   5.073
 7953TIP3    H223801   0.224   1.649   5.182
 7954TIP3   OH223802   4.473   5.580   2.029
 7954TIP3    H123803   4.454   5.651   1.967
 7954TIP3    H223804   4.539   5.615   2.087
 7955TIP3   OH223805   7.347   5.097   4.184
 7955TIP3    H123806   7.370   5.109   4.276
 7955TIP3    H223807   7.359   5.003   4.169
 7956TIP3   OH223808   1.720   7.865   0.485
 7956TIP3    H123809   1.672   7.901   0.410
 7956TIP3    H223810   1.766   7.941   0.521
 7957TIP3   OH223811   7.410   7.555   5.851
 7957TIP3    H123812   7.470   7.503   5.904
 7957TIP3    H223813   7.395   7.635   5.903
 7958TIP3   OH223814   0.306   2.647   1.772
 7958TIP3    H123815   0.307   2.741   1.754
 7958TIP3    H223816   0.326   2.640   1.866
 7959TIP3   OH223817   5.293   2.462   1.808
 7959TIP3    H123818   5.280   2.381   1.759
 7959TIP3    H223819   5.339   2.520   1.747
 7960TIP3   OH223820   2.226   7.006   3.127
 7960TIP3    H123821   2.176   6.959   3.194
 7960TIP3    H223822   2.268   6.936   3.076
 7961TIP3   OH223823   7.681   4.899   0.791
 7961TIP3    H123824   7.592   4.874   0.814
 7961TIP3    H223825   7.680   4.910   0.696
 7962TIP3   OH223826   3.194   6.518   3.856
 7962TIP3    H123827   3.217   6.450   3.920
 7962TIP3    H223828   3.112   6.488   3.817
 7963TIP3   OH223829   5.033   6.002   3.822
 7963TIP3    H123830   5.091   6.075   3.801
 7963TIP3    H223831   4.949   6.043   3.841
 7964TIP3   OH223832   0.131   3.119   5.987
 7964TIP3    H123833   0.203   3.145   6.044
 7964TIP3    H223834   0.107   3.031   6.017
 7965TIP3   OH223835   5.810   2.299   6.231
 7965TIP3    H123836   5.738   2.323   6.172
 7965TIP3    H223837   5.884   2.284   6.173
 7966TIP3   OH223838   6.208   1.943   3.223
 7966TIP3    H123839   6.272   1.993   3.172
 7966TIP3    H223840   6.167   2.007   3.281
 7967TIP3   OH223841   4.004   7.627   5.214
 7967TIP3    H123842   3.919   7.653   5.179
 7967TIP3    H223843   3.998   7.648   5.307
 7968TIP3   OH223844   1.656   1.691   2.580
 7968TIP3    H123845   1.575   1.739   2.560
 7968TIP3    H223846   1.648   1.667   2.672
 7969TIP3   OH223847   0.505   3.971   1.643
 7969TIP3    H123848   0.544   3.893   1.684
 7969TIP3    H223849   0.412   3.965   1.664
 7970TIP3   OH223850   2.279   7.260   6.803
 7970TIP3    H123851   2.273   7.239   6.897
 7970TIP3    H223852   2.209   7.208   6.763
 7971TIP3   OH223853   2.409   1.105   6.893
 7971TIP3    H123854   2.401   1.178   6.832
 7971TIP3    H223855   2.458   1.038   6.844
 7972TIP3   OH223856   0.876   6.386   6.455
 7972TIP3    H123857   0.799   6.329   6.451
 7972TIP3    H223858   0.840   6.473   6.475
 7973TIP3   OH223859   8.285   0.592   5.729
 7973TIP3    H123860   8.372   0.620   5.699
 7973TIP3    H223861   8.301   0.509   5.775
 7974TIP3   OH223862   4.972   6.466   6.583
 7974TIP3    H123863   5.062   6.486   6.557
 7974TIP3    H223864   4.953   6.382   6.540
 7975TIP3   OH223865   2.569   4.665   5.470
 7975TIP3    H123866   2.641   4.686   5.411
 7975TIP3    H223867   2.582   4.573   5.493
 7976TIP3   OH223868   7.154   0.466   1.515
 7976TIP3    H123869   7.124   0.376   1.528
 7976TIP3    H223870   7.192   0.466   1.427
 7977TIP3   OH223871   6.148   6.778   5.878
 7977TIP3    H123872   6.168   6.844   5.812
 7977TIP3    H223873   6.126   6.828   5.956
 7978TIP3   OH223874   3.584   7.826   0.553
 7978TIP3    H123875   3.547   7.737   0.553
 7978TIP3    H223876   3.564   7.859   0.465
 7979TIP3   OH223877   4.722   6.720   5.901
 7979TIP3    H123878   4.795   6.706   5.840
 7979TIP3    H223879   4.692   6.809   5.883
 7980TIP3   OH223880   4.030   1.388   3.942
 7980TIP3    H123881   4.068   1.471   3.969
 7980TIP3    H223882   4.104   1.337   3.910
 7981TIP3   OH223883   7.344   1.279   1.239
 7981TIP3    H123884   7.322   1.187   1.251
 7981TIP3    H223885   7.335   1.295   1.145
 7982TIP3   OH223886   3.045   7.202   1.419
 7982TIP3    H123887   3.136   7.227   1.433
 7982TIP3    H223888   2.997   7.248   1.488
 7983TIP3   OH223889   4.835   5.282   0.763
 7983TIP3    H123890   4.784   5.342   0.817
 7983TIP3    H223891   4.833   5.322   0.675
 7984TIP3   OH223892   1.272   7.240   3.211
 7984TIP3    H123893   1.360   7.254   3.178
 7984TIP3    H223894   1.216   7.243   3.133
 7985TIP3   OH223895   4.041   3.825   4.988
 7985TIP3    H123896   4.092   3.851   4.911
 7985TIP3    H223897   3.980   3.898   5.002
 7986TIP3   OH223898   6.353   2.628   1.168
 7986TIP3    H123899   6.366   2.552   1.111
 7986TIP3    H223900   6.282   2.602   1.226
 7987TIP3   OH223901   1.211   6.408   6.689
 7987TIP3    H123902   1.290   6.459   6.707
 7987TIP3    H223903   1.147   6.441   6.753
 7988TIP3   OH223904   3.985   3.644   3.977
 7988TIP3    H123905   4.017   3.554   3.969
 7988TIP3    H223906   3.954   3.666   3.889
 7989TIP3   OH223907   1.735   4.806   0.625
 7989TIP3    H123908   1.774   4.728   0.587
 7989TIP3    H223909   1.778   4.814   0.711
 7990TIP3   OH223910   3.947   0.494   2.884
 7990TIP3    H123911   3.942   0.540   2.800
 7990TIP3    H223912   4.028   0.443   2.878
 7991TIP3   OH223913   5.371   2.453   4.990
 7991TIP3    H123914   5.327   2.382   5.037
 7991TIP3    H223915   5.462   2.448   5.019
 7992TIP3   OH223916   4.557   3.877   2.868
 7992TIP3    H123917   4.633   3.830   2.902
 7992TIP3    H223918   4.591   3.927   2.793
 7993TIP3   OH223919   6.222   4.558   2.548
 7993TIP3    H123920   6.199   4.480   2.497
 7993TIP3    H223921   6.272   4.523   2.622
 7994TIP3   OH223922   2.771   2.196   5.988
 7994TIP3    H123923   2.829   2.269   5.969
 7994TIP3    H223924   2.683   2.232   5.978
 7995TIP3   OH223925   7.270   5.195   1.570
 7995TIP3    H123926   7.243   5.147   1.648
 7995TIP3    H223927   7.201   5.178   1.506
 7996TIP3   OH223928   3.188   5.105   5.116
 7996TIP3    H123929   3.146   5.188   5.140
 7996TIP3    H223930   3.129   5.038   5.149
 7997TIP3   OH223931   4.521   0.196   3.467
 7997TIP3    H123932   4.587   0.134   3.438
 7997TIP3    H223933   4.567   0.252   3.530
 7998TIP3   OH223934   1.239   2.283   3.723
 7998TIP3    H123935   1.333   2.288   3.739
 7998TIP3    H223936   1.224   2.338   3.647
 7999TIP3   OH223937   7.045   7.726   5.713
 7999TIP3    H123938   7.071   7.789   5.646
 7999TIP3    H223939   7.063   7.771   5.796
 8000TIP3   OH223940   3.608   0.097   6.401
 8000TIP3    H123941   3.663   0.160   6.447
 8000TIP3    H223942   3.667   0.052   6.341
 8001TIP3   OH223943   1.926   2.528   1.630
 8001TIP3    H123944   1.924   2.465   1.558
 8001TIP3    H223945   1.838   2.566   1.632
 8002TIP3   OH223946   2.549   4.321   0.646
 8002TIP3    H123947   2.561   4.381   0.720
 8002TIP3    H223948   2.493   4.369   0.585
 8003TIP3   OH223949   6.812   0.581   4.576
 8003TIP3    H123950   6.893   0.593   4.625
 8003TIP3    H223951   6.805   0.659   4.521
 8004TIP3   OH223952   3.892   7.814   4.186
 8004TIP3    H123953   3.985   7.832   4.176
 8004TIP3    H223954   3.863   7.874   4.256
 8005TIP3   OH223955   4.523   6.814   5.070
 8005TIP3    H123956   4.503   6.722   5.086
 8005TIP3    H223957   4.579   6.813   4.992
 8006TIP3   OH223958   1.313   7.759   0.322
 8006TIP3    H123959   1.278   7.843   0.294
 8006TIP3    H223960   1.237   7.702   0.327
 8007TIP3   OH223961   6.275   2.493   2.682
 8007TIP3    H123962   6.188   2.454   2.681
 8007TIP3    H223963   6.261   2.584   2.707
 8008TIP3   OH223964   7.767   3.492   0.515
 8008TIP3    H123965   7.790   3.491   0.422
 8008TIP3    H223966   7.760   3.585   0.538
 8009TIP3   OH223967   3.050   3.966   2.873
 8009TIP3    H123968   3.050   4.042   2.932
 8009TIP3    H223969   3.036   4.004   2.786
 8010TIP3   OH223970   8.173   5.326   1.120
 8010TIP3    H123971   8.224   5.249   1.145
 8010TIP3    H223972   8.215   5.398   1.166
 8011TIP3   OH223973   5.409   4.633   1.567
 8011TIP3    H123974   5.363   4.681   1.635
 8011TIP3    H223975   5.362   4.550   1.560
 8012TIP3   OH223976   4.372   3.414   1.590
 8012TIP3    H123977   4.366   3.432   1.496
 8012TIP3    H223978   4.391   3.499   1.629
 8013TIP3   OH223979   7.129   6.377   0.006
 8013TIP3    H123980   7.101   6.463   0.038
 8013TIP3    H223981   7.213   6.392  -0.036
 8014TIP3   OH223982   1.155   2.693   6.724
 8014TIP3    H123983   1.168   2.602   6.748
 8014TIP3    H223984   1.234   2.717   6.675
 8015TIP3   OH223985   7.904   3.530   3.323
 8015TIP3    H123986   7.916   3.624   3.314
 8015TIP3    H223987   7.945   3.493   3.244
 8016TIP3   OH223988   6.973   2.256   2.549
 8016TIP3    H123989   6.953   2.318   2.619
 8016TIP3    H223990   6.888   2.231   2.514
 8017TIP3   OH223991   0.457   2.018   2.200
 8017TIP3    H123992   0.412   1.935   2.181
 8017TIP3    H223993   0.494   2.044   2.116
 8018TIP3   OH223994   5.671   6.260   4.082
 8018TIP3    H123995   5.645   6.232   4.170
 8018TIP3    H223996   5.653   6.354   4.081
 8019TIP3   OH223997   2.425   4.882   1.377
 8019TIP3    H123998   2.502   4.930   1.408
 8019TIP3    H223999   2.371   4.869   1.455
 8020TIP3   OH224000   5.348  -0.001   4.153
 8020TIP3    H124001   5.441   0.014   4.139
 8020TIP3    H224002   5.337   0.000   4.248
 8021TIP3   OH224003   1.850   1.102   4.731
 8021TIP3    H124004   1.935   1.060   4.740
 8021TIP3    H224005   1.868   1.195   4.739
 8022TIP3   OH224006   3.163   4.831   1.018
 8022TIP3    H124007   3.130   4.848   1.106
 8022TIP3    H224008   3.093   4.781   0.975
 8023TIP3   OH224009   0.026   0.351   1.743
 8023TIP3    H124010   0.076   0.282   1.787
 8023TIP3    H224011  -0.057   0.310   1.720
 8024TIP3   OH224012   6.097   5.642   1.965
 8024TIP3    H124013   6.190   5.664   1.958
 8024TIP3    H224014   6.068   5.685   2.045
 8025TIP3   OH224015   8.299   1.703   6.423
 8025TIP3    H124016   8.339   1.743   6.346
 8025TIP3    H224017   8.371   1.656   6.466
 8026TIP3   OH224018   7.048   6.613   0.672
 8026TIP3    H124019   7.039   6.688   0.614
 8026TIP3    H224020   7.079   6.650   0.755
 8027TIP3   OH224021   8.005   7.751   0.684
 8027TIP3    H124022   8.022   7.813   0.755
 8027TIP3    H224023   7.944   7.797   0.626
 8028TIP3   OH224024   4.941   4.099   3.366
 8028TIP3    H124025   5.008   4.109   3.298
 8028TIP3    H224026   4.983   4.047   3.434
 8029TIP3   OH224027   0.443   4.381   1.261
 8029TIP3    H124028   0.361   4.382   1.310
 8029TIP3    H224029   0.488   4.303   1.291
 8030TIP3   OH224030   3.430   7.704   0.981
 8030TIP3    H124031   3.479   7.631   1.019
 8030TIP3    H224032   3.338   7.678   0.990
 8031TIP3   OH224033   5.816   7.924   0.595
 8031TIP3    H124034   5.811   7.894   0.686
 8031TIP3    H224035   5.866   7.857   0.550
 8032TIP3   OH224036   3.579   5.972   0.736
 8032TIP3    H124037   3.528   6.050   0.714
 8032TIP3    H224038   3.514   5.907   0.760
 8033TIP3   OH224039   4.600   2.309   6.821
 8033TIP3    H124040   4.674   2.256   6.792
 8033TIP3    H224041   4.602   2.386   6.763
 8034TIP3   OH224042   8.144   7.274   0.237
 8034TIP3    H124043   8.206   7.230   0.179
 8034TIP3    H224044   8.058   7.247   0.206
 8035TIP3   OH224045   6.669   7.758   0.235
 8035TIP3    H124046   6.618   7.811   0.296
 8035TIP3    H224047   6.644   7.667   0.255
 8036TIP3   OH224048   4.621   1.451   2.957
 8036TIP3    H124049   4.559   1.478   3.025
 8036TIP3    H224050   4.568   1.400   2.896
 8037TIP3   OH224051   0.302   4.876   4.682
 8037TIP3    H124052   0.208   4.875   4.698
 8037TIP3    H224053   0.313   4.826   4.601
 8038TIP3   OH224054   4.603   2.465   4.598
 8038TIP3    H124055   4.586   2.384   4.551
 8038TIP3    H224056   4.527   2.520   4.581
 8039TIP3   OH224057   8.115   4.153   5.905
 8039TIP3    H124058   8.203   4.182   5.882
 8039TIP3    H224059   8.079   4.119   5.824
 8040TIP3   OH224060   6.162   6.626   6.165
 8040TIP3    H124061   6.204   6.547   6.130
 8040TIP3    H224062   6.070   6.617   6.142
 8041TIP3   OH224063   6.784   6.044   6.442
 8041TIP3    H124064   6.707   6.066   6.494
 8041TIP3    H224065   6.790   6.114   6.377
 8042TIP3   OH224066   4.798   7.162   3.586
 8042TIP3    H124067   4.711   7.178   3.550
 8042TIP3    H224068   4.821   7.245   3.629
 8043TIP3   OH224069   5.515   7.795   6.222
 8043TIP3    H124070   5.517   7.808   6.317
 8043TIP3    H224071   5.424   7.809   6.197
 8044TIP3   OH224072   7.664   4.588   2.026
 8044TIP3    H124073   7.734   4.524   2.011
 8044TIP3    H224074   7.704   4.654   2.084
 8045TIP3   OH224075   7.703   1.477   2.401
 8045TIP3    H124076   7.665   1.434   2.324
 8045TIP3    H224077   7.795   1.453   2.398
 8046TIP3   OH224078   0.567   5.046   4.427
 8046TIP3    H124079   0.558   4.958   4.461
 8046TIP3    H224080   0.656   5.051   4.392
 8047TIP3   OH224081   6.792   4.118   0.927
 8047TIP3    H124082   6.838   4.166   0.857
 8047TIP3    H224083   6.810   4.026   0.908
 8048TIP3   OH224084   7.482   2.955   0.090
 8048TIP3    H124085   7.503   2.961   0.184
 8048TIP3    H224086   7.567   2.940   0.048
 8049TIP3   OH224087   4.807   4.060   2.930
 8049TIP3    H124088   4.770   4.147   2.947
 8049TIP3    H224089   4.900   4.070   2.953
 8050TIP3   OH224090   1.758   1.207   6.080
 8050TIP3    H124091   1.824   1.223   6.147
 8050TIP3    H224092   1.778   1.270   6.011
 8051TIP3   OH224093   1.971   7.920   5.952
 8051TIP3    H124094   2.046   7.947   6.005
 8051TIP3    H224095   2.003   7.845   5.901
 8052TIP3   OH224096   0.925   0.856   0.009
 8052TIP3    H124097   0.994   0.844  -0.056
 8052TIP3    H224098   0.948   0.795   0.079
 8053TIP3   OH224099  -0.020   1.979   6.531
 8053TIP3    H124100   0.006   2.070   6.518
 8053TIP3    H224101   0.041   1.928   6.477
 8054TIP3   OH224102   3.461   2.800   0.510
 8054TIP3    H124103   3.399   2.747   0.561
 8054TIP3    H224104   3.547   2.770   0.538
 8055TIP3   OH224105   5.433   5.085   2.503
 8055TIP3    H124106   5.369   5.090   2.574
 8055TIP3    H224107   5.513   5.053   2.545
 8056TIP3   OH224108   5.528   3.908   2.755
 8056TIP3    H124109   5.475   3.830   2.771
 8056TIP3    H224110   5.489   3.975   2.811
 8057TIP3   OH224111   5.857   1.227   0.090
 8057TIP3    H124112   5.774   1.268   0.066
 8057TIP3    H224113   5.861   1.235   0.186
 8058TIP3   OH224114   6.362   4.917   1.566
 8058TIP3    H124115   6.421   4.876   1.503
 8058TIP3    H224116   6.279   4.925   1.520
 8059TIP3   OH224117   2.741   5.917   1.258
 8059TIP3    H124118   2.678   5.858   1.216
 8059TIP3    H224119   2.816   5.916   1.199
 8060TIP3   OH224120   1.411   3.838   2.917
 8060TIP3    H124121   1.432   3.846   3.010
 8060TIP3    H224122   1.389   3.746   2.904
 8061TIP3   OH224123   4.906   7.668   3.577
 8061TIP3    H124124   4.982   7.638   3.528
 8061TIP3    H224125   4.942   7.704   3.658
 8062TIP3   OH224126   3.523   6.944   1.446
 8062TIP3    H124127   3.575   7.009   1.399
 8062TIP3    H224128   3.560   6.860   1.420
 8063TIP3   OH224129   1.098   0.843   6.702
 8063TIP3    H124130   1.137   0.894   6.773
 8063TIP3    H224131   1.104   0.900   6.625
 8064TIP3   OH224132   5.381   1.035   5.317
 8064TIP3    H124133   5.368   1.001   5.228
 8064TIP3    H224134   5.294   1.030   5.357
 8065TIP3   OH224135   7.705   0.895   2.766
 8065TIP3    H124136   7.706   0.827   2.834
 8065TIP3    H224137   7.685   0.848   2.685
 8066TIP3   OH224138   4.868   2.515   2.872
 8066TIP3    H124139   4.962   2.519   2.885
 8066TIP3    H224140   4.836   2.462   2.945
 8067TIP3   OH224141   7.147   5.543   4.358
 8067TIP3    H124142   7.172   5.606   4.426
 8067TIP3    H224143   7.073   5.496   4.394
 8068TIP3   OH224144   8.168   1.811   5.130
 8068TIP3    H124145   8.177   1.755   5.207
 8068TIP3    H224146   8.216   1.891   5.152
 8069TIP3   OH224147   3.740   5.751   4.119
 8069TIP3    H124148   3.725   5.673   4.173
 8069TIP3    H224149   3.797   5.807   4.173
 8070TIP3   OH224150   6.362   6.848   0.818
 8070TIP3    H124151   6.424   6.827   0.887
 8070TIP3    H224152   6.312   6.767   0.805
 8071TIP3   OH224153   2.074   7.175   3.657
 8071TIP3    H124154   2.008   7.239   3.683
 8071TIP3    H224155   2.151   7.227   3.636
 8072TIP3   OH224156   1.026   2.303   1.401
 8072TIP3    H124157   0.999   2.395   1.409
 8072TIP3    H224158   0.946   2.257   1.376
 8073TIP3   OH224159   6.063   1.589   5.157
 8073TIP3    H124160   6.017   1.647   5.217
 8073TIP3    H224161   6.037   1.501   5.184
 8074TIP3   OH224162   4.009   1.196   0.113
 8074TIP3    H124163   3.978   1.223   0.027
 8074TIP3    H224164   4.093   1.242   0.124
 8075TIP3   OH224165   8.049   0.836   4.045
 8075TIP3    H124166   8.136   0.850   4.008
 8075TIP3    H224167   8.046   0.893   4.122
 8076TIP3   OH224168   3.659   0.218   0.822
 8076TIP3    H124169   3.725   0.152   0.845
 8076TIP3    H224170   3.580   0.168   0.804
 8077TIP3   OH224171   0.185   2.127   3.541
 8077TIP3    H124172   0.204   2.034   3.552
 8077TIP3    H224173   0.270   2.169   3.529
 8078TIP3   OH224174   7.056   1.727   6.476
 8078TIP3    H124175   7.134   1.733   6.421
 8078TIP3    H224176   7.016   1.643   6.452
 8079TIP3   OH224177   1.500   3.374   3.228
 8079TIP3    H124178   1.556   3.305   3.264
 8079TIP3    H224179   1.469   3.338   3.145
 8080TIP3   OH224180   6.928   7.555   3.518
 8080TIP3    H124181   6.846   7.535   3.564
 8080TIP3    H224182   6.932   7.651   3.517
 8081TIP3   OH224183   5.045   7.173   0.072
 8081TIP3    H124184   5.061   7.105   0.008
 8081TIP3    H224185   5.008   7.246   0.022
 8082TIP3   OH224186   0.238   5.953   2.359
 8082TIP3    H124187   0.260   6.043   2.333
 8082TIP3    H224188   0.322   5.914   2.382
 8083TIP3   OH224189   6.083   4.122   6.552
 8083TIP3    H124190   6.152   4.188   6.565
 8083TIP3    H224191   6.100   4.056   6.620
 8084TIP3   OH224192   6.599   4.905   2.151
 8084TIP3    H124193   6.587   4.953   2.069
 8084TIP3    H224194   6.692   4.880   2.150
 8085TIP3   OH224195   7.735   5.197   0.871
 8085TIP3    H124196   7.706   5.197   0.962
 8085TIP3    H224197   7.699   5.115   0.835
 8086TIP3   OH224198   4.327   2.690   4.904
 8086TIP3    H124199   4.277   2.768   4.926
 8086TIP3    H224200   4.317   2.633   4.980
 8087TIP3   OH224201   7.451   7.583   2.736
 8087TIP3    H124202   7.392   7.527   2.685
 8087TIP3    H224203   7.472   7.532   2.814
 8088TIP3   OH224204   3.580   7.864   3.324
 8088TIP3    H124205   3.625   7.858   3.408
 8088TIP3    H224206   3.500   7.812   3.336
 8089TIP3   OH224207   1.151   2.651   4.621
 8089TIP3    H124208   1.055   2.646   4.628
 8089TIP3    H224209   1.176   2.568   4.582
 8090TIP3   OH224210   5.227   4.531   5.842
 8090TIP3    H124211   5.270   4.543   5.927
 8090TIP3    H224212   5.288   4.478   5.791
 8091TIP3   OH224213   7.652   5.047   3.942
 8091TIP3    H124214   7.589   5.002   3.886
 8091TIP3    H224215   7.731   4.994   3.936
 8092TIP3   OH224216   4.224   0.138   0.528
 8092TIP3    H124217   4.137   0.128   0.566
 8092TIP3    H224218   4.281   0.086   0.586
 8093TIP3   OH224219   5.356   7.104   3.055
 8093TIP3    H124220   5.418   7.031   3.056
 8093TIP3    H224221   5.380   7.155   2.977
 8094TIP3   OH224222   4.573   4.817   5.628
 8094TIP3    H124223   4.529   4.899   5.609
 8094TIP3    H224224   4.577   4.813   5.724
 8095TIP3   OH224225   2.588   6.256   3.629
 8095TIP3    H124226   2.657   6.250   3.562
 8095TIP3    H224227   2.507   6.240   3.580
 8096TIP3   OH224228   0.074   0.391   2.922
 8096TIP3    H124229   0.035   0.452   2.860
 8096TIP3    H224230   0.013   0.317   2.924
 8097TIP3   OH224231   5.329   5.188   5.449
 8097TIP3    H124232   5.294   5.184   5.538
 8097TIP3    H224233   5.330   5.096   5.420
 8098TIP3   OH224234   3.567   4.532   2.015
 8098TIP3    H124235   3.553   4.522   2.109
 8098TIP3    H224236   3.482   4.556   1.980
 8099TIP3   OH224237   1.384   2.218   5.928
 8099TIP3    H124238   1.350   2.202   5.840
 8099TIP3    H224239   1.318   2.179   5.986
 8100TIP3   OH224240   2.495   6.295   0.426
 8100TIP3    H124241   2.508   6.244   0.346
 8100TIP3    H224242   2.464   6.231   0.490
 8101TIP3   OH224243   0.527   3.923   6.314
 8101TIP3    H124244   0.445   3.921   6.265
 8101TIP3    H224245   0.558   4.013   6.305
 8102TIP3   OH224246   6.287   6.477   4.307
 8102TIP3    H124247   6.308   6.569   4.323
 8102TIP3    H224248   6.316   6.461   4.217
 8103TIP3   OH224249   3.799   4.169   4.346
 8103TIP3    H124250   3.765   4.220   4.272
 8103TIP3    H224251   3.720   4.135   4.389
 8104TIP3   OH224252   1.504   3.481   2.633
 8104TIP3    H124253   1.525   3.404   2.580
 8104TIP3    H224254   1.533   3.458   2.722
 8105TIP3   OH224255   1.309   0.263   6.825
 8105TIP3    H124256   1.360   0.182   6.831
 8105TIP3    H224257   1.240   0.253   6.891
 8106TIP3   OH224258   5.387   1.156   5.836
 8106TIP3    H124259   5.436   1.231   5.802
 8106TIP3    H224260   5.360   1.183   5.924
 8107TIP3   OH224261   7.159   0.434   4.466
 8107TIP3    H124262   7.181   0.502   4.529
 8107TIP3    H224263   7.225   0.442   4.398
 8108TIP3   OH224264   2.214   4.282   1.258
 8108TIP3    H124265   2.271   4.275   1.334
 8108TIP3    H224266   2.245   4.361   1.213
 8109TIP3   OH224267   4.194   5.551   1.957
 8109TIP3    H124268   4.212   5.640   1.986
 8109TIP3    H224269   4.266   5.529   1.898
 8110TIP3   OH224270   3.474   7.252   4.787
 8110TIP3    H124271   3.499   7.344   4.795
 8110TIP3    H224272   3.447   7.226   4.875
 8111TIP3   OH224273   5.323   2.888   6.792
 8111TIP3    H124274   5.351   2.957   6.733
 8111TIP3    H224275   5.388   2.818   6.780
 8112TIP3   OH224276   7.317   7.846   4.439
 8112TIP3    H124277   7.351   7.889   4.517
 8112TIP3    H224278   7.393   7.799   4.403
 8113TIP3   OH224279   7.555   0.642   6.791
 8113TIP3    H124280   7.635   0.672   6.747
 8113TIP3    H224281   7.534   0.713   6.852
 8114TIP3   OH224282   4.072   1.781   3.952
 8114TIP3    H124283   4.034   1.864   3.923
 8114TIP3    H224284   4.141   1.763   3.889
 8115TIP3   OH224285   4.485   5.597   3.441
 8115TIP3    H124286   4.485   5.692   3.436
 8115TIP3    H224287   4.567   5.575   3.485
 8116TIP3   OH224288   1.716   6.192   0.769
 8116TIP3    H124289   1.734   6.209   0.862
 8116TIP3    H224290   1.626   6.158   0.768
 8117TIP3   OH224291   2.704   0.201   0.394
 8117TIP3    H124292   2.752   0.254   0.457
 8117TIP3    H224293   2.612   0.214   0.417
 8118TIP3   OH224294   6.260   2.850   0.844
 8118TIP3    H124295   6.206   2.825   0.919
 8118TIP3    H224296   6.348   2.821   0.866
 8119TIP3   OH224297   0.729   2.969   2.062
 8119TIP3    H124298   0.785   2.907   2.015
 8119TIP3    H224299   0.714   3.040   1.999
 8120TIP3   OH224300   8.294   4.597   4.827
 8120TIP3    H124301   8.206   4.630   4.849
 8120TIP3    H224302   8.282   4.503   4.817
 8121TIP3   OH224303   5.725   0.729   2.284
 8121TIP3    H124304   5.661   0.666   2.319
 8121TIP3    H224305   5.810   0.696   2.315
 8122TIP3   OH224306   1.806   0.721   1.176
 8122TIP3    H124307   1.782   0.770   1.097
 8122TIP3    H224308   1.757   0.764   1.246
 8123TIP3   OH224309   5.935   3.388   4.143
 8123TIP3    H124310   5.860   3.332   4.127
 8123TIP3    H224311   5.979   3.394   4.057
 8124TIP3   OH224312   0.934   5.640   3.976
 8124TIP3    H124313   1.016   5.674   3.939
 8124TIP3    H224314   0.961   5.562   4.026
 8125TIP3   OH224315   2.383   7.010   6.146
 8125TIP3    H124316   2.405   7.102   6.163
 8125TIP3    H224317   2.407   6.997   6.054
 8126TIP3   OH224318   5.838   0.274   6.205
 8126TIP3    H124319   5.778   0.199   6.207
 8126TIP3    H224320   5.813   0.322   6.126
 8127TIP3   OH224321   2.112   6.276   6.104
 8127TIP3    H124322   2.114   6.216   6.179
 8127TIP3    H224323   2.166   6.350   6.131
 8128TIP3   OH224324   3.313   2.154   6.703
 8128TIP3    H124325   3.316   2.225   6.640
 8128TIP3    H224326   3.369   2.086   6.665
 8129TIP3   OH224327   0.448   2.615   0.817
 8129TIP3    H124328   0.411   2.576   0.738
 8129TIP3    H224329   0.543   2.607   0.805
 8130TIP3   OH224330   1.399   5.085   4.587
 8130TIP3    H124331   1.425   5.011   4.532
 8130TIP3    H224332   1.320   5.055   4.633
 8131TIP3   OH224333   6.563   4.793   1.439
 8131TIP3    H124334   6.580   4.819   1.348
 8131TIP3    H224335   6.643   4.815   1.486
 8132TIP3   OH224336   7.813   7.062   4.802
 8132TIP3    H124337   7.861   7.048   4.721
 8132TIP3    H224338   7.785   7.154   4.798
 8133TIP3   OH224339   6.525   0.166   0.999
 8133TIP3    H124340   6.497   0.084   0.958
 8133TIP3    H224341   6.492   0.160   1.089
 8134TIP3   OH224342   5.715   7.810   0.846
 8134TIP3    H124343   5.621   7.799   0.833
 8134TIP3    H224344   5.725   7.896   0.885
 8135TIP3   OH224345   2.745   4.346   4.998
 8135TIP3    H124346   2.824   4.388   4.966
 8135TIP3    H224347   2.676   4.371   4.936
 8136TIP3   OH224348   7.733   0.903   0.448
 8136TIP3    H124349   7.689   0.826   0.412
 8136TIP3    H224350   7.661   0.960   0.477
 8137TIP3   OH224351   4.155   2.541   1.465
 8137TIP3    H124352   4.092   2.604   1.498
 8137TIP3    H224353   4.240   2.571   1.499
 8138TIP3   OH224354   3.035   3.781   0.473
 8138TIP3    H124355   2.956   3.835   0.469
 8138TIP3    H224356   3.067   3.790   0.562
 8139TIP3   OH224357   5.138   2.418   6.186
 8139TIP3    H124358   5.146   2.500   6.234
 8139TIP3    H224359   5.192   2.431   6.108
 8140TIP3   OH224360   7.173   4.776   2.137
 8140TIP3    H124361   7.174   4.865   2.173
 8140TIP3    H224362   7.261   4.763   2.102
 8141TIP3   OH224363   3.095   6.847   4.043
 8141TIP3    H124364   3.132   6.861   3.956
 8141TIP3    H224365   3.164   6.803   4.092
 8142TIP3   OH224366   2.969   3.060   6.348
 8142TIP3    H124367   2.881   3.030   6.323
 8142TIP3    H224368   2.978   3.035   6.440
 8143TIP3   OH224369   3.728   3.258   3.816
 8143TIP3    H124370   3.765   3.238   3.730
 8143TIP3    H224371   3.801   3.298   3.864
 8144TIP3   OH224372   2.217   4.045   1.013
 8144TIP3    H124373   2.209   4.084   1.100
 8144TIP3    H224374   2.252   4.116   0.959
 8145TIP3   OH224375   0.673   0.606   3.705
 8145TIP3    H124376   0.723   0.667   3.651
 8145TIP3    H224377   0.739   0.550   3.745
 8146TIP3   OH224378   4.320   1.875   2.791
 8146TIP3    H124379   4.248   1.870   2.854
 8146TIP3    H224380   4.364   1.791   2.798
 8147TIP3   OH224381   0.650   0.612   0.066
 8147TIP3    H124382   0.653   0.570   0.151
 8147TIP3    H224383   0.700   0.693   0.077
 8148TIP3   OH224384   7.116   0.208   5.744
 8148TIP3    H124385   7.210   0.194   5.751
 8148TIP3    H224386   7.077   0.136   5.795
 8149TIP3   OH224387   5.447   7.604   3.314
 8149TIP3    H124388   5.539   7.617   3.335
 8149TIP3    H224389   5.433   7.510   3.322
 8150TIP3   OH224390   1.603   5.753   5.706
 8150TIP3    H124391   1.620   5.805   5.628
 8150TIP3    H224392   1.524   5.704   5.687
 8151TIP3   OH224393   3.751   0.795   0.359
 8151TIP3    H124394   3.739   0.862   0.292
 8151TIP3    H224395   3.678   0.734   0.347
 8152TIP3   OH224396   1.880   4.840   5.099
 8152TIP3    H124397   1.891   4.909   5.165
 8152TIP3    H224398   1.790   4.809   5.112
 8153TIP3   OH224399   0.521   4.285   5.646
 8153TIP3    H124400   0.608   4.310   5.677
 8153TIP3    H224401   0.527   4.289   5.550
 8154TIP3   OH224402   8.093   4.047   1.215
 8154TIP3    H124403   8.159   3.985   1.184
 8154TIP3    H224404   8.034   4.058   1.141
 8155TIP3   OH224405   1.223   2.139   5.451
 8155TIP3    H124406   1.262   2.165   5.368
 8155TIP3    H224407   1.148   2.197   5.462
 8156TIP3   OH224408   5.058   2.893   6.720
 8156TIP3    H124409   5.153   2.894   6.731
 8156TIP3    H224410   5.037   2.976   6.677
 8157TIP3   OH224411   0.823   7.162   5.985
 8157TIP3    H124412   0.816   7.231   5.919
 8157TIP3    H224413   0.916   7.159   6.008
 8158TIP3   OH224414   5.734   1.715   3.083
 8158TIP3    H124415   5.762   1.805   3.064
 8158TIP3    H224416   5.813   1.671   3.113
 8159TIP3   OH224417   6.537   5.580   5.464
 8159TIP3    H124418   6.560   5.488   5.454
 8159TIP3    H224419   6.532   5.614   5.375
 8160TIP3   OH224420   4.818   1.971   3.017
 8160TIP3    H124421   4.776   2.028   2.952
 8160TIP3    H224422   4.882   2.027   3.060
 8161TIP3   OH224423   3.740   3.737   4.576
 8161TIP3    H124424   3.667   3.717   4.517
 8161TIP3    H224425   3.698   3.772   4.654
 8162TIP3   OH224426   7.069   0.887   2.553
 8162TIP3    H124427   7.089   0.799   2.584
 8162TIP3    H224428   7.121   0.897   2.473
 8163TIP3   OH224429   4.038   5.087   1.090
 8163TIP3    H124430   4.060   5.013   1.147
 8163TIP3    H224431   3.973   5.051   1.029
 8164TIP3   OH224432   3.191   7.265   4.152
 8164TIP3    H124433   3.117   7.205   4.159
 8164TIP3    H224434   3.206   7.273   4.057
 8165TIP3   OH224435   0.270   1.691   1.010
 8165TIP3    H124436   0.270   1.666   0.918
 8165TIP3    H224437   0.228   1.618   1.055
 8166TIP3   OH224438   2.682   5.560   4.848
 8166TIP3    H124439   2.606   5.599   4.889
 8166TIP3    H224440   2.755   5.618   4.871
 8167TIP3   OH224441   0.537   0.673   1.052
 8167TIP3    H124442   0.582   0.657   0.970
 8167TIP3    H224443   0.463   0.611   1.051
 8168TIP3   OH224444   0.646   7.817   5.484
 8168TIP3    H124445   0.736   7.827   5.454
 8168TIP3    H224446   0.611   7.745   5.432
 8169TIP3   OH224447   7.049   5.116   0.967
 8169TIP3    H124448   7.108   5.171   0.916
 8169TIP3    H224449   7.087   5.115   1.055
 8170TIP3   OH224450   7.623   1.499   5.198
 8170TIP3    H124451   7.635   1.593   5.213
 8170TIP3    H224452   7.577   1.494   5.114
 8171TIP3   OH224453   6.796   7.287   5.436
 8171TIP3    H124454   6.833   7.373   5.457
 8171TIP3    H224455   6.777   7.290   5.343
 8172TIP3   OH224456   7.552   6.480   6.186
 8172TIP3    H124457   7.620   6.414   6.193
 8172TIP3    H224458   7.569   6.523   6.102
 8173TIP3   OH224459   1.058   2.931   4.980
 8173TIP3    H124460   1.014   2.871   4.919
 8173TIP3    H224461   1.045   2.892   5.066
 8174TIP3   OH224462   4.388   5.000   1.164
 8174TIP3    H124463   4.459   4.936   1.178
 8174TIP3    H224464   4.330   4.958   1.102
 8175TIP3   OH224465   1.093   6.336   1.624
 8175TIP3    H124466   1.093   6.373   1.712
 8175TIP3    H224467   1.033   6.391   1.574
 8176TIP3   OH224468   3.665   1.684   1.715
 8176TIP3    H124469   3.726   1.611   1.706
 8176TIP3    H224470   3.627   1.672   1.802
 8177TIP3   OH224471   4.639   7.019   5.804
 8177TIP3    H124472   4.550   7.041   5.775
 8177TIP3    H224473   4.695   7.042   5.730
 8178TIP3   OH224474   1.940   7.379   6.147
 8178TIP3    H124475   1.932   7.342   6.235
 8178TIP3    H224476   1.875   7.449   6.143
 8179TIP3   OH224477   2.476   4.139   6.708
 8179TIP3    H124478   2.472   4.083   6.786
 8179TIP3    H224479   2.390   4.182   6.705
 8180TIP3   OH224480   7.798   2.601   5.085
 8180TIP3    H124481   7.719   2.648   5.112
 8180TIP3    H224482   7.791   2.515   5.128
 8181TIP3   OH224483   4.866   7.739   4.458
 8181TIP3    H124484   4.802   7.787   4.405
 8181TIP3    H224485   4.856   7.648   4.432
 8182TIP3   OH224486   0.663   4.139   0.089
 8182TIP3    H124487   0.753   4.140   0.121
 8182TIP3    H224488   0.609   4.155   0.167
 8183TIP3   OH224489   7.442   5.424   4.460
 8183TIP3    H124490   7.382   5.475   4.405
 8183TIP3    H224491   7.472   5.353   4.403
 8184TIP3   OH224492   3.426   5.527   4.688
 8184TIP3    H124493   3.427   5.591   4.616
 8184TIP3    H224494   3.477   5.568   4.758
 8185TIP3   OH224495   4.342   5.355   2.702
 8185TIP3    H124496   4.297   5.412   2.765
 8185TIP3    H224497   4.434   5.357   2.729
 8186TIP3   OH224498   3.633   1.639   3.984
 8186TIP3    H124499   3.563   1.642   3.919
 8186TIP3    H224500   3.681   1.559   3.964
 8187TIP3   OH224501   3.262   0.941   1.939
 8187TIP3    H124502   3.348   0.905   1.962
 8187TIP3    H224503   3.279   0.997   1.863
 8188TIP3   OH224504   4.307   4.897   4.553
 8188TIP3    H124505   4.285   4.865   4.640
 8188TIP3    H224506   4.263   4.982   4.546
 8189TIP3   OH224507   3.539   3.298   5.332
 8189TIP3    H124508   3.595   3.245   5.387
 8189TIP3    H224509   3.480   3.236   5.289
 8190TIP3   OH224510   4.332   4.163   4.825
 8190TIP3    H124511   4.256   4.123   4.867
 8190TIP3    H224512   4.403   4.100   4.839
 8191TIP3   OH224513   0.792   4.683   6.467
 8191TIP3    H124514   0.737   4.613   6.502
 8191TIP3    H224515   0.763   4.762   6.513
 8192TIP3   OH224516   1.779   0.812   1.612
 8192TIP3    H124517   1.716   0.771   1.672
 8192TIP3    H224518   1.736   0.813   1.527
 8193TIP3   OH224519   6.840   6.340   4.049
 8193TIP3    H124520   6.928   6.373   4.029
 8193TIP3    H224521   6.855   6.254   4.086
 8194TIP3   OH224522   2.195   2.869   5.014
 8194TIP3    H124523   2.152   2.866   4.928
 8194TIP3    H224524   2.227   2.780   5.027
 8195TIP3   OH224525   7.159   4.169   3.788
 8195TIP3    H124526   7.075   4.214   3.801
 8195TIP3    H224527   7.195   4.159   3.876
 8196TIP3   OH224528   3.132   4.393   3.746
 8196TIP3    H124529   3.102   4.343   3.821
 8196TIP3    H224530   3.105   4.483   3.764
 8197TIP3   OH224531   3.440   4.920   0.533
 8197TIP3    H124532   3.365   4.890   0.481
 8197TIP3    H224533   3.407   4.927   0.622
 8198TIP3   OH224534   1.351   2.861   5.208
 8198TIP3    H124535   1.358   2.794   5.277
 8198TIP3    H224536   1.300   2.819   5.139
 8199TIP3   OH224537   3.047   6.659   4.321
 8199TIP3    H124538   3.120   6.686   4.266
 8199TIP3    H224539   2.969   6.681   4.271
 8200TIP3   OH224540   0.291   3.931   6.165
 8200TIP3    H124541   0.220   3.987   6.196
 8200TIP3    H224542   0.271   3.918   6.072
 8201TIP3   OH224543   1.519   7.467   0.439
 8201TIP3    H124544   1.500   7.536   0.502
 8201TIP3    H224545   1.587   7.414   0.482
 8202TIP3   OH224546   3.858   0.108   5.895
 8202TIP3    H124547   3.899   0.186   5.858
 8202TIP3    H224548   3.931   0.051   5.917
 8203TIP3   OH224549   2.569   5.031   4.065
 8203TIP3    H124550   2.566   4.936   4.079
 8203TIP3    H224551   2.490   5.064   4.106
 8204TIP3   OH224552   1.622   7.879   1.090
 8204TIP3    H124553   1.654   7.959   1.130
 8204TIP3    H224554   1.528   7.894   1.080
 8205TIP3   OH224555   1.198   2.751   1.738
 8205TIP3    H124556   1.193   2.713   1.826
 8205TIP3    H224557   1.284   2.725   1.706
 8206TIP3   OH224558   6.451   6.863   5.710
 8206TIP3    H124559   6.453   6.863   5.614
 8206TIP3    H224560   6.471   6.773   5.734
 8207TIP3   OH224561   7.861   4.754   5.260
 8207TIP3    H124562   7.916   4.799   5.196
 8207TIP3    H224563   7.921   4.698   5.309
 8208TIP3   OH224564   6.628   0.638   1.239
 8208TIP3    H124565   6.580   0.648   1.322
 8208TIP3    H224566   6.658   0.547   1.241
 8209TIP3   OH224567   3.532   6.548   2.254
 8209TIP3    H124568   3.567   6.532   2.167
 8209TIP3    H224569   3.519   6.461   2.291
 8210TIP3   OH224570   2.470   5.072   5.236
 8210TIP3    H124571   2.424   4.995   5.267
 8210TIP3    H224572   2.558   5.041   5.213
 8211TIP3   OH224573   5.349   1.520   5.646
 8211TIP3    H124574   5.444   1.513   5.654
 8211TIP3    H224575   5.316   1.437   5.678
 8212TIP3   OH224576   7.737   2.168   6.643
 8212TIP3    H124577   7.649   2.203   6.628
 8212TIP3    H224578   7.769   2.145   6.555
 8213TIP3   OH224579   0.724   5.744   1.541
 8213TIP3    H124580   0.649   5.778   1.590
 8213TIP3    H224581   0.780   5.704   1.607
 8214TIP3   OH224582   7.544   1.154   4.853
 8214TIP3    H124583   7.633   1.186   4.867
 8214TIP3    H224584   7.552   1.059   4.853
 8215TIP3   OH224585   4.361   5.823   4.517
 8215TIP3    H124586   4.396   5.738   4.545
 8215TIP3    H224587   4.427   5.858   4.458
 8216TIP3   OH224588   3.156   3.016   3.489
 8216TIP3    H124589   3.157   3.110   3.507
 8216TIP3    H224590   3.063   2.994   3.481
 8217TIP3   OH224591   8.008   7.769   6.142
 8217TIP3    H124592   7.974   7.692   6.188
 8217TIP3    H224593   8.046   7.734   6.061
 8218TIP3   OH224594   1.081   2.103   6.371
 8218TIP3    H124595   1.132   2.160   6.315
 8218TIP3    H224596   0.993   2.142   6.372
 8219TIP3   OH224597   2.590   1.218   1.599
 8219TIP3    H124598   2.583   1.124   1.615
 8219TIP3    H224599   2.627   1.224   1.511
 8220TIP3   OH224600   2.312   6.655   3.458
 8220TIP3    H124601   2.259   6.596   3.512
 8220TIP3    H224602   2.248   6.708   3.411
 8221TIP3   OH224603   2.028   6.696   2.278
 8221TIP3    H124604   2.070   6.782   2.272
 8221TIP3    H224605   1.945   6.707   2.231
 8222TIP3   OH224606   8.297   4.581   6.011
 8222TIP3    H124607   8.372   4.626   5.971
 8222TIP3    H224608   8.334   4.501   6.049
 8223TIP3   OH224609   2.106   0.146   4.671
 8223TIP3    H124610   2.012   0.160   4.669
 8223TIP3    H224611   2.140   0.217   4.725
 8224TIP3   OH224612   1.815   5.090   1.593
 8224TIP3    H124613   1.725   5.061   1.607
 8224TIP3    H224614   1.836   5.060   1.504
 8225TIP3   OH224615   2.559   7.106   5.233
 8225TIP3    H124616   2.528   7.016   5.240
 8225TIP3    H224617   2.530   7.135   5.146
 8226TIP3   OH224618   4.368   7.655   6.579
 8226TIP3    H124619   4.413   7.571   6.587
 8226TIP3    H224620   4.424   7.717   6.624
 8227TIP3   OH224621   6.487   5.624   1.761
 8227TIP3    H124622   6.525   5.539   1.741
 8227TIP3    H224623   6.540   5.658   1.833
 8228TIP3   OH224624   7.009   6.902   4.347
 8228TIP3    H124625   7.080   6.868   4.401
 8228TIP3    H224626   6.979   6.827   4.296
 8229TIP3   OH224627   2.960   6.324   4.919
 8229TIP3    H124628   3.028   6.350   4.980
 8229TIP3    H224629   2.960   6.392   4.852
 8230TIP3   OH224630   4.953   3.974   5.894
 8230TIP3    H124631   4.995   3.901   5.849
 8230TIP3    H224632   4.974   4.050   5.840
 8231TIP3   OH224633   3.716   1.306   5.910
 8231TIP3    H124634   3.758   1.294   5.995
 8231TIP3    H224635   3.700   1.218   5.878
 8232TIP3   OH224636   6.596   2.014   2.829
 8232TIP3    H124637   6.669   2.025   2.889
 8232TIP3    H224638   6.605   1.924   2.797
 8233TIP3   OH224639   3.623   0.741   4.773
 8233TIP3    H124640   3.593   0.685   4.700
 8233TIP3    H224641   3.681   0.685   4.824
 8234TIP3   OH224642   3.804   7.580   2.118
 8234TIP3    H124643   3.841   7.602   2.033
 8234TIP3    H224644   3.827   7.654   2.174
 8235TIP3   OH224645   2.525   7.865   4.431
 8235TIP3    H124646   2.568   7.922   4.493
 8235TIP3    H224647   2.462   7.815   4.483
 8236TIP3   OH224648   6.967   4.583   0.443
 8236TIP3    H124649   6.972   4.604   0.536
 8236TIP3    H224650   7.058   4.579   0.415
 8237TIP3   OH224651   6.752   0.207   3.935
 8237TIP3    H124652   6.762   0.264   4.011
 8237TIP3    H224653   6.668   0.163   3.950
 8238TIP3   OH224654   0.727   2.708   5.818
 8238TIP3    H124655   0.773   2.792   5.813
 8238TIP3    H224656   0.653   2.717   5.758
 8239TIP3   OH224657   7.909   5.249   0.603
 8239TIP3    H124658   7.936   5.300   0.526
 8239TIP3    H224659   7.947   5.162   0.588
 8240TIP3   OH224660   1.920   4.015   1.769
 8240TIP3    H124661   1.878   3.956   1.706
 8240TIP3    H224662   1.869   4.003   1.849
 8241TIP3   OH224663   4.272   3.304   6.796
 8241TIP3    H124664   4.190   3.342   6.766
 8241TIP3    H224665   4.311   3.372   6.851
 8242TIP3   OH224666   5.011   1.953   5.160
 8242TIP3    H124667   4.997   2.015   5.088
 8242TIP3    H224668   4.991   1.868   5.123
 8243TIP3   OH224669   6.940   2.560   3.699
 8243TIP3    H124670   6.973   2.499   3.765
 8243TIP3    H224671   6.858   2.521   3.669
 8244TIP3   OH224672   1.188   3.910   5.696
 8244TIP3    H124673   1.098   3.882   5.711
 8244TIP3    H224674   1.240   3.831   5.708
 8245TIP3   OH224675   0.170   5.024   6.661
 8245TIP3    H124676   0.148   5.114   6.635
 8245TIP3    H224677   0.266   5.022   6.662
 8246TIP3   OH224678   5.417   0.580   3.686
 8246TIP3    H124679   5.492   0.639   3.687
 8246TIP3    H224680   5.456   0.492   3.685
 8247TIP3   OH224681   1.439   1.345   4.881
 8247TIP3    H124682   1.451   1.437   4.857
 8247TIP3    H224683   1.431   1.346   4.976
 8248TIP3   OH224684   3.536   1.834   1.215
 8248TIP3    H124685   3.625   1.859   1.190
 8248TIP3    H224686   3.539   1.827   1.310
 8249TIP3   OH224687   3.654   3.993   0.881
 8249TIP3    H124688   3.731   3.950   0.918
 8249TIP3    H224689   3.688   4.046   0.809
 8250TIP3   OH224690   1.231   1.236   2.024
 8250TIP3    H124691   1.269   1.297   1.961
 8250TIP3    H224692   1.220   1.288   2.104
 8251TIP3   OH224693   7.050   6.985   6.224
 8251TIP3    H124694   7.010   6.970   6.138
 8251TIP3    H224695   7.064   6.898   6.259
 8252TIP3   OH224696   1.217   2.631   1.181
 8252TIP3    H124697   1.286   2.568   1.204
 8252TIP3    H224698   1.197   2.612   1.089
 8253TIP3   OH224699   2.267   4.889   5.062
 8253TIP3    H124700   2.351   4.873   5.018
 8253TIP3    H224701   2.202   4.846   5.006
 8254TIP3   OH224702   0.992   3.837   6.596
 8254TIP3    H124703   0.927   3.768   6.605
 8254TIP3    H224704   0.989   3.861   6.504
 8255TIP3   OH224705   4.351   1.068   1.947
 8255TIP3    H124706   4.389   1.036   1.864
 8255TIP3    H224707   4.300   0.994   1.980
 8256TIP3   OH224708   6.896   2.747   4.481
 8256TIP3    H124709   6.893   2.685   4.553
 8256TIP3    H224710   6.842   2.820   4.510
 8257TIP3   OH224711   2.267   4.647   3.202
 8257TIP3    H124712   2.214   4.669   3.126
 8257TIP3    H224713   2.286   4.731   3.244
 8258TIP3   OH224714   5.260   1.008   3.499
 8258TIP3    H124715   5.286   0.959   3.422
 8258TIP3    H224716   5.339   1.055   3.526
 8259TIP3   OH224717   0.343   6.879   5.540
 8259TIP3    H124718   0.250   6.857   5.553
 8259TIP3    H224719   0.353   6.888   5.446
 8260TIP3   OH224720   4.289   3.440   2.544
 8260TIP3    H124721   4.228   3.486   2.601
 8260TIP3    H224722   4.287   3.349   2.575
 8261TIP3   OH224723   0.662   0.371   5.426
 8261TIP3    H124724   0.681   0.429   5.500
 8261TIP3    H224725   0.740   0.375   5.372
 8262TIP3   OH224726   0.314   4.783   0.217
 8262TIP3    H124727   0.397   4.812   0.254
 8262TIP3    H224728   0.337   4.713   0.156
 8263TIP3   OH224729   2.900   4.498   6.782
 8263TIP3    H124730   2.853   4.507   6.699
 8263TIP3    H224731   2.950   4.416   6.772
 8264TIP3   OH224732   7.295   6.556   6.175
 8264TIP3    H124733   7.261   6.561   6.264
 8264TIP3    H224734   7.388   6.534   6.185
 8265TIP3   OH224735   1.105   4.932   3.521
 8265TIP3    H124736   1.077   4.975   3.440
 8265TIP3    H224737   1.035   4.869   3.540
 8266TIP3   OH224738   7.613   2.953   1.232
 8266TIP3    H124739   7.684   2.889   1.231
 8266TIP3    H224740   7.636   3.013   1.304
 8267TIP3   OH224741   1.024   4.128   4.147
 8267TIP3    H124742   0.959   4.194   4.168
 8267TIP3    H224743   1.089   4.173   4.093
 8268TIP3   OH224744   4.109   4.831   4.110
 8268TIP3    H124745   4.044   4.825   4.180
 8268TIP3    H224746   4.193   4.839   4.156
 8269TIP3   OH224747   0.107   1.760   0.069
 8269TIP3    H124748   0.199   1.788   0.067
 8269TIP3    H224749   0.089   1.741   0.161
 8270TIP3   OH224750   6.939   0.325   2.177
 8270TIP3    H124751   6.936   0.416   2.205
 8270TIP3    H224752   7.027   0.296   2.200
 8271TIP3   OH224753   2.725   6.791   2.910
 8271TIP3    H124754   2.648   6.738   2.887
 8271TIP3    H224755   2.710   6.875   2.866
 8272TIP3   OH224756   0.521   0.979   6.679
 8272TIP3    H124757   0.451   0.930   6.635
 8272TIP3    H224758   0.507   0.960   6.772
 8273TIP3   OH224759   2.311   1.979   5.839
 8273TIP3    H124760   2.304   2.074   5.850
 8273TIP3    H224761   2.355   1.968   5.755
 8274TIP3   OH224762   5.886   5.813   0.258
 8274TIP3    H124763   5.882   5.828   0.163
 8274TIP3    H224764   5.864   5.898   0.297
 8275TIP3   OH224765   0.253   7.215   0.440
 8275TIP3    H124766   0.331   7.222   0.494
 8275TIP3    H224767   0.240   7.304   0.405
 8276TIP3   OH224768   7.484   5.202   6.425
 8276TIP3    H124769   7.523   5.272   6.477
 8276TIP3    H224770   7.553   5.179   6.362
 8277TIP3   OH224771   2.898   4.683   1.488
 8277TIP3    H124772   2.912   4.700   1.581
 8277TIP3    H224773   2.815   4.636   1.485
 8278TIP3   OH224774   7.333   2.004   3.780
 8278TIP3    H124775   7.348   2.079   3.838
 8278TIP3    H224776   7.404   2.010   3.716
 8279TIP3   OH224777   3.467   4.392   3.088
 8279TIP3    H124778   3.542   4.452   3.096
 8279TIP3    H224779   3.433   4.409   3.000
 8280TIP3   OH224780   7.164   5.422   6.661
 8280TIP3    H124781   7.070   5.427   6.643
 8280TIP3    H224782   7.194   5.348   6.608
 8281TIP3   OH224783   3.303   4.919   2.750
 8281TIP3    H124784   3.283   4.841   2.698
 8281TIP3    H224785   3.379   4.958   2.707
 8282TIP3   OH224786   6.872   7.463   3.831
 8282TIP3    H124787   6.847   7.457   3.924
 8282TIP3    H224788   6.817   7.532   3.795
 8283TIP3   OH224789   7.179   3.062   5.678
 8283TIP3    H124790   7.234   3.025   5.746
 8283TIP3    H224791   7.195   3.007   5.601
 8284TIP3   OH224792   6.523   1.951   6.189
 8284TIP3    H124793   6.467   1.909   6.124
 8284TIP3    H224794   6.510   2.045   6.176
 8285TIP3   OH224795   1.723   1.488   0.721
 8285TIP3    H124796   1.736   1.413   0.664
 8285TIP3    H224797   1.662   1.457   0.788
 8286TIP3   OH224798   8.175   5.478   3.149
 8286TIP3    H124799   8.265   5.453   3.171
 8286TIP3    H224800   8.184   5.564   3.107
 8287TIP3   OH224801   1.914   6.038   2.715
 8287TIP3    H124802   1.829   6.040   2.670
 8287TIP3    H224803   1.908   5.963   2.775
 8288TIP3   OH224804   3.095   5.664   5.928
 8288TIP3    H124805   3.031   5.730   5.953
 8288TIP3    H224806   3.044   5.585   5.914
 8289TIP3   OH224807   0.894   7.791   3.923
 8289TIP3    H124808   0.832   7.863   3.939
 8289TIP3    H224809   0.855   7.716   3.968
 8290TIP3   OH224810   4.291   5.392   3.546
 8290TIP3    H124811   4.283   5.417   3.638
 8290TIP3    H224812   4.352   5.456   3.509
 8291TIP3   OH224813   4.691   4.304   2.983
 8291TIP3    H124814   4.620   4.244   3.005
 8291TIP3    H224815   4.686   4.373   3.050
 8292TIP3   OH224816   6.555   0.231   3.741
 8292TIP3    H124817   6.594   0.317   3.754
 8292TIP3    H224818   6.618   0.184   3.686
 8293TIP3   OH224819   6.217   2.737   3.094
 8293TIP3    H124820   6.310   2.713   3.094
 8293TIP3    H224821   6.179   2.682   3.163
 8294TIP3   OH224822   1.934   3.538   6.710
 8294TIP3    H124823   1.975   3.462   6.750
 8294TIP3    H224824   1.850   3.547   6.756
 8295TIP3   OH224825   1.212   1.078   5.059
 8295TIP3    H124826   1.253   1.124   5.132
 8295TIP3    H224827   1.277   1.012   5.032
 8296TIP3   OH224828   4.687   5.974   4.045
 8296TIP3    H124829   4.647   5.901   4.092
 8296TIP3    H224830   4.777   5.944   4.029
 8297TIP3   OH224831   4.735   1.136   5.576
 8297TIP3    H124832   4.714   1.130   5.669
 8297TIP3    H224833   4.827   1.111   5.571
 8298TIP3   OH224834   7.423   0.907   4.616
 8298TIP3    H124835   7.467   0.856   4.684
 8298TIP3    H224836   7.494   0.950   4.568
 8299TIP3   OH224837   4.516   3.138   4.322
 8299TIP3    H124838   4.446   3.156   4.385
 8299TIP3    H224839   4.474   3.085   4.254
 8300TIP3   OH224840   1.541   3.569   0.510
 8300TIP3    H124841   1.571   3.492   0.558
 8300TIP3    H224842   1.621   3.611   0.478
 8301TIP3   OH224843   4.107   7.362   4.574
 8301TIP3    H124844   4.129   7.393   4.661
 8301TIP3    H224845   4.120   7.267   4.578
 8302TIP3   OH224846   1.934   1.801   2.914
 8302TIP3    H124847   1.972   1.862   2.851
 8302TIP3    H224848   1.843   1.830   2.923
 8303TIP3   OH224849   2.481   2.711   2.176
 8303TIP3    H124850   2.502   2.804   2.167
 8303TIP3    H224851   2.499   2.674   2.089
 8304TIP3   OH224852   4.468   0.868   5.076
 8304TIP3    H124853   4.479   0.961   5.057
 8304TIP3    H224854   4.386   0.863   5.126
 8305TIP3   OH224855   8.017   2.596   1.067
 8305TIP3    H124856   8.090   2.637   1.022
 8305TIP3    H224857   8.056   2.556   1.145
 8306TIP3   OH224858   0.858   7.513   4.675
 8306TIP3    H124859   0.869   7.589   4.618
 8306TIP3    H224860   0.772   7.477   4.652
 8307TIP3   OH224861   5.253   1.379   3.769
 8307TIP3    H124862   5.225   1.466   3.797
 8307TIP3    H224863   5.240   1.379   3.674
 8308TIP3   OH224864   2.060   5.781   1.465
 8308TIP3    H124865   2.125   5.735   1.518
 8308TIP3    H224866   2.043   5.862   1.513
 8309TIP3   OH224867   3.528   5.226   6.848
 8309TIP3    H124868   3.449   5.215   6.901
 8309TIP3    H224869   3.529   5.148   6.791
 8310TIP3   OH224870   2.596   6.451   3.017
 8310TIP3    H124871   2.538   6.469   3.091
 8310TIP3    H224872   2.570   6.364   2.987
 8311TIP3   OH224873   2.183   0.259   0.454
 8311TIP3    H124874   2.089   0.250   0.467
 8311TIP3    H224875   2.199   0.224   0.367
 8312TIP3   OH224876   2.187   0.171   1.216
 8312TIP3    H124877   2.230   0.091   1.245
 8312TIP3    H224878   2.191   0.229   1.292
 8313TIP3   OH224879   1.657   0.890   1.358
 8313TIP3    H124880   1.587   0.867   1.297
 8313TIP3    H224881   1.700   0.966   1.319
 8314TIP3   OH224882   2.546   4.418   6.578
 8314TIP3    H124883   2.560   4.379   6.664
 8314TIP3    H224884   2.633   4.429   6.541
 8315TIP3   OH224885   4.649   1.737   5.929
 8315TIP3    H124886   4.579   1.750   5.866
 8315TIP3    H224887   4.729   1.751   5.878
 8316TIP3   OH224888   3.482   3.164   3.638
 8316TIP3    H124889   3.510   3.140   3.550
 8316TIP3    H224890   3.563   3.190   3.683
 8317TIP3   OH224891   2.837   6.021   3.256
 8317TIP3    H124892   2.752   6.066   3.253
 8317TIP3    H224893   2.885   6.056   3.181
 8318TIP3   OH224894   4.189   5.959   5.596
 8318TIP3    H124895   4.130   6.035   5.593
 8318TIP3    H224896   4.138   5.890   5.638
 8319TIP3   OH224897   0.619   2.440   4.670
 8319TIP3    H124898   0.692   2.452   4.730
 8319TIP3    H224899   0.549   2.495   4.705
 8320TIP3   OH224900   3.304   2.650   4.028
 8320TIP3    H124901   3.335   2.696   3.950
 8320TIP3    H224902   3.250   2.579   3.993
 8321TIP3   OH224903   4.491   3.092   3.752
 8321TIP3    H124904   4.442   3.134   3.681
 8321TIP3    H224905   4.577   3.133   3.749
 8322TIP3   OH224906   7.814   7.746   4.378
 8322TIP3    H124907   7.721   7.727   4.376
 8322TIP3    H224908   7.845   7.724   4.290
 8323TIP3   OH224909   6.485   3.000   2.632
 8323TIP3    H124910   6.508   3.087   2.598
 8323TIP3    H224911   6.437   2.959   2.560
 8324TIP3   OH224912   5.826   2.887   4.210
 8324TIP3    H124913   5.769   2.953   4.250
 8324TIP3    H224914   5.778   2.858   4.133
 8325TIP3   OH224915   3.542   1.210   1.289
 8325TIP3    H124916   3.488   1.190   1.366
 8325TIP3    H224917   3.558   1.125   1.248
 8326TIP3   OH224918   3.101   7.902   0.499
 8326TIP3    H124919   3.120   7.989   0.533
 8326TIP3    H224920   3.132   7.842   0.567
 8327TIP3   OH224921   4.617   0.330   0.854
 8327TIP3    H124922   4.623   0.235   0.864
 8327TIP3    H224923   4.595   0.342   0.761
 8328TIP3   OH224924   0.558   5.736   6.139
 8328TIP3    H124925   0.617   5.809   6.122
 8328TIP3    H224926   0.543   5.697   6.053
 8329TIP3   OH224927   8.205   5.567   2.373
 8329TIP3    H124928   8.123   5.616   2.378
 8329TIP3    H224929   8.272   5.629   2.401
 8330TIP3   OH224930   6.434   4.984   3.744
 8330TIP3    H124931   6.475   4.920   3.802
 8330TIP3    H224932   6.352   4.943   3.717
 8331TIP3   OH224933   7.439   2.842   6.748
 8331TIP3    H124934   7.502   2.773   6.769
 8331TIP3    H224935   7.489   2.905   6.695
 8332TIP3   OH224936   7.891   0.051   1.816
 8332TIP3    H124937   7.919   0.122   1.758
 8332TIP3    H224938   7.807   0.081   1.851
 8333TIP3   OH224939   1.141   7.057   4.186
 8333TIP3    H124940   1.228   7.056   4.225
 8333TIP3    H224941   1.148   7.118   4.112
 8334TIP3   OH224942   7.069   7.885   2.878
 8334TIP3    H124943   7.033   7.807   2.835
 8334TIP3    H224944   7.070   7.863   2.971
 8335TIP3   OH224945   7.723   2.893   3.983
 8335TIP3    H124946   7.640   2.878   4.027
 8335TIP3    H224947   7.762   2.967   4.030
 8336TIP3   OH224948   0.244   6.077   6.394
 8336TIP3    H124949   0.180   6.105   6.329
 8336TIP3    H224950   0.284   5.998   6.355
 8337TIP3   OH224951   0.191   7.462   3.791
 8337TIP3    H124952   0.108   7.438   3.750
 8337TIP3    H224953   0.249   7.387   3.774
 8338TIP3   OH224954   3.969   2.755   3.947
 8338TIP3    H124955   3.981   2.817   4.019
 8338TIP3    H224956   4.051   2.760   3.897
 8339TIP3   OH224957   0.166   2.281   5.958
 8339TIP3    H124958   0.221   2.328   5.895
 8339TIP3    H224959   0.170   2.335   6.038
 8340TIP3   OH224960   4.480   6.306   2.728
 8340TIP3    H124961   4.427   6.227   2.722
 8340TIP3    H224962   4.511   6.322   2.639
 8341TIP3   OH224963   5.456   6.894   3.378
 8341TIP3    H124964   5.432   6.872   3.288
 8341TIP3    H224965   5.477   6.810   3.418
 8342TIP3   OH224966   4.397   2.129   4.026
 8342TIP3    H124967   4.348   2.054   4.061
 8342TIP3    H224968   4.369   2.203   4.080
 8343TIP3   OH224969   1.415   0.122   3.692
 8343TIP3    H124970   1.487   0.066   3.665
 8343TIP3    H224971   1.392   0.171   3.612
 8344TIP3   OH224972   1.446   3.985   6.800
 8344TIP3    H124973   1.464   3.968   6.893
 8344TIP3    H224974   1.452   3.899   6.759
 8345TIP3   OH224975   4.071   2.990   4.077
 8345TIP3    H124976   4.039   3.071   4.115
 8345TIP3    H224977   4.093   3.013   3.986
 8346TIP3   OH224978   7.020   1.420   2.798
 8346TIP3    H124979   7.048   1.455   2.714
 8346TIP3    H224980   7.013   1.325   2.784
 8347TIP3   OH224981   0.710   5.972   3.474
 8347TIP3    H124982   0.655   5.908   3.427
 8347TIP3    H224983   0.648   6.040   3.502
 8348TIP3   OH224984   7.171   5.921   1.383
 8348TIP3    H124985   7.103   5.961   1.436
 8348TIP3    H224986   7.152   5.950   1.293
 8349TIP3   OH224987   5.677   6.235   6.549
 8349TIP3    H124988   5.651   6.144   6.537
 8349TIP3    H224989   5.609   6.286   6.505
 8350TIP3   OH224990   0.906   5.511   2.559
 8350TIP3    H124991   0.838   5.497   2.493
 8350TIP3    H224992   0.976   5.557   2.512
 8351TIP3   OH224993   6.809   7.410   1.928
 8351TIP3    H124994   6.757   7.488   1.945
 8351TIP3    H224995   6.744   7.341   1.912
 8352TIP3   OH224996   2.116   4.569   0.200
 8352TIP3    H124997   2.159   4.634   0.143
 8352TIP3    H224998   2.140   4.596   0.289
 8353TIP3   OH224999   3.469   3.613   6.226
 8353TIP3    H125000   3.548   3.654   6.263
 8353TIP3    H225001   3.438   3.674   6.160
 8354TIP3   OH225002   5.110   6.807   2.920
 8354TIP3    H125003   5.161   6.794   2.840
 8354TIP3    H225004   5.026   6.842   2.889
 8355TIP3   OH225005   4.470   4.662   5.138
 8355TIP3    H125006   4.528   4.626   5.205
 8355TIP3    H225007   4.384   4.666   5.180
 8356TIP3   OH225008   7.784   1.356   2.101
 8356TIP3    H125009   7.690   1.375   2.097
 8356TIP3    H225010   7.797   1.282   2.041
 8357TIP3   OH225011   5.809   0.696   3.720
 8357TIP3    H125012   5.725   0.732   3.747
 8357TIP3    H225013   5.794   0.664   3.631
 8358TIP3   OH225014   7.847   4.302   5.236
 8358TIP3    H125015   7.774   4.250   5.202
 8358TIP3    H225016   7.893   4.243   5.296
 8359TIP3   OH225017   0.367   6.787   6.037
 8359TIP3    H125018   0.339   6.716   6.094
 8359TIP3    H225019   0.316   6.863   6.065
 8360TIP3   OH225020   0.165   7.842   5.911
 8360TIP3    H125021   0.134   7.870   5.997
 8360TIP3    H225022   0.227   7.771   5.929
 8361TIP3   OH225023   6.698   4.340   5.750
 8361TIP3    H125024   6.665   4.326   5.661
 8361TIP3    H225025   6.778   4.391   5.739
 8362TIP3   OH225026   1.555   3.412   0.205
 8362TIP3    H125027   1.538   3.499   0.168
 8362TIP3    H225028   1.557   3.427   0.300
 8363TIP3   OH225029   5.585   4.705   3.246
 8363TIP3    H125030   5.597   4.620   3.288
 8363TIP3    H225031   5.537   4.757   3.311
 8364TIP3   OH225032   4.870   1.490   1.514
 8364TIP3    H125033   4.885   1.553   1.584
 8364TIP3    H225034   4.903   1.533   1.435
 8365TIP3   OH225035   4.517   4.743   6.412
 8365TIP3    H125036   4.559   4.814   6.363
 8365TIP3    H225037   4.443   4.785   6.456
 8366TIP3   OH225038   4.523   3.512   4.644
 8366TIP3    H125039   4.568   3.506   4.560
 8366TIP3    H225040   4.591   3.542   4.705
 8367TIP3   OH225041   0.015   2.679   5.302
 8367TIP3    H125042   0.035   2.664   5.209
 8367TIP3    H225043   0.100   2.680   5.345
 8368TIP3   OH225044   7.987   5.542   2.009
 8368TIP3    H125045   7.970   5.530   2.103
 8368TIP3    H225046   7.907   5.585   1.977
 8369TIP3   OH225047   3.239   6.458   6.048
 8369TIP3    H125048   3.211   6.465   6.139
 8369TIP3    H225049   3.167   6.497   5.998
 8370TIP3   OH225050   2.570   4.450   1.996
 8370TIP3    H125051   2.646   4.392   1.989
 8370TIP3    H225052   2.508   4.415   1.932
 8371TIP3   OH225053   2.578   3.262   2.327
 8371TIP3    H125054   2.653   3.275   2.268
 8371TIP3    H225055   2.511   3.220   2.273
 8372TIP3   OH225056   2.826   2.421   1.284
 8372TIP3    H125057   2.772   2.430   1.205
 8372TIP3    H225058   2.800   2.494   1.340
 8373TIP3   OH225059   7.320   3.129   6.508
 8373TIP3    H125060   7.275   3.060   6.558
 8373TIP3    H225061   7.346   3.087   6.427
 8374TIP3   OH225062   2.643   4.242   1.693
 8374TIP3    H125063   2.707   4.242   1.764
 8374TIP3    H225064   2.684   4.293   1.623
 8375TIP3   OH225065   7.226   2.311   5.603
 8375TIP3    H125066   7.232   2.394   5.556
 8375TIP3    H225067   7.255   2.332   5.692
 8376TIP3   OH225068   1.844   6.601   6.884
 8376TIP3    H125069   1.850   6.657   6.807
 8376TIP3    H225070   1.811   6.517   6.850
 8377TIP3   OH225071   7.959   3.011   3.182
 8377TIP3    H125072   7.920   2.928   3.209
 8377TIP3    H225073   7.986   3.052   3.264
 8378TIP3   OH225074   1.217   2.408   6.842
 8378TIP3    H125075   1.251   2.389   6.929
 8378TIP3    H225076   1.250   2.336   6.787
 8379TIP3   OH225077   5.656   3.637   6.444
 8379TIP3    H125078   5.692   3.590   6.369
 8379TIP3    H225079   5.671   3.580   6.519
 8380TIP3   OH225080   4.482   3.670   6.376
 8380TIP3    H125081   4.460   3.619   6.455
 8380TIP3    H225082   4.446   3.618   6.304
 8381TIP3   OH225083   1.473   1.209   5.800
 8381TIP3    H125084   1.432   1.296   5.806
 8381TIP3    H225085   1.496   1.187   5.891
 8382TIP3   OH225086   3.971   7.520   5.985
 8382TIP3    H125087   3.894   7.573   5.965
 8382TIP3    H225088   3.972   7.514   6.080
 8383TIP3   OH225089   2.254   5.393   1.456
 8383TIP3    H125090   2.272   5.418   1.365
 8383TIP3    H225091   2.182   5.330   1.449
 8384TIP3   OH225092   7.838   6.184   5.205
 8384TIP3    H125093   7.847   6.268   5.161
 8384TIP3    H225094   7.792   6.204   5.287
 8385TIP3   OH225095   3.537   5.462   1.735
 8385TIP3    H125096   3.564   5.465   1.643
 8385TIP3    H225097   3.442   5.474   1.733
 8386TIP3   OH225098   4.776   2.616   3.898
 8386TIP3    H125099   4.847   2.555   3.917
 8386TIP3    H225100   4.762   2.663   3.980
 8387TIP3   OH225101   1.138   1.189   1.373
 8387TIP3    H125102   1.151   1.148   1.287
 8387TIP3    H225103   1.198   1.143   1.431
 8388TIP3   OH225104   1.177   6.961   3.099
 8388TIP3    H125105   1.201   6.997   3.184
 8388TIP3    H225106   1.158   7.037   3.044
 8389TIP3   OH225107   2.226   0.483   3.543
 8389TIP3    H125108   2.162   0.518   3.605
 8389TIP3    H225109   2.310   0.490   3.589
 8390TIP3   OH225110   3.787   4.097   1.585
 8390TIP3    H125111   3.792   4.190   1.562
 8390TIP3    H225112   3.840   4.088   1.664
 8391TIP3   OH225113   8.107   1.238   3.097
 8391TIP3    H125114   8.182   1.229   3.154
 8391TIP3    H225115   8.064   1.319   3.125
 8392TIP3   OH225116   6.206   7.231   0.514
 8392TIP3    H125117   6.236   7.162   0.573
 8392TIP3    H225118   6.142   7.189   0.457
 8393TIP3   OH225119   2.706   2.672   1.455
 8393TIP3    H125120   2.693   2.665   1.361
 8393TIP3    H225121   2.762   2.749   1.465
 8394TIP3   OH225122   2.971   3.764   6.229
 8394TIP3    H125123   2.898   3.782   6.287
 8394TIP3    H225124   2.998   3.850   6.197
 8395TIP3   OH225125   5.123   0.818   0.923
 8395TIP3    H125126   5.120   0.801   0.829
 8395TIP3    H225127   5.154   0.909   0.930
 8396TIP3   OH225128   8.365   6.611   3.302
 8396TIP3    H125129   8.407   6.658   3.374
 8396TIP3    H225130   8.311   6.545   3.344
 8397TIP3   OH225131   0.771   3.516   4.711
 8397TIP3    H125132   0.834   3.498   4.642
 8397TIP3    H225133   0.690   3.538   4.666
 8398TIP3   OH225134   3.549   3.490   2.370
 8398TIP3    H125135   3.581   3.449   2.290
 8398TIP3    H225136   3.457   3.508   2.353
 8399TIP3   OH225137   5.314   6.441   4.394
 8399TIP3    H125138   5.328   6.421   4.302
 8399TIP3    H225139   5.226   6.480   4.398
 8400TIP3   OH225140   5.794   2.767   2.856
 8400TIP3    H125141   5.831   2.698   2.911
 8400TIP3    H225142   5.798   2.845   2.912
 8401TIP3   OH225143   7.088   6.462   0.988
 8401TIP3    H125144   7.007   6.508   0.967
 8401TIP3    H225145   7.117   6.501   1.071
 8402TIP3   OH225146   1.176   4.589   0.114
 8402TIP3    H125147   1.242   4.654   0.088
 8402TIP3    H225148   1.226   4.519   0.155
 8403TIP3   OH225149   2.668   6.291   2.225
 8403TIP3    H125150   2.691   6.236   2.150
 8403TIP3    H225151   2.574   6.304   2.217
 8404TIP3   OH225152   4.386   4.602   4.037
 8404TIP3    H125153   4.401   4.651   3.956
 8404TIP3    H225154   4.292   4.609   4.053
 8405TIP3   OH225155   4.533   5.354   6.351
 8405TIP3    H125156   4.607   5.298   6.372
 8405TIP3    H225157   4.531   5.357   6.256
 8406TIP3   OH225158   0.429   6.622   4.093
 8406TIP3    H125159   0.508   6.570   4.078
 8406TIP3    H225160   0.454   6.712   4.072
 8407TIP3   OH225161   7.634   5.854   5.066
 8407TIP3    H125162   7.702   5.906   5.024
 8407TIP3    H225163   7.561   5.915   5.076
 8408TIP3   OH225164   5.355   7.708   1.438
 8408TIP3    H125165   5.307   7.669   1.366
 8408TIP3    H225166   5.312   7.674   1.517
 8409TIP3   OH225167   1.070   3.950   5.016
 8409TIP3    H125168   0.997   3.916   5.068
 8409TIP3    H225169   1.107   4.020   5.071
 8410TIP3   OH225170   1.414   1.893   3.300
 8410TIP3    H125171   1.325   1.904   3.332
 8410TIP3    H225172   1.413   1.926   3.211
 8411TIP3   OH225173   7.785   0.674   2.896
 8411TIP3    H125174   7.838   0.613   2.947
 8411TIP3    H225175   7.740   0.619   2.832
 8412TIP3   OH225176   7.442   4.648   0.358
 8412TIP3    H125177   7.484   4.666   0.442
 8412TIP3    H225178   7.515   4.642   0.296
 8413TIP3   OH225179   3.746   5.549   0.678
 8413TIP3    H125180   3.695   5.604   0.618
 8413TIP3    H225181   3.800   5.612   0.727
 8414TIP3   OH225182   1.851   2.579   5.696
 8414TIP3    H125183   1.838   2.539   5.610
 8414TIP3    H225184   1.784   2.647   5.702
 8415TIP3   OH225185   1.975   5.482   5.268
 8415TIP3    H125186   1.932   5.480   5.183
 8415TIP3    H225187   1.978   5.575   5.291
 8416TIP3   OH225188   1.687   2.090   5.764
 8416TIP3    H125189   1.745   2.157   5.801
 8416TIP3    H225190   1.609   2.139   5.736
 8417TIP3   OH225191   3.900   0.082   1.662
 8417TIP3    H125192   3.901   0.060   1.755
 8417TIP3    H225193   3.887   0.176   1.659
 8418TIP3   OH225194   4.728   2.385   0.637
 8418TIP3    H125195   4.660   2.413   0.699
 8418TIP3    H225196   4.679   2.343   0.566
 8419TIP3   OH225197   1.628   2.662   2.836
 8419TIP3    H125198   1.622   2.648   2.931
 8419TIP3    H225199   1.576   2.591   2.799
 8420TIP3   OH225200   2.128   5.509   2.861
 8420TIP3    H125201   2.087   5.568   2.797
 8420TIP3    H225202   2.055   5.477   2.914
 8421TIP3   OH225203   5.126   7.449   1.099
 8421TIP3    H125204   5.080   7.432   1.181
 8421TIP3    H225205   5.156   7.540   1.108
 8422TIP3   OH225206   8.336   4.321   1.908
 8422TIP3    H125207   8.411   4.270   1.877
 8422TIP3    H225208   8.373   4.406   1.931
 8423TIP3   OH225209   1.122   7.492   2.061
 8423TIP3    H125210   1.129   7.414   2.005
 8423TIP3    H225211   1.114   7.564   1.999
 8424TIP3   OH225212   8.256   5.039   2.185
 8424TIP3    H125213   8.184   5.073   2.238
 8424TIP3    H225214   8.265   4.948   2.213
 8425TIP3   OH225215   3.460   6.340   2.843
 8425TIP3    H125216   3.468   6.328   2.937
 8425TIP3    H225217   3.550   6.334   2.810
 8426TIP3   OH225218   1.135   0.609   1.857
 8426TIP3    H125219   1.230   0.600   1.862
 8426TIP3    H225220   1.110   0.639   1.944
 8427TIP3   OH225221   4.714   0.767   1.625
 8427TIP3    H125222   4.646   0.771   1.559
 8427TIP3    H225223   4.740   0.675   1.628
 8428TIP3   OH225224   1.060   1.938   1.529
 8428TIP3    H125225   1.018   1.870   1.476
 8428TIP3    H225226   0.995   1.958   1.597
 8429TIP3   OH225227   6.697   0.083   3.560
 8429TIP3    H125228   6.782   0.052   3.528
 8429TIP3    H225229   6.643   0.005   3.566
 8430TIP3   OH225230   7.779   5.484   1.747
 8430TIP3    H125231   7.870   5.456   1.735
 8430TIP3    H225232   7.783   5.549   1.816
 8431TIP3   OH225233   6.559   4.680   3.615
 8431TIP3    H125234   6.546   4.645   3.703
 8431TIP3    H225235   6.499   4.630   3.560
 8432TIP3   OH225236   1.216   6.592   5.924
 8432TIP3    H125237   1.128   6.626   5.942
 8432TIP3    H225238   1.240   6.545   6.004
 8433TIP3   OH225239   0.134   2.239   0.477
 8433TIP3    H125240   0.139   2.293   0.398
 8433TIP3    H225241   0.156   2.151   0.447
 8434TIP3   OH225242   6.768   2.431   2.902
 8434TIP3    H125243   6.798   2.466   2.818
 8434TIP3    H225244   6.678   2.463   2.910
 8435TIP3   OH225245   2.589   2.767   5.406
 8435TIP3    H125246   2.518   2.821   5.441
 8435TIP3    H225247   2.600   2.797   5.316
 8436TIP3   OH225248   2.960   5.420   5.920
 8436TIP3    H125249   2.878   5.399   5.876
 8436TIP3    H225250   2.985   5.340   5.966
 8437TIP3   OH225251   7.381   1.161   1.600
 8437TIP3    H125252   7.346   1.087   1.550
 8437TIP3    H225253   7.441   1.121   1.663
 8438TIP3   OH225254   0.350   0.481   1.089
 8438TIP3    H125255   0.399   0.401   1.109
 8438TIP3    H225256   0.264   0.449   1.059
 8439TIP3   OH225257   7.461   6.989   6.448
 8439TIP3    H125258   7.511   7.069   6.463
 8439TIP3    H225259   7.373   7.020   6.429
 8440TIP3   OH225260   5.194   4.602   2.048
 8440TIP3    H125261   5.276   4.611   2.097
 8440TIP3    H225262   5.138   4.671   2.083
 8441TIP3   OH225263   5.901   4.767   3.620
 8441TIP3    H125264   5.827   4.707   3.626
 8441TIP3    H225265   5.899   4.800   3.531
 8442TIP3   OH225266   4.765   6.445   4.645
 8442TIP3    H125267   4.697   6.508   4.618
 8442TIP3    H225268   4.823   6.439   4.569
 8443TIP3   OH225269   5.267   3.590   4.478
 8443TIP3    H125270   5.342   3.578   4.419
 8443TIP3    H225271   5.238   3.501   4.499
 8444TIP3   OH225272   2.076   4.024   2.142
 8444TIP3    H125273   2.093   3.958   2.210
 8444TIP3    H225274   2.002   4.075   2.177
 8445TIP3   OH225275   6.619   3.835   5.963
 8445TIP3    H125276   6.625   3.906   6.028
 8445TIP3    H225277   6.553   3.866   5.900
 8446TIP3   OH225278   3.579   1.094   3.615
 8446TIP3    H125279   3.534   1.037   3.677
 8446TIP3    H225280   3.543   1.181   3.631
 8447TIP3   OH225281   2.749   4.272   5.837
 8447TIP3    H125282   2.686   4.204   5.816
 8447TIP3    H225283   2.704   4.328   5.901
 8448TIP3   OH225284   1.528   1.055   4.080
 8448TIP3    H125285   1.545   1.099   4.164
 8448TIP3    H225286   1.441   1.016   4.091
 8449TIP3   OH225287   6.854   3.615   3.364
 8449TIP3    H125288   6.919   3.684   3.351
 8449TIP3    H225289   6.873   3.582   3.452
 8450TIP3   OH225290   4.155   2.980   0.735
 8450TIP3    H125291   4.148   2.894   0.695
 8450TIP3    H225292   4.161   3.041   0.662
 8451TIP3   OH225293   8.285   7.167   1.056
 8451TIP3    H125294   8.217   7.229   1.030
 8451TIP3    H225295   8.267   7.149   1.148
 8452TIP3   OH225296   6.817   3.904   3.175
 8452TIP3    H125297   6.766   3.979   3.206
 8452TIP3    H225298   6.893   3.900   3.233
 8453TIP3   OH225299   6.342   4.791   2.197
 8453TIP3    H125300   6.409   4.842   2.151
 8453TIP3    H225301   6.335   4.831   2.283
 8454TIP3   OH225302   2.823   2.895   6.132
 8454TIP3    H125303   2.741   2.943   6.147
 8454TIP3    H225304   2.801   2.829   6.066
 8455TIP3   OH225305   3.893   3.210   5.785
 8455TIP3    H125306   3.833   3.282   5.768
 8455TIP3    H225307   3.856   3.135   5.737
 8456TIP3   OH225308   3.063   7.901   6.669
 8456TIP3    H125309   3.057   7.975   6.729
 8456TIP3    H225310   3.028   7.827   6.718
 8457TIP3   OH225311   6.891   3.183   4.305
 8457TIP3    H125312   6.928   3.149   4.387
 8457TIP3    H225313   6.801   3.206   4.327
 8458TIP3   OH225314   8.115   4.345   3.475
 8458TIP3    H125315   8.202   4.306   3.471
 8458TIP3    H225316   8.129   4.432   3.513
 8459TIP3   OH225317   7.692   2.443   2.356
 8459TIP3    H125318   7.741   2.520   2.383
 8459TIP3    H225319   7.694   2.385   2.432
 8460TIP3   OH225320   4.991   1.488   0.584
 8460TIP3    H125321   4.945   1.560   0.628
 8460TIP3    H225322   5.013   1.427   0.653
 8461TIP3   OH225323   5.911   5.940   6.467
 8461TIP3    H125324   5.840   5.888   6.505
 8461TIP3    H225325   5.870   5.984   6.392
 8462TIP3   OH225326   7.498   2.068   0.443
 8462TIP3    H125327   7.500   2.163   0.457
 8462TIP3    H225328   7.575   2.036   0.491
 8463TIP3   OH225329   1.541   2.999   1.057
 8463TIP3    H125330   1.608   3.053   1.098
 8463TIP3    H225331   1.542   2.917   1.107
 8464TIP3   OH225332   3.547   5.512   3.805
 8464TIP3    H125333   3.598   5.432   3.813
 8464TIP3    H225334   3.611   5.579   3.780
 8465TIP3   OH225335   6.231   6.390   6.040
 8465TIP3    H125336   6.166   6.390   5.969
 8465TIP3    H225337   6.220   6.304   6.082
 8466TIP3   OH225338   3.578   1.363   3.281
 8466TIP3    H125339   3.671   1.343   3.268
 8466TIP3    H225340   3.573   1.399   3.369
 8467TIP3   OH225341   2.115   7.008   2.573
 8467TIP3    H125342   2.094   7.093   2.535
 8467TIP3    H225343   2.194   7.023   2.625
 8468TIP3   OH225344   0.248   7.132   1.864
 8468TIP3    H125345   0.271   7.041   1.882
 8468TIP3    H225346   0.330   7.174   1.841
 8469TIP3   OH225347   5.805   5.142   3.528
 8469TIP3    H125348   5.771   5.120   3.442
 8469TIP3    H225349   5.889   5.096   3.533
 8470TIP3   OH225350   7.743   6.033   3.815
 8470TIP3    H125351   7.804   6.063   3.748
 8470TIP3    H225352   7.789   5.963   3.861
 8471TIP3   OH225353   7.568   5.911   0.737
 8471TIP3    H125354   7.541   5.820   0.736
 8471TIP3    H225355   7.527   5.950   0.660
 8472TIP3   OH225356   5.425   1.120   4.432
 8472TIP3    H125357   5.480   1.084   4.502
 8472TIP3    H225358   5.450   1.070   4.355
 8473TIP3   OH225359   7.797   6.200   4.150
 8473TIP3    H125360   7.736   6.151   4.095
 8473TIP3    H225361   7.776   6.172   4.239
 8474TIP3   OH225362   6.279   1.923   2.464
 8474TIP3    H125363   6.306   1.878   2.383
 8474TIP3    H225364   6.185   1.935   2.454
 8475TIP3   OH225365   6.508   6.371   6.007
 8475TIP3    H125366   6.525   6.439   6.073
 8475TIP3    H225367   6.413   6.367   6.000
 8476TIP3   OH225368   2.202   4.739   0.432
 8476TIP3    H125369   2.150   4.815   0.408
 8476TIP3    H225370   2.215   4.747   0.526
 8477TIP3   OH225371   2.655   0.265   5.567
 8477TIP3    H125372   2.706   0.333   5.611
 8477TIP3    H225373   2.657   0.191   5.627
 8478TIP3   OH225374   4.977   6.467   1.156
 8478TIP3    H125375   4.891   6.484   1.116
 8478TIP3    H225376   4.998   6.547   1.203
 8479TIP3   OH225377   0.621   0.176   4.839
 8479TIP3    H125378   0.713   0.160   4.815
 8479TIP3    H225379   0.580   0.090   4.831
 8480TIP3   OH225380   0.718   6.429   0.934
 8480TIP3    H125381   0.675   6.500   0.982
 8480TIP3    H225382   0.805   6.464   0.914
 8481TIP3   OH225383   0.431   5.805   2.068
 8481TIP3    H125384   0.450   5.825   1.976
 8481TIP3    H225385   0.495   5.857   2.117
 8482TIP3   OH225386   6.203   7.353   5.070
 8482TIP3    H125387   6.171   7.403   5.146
 8482TIP3    H225388   6.265   7.412   5.027
 8483TIP3   OH225389   1.770   1.535   3.906
 8483TIP3    H125390   1.821   1.500   3.978
 8483TIP3    H225391   1.826   1.602   3.866
 8484TIP3   OH225392   0.571   1.876   3.625
 8484TIP3    H125393   0.537   1.891   3.713
 8484TIP3    H225394   0.637   1.944   3.612
 8485TIP3   OH225395   3.323   1.098   6.255
 8485TIP3    H125396   3.301   1.144   6.336
 8485TIP3    H225397   3.397   1.147   6.219
 8486TIP3   OH225398   0.326   2.402   3.266
 8486TIP3    H125399   0.254   2.449   3.309
 8486TIP3    H225400   0.298   2.394   3.175
 8487TIP3   OH225401   5.848   1.951   3.315
 8487TIP3    H125402   5.790   2.019   3.347
 8487TIP3    H225403   5.860   1.971   3.222
 8488TIP3   OH225404   6.745   0.828   1.905
 8488TIP3    H125405   6.770   0.829   1.813
 8488TIP3    H225406   6.808   0.885   1.949
 8489TIP3   OH225407   5.165   0.193   5.516
 8489TIP3    H125408   5.239   0.159   5.466
 8489TIP3    H225409   5.099   0.215   5.451
 8490TIP3   OH225410   2.655   1.033   3.602
 8490TIP3    H125411   2.635   1.106   3.544
 8490TIP3    H225412   2.680   0.962   3.543
 8491TIP3   OH225413   7.028   1.050   0.424
 8491TIP3    H125414   6.951   0.994   0.436
 8491TIP3    H225415   7.093   1.016   0.486
 8492TIP3   OH225416   5.212   2.263   5.106
 8492TIP3    H125417   5.171   2.180   5.080
 8492TIP3    H225418   5.141   2.327   5.100
 8493TIP3   OH225419   7.704   1.602   6.005
 8493TIP3    H125420   7.668   1.566   5.924
 8493TIP3    H225421   7.694   1.532   6.069
 8494TIP3   OH225422   5.489   6.229   1.610
 8494TIP3    H125423   5.449   6.268   1.532
 8494TIP3    H225424   5.476   6.135   1.599
 8495TIP3   OH225425   4.983   2.866   6.444
 8495TIP3    H125426   4.895   2.828   6.443
 8495TIP3    H225427   5.035   2.805   6.497
 8496TIP3   OH225428   2.350   4.848   1.985
 8496TIP3    H125429   2.388   4.790   2.051
 8496TIP3    H225430   2.383   4.935   2.008
 8497TIP3   OH225431   5.615   7.680   1.339
 8497TIP3    H125432   5.530   7.710   1.372
 8497TIP3    H225433   5.600   7.662   1.246
 8498TIP3   OH225434   4.190   3.015   6.778
 8498TIP3    H125435   4.234   3.097   6.753
 8498TIP3    H225436   4.098   3.040   6.789
 8499TIP3   OH225437   6.614   3.237   4.428
 8499TIP3    H125438   6.520   3.229   4.440
 8499TIP3    H225439   6.631   3.331   4.426
 8500TIP3   OH225440   1.022   7.280   3.510
 8500TIP3    H125441   1.019   7.342   3.437
 8500TIP3    H225442   1.014   7.194   3.468
 8501TIP3   OH225443   4.555   7.772   2.649
 8501TIP3    H125444   4.522   7.816   2.727
 8501TIP3    H225445   4.650   7.786   2.652
 8502TIP3   OH225446   1.802   3.473   5.504
 8502TIP3    H125447   1.820   3.417   5.580
 8502TIP3    H225448   1.727   3.526   5.531
 8503TIP3   OH225449   4.346   7.663   2.504
 8503TIP3    H125450   4.417   7.707   2.551
 8503TIP3    H225451   4.372   7.571   2.501
 8504TIP3   OH225452   2.555   6.401   0.107
 8504TIP3    H125453   2.532   6.329   0.165
 8504TIP3    H225454   2.600   6.360   0.033
 8505TIP3   OH225455   4.633   4.158   1.078
 8505TIP3    H125456   4.559   4.175   1.136
 8505TIP3    H225457   4.621   4.068   1.049
 8506TIP3   OH225458   6.195   6.280   3.556
 8506TIP3    H125459   6.239   6.242   3.479
 8506TIP3    H225460   6.262   6.281   3.624
 8507TIP3   OH225461   6.785   1.262   6.660
 8507TIP3    H125462   6.765   1.197   6.727
 8507TIP3    H225463   6.868   1.300   6.688
 8508TIP3   OH225464   7.147   2.489   4.781
 8508TIP3    H125465   7.103   2.446   4.854
 8508TIP3    H225466   7.235   2.507   4.815
 8509TIP3   OH225467   2.819   3.811   2.704
 8509TIP3    H125468   2.726   3.833   2.706
 8509TIP3    H225469   2.862   3.888   2.742
 8510TIP3   OH225470   5.264   7.454   4.381
 8510TIP3    H125471   5.287   7.399   4.456
 8510TIP3    H225472   5.206   7.398   4.329
 8511TIP3   OH225473   5.762   4.047   0.361
 8511TIP3    H125474   5.787   4.115   0.298
 8511TIP3    H225475   5.685   4.006   0.323
 8512TIP3   OH225476   5.589   4.094   5.911
 8512TIP3    H125477   5.601   4.044   5.991
 8512TIP3    H225478   5.641   4.047   5.845
 8513TIP3   OH225479   0.437   1.232   2.050
 8513TIP3    H125480   0.385   1.280   2.115
 8513TIP3    H225481   0.498   1.297   2.016
 8514TIP3   OH225482   5.973   5.135   6.015
 8514TIP3    H125483   5.893   5.186   5.998
 8514TIP3    H225484   6.033   5.161   5.945
 8515TIP3   OH225485   7.066   5.273   4.675
 8515TIP3    H125486   7.155   5.248   4.652
 8515TIP3    H225487   7.076   5.339   4.744
 8516TIP3   OH225488   2.917   6.433   3.379
 8516TIP3    H125489   2.860   6.413   3.305
 8516TIP3    H225490   3.006   6.425   3.345
 8517TIP3   OH225491   4.280   4.583   0.726
 8517TIP3    H125492   4.369   4.575   0.760
 8517TIP3    H225493   4.255   4.493   0.705
 8518TIP3   OH225494   7.881   3.896   2.265
 8518TIP3    H125495   7.794   3.934   2.256
 8518TIP3    H225496   7.936   3.947   2.205
 8519TIP3   OH225497   1.661   6.567   1.663
 8519TIP3    H125498   1.588   6.517   1.628
 8519TIP3    H225499   1.623   6.619   1.734
 8520TIP3   OH225500   5.601   7.261   1.863
 8520TIP3    H125501   5.568   7.351   1.866
 8520TIP3    H225502   5.536   7.213   1.811
 8521TIP3   OH225503   2.062   7.688   5.847
 8521TIP3    H125504   2.137   7.725   5.801
 8521TIP3    H225505   2.046   7.604   5.802
 8522TIP3   OH225506   3.051   5.436   1.142
 8522TIP3    H125507   3.096   5.478   1.069
 8522TIP3    H225508   3.014   5.508   1.193
 8523TIP3   OH225509   1.461   2.781   5.470
 8523TIP3    H125510   1.499   2.694   5.459
 8523TIP3    H225511   1.369   2.765   5.492
 8524TIP3   OH225512   0.721   2.968   5.153
 8524TIP3    H125513   0.813   2.973   5.180
 8524TIP3    H225514   0.680   3.045   5.193
 8525TIP3   OH225515   6.318   7.098   4.526
 8525TIP3    H125516   6.408   7.096   4.493
 8525TIP3    H225517   6.293   7.006   4.535
 8526TIP3   OH225518   0.967   1.468   1.122
 8526TIP3    H125519   1.052   1.510   1.109
 8526TIP3    H225520   0.982   1.376   1.099
 8527TIP3   OH225521   6.718   2.494   5.215
 8527TIP3    H125522   6.791   2.455   5.262
 8527TIP3    H225523   6.755   2.571   5.172
 8528TIP3   OH225524   6.909   7.472   3.247
 8528TIP3    H125525   6.902   7.463   3.342
 8528TIP3    H225526   6.959   7.552   3.234
 8529TIP3   OH225527   3.351   2.124   5.708
 8529TIP3    H125528   3.422   2.156   5.654
 8529TIP3    H225529   3.373   2.153   5.797
 8530TIP3   OH225530   5.049   5.467   5.578
 8530TIP3    H125531   5.087   5.440   5.662
 8530TIP3    H225532   5.123   5.502   5.529
 8531TIP3   OH225533   4.748   3.035   0.809
 8531TIP3    H125534   4.779   2.945   0.817
 8531TIP3    H225535   4.813   3.079   0.755
 8532TIP3   OH225536   6.837   2.396   1.360
 8532TIP3    H125537   6.750   2.433   1.345
 8532TIP3    H225538   6.820   2.311   1.401
 8533TIP3   OH225539   6.934   2.934   4.154
 8533TIP3    H125540   6.910   2.843   4.171
 8533TIP3    H225541   6.911   2.981   4.234
 8534TIP3   OH225542   3.988   4.457   5.071
 8534TIP3    H125543   4.003   4.407   4.991
 8534TIP3    H225544   4.029   4.541   5.055
 8535TIP3   OH225545   1.696   1.703   2.224
 8535TIP3    H125546   1.671   1.792   2.250
 8535TIP3    H225547   1.616   1.665   2.189
 8536TIP3   OH225548   1.649   7.697   4.612
 8536TIP3    H125549   1.729   7.682   4.561
 8536TIP3    H225550   1.678   7.752   4.685
 8537TIP3   OH225551   6.700   2.121   6.551
 8537TIP3    H125552   6.792   2.128   6.526
 8537TIP3    H225553   6.652   2.161   6.478
 8538TIP3   OH225554   6.532   1.379   1.218
 8538TIP3    H125555   6.461   1.348   1.274
 8538TIP3    H225556   6.489   1.435   1.154
 8539TIP3   OH225557   3.262   5.465   4.024
 8539TIP3    H125558   3.272   5.546   3.973
 8539TIP3    H225559   3.290   5.489   4.112
 8540TIP3   OH225560   2.462   7.370   3.934
 8540TIP3    H125561   2.519   7.347   3.861
 8540TIP3    H225562   2.375   7.340   3.907
 8541TIP3   OH225563   3.564   3.715   3.263
 8541TIP3    H125564   3.640   3.765   3.234
 8541TIP3    H225565   3.519   3.689   3.183
 8542TIP3   OH225566   5.337   1.022   2.197
 8542TIP3    H125567   5.278   1.032   2.272
 8542TIP3    H225568   5.351   1.111   2.166
 8543TIP3   OH225569   1.159   0.482   3.668
 8543TIP3    H125570   1.085   0.501   3.725
 8543TIP3    H225571   1.216   0.425   3.720
 8544TIP3   OH225572   3.991   2.682   5.959
 8544TIP3    H125573   3.928   2.745   5.925
 8544TIP3    H225574   4.005   2.708   6.049
 8545TIP3   OH225575   5.536   1.624   2.294
 8545TIP3    H125576   5.598   1.666   2.353
 8545TIP3    H225577   5.519   1.539   2.332
 8546TIP3   OH225578   4.315   7.605   5.583
 8546TIP3    H125579   4.252   7.670   5.612
 8546TIP3    H225580   4.273   7.560   5.510
 8547TIP3   OH225581   1.819   1.406   2.900
 8547TIP3    H125582   1.855   1.347   2.834
 8547TIP3    H225583   1.858   1.376   2.982
 8548TIP3   OH225584   3.473   1.561   3.116
 8548TIP3    H125585   3.533   1.521   3.179
 8548TIP3    H225586   3.388   1.562   3.160
 8549TIP3   OH225587   0.990   4.771   0.127
 8549TIP3    H125588   1.017   4.819   0.049
 8549TIP3    H225589   1.046   4.694   0.129
 8550TIP3   OH225590   2.537   5.581   3.342
 8550TIP3    H125591   2.519   5.602   3.434
 8550TIP3    H225592   2.537   5.667   3.298
 8551TIP3   OH225593   3.274   4.634   0.092
 8551TIP3    H125594   3.338   4.625   0.163
 8551TIP3    H225595   3.291   4.559   0.035
 8552TIP3   OH225596   3.856   6.952   5.829
 8552TIP3    H125597   3.939   6.997   5.821
 8552TIP3    H225598   3.795   7.003   5.775
 8553TIP3   OH225599   8.347   0.731   1.265
 8553TIP3    H125600   8.394   0.683   1.333
 8553TIP3    H225601   8.302   0.802   1.311
 8554TIP3   OH225602   1.817   1.860   0.429
 8554TIP3    H125603   1.776   1.775   0.444
 8554TIP3    H225604   1.850   1.885   0.515
 8555TIP3   OH225605   0.282   4.895   6.356
 8555TIP3    H125606   0.330   4.905   6.274
 8555TIP3    H225607   0.191   4.881   6.329
 8556TIP3   OH225608   1.615   2.427   1.025
 8556TIP3    H125609   1.568   2.351   0.988
 8556TIP3    H225610   1.692   2.389   1.068
 8557TIP3   OH225611   6.927   3.783   4.304
 8557TIP3    H125612   6.943   3.869   4.341
 8557TIP3    H225613   6.873   3.799   4.226
 8558TIP3   OH225614   5.468   7.633   4.614
 8558TIP3    H125615   5.373   7.643   4.604
 8558TIP3    H225616   5.489   7.555   4.564
 8559TIP3   OH225617   4.415   6.867   4.491
 8559TIP3    H125618   4.330   6.865   4.446
 8559TIP3    H225619   4.461   6.941   4.452
 8560TIP3   OH225620   0.311   4.362   0.999
 8560TIP3    H125621   0.374   4.300   0.961
 8560TIP3    H225622   0.343   4.376   1.088
 8561TIP3   OH225623   4.115   1.344   5.684
 8561TIP3    H125624   4.185   1.393   5.641
 8561TIP3    H225625   4.067   1.304   5.612
 8562TIP3   OH225626   2.587   1.966   3.452
 8562TIP3    H125627   2.657   1.937   3.511
 8562TIP3    H225628   2.596   2.061   3.449
 8563TIP3   OH225629   5.131   7.515   2.538
 8563TIP3    H125630   5.053   7.464   2.560
 8563TIP3    H225631   5.105   7.568   2.463
 8564TIP3   OH225632   7.015   5.051   5.169
 8564TIP3    H125633   7.107   5.026   5.161
 8564TIP3    H225634   7.005   5.079   5.260
 8565TIP3   OH225635   7.014   1.451   4.970
 8565TIP3    H125636   7.059   1.446   5.054
 8565TIP3    H225637   6.928   1.486   4.991
 8566TIP3   OH225638   5.834   5.733   2.970
 8566TIP3    H125639   5.800   5.763   3.054
 8566TIP3    H225640   5.774   5.664   2.943
 8567TIP3   OH225641   2.557   1.018   2.828
 8567TIP3    H125642   2.522   1.103   2.854
 8567TIP3    H225643   2.592   0.980   2.908
 8568TIP3   OH225644   1.446   3.707   3.219
 8568TIP3    H125645   1.395   3.677   3.294
 8568TIP3    H225646   1.402   3.666   3.144
 8569TIP3   OH225647   1.470   4.248   2.920
 8569TIP3    H125648   1.481   4.171   2.865
 8569TIP3    H225649   1.549   4.250   2.974
 8570TIP3   OH225650   3.110   5.707   3.681
 8570TIP3    H125651   3.146   5.752   3.605
 8570TIP3    H225652   3.185   5.698   3.741
 8571TIP3   OH225653   0.007   6.370   4.801
 8571TIP3    H125654   0.043   6.415   4.725
 8571TIP3    H225655   0.082   6.354   4.858
 8572TIP3   OH225656   1.611   7.135   1.017
 8572TIP3    H125657   1.545   7.204   1.016
 8572TIP3    H225658   1.564   7.056   0.992
 8573TIP3   OH225659   4.564   5.723   5.314
 8573TIP3    H125660   4.529   5.781   5.246
 8573TIP3    H225661   4.512   5.744   5.392
 8574TIP3   OH225662   5.600   2.917   5.042
 8574TIP3    H125663   5.532   2.853   5.060
 8574TIP3    H225664   5.553   2.998   5.021
 8575TIP3   OH225665   1.114   0.231   0.694
 8575TIP3    H125666   1.066   0.304   0.733
 8575TIP3    H225667   1.112   0.248   0.600
 8576TIP3   OH225668   5.822   2.998   2.395
 8576TIP3    H125669   5.791   3.088   2.402
 8576TIP3    H225670   5.902   3.004   2.344
 8577TIP3   OH225671   3.282   0.232   2.770
 8577TIP3    H125672   3.194   0.248   2.804
 8577TIP3    H225673   3.281   0.271   2.682
 8578TIP3   OH225674   4.762   7.422   1.976
 8578TIP3    H125675   4.814   7.349   1.942
 8578TIP3    H225676   4.725   7.464   1.899
 8579TIP3   OH225677   5.731   3.578   4.432
 8579TIP3    H125678   5.709   3.654   4.379
 8579TIP3    H225679   5.648   3.535   4.450
 8580TIP3   OH225680   1.880   2.745   3.422
 8580TIP3    H125681   1.872   2.819   3.481
 8580TIP3    H225682   1.889   2.669   3.479
 8581TIP3   OH225683   0.075   0.530   0.577
 8581TIP3    H125684   0.107   0.469   0.643
 8581TIP3    H225685   0.023   0.476   0.517
 8582TIP3   OH225686   7.125   5.671   1.260
 8582TIP3    H125687   7.102   5.606   1.325
 8582TIP3    H225688   7.155   5.747   1.311
 8583TIP3   OH225689   3.677   3.411   0.881
 8583TIP3    H125690   3.704   3.416   0.972
 8583TIP3    H225691   3.610   3.479   0.872
 8584TIP3   OH225692   6.301   0.495   0.671
 8584TIP3    H125693   6.336   0.413   0.707
 8584TIP3    H225694   6.340   0.501   0.583
 8585TIP3   OH225695   6.578   7.503   3.556
 8585TIP3    H125696   6.539   7.458   3.631
 8585TIP3    H225697   6.505   7.548   3.515
 8586TIP3   OH225698   7.321   6.834   6.083
 8586TIP3    H125699   7.277   6.766   6.134
 8586TIP3    H225700   7.385   6.786   6.030
 8587TIP3   OH225701   3.304   6.386   4.716
 8587TIP3    H125702   3.376   6.450   4.722
 8587TIP3    H225703   3.227   6.439   4.695
 8588TIP3   OH225704   0.475   6.853   6.611
 8588TIP3    H125705   0.545   6.911   6.582
 8588TIP3    H225706   0.397   6.909   6.617
 8589TIP3   OH225707   8.117   2.178   3.018
 8589TIP3    H125708   8.029   2.141   3.015
 8589TIP3    H225709   8.174   2.110   2.982
 8590TIP3   OH225710   5.325   3.292   6.377
 8590TIP3    H125711   5.320   3.299   6.281
 8590TIP3    H225712   5.258   3.228   6.399
 8591TIP3   OH225713   6.995   7.608   2.545
 8591TIP3    H125714   6.978   7.638   2.634
 8591TIP3    H225715   7.007   7.513   2.553
 8592TIP3   OH225716   1.772   1.251   0.640
 8592TIP3    H125717   1.706   1.182   0.628
 8592TIP3    H225718   1.855   1.209   0.616
 8593TIP3   OH225719   0.771   1.791   5.385
 8593TIP3    H125720   0.823   1.746   5.452
 8593TIP3    H225721   0.682   1.759   5.399
 8594TIP3   OH225722   4.964   0.799   3.247
 8594TIP3    H125723   4.958   0.887   3.286
 8594TIP3    H225724   4.912   0.744   3.305
 8595TIP3   OH225725   7.354   3.636   5.817
 8595TIP3    H125726   7.339   3.662   5.726
 8595TIP3    H225727   7.307   3.553   5.827
 8596TIP3   OH225728   7.505   2.298   5.493
 8596TIP3    H125729   7.548   2.331   5.572
 8596TIP3    H225730   7.465   2.215   5.519
 8597TIP3   OH225731   1.620   6.329   3.808
 8597TIP3    H125732   1.708   6.321   3.770
 8597TIP3    H225733   1.571   6.382   3.744
 8598TIP3   OH225734   3.669   2.481   4.467
 8598TIP3    H125735   3.702   2.543   4.533
 8598TIP3    H225736   3.641   2.537   4.394
 8599TIP3   OH225737   5.465   3.431   2.092
 8599TIP3    H125738   5.497   3.405   2.006
 8599TIP3    H225739   5.429   3.519   2.079
 8600TIP3   OH225740   0.801   3.435   4.096
 8600TIP3    H125741   0.893   3.410   4.103
 8600TIP3    H225742   0.760   3.363   4.049
 8601TIP3   OH225743   1.649   0.530   2.077
 8601TIP3    H125744   1.700   0.510   1.999
 8601TIP3    H225745   1.669   0.621   2.096
 8602TIP3   OH225746   7.022   1.313   0.781
 8602TIP3    H125747   6.959   1.287   0.715
 8602TIP3    H225748   7.092   1.357   0.732
 8603TIP3   OH225749   3.781   1.338   2.496
 8603TIP3    H125750   3.768   1.359   2.404
 8603TIP3    H225751   3.775   1.243   2.500
 8604TIP3   OH225752   5.225   5.669   5.158
 8604TIP3    H125753   5.184   5.720   5.088
 8604TIP3    H225754   5.201   5.578   5.139
 8605TIP3   OH225755   7.803   4.099   5.859
 8605TIP3    H125756   7.749   4.096   5.938
 8605TIP3    H225757   7.863   4.025   5.869
 8606TIP3   OH225758   4.128   2.728   0.603
 8606TIP3    H125759   4.211   2.715   0.558
 8606TIP3    H225760   4.087   2.641   0.602
 8607TIP3   OH225761   3.694   1.844   3.357
 8607TIP3    H125762   3.654   1.899   3.290
 8607TIP3    H225763   3.782   1.826   3.324
 8608TIP3   OH225764   0.317   7.397   6.525
 8608TIP3    H125765   0.349   7.310   6.550
 8608TIP3    H225766   0.364   7.416   6.443
 8609TIP3   OH225767   3.941   3.538   1.234
 8609TIP3    H125768   3.902   3.551   1.148
 8609TIP3    H225769   3.957   3.444   1.239
 8610TIP3   OH225770   1.855   7.539   1.726
 8610TIP3    H125771   1.828   7.608   1.665
 8610TIP3    H225772   1.781   7.478   1.726
 8611TIP3   OH225773   7.472   3.448   0.534
 8611TIP3    H125774   7.562   3.469   0.509
 8611TIP3    H225775   7.466   3.353   0.525
 8612TIP3   OH225776   1.388   4.244   5.211
 8612TIP3    H125777   1.382   4.151   5.235
 8612TIP3    H225778   1.298   4.270   5.193
 8613TIP3   OH225779   7.424   1.606   1.161
 8613TIP3    H125780   7.334   1.594   1.192
 8613TIP3    H225781   7.449   1.519   1.129
 8614TIP3   OH225782   4.728   0.092   5.290
 8614TIP3    H125783   4.695   0.059   5.373
 8614TIP3    H225784   4.654   0.138   5.251
 8615TIP3   OH225785   3.589   0.481   4.688
 8615TIP3    H125786   3.601   0.389   4.710
 8615TIP3    H225787   3.505   0.505   4.727
 8616TIP3   OH225788   5.584   6.994   1.236
 8616TIP3    H125789   5.541   6.973   1.153
 8616TIP3    H225790   5.677   7.003   1.214
 8617TIP3   OH225791   6.691   1.451   6.282
 8617TIP3    H125792   6.650   1.447   6.195
 8617TIP3    H225793   6.619   1.444   6.343
 8618TIP3   OH225794   1.725   2.077   2.727
 8618TIP3    H125795   1.745   2.166   2.701
 8618TIP3    H225796   1.683   2.038   2.650
 8619TIP3   OH225797   8.031   6.702   3.885
 8619TIP3    H125798   8.074   6.620   3.861
 8619TIP3    H225799   8.101   6.767   3.885
 8620TIP3   OH225800   3.385   3.806   2.284
 8620TIP3    H125801   3.372   3.867   2.212
 8620TIP3    H225802   3.317   3.739   2.272
 8621TIP3   OH225803   1.487   4.713   0.371
 8621TIP3    H125804   1.532   4.706   0.455
 8621TIP3    H225805   1.555   4.698   0.306
 8622TIP3   OH225806   3.938   6.189   5.507
 8622TIP3    H125807   3.893   6.264   5.468
 8622TIP3    H225808   3.943   6.125   5.436
 8623TIP3   OH225809   8.090   3.999   4.903
 8623TIP3    H125810   8.169   4.050   4.924
 8623TIP3    H225811   8.040   4.056   4.845
 8624TIP3   OH225812   1.274   2.906   6.073
 8624TIP3    H125813   1.363   2.896   6.106
 8624TIP3    H225814   1.251   2.820   6.040
 8625TIP3   OH225815   2.003   0.393   3.384
 8625TIP3    H125816   2.028   0.303   3.365
 8625TIP3    H225817   2.076   0.427   3.436
 8626TIP3   OH225818   1.707   1.291   4.975
 8626TIP3    H125819   1.625   1.324   4.938
 8626TIP3    H225820   1.775   1.337   4.927
 8627TIP3   OH225821   7.875   2.829   4.624
 8627TIP3    H125822   7.793   2.833   4.673
 8627TIP3    H225823   7.847   2.820   4.532
 8628TIP3   OH225824   4.724   0.430   4.172
 8628TIP3    H125825   4.743   0.437   4.266
 8628TIP3    H225826   4.639   0.386   4.167
 8629TIP3   OH225827   7.697   3.796   0.047
 8629TIP3    H125828   7.704   3.729  -0.022
 8629TIP3    H225829   7.615   3.841   0.028
 8630TIP3   OH225830   2.543   5.291   0.374
 8630TIP3    H125831   2.601   5.260   0.304
 8630TIP3    H225832   2.511   5.376   0.343
 8631TIP3   OH225833   5.189   1.990   6.347
 8631TIP3    H125834   5.167   1.906   6.389
 8631TIP3    H225835   5.193   1.970   6.254
 8632TIP3   OH225836   6.161   5.858   6.813
 8632TIP3    H125837   6.118   5.909   6.744
 8632TIP3    H225838   6.201   5.925   6.869
 8633TIP3   OH225839   5.823   5.657   3.690
 8633TIP3    H125840   5.829   5.609   3.608
 8633TIP3    H225841   5.908   5.644   3.732
 8634TIP3   OH225842   3.761   5.033   5.133
 8634TIP3    H125843   3.778   5.124   5.156
 8634TIP3    H225844   3.721   4.995   5.212
 8635TIP3   OH225845   4.536   0.093   6.061
 8635TIP3    H125846   4.492   0.105   5.976
 8635TIP3    H225847   4.628   0.080   6.039
 8636TIP3   OH225848   7.446   3.890   5.488
 8636TIP3    H125849   7.447   3.948   5.564
 8636TIP3    H225850   7.407   3.809   5.520
 8637TIP3   OH225851   0.820   7.407   1.008
 8637TIP3    H125852   0.729   7.385   1.026
 8637TIP3    H225853   0.871   7.349   1.065
 8638TIP3   OH225854   6.462   2.029   3.345
 8638TIP3    H125855   6.431   1.976   3.418
 8638TIP3    H225856   6.557   2.035   3.358
 8639TIP3   OH225857   5.919   4.805   4.210
 8639TIP3    H125858   5.919   4.878   4.271
 8639TIP3    H225859   5.876   4.839   4.131
 8640TIP3   OH225860   7.921   6.923   2.148
 8640TIP3    H125861   7.924   6.903   2.242
 8640TIP3    H225862   8.012   6.921   2.120
 8641TIP3   OH225863   1.453   2.460   3.263
 8641TIP3    H125864   1.422   2.377   3.300
 8641TIP3    H225865   1.486   2.509   3.338
 8642TIP3   OH225866   1.121   0.754   1.352
 8642TIP3    H125867   1.197   0.727   1.403
 8642TIP3    H225868   1.081   0.672   1.324
 8643TIP3   OH225869   2.200   2.303   2.486
 8643TIP3    H125870   2.187   2.228   2.544
 8643TIP3    H225871   2.142   2.371   2.522
 8644TIP3   OH225872   4.136   2.490   3.678
 8644TIP3    H125873   4.213   2.472   3.625
 8644TIP3    H225874   4.141   2.426   3.750
 8645TIP3   OH225875   2.789   2.448   3.580
 8645TIP3    H125876   2.833   2.413   3.503
 8645TIP3    H225877   2.794   2.543   3.571
 8646TIP3   OH225878   7.182   1.890   2.475
 8646TIP3    H125879   7.160   1.979   2.445
 8646TIP3    H225880   7.234   1.854   2.403
 8647TIP3   OH225881   4.909   4.852   3.421
 8647TIP3    H125882   4.829   4.881   3.377
 8647TIP3    H225883   4.893   4.868   3.514
 8648TIP3   OH225884   4.546   5.977   4.351
 8648TIP3    H125885   4.607   5.952   4.282
 8648TIP3    H225886   4.588   6.052   4.393
 8649TIP3   OH225887   4.533   0.448   5.797
 8649TIP3    H125888   4.532   0.515   5.728
 8649TIP3    H225889   4.467   0.385   5.770
 8650TIP3   OH225890   6.372   7.489   4.422
 8650TIP3    H125891   6.404   7.566   4.470
 8650TIP3    H225892   6.449   7.458   4.374
 8651TIP3   OH225893   1.708   1.994   1.681
 8651TIP3    H125894   1.675   2.029   1.598
 8651TIP3    H225895   1.689   1.900   1.677
 8652TIP3   OH225896   7.891   3.594   3.773
 8652TIP3    H125897   7.854   3.595   3.861
 8652TIP3    H225898   7.967   3.536   3.779
 8653TIP3   OH225899   8.309   4.132   6.198
 8653TIP3    H125900   8.399   4.142   6.229
 8653TIP3    H225901   8.316   4.140   6.103
 8654TIP3   OH225902   5.938   3.117   1.971
 8654TIP3    H125903   5.964   3.155   1.886
 8654TIP3    H225904   5.977   3.176   2.036
 8655TIP3   OH225905   2.236   4.752   5.745
 8655TIP3    H125906   2.148   4.725   5.720
 8655TIP3    H225907   2.225   4.799   5.827
 8656TIP3   OH225908   3.856   4.203   0.383
 8656TIP3    H125909   3.900   4.160   0.456
 8656TIP3    H225910   3.774   4.235   0.420
 8657TIP3   OH225911   4.885   4.569   3.314
 8657TIP3    H125912   4.807   4.543   3.263
 8657TIP3    H225913   4.930   4.632   3.259
 8658TIP3   OH225914   4.251   0.278   0.201
 8658TIP3    H125915   4.180   0.213   0.203
 8658TIP3    H225916   4.228   0.340   0.271
 8659TIP3   OH225917   3.937   0.934   5.089
 8659TIP3    H125918   3.844   0.949   5.103
 8659TIP3    H225919   3.968   0.892   5.169
 8660TIP3   OH225920   0.092   2.768   6.824
 8660TIP3    H125921   0.125   2.681   6.800
 8660TIP3    H225922  -0.003   2.758   6.824
 8661TIP3   OH225923   2.059   2.556   3.273
 8661TIP3    H125924   2.113   2.515   3.340
 8661TIP3    H225925   2.018   2.630   3.318
 8662TIP3   OH225926   6.972   1.429   5.637
 8662TIP3    H125927   7.046   1.371   5.619
 8662TIP3    H225928   6.902   1.370   5.664
 8663TIP3   OH225929   6.975   0.791   3.861
 8663TIP3    H125930   7.002   0.849   3.790
 8663TIP3    H225931   6.886   0.819   3.882
 8664TIP3   OH225932   3.037   2.148   6.741
 8664TIP3    H125933   3.131   2.165   6.739
 8664TIP3    H225934   3.014   2.129   6.650
 8665TIP3   OH225935   5.556   4.255   2.991
 8665TIP3    H125936   5.472   4.233   2.951
 8665TIP3    H225937   5.619   4.200   2.944
 8666TIP3   OH225938   1.389   7.062   1.824
 8666TIP3    H125939   1.458   7.062   1.890
 8666TIP3    H225940   1.432   7.096   1.745
 8667TIP3   OH225941   2.891   3.312   0.424
 8667TIP3    H125942   2.865   3.403   0.438
 8667TIP3    H225943   2.984   3.317   0.400
 8668TIP3   OH225944   0.225   1.397   4.389
 8668TIP3    H125945   0.289   1.427   4.324
 8668TIP3    H225946   0.273   1.397   4.472
 8669TIP3   OH225947   5.750   3.815   0.888
 8669TIP3    H125948   5.743   3.908   0.907
 8669TIP3    H225949   5.732   3.772   0.972
 8670TIP3   OH225950   3.595   6.498   0.578
 8670TIP3    H125951   3.605   6.410   0.614
 8670TIP3    H225952   3.619   6.556   0.650
 8671TIP3   OH225953   7.123   0.827   6.053
 8671TIP3    H125954   7.050   0.876   6.091
 8671TIP3    H225955   7.200   0.862   6.097
 8672TIP3   OH225956   1.000   2.914   6.810
 8672TIP3    H125957   1.055   2.835   6.813
 8672TIP3    H225958   0.914   2.882   6.782
 8673TIP3   OH225959   1.514   5.241   3.928
 8673TIP3    H125960   1.431   5.281   3.954
 8673TIP3    H225961   1.503   5.220   3.835
 8674TIP3   OH225962   5.731   1.173   0.565
 8674TIP3    H125963   5.748   1.119   0.641
 8674TIP3    H225964   5.706   1.111   0.496
 8675TIP3   OH225965   6.726   5.995   3.389
 8675TIP3    H125966   6.763   5.907   3.388
 8675TIP3    H225967   6.631   5.981   3.386
 8676TIP3   OH225968   3.948   6.511   0.653
 8676TIP3    H125969   3.887   6.526   0.581
 8676TIP3    H225970   4.022   6.569   0.635
 8677TIP3   OH225971   1.544   3.747   5.681
 8677TIP3    H125972   1.628   3.772   5.719
 8677TIP3    H225973   1.480   3.766   5.749
 8678TIP3   OH225974   3.885   0.254   2.174
 8678TIP3    H125975   3.945   0.322   2.205
 8678TIP3    H225976   3.876   0.195   2.249
 8679TIP3   OH225977   0.548   1.304   0.462
 8679TIP3    H125978   0.632   1.348   0.475
 8679TIP3    H225979   0.547   1.235   0.528
 8680TIP3   OH225980   7.689   1.386   0.117
 8680TIP3    H125981   7.767   1.374   0.172
 8680TIP3    H225982   7.676   1.480   0.114
 8681TIP3   OH225983   5.930   1.733   5.359
 8681TIP3    H125984   5.838   1.709   5.348
 8681TIP3    H225985   5.928   1.815   5.409
 8682TIP3   OH225986   6.978   5.776   2.483
 8682TIP3    H125987   6.957   5.851   2.539
 8682TIP3    H225988   7.023   5.813   2.408
 8683TIP3   OH225989   0.329   0.169   2.732
 8683TIP3    H125990   0.291   0.180   2.645
 8683TIP3    H225991   0.419   0.201   2.723
 8684TIP3   OH225992   7.011   1.936   3.179
 8684TIP3    H125993   7.022   1.989   3.101
 8684TIP3    H225994   7.096   1.893   3.191
 8685TIP3   OH225995   7.725   4.100   4.275
 8685TIP3    H125996   7.756   4.182   4.236
 8685TIP3    H225997   7.785   4.085   4.349
 8686TIP3   OH225998   7.163   4.683   1.498
 8686TIP3    H125999   7.226   4.620   1.532
 8686TIP3    H226000   7.078   4.640   1.509
 8687TIP3   OH226001   3.111   5.336   3.043
 8687TIP3    H126002   3.148   5.248   3.030
 8687TIP3    H226003   3.114   5.349   3.138
 8688TIP3   OH226004   3.408   7.663   5.691
 8688TIP3    H126005   3.491   7.707   5.673
 8688TIP3    H226006   3.410   7.644   5.785
 8689TIP3   OH226007   7.145   6.255   5.374
 8689TIP3    H126008   7.145   6.351   5.381
 8689TIP3    H226009   7.094   6.225   5.449
 8690TIP3   OH226010   5.639   7.871   2.396
 8690TIP3    H126011   5.566   7.932   2.409
 8690TIP3    H226012   5.604   7.786   2.423
 8691TIP3   OH226013   4.381   3.086   1.127
 8691TIP3    H126014   4.476   3.073   1.123
 8691TIP3    H226015   4.364   3.113   1.217
 8692TIP3   OH226016   2.067   2.997   5.246
 8692TIP3    H126017   2.137   2.946   5.206
 8692TIP3    H226018   1.996   2.996   5.181
 8693TIP3   OH226019   6.266   6.168   1.443
 8693TIP3    H126020   6.316   6.248   1.457
 8693TIP3    H226021   6.201   6.191   1.377
 8694TIP3   OH226022   3.778   2.222   1.094
 8694TIP3    H126023   3.798   2.174   1.014
 8694TIP3    H226024   3.745   2.155   1.154
 8695TIP3   OH226025   5.172   7.437   4.778
 8695TIP3    H126026   5.185   7.358   4.829
 8695TIP3    H226027   5.117   7.410   4.704
 8696TIP3   OH226028   3.599   2.794   6.717
 8696TIP3    H126029   3.566   2.705   6.720
 8696TIP3    H226030   3.688   2.786   6.683
 8697TIP3   OH226031   4.726   0.317   2.394
 8697TIP3    H126032   4.704   0.330   2.302
 8697TIP3    H226033   4.688   0.232   2.416
 8698TIP3   OH226034   2.565   2.697   5.088
 8698TIP3    H126035   2.644   2.644   5.096
 8698TIP3    H226036   2.595   2.780   5.050
 8699TIP3   OH226037   5.354   0.999   1.729
 8699TIP3    H126038   5.332   1.040   1.813
 8699TIP3    H226039   5.281   1.020   1.672
 8700TIP3   OH226040   2.968   1.708   0.513
 8700TIP3    H126041   2.996   1.800   0.507
 8700TIP3    H226042   2.885   1.712   0.559
 8701TIP3   OH226043   7.965   4.156   1.458
 8701TIP3    H126044   7.951   4.078   1.406
 8701TIP3    H226045   8.042   4.136   1.512
 8702TIP3   OH226046   4.443   1.253   4.119
 8702TIP3    H126047   4.378   1.216   4.179
 8702TIP3    H226048   4.411   1.342   4.101
 8703TIP3   OH226049   7.430   2.039   5.594
 8703TIP3    H126050   7.348   2.017   5.639
 8703TIP3    H226051   7.496   1.985   5.637
 8704TIP3   OH226052   5.394   2.616   0.817
 8704TIP3    H126053   5.472   2.561   0.829
 8704TIP3    H226054   5.337   2.564   0.761
 8705TIP3   OH226055   0.392   5.419   0.335
 8705TIP3    H126056   0.328   5.450   0.399
 8705TIP3    H226057   0.451   5.493   0.322
 8706TIP3   OH226058   0.539   1.243   1.351
 8706TIP3    H126059   0.572   1.261   1.439
 8706TIP3    H226060   0.492   1.323   1.326
 8707TIP3   OH226061   7.657   5.367   5.574
 8707TIP3    H126062   7.622   5.444   5.619
 8707TIP3    H226063   7.715   5.404   5.507
 8708TIP3   OH226064   7.383   3.480   2.352
 8708TIP3    H126065   7.359   3.538   2.280
 8708TIP3    H226066   7.299   3.460   2.395
 8709TIP3   OH226067   3.264   1.704   6.808
 8709TIP3    H126068   3.345   1.749   6.786
 8709TIP3    H226069   3.196   1.772   6.801
 8710TIP3   OH226070   2.299   3.455   3.370
 8710TIP3    H126071   2.347   3.522   3.323
 8710TIP3    H226072   2.236   3.504   3.424
 8711TIP3   OH226073   2.448   3.221   2.582
 8711TIP3    H126074   2.387   3.155   2.549
 8711TIP3    H226075   2.506   3.238   2.508
 8712TIP3   OH226076   0.923   1.549   2.835
 8712TIP3    H126077   0.923   1.565   2.740
 8712TIP3    H226078   1.009   1.511   2.852
 8713TIP3   OH226079   6.914   3.664   5.467
 8713TIP3    H126080   7.000   3.679   5.428
 8713TIP3    H226081   6.926   3.680   5.561
 8714TIP3   OH226082   0.836   5.301   6.594
 8714TIP3    H126083   0.853   5.264   6.508
 8714TIP3    H226084   0.748   5.339   6.587
 8715TIP3   OH226085   3.961   3.128   4.570
 8715TIP3    H126086   3.932   3.136   4.479
 8715TIP3    H226087   3.961   3.218   4.603
 8716TIP3   OH226088   4.387   0.516   3.332
 8716TIP3    H126089   4.430   0.575   3.393
 8716TIP3    H226090   4.458   0.474   3.284
 8717TIP3   OH226091   5.220   1.934   0.105
 8717TIP3    H126092   5.168   1.921   0.026
 8717TIP3    H226093   5.307   1.899   0.083
 8718TIP3   OH226094   8.346   5.870   5.936
 8718TIP3    H126095   8.300   5.951   5.915
 8718TIP3    H226096   8.403   5.855   5.861
 8719TIP3   OH226097   6.145   1.222   0.966
 8719TIP3    H126098   6.218   1.188   1.018
 8719TIP3    H226099   6.139   1.162   0.892
 8720TIP3   OH226100   5.738   4.956   0.315
 8720TIP3    H126101   5.740   5.008   0.234
 8720TIP3    H226102   5.824   4.915   0.320
 8721TIP3   OH226103   6.622   2.953   6.872
 8721TIP3    H126104   6.593   3.006   6.798
 8721TIP3    H226105   6.715   2.972   6.882
 8722TIP3   OH226106   2.247   3.968   2.625
 8722TIP3    H126107   2.158   3.972   2.590
 8722TIP3    H226108   2.242   3.904   2.696
 8723TIP3   OH226109   4.980   0.646   0.394
 8723TIP3    H126110   4.988   0.550   0.395
 8723TIP3    H226111   4.908   0.663   0.334
 8724TIP3   OH226112   7.624   0.685   0.281
 8724TIP3    H126113   7.601   0.597   0.250
 8724TIP3    H226114   7.541   0.724   0.306
 8725TIP3   OH226115   1.922   1.365   4.807
 8725TIP3    H126116   1.966   1.389   4.726
 8725TIP3    H226117   1.992   1.364   4.873
 8726TIP3   OH226118   3.552   2.406   6.051
 8726TIP3    H126119   3.607   2.425   6.128
 8726TIP3    H226120   3.615   2.395   5.980
 8727TIP3   OH226121   3.418   5.460   3.566
 8727TIP3    H126122   3.343   5.408   3.596
 8727TIP3    H226123   3.454   5.499   3.646
 8728TIP3   OH226124   3.341   1.592   1.089
 8728TIP3    H126125   3.285   1.528   1.045
 8728TIP3    H226126   3.330   1.573   1.182
 8729TIP3   OH226127   7.975   3.903   5.942
 8729TIP3    H126128   7.995   3.835   6.006
 8729TIP3    H226129   8.027   3.979   5.972
 8730TIP3   OH226130   4.928   6.242   1.602
 8730TIP3    H126131   4.950   6.308   1.536
 8730TIP3    H226132   4.895   6.168   1.552
 8731TIP3   OH226133   3.932   4.274   5.955
 8731TIP3    H126134   3.938   4.291   6.049
 8731TIP3    H226135   3.945   4.179   5.947
 8732TIP3   OH226136   0.497   2.304   1.885
 8732TIP3    H126137   0.446   2.287   1.964
 8732TIP3    H226138   0.527   2.217   1.857
 8733TIP3   OH226139   2.799   4.685   0.059
 8733TIP3    H126140   2.759   4.598   0.052
 8733TIP3    H226141   2.829   4.704  -0.030
 8734TIP3   OH226142   2.655   5.440   6.827
 8734TIP3    H126143   2.659   5.419   6.733
 8734TIP3    H226144   2.735   5.404   6.863
 8735TIP3   OH226145   5.228   5.333   6.666
 8735TIP3    H126146   5.274   5.378   6.596
 8735TIP3    H226147   5.223   5.241   6.637
 8736TIP3   OH226148   3.593   1.823   4.466
 8736TIP3    H126149   3.570   1.909   4.431
 8736TIP3    H226150   3.610   1.769   4.388
 8737TIP3   OH226151   1.089   4.580   5.183
 8737TIP3    H126152   1.130   4.664   5.166
 8737TIP3    H226153   1.114   4.558   5.272
 8738TIP3   OH226154   4.507   4.615   5.430
 8738TIP3    H126155   4.554   4.532   5.435
 8738TIP3    H226156   4.419   4.592   5.402
 8739TIP3   OH226157   4.820   4.454   6.573
 8739TIP3    H126158   4.755   4.484   6.508
 8739TIP3    H226159   4.837   4.363   6.548
 8740TIP3   OH226160   0.806   7.516   2.157
 8740TIP3    H126161   0.830   7.604   2.187
 8740TIP3    H226162   0.777   7.471   2.236
 8741TIP3   OH226163   7.359   5.501   6.829
 8741TIP3    H126164   7.436   5.452   6.860
 8741TIP3    H226165   7.310   5.438   6.777
 8742TIP3   OH226166   3.524   3.054   6.273
 8742TIP3    H126167   3.506   3.075   6.365
 8742TIP3    H226168   3.512   3.137   6.227
 8743TIP3   OH226169   4.754   2.353   2.681
 8743TIP3    H126170   4.794   2.413   2.743
 8743TIP3    H226171   4.707   2.409   2.619
 8744TIP3   OH226172   3.009   0.490   1.934
 8744TIP3    H126173   3.061   0.568   1.914
 8744TIP3    H226174   3.034   0.426   1.867
 8745TIP3   OH226175   1.556   0.766   5.603
 8745TIP3    H126176   1.633   0.765   5.545
 8745TIP3    H226177   1.593   0.763   5.691
 8746TIP3   OH226178   0.140   1.836   1.873
 8746TIP3    H126179   0.077   1.882   1.819
 8746TIP3    H226180   0.200   1.904   1.904
 8747TIP3   OH226181   3.432   6.692   4.377
 8747TIP3    H126182   3.496   6.758   4.404
 8747TIP3    H226183   3.371   6.687   4.450
 8748TIP3   OH226184   1.754   0.383   2.980
 8748TIP3    H126185   1.751   0.294   2.944
 8748TIP3    H226186   1.842   0.390   3.019
 8749TIP3   OH226187   3.757   2.054   1.744
 8749TIP3    H126188   3.666   2.027   1.731
 8749TIP3    H226189   3.777   2.030   1.834
 8750TIP3   OH226190   2.773   5.600   0.547
 8750TIP3    H126191   2.814   5.655   0.481
 8750TIP3    H226192   2.829   5.522   0.551
 8751TIP3   OH226193   6.099   0.818   2.590
 8751TIP3    H126194   6.027   0.843   2.533
 8751TIP3    H226195   6.087   0.871   2.669
 8752TIP3   OH226196   2.945   6.348   2.288
 8752TIP3    H126197   2.850   6.357   2.281
 8752TIP3    H226198   2.959   6.255   2.306
 8753TIP3   OH226199   5.564   4.518   0.075
 8753TIP3    H126200   5.613   4.581   0.127
 8753TIP3    H226201   5.577   4.434   0.120
 8754TIP3   OH226202   3.702   4.773   4.647
 8754TIP3    H126203   3.736   4.810   4.728
 8754TIP3    H226204   3.610   4.753   4.666
 8755TIP3   OH226205   2.026   5.000   6.838
 8755TIP3    H126206   2.050   4.996   6.931
 8755TIP3    H226207   2.110   5.013   6.793
 8756TIP3   OH226208   1.932   2.343   2.019
 8756TIP3    H126209   2.001   2.393   1.975
 8756TIP3    H226210   1.862   2.336   1.953
 8757TIP3   OH226211   5.280   1.981   5.763
 8757TIP3    H126212   5.265   1.908   5.703
 8757TIP3    H226213   5.246   2.058   5.718
 8758TIP3   OH226214   0.897   1.591   4.094
 8758TIP3    H126215   0.916   1.665   4.153
 8758TIP3    H226216   0.850   1.528   4.149
 8759TIP3   OH226217   6.453   2.997   2.264
 8759TIP3    H126218   6.494   3.004   2.177
 8759TIP3    H226219   6.448   2.903   2.281
 8760TIP3   OH226220   6.533   6.964   2.234
 8760TIP3    H126221   6.549   7.058   2.220
 8760TIP3    H226222   6.612   6.921   2.202
 8761TIP3   OH226223   2.466   4.861   5.630
 8761TIP3    H126224   2.376   4.839   5.651
 8761TIP3    H226225   2.492   4.797   5.563
 8762TIP3   OH226226   5.501   4.502   2.636
 8762TIP3    H126227   5.595   4.493   2.649
 8762TIP3    H226228   5.492   4.569   2.569
 8763TIP3   OH226229   7.044   0.438   5.291
 8763TIP3    H126230   7.006   0.523   5.315
 8763TIP3    H226231   7.001   0.375   5.349
 8764TIP3   OH226232   1.507   5.156   5.538
 8764TIP3    H126233   1.536   5.207   5.614
 8764TIP3    H226234   1.422   5.194   5.516
 8765TIP3   OH226235   0.675   1.098   5.249
 8765TIP3    H126236   0.651   1.058   5.333
 8765TIP3    H226237   0.759   1.141   5.266
 8766TIP3   OH226238   6.395   0.751   4.067
 8766TIP3    H126239   6.309   0.779   4.036
 8766TIP3    H226240   6.422   0.684   4.004
 8767TIP3   OH226241   0.448   2.172   3.436
 8767TIP3    H126242   0.498   2.104   3.389
 8767TIP3    H226243   0.447   2.246   3.376
 8768TIP3   OH226244   6.816   7.633   2.345
 8768TIP3    H126245   6.876   7.663   2.414
 8768TIP3    H226246   6.836   7.690   2.270
 8769TIP3   OH226247   6.772   4.935   0.981
 8769TIP3    H126248   6.834   4.872   1.017
 8769TIP3    H226249   6.785   5.014   1.033
 8770TIP3   OH226250   3.411   1.111   4.269
 8770TIP3    H126251   3.451   1.063   4.342
 8770TIP3    H226252   3.374   1.042   4.213
 8771TIP3   OH226253   1.987   1.654   1.104
 8771TIP3    H126254   2.032   1.700   1.176
 8771TIP3    H226255   2.057   1.632   1.043
 8772TIP3   OH226256   3.372   2.449   0.983
 8772TIP3    H126257   3.326   2.498   0.914
 8772TIP3    H226258   3.449   2.413   0.939
 8773TIP3   OH226259   2.167   6.247   0.454
 8773TIP3    H126260   2.084   6.228   0.497
 8773TIP3    H226261   2.164   6.195   0.373
 8774TIP3   OH226262   0.178   5.046   3.010
 8774TIP3    H126263   0.146   5.116   2.954
 8774TIP3    H226264   0.101   4.992   3.028
 8775TIP3   OH226265   1.511   5.815   4.958
 8775TIP3    H126266   1.491   5.838   4.867
 8775TIP3    H226267   1.592   5.862   4.977
 8776TIP3   OH226268   7.179   1.840   3.559
 8776TIP3    H126269   7.224   1.894   3.494
 8776TIP3    H226270   7.131   1.902   3.613
 8777TIP3   OH226271   2.665   3.236   1.841
 8777TIP3    H126272   2.746   3.185   1.835
 8777TIP3    H226273   2.600   3.184   1.795
 8778TIP3   OH226274   1.442   3.766   3.628
 8778TIP3    H126275   1.444   3.684   3.579
 8778TIP3    H226276   1.371   3.816   3.588
 8779TIP3   OH226277   1.506   1.121   2.866
 8779TIP3    H126278   1.524   1.113   2.960
 8779TIP3    H226279   1.466   1.207   2.857
 8780TIP3   OH226280   2.485   6.240   2.834
 8780TIP3    H126281   2.498   6.190   2.754
 8780TIP3    H226282   2.440   6.320   2.806
 8781TIP3   OH226283   6.196   5.371   3.052
 8781TIP3    H126284   6.256   5.397   2.982
 8781TIP3    H226285   6.252   5.325   3.115
 8782TIP3   OH226286   2.501   2.254   1.169
 8782TIP3    H126287   2.538   2.252   1.257
 8782TIP3    H226288   2.573   2.227   1.112
 8783TIP3   OH226289   3.506   2.809   6.157
 8783TIP3    H126290   3.451   2.767   6.223
 8783TIP3    H226291   3.528   2.894   6.195
 8784TIP3   OH226292   5.337   1.000   5.021
 8784TIP3    H126293   5.332   1.043   4.935
 8784TIP3    H226294   5.388   0.920   5.005
 8785TIP3   OH226295   3.233   6.385   1.469
 8785TIP3    H126296   3.167   6.315   1.469
 8785TIP3    H226297   3.291   6.363   1.396
 8786TIP3   OH226298   3.168   2.247   3.114
 8786TIP3    H126299   3.250   2.220   3.072
 8786TIP3    H226300   3.172   2.207   3.201
 8787TIP3   OH226301   0.404   2.718   5.061
 8787TIP3    H126302   0.349   2.751   4.990
 8787TIP3    H226303   0.398   2.786   5.129
 8788TIP3   OH226304   7.400   0.595   5.901
 8788TIP3    H126305   7.438   0.512   5.873
 8788TIP3    H226306   7.323   0.570   5.953
 8789TIP3   OH226307   4.317   7.330   1.944
 8789TIP3    H126308   4.270   7.412   1.960
 8789TIP3    H226309   4.401   7.340   1.989
 8790TIP3   OH226310   5.872   1.372   4.955
 8790TIP3    H126311   5.817   1.370   5.033
 8790TIP3    H226312   5.825   1.317   4.891
 8791TIP3   OH226313   0.537   4.499   6.181
 8791TIP3    H126314   0.528   4.492   6.276
 8791TIP3    H226315   0.632   4.501   6.166
 8792TIP3   OH226316   1.275   4.281   4.165
 8792TIP3    H126317   1.359   4.298   4.122
 8792TIP3    H226318   1.292   4.206   4.221
 8793TIP3   OH226319   2.311   4.985   2.308
 8793TIP3    H126320   2.245   4.917   2.312
 8793TIP3    H226321   2.336   5.000   2.399
 8794TIP3   OH226322   2.316   2.717   1.029
 8794TIP3    H126323   2.253   2.659   0.986
 8794TIP3    H226324   2.340   2.671   1.110
 8795TIP3   OH226325   2.965   4.277   1.516
 8795TIP3    H126326   3.019   4.201   1.495
 8795TIP3    H226327   2.941   4.264   1.608
 8796TIP3   OH226328   0.772   6.022   4.888
 8796TIP3    H126329   0.716   5.946   4.908
 8796TIP3    H226330   0.811   6.045   4.972
 8797TIP3   OH226331   7.832   2.806   0.416
 8797TIP3    H126332   7.808   2.895   0.390
 8797TIP3    H226333   7.829   2.807   0.511
 8798TIP3   OH226334   6.958   1.518   6.331
 8798TIP3    H126335   6.864   1.514   6.311
 8798TIP3    H226336   6.988   1.428   6.323
 8799TIP3   OH226337   4.049   5.025   3.706
 8799TIP3    H126338   4.128   5.072   3.732
 8799TIP3    H226339   4.050   4.946   3.760
 8800TIP3   OH226340   2.568   6.258   1.835
 8800TIP3    H126341   2.477   6.233   1.823
 8800TIP3    H226342   2.577   6.341   1.789
 8801TIP3   OH226343   5.444   6.751   3.746
 8801TIP3    H126344   5.484   6.791   3.824
 8801TIP3    H226345   5.394   6.822   3.705
 8802TIP3   OH226346   8.229   2.302   0.983
 8802TIP3    H126347   8.211   2.357   1.059
 8802TIP3    H226348   8.204   2.213   1.011
 8803TIP3   OH226349   8.119   7.429   3.761
 8803TIP3    H126350   8.213   7.422   3.778
 8803TIP3    H226351   8.114   7.474   3.677
 8804TIP3   OH226352   4.196   0.522   3.123
 8804TIP3    H126353   4.134   0.591   3.144
 8804TIP3    H226354   4.276   0.545   3.170
 8805TIP3   OH226355   8.214   4.456   5.742
 8805TIP3    H126356   8.215   4.424   5.652
 8805TIP3    H226357   8.304   4.442   5.774
 8806TIP3   OH226358   5.856   6.067   5.194
 8806TIP3    H126359   5.789   6.044   5.130
 8806TIP3    H226360   5.932   6.014   5.169
 8807TIP3   OH226361   0.955   1.878   3.119
 8807TIP3    H126362   0.875   1.930   3.131
 8807TIP3    H226363   0.995   1.875   3.205
 8808TIP3   OH226364   2.481   1.251   2.988
 8808TIP3    H126365   2.484   1.331   2.936
 8808TIP3    H226366   2.394   1.252   3.029
 8809TIP3   OH226367   5.646   2.793   1.104
 8809TIP3    H126368   5.664   2.714   1.157
 8809TIP3    H226369   5.723   2.803   1.048
 8810TIP3   OH226370   4.741   3.876   6.043
 8810TIP3    H126371   4.779   3.861   6.130
 8810TIP3    H226372   4.817   3.875   5.984
 8811TIP3   OH226373   7.062   5.773   5.443
 8811TIP3    H126374   7.045   5.679   5.446
 8811TIP3    H226375   6.980   5.814   5.472
 8812TIP3   OH226376   0.941   2.405   0.805
 8812TIP3    H126377   0.965   2.352   0.729
 8812TIP3    H226378   0.932   2.342   0.876
 8813TIP3   OH226379   5.282   5.009   1.202
 8813TIP3    H126380   5.260   5.094   1.163
 8813TIP3    H226381   5.353   5.029   1.263
 8814TIP3   OH226382   1.766   3.461   0.996
 8814TIP3    H126383   1.764   3.371   0.965
 8814TIP3    H226384   1.688   3.470   1.051
 8815TIP3   OH226385   4.095   0.145   3.790
 8815TIP3    H126386   4.094   0.225   3.844
 8815TIP3    H226387   4.188   0.124   3.782
 8816TIP3   OH226388   2.457   1.082   5.341
 8816TIP3    H126389   2.483   1.126   5.260
 8816TIP3    H226390   2.533   1.028   5.364
 8817TIP3   OH226391   2.951   6.409   3.787
 8817TIP3    H126392   2.878   6.455   3.746
 8817TIP3    H226393   2.921   6.319   3.796
 8818TIP3   OH226394   0.373   5.990   4.461
 8818TIP3    H126395   0.378   6.067   4.406
 8818TIP3    H226396   0.368   6.024   4.550
 8819TIP3   OH226397   4.076   6.251   0.209
 8819TIP3    H126398   4.001   6.241   0.269
 8819TIP3    H226399   4.115   6.164   0.205
 8820TIP3   OH226400   2.367   6.039   5.102
 8820TIP3    H126401   2.327   5.998   5.025
 8820TIP3    H226402   2.445   6.084   5.067
 8821TIP3   OH226403   3.702   5.896   6.593
 8821TIP3    H126404   3.666   5.827   6.537
 8821TIP3    H226405   3.776   5.930   6.543
 8822TIP3   OH226406   6.451   4.523   2.027
 8822TIP3    H126407   6.439   4.616   2.012
 8822TIP3    H226408   6.509   4.494   1.956
 8823TIP3   OH226409   5.289   7.319   0.089
 8823TIP3    H126410   5.310   7.388   0.026
 8823TIP3    H226411   5.213   7.275   0.052
 8824TIP3   OH226412   2.661   7.557   0.833
 8824TIP3    H126413   2.645   7.476   0.785
 8824TIP3    H226414   2.637   7.537   0.923
 8825TIP3   OH226415   6.281   4.311   6.528
 8825TIP3    H126416   6.334   4.384   6.561
 8825TIP3    H226417   6.344   4.244   6.503
 8826TIP3   OH226418   4.259   6.605   0.792
 8826TIP3    H126419   4.202   6.597   0.869
 8826TIP3    H226420   4.315   6.528   0.795
 8827TIP3   OH226421   6.499   6.881   6.541
 8827TIP3    H126422   6.570   6.855   6.483
 8827TIP3    H226423   6.535   6.871   6.629
 8828TIP3   OH226424   6.634   6.678   1.456
 8828TIP3    H126425   6.684   6.607   1.496
 8828TIP3    H226426   6.543   6.656   1.473
 8829TIP3   OH226427   6.419   1.093   3.434
 8829TIP3    H126428   6.413   1.189   3.432
 8829TIP3    H226429   6.339   1.065   3.478
 8830TIP3   OH226430   6.530   0.141   4.608
 8830TIP3    H126431   6.438   0.165   4.607
 8830TIP3    H226432   6.576   0.220   4.637
 8831TIP3   OH226433   8.050   3.676   0.152
 8831TIP3    H126434   8.065   3.735   0.226
 8831TIP3    H226435   8.071   3.729   0.075
 8832TIP3   OH226436   6.862   4.104   5.797
 8832TIP3    H126437   6.799   4.170   5.770
 8832TIP3    H226438   6.885   4.058   5.716
 8833TIP3   OH226439   8.416   6.125   4.090
 8833TIP3    H126440   8.364   6.198   4.059
 8833TIP3    H226441   8.372   6.095   4.169
 8834TIP3   OH226442   3.061   3.584   5.797
 8834TIP3    H126443   3.035   3.640   5.724
 8834TIP3    H226444   3.118   3.519   5.757
 8835TIP3   OH226445   4.057   6.613   2.080
 8835TIP3    H126446   4.094   6.562   2.153
 8835TIP3    H226447   4.030   6.548   2.016
 8836TIP3   OH226448   7.291   2.193   0.981
 8836TIP3    H126449   7.303   2.254   1.053
 8836TIP3    H226450   7.263   2.111   1.023
 8837TIP3   OH226451   5.786   6.441   3.069
 8837TIP3    H126452   5.768   6.452   2.976
 8837TIP3    H226453   5.715   6.386   3.101
 8838TIP3   OH226454   2.690   0.767   4.824
 8838TIP3    H126455   2.629   0.766   4.898
 8838TIP3    H226456   2.767   0.722   4.857
 8839TIP3   OH226457   4.309   2.321   4.215
 8839TIP3    H126458   4.230   2.336   4.163
 8839TIP3    H226459   4.281   2.334   4.306
 8840TIP3   OH226460   5.158   7.084   6.144
 8840TIP3    H126461   5.219   7.017   6.111
 8840TIP3    H226462   5.171   7.159   6.086
 8841TIP3   OH226463   2.215   6.491   0.719
 8841TIP3    H126464   2.225   6.586   0.723
 8841TIP3    H226465   2.235   6.469   0.628
 8842TIP3   OH226466   2.355   6.479   5.170
 8842TIP3    H126467   2.320   6.417   5.233
 8842TIP3    H226468   2.342   6.565   5.211
 8843TIP3   OH226469   1.259   5.381   6.727
 8843TIP3    H126470   1.230   5.403   6.638
 8843TIP3    H226471   1.180   5.382   6.780
 8844TIP3   OH226472   2.453   0.360   6.184
 8844TIP3    H126473   2.473   0.395   6.097
 8844TIP3    H226474   2.539   0.344   6.223
 8845TIP3   OH226475   6.594   3.717   0.413
 8845TIP3    H126476   6.561   3.736   0.325
 8845TIP3    H226477   6.580   3.623   0.424
 8846TIP3   OH226478   7.380   4.946   0.836
 8846TIP3    H126479   7.382   5.002   0.913
 8846TIP3    H226480   7.321   4.991   0.775
 8847TIP3   OH226481   4.166   7.369   3.300
 8847TIP3    H126482   4.190   7.431   3.230
 8847TIP3    H226483   4.144   7.425   3.374
 8848TIP3   OH226484   0.841   0.276   1.677
 8848TIP3    H126485   0.841   0.320   1.762
 8848TIP3    H226486   0.852   0.184   1.698
 8849TIP3   OH226487   3.799   1.848   5.808
 8849TIP3    H126488   3.769   1.764   5.773
 8849TIP3    H226489   3.882   1.865   5.763
 8850TIP3   OH226490   1.718   5.597   4.806
 8850TIP3    H126491   1.660   5.558   4.740
 8850TIP3    H226492   1.659   5.622   4.877
 8851TIP3   OH226493   2.703   0.131   5.333
 8851TIP3    H126494   2.636   0.069   5.359
 8851TIP3    H226495   2.703   0.197   5.402
 8852TIP3   OH226496   1.634   0.715   0.618
 8852TIP3    H126497   1.576   0.639   0.611
 8852TIP3    H226498   1.574   0.789   0.629
 8853TIP3   OH226499   0.404   0.757   4.612
 8853TIP3    H126500   0.414   0.710   4.694
 8853TIP3    H226501   0.430   0.847   4.632
 8854TIP3   OH226502   2.080   4.102   0.353
 8854TIP3    H126503   2.154   4.158   0.331
 8854TIP3    H226504   2.114   4.013   0.348
 8855TIP3   OH226505   6.893   5.047   1.519
 8855TIP3    H126506   6.959   5.088   1.465
 8855TIP3    H226507   6.810   5.070   1.477
 8856TIP3   OH226508   1.472   6.676   0.253
 8856TIP3    H126509   1.444   6.608   0.315
 8856TIP3    H226510   1.418   6.752   0.275
 8857TIP3   OH226511   0.512   3.229   4.931
 8857TIP3    H126512   0.433   3.180   4.954
 8857TIP3    H226513   0.548   3.184   4.855
 8858TIP3   OH226514   1.765   2.942   5.431
 8858TIP3    H126515   1.850   2.948   5.387
 8858TIP3    H226516   1.786   2.914   5.520
 8859TIP3   OH226517   1.094   1.853   0.347
 8859TIP3    H126518   1.151   1.930   0.346
 8859TIP3    H226519   1.034   1.869   0.420
 8860TIP3   OH226520   4.752   2.622   0.396
 8860TIP3    H126521   4.803   2.602   0.475
 8860TIP3    H226522   4.689   2.688   0.424
 8861TIP3   OH226523   3.208   2.283   6.283
 8861TIP3    H126524   3.265   2.315   6.213
 8861TIP3    H226525   3.144   2.353   6.295
 8862TIP3   OH226526   7.956   6.997   6.424
 8862TIP3    H126527   7.985   6.949   6.501
 8862TIP3    H226528   8.000   7.082   6.429
 8863TIP3   OH226529   3.439   5.956   5.415
 8863TIP3    H126530   3.376   5.950   5.343
 8863TIP3    H226531   3.412   6.035   5.463
 8864TIP3   OH226532   4.206   2.129   5.923
 8864TIP3    H126533   4.169   2.217   5.929
 8864TIP3    H226534   4.222   2.116   5.829
 8865TIP3   OH226535   4.589   1.201   0.659
 8865TIP3    H126536   4.497   1.223   0.648
 8865TIP3    H226537   4.590   1.134   0.727
 8866TIP3   OH226538   0.542   2.083   5.826
 8866TIP3    H126539   0.522   2.173   5.853
 8866TIP3    H226540   0.475   2.029   5.869
 8867TIP3   OH226541   3.395   4.486   6.687
 8867TIP3    H126542   3.339   4.544   6.636
 8867TIP3    H226543   3.410   4.533   6.769
 8868TIP3   OH226544   7.918   1.059   5.204
 8868TIP3    H126545   7.913   1.150   5.175
 8868TIP3    H226546   7.843   1.016   5.163
 8869TIP3   OH226547   1.150   3.864   3.425
 8869TIP3    H126548   1.113   3.935   3.373
 8869TIP3    H226549   1.092   3.790   3.409
 8870TIP3   OH226550   3.426   0.873   0.938
 8870TIP3    H126551   3.360   0.942   0.923
 8870TIP3    H226552   3.375   0.792   0.939
 8871TIP3   OH226553   8.053   3.153   3.397
 8871TIP3    H126554   8.024   3.182   3.484
 8871TIP3    H226555   8.073   3.234   3.350
 8872TIP3   OH226556   2.386   5.097   4.271
 8872TIP3    H126557   2.457   5.041   4.301
 8872TIP3    H226558   2.392   5.175   4.326
 8873TIP3   OH226559   1.936   2.017   0.237
 8873TIP3    H126560   1.921   1.970   0.319
 8873TIP3    H226561   1.858   2.071   0.225
 8874TIP3   OH226562   2.234   0.602   6.033
 8874TIP3    H126563   2.168   0.541   6.066
 8874TIP3    H226564   2.293   0.615   6.107
 8875TIP3   OH226565   7.903   7.248   2.555
 8875TIP3    H126566   7.845   7.296   2.497
 8875TIP3    H226567   7.945   7.315   2.609
 8876TIP3   OH226568   6.575   0.550   2.519
 8876TIP3    H126569   6.533   0.484   2.574
 8876TIP3    H226570   6.559   0.633   2.565
 8877TIP3   OH226571   0.406   2.604   4.723
 8877TIP3    H126572   0.343   2.533   4.734
 8877TIP3    H226573   0.366   2.679   4.766
 8878TIP3   OH226574   7.796   6.585   2.590
 8878TIP3    H126575   7.885   6.602   2.558
 8878TIP3    H226576   7.804   6.593   2.685
 8879TIP3   OH226577   5.608   1.736   1.083
 8879TIP3    H126578   5.703   1.739   1.087
 8879TIP3    H226579   5.579   1.791   1.156
 8880TIP3   OH226580   6.675   2.469   4.418
 8880TIP3    H126581   6.744   2.406   4.440
 8880TIP3    H226582   6.595   2.431   4.455
 8881TIP3   OH226583   1.870   7.279   1.396
 8881TIP3    H126584   1.809   7.302   1.326
 8881TIP3    H226585   1.883   7.185   1.386
 8882TIP3   OH226586   2.036   6.913   0.515
 8882TIP3    H126587   1.993   6.908   0.430
 8882TIP3    H226588   2.104   6.980   0.504
 8883TIP3   OH226589   5.325   0.161   0.429
 8883TIP3    H126590   5.304   0.143   0.338
 8883TIP3    H226591   5.295   0.251   0.443
 8884TIP3   OH226592   3.260   5.678   4.432
 8884TIP3    H126593   3.344   5.677   4.386
 8884TIP3    H226594   3.227   5.767   4.421
 8885TIP3   OH226595   6.250   4.574   3.815
 8885TIP3    H126596   6.216   4.488   3.791
 8885TIP3    H226597   6.345   4.561   3.826
 8886TIP3   OH226598   0.615   2.220   2.695
 8886TIP3    H126599   0.547   2.286   2.684
 8886TIP3    H226600   0.568   2.140   2.716
 8887TIP3   OH226601   1.628   4.516   5.853
 8887TIP3    H126602   1.618   4.530   5.947
 8887TIP3    H226603   1.706   4.461   5.845
 8888TIP3   OH226604   2.932   7.528   0.508
 8888TIP3    H126605   2.902   7.597   0.567
 8888TIP3    H226606   2.929   7.448   0.561
 8889TIP3   OH226607   1.600   2.683   3.735
 8889TIP3    H126608   1.582   2.775   3.756
 8889TIP3    H226609   1.673   2.659   3.792
 8890TIP3   OH226610   7.939   0.602   0.933
 8890TIP3    H126611   8.028   0.623   0.961
 8890TIP3    H226612   7.915   0.672   0.873
 8891TIP3   OH226613   3.284   0.224   2.066
 8891TIP3    H126614   3.367   0.222   2.019
 8891TIP3    H226615   3.257   0.316   2.063
 8892TIP3   OH226616   5.475   0.806   6.409
 8892TIP3    H126617   5.455   0.898   6.430
 8892TIP3    H226618   5.416   0.784   6.338
 8893TIP3   OH226619   6.012   0.592   3.201
 8893TIP3    H126620   5.946   0.590   3.131
 8893TIP3    H226621   5.999   0.676   3.244
 8894TIP3   OH226622   5.519   4.395   5.785
 8894TIP3    H126623   5.602   4.348   5.785
 8894TIP3    H226624   5.487   4.388   5.695
 8895TIP3   OH226625   3.028   7.658   1.508
 8895TIP3    H126626   2.957   7.594   1.511
 8895TIP3    H226627   3.018   7.700   1.423
 8896TIP3   OH226628   5.194   6.333   3.248
 8896TIP3    H126629   5.250   6.383   3.308
 8896TIP3    H226630   5.138   6.400   3.207
 8897TIP3   OH226631   6.954   5.435   3.898
 8897TIP3    H126632   7.029   5.487   3.928
 8897TIP3    H226633   6.991   5.348   3.883
 8898TIP3   OH226634   0.280   4.612   2.681
 8898TIP3    H126635   0.331   4.687   2.712
 8898TIP3    H226636   0.190   4.631   2.709
 8899TIP3   OH226637   7.965   3.432   4.060
 8899TIP3    H126638   7.920   3.375   3.998
 8899TIP3    H226639   8.005   3.372   4.123
 8900TIP3   OH226640   5.803   2.778   5.333
 8900TIP3    H126641   5.748   2.850   5.364
 8900TIP3    H226642   5.872   2.821   5.282
 8901TIP3   OH226643   2.837   1.810   1.945
 8901TIP3    H126644   2.758   1.796   1.894
 8901TIP3    H226645   2.818   1.770   2.030
 8902TIP3   OH226646   6.111   5.426   2.486
 8902TIP3    H126647   6.188   5.379   2.518
 8902TIP3    H226648   6.100   5.395   2.396
 8903TIP3   OH226649   5.414   7.723   5.311
 8903TIP3    H126650   5.473   7.683   5.374
 8903TIP3    H226651   5.461   7.800   5.279
 8904TIP3   OH226652   4.335   1.896   0.683
 8904TIP3    H126653   4.336   1.954   0.607
 8904TIP3    H226654   4.244   1.896   0.712
 8905TIP3   OH226655   3.374   3.838   6.091
 8905TIP3    H126656   3.353   3.920   6.134
 8905TIP3    H226657   3.293   3.813   6.045
 8906TIP3   OH226658   0.051   1.980   4.778
 8906TIP3    H126659  -0.039   1.947   4.777
 8906TIP3    H226660   0.048   2.058   4.723
 8907TIP3   OH226661   2.652   0.823   3.969
 8907TIP3    H126662   2.568   0.865   3.951
 8907TIP3    H226663   2.672   0.772   3.891
 8908TIP3   OH226664   5.158   6.730   3.795
 8908TIP3    H126665   5.164   6.737   3.700
 8908TIP3    H226666   5.248   6.741   3.825
 8909TIP3   OH226667   3.717   4.705   3.305
 8909TIP3    H126668   3.742   4.724   3.396
 8909TIP3    H226669   3.800   4.709   3.257
 8910TIP3   OH226670   2.611   1.800   6.264
 8910TIP3    H126671   2.533   1.782   6.317
 8910TIP3    H226672   2.629   1.892   6.279
 8911TIP3   OH226673   0.539   2.050   1.737
 8911TIP3    H126674   0.508   2.003   1.814
 8911TIP3    H226675   0.475   2.030   1.669
 8912TIP3   OH226676   0.153   0.098   6.511
 8912TIP3    H126677   0.145   0.009   6.544
 8912TIP3    H226678   0.247   0.108   6.492
 8913TIP3   OH226679   1.958   7.028   5.552
 8913TIP3    H126680   1.901   6.952   5.568
 8913TIP3    H226681   2.022   7.025   5.623
 8914TIP3   OH226682   0.974   2.794   6.173
 8914TIP3    H126683   0.886   2.817   6.144
 8914TIP3    H226684   0.981   2.833   6.261
 8915TIP3   OH226685   4.960   4.957   0.119
 8915TIP3    H126686   4.967   4.949   0.214
 8915TIP3    H226687   5.039   5.004   0.093
 8916TIP3   OH226688   2.174   2.611   2.171
 8916TIP3    H126689   2.230   2.533   2.170
 8916TIP3    H226690   2.191   2.654   2.087
 8917TIP3   OH226691   4.110   3.440   4.536
 8917TIP3    H126692   4.047   3.426   4.466
 8917TIP3    H226693   4.085   3.525   4.574
 8918TIP3   OH226694   5.952   3.966   1.756
 8918TIP3    H126695   5.898   4.002   1.685
 8918TIP3    H226696   5.896   3.969   1.833
 8919TIP3   OH226697   4.510   7.830   6.826
 8919TIP3    H126698   4.477   7.901   6.881
 8919TIP3    H226699   4.587   7.868   6.782
 8920TIP3   OH226700   6.419   3.183   3.853
 8920TIP3    H126701   6.444   3.242   3.924
 8920TIP3    H226702   6.466   3.102   3.871
 8921TIP3   OH226703   3.957   3.223   0.202
 8921TIP3    H126704   3.954   3.294   0.267
 8921TIP3    H226705   3.882   3.168   0.224
 8922TIP3   OH226706   5.580   6.880   5.515
 8922TIP3    H126707   5.625   6.903   5.596
 8922TIP3    H226708   5.615   6.794   5.492
 8923TIP3   OH226709   7.173   5.491   4.079
 8923TIP3    H126710   7.260   5.529   4.096
 8923TIP3    H226711   7.120   5.519   4.153
 8924TIP3   OH226712   4.047   1.989   2.723
 8924TIP3    H126713   4.112   2.058   2.741
 8924TIP3    H226714   3.963   2.029   2.745
 8925TIP3   OH226715   5.457   7.613   2.377
 8925TIP3    H126716   5.382   7.664   2.408
 8925TIP3    H226717   5.469   7.642   2.286
 8926TIP3   OH226718   7.825   3.529   3.026
 8926TIP3    H126719   7.772   3.558   2.952
 8926TIP3    H226720   7.869   3.608   3.057
 8927TIP3   OH226721   1.438   3.065   5.470
 8927TIP3    H126722   1.500   2.994   5.452
 8927TIP3    H226723   1.369   3.024   5.522
 8928TIP3   OH226724   4.668   4.206   5.526
 8928TIP3    H126725   4.758   4.238   5.520
 8928TIP3    H226726   4.646   4.209   5.619
 8929TIP3   OH226727   7.327   0.337   0.703
 8929TIP3    H126728   7.311   0.294   0.619
 8929TIP3    H226729   7.242   0.375   0.727
 8930TIP3   OH226730   2.981   3.753   4.170
 8930TIP3    H126731   2.968   3.679   4.228
 8930TIP3    H226732   2.895   3.768   4.130
 8931TIP3   OH226733   3.283   5.990   1.910
 8931TIP3    H126734   3.193   5.992   1.879
 8931TIP3    H226735   3.290   5.909   1.961
 8932TIP3   OH226736   7.009   6.225   5.816
 8932TIP3    H126737   6.934   6.267   5.858
 8932TIP3    H226738   7.076   6.223   5.884
 8933TIP3   OH226739   3.486   7.613   6.648
 8933TIP3    H126740   3.487   7.709   6.657
 8933TIP3    H226741   3.420   7.584   6.711
 8934TIP3   OH226742   3.020   3.410   2.699
 8934TIP3    H126743   3.111   3.388   2.717
 8934TIP3    H226744   3.006   3.493   2.743
 8935TIP3   OH226745   1.367   1.741   2.464
 8935TIP3    H126746   1.348   1.835   2.470
 8935TIP3    H226747   1.290   1.698   2.500
 8936TIP3   OH226748   8.176   5.929   0.542
 8936TIP3    H126749   8.098   5.902   0.494
 8936TIP3    H226750   8.149   5.930   0.634
 8937TIP3   OH226751   0.041   1.296   2.695
 8937TIP3    H126752   0.034   1.345   2.777
 8937TIP3    H226753   0.092   1.218   2.717
 8938TIP3   OH226754   7.624   6.334   3.918
 8938TIP3    H126755   7.582   6.371   3.996
 8938TIP3    H226756   7.694   6.396   3.897
 8939TIP3   OH226757   1.138   3.300   3.455
 8939TIP3    H126758   1.186   3.289   3.373
 8939TIP3    H226759   1.053   3.258   3.438
 8940TIP3   OH226760   5.536   6.848   3.975
 8940TIP3    H126761   5.617   6.865   4.022
 8940TIP3    H226762   5.470   6.899   4.022
 8941TIP3   OH226763   8.186   6.412   6.161
 8941TIP3    H126764   8.171   6.483   6.099
 8941TIP3    H226765   8.282   6.403   6.164
 8942TIP3   OH226766   6.083   4.407   4.080
 8942TIP3    H126767   6.083   4.485   4.136
 8942TIP3    H226768   6.155   4.354   4.112
 8943TIP3   OH226769   2.628   5.885   2.304
 8943TIP3    H126770   2.671   5.810   2.345
 8943TIP3    H226771   2.695   5.953   2.300
 8944TIP3   OH226772   3.486   0.497   1.352
 8944TIP3    H126773   3.400   0.469   1.380
 8944TIP3    H226774   3.527   0.418   1.318
 8945TIP3   OH226775   7.805   6.828   6.732
 8945TIP3    H126776   7.718   6.848   6.698
 8945TIP3    H226777   7.839   6.913   6.761
 8946TIP3   OH226778   1.915   5.836   2.454
 8946TIP3    H126779   1.820   5.825   2.459
 8946TIP3    H226780   1.945   5.826   2.544
 8947TIP3   OH226781   0.736   2.079   0.889
 8947TIP3    H126782   0.775   1.993   0.904
 8947TIP3    H226783   0.811   2.137   0.875
 8948TIP3   OH226784   6.191   5.800   5.507
 8948TIP3    H126785   6.267   5.749   5.535
 8948TIP3    H226786   6.119   5.770   5.562
 8949TIP3   OH226787   1.813   3.577   0.473
 8949TIP3    H126788   1.868   3.613   0.542
 8949TIP3    H226789   1.872   3.520   0.423
 8950TIP3   OH226790   7.326   2.397   5.878
 8950TIP3    H126791   7.247   2.344   5.882
 8950TIP3    H226792   7.317   2.460   5.950
 8951TIP3   OH226793   2.763   7.282   2.249
 8951TIP3    H126794   2.752   7.263   2.342
 8951TIP3    H226795   2.808   7.205   2.214
 8952TIP3   OH226796   2.737   1.227   2.683
 8952TIP3    H126797   2.768   1.277   2.607
 8952TIP3    H226798   2.670   1.170   2.647
 8953TIP3   OH226799   7.260   6.084   1.918
 8953TIP3    H126800   7.283   6.163   1.868
 8953TIP3    H226801   7.261   6.013   1.853
 8954TIP3   OH226802   4.836   6.276   2.259
 8954TIP3    H126803   4.872   6.363   2.243
 8954TIP3    H226804   4.898   6.216   2.219
 8955TIP3   OH226805   2.246   0.537   5.417
 8955TIP3    H126806   2.162   0.551   5.374
 8955TIP3    H226807   2.224   0.487   5.496
 8956TIP3   OH226808   4.387   0.241   2.250
 8956TIP3    H126809   4.443   0.164   2.263
 8956TIP3    H226810   4.446   0.308   2.214
 8957TIP3   OH226811   3.117   6.173   5.598
 8957TIP3    H126812   3.074   6.097   5.559
 8957TIP3    H226813   3.093   6.170   5.690
 8958TIP3   OH226814   2.723   4.204   1.992
 8958TIP3    H126815   2.719   4.111   1.968
 8958TIP3    H226816   2.734   4.203   2.087
 8959TIP3   OH226817   1.271   4.821   5.299
 8959TIP3    H126818   1.176   4.824   5.304
 8959TIP3    H226819   1.300   4.885   5.364
 8960TIP3   OH226820   6.126   0.340   3.769
 8960TIP3    H126821   6.032   0.331   3.757
 8960TIP3    H226822   6.147   0.426   3.732
 8961TIP3   OH226823   8.360   4.862   3.003
 8961TIP3    H126824   8.330   4.921   3.071
 8961TIP3    H226825   8.281   4.835   2.957
 8962TIP3   OH226826   7.522   1.540   1.813
 8962TIP3    H126827   7.617   1.536   1.805
 8962TIP3    H226828   7.492   1.579   1.731
 8963TIP3   OH226829   7.006   6.844   1.313
 8963TIP3    H126830   7.040   6.879   1.396
 8963TIP3    H226831   7.049   6.896   1.246
 8964TIP3   OH226832   4.830   1.033   0.202
 8964TIP3    H126833   4.786   0.978   0.267
 8964TIP3    H226834   4.842   0.976   0.127
 8965TIP3   OH226835   7.902   4.496   0.755
 8965TIP3    H126836   7.849   4.509   0.676
 8965TIP3    H226837   7.910   4.584   0.793
 8966TIP3   OH226838   0.977   5.250   3.871
 8966TIP3    H126839   0.975   5.314   3.799
 8966TIP3    H226840   0.893   5.206   3.866
 8967TIP3   OH226841   8.407   3.423   5.759
 8967TIP3    H126842   8.346   3.438   5.687
 8967TIP3    H226843   8.374   3.345   5.803
 8968TIP3   OH226844   6.867   3.637   3.815
 8968TIP3    H126845   6.860   3.598   3.728
 8968TIP3    H226846   6.830   3.571   3.873
 8969TIP3   OH226847   8.329   1.167   1.505
 8969TIP3    H126848   8.392   1.096   1.516
 8969TIP3    H226849   8.288   1.150   1.419
 8970TIP3   OH226850   5.146   1.646   6.813
 8970TIP3    H126851   5.204   1.619   6.742
 8970TIP3    H226852   5.125   1.564   6.859
 8971TIP3   OH226853   4.581   7.523   1.284
 8971TIP3    H126854   4.512   7.457   1.272
 8971TIP3    H226855   4.534   7.600   1.316
 8972TIP3   OH226856   3.394   0.423   4.446
 8972TIP3    H126857   3.464   0.359   4.456
 8972TIP3    H226858   3.439   0.504   4.419
 8973TIP3   OH226859   3.175   2.687   1.496
 8973TIP3    H126860   3.085   2.717   1.479
 8973TIP3    H226861   3.230   2.758   1.464
 8974TIP3   OH226862   3.271   0.708   1.416
 8974TIP3    H126863   3.335   0.645   1.381
 8974TIP3    H226864   3.278   0.783   1.357
 8975TIP3   OH226865   0.296   1.119   0.220
 8975TIP3    H126866   0.361   1.189   0.209
 8975TIP3    H226867   0.339   1.042   0.184
 8976TIP3   OH226868   0.465   1.525   1.281
 8976TIP3    H126869   0.545   1.492   1.240
 8976TIP3    H226870   0.495   1.562   1.364
 8977TIP3   OH226871   1.701   7.669   3.202
 8977TIP3    H126872   1.609   7.647   3.215
 8977TIP3    H226873   1.739   7.671   3.290
 8978TIP3   OH226874   2.147   4.054   0.708
 8978TIP3    H126875   2.214   4.118   0.728
 8978TIP3    H226876   2.070   4.083   0.756
 8979TIP3   OH226877   5.833   5.486   2.591
 8979TIP3    H126878   5.881   5.466   2.511
 8979TIP3    H226879   5.843   5.581   2.603
 8980TIP3   OH226880   1.645   6.376   0.975
 8980TIP3    H126881   1.724   6.407   0.930
 8980TIP3    H226882   1.573   6.402   0.917
 8981TIP3   OH226883   2.230   1.559   4.058
 8981TIP3    H126884   2.219   1.516   3.973
 8981TIP3    H226885   2.141   1.570   4.091
 8982TIP3   OH226886   3.318   6.429   4.084
 8982TIP3    H126887   3.277   6.386   4.159
 8982TIP3    H226888   3.409   6.397   4.085
 8983TIP3   OH226889   1.541   0.561   5.183
 8983TIP3    H126890   1.591   0.528   5.108
 8983TIP3    H226891   1.595   0.538   5.259
 8984TIP3   OH226892   5.682   2.017   5.735
 8984TIP3    H126893   5.641   1.932   5.720
 8984TIP3    H226894   5.773   2.005   5.706
 8985TIP3   OH226895   6.276   7.791   5.798
 8985TIP3    H126896   6.359   7.808   5.754
 8985TIP3    H226897   6.217   7.859   5.766
 8986TIP3   OH226898   0.906   7.397   0.271
 8986TIP3    H126899   0.975   7.351   0.320
 8986TIP3    H226900   0.835   7.334   0.264
 8987TIP3   OH226901   4.554   0.287   1.269
 8987TIP3    H126902   4.609   0.348   1.318
 8987TIP3    H226903   4.495   0.343   1.219
 8988TIP3   OH226904   5.891   3.472   3.528
 8988TIP3    H126905   5.809   3.520   3.515
 8988TIP3    H226906   5.898   3.462   3.623
 8989TIP3   OH226907   0.626   1.041   4.476
 8989TIP3    H126908   0.622   1.106   4.405
 8989TIP3    H226909   0.682   1.082   4.542
 8990TIP3   OH226910   5.041   5.949   6.692
 8990TIP3    H126911   5.030   5.873   6.635
 8990TIP3    H226912   4.959   5.955   6.740
 8991TIP3   OH226913   1.706   1.946   4.722
 8991TIP3    H126914   1.773   1.946   4.791
 8991TIP3    H226915   1.753   1.918   4.643
 8992TIP3   OH226916   6.664   0.365   2.860
 8992TIP3    H126917   6.613   0.378   2.940
 8992TIP3    H226918   6.701   0.451   2.841
 8993TIP3   OH226919   6.116   0.684   2.148
 8993TIP3    H126920   6.069   0.670   2.230
 8993TIP3    H226921   6.158   0.600   2.129
 8994TIP3   OH226922   5.668   3.493   4.950
 8994TIP3    H126923   5.649   3.564   4.889
 8994TIP3    H226924   5.739   3.527   5.005
 8995TIP3   OH226925   5.975   4.586   2.060
 8995TIP3    H126926   6.055   4.576   2.112
 8995TIP3    H226927   5.907   4.546   2.114
 8996TIP3   OH226928   3.356   0.839   2.585
 8996TIP3    H126929   3.277   0.858   2.536
 8996TIP3    H226930   3.387   0.755   2.550
 8997TIP3   OH226931   3.280   5.786   6.336
 8997TIP3    H126932   3.297   5.829   6.252
 8997TIP3    H226933   3.358   5.802   6.388
 8998TIP3   OH226934   0.656   7.750   5.876
 8998TIP3    H126935   0.734   7.741   5.930
 8998TIP3    H226936   0.686   7.795   5.797
 8999TIP3   OH226937   7.185   6.240   1.154
 8999TIP3    H126938   7.120   6.305   1.127
 8999TIP3    H226939   7.144   6.156   1.137
 9000TIP3   OH226940   6.887   7.130   4.549
 9000TIP3    H126941   6.959   7.185   4.518
 9000TIP3    H226942   6.930   7.057   4.593
 9001TIP3   OH226943   7.396   5.810   4.522
 9001TIP3    H126944   7.491   5.815   4.520
 9001TIP3    H226945   7.369   5.807   4.430
 9002TIP3   OH226946   4.048   7.785   1.349
 9002TIP3    H126947   4.060   7.716   1.414
 9002TIP3    H226948   4.009   7.741   1.274
 9003TIP3   OH226949   0.247   2.827   4.877
 9003TIP3    H126950   0.236   2.922   4.882
 9003TIP3    H226951   0.159   2.793   4.859
 9004TIP3   OH226952   4.402   6.135   1.007
 9004TIP3    H126953   4.377   6.069   1.072
 9004TIP3    H226954   4.491   6.160   1.031
 9005TIP3   OH226955   7.358   1.954   4.126
 9005TIP3    H126956   7.309   2.027   4.163
 9005TIP3    H226957   7.434   1.995   4.084
 9006TIP3   OH226958   6.629   7.205   1.886
 9006TIP3    H126959   6.571   7.229   1.813
 9006TIP3    H226960   6.650   7.113   1.870
 9007TIP3   OH226961   2.306   1.187   5.529
 9007TIP3    H126962   2.307   1.267   5.477
 9007TIP3    H226963   2.347   1.121   5.473
 9008TIP3   OH226964   5.737   5.735   4.465
 9008TIP3    H126965   5.806   5.729   4.400
 9008TIP3    H226966   5.750   5.660   4.523
 9009TIP3   OH226967   1.402   2.805   6.617
 9009TIP3    H126968   1.396   2.890   6.661
 9009TIP3    H226969   1.480   2.812   6.562
 9010TIP3   OH226970   2.044   2.806   6.514
 9010TIP3    H126971   1.968   2.846   6.472
 9010TIP3    H226972   2.040   2.836   6.605
 9011TIP3   OH226973   6.307   7.141   3.832
 9011TIP3    H126974   6.384   7.198   3.838
 9011TIP3    H226975   6.294   7.128   3.739
 9012TIP3   OH226976   0.076   7.214   6.309
 9012TIP3    H126977  -0.015   7.219   6.280
 9012TIP3    H226978   0.108   7.303   6.304
 9013TIP3   OH226979   2.152   7.691   0.747
 9013TIP3    H126980   2.073   7.717   0.795
 9013TIP3    H226981   2.153   7.596   0.752
 9014TIP3   OH226982   0.061   5.153   2.361
 9014TIP3    H126983   0.071   5.245   2.383
 9014TIP3    H226984   0.011   5.116   2.434
 9015TIP3   OH226985   5.447   4.301   3.699
 9015TIP3    H126986   5.353   4.317   3.713
 9015TIP3    H226987   5.453   4.273   3.608
 9016TIP3   OH226988   1.435   6.458   0.754
 9016TIP3    H126989   1.442   6.494   0.665
 9016TIP3    H226990   1.366   6.509   0.795
 9017TIP3   OH226991   5.866   1.718   0.979
 9017TIP3    H126992   5.868   1.777   0.904
 9017TIP3    H226993   5.815   1.643   0.948
 9018TIP3   OH226994   7.022   7.575   6.081
 9018TIP3    H126995   7.006   7.490   6.039
 9018TIP3    H226996   6.934   7.609   6.099
 9019TIP3   OH226997   8.240   4.804   5.615
 9019TIP3    H126998   8.269   4.716   5.638
 9019TIP3    H226999   8.248   4.855   5.696
 9020TIP3   OH227000   6.092   1.377   4.499
 9020TIP3    H127001   6.117   1.468   4.483
 9020TIP3    H227002   6.158   1.344   4.559
 9021TIP3   OH227003   4.410   6.250   1.645
 9021TIP3    H127004   4.473   6.300   1.594
 9021TIP3    H227005   4.345   6.314   1.674
 9022TIP3   OH227006   4.095   6.248   5.730
 9022TIP3    H127007   4.159   6.180   5.749
 9022TIP3    H227008   4.048   6.216   5.653
 9023TIP3   OH227009   3.274   1.838   5.659
 9023TIP3    H127010   3.309   1.926   5.650
 9023TIP3    H227011   3.285   1.799   5.572
 9024TIP3   OH227012   3.924   3.506   1.522
 9024TIP3    H127013   3.976   3.434   1.556
 9024TIP3    H227014   3.929   3.496   1.427
 9025TIP3   OH227015   2.626   6.520   1.679
 9025TIP3    H127016   2.688   6.532   1.608
 9025TIP3    H227017   2.626   6.604   1.726
 9026TIP3   OH227018   7.081   7.621   5.273
 9026TIP3    H127019   7.032   7.578   5.343
 9026TIP3    H227020   7.111   7.550   5.218
 9027TIP3   OH227021   3.590   0.928   2.689
 9027TIP3    H127022   3.592   0.878   2.771
 9027TIP3    H227023   3.506   0.904   2.649
 9028TIP3   OH227024   0.064   4.751   5.899
 9028TIP3    H127025   0.150   4.793   5.902
 9028TIP3    H227026   0.002   4.823   5.887
 9029TIP3   OH227027   0.040   4.613   1.068
 9029TIP3    H127028   0.100   4.687   1.058
 9029TIP3    H227029   0.093   4.537   1.042
 9030TIP3   OH227030   6.031   5.321   5.325
 9030TIP3    H127031   6.050   5.414   5.316
 9030TIP3    H227032   5.977   5.315   5.404
 9031TIP3   OH227033   2.786   4.468   6.469
 9031TIP3    H127034   2.799   4.438   6.379
 9031TIP3    H227035   2.786   4.563   6.463
 9032TIP3   OH227036   6.847   3.470   0.776
 9032TIP3    H127037   6.928   3.499   0.820
 9032TIP3    H227038   6.828   3.539   0.713
 9033TIP3   OH227039   7.894   0.649   3.433
 9033TIP3    H127040   7.986   0.650   3.460
 9033TIP3    H227041   7.864   0.739   3.448
 9034TIP3   OH227042   2.108   2.478   1.852
 9034TIP3    H127043   2.146   2.565   1.869
 9034TIP3    H227044   2.060   2.489   1.770
 9035TIP3   OH227045   5.874   3.398   2.867
 9035TIP3    H127046   5.907   3.450   2.794
 9035TIP3    H227047   5.811   3.456   2.911
 9036TIP3   OH227048   4.456   5.240   4.254
 9036TIP3    H127049   4.392   5.311   4.252
 9036TIP3    H227050   4.518   5.266   4.323
 9037TIP3   OH227051   8.177   3.355   3.094
 9037TIP3    H127052   8.203   3.445   3.073
 9037TIP3    H227053   8.206   3.343   3.185
 9038TIP3   OH227054   3.337   3.820   1.594
 9038TIP3    H127055   3.351   3.869   1.675
 9038TIP3    H227056   3.329   3.888   1.527
 9039TIP3   OH227057   3.714   6.221   6.213
 9039TIP3    H127058   3.738   6.228   6.305
 9039TIP3    H227059   3.691   6.310   6.187
 9040TIP3   OH227060   6.396   0.696   5.904
 9040TIP3    H127061   6.407   0.711   5.998
 9040TIP3    H227062   6.466   0.634   5.882
 9041TIP3   OH227063   3.210   1.358   1.039
 9041TIP3    H127064   3.277   1.300   1.075
 9041TIP3    H227065   3.154   1.301   0.987
 9042TIP3   OH227066   3.875   0.614   2.617
 9042TIP3    H127067   3.888   0.704   2.589
 9042TIP3    H227068   3.780   0.604   2.624
 9043TIP3   OH227069   2.113   1.324   1.140
 9043TIP3    H127070   2.110   1.236   1.103
 9043TIP3    H227071   2.128   1.381   1.064
 9044TIP3   OH227072   0.658   4.493   6.646
 9044TIP3    H127073   0.602   4.541   6.707
 9044TIP3    H227074   0.740   4.483   6.693
 9045TIP3   OH227075   7.242   7.504   4.303
 9045TIP3    H127076   7.325   7.473   4.338
 9045TIP3    H227077   7.234   7.594   4.337
 9046TIP3   OH227078   5.919   6.133   0.335
 9046TIP3    H127079   5.995   6.114   0.280
 9046TIP3    H227080   5.844   6.129   0.276
 9047TIP3   OH227081   3.699   4.854   6.560
 9047TIP3    H127082   3.758   4.792   6.600
 9047TIP3    H227083   3.756   4.913   6.510
 9048TIP3   OH227084   6.409   7.805   3.617
 9048TIP3    H127085   6.436   7.767   3.700
 9048TIP3    H227086   6.440   7.742   3.551
 9049TIP3   OH227087   5.632   0.127   1.193
 9049TIP3    H127088   5.623   0.221   1.211
 9049TIP3    H227089   5.603   0.118   1.102
 9050TIP3   OH227090   6.211   7.243   1.856
 9050TIP3    H127091   6.140   7.180   1.865
 9050TIP3    H227092   6.270   7.223   1.928
 9051TIP3   OH227093   2.103   1.243   6.017
 9051TIP3    H127094   2.121   1.254   5.924
 9051TIP3    H227095   2.168   1.298   6.061
 9052TIP3   OH227096   2.821   3.930   0.649
 9052TIP3    H127097   2.794   3.948   0.559
 9052TIP3    H227098   2.876   4.004   0.673
 9053TIP3   OH227099   5.632   0.687   5.530
 9053TIP3    H127100   5.672   0.762   5.486
 9053TIP3    H227101   5.558   0.664   5.475
 9054TIP3   OH227102   0.798   3.622   6.580
 9054TIP3    H127103   0.754   3.676   6.645
 9054TIP3    H227104   0.734   3.613   6.509
 9055TIP3   OH227105   3.809   0.477   0.930
 9055TIP3    H127106   3.732   0.528   0.951
 9055TIP3    H227107   3.776   0.389   0.912
 9056TIP3   OH227108   6.755   4.942   5.087
 9056TIP3    H127109   6.821   4.982   5.144
 9056TIP3    H227110   6.768   4.848   5.099
 9057TIP3   OH227111   6.840   2.746   0.780
 9057TIP3    H127112   6.911   2.713   0.725
 9057TIP3    H227113   6.821   2.833   0.744
 9058TIP3   OH227114   3.327   6.937   0.687
 9058TIP3    H127115   3.421   6.951   0.680
 9058TIP3    H227116   3.312   6.914   0.779
 9059TIP3   OH227117   1.886   7.164   2.305
 9059TIP3    H127118   1.944   7.101   2.263
 9059TIP3    H227119   1.854   7.219   2.233
 9060TIP3   OH227120   2.888   4.275   0.940
 9060TIP3    H127121   2.936   4.358   0.938
 9060TIP3    H227122   2.799   4.299   0.966
 9061TIP3   OH227123   7.257   3.784   5.131
 9061TIP3    H127124   7.246   3.874   5.162
 9061TIP3    H227125   7.346   3.781   5.097
 9062TIP3   OH227126   6.526   4.689   2.471
 9062TIP3    H127127   6.439   4.654   2.492
 9062TIP3    H227128   6.575   4.684   2.553
 9063TIP3   OH227129   5.028   3.979   3.602
 9063TIP3    H127130   5.092   4.005   3.669
 9063TIP3    H227131   5.003   3.890   3.626
 9064TIP3   OH227132   6.702   4.859   4.536
 9064TIP3    H127133   6.727   4.824   4.622
 9064TIP3    H227134   6.775   4.837   4.479
 9065TIP3   OH227135   7.344   4.361   0.190
 9065TIP3    H127136   7.294   4.367   0.271
 9065TIP3    H227137   7.341   4.449   0.154
 9066TIP3   OH227138   2.198   5.690   6.664
 9066TIP3    H127139   2.196   5.688   6.759
 9066TIP3    H227140   2.121   5.640   6.637
 9067TIP3   OH227141   6.543   7.806   2.658
 9067TIP3    H127142   6.461   7.836   2.698
 9067TIP3    H227143   6.603   7.879   2.670
 9068TIP3   OH227144   5.392   4.834   3.972
 9068TIP3    H127145   5.429   4.866   4.054
 9068TIP3    H227146   5.298   4.835   3.985
 9069TIP3   OH227147   0.018   5.220   1.604
 9069TIP3    H127148   0.043   5.297   1.552
 9069TIP3    H227149   0.101   5.177   1.625
 9070TIP3   OH227150   8.244   4.440   1.577
 9070TIP3    H127151   8.310   4.488   1.526
 9070TIP3    H227152   8.260   4.348   1.556
 9071TIP3   OH227153   3.925   0.567   2.260
 9071TIP3    H127154   3.928   0.501   2.329
 9071TIP3    H227155   4.004   0.550   2.208
 9072TIP3   OH227156   4.286   2.329   1.335
 9072TIP3    H127157   4.267   2.251   1.388
 9072TIP3    H227158   4.211   2.388   1.352
 9073TIP3   OH227159   0.096   4.259   4.045
 9073TIP3    H127160   0.078   4.166   4.037
 9073TIP3    H227161   0.026   4.302   3.994
 9074TIP3   OH227162   4.357   4.343   6.442
 9074TIP3    H127163   4.264   4.319   6.435
 9074TIP3    H227164   4.397   4.307   6.363
 9075TIP3   OH227165   0.936   5.285   1.782
 9075TIP3    H127166   1.019   5.262   1.825
 9075TIP3    H227167   0.869   5.243   1.836
 9076TIP3   OH227168   6.747   0.567   3.986
 9076TIP3    H127169   6.832   0.532   4.013
 9076TIP3    H227170   6.745   0.556   3.891
 9077TIP3   OH227171   7.852   2.996   6.329
 9077TIP3    H127172   7.789   2.962   6.265
 9077TIP3    H227173   7.864   2.924   6.391
 9078TIP3   OH227174   7.236   2.602   5.584
 9078TIP3    H127175   7.311   2.624   5.640
 9078TIP3    H227176   7.218   2.683   5.536
 9079TIP3   OH227177   1.362   4.286   0.830
 9079TIP3    H127178   1.283   4.288   0.884
 9079TIP3    H227179   1.331   4.307   0.742
 9080TIP3   OH227180   7.136   6.522   6.712
 9080TIP3    H127181   7.139   6.586   6.783
 9080TIP3    H227182   7.145   6.437   6.755
 9081TIP3   OH227183   4.703   3.481   3.452
 9081TIP3    H127184   4.655   3.562   3.434
 9081TIP3    H227185   4.680   3.460   3.542
 9082TIP3   OH227186   3.035   7.418   0.198
 9082TIP3    H127187   2.967   7.484   0.210
 9082TIP3    H227188   3.114   7.459   0.232
 9083TIP3   OH227189   7.568   3.974   4.465
 9083TIP3    H127190   7.508   3.921   4.413
 9083TIP3    H227191   7.611   4.032   4.402
 9084TIP3   OH227192   6.315   7.747   1.018
 9084TIP3    H127193   6.220   7.754   1.013
 9084TIP3    H227194   6.332   7.657   1.044
 9085TIP3   OH227195   2.825   0.380   5.031
 9085TIP3    H127196   2.909   0.418   5.003
 9085TIP3    H227197   2.795   0.438   5.101
 9086TIP3   OH227198   1.908   0.431   5.336
 9086TIP3    H127199   1.945   0.375   5.404
 9086TIP3    H227200   1.980   0.446   5.275
 9087TIP3   OH227201   1.793   0.795   6.108
 9087TIP3    H127202   1.853   0.836   6.045
 9087TIP3    H227203   1.794   0.854   6.183
 9088TIP3   OH227204   4.787   0.694   0.636
 9088TIP3    H127205   4.800   0.769   0.693
 9088TIP3    H227206   4.875   0.662   0.617
 9089TIP3   OH227207   4.239   6.494   5.616
 9089TIP3    H127208   4.187   6.445   5.679
 9089TIP3    H227209   4.273   6.427   5.556
 9090TIP3   OH227210   4.579   3.333   6.192
 9090TIP3    H127211   4.515   3.403   6.186
 9090TIP3    H227212   4.613   3.323   6.103
 9091TIP3   OH227213   2.212   5.340   3.902
 9091TIP3    H127214   2.212   5.280   3.976
 9091TIP3    H227215   2.221   5.285   3.825
 9092TIP3   OH227216   3.360   1.446   3.876
 9092TIP3    H127217   3.271   1.445   3.912
 9092TIP3    H227218   3.365   1.530   3.828
 9093TIP3   OH227219   0.553   6.635   5.298
 9093TIP3    H127220   0.633   6.647   5.350
 9093TIP3    H227221   0.557   6.704   5.232
 9094TIP3   OH227222   8.266   4.963   3.498
 9094TIP3    H127223   8.181   4.955   3.542
 9094TIP3    H227224   8.310   5.034   3.544
 9095TIP3   OH227225   3.181   6.791   3.783
 9095TIP3    H127226   3.269   6.820   3.804
 9095TIP3    H227227   3.190   6.698   3.765
 9096TIP3   OH227228   3.838   5.218   2.339
 9096TIP3    H127229   3.927   5.184   2.341
 9096TIP3    H227230   3.820   5.236   2.247
 9097TIP3   OH227231   6.717   5.477   3.743
 9097TIP3    H127232   6.668   5.403   3.779
 9097TIP3    H227233   6.801   5.476   3.790
 9098TIP3   OH227234   3.179   1.736   5.923
 9098TIP3    H127235   3.124   1.808   5.952
 9098TIP3    H227236   3.180   1.743   5.828
 9099TIP3   OH227237   4.551   6.649   2.055
 9099TIP3    H127238   4.633   6.618   2.015
 9099TIP3    H227239   4.485   6.585   2.027
 9100TIP3   OH227240   5.689   6.724   3.229
 9100TIP3    H127241   5.713   6.643   3.274
 9100TIP3    H227242   5.770   6.775   3.228
 9101TIP3   OH227243   0.475   5.396   5.966
 9101TIP3    H127244   0.396   5.343   5.978
 9101TIP3    H227245   0.545   5.343   6.004
 9102TIP3   OH227246   8.216   3.099   0.160
 9102TIP3    H127247   8.215   3.194   0.157
 9102TIP3    H227248   8.162   3.072   0.085
 9103TIP3   OH227249   5.167   0.855   0.391
 9103TIP3    H127250   5.092   0.796   0.380
 9103TIP3    H227251   5.241   0.797   0.408
 9104TIP3   OH227252   4.574   3.798   5.485
 9104TIP3    H127253   4.637   3.849   5.433
 9104TIP3    H227254   4.583   3.833   5.573
 9105TIP3   OH227255   3.758   2.013   4.930
 9105TIP3    H127256   3.698   2.022   4.856
 9105TIP3    H227257   3.732   2.081   4.991
 9106TIP3   OH227258   2.389   3.373   4.335
 9106TIP3    H127259   2.339   3.367   4.254
 9106TIP3    H227260   2.376   3.289   4.378
 9107TIP3   OH227261   1.487   4.387   3.289
 9107TIP3    H127262   1.446   4.430   3.214
 9107TIP3    H227263   1.475   4.449   3.362
 9108TIP3   OH227264   3.930   1.931   1.975
 9108TIP3    H127265   3.963   1.919   1.886
 9108TIP3    H227266   3.963   1.855   2.023
 9109TIP3   OH227267   1.288   0.945   4.246
 9109TIP3    H127268   1.366   0.889   4.249
 9109TIP3    H227269   1.282   0.984   4.333
 9110TIP3   OH227270   8.333   7.627   1.868
 9110TIP3    H127271   8.389   7.705   1.867
 9110TIP3    H227272   8.245   7.662   1.884
 9111TIP3   OH227273   3.408   7.281   6.498
 9111TIP3    H127274   3.421   7.245   6.586
 9111TIP3    H227275   3.492   7.320   6.475
 9112TIP3   OH227276   0.243   5.522   5.205
 9112TIP3    H127277   0.321   5.467   5.199
 9112TIP3    H227278   0.222   5.544   5.114
 9113TIP3   OH227279   7.968   3.316   6.629
 9113TIP3    H127280   7.970   3.396   6.577
 9113TIP3    H227281   7.894   3.328   6.689
 9114TIP3   OH227282   3.476   5.094   5.235
 9114TIP3    H127283   3.475   5.097   5.330
 9114TIP3    H227284   3.383   5.089   5.210
 9115TIP3   OH227285   2.971   6.037   6.657
 9115TIP3    H127286   2.899   5.977   6.679
 9115TIP3    H227287   2.932   6.124   6.664
 9116TIP3   OH227288   4.539   0.959   2.389
 9116TIP3    H127289   4.453   0.990   2.361
 9116TIP3    H227290   4.524   0.917   2.473
 9117TIP3   OH227291   7.346   7.867   2.791
 9117TIP3    H127292   7.346   7.772   2.794
 9117TIP3    H227293   7.260   7.893   2.825
 9118TIP3   OH227294   5.152   3.851   6.574
 9118TIP3    H127295   5.100   3.882   6.649
 9118TIP3    H227296   5.160   3.757   6.588
 9119TIP3   OH227297   6.662   3.767   5.451
 9119TIP3    H127298   6.647   3.765   5.545
 9119TIP3    H227299   6.746   3.724   5.438
 9120TIP3   OH227300   4.287   4.843   5.443
 9120TIP3    H127301   4.369   4.793   5.438
 9120TIP3    H227302   4.248   4.816   5.526
 9121TIP3   OH227303   8.155   2.153   4.709
 9121TIP3    H127304   8.248   2.174   4.700
 9121TIP3    H227305   8.118   2.170   4.623
 9122TIP3   OH227306   3.355   4.363   0.015
 9122TIP3    H127307   3.441   4.360   0.056
 9122TIP3    H227308   3.364   4.306  -0.062
 9123TIP3   OH227309   1.974   6.102   6.818
 9123TIP3    H127310   1.978   6.035   6.887
 9123TIP3    H227311   1.912   6.066   6.754
 9124TIP3   OH227312   0.619   5.125   6.343
 9124TIP3    H127313   0.573   5.057   6.293
 9124TIP3    H227314   0.619   5.201   6.286
 9125TIP3   OH227315   5.926   5.837   2.727
 9125TIP3    H127316   5.935   5.932   2.742
 9125TIP3    H227317   5.899   5.802   2.812
 9126TIP3   OH227318   7.007   5.368   5.714
 9126TIP3    H127319   6.925   5.379   5.762
 9126TIP3    H227320   7.072   5.347   5.781
 9127TIP3   OH227321   5.375   1.971   3.371
 9127TIP3    H127322   5.307   1.972   3.438
 9127TIP3    H227323   5.348   1.902   3.310
 9128TIP3   OH227324   2.789   0.329   1.082
 9128TIP3    H127325   2.829   0.336   1.168
 9128TIP3    H227326   2.747   0.243   1.082
 9129TIP3   OH227327   3.160   5.746   5.268
 9129TIP3    H127328   3.090   5.694   5.229
 9129TIP3    H227329   3.231   5.684   5.284
 9130TIP3   OH227330   4.429   1.924   3.842
 9130TIP3    H127331   4.500   1.861   3.855
 9130TIP3    H227332   4.447   1.994   3.905
 9131TIP3   OH227333   1.614   7.008   5.583
 9131TIP3    H127334   1.652   7.087   5.544
 9131TIP3    H227335   1.645   6.937   5.527
 9132TIP3   OH227336   1.001   3.553   1.779
 9132TIP3    H127337   0.916   3.596   1.774
 9132TIP3    H227338   1.037   3.559   1.690
 9133TIP3   OH227339   7.910   0.870   6.455
 9133TIP3    H127340   7.875   0.950   6.493
 9133TIP3    H227341   7.952   0.899   6.374
 9134TIP3   OH227342   8.263   5.937   5.448
 9134TIP3    H127343   8.252   5.941   5.543
 9134TIP3    H227344   8.178   5.961   5.413
 9135TIP3   OH227345   3.746   6.270   2.404
 9135TIP3    H127346   3.660   6.306   2.423
 9135TIP3    H227347   3.740   6.178   2.433
 9136TIP3   OH227348   7.649   1.444   1.058
 9136TIP3    H127349   7.719   1.490   1.011
 9136TIP3    H227350   7.688   1.360   1.083
 9137TIP3   OH227351   8.149   6.957   4.365
 9137TIP3    H127352   8.079   6.949   4.301
 9137TIP3    H227353   8.230   6.948   4.313
 9138TIP3   OH227354   0.544   7.245   3.790
 9138TIP3    H127355   0.626   7.203   3.765
 9138TIP3    H227356   0.477   7.178   3.774
 9139TIP3   OH227357   2.355   2.629   5.692
 9139TIP3    H127358   2.323   2.542   5.716
 9139TIP3    H227359   2.362   2.627   5.597
 9140TIP3   OH227360   6.541   7.531   0.396
 9140TIP3    H127361   6.452   7.538   0.430
 9140TIP3    H227362   6.580   7.458   0.445
 9141TIP3   OH227363   7.641   6.599   4.494
 9141TIP3    H127364   7.604   6.672   4.544
 9141TIP3    H227365   7.710   6.639   4.441
 9142TIP3   OH227366   1.772   4.155   5.914
 9142TIP3    H127367   1.729   4.212   5.977
 9142TIP3    H227368   1.831   4.101   5.966
 9143TIP3   OH227369   4.735   5.940   1.898
 9143TIP3    H127370   4.745   6.030   1.929
 9143TIP3    H227371   4.673   5.900   1.958
 9144TIP3   OH227372   3.266   1.498   5.625
 9144TIP3    H127373   3.348   1.547   5.621
 9144TIP3    H227374   3.211   1.537   5.557
 9145TIP3   OH227375   3.091   6.415   0.164
 9145TIP3    H127376   3.101   6.325   0.134
 9145TIP3    H227377   2.997   6.427   0.174
 9146TIP3   OH227378   5.051   7.146   1.144
 9146TIP3    H127379   5.052   7.122   1.237
 9146TIP3    H227380   5.140   7.174   1.125
 9147TIP3   OH227381   0.093   6.047   0.481
 9147TIP3    H127382   0.038   6.121   0.507
 9147TIP3    H227383   0.099   5.993   0.560
 9148TIP3   OH227384   0.168   6.444   2.626
 9148TIP3    H127385   0.133   6.531   2.611
 9148TIP3    H227386   0.259   6.458   2.650
 9149TIP3   OH227387   1.525   5.801   3.852
 9149TIP3    H127388   1.454   5.822   3.792
 9149TIP3    H227389   1.601   5.786   3.796
 9150TIP3   OH227390   0.527   1.354   3.975
 9150TIP3    H127391   0.572   1.282   3.930
 9150TIP3    H227392   0.501   1.413   3.905
 9151TIP3   OH227393   3.066   3.385   1.256
 9151TIP3    H127394   3.006   3.325   1.213
 9151TIP3    H227395   3.133   3.405   1.190
 9152TIP3   OH227396   0.455   2.908   1.176
 9152TIP3    H127397   0.528   2.868   1.223
 9152TIP3    H227398   0.484   2.997   1.157
 9153TIP3   OH227399   6.360   4.150   3.946
 9153TIP3    H127400   6.266   4.142   3.932
 9153TIP3    H227401   6.369   4.198   4.028
 9154TIP3   OH227402   4.263   0.130   3.369
 9154TIP3    H127403   4.341   0.185   3.361
 9154TIP3    H227404   4.202   0.165   3.304
 9155TIP3   OH227405   1.169   7.016   5.056
 9155TIP3    H127406   1.208   6.962   4.987
 9155TIP3    H227407   1.235   7.083   5.075
 9156TIP3   OH227408   6.423   0.655   1.457
 9156TIP3    H127409   6.470   0.620   1.533
 9156TIP3    H227410   6.339   0.685   1.491
 9157TIP3   OH227411   7.873   3.780   1.862
 9157TIP3    H127412   7.967   3.782   1.846
 9157TIP3    H227413   7.834   3.758   1.777
 9158TIP3   OH227414   7.918   2.496   3.703
 9158TIP3    H127415   8.004   2.530   3.728
 9158TIP3    H227416   7.938   2.423   3.644
 9159TIP3   OH227417   3.860   6.254   4.444
 9159TIP3    H127418   3.830   6.170   4.479
 9159TIP3    H227419   3.780   6.306   4.437
 9160TIP3   OH227420   1.495   5.576   6.837
 9160TIP3    H127421   1.461   5.643   6.778
 9160TIP3    H227422   1.430   5.506   6.834
 9161TIP3   OH227423   1.200   0.697   3.473
 9161TIP3    H127424   1.179   0.636   3.544
 9161TIP3    H227425   1.118   0.705   3.424
 9162TIP3   OH227426   4.157   7.833   0.640
 9162TIP3    H127427   4.221   7.840   0.711
 9162TIP3    H227428   4.172   7.911   0.586
 9163TIP3   OH227429   4.602   3.184   4.676
 9163TIP3    H127430   4.597   3.178   4.772
 9163TIP3    H227431   4.516   3.214   4.649
 9164TIP3   OH227432   6.392   3.298   0.814
 9164TIP3    H127433   6.363   3.388   0.825
 9164TIP3    H227434   6.483   3.305   0.783
 9165TIP3   OH227435   1.888   7.039   4.682
 9165TIP3    H127436   1.980   7.014   4.681
 9165TIP3    H227437   1.857   7.013   4.768
 9166TIP3   OH227438   2.490   1.222   5.952
 9166TIP3    H127439   2.484   1.141   6.003
 9166TIP3    H227440   2.412   1.272   5.978
 9167TIP3   OH227441   7.883   5.809   4.469
 9167TIP3    H127442   7.927   5.893   4.460
 9167TIP3    H227443   7.805   5.828   4.521
 9168TIP3   OH227444   5.133   3.665   2.003
 9168TIP3    H127445   5.225   3.686   2.020
 9168TIP3    H227446   5.117   3.587   2.057
 9169TIP3   OH227447   3.636   1.486   6.672
 9169TIP3    H127448   3.639   1.454   6.762
 9169TIP3    H227449   3.697   1.560   6.671
 9170TIP3   OH227450   2.334   1.079   4.297
 9170TIP3    H127451   2.426   1.098   4.317
 9170TIP3    H227452   2.313   1.139   4.225
 9171TIP3   OH227453   1.944   4.401   4.146
 9171TIP3    H127454   2.037   4.415   4.127
 9171TIP3    H227455   1.922   4.321   4.098
 9172TIP3   OH227456   4.510   1.318   5.500
 9172TIP3    H127457   4.593   1.270   5.510
 9172TIP3    H227458   4.447   1.268   5.551
 9173TIP3   OH227459   7.888   7.476   0.053
 9173TIP3    H127460   7.922   7.389   0.031
 9173TIP3    H227461   7.799   7.460   0.084
 9174TIP3   OH227462   5.730   4.185   6.426
 9174TIP3    H127463   5.722   4.090   6.433
 9174TIP3    H227464   5.785   4.199   6.348
 9175TIP3   OH227465   1.723   4.415   1.806
 9175TIP3    H127466   1.792   4.451   1.750
 9175TIP3    H227467   1.765   4.402   1.891
 9176TIP3   OH227468   1.812   5.502   3.236
 9176TIP3    H127469   1.900   5.474   3.260
 9176TIP3    H227470   1.813   5.598   3.247
 9177TIP3   OH227471   0.694   3.387   5.049
 9177TIP3    H127472   0.634   3.340   4.992
 9177TIP3    H227473   0.768   3.328   5.060
 9178TIP3   OH227474   7.125   4.451   5.577
 9178TIP3    H127475   7.147   4.512   5.647
 9178TIP3    H227476   7.034   4.471   5.555
 9179TIP3   OH227477   3.773   7.162   5.660
 9179TIP3    H127478   3.774   7.205   5.575
 9179TIP3    H227479   3.840   7.207   5.711
 9180TIP3   OH227480   5.545   0.448   2.924
 9180TIP3    H127481   5.569   0.359   2.900
 9180TIP3    H227482   5.628   0.490   2.946
 9181TIP3   OH227483   6.811   3.806   4.056
 9181TIP3    H127484   6.728   3.852   4.071
 9181TIP3    H227485   6.791   3.742   3.988
 9182TIP3   OH227486   2.310   6.564   0.082
 9182TIP3    H127487   2.355   6.489   0.044
 9182TIP3    H227488   2.326   6.558   0.176
 9183TIP3   OH227489   7.989   1.584   5.041
 9183TIP3    H127490   7.937   1.601   5.120
 9183TIP3    H227491   8.080   1.591   5.069
 9184TIP3   OH227492   8.062   2.989   2.947
 9184TIP3    H127493   8.134   2.926   2.951
 9184TIP3    H227494   8.034   2.998   3.038
 9185TIP3   OH227495   7.941   5.857   3.383
 9185TIP3    H127496   7.886   5.793   3.336
 9185TIP3    H227497   8.024   5.812   3.397
 9186TIP3   OH227498   6.136   0.832   4.006
 9186TIP3    H127499   6.073   0.769   4.042
 9186TIP3    H227500   6.114   0.837   3.913
 9187TIP3   OH227501   8.350   1.287   0.471
 9187TIP3    H127502   8.442   1.284   0.445
 9187TIP3    H227503   8.351   1.277   0.566
 9188TIP3   OH227504   6.729   1.549   1.830
 9188TIP3    H127505   6.807   1.523   1.781
 9188TIP3    H227506   6.707   1.636   1.797
 9189TIP3   OH227507   3.889   7.083   2.378
 9189TIP3    H127508   3.877   7.034   2.460
 9189TIP3    H227509   3.982   7.072   2.358
 9190TIP3   OH227510   2.603   2.406   2.984
 9190TIP3    H127511   2.539   2.463   2.941
 9190TIP3    H227512   2.648   2.362   2.912
 9191TIP3   OH227513   6.729   1.545   6.606
 9191TIP3    H127514   6.648   1.520   6.562
 9191TIP3    H227515   6.746   1.473   6.666
 9192TIP3   OH227516   6.645   1.898   5.687
 9192TIP3    H127517   6.624   1.927   5.598
 9192TIP3    H227518   6.722   1.950   5.711
 9193TIP3   OH227519   4.858   0.843   1.249
 9193TIP3    H127520   4.837   0.921   1.301
 9193TIP3    H227521   4.922   0.873   1.185
 9194TIP3   OH227522   5.345   1.817   3.869
 9194TIP3    H127523   5.355   1.787   3.959
 9194TIP3    H227524   5.275   1.763   3.833
 9195TIP3   OH227525   0.981   3.170   6.267
 9195TIP3    H127526   1.063   3.139   6.303
 9195TIP3    H227527   0.925   3.093   6.262
 9196TIP3   OH227528   5.389   6.806   2.035
 9196TIP3    H127529   5.466   6.770   1.991
 9196TIP3    H227530   5.388   6.764   2.121
 9197TIP3   OH227531   8.118   0.046   1.449
 9197TIP3    H127532   8.154   0.058   1.536
 9197TIP3    H227533   8.137  -0.046   1.428
 9198TIP3   OH227534   5.054   4.187   4.474
 9198TIP3    H127535   4.997   4.113   4.492
 9198TIP3    H227536   5.142   4.156   4.497
 9199TIP3   OH227537   0.028   7.895   2.593
 9199TIP3    H127538  -0.051   7.863   2.549
 9199TIP3    H227539   0.062   7.818   2.639
 9200TIP3   OH227540   2.337   3.628   5.762
 9200TIP3    H127541   2.325   3.693   5.693
 9200TIP3    H227542   2.419   3.584   5.740
 9201TIP3   OH227543   7.356   7.687   1.860
 9201TIP3    H127544   7.333   7.779   1.851
 9201TIP3    H227545   7.373   7.675   1.953
 9202TIP3   OH227546   5.190   2.143   2.623
 9202TIP3    H127547   5.156   2.062   2.663
 9202TIP3    H227548   5.135   2.156   2.545
 9203TIP3   OH227549   6.314   3.575   0.834
 9203TIP3    H127550   6.408   3.562   0.821
 9203TIP3    H227551   6.280   3.595   0.747
 9204TIP3   OH227552   6.283   7.921   2.772
 9204TIP3    H127553   6.300   7.973   2.851
 9204TIP3    H227554   6.211   7.863   2.797
 9205TIP3   OH227555   7.297   4.976   1.119
 9205TIP3    H127556   7.233   4.988   1.189
 9205TIP3    H227557   7.313   4.882   1.118
 9206TIP3   OH227558   7.564   3.491   5.450
 9206TIP3    H127559   7.638   3.476   5.509
 9206TIP3    H227560   7.592   3.453   5.367
 9207TIP3   OH227561   6.568   0.240   5.805
 9207TIP3    H127562   6.557   0.158   5.854
 9207TIP3    H227563   6.593   0.212   5.717
 9208TIP3   OH227564   4.394   1.478   5.024
 9208TIP3    H127565   4.482   1.448   5.000
 9208TIP3    H227566   4.342   1.463   4.946
 9209TIP3   OH227567   1.364   5.639   3.256
 9209TIP3    H127568   1.326   5.559   3.291
 9209TIP3    H227569   1.344   5.636   3.163
 9210TIP3   OH227570   7.193   1.713   5.232
 9210TIP3    H127571   7.177   1.619   5.230
 9210TIP3    H227572   7.281   1.723   5.194
 9211TIP3   OH227573   0.103   6.433   2.942
 9211TIP3    H127574   0.044   6.467   3.010
 9211TIP3    H227575   0.044   6.398   2.875
 9212TIP3   OH227576   8.192   6.373   4.081
 9212TIP3    H127577   8.098   6.355   4.090
 9212TIP3    H227578   8.209   6.365   3.988
 9213TIP3   OH227579   3.877   7.017   4.939
 9213TIP3    H127580   3.935   7.044   5.010
 9213TIP3    H227581   3.789   7.031   4.973
 9214TIP3   OH227582   5.931   3.005   1.018
 9214TIP3    H127583   6.020   3.037   1.007
 9214TIP3    H227584   5.887   3.025   0.936
 9215TIP3   OH227585   7.313   7.774   5.363
 9215TIP3    H127586   7.251   7.715   5.320
 9215TIP3    H227587   7.257   7.838   5.408
 9216TIP3   OH227588   5.154   7.597   6.480
 9216TIP3    H127589   5.059   7.588   6.489
 9216TIP3    H227590   5.181   7.521   6.428
 9217TIP3   OH227591   7.300   2.288   2.951
 9217TIP3    H127592   7.300   2.298   2.856
 9217TIP3    H227593   7.376   2.339   2.980
 9218TIP3   OH227594   7.786   2.821   3.732
 9218TIP3    H127595   7.768   2.861   3.818
 9218TIP3    H227596   7.725   2.747   3.727
 9219TIP3   OH227597   5.268   2.719   3.291
 9219TIP3    H127598   5.343   2.678   3.333
 9219TIP3    H227599   5.270   2.687   3.201
 9220TIP3   OH227600   0.812   7.289   1.938
 9220TIP3    H127601   0.828   7.338   2.019
 9220TIP3    H227602   0.802   7.198   1.966
 9221TIP3   OH227603   3.328   1.415   6.799
 9221TIP3    H127604   3.328   1.507   6.828
 9221TIP3    H227605   3.418   1.385   6.816
 9222TIP3   OH227606   7.442   3.454   4.497
 9222TIP3    H127607   7.430   3.486   4.407
 9222TIP3    H227608   7.421   3.360   4.491
 9223TIP3   OH227609   3.609   6.402   5.952
 9223TIP3    H127610   3.657   6.398   5.870
 9223TIP3    H227611   3.676   6.423   6.018
 9224TIP3   OH227612   5.010   1.370   6.367
 9224TIP3    H127613   4.965   1.288   6.386
 9224TIP3    H227614   5.102   1.351   6.385
 9225TIP3   OH227615   2.930   5.521   2.133
 9225TIP3    H127616   2.956   5.434   2.100
 9225TIP3    H227617   2.996   5.543   2.198
 9226TIP3   OH227618   6.656   0.669   2.094
 9226TIP3    H127619   6.590   0.612   2.056
 9226TIP3    H227620   6.696   0.713   2.019
 9227TIP3   OH227621   4.844   0.182   2.155
 9227TIP3    H127622   4.839   0.262   2.103
 9227TIP3    H227623   4.908   0.201   2.224
 9228TIP3   OH227624   3.195   5.268   0.394
 9228TIP3    H127625   3.269   5.217   0.362
 9228TIP3    H227626   3.201   5.352   0.348
 9229TIP3   OH227627   2.169   7.319   4.513
 9229TIP3    H127628   2.153   7.299   4.605
 9229TIP3    H227629   2.205   7.408   4.514
 9230TIP3   OH227630   5.050   6.745   3.320
 9230TIP3    H127631   5.013   6.744   3.408
 9230TIP3    H227632   4.987   6.697   3.267
 9231TIP3   OH227633   0.052   4.571   3.256
 9231TIP3    H127634  -0.029   4.604   3.293
 9231TIP3    H227635   0.121   4.614   3.306
 9232TIP3   OH227636   7.109   2.359   5.234
 9232TIP3    H127637   7.202   2.381   5.236
 9232TIP3    H227638   7.068   2.425   5.291
 9233TIP3   OH227639   2.253   5.744   3.638
 9233TIP3    H127640   2.347   5.733   3.622
 9233TIP3    H227641   2.235   5.692   3.717
 9234TIP3   OH227642   7.787   4.940   3.707
 9234TIP3    H127643   7.731   4.870   3.742
 9234TIP3    H227644   7.728   4.997   3.659
 9235TIP3   OH227645   0.628   5.457   1.576
 9235TIP3    H127646   0.674   5.509   1.642
 9235TIP3    H227647   0.648   5.366   1.599
 9236TIP3   OH227648   2.846   0.067   4.225
 9236TIP3    H127649   2.878   0.105   4.307
 9236TIP3    H227650   2.757   0.037   4.244
 9237TIP3   OH227651   7.818   4.045   1.678
 9237TIP3    H127652   7.799   4.127   1.633
 9237TIP3    H227653   7.844   3.984   1.608
 9238TIP3   OH227654   8.012   6.688   5.959
 9238TIP3    H127655   8.060   6.755   6.008
 9238TIP3    H227656   7.987   6.732   5.878
 9239TIP3   OH227657   0.495   6.973   0.989
 9239TIP3    H127658   0.450   6.956   0.906
 9239TIP3    H227659   0.478   6.896   1.042
 9240TIP3   OH227660   5.833   4.069   5.048
 9240TIP3    H127661   5.921   4.040   5.072
 9240TIP3    H227662   5.774   4.011   5.097
 9241TIP3   OH227663   1.505   1.228   6.803
 9241TIP3    H127664   1.511   1.286   6.879
 9241TIP3    H227665   1.594   1.191   6.794
 9242TIP3   OH227666   1.976   6.249   0.057
 9242TIP3    H127667   2.028   6.197   0.118
 9242TIP3    H227668   1.895   6.198   0.044
 9243TIP3   OH227669   0.308   6.022   3.663
 9243TIP3    H127670   0.358   6.102   3.678
 9243TIP3    H227671   0.374   5.954   3.650
 9244TIP3   OH227672   4.170   0.777   2.270
 9244TIP3    H127673   4.212   0.691   2.278
 9244TIP3    H227674   4.103   0.777   2.338
 9245TIP3   OH227675   8.251   7.423   4.757
 9245TIP3    H127676   8.342   7.452   4.763
 9245TIP3    H227677   8.201   7.504   4.742
 9246TIP3   OH227678   2.523   0.689   6.406
 9246TIP3    H127679   2.454   0.636   6.365
 9246TIP3    H227680   2.604   0.640   6.389
 9247TIP3   OH227681   1.717   1.084   5.819
 9247TIP3    H127682   1.640   1.138   5.802
 9247TIP3    H227683   1.682   0.997   5.840
 9248TIP3   OH227684   3.201   7.550   0.419
 9248TIP3    H127685   3.242   7.594   0.493
 9248TIP3    H227686   3.107   7.551   0.440
 9249TIP3   OH227687   8.318   6.894   1.018
 9249TIP3    H127688   8.294   6.849   1.099
 9249TIP3    H227689   8.276   6.980   1.025
 9250TIP3   OH227690   4.522   2.567   6.703
 9250TIP3    H127691   4.552   2.555   6.613
 9250TIP3    H227692   4.468   2.645   6.700
 9251TIP3   OH227693   1.093   2.638   0.419
 9251TIP3    H127694   1.148   2.654   0.496
 9251TIP3    H227695   1.030   2.710   0.420
 9252TIP3   OH227696   5.951   4.972   4.587
 9252TIP3    H127697   6.027   4.996   4.534
 9252TIP3    H227698   5.977   4.994   4.677
 9253TIP3   OH227699   0.095   5.846   2.681
 9253TIP3    H127700   0.180   5.872   2.714
 9253TIP3    H227701   0.032   5.897   2.732
 9254TIP3   OH227702   7.178   0.799   1.933
 9254TIP3    H127703   7.115   0.774   2.001
 9254TIP3    H227704   7.127   0.850   1.870
 9255TIP3   OH227705   2.054   2.330   3.594
 9255TIP3    H127706   2.115   2.322   3.667
 9255TIP3    H227707   2.110   2.329   3.516
 9256TIP3   OH227708   1.854   2.047   4.932
 9256TIP3    H127709   1.827   1.979   4.993
 9256TIP3    H227710   1.939   2.077   4.966
 9257TIP3   OH227711   4.201   6.954   1.662
 9257TIP3    H127712   4.170   6.955   1.752
 9257TIP3    H227713   4.296   6.945   1.669
 9258TIP3   OH227714   7.835   3.366   5.378
 9258TIP3    H127715   7.921   3.328   5.396
 9258TIP3    H227716   7.833   3.446   5.431
 9259TIP3   OH227717   0.184   0.110   5.209
 9259TIP3    H127718   0.143   0.143   5.289
 9259TIP3    H227719   0.236   0.183   5.176
 9260TIP3   OH227720   0.225   7.009   6.167
 9260TIP3    H127721   0.225   6.920   6.203
 9260TIP3    H227722   0.157   7.054   6.218
 9261TIP3   OH227723   2.990   0.700   3.096
 9261TIP3    H127724   3.047   0.766   3.059
 9261TIP3    H227725   3.038   0.664   3.170
 9262TIP3   OH227726   3.735   1.327   2.952
 9262TIP3    H127727   3.641   1.337   2.938
 9262TIP3    H227728   3.773   1.331   2.865
 9263TIP3   OH227729   1.962   5.259   0.229
 9263TIP3    H127730   2.047   5.283   0.264
 9263TIP3    H227731   1.899   5.299   0.290
 9264TIP3   OH227732   1.683   0.439   0.368
 9264TIP3    H127733   1.753   0.485   0.414
 9264TIP3    H227734   1.673   0.485   0.285
 9265TIP3   OH227735   1.485   6.433   3.582
 9265TIP3    H127736   1.430   6.508   3.605
 9265TIP3    H227737   1.521   6.455   3.496
 9266TIP3   OH227738   6.365   3.207   1.757
 9266TIP3    H127739   6.342   3.295   1.787
 9266TIP3    H227740   6.373   3.155   1.836
 9267TIP3   OH227741   6.170   2.957   4.175
 9267TIP3    H127742   6.126   2.939   4.258
 9267TIP3    H227743   6.221   2.878   4.157
 9268TIP3   OH227744   7.898   5.171   1.993
 9268TIP3    H127745   7.914   5.222   1.914
 9268TIP3    H227746   7.827   5.217   2.038
 9269TIP3   OH227747   3.376   7.665   3.044
 9269TIP3    H127748   3.364   7.756   3.070
 9269TIP3    H227749   3.462   7.641   3.079
 9270TIP3   OH227750   1.029   3.830   5.316
 9270TIP3    H127751   1.099   3.890   5.343
 9270TIP3    H227752   0.950   3.883   5.319
 9271TIP3   OH227753   5.906   4.987   1.305
 9271TIP3    H127754   5.952   5.056   1.259
 9271TIP3    H227755   5.973   4.942   1.356
 9272TIP3   OH227756   5.614   0.365   2.587
 9272TIP3    H127757   5.649   0.444   2.628
 9272TIP3    H227758   5.604   0.303   2.660
 9273TIP3   OH227759   3.441   1.494   6.478
 9273TIP3    H127760   3.367   1.436   6.492
 9273TIP3    H227761   3.492   1.487   6.559
 9274TIP3   OH227762   8.343   4.312   0.394
 9274TIP3    H127763   8.367   4.404   0.400
 9274TIP3    H227764   8.249   4.311   0.411
 9275TIP3   OH227765   8.332   2.696   0.534
 9275TIP3    H127766   8.325   2.790   0.548
 9275TIP3    H227767   8.253   2.672   0.486
 9276TIP3   OH227768   2.880   3.703   1.671
 9276TIP3    H127769   2.801   3.649   1.662
 9276TIP3    H227770   2.937   3.673   1.600
 9277TIP3   OH227771   0.460   4.604   2.088
 9277TIP3    H127772   0.434   4.518   2.120
 9277TIP3    H227773   0.419   4.665   2.150
 9278TIP3   OH227774   0.167   7.175   3.150
 9278TIP3    H127775   0.230   7.206   3.214
 9278TIP3    H227776   0.090   7.151   3.201
 9279TIP3   OH227777   2.903   5.043   5.485
 9279TIP3    H127778   2.846   4.989   5.540
 9279TIP3    H227779   2.989   5.036   5.525
 9280TIP3   OH227780   5.825   0.139   3.138
 9280TIP3    H127781   5.866   0.136   3.225
 9280TIP3    H227782   5.739   0.099   3.150
 9281TIP3   OH227783   5.401   6.576   0.782
 9281TIP3    H127784   5.488   6.603   0.813
 9281TIP3    H227785   5.406   6.584   0.687
 9282TIP3   OH227786   5.845   4.419   6.248
 9282TIP3    H127787   5.909   4.351   6.270
 9282TIP3    H227788   5.797   4.383   6.174
 9283TIP3   OH227789   6.287   5.149   6.530
 9283TIP3    H127790   6.305   5.092   6.605
 9283TIP3    H227791   6.356   5.215   6.534
 9284TIP3   OH227792   4.393   7.759   3.406
 9284TIP3    H127793   4.331   7.720   3.344
 9284TIP3    H227794   4.476   7.763   3.358
 9285TIP3   OH227795   3.244   3.479   6.463
 9285TIP3    H127796   3.333   3.445   6.466
 9285TIP3    H227797   3.253   3.567   6.425
 9286TIP3   OH227798   6.532   0.417   1.758
 9286TIP3    H127799   6.492   0.367   1.687
 9286TIP3    H227800   6.562   0.497   1.717
 9287TIP3   OH227801   3.210   6.682   2.435
 9287TIP3    H127802   3.154   6.610   2.464
 9287TIP3    H227803   3.299   6.651   2.453
 9288TIP3   OH227804   7.232   0.040   2.838
 9288TIP3    H127805   7.265   0.059   2.925
 9288TIP3    H227806   7.154   0.095   2.828
 9289TIP3   OH227807   0.521   4.116   2.347
 9289TIP3    H127808   0.509   4.079   2.435
 9289TIP3    H227809   0.616   4.117   2.335
 9290TIP3   OH227810   5.486   2.315   4.721
 9290TIP3    H127811   5.437   2.394   4.698
 9290TIP3    H227812   5.419   2.251   4.745
 9291TIP3   OH227813   0.149   1.779   4.491
 9291TIP3    H127814   0.104   1.710   4.540
 9291TIP3    H227815   0.192   1.831   4.559
 9292TIP3   OH227816   7.679   3.796   6.621
 9292TIP3    H127817   7.656   3.865   6.558
 9292TIP3    H227818   7.753   3.832   6.670
 9293TIP3   OH227819   0.228   6.781   3.591
 9293TIP3    H127820   0.163   6.718   3.621
 9293TIP3    H227821   0.203   6.801   3.501
 9294TIP3   OH227822   7.118   6.039   2.508
 9294TIP3    H127823   7.202   6.079   2.486
 9294TIP3    H227824   7.075   6.102   2.565
 9295TIP3   OH227825   4.564   2.938   1.986
 9295TIP3    H127826   4.484   2.970   2.029
 9295TIP3    H227827   4.591   2.863   2.039
 9296TIP3   OH227828   5.258   5.846   1.623
 9296TIP3    H127829   5.260   5.816   1.714
 9296TIP3    H227830   5.349   5.839   1.593
 9297TIP3   OH227831   5.724   1.381   4.636
 9297TIP3    H127832   5.670   1.362   4.712
 9297TIP3    H227833   5.801   1.324   4.646
 9298TIP3   OH227834   7.952   7.051   3.050
 9298TIP3    H127835   7.914   7.119   3.106
 9298TIP3    H227836   7.914   7.067   2.963
 9299TIP3   OH227837   2.087   2.452   6.390
 9299TIP3    H127838   2.055   2.443   6.480
 9299TIP3    H227839   2.056   2.538   6.363
 9300TIP3   OH227840   3.619   0.523   2.158
 9300TIP3    H127841   3.656   0.484   2.237
 9300TIP3    H227842   3.659   0.610   2.154
 9301TIP3   OH227843   4.266   6.525   2.336
 9301TIP3    H127844   4.325   6.475   2.280
 9301TIP3    H227845   4.240   6.464   2.405
 9302TIP3   OH227846   5.300   4.140   3.500
 9302TIP3    H127847   5.386   4.169   3.469
 9302TIP3    H227848   5.241   4.212   3.479
 9303TIP3   OH227849   0.759   3.378   6.292
 9303TIP3    H127850   0.847   3.342   6.277
 9303TIP3    H227851   0.762   3.466   6.255
 9304TIP3   OH227852   0.777   6.917   5.806
 9304TIP3    H127853   0.829   6.929   5.886
 9304TIP3    H227854   0.785   7.001   5.761
 9305TIP3   OH227855   5.178   2.623   0.354
 9305TIP3    H127856   5.123   2.661   0.285
 9305TIP3    H227857   5.227   2.554   0.311
 9306TIP3   OH227858   0.041   7.406   6.613
 9306TIP3    H127859   0.029   7.450   6.697
 9306TIP3    H227860   0.135   7.413   6.595
 9307TIP3   OH227861   7.045   0.057   1.312
 9307TIP3    H127862   6.970  -0.001   1.324
 9307TIP3    H227863   7.048   0.073   1.217
 9308TIP3   OH227864   0.256   4.396   6.309
 9308TIP3    H127865   0.332   4.397   6.368
 9308TIP3    H227866   0.236   4.488   6.295
 9309TIP3   OH227867   5.103   3.248   2.745
 9309TIP3    H127868   5.092   3.171   2.801
 9309TIP3    H227869   5.025   3.300   2.761
 9310TIP3   OH227870   3.450   5.266   3.963
 9310TIP3    H127871   3.445   5.203   4.036
 9310TIP3    H227872   3.378   5.327   3.980
 9311TIP3   OH227873   6.678   0.364   4.660
 9311TIP3    H127874   6.717   0.442   4.621
 9311TIP3    H227875   6.679   0.380   4.754
 9312TIP3   OH227876   8.175   2.177   0.505
 9312TIP3    H127877   8.195   2.248   0.445
 9312TIP3    H227878   8.229   2.195   0.582
 9313TIP3   OH227879   1.953   7.655   5.569
 9313TIP3    H127880   1.909   7.595   5.509
 9313TIP3    H227881   2.044   7.627   5.569
 9314TIP3   OH227882   1.243   7.720   5.869
 9314TIP3    H127883   1.307   7.787   5.845
 9314TIP3    H227884   1.290   7.638   5.858
 9315TIP3   OH227885   4.528   6.334   6.250
 9315TIP3    H127886   4.496   6.253   6.290
 9315TIP3    H227887   4.621   6.318   6.235
 9316TIP3   OH227888   2.351   6.197   3.806
 9316TIP3    H127889   2.255   6.188   3.808
 9316TIP3    H227890   2.373   6.234   3.892
 9317TIP3   OH227891   4.725   0.521   1.206
 9317TIP3    H127892   4.816   0.550   1.218
 9317TIP3    H227893   4.678   0.558   1.280
 9318TIP3   OH227894   7.274   3.366   5.811
 9318TIP3    H127895   7.295   3.275   5.830
 9318TIP3    H227896   7.227   3.364   5.727
 9319TIP3   OH227897   7.891   6.820   0.711
 9319TIP3    H127898   7.941   6.739   0.710
 9319TIP3    H227899   7.922   6.868   0.633
 9320TIP3   OH227900   7.262   2.660   4.232
 9320TIP3    H127901   7.234   2.720   4.301
 9320TIP3    H227902   7.358   2.657   4.241
 9321TIP3   OH227903   4.063   0.889   0.134
 9321TIP3    H127904   4.073   0.932   0.049
 9321TIP3    H227905   3.986   0.832   0.123
 9322TIP3   OH227906   1.142   2.060   5.714
 9322TIP3    H127907   1.060   2.014   5.694
 9322TIP3    H227908   1.185   2.072   5.630
 9323TIP3   OH227909   1.413   3.850   0.702
 9323TIP3    H127910   1.437   3.895   0.783
 9323TIP3    H227911   1.397   3.760   0.729
 9324TIP3   OH227912   5.709   3.489   5.933
 9324TIP3    H127913   5.789   3.441   5.955
 9324TIP3    H227914   5.688   3.460   5.844
 9325TIP3   OH227915   1.309   1.256   6.598
 9325TIP3    H127916   1.328   1.342   6.561
 9325TIP3    H227917   1.358   1.253   6.680
 9326TIP3   OH227918   2.570   0.700   0.542
 9326TIP3    H127919   2.534   0.673   0.458
 9326TIP3    H227920   2.614   0.622   0.576
 9327TIP3   OH227921   7.130   1.627   4.052
 9327TIP3    H127922   7.182   1.668   3.983
 9327TIP3    H227923   7.187   1.560   4.089
 9328TIP3   OH227924   8.077   5.064   1.267
 9328TIP3    H127925   8.053   4.977   1.235
 9328TIP3    H227926   7.996   5.115   1.260
 9329TIP3   OH227927   8.296   5.539   3.523
 9329TIP3    H127928   8.373   5.496   3.486
 9329TIP3    H227929   8.300   5.518   3.616
 9330TIP3   OH227930   6.930   6.942   5.116
 9330TIP3    H127931   6.854   6.976   5.067
 9330TIP3    H227932   6.950   6.858   5.075
 9331TIP3   OH227933   5.411   1.875   6.820
 9331TIP3    H127934   5.365   1.952   6.788
 9331TIP3    H227935   5.365   1.801   6.780
 9332TIP3   OH227936   5.181   4.752   0.043
 9332TIP3    H127937   5.214   4.662   0.031
 9332TIP3    H227938   5.215   4.799  -0.033
 9333TIP3   OH227939   1.150   5.632   4.469
 9333TIP3    H127940   1.101   5.550   4.471
 9333TIP3    H227941   1.159   5.651   4.376
 9334TIP3   OH227942   7.653   7.010   2.353
 9334TIP3    H127943   7.611   6.930   2.322
 9334TIP3    H227944   7.645   7.071   2.279
 9335TIP3   OH227945   0.546   4.417   3.166
 9335TIP3    H127946   0.555   4.326   3.136
 9335TIP3    H227947   0.558   4.412   3.261
 9336TIP3   OH227948   6.124   6.019   1.886
 9336TIP3    H127949   6.113   6.048   1.795
 9336TIP3    H227950   6.214   5.986   1.890
 9337TIP3   OH227951   2.076   0.546   1.968
 9337TIP3    H127952   2.120   0.608   2.026
 9337TIP3    H227953   2.122   0.553   1.884
 9338TIP3   OH227954   2.589   0.638   1.997
 9338TIP3    H127955   2.517   0.684   2.041
 9338TIP3    H227956   2.549   0.603   1.917
 9339TIP3   OH227957   0.627   3.011   4.781
 9339TIP3    H127958   0.708   3.058   4.802
 9339TIP3    H227959   0.635   2.928   4.826
 9340TIP3   OH227960   1.336   4.070   3.399
 9340TIP3    H127961   1.320   4.101   3.310
 9340TIP3    H227962   1.273   3.999   3.411
 9341TIP3   OH227963   1.571   6.317   1.503
 9341TIP3    H127964   1.483   6.283   1.483
 9341TIP3    H227965   1.622   6.239   1.524
 9342TIP3   OH227966   2.133   7.832   6.562
 9342TIP3    H127967   2.084   7.830   6.480
 9342TIP3    H227968   2.148   7.925   6.579
 9343TIP3   OH227969   3.680   7.506   3.646
 9343TIP3    H127970   3.698   7.417   3.617
 9343TIP3    H227971   3.722   7.513   3.731
 9344TIP3   OH227972   5.144   3.566   5.908
 9344TIP3    H127973   5.181   3.514   5.836
 9344TIP3    H227974   5.191   3.649   5.904
 9345TIP3   OH227975   4.789   7.346   5.128
 9345TIP3    H127976   4.800   7.427   5.079
 9345TIP3    H227977   4.864   7.292   5.102
 9346TIP3   OH227978   2.877   1.943   0.655
 9346TIP3    H127979   2.838   1.855   0.657
 9346TIP3    H227980   2.953   1.937   0.712
 9347TIP3   OH227981   6.343   6.994   2.670
 9347TIP3    H127982   6.422   7.015   2.719
 9347TIP3    H227983   6.370   6.928   2.606
 9348TIP3   OH227984   4.355   6.393   4.705
 9348TIP3    H127985   4.347   6.316   4.649
 9348TIP3    H227986   4.295   6.457   4.667
 9349TIP3   OH227987   2.209   3.321   2.674
 9349TIP3    H127988   2.142   3.263   2.637
 9349TIP3    H227989   2.292   3.276   2.655
 9350TIP3   OH227990   7.379   4.515   0.989
 9350TIP3    H127991   7.330   4.568   1.053
 9350TIP3    H227992   7.460   4.563   0.977
 9351TIP3   OH227993   5.240   2.821   5.236
 9351TIP3    H127994   5.238   2.916   5.222
 9351TIP3    H227995   5.314   2.791   5.183
 9352TIP3   OH227996   8.348   1.409   4.349
 9352TIP3    H127997   8.440   1.390   4.365
 9352TIP3    H227998   8.344   1.437   4.258
 9353TIP3   OH227999   7.696   6.281   2.965
 9353TIP3    H128000   7.611   6.249   2.934
 9353TIP3    H228001   7.714   6.230   3.044
 9354TIP3   OH228002   4.443   7.706   4.288
 9354TIP3    H128003   4.375   7.638   4.295
 9354TIP3    H228004   4.445   7.747   4.374
 9355TIP3   OH228005   0.255   1.252   0.456
 9355TIP3    H128006   0.264   1.198   0.378
 9355TIP3    H228007   0.225   1.191   0.524
 9356TIP3   OH228008   8.134   4.831   5.387
 9356TIP3    H128009   8.071   4.904   5.394
 9356TIP3    H228010   8.159   4.813   5.477
 9357TIP3   OH228011   1.027   4.832   3.859
 9357TIP3    H128012   1.095   4.798   3.800
 9357TIP3    H228013   0.945   4.817   3.813
 9358TIP3   OH228014   7.794   0.689   6.267
 9358TIP3    H128015   7.762   0.642   6.344
 9358TIP3    H228016   7.847   0.761   6.302
 9359TIP3   OH228017   7.889   0.132   4.107
 9359TIP3    H128018   7.848   0.050   4.134
 9359TIP3    H228019   7.883   0.189   4.183
 9360TIP3   OH228020   4.913   6.550   2.566
 9360TIP3    H128021   4.992   6.577   2.519
 9360TIP3    H228022   4.864   6.631   2.579
 9361TIP3   OH228023   1.943   7.411   0.761
 9361TIP3    H128024   1.983   7.332   0.725
 9361TIP3    H228025   2.015   7.458   0.802
 9362TIP3   OH228026   3.526   2.078   2.590
 9362TIP3    H128027   3.571   1.997   2.565
 9362TIP3    H228028   3.463   2.051   2.656
 9363TIP3   OH228029   1.016   1.328   6.854
 9363TIP3    H128030   0.943   1.308   6.913
 9363TIP3    H228031   0.978   1.323   6.767
 9364TIP3   OH228032   5.835   4.603   0.186
 9364TIP3    H128033   5.893   4.678   0.198
 9364TIP3    H228034   5.819   4.572   0.275
 9365TIP3   OH228035   5.214   0.500   2.200
 9365TIP3    H128036   5.194   0.462   2.114
 9365TIP3    H228037   5.298   0.462   2.224
 9366TIP3   OH228038   6.784   7.739   1.944
 9366TIP3    H128039   6.710   7.689   1.976
 9366TIP3    H228040   6.818   7.785   2.021
 9367TIP3   OH228041   4.861   4.527   2.916
 9367TIP3    H128042   4.841   4.441   2.952
 9367TIP3    H228043   4.877   4.511   2.823
 9368TIP3   OH228044   1.243   5.122   4.280
 9368TIP3    H128045   1.196   5.171   4.213
 9368TIP3    H228046   1.330   5.107   4.242
 9369TIP3   OH228047   2.618   7.747   0.315
 9369TIP3    H128048   2.576   7.828   0.289
 9369TIP3    H228049   2.559   7.709   0.381
 9370TIP3   OH228050   2.852   2.944   4.522
 9370TIP3    H128051   2.925   2.900   4.565
 9370TIP3    H228052   2.859   3.035   4.549
 9371TIP3   OH228053   6.419   6.120   6.269
 9371TIP3    H128054   6.351   6.142   6.206
 9371TIP3    H228055   6.487   6.076   6.218
 9372TIP3   OH228056   2.922   1.301   3.690
 9372TIP3    H128057   2.897   1.313   3.598
 9372TIP3    H228058   2.867   1.362   3.738
 9373TIP3   OH228059   7.966   5.789   2.864
 9373TIP3    H128060   7.901   5.831   2.808
 9373TIP3    H228061   8.016   5.862   2.901
 9374TIP3   OH228062   5.324   3.876   0.463
 9374TIP3    H128063   5.308   3.794   0.510
 9374TIP3    H228064   5.238   3.917   0.458
 9375TIP3   OH228065   5.990   5.920   0.695
 9375TIP3    H128066   6.035   5.989   0.646
 9375TIP3    H228067   5.897   5.937   0.680
 9376TIP3   OH228068   4.520   7.749   4.591
 9376TIP3    H128069   4.527   7.806   4.514
 9376TIP3    H228070   4.568   7.670   4.566
 9377TIP3   OH228071   0.907   0.267   0.279
 9377TIP3    H128072   0.875   0.312   0.200
 9377TIP3    H228073   0.994   0.305   0.295
 9378TIP3   OH228074   4.760   0.765   4.757
 9378TIP3    H128075   4.841   0.721   4.782
 9378TIP3    H228076   4.784   0.817   4.680
 9379TIP3   OH228077   6.037   7.797   1.278
 9379TIP3    H128078   5.947   7.829   1.286
 9379TIP3    H228079   6.039   7.750   1.194
 9380TIP3   OH228080   4.254   5.815   3.707
 9380TIP3    H128081   4.322   5.858   3.759
 9380TIP3    H228082   4.281   5.723   3.705
 9381TIP3   OH228083   3.057   2.850   4.938
 9381TIP3    H128084   3.050   2.831   5.031
 9381TIP3    H228085   2.980   2.904   4.919
 9382TIP3   OH228086   1.082   6.414   5.316
 9382TIP3    H128087   1.107   6.506   5.309
 9382TIP3    H228088   1.154   6.373   5.364
 9383TIP3   OH228089   0.362   1.967   4.291
 9383TIP3    H128090   0.323   2.054   4.281
 9383TIP3    H228091   0.446   1.983   4.334
 9384TIP3   OH228092   1.718   7.256   5.513
 9384TIP3    H128093   1.686   7.327   5.569
 9384TIP3    H228094   1.790   7.217   5.563
 9385TIP3   OH228095   6.559   4.673   6.154
 9385TIP3    H128096   6.619   4.688   6.081
 9385TIP3    H228097   6.514   4.757   6.165
 9386TIP3   OH228098   4.355   5.199   2.463
 9386TIP3    H128099   4.348   5.256   2.539
 9386TIP3    H228100   4.330   5.113   2.495
 9387TIP3   OH228101   3.764   1.404   5.648
 9387TIP3    H128102   3.672   1.390   5.624
 9387TIP3    H228103   3.769   1.376   5.740
 9388TIP3   OH228104   1.426   7.484   3.328
 9388TIP3    H128105   1.362   7.551   3.352
 9388TIP3    H228106   1.430   7.426   3.404
 9389TIP3   OH228107   1.952   1.385   3.344
 9389TIP3    H128108   1.874   1.410   3.394
 9389TIP3    H228109   2.016   1.359   3.411
 9390TIP3   OH228110   0.861   7.634   1.409
 9390TIP3    H128111   0.843   7.727   1.425
 9390TIP3    H228112   0.834   7.590   1.490
 9391TIP3   OH228113   5.910   3.370   0.321
 9391TIP3    H128114   5.828   3.363   0.273
 9391TIP3    H228115   5.904   3.302   0.388
 9392TIP3   OH228116   3.992   4.486   3.554
 9392TIP3    H128117   4.011   4.572   3.591
 9392TIP3    H228118   4.073   4.459   3.511
 9393TIP3   OH228119   2.563   7.763   6.376
 9393TIP3    H128120   2.526   7.823   6.311
 9393TIP3    H228121   2.657   7.781   6.374
 9394TIP3   OH228122   4.676   0.873   0.338
 9394TIP3    H128123   4.689   0.779   0.348
 9394TIP3    H228124   4.599   0.893   0.392
 9395TIP3   OH228125   2.285   1.267   6.264
 9395TIP3    H128126   2.261   1.359   6.249
 9395TIP3    H228127   2.296   1.261   6.359
 9396TIP3   OH228128   2.411   5.330   3.551
 9396TIP3    H128129   2.412   5.247   3.599
 9396TIP3    H228130   2.318   5.352   3.543
 9397TIP3   OH228131   6.305   4.835   5.155
 9397TIP3    H128132   6.330   4.794   5.072
 9397TIP3    H228133   6.384   4.832   5.208
 9398TIP3   OH228134   0.878   7.165   5.685
 9398TIP3    H128135   0.830   7.127   5.611
 9398TIP3    H228136   0.888   7.257   5.662
 9399TIP3   OH228137   5.851   1.832   6.499
 9399TIP3    H128138   5.866   1.926   6.498
 9399TIP3    H228139   5.793   1.818   6.574
 9400TIP3   OH228140   4.885   1.203   1.782
 9400TIP3    H128141   4.904   1.297   1.782
 9400TIP3    H228142   4.859   1.184   1.873
 9401TIP3   OH228143   3.626   5.441   6.491
 9401TIP3    H128144   3.629   5.447   6.586
 9401TIP3    H228145   3.647   5.529   6.460
 9402TIP3   OH228146   4.976   5.387   3.947
 9402TIP3    H128147   4.916   5.313   3.951
 9402TIP3    H228148   5.041   5.369   4.015
 9403TIP3   OH228149   1.563   1.515   1.810
 9403TIP3    H128150   1.639   1.456   1.815
 9403TIP3    H228151   1.594   1.589   1.759
 9404TIP3   OH228152   2.058   3.075   0.630
 9404TIP3    H128153   1.970   3.039   0.641
 9404TIP3    H228154   2.103   3.051   0.711
 9405TIP3   OH228155   1.393   5.693   5.220
 9405TIP3    H128156   1.420   5.742   5.142
 9405TIP3    H228157   1.370   5.759   5.284
 9406TIP3   OH228158   6.939   1.764   6.177
 9406TIP3    H128159   6.935   1.689   6.236
 9406TIP3    H228160   6.899   1.836   6.226
 9407TIP3   OH228161   0.504   0.574   6.240
 9407TIP3    H128162   0.553   0.615   6.169
 9407TIP3    H228163   0.544   0.487   6.250
 9408TIP3   OH228164   6.961   6.788   3.957
 9408TIP3    H128165   6.967   6.883   3.965
 9408TIP3    H228166   6.971   6.771   3.863
 9409TIP3   OH228167   4.511   1.399   1.915
 9409TIP3    H128168   4.550   1.472   1.867
 9409TIP3    H228169   4.426   1.385   1.874
 9410TIP3   OH228170   6.138   6.523   1.284
 9410TIP3    H128171   6.208   6.482   1.334
 9410TIP3    H228172   6.064   6.526   1.345
 9411TIP3   OH228173   4.679   6.477   6.042
 9411TIP3    H128174   4.689   6.566   6.010
 9411TIP3    H228175   4.607   6.482   6.105
 9412TIP3   OH228176   5.422   2.386   3.066
 9412TIP3    H128177   5.400   2.479   3.070
 9412TIP3    H228178   5.373   2.353   2.991
 9413TIP3   OH228179   6.276   6.898   4.090
 9413TIP3    H128180   6.322   6.973   4.053
 9413TIP3    H228181   6.200   6.937   4.134
 9414TIP3   OH228182   7.081   5.509   5.501
 9414TIP3    H128183   7.031   5.501   5.582
 9414TIP3    H228184   7.128   5.426   5.492
 9415TIP3   OH228185   7.931   3.288   5.824
 9415TIP3    H128186   7.894   3.314   5.740
 9415TIP3    H228187   7.979   3.207   5.806
 9416TIP3   OH228188   4.026   0.348   5.890
 9416TIP3    H128189   4.003   0.329   5.981
 9416TIP3    H228190   4.093   0.415   5.896
 9417TIP3   OH228191   2.883   3.202   3.662
 9417TIP3    H128192   2.859   3.241   3.746
 9417TIP3    H228193   2.814   3.232   3.602
 9418TIP3   OH228194   2.464   1.628   1.019
 9418TIP3    H128195   2.513   1.560   0.973
 9418TIP3    H228196   2.466   1.704   0.962
 9419TIP3   OH228197   4.811   3.049   3.308
 9419TIP3    H128198   4.726   3.024   3.344
 9419TIP3    H228199   4.849   2.967   3.277
 9420TIP3   OH228200   6.726   0.290   5.217
 9420TIP3    H128201   6.672   0.331   5.285
 9420TIP3    H228202   6.776   0.363   5.179
 9421TIP3   OH228203   1.822  -0.019   2.532
 9421TIP3    H128204   1.828   0.074   2.511
 9421TIP3    H228205   1.788  -0.022   2.621
 9422TIP3   OH228206   2.749   0.894   6.125
 9422TIP3    H128207   2.784   0.916   6.039
 9422TIP3    H228208   2.677   0.834   6.107
 9423TIP3   OH228209   7.636   4.572   6.192
 9423TIP3    H128210   7.565   4.636   6.188
 9423TIP3    H228211   7.663   4.572   6.284
 9424TIP3   OH228212   7.350   4.823   2.930
 9424TIP3    H128213   7.399   4.880   2.871
 9424TIP3    H228214   7.418   4.777   2.981
 9425TIP3   OH228215   2.977   6.229   0.553
 9425TIP3    H128216   2.996   6.239   0.460
 9425TIP3    H228217   2.883   6.245   0.559
 9426TIP3   OH228218   1.849   1.409   5.930
 9426TIP3    H128219   1.886   1.371   5.850
 9426TIP3    H228220   1.921   1.459   5.968
 9427TIP3   OH228221   6.098   5.707   3.338
 9427TIP3    H128222   6.093   5.788   3.390
 9427TIP3    H228223   6.085   5.736   3.248
 9428TIP3   OH228224   0.291   6.124   4.013
 9428TIP3    H128225   0.205   6.124   4.055
 9428TIP3    H228226   0.322   6.034   4.022
 9429TIP3   OH228227   6.820   0.878   0.575
 9429TIP3    H128228   6.726   0.859   0.581
 9429TIP3    H228229   6.849   0.889   0.665
 9430TIP3   OH228230   5.753   0.612   0.586
 9430TIP3    H128231   5.755   0.682   0.521
 9430TIP3    H228232   5.838   0.617   0.629
 9431TIP3   OH228233   8.049   6.482   2.947
 9431TIP3    H128234   8.106   6.543   2.993
 9431TIP3    H228235   8.108   6.419   2.906
 9432TIP3   OH228236   0.888   2.505   5.043
 9432TIP3    H128237   0.897   2.471   4.954
 9432TIP3    H228238   0.795   2.492   5.064
 9433TIP3   OH228239   2.701   6.543   6.042
 9433TIP3    H128240   2.635   6.582   5.984
 9433TIP3    H228241   2.753   6.617   6.072
 9434TIP3   OH228242   6.523   5.038   4.619
 9434TIP3    H128243   6.555   5.055   4.708
 9434TIP3    H228244   6.590   4.983   4.580
 9435TIP3   OH228245   8.025   2.767   5.332
 9435TIP3    H128246   8.045   2.822   5.257
 9435TIP3    H228247   7.929   2.762   5.335
 9436TIP3   OH228248   5.530   2.059   2.681
 9436TIP3    H128249   5.622   2.082   2.680
 9436TIP3    H228250   5.484   2.142   2.664
 9437TIP3   OH228251   2.551   0.520   5.990
 9437TIP3    H128252   2.486   0.586   6.015
 9437TIP3    H228253   2.619   0.570   5.944
 9438TIP3   OH228254   7.167   4.116   6.081
 9438TIP3    H128255   7.229   4.051   6.048
 9438TIP3    H228256   7.217   4.166   6.146
 9439TIP3   OH228257   4.869   7.696   2.449
 9439TIP3    H128258   4.822   7.736   2.522
 9439TIP3    H228259   4.917   7.769   2.409
 9440TIP3   OH228260   0.591   5.189   5.638
 9440TIP3    H128261   0.577   5.107   5.590
 9440TIP3    H228262   0.551   5.256   5.582
 9441TIP3   OH228263   7.890   4.627   1.839
 9441TIP3    H128264   7.880   4.696   1.904
 9441TIP3    H228265   7.813   4.635   1.783
 9442TIP3   OH228266   4.254   0.599   6.565
 9442TIP3    H128267   4.260   0.666   6.498
 9442TIP3    H228268   4.275   0.645   6.647
 9443TIP3   OH228269   4.496   2.251   5.781
 9443TIP3    H128270   4.421   2.215   5.732
 9443TIP3    H228271   4.565   2.186   5.770
 9444TIP3   OH228272   3.659   7.150   1.246
 9444TIP3    H128273   3.581   7.178   1.199
 9444TIP3    H228274   3.664   7.210   1.321
 9445TIP3   OH228275   5.074   0.728   3.926
 9445TIP3    H128276   5.079   0.684   3.842
 9445TIP3    H228277   5.037   0.663   3.985
 9446TIP3   OH228278   2.868   0.874   3.278
 9446TIP3    H128279   2.900   0.800   3.227
 9446TIP3    H228280   2.803   0.835   3.337
 9447TIP3   OH228281   5.499   5.013   4.624
 9447TIP3    H128282   5.473   5.104   4.635
 9447TIP3    H228283   5.594   5.013   4.637
 9448TIP3   OH228284   3.514   6.289   1.210
 9448TIP3    H128285   3.475   6.213   1.167
 9448TIP3    H228286   3.509   6.269   1.303
 9449TIP3   OH228287   3.408   6.434   3.571
 9449TIP3    H128288   3.333   6.428   3.512
 9449TIP3    H228289   3.395   6.363   3.634
 9450TIP3   OH228290   0.979   5.465   3.694
 9450TIP3    H128291   0.941   5.496   3.612
 9450TIP3    H228292   0.974   5.541   3.753
 9451TIP3   OH228293   0.756   2.917   0.109
 9451TIP3    H128294   0.827   2.954   0.056
 9451TIP3    H228295   0.756   2.824   0.088
 9452TIP3   OH228296   0.569   0.083   2.479
 9452TIP3    H128297   0.609   0.059   2.563
 9452TIP3    H228298   0.475   0.076   2.494
 9453TIP3   OH228299   4.927   6.194   3.147
 9453TIP3    H128300   4.999   6.148   3.190
 9453TIP3    H228301   4.960   6.282   3.132
 9454TIP3   OH228302   3.984   0.942   5.605
 9454TIP3    H128303   3.969   1.033   5.580
 9454TIP3    H228304   3.986   0.943   5.701
 9455TIP3   OH228305   8.373   4.058   4.334
 9455TIP3    H128306   8.314   4.104   4.274
 9455TIP3    H228307   8.314   4.006   4.389
 9456TIP3   OH228308   4.737   2.271   3.542
 9456TIP3    H128309   4.704   2.262   3.452
 9456TIP3    H228310   4.740   2.365   3.557
 9457TIP3   OH228311   1.572   5.468   0.489
 9457TIP3    H128312   1.494   5.508   0.450
 9457TIP3    H228313   1.546   5.378   0.508
 9458TIP3   OH228314   0.646   1.371   0.860
 9458TIP3    H128315   0.625   1.435   0.792
 9458TIP3    H228316   0.615   1.287   0.825
 9459TIP3   OH228317   6.993   1.820   5.385
 9459TIP3    H128318   7.062   1.779   5.333
 9459TIP3    H228319   7.010   1.792   5.475
 9460TIP3   OH228320   1.433   4.251   0.513
 9460TIP3    H128321   1.357   4.206   0.552
 9460TIP3    H228322   1.497   4.181   0.498
 9461TIP3   OH228323   6.130   1.159   0.234
 9461TIP3    H128324   6.036   1.161   0.246
 9461TIP3    H228325   6.143   1.186   0.143
 9462TIP3   OH228326   4.556   6.491   4.317
 9462TIP3    H128327   4.486   6.550   4.289
 9462TIP3    H228328   4.617   6.490   4.243
 9463TIP3   OH228329   7.390   6.523   4.312
 9463TIP3    H128330   7.397   6.566   4.227
 9463TIP3    H228331   7.467   6.552   4.361
 9464TIP3   OH228332   3.131   0.585   2.645
 9464TIP3    H128333   3.062   0.586   2.711
 9464TIP3    H228334   3.117   0.503   2.597
 9465TIP3   OH228335   5.791   6.268   2.221
 9465TIP3    H128336   5.770   6.219   2.142
 9465TIP3    H228337   5.848   6.338   2.191
 9466TIP3   OH228338   7.425   2.539   2.975
 9466TIP3    H128339   7.419   2.589   2.894
 9466TIP3    H228340   7.517   2.549   3.003
 9467TIP3   OH228341   4.598   4.430   1.854
 9467TIP3    H128342   4.659   4.394   1.918
 9467TIP3    H228343   4.645   4.424   1.771
 9468TIP3   OH228344   2.684   5.237   0.615
 9468TIP3    H128345   2.637   5.222   0.532
 9468TIP3    H228346   2.770   5.271   0.588
 9469TIP3   OH228347   6.534   0.286   3.115
 9469TIP3    H128348   6.554   0.273   3.208
 9469TIP3    H228349   6.476   0.213   3.093
 9470TIP3   OH228350   3.662   4.876   0.857
 9470TIP3    H128351   3.673   4.872   0.762
 9470TIP3    H228352   3.731   4.936   0.886
 9471TIP3   OH228353   2.015   2.919   0.210
 9471TIP3    H128354   1.933   2.920   0.260
 9471TIP3    H228355   2.076   2.872   0.266
 9472TIP3   OH228356   4.432   4.015   6.593
 9472TIP3    H128357   4.527   4.030   6.587
 9472TIP3    H228358   4.413   3.950   6.525
 9473TIP3   OH228359   3.326   3.308   0.862
 9473TIP3    H128360   3.366   3.256   0.792
 9473TIP3    H228361   3.333   3.399   0.831
 9474TIP3   OH228362   5.091   2.523   4.281
 9474TIP3    H128363   5.035   2.449   4.304
 9474TIP3    H228364   5.087   2.581   4.357
 9475TIP3   OH228365   3.820   2.558   0.383
 9475TIP3    H128366   3.883   2.584   0.316
 9475TIP3    H228367   3.736   2.588   0.349
 9476TIP3   OH228368   2.574   5.222   6.011
 9476TIP3    H128369   2.559   5.140   5.964
 9476TIP3    H228370   2.488   5.245   6.047
 9477TIP3   OH228371   3.467   7.523   4.036
 9477TIP3    H128372   3.381   7.528   4.078
 9477TIP3    H228373   3.530   7.536   4.108
 9478TIP3   OH228374   7.145   0.204   6.122
 9478TIP3    H128375   7.076   0.194   6.056
 9478TIP3    H228376   7.224   0.171   6.079
 9479TIP3   OH228377   6.431   5.421   0.102
 9479TIP3    H128378   6.368   5.470   0.156
 9479TIP3    H228379   6.515   5.463   0.121
 9480TIP3   OH228380   0.479   5.942   5.180
 9480TIP3    H128381   0.490   5.937   5.275
 9480TIP3    H228382   0.530   6.019   5.154
 9481TIP3   OH228383   1.555   3.528   1.482
 9481TIP3    H128384   1.580   3.483   1.563
 9481TIP3    H228385   1.461   3.546   1.494
 9482TIP3   OH228386   1.934   4.846   4.266
 9482TIP3    H128387   1.899   4.846   4.355
 9482TIP3    H228388   1.860   4.871   4.211
 9483TIP3   OH228389   2.214   4.752   2.581
 9483TIP3    H128390   2.300   4.785   2.552
 9483TIP3    H228391   2.151   4.797   2.523
 9484TIP3   OH228392   1.589   1.828   6.810
 9484TIP3    H128393   1.549   1.836   6.897
 9484TIP3    H228394   1.515   1.817   6.751
 9485TIP3   OH228395   5.256   0.646   4.338
 9485TIP3    H128396   5.328   0.708   4.330
 9485TIP3    H228397   5.283   0.570   4.287
 9486TIP3   OH228398   3.532   1.971   3.199
 9486TIP3    H128399   3.539   1.951   3.106
 9486TIP3    H228400   3.558   2.063   3.206
 9487TIP3   OH228401   3.333   0.602   0.971
 9487TIP3    H128402   3.385   0.528   1.002
 9487TIP3    H228403   3.247   0.591   1.013
 9488TIP3   OH228404   3.042   0.259   5.562
 9488TIP3    H128405   3.016   0.177   5.604
 9488TIP3    H228406   2.965   0.286   5.512
 9489TIP3   OH228407   2.068   5.928   3.539
 9489TIP3    H128408   2.114   5.845   3.544
 9489TIP3    H228409   2.049   5.951   3.630
 9490TIP3   OH228410   7.437   6.194   6.154
 9490TIP3    H128411   7.472   6.123   6.100
 9490TIP3    H228412   7.515   6.242   6.184
 9491TIP3   OH228413   3.480   6.027   1.736
 9491TIP3    H128414   3.556   6.036   1.793
 9491TIP3    H228415   3.410   5.995   1.794
 9492TIP3   OH228416   8.232   0.110   0.317
 9492TIP3    H128417   8.275   0.114   0.231
 9492TIP3    H228418   8.273   0.035   0.361
 9493TIP3   OH228419   6.614   5.954   3.715
 9493TIP3    H128420   6.608   5.859   3.722
 9493TIP3    H228421   6.552   5.977   3.646
 9494TIP3   OH228422   4.398   5.030   6.023
 9494TIP3    H128423   4.402   4.941   5.989
 9494TIP3    H228424   4.311   5.061   6.001
 9495TIP3   OH228425   0.569   3.716   1.694
 9495TIP3    H128426   0.522   3.706   1.612
 9495TIP3    H228427   0.631   3.644   1.695
 9496TIP3   OH228428   4.132   5.106   6.002
 9496TIP3    H128429   4.088   5.124   5.919
 9496TIP3    H228430   4.078   5.148   6.068
 9497TIP3   OH228431   7.312   7.361   6.398
 9497TIP3    H128432   7.236   7.307   6.377
 9497TIP3    H228433   7.278   7.427   6.459
 9498TIP3   OH228434   2.250   1.592   2.316
 9498TIP3    H128435   2.192   1.665   2.294
 9498TIP3    H228436   2.213   1.557   2.397
 9499TIP3   OH228437   2.101   3.069  -0.014
 9499TIP3    H128438   2.029   3.132  -0.016
 9499TIP3    H228439   2.093   3.026   0.071
 9500TIP3   OH228440   4.704   2.592   6.109
 9500TIP3    H128441   4.655   2.591   6.027
 9500TIP3    H228442   4.770   2.523   6.098
 9501TIP3   OH228443   2.603   4.912   1.711
 9501TIP3    H128444   2.513   4.930   1.738
 9501TIP3    H228445   2.656   4.975   1.760
 9502TIP3   OH228446   3.508   5.183   6.048
 9502TIP3    H128447   3.467   5.175   5.962
 9502TIP3    H228448   3.435   5.178   6.110
 9503TIP3   OH228449   0.186   0.723   3.125
 9503TIP3    H128450   0.204   0.784   3.054
 9503TIP3    H228451   0.161   0.778   3.199
 9504TIP3   OH228452   1.113   5.045   6.861
 9504TIP3    H128453   1.100   5.132   6.824
 9504TIP3    H228454   1.069   4.986   6.801
 9505TIP3   OH228455   0.491   1.257   3.304
 9505TIP3    H128456   0.571   1.254   3.251
 9505TIP3    H228457   0.428   1.304   3.249
 9506TIP3   OH228458   3.127   3.859   0.719
 9506TIP3    H128459   3.086   3.811   0.791
 9506TIP3    H228460   3.090   3.946   0.724
 9507TIP3   OH228461   0.162   5.550   4.618
 9507TIP3    H128462   0.092   5.488   4.598
 9507TIP3    H228463   0.121   5.636   4.605
 9508TIP3   OH228464   7.066   0.768   1.403
 9508TIP3    H128465   7.039   0.860   1.393
 9508TIP3    H228466   6.995   0.718   1.362
 9509TIP3   OH228467   7.430   1.543   3.463
 9509TIP3    H128468   7.504   1.490   3.433
 9509TIP3    H228469   7.469   1.625   3.492
 9510TIP3   OH228470   2.939   1.224   4.275
 9510TIP3    H128471   2.959   1.284   4.347
 9510TIP3    H228472   2.902   1.280   4.207
 9511TIP3   OH228473   0.269   6.027   1.637
 9511TIP3    H128474   0.211   6.030   1.713
 9511TIP3    H228475   0.211   6.017   1.562
 9512TIP3   OH228476   4.292   3.535   3.408
 9512TIP3    H128477   4.214   3.543   3.354
 9512TIP3    H228478   4.337   3.619   3.398
 9513TIP3   OH228479   6.934   3.511   6.350
 9513TIP3    H128480   7.011   3.521   6.294
 9513TIP3    H228481   6.867   3.567   6.311
 9514TIP3   OH228482   5.814   5.297   1.087
 9514TIP3    H128483   5.899   5.286   1.045
 9514TIP3    H228484   5.833   5.338   1.171
 9515TIP3   OH228485   3.968   4.196   0.862
 9515TIP3    H128486   4.051   4.196   0.909
 9515TIP3    H228487   3.949   4.288   0.846
 9516TIP3   OH228488   5.329   3.762   2.826
 9516TIP3    H128489   5.347   3.730   2.915
 9516TIP3    H228490   5.308   3.682   2.776
 9517TIP3   OH228491   4.876   4.462   3.569
 9517TIP3    H128492   4.806   4.397   3.576
 9517TIP3    H228493   4.857   4.508   3.487
 9518TIP3   OH228494   3.973   7.519   5.568
 9518TIP3    H128495   4.061   7.502   5.536
 9518TIP3    H228496   3.950   7.439   5.617
 9519TIP3   OH228497   6.237   7.181   0.963
 9519TIP3    H128498   6.275   7.226   0.888
 9519TIP3    H228499   6.185   7.110   0.925
 9520TIP3   OH228500   3.620   4.035   4.490
 9520TIP3    H128501   3.629   3.993   4.576
 9520TIP3    H228502   3.574   3.970   4.437
 9521TIP3   OH228503   3.958   2.174   0.083
 9521TIP3    H128504   3.875   2.185   0.036
 9521TIP3    H228505   4.015   2.127   0.022
 9522TIP3   OH228506   4.305   2.422   4.796
 9522TIP3    H128507   4.268   2.510   4.797
 9522TIP3    H228508   4.393   2.432   4.832
 9523TIP3   OH228509   1.152   1.754   2.170
 9523TIP3    H128510   1.151   1.831   2.227
 9523TIP3    H228511   1.230   1.766   2.115
 9524TIP3   OH228512   4.645   7.776   0.706
 9524TIP3    H128513   4.687   7.695   0.735
 9524TIP3    H228514   4.717   7.831   0.674
 9525TIP3   OH228515   0.671   5.398   4.447
 9525TIP3    H128516   0.657   5.308   4.475
 9525TIP3    H228517   0.583   5.433   4.435
 9526TIP3   OH228518   1.060   6.046   2.874
 9526TIP3    H128519   1.123   6.090   2.817
 9526TIP3    H228520   1.004   6.116   2.907
 9527TIP3   OH228521   2.473   0.703   1.369
 9527TIP3    H128522   2.565   0.719   1.389
 9527TIP3    H228523   2.470   0.693   1.274
 9528TIP3   OH228524   3.909   1.938   4.639
 9528TIP3    H128525   3.838   1.928   4.703
 9528TIP3    H228526   3.868   1.920   4.554
 9529TIP3   OH228527   7.178   4.828   3.178
 9529TIP3    H128528   7.185   4.803   3.085
 9529TIP3    H228529   7.269   4.843   3.205
 9530TIP3   OH228530   7.445   4.729   1.675
 9530TIP3    H128531   7.422   4.637   1.663
 9530TIP3    H228532   7.532   4.738   1.636
 9531TIP3   OH228533   3.402   6.495   2.555
 9531TIP3    H128534   3.406   6.418   2.498
 9531TIP3    H228535   3.493   6.512   2.579
 9532TIP3   OH228536   6.504   7.794   4.874
 9532TIP3    H128537   6.419   7.806   4.917
 9532TIP3    H228538   6.492   7.834   4.788
 9533TIP3   OH228539   2.240   4.601   5.505
 9533TIP3    H128540   2.306   4.543   5.466
 9533TIP3    H228541   2.276   4.689   5.494
 9534TIP3   OH228542   4.854   0.263   4.777
 9534TIP3    H128543   4.857   0.285   4.870
 9534TIP3    H228544   4.809   0.337   4.736
 9535TIP3   OH228545   0.197   0.767   0.452
 9535TIP3    H128546   0.135   0.832   0.418
 9535TIP3    H228547   0.142   0.696   0.485
 9536TIP3   OH228548   8.414   5.127   4.069
 9536TIP3    H128549   8.390   5.210   4.027
 9536TIP3    H228550   8.353   5.120   4.143
 9537TIP3   OH228551   1.967   7.528   6.493
 9537TIP3    H128552   2.049   7.482   6.479
 9537TIP3    H228553   1.962   7.540   6.588
 9538TIP3   OH228554   2.517   5.910   0.322
 9538TIP3    H128555   2.599   5.860   0.321
 9538TIP3    H228556   2.458   5.859   0.266
 9539TIP3   OH228557   3.665   5.337   3.509
 9539TIP3    H128558   3.579   5.355   3.545
 9539TIP3    H228559   3.651   5.264   3.448
 9540TIP3   OH228560   1.639   6.701   2.641
 9540TIP3    H128561   1.566   6.742   2.688
 9540TIP3    H228562   1.674   6.771   2.587
 9541TIP3   OH228563   1.298   1.011   2.703
 9541TIP3    H128564   1.366   1.028   2.769
 9541TIP3    H228565   1.347   0.988   2.624
 9542TIP3   OH228566   6.833   3.488   4.997
 9542TIP3    H128567   6.757   3.531   4.959
 9542TIP3    H228568   6.894   3.478   4.924
 9543TIP3   OH228569   4.867   1.340   1.040
 9543TIP3    H128570   4.906   1.310   0.958
 9543TIP3    H228571   4.776   1.358   1.018
 9544TIP3   OH228572   4.119   0.486   4.665
 9544TIP3    H128573   4.051   0.464   4.729
 9544TIP3    H228574   4.198   0.497   4.717
 9545TIP3   OH228575   6.030   7.211   1.405
 9545TIP3    H128576   6.001   7.287   1.456
 9545TIP3    H228577   5.972   7.140   1.432
 9546TIP3   OH228578   3.832   1.464   2.716
 9546TIP3    H128579   3.813   1.411   2.639
 9546TIP3    H228580   3.918   1.503   2.697
 9547TIP3   OH228581   7.934   6.630   3.471
 9547TIP3    H128582   7.997   6.586   3.414
 9547TIP3    H228583   7.908   6.708   3.422
 9548TIP3   OH228584   2.555   6.827   5.299
 9548TIP3    H128585   2.627   6.839   5.361
 9548TIP3    H228586   2.488   6.779   5.349
 9549TIP3   OH228587   7.190   7.521   3.607
 9549TIP3    H128588   7.096   7.511   3.592
 9549TIP3    H228589   7.231   7.500   3.523
 9550TIP3   OH228590   6.256   2.023   0.686
 9550TIP3    H128591   6.309   2.101   0.673
 9550TIP3    H228592   6.311   1.951   0.653
 9551TIP3   OH228593   1.371   1.638   2.785
 9551TIP3    H128594   1.296   1.612   2.732
 9551TIP3    H228595   1.389   1.728   2.758
 9552TIP3   OH228596   7.749   6.092   2.060
 9552TIP3    H128597   7.708   6.074   2.144
 9552TIP3    H228598   7.687   6.060   1.995
 9553TIP3   OH228599   6.349   1.375   1.455
 9553TIP3    H128600   6.281   1.329   1.505
 9553TIP3    H228601   6.427   1.369   1.509
 9554TIP3   OH228602   7.567   7.781   6.685
 9554TIP3    H128603   7.600   7.847   6.624
 9554TIP3    H228604   7.546   7.706   6.629
 9555TIP3   OH228605   5.771   0.017   5.334
 9555TIP3    H128606   5.853  -0.011   5.377
 9555TIP3    H228607   5.729   0.074   5.398
 9556TIP3   OH228608   6.256   5.555   0.289
 9556TIP3    H128609   6.245   5.637   0.336
 9556TIP3    H228610   6.217   5.489   0.346
 9557TIP3   OH228611   3.673   3.090   0.526
 9557TIP3    H128612   3.677   3.101   0.621
 9557TIP3    H228613   3.629   3.006   0.513
 9558TIP3   OH228614   3.930   5.546   4.119
 9558TIP3    H128615   3.942   5.605   4.044
 9558TIP3    H228616   3.867   5.481   4.088
 9559TIP3   OH228617   5.419   7.161   0.335
 9559TIP3    H128618   5.409   7.240   0.282
 9559TIP3    H228619   5.393   7.090   0.276
 9560TIP3   OH228620   7.668   5.231   2.684
 9560TIP3    H128621   7.735   5.299   2.689
 9560TIP3    H228622   7.712   5.151   2.710
 9561TIP3   OH228623   0.400   5.423   4.658
 9561TIP3    H128624   0.314   5.464   4.648
 9561TIP3    H228625   0.385   5.330   4.640
 9562TIP3   OH228626   2.551   1.169   4.542
 9562TIP3    H128627   2.556   1.074   4.535
 9562TIP3    H228628   2.576   1.201   4.455
 9563TIP3   OH228629   0.850   1.941   3.909
 9563TIP3    H128630   0.796   2.014   3.937
 9563TIP3    H228631   0.805   1.863   3.942
 9564TIP3   OH228632   0.298   3.009   4.241
 9564TIP3    H128633   0.375   2.973   4.196
 9564TIP3    H228634   0.273   2.941   4.303
 9565TIP3   OH228635   2.459   2.885   2.748
 9565TIP3    H128636   2.545   2.926   2.745
 9565TIP3    H228637   2.468   2.815   2.813
 9566TIP3   OH228638   3.059   5.106   2.660
 9566TIP3    H128639   3.145   5.067   2.677
 9566TIP3    H228640   3.057   5.184   2.715
 9567TIP3   OH228641   1.354   5.277   2.383
 9567TIP3    H128642   1.337   5.369   2.360
 9567TIP3    H228643   1.289   5.227   2.334
 9568TIP3   OH228644   5.951   5.539   0.231
 9568TIP3    H128645   5.911   5.624   0.249
 9568TIP3    H228646   6.045   5.554   0.245
 9569TIP3   OH228647   1.820   2.651   1.146
 9569TIP3    H128648   1.828   2.563   1.109
 9569TIP3    H228649   1.902   2.664   1.193
 9570TIP3   OH228650   7.180   4.151   3.054
 9570TIP3    H128651   7.132   4.140   3.137
 9570TIP3    H228652   7.272   4.144   3.079
 9571TIP3   OH228653   3.438   6.451   5.030
 9571TIP3    H128654   3.436   6.534   4.983
 9571TIP3    H228655   3.479   6.390   4.969
 9572TIP3   OH228656   5.808   3.945   4.786
 9572TIP3    H128657   5.816   3.981   4.874
 9572TIP3    H228658   5.869   3.996   4.733
 9573TIP3   OH228659   6.893   1.169   0.180
 9573TIP3    H128660   6.816   1.133   0.137
 9573TIP3    H228661   6.881   1.149   0.272
 9574TIP3   OH228662   0.704   1.803   4.981
 9574TIP3    H128663   0.673   1.721   5.021
 9574TIP3    H228664   0.675   1.872   5.041
 9575TIP3   OH228665   4.629   6.590   2.340
 9575TIP3    H128666   4.634   6.589   2.244
 9575TIP3    H228667   4.679   6.668   2.365
 9576TIP3   OH228668   6.512   6.320   2.038
 9576TIP3    H128669   6.550   6.388   2.093
 9576TIP3    H228670   6.507   6.359   1.951
 9577TIP3   OH228671   3.206   2.823   5.763
 9577TIP3    H128672   3.262   2.866   5.827
 9577TIP3    H228673   3.254   2.743   5.739
 9578TIP3   OH228674   6.524   2.814   0.920
 9578TIP3    H128675   6.602   2.851   0.961
 9578TIP3    H228676   6.542   2.721   0.913
 9579TIP3   OH228677   1.342   3.054   1.746
 9579TIP3    H128678   1.438   3.056   1.740
 9579TIP3    H228679   1.324   2.979   1.803
 9580TIP3   OH228680   0.538   4.637   3.877
 9580TIP3    H128681   0.466   4.608   3.821
 9580TIP3    H228682   0.568   4.557   3.920
 9581TIP3   OH228683   4.583   3.537   0.963
 9581TIP3    H128684   4.647   3.503   0.901
 9581TIP3    H228685   4.616   3.512   1.049
 9582TIP3   OH228686   2.345   6.768   5.921
 9582TIP3    H128687   2.413   6.702   5.904
 9582TIP3    H228688   2.297   6.774   5.839
 9583TIP3   OH228689   4.168   3.666   6.045
 9583TIP3    H128690   4.246   3.626   6.084
 9583TIP3    H228691   4.105   3.672   6.118
 9584TIP3   OH228692   0.947   6.109   3.899
 9584TIP3    H128693   0.973   6.148   3.816
 9584TIP3    H228694   0.869   6.159   3.925
 9585TIP3   OH228695   6.154   0.391   0.337
 9585TIP3    H128696   6.147   0.401   0.243
 9585TIP3    H228697   6.118   0.472   0.373
 9586TIP3   OH228698   5.577   6.371   1.280
 9586TIP3    H128699   5.498   6.342   1.325
 9586TIP3    H228700   5.577   6.466   1.290
 9587TIP3   OH228701   3.603   4.615   5.660
 9587TIP3    H128702   3.612   4.534   5.710
 9587TIP3    H228703   3.666   4.675   5.700
 9588TIP3   OH228704   6.386   3.829   5.020
 9588TIP3    H128705   6.365   3.905   4.965
 9588TIP3    H228706   6.456   3.784   4.972
 9589TIP3   OH228707   0.375   7.614   1.107
 9589TIP3    H128708   0.388   7.535   1.055
 9589TIP3    H228709   0.463   7.647   1.124
 9590TIP3   OH228710   2.276   2.308   1.697
 9590TIP3    H128711   2.229   2.367   1.756
 9590TIP3    H228712   2.276   2.223   1.743
 9591TIP3   OH228713   4.046   2.030   2.231
 9591TIP3    H128714   4.032   1.943   2.270
 9591TIP3    H228715   4.021   2.019   2.139
 9592TIP3   OH228716   3.907   5.239   5.771
 9592TIP3    H128717   3.939   5.182   5.702
 9592TIP3    H228718   3.822   5.270   5.739
 9593TIP3   OH228719   7.176   3.583   5.302
 9593TIP3    H128720   7.207   3.495   5.282
 9593TIP3    H228721   7.218   3.639   5.237
 9594TIP3   OH228722   4.610   2.340   4.025
 9594TIP3    H128723   4.530   2.290   4.033
 9594TIP3    H228724   4.617   2.359   3.931
 9595TIP3   OH228725   4.294   0.081   6.553
 9595TIP3    H128726   4.229   0.063   6.485
 9595TIP3    H228727   4.247   0.132   6.619
 9596TIP3   OH228728   0.139   3.000   0.326
 9596TIP3    H128729   0.151   3.065   0.256
 9596TIP3    H228730   0.079   2.936   0.289
 9597TIP3   OH228731   4.020   1.029   0.379
 9597TIP3    H128732   4.035   0.988   0.293
 9597TIP3    H228733   3.945   1.087   0.365
 9598TIP3   OH228734   2.160   2.242   0.256
 9598TIP3    H128735   2.241   2.292   0.249
 9598TIP3    H228736   2.170   2.191   0.336
 9599TIP3   OH228737   0.186   1.281   5.162
 9599TIP3    H128738   0.270   1.301   5.202
 9599TIP3    H228739   0.178   1.186   5.167
 9600TIP3   OH228740   8.083   1.639   2.225
 9600TIP3    H128741   8.158   1.607   2.174
 9600TIP3    H228742   8.037   1.698   2.166
 9601TIP3   OH228743   5.150   1.295   3.250
 9601TIP3    H128744   5.118   1.215   3.210
 9601TIP3    H228745   5.245   1.286   3.250
 9602TIP3   OH228746   3.140   3.700   5.228
 9602TIP3    H128747   3.134   3.724   5.321
 9602TIP3    H228748   3.200   3.626   5.226
 9603TIP3   OH228749   2.250   5.195   1.082
 9603TIP3    H128750   2.175   5.141   1.109
 9603TIP3    H228751   2.266   5.252   1.157
 9604TIP3   OH228752   0.299   4.616   4.530
 9604TIP3    H128753   0.280   4.524   4.512
 9604TIP3    H228754   0.328   4.618   4.621
 9605TIP3   OH228755   7.328   7.509   2.457
 9605TIP3    H128756   7.399   7.492   2.395
 9605TIP3    H228757   7.288   7.590   2.426
 9606TIP3   OH228758   3.494   7.746   2.079
 9606TIP3    H128759   3.551   7.821   2.063
 9606TIP3    H228760   3.501   7.694   1.999
 9607TIP3   OH228761   3.217   4.500   4.740
 9607TIP3    H128762   3.266   4.572   4.702
 9607TIP3    H228763   3.207   4.437   4.669
 9608TIP3   OH228764   4.813   6.315   5.544
 9608TIP3    H128765   4.798   6.397   5.591
 9608TIP3    H228766   4.818   6.249   5.612
 9609TIP3   OH228767   7.305   1.867   0.474
 9609TIP3    H128768   7.353   1.814   0.538
 9609TIP3    H228769   7.365   1.939   0.454
 9610TIP3   OH228770   1.659   4.909   5.457
 9610TIP3    H128771   1.737   4.908   5.512
 9610TIP3    H228772   1.602   4.976   5.496
 9611TIP3   OH228773   6.302   7.442   2.794
 9611TIP3    H128774   6.234   7.433   2.727
 9611TIP3    H228775   6.361   7.509   2.759
 9612TIP3   OH228776   0.197   5.632   5.459
 9612TIP3    H128777   0.191   5.574   5.383
 9612TIP3    H228778   0.189   5.720   5.422
 9613TIP3   OH228779   3.175   1.472   2.544
 9613TIP3    H128780   3.160   1.439   2.455
 9613TIP3    H228781   3.255   1.429   2.572
 9614TIP3   OH228782   4.553   0.311   3.831
 9614TIP3    H128783   4.618   0.310   3.760
 9614TIP3    H228784   4.545   0.403   3.856
 9615TIP3   OH228785   5.813   2.872   1.973
 9615TIP3    H128786   5.866   2.949   1.952
 9615TIP3    H228787   5.728   2.890   1.932
 9616TIP3   OH228788   0.314   5.410   0.831
 9616TIP3    H128789   0.300   5.342   0.897
 9616TIP3    H228790   0.291   5.368   0.748
 9617TIP3   OH228791   3.087   2.012   0.063
 9617TIP3    H128792   3.106   1.922   0.037
 9617TIP3    H228793   2.993   2.021   0.053
 9618TIP3   OH228794   7.609   3.830   1.059
 9618TIP3    H128795   7.573   3.893   0.997
 9618TIP3    H228796   7.531   3.789   1.098
 9619TIP3   OH228797   0.596   7.348   0.069
 9619TIP3    H128798   0.574   7.408   0.140
 9619TIP3    H228799   0.643   7.276   0.111
 9620TIP3   OH228800   0.932   1.660   4.381
 9620TIP3    H128801   1.006   1.608   4.414
 9620TIP3    H228802   0.867   1.656   4.451
 9621TIP3   OH228803   2.043   7.631   0.197
 9621TIP3    H128804   2.082   7.677   0.123
 9621TIP3    H228805   1.975   7.690   0.229
 9622TIP3   OH228806   5.270   5.251   4.443
 9622TIP3    H128807   5.209   5.190   4.485
 9622TIP3    H228808   5.342   5.261   4.506
 9623TIP3   OH228809   3.391   3.136   1.193
 9623TIP3    H128810   3.474   3.119   1.148
 9623TIP3    H228811   3.416   3.173   1.277
 9624TIP3   OH228812   2.403   2.953   0.795
 9624TIP3    H128813   2.387   2.890   0.726
 9624TIP3    H228814   2.316   2.972   0.831
 9625TIP3   OH228815   2.672   6.735   5.629
 9625TIP3    H128816   2.629   6.760   5.710
 9625TIP3    H228817   2.600   6.710   5.570
 9626TIP3   OH228818   0.165   2.974   2.262
 9626TIP3    H128819   0.175   3.022   2.345
 9626TIP3    H228820   0.149   3.042   2.197
 9627TIP3   OH228821   4.107   0.579   6.029
 9627TIP3    H128822   4.059   0.617   6.103
 9627TIP3    H228823   4.108   0.648   5.963
 9628TIP3   OH228824   0.102   4.957   0.243
 9628TIP3    H128825   0.160   4.883   0.227
 9628TIP3    H228826   0.159   5.034   0.234
 9629TIP3   OH228827   6.878   6.060   5.370
 9629TIP3    H128828   6.795   6.012   5.363
 9629TIP3    H228829   6.913   6.035   5.456
 9630TIP3   OH228830   8.051   4.028   2.090
 9630TIP3    H128831   8.089   4.089   2.027
 9630TIP3    H228832   8.126   3.990   2.136
 9631TIP3   OH228833   2.064   6.274   3.829
 9631TIP3    H128834   2.024   6.187   3.822
 9631TIP3    H228835   2.069   6.305   3.738
 9632TIP3   OH228836   1.065   1.868   2.656
 9632TIP3    H128837   1.106   1.945   2.617
 9632TIP3    H228838   0.971   1.888   2.654
 9633TIP3   OH228839   5.685   7.805   4.780
 9633TIP3    H128840   5.768   7.778   4.821
 9633TIP3    H228841   5.712   7.865   4.710
 9634TIP3   OH228842   5.247   4.983   3.145
 9634TIP3    H128843   5.319   4.998   3.205
 9634TIP3    H228844   5.274   5.026   3.064
 9635TIP3   OH228845   4.463   4.170   1.528
 9635TIP3    H128846   4.558   4.173   1.539
 9635TIP3    H228847   4.442   4.077   1.531
 9636TIP3   OH228848   3.210   5.403   5.784
 9636TIP3    H128849   3.242   5.490   5.761
 9636TIP3    H228850   3.140   5.419   5.848
 9637TIP3   OH228851   7.106   5.929   6.250
 9637TIP3    H128852   7.068   5.871   6.317
 9637TIP3    H228853   7.185   5.884   6.222
 9638TIP3   OH228854   3.456   6.076   5.129
 9638TIP3    H128855   3.383   6.116   5.083
 9638TIP3    H228856   3.472   5.994   5.083
 9639TIP3   OH228857   3.323   1.840   3.304
 9639TIP3    H128858   3.269   1.886   3.368
 9639TIP3    H228859   3.394   1.901   3.284
 9640TIP3   OH228860   0.864   2.867   3.072
 9640TIP3    H128861   0.786   2.890   3.023
 9640TIP3    H228862   0.910   2.805   3.016
 9641TIP3   OH228863   2.601   1.130   3.995
 9641TIP3    H128864   2.669   1.080   3.951
 9641TIP3    H228865   2.522   1.077   3.984
 9642TIP3   OH228866   2.294   0.514   0.434
 9642TIP3    H128867   2.261   0.428   0.409
 9642TIP3    H228868   2.372   0.527   0.380
 9643TIP3   OH228869   3.864   1.108   4.240
 9643TIP3    H128870   3.903   1.099   4.153
 9643TIP3    H228871   3.806   1.184   4.232
 9644TIP3   OH228872   2.814   7.725   1.039
 9644TIP3    H128873   2.849   7.636   1.032
 9644TIP3    H228874   2.783   7.745   0.950
 9645TIP3   OH228875   5.160   5.777   3.697
 9645TIP3    H128876   5.174   5.701   3.753
 9645TIP3    H228877   5.163   5.852   3.756
 9646TIP3   OH228878   3.468   6.179   5.713
 9646TIP3    H128879   3.512   6.099   5.742
 9646TIP3    H228880   3.405   6.199   5.783
 9647TIP3   OH228881   6.792   0.366   1.858
 9647TIP3    H128882   6.823   0.312   1.785
 9647TIP3    H228883   6.699   0.377   1.841
 9648TIP3   OH228884   4.875   3.531   6.724
 9648TIP3    H128885   4.814   3.604   6.726
 9648TIP3    H228886   4.960   3.570   6.745
 9649TIP3   OH228887   5.647   0.408   1.328
 9649TIP3    H128888   5.656   0.438   1.418
 9649TIP3    H228889   5.589   0.471   1.286
 9650TIP3   OH228890   2.601   2.166   3.722
 9650TIP3    H128891   2.591   2.202   3.634
 9650TIP3    H228892   2.588   2.240   3.781
 9651TIP3   OH228893   1.376   6.361   5.648
 9651TIP3    H128894   1.387   6.431   5.583
 9651TIP3    H228895   1.286   6.371   5.678
 9652TIP3   OH228896   6.757   4.466   6.587
 9652TIP3    H128897   6.819   4.452   6.658
 9652TIP3    H228898   6.806   4.514   6.520
 9653TIP3   OH228899   5.104   1.904   6.008
 9653TIP3    H128900   5.183   1.909   5.955
 9653TIP3    H228901   5.043   1.850   5.957
 9654TIP3   OH228902   0.502   5.892   5.466
 9654TIP3    H128903   0.590   5.861   5.488
 9654TIP3    H228904   0.495   5.976   5.511
 9655TIP3   OH228905   4.276   6.035   3.518
 9655TIP3    H128906   4.231   6.040   3.434
 9655TIP3    H228907   4.254   5.948   3.551
 9656TIP3   OH228908   5.763   7.860   5.980
 9656TIP3    H128909   5.751   7.925   6.050
 9656TIP3    H228910   5.777   7.777   6.026
 9657TIP3   OH228911   7.117   6.124   4.273
 9657TIP3    H128912   7.195   6.160   4.314
 9657TIP3    H228913   7.130   6.138   4.180
 9658TIP3   OH228914   3.139   3.859   1.915
 9658TIP3    H128915   3.107   3.795   1.979
 9658TIP3    H228916   3.101   3.832   1.832
 9659TIP3   OH228917   0.218   7.416   4.129
 9659TIP3    H128918   0.158   7.489   4.114
 9659TIP3    H228919   0.297   7.456   4.166
 9660TIP3   OH228920   3.202   4.886   0.376
 9660TIP3    H128921   3.181   4.925   0.461
 9660TIP3    H228922   3.117   4.856   0.343
 9661TIP3   OH228923   5.414   4.146   6.384
 9661TIP3    H128924   5.503   4.166   6.413
 9661TIP3    H228925   5.358   4.179   6.454
 9662TIP3   OH228926   1.180   1.224   2.537
 9662TIP3    H128927   1.273   1.245   2.524
 9662TIP3    H228928   1.181   1.132   2.565
 9663TIP3   OH228929   6.230   1.550   2.579
 9663TIP3    H128930   6.166   1.496   2.531
 9663TIP3    H228931   6.178   1.621   2.616
 9664TIP3   OH228932   2.985   0.942   4.633
 9664TIP3    H128933   3.023   0.922   4.719
 9664TIP3    H228934   3.013   0.868   4.578
 9665TIP3   OH228935   6.006   1.042   5.736
 9665TIP3    H128936   6.009   1.136   5.722
 9665TIP3    H228937   5.970   1.032   5.824
 9666TIP3   OH228938   7.440   7.160   4.292
 9666TIP3    H128939   7.363   7.151   4.235
 9666TIP3    H228940   7.500   7.091   4.263
 9667TIP3   OH228941   6.817   3.561   1.718
 9667TIP3    H128942   6.765   3.483   1.740
 9667TIP3    H228943   6.751   3.628   1.699
 9668TIP3   OH228944   2.221   5.634   0.540
 9668TIP3    H128945   2.210   5.541   0.519
 9668TIP3    H228946   2.302   5.637   0.590
 9669TIP3   OH228947   6.977   3.333   5.157
 9669TIP3    H128948   6.914   3.263   5.144
 9669TIP3    H228949   6.930   3.413   5.136
 9670TIP3   OH228950   5.707   3.649   3.150
 9670TIP3    H128951   5.699   3.662   3.056
 9670TIP3    H228952   5.621   3.672   3.185
 9671TIP3   OH228953   0.679   5.925   0.571
 9671TIP3    H128954   0.583   5.923   0.569
 9671TIP3    H228955   0.702   5.873   0.647
 9672TIP3   OH228956   0.731   0.674   6.120
 9672TIP3    H128957   0.814   0.675   6.167
 9672TIP3    H228958   0.754   0.694   6.030
 9673TIP3   OH228959   6.720   1.490   0.305
 9673TIP3    H128960   6.649   1.427   0.298
 9673TIP3    H228961   6.698   1.559   0.242
 9674TIP3   OH228962   3.307   0.725   5.038
 9674TIP3    H128963   3.310   0.789   5.109
 9674TIP3    H228964   3.333   0.642   5.080
 9675TIP3   OH228965   7.509   4.160   0.396
 9675TIP3    H128966   7.519   4.219   0.321
 9675TIP3    H228967   7.417   4.166   0.420
 9676TIP3   OH228968   4.550   3.240   2.744
 9676TIP3    H128969   4.527   3.333   2.757
 9676TIP3    H228970   4.625   3.242   2.684
 9677TIP3   OH228971   7.251   5.839   1.767
 9677TIP3    H128972   7.266   5.754   1.808
 9677TIP3    H228973   7.188   5.821   1.697
 9678TIP3   OH228974   6.555   3.313   0.034
 9678TIP3    H128975   6.479   3.369   0.022
 9678TIP3    H228976   6.624   3.371   0.065
 9679TIP3   OH228977   2.353   4.315   2.207
 9679TIP3    H128978   2.413   4.344   2.275
 9679TIP3    H228979   2.405   4.312   2.127
 9680TIP3   OH228980   1.221   2.961   5.585
 9680TIP3    H128981   1.225   2.866   5.597
 9680TIP3    H228982   1.195   2.995   5.670
 9681TIP3   OH228983   1.460   2.573   2.533
 9681TIP3    H128984   1.429   2.522   2.607
 9681TIP3    H228985   1.395   2.557   2.464
 9682TIP3   OH228986   1.789   4.717   4.471
 9682TIP3    H128987   1.791   4.648   4.404
 9682TIP3    H228988   1.806   4.671   4.553
 9683TIP3   OH228989   0.258   6.986   4.173
 9683TIP3    H128990   0.291   7.066   4.133
 9683TIP3    H228991   0.247   6.926   4.099
 9684TIP3   OH228992   0.159   5.802   5.739
 9684TIP3    H128993   0.138   5.728   5.682
 9684TIP3    H228994   0.156   5.878   5.681
 9685TIP3   OH228995   2.831   3.941   4.391
 9685TIP3    H128996   2.807   3.919   4.300
 9685TIP3    H228997   2.800   3.867   4.442
 9686TIP3   OH228998   5.633   5.058   6.268
 9686TIP3    H128999   5.711   5.007   6.287
 9686TIP3    H229000   5.570   4.995   6.235
 9687TIP3   OH229001   1.628   5.218   5.786
 9687TIP3    H129002   1.721   5.193   5.781
 9687TIP3    H229003   1.628   5.297   5.839
 9688TIP3   OH229004   4.390   7.189   0.426
 9688TIP3    H129005   4.429   7.178   0.512
 9688TIP3    H229006   4.298   7.210   0.444
 9689TIP3   OH229007   2.897   7.872   2.654
 9689TIP3    H129008   2.901   7.806   2.722
 9689TIP3    H229009   2.985   7.873   2.616
 9690TIP3   OH229010   3.512   7.556   0.704
 9690TIP3    H129011   3.585   7.593   0.754
 9690TIP3    H229012   3.526   7.462   0.709
 9691TIP3   OH229013   4.108   6.042   1.228
 9691TIP3    H129014   4.196   6.045   1.264
 9691TIP3    H229015   4.052   6.015   1.301
 9692TIP3   OH229016   0.810   1.015   1.826
 9692TIP3    H129017   0.715   1.017   1.836
 9692TIP3    H229018   0.843   1.038   1.913
 9693TIP3   OH229019   5.061   4.527   1.658
 9693TIP3    H129020   5.142   4.493   1.621
 9693TIP3    H229021   5.045   4.608   1.610
 9694TIP3   OH229022   6.865   4.292   0.728
 9694TIP3    H129023   6.850   4.272   0.636
 9694TIP3    H229024   6.959   4.310   0.733
 9695TIP3   OH229025   5.689   7.256   4.202
 9695TIP3    H129026   5.594   7.271   4.202
 9695TIP3    H229027   5.726   7.338   4.169
 9696TIP3   OH229028   4.366   2.019   0.427
 9696TIP3    H129029   4.425   1.946   0.410
 9696TIP3    H229030   4.304   2.018   0.353
 9697TIP3   OH229031   8.111   2.740   1.803
 9697TIP3    H129032   8.075   2.785   1.880
 9697TIP3    H229033   8.130   2.810   1.741
 9698TIP3   OH229034   1.910   7.793   2.049
 9698TIP3    H129035   1.918   7.703   2.017
 9698TIP3    H229036   1.989   7.837   2.017
 9699TIP3   OH229037   4.026   6.894   6.205
 9699TIP3    H129038   4.038   6.814   6.256
 9699TIP3    H229039   3.939   6.884   6.166
 9700TIP3   OH229040   2.986   1.626   3.527
 9700TIP3    H129041   2.943   1.546   3.496
 9700TIP3    H229042   2.984   1.685   3.452
 9701TIP3   OH229043   4.126   6.714   0.124
 9701TIP3    H129044   4.212   6.705   0.081
 9701TIP3    H229045   4.066   6.665   0.068
 9702TIP3   OH229046   3.620   2.799   4.409
 9702TIP3    H129047   3.651   2.807   4.499
 9702TIP3    H229048   3.525   2.795   4.417
 9703TIP3   OH229049   5.992   4.715   4.664
 9703TIP3    H129050   5.973   4.800   4.624
 9703TIP3    H229051   6.011   4.736   4.756
 9704TIP3   OH229052   3.830   3.677   0.575
 9704TIP3    H129053   3.860   3.697   0.486
 9704TIP3    H229054   3.878   3.598   0.600
 9705TIP3   OH229055   1.838   5.484  -0.017
 9705TIP3    H129056   1.918   5.536  -0.014
 9705TIP3    H229057   1.815   5.471   0.075
 9706TIP3   OH229058   2.558   5.863   3.552
 9706TIP3    H129059   2.643   5.823   3.572
 9706TIP3    H229060   2.551   5.856   3.457
 9707TIP3   OH229061   0.054   5.414   3.252
 9707TIP3    H129062   0.093   5.377   3.331
 9707TIP3    H229063   0.117   5.395   3.183
 9708TIP3   OH229064   5.034   2.512   4.008
 9708TIP3    H129065   5.033   2.605   3.984
 9708TIP3    H229066   5.055   2.512   4.102
 9709TIP3   OH229067   3.005   2.687   3.768
 9709TIP3    H129068   2.991   2.777   3.797
 9709TIP3    H229069   3.065   2.694   3.694
 9710TIP3   OH229070   6.609   4.392   2.898
 9710TIP3    H129071   6.601   4.298   2.908
 9710TIP3    H229072   6.683   4.416   2.954
 9711TIP3   OH229073   4.123   0.210   4.127
 9711TIP3    H129074   4.069   0.261   4.188
 9711TIP3    H229075   4.074   0.129   4.113
 9712TIP3   OH229076   2.458   5.534   0.272
 9712TIP3    H129077   2.376   5.576   0.246
 9712TIP3    H229078   2.521   5.561   0.205
 9713TIP3   OH229079   6.261   1.354   6.306
 9713TIP3    H129080   6.260   1.319   6.217
 9713TIP3    H229081   6.353   1.353   6.331
 9714TIP3   OH229082   3.465   0.048   0.734
 9714TIP3    H129083   3.385   0.094   0.710
 9714TIP3    H229084   3.449  -0.043   0.708
 9715TIP3   OH229085   0.685   5.124   5.241
 9715TIP3    H129086   0.774   5.131   5.275
 9715TIP3    H229087   0.689   5.163   5.154
 9716TIP3   OH229088   3.784   5.254   2.078
 9716TIP3    H129089   3.815   5.327   2.025
 9716TIP3    H229090   3.721   5.209   2.022
 9717TIP3   OH229091   0.747   4.414   2.614
 9717TIP3    H129092   0.689   4.446   2.546
 9717TIP3    H229093   0.805   4.488   2.633
 9718TIP3   OH229094   2.293   1.242   2.728
 9718TIP3    H129095   2.212   1.193   2.713
 9718TIP3    H229096   2.265   1.319   2.778
 9719TIP3   OH229097   0.565   2.523   3.367
 9719TIP3    H129098   0.600   2.586   3.304
 9719TIP3    H229099   0.497   2.476   3.319
 9720TIP3   OH229100   4.096   1.702   0.743
 9720TIP3    H129101   4.031   1.673   0.679
 9720TIP3    H229102   4.147   1.624   0.764
 9721TIP3   OH229103   6.831   3.278   6.119
 9721TIP3    H129104   6.898   3.284   6.187
 9721TIP3    H229105   6.873   3.230   6.047
 9722TIP3   OH229106   3.144   4.028   4.206
 9722TIP3    H129107   3.127   3.935   4.190
 9722TIP3    H229108   3.214   4.028   4.271
 9723TIP3   OH229109   6.136   1.285   3.541
 9723TIP3    H129110   6.085   1.225   3.486
 9723TIP3    H229111   6.198   1.325   3.480
 9724TIP3   OH229112   6.061   2.895   2.693
 9724TIP3    H129113   6.035   2.981   2.726
 9724TIP3    H229114   6.108   2.854   2.766
 9725TIP3   OH229115   7.415   2.520   4.840
 9725TIP3    H129116   7.434   2.541   4.932
 9725TIP3    H229117   7.498   2.533   4.794
 9726TIP3   OH229118   2.576   6.793   0.755
 9726TIP3    H129119   2.510   6.832   0.698
 9726TIP3    H229120   2.526   6.747   0.822
 9727TIP3   OH229121   6.189   0.843   1.859
 9727TIP3    H129122   6.183   0.855   1.954
 9727TIP3    H229123   6.280   0.866   1.838
 9728TIP3   OH229124   6.401   6.711   5.985
 9728TIP3    H129125   6.397   6.672   6.072
 9728TIP3    H229126   6.310   6.729   5.962
 9729TIP3   OH229127   7.895   1.458   3.219
 9729TIP3    H129128   7.927   1.512   3.147
 9729TIP3    H229129   7.927   1.501   3.298
 9730TIP3   OH229130   3.076   1.179   0.868
 9730TIP3    H129131   3.083   1.088   0.840
 9730TIP3    H229132   3.057   1.227   0.788
 9731TIP3   OH229133   8.275   5.494   2.119
 9731TIP3    H129134   8.316   5.549   2.051
 9731TIP3    H229135   8.245   5.557   2.185
 9732TIP3   OH229136   1.104   4.931   4.866
 9732TIP3    H129137   1.034   4.981   4.908
 9732TIP3    H229138   1.175   4.930   4.930
 9733TIP3   OH229139   5.006   5.220   4.559
 9733TIP3    H129140   5.030   5.270   4.637
 9733TIP3    H229141   5.014   5.129   4.587
 9734TIP3   OH229142   6.379   5.312   2.655
 9734TIP3    H129143   6.369   5.220   2.678
 9734TIP3    H229144   6.348   5.359   2.733
 9735TIP3   OH229145   4.116   5.286   1.257
 9735TIP3    H129146   4.031   5.296   1.299
 9735TIP3    H229147   4.098   5.235   1.178
 9736TIP3   OH229148   5.139   6.293   1.029
 9736TIP3    H129149   5.172   6.275   1.117
 9736TIP3    H229150   5.081   6.369   1.041
 9737TIP3   OH229151   0.870   2.955   5.774
 9737TIP3    H129152   0.837   3.044   5.760
 9737TIP3    H229153   0.964   2.965   5.783
 9738TIP3   OH229154   6.170   6.623   3.525
 9738TIP3    H129155   6.258   6.592   3.548
 9738TIP3    H229156   6.185   6.704   3.476
 9739TIP3   OH229157   4.012   5.571   2.841
 9739TIP3    H129158   3.982   5.654   2.879
 9739TIP3    H229159   4.099   5.558   2.879
 9740TIP3   OH229160   2.282   0.207   3.845
 9740TIP3    H129161   2.204   0.182   3.794
 9740TIP3    H229162   2.249   0.267   3.911
 9741TIP3   OH229163   1.416   5.858   0.464
 9741TIP3    H129164   1.417   5.765   0.444
 9741TIP3    H229165   1.330   5.889   0.434
 9742TIP3   OH229166   0.599   0.958   0.545
 9742TIP3    H129167   0.553   0.885   0.503
 9742TIP3    H229168   0.687   0.957   0.507
 9743TIP3   OH229169   7.717   6.693   0.169
 9743TIP3    H129170   7.736   6.602   0.148
 9743TIP3    H229171   7.803   6.733   0.181
 9744TIP3   OH229172   2.602   6.742   4.988
 9744TIP3    H129173   2.591   6.783   5.074
 9744TIP3    H229174   2.662   6.670   5.003
 9745TIP3   OH229175   6.562   2.696   4.519
 9745TIP3    H129176   6.519   2.634   4.578
 9745TIP3    H229177   6.632   2.644   4.477
 9746TIP3   OH229178   2.316   1.231   3.353
 9746TIP3    H129179   2.341   1.323   3.339
 9746TIP3    H229180   2.398   1.183   3.346
 9747TIP3   OH229181   8.038   7.397   3.425
 9747TIP3    H129182   7.984   7.466   3.463
 9747TIP3    H229183   8.116   7.442   3.394
 9748TIP3   OH229184   2.540   7.019   0.119
 9748TIP3    H129185   2.457   6.974   0.133
 9748TIP3    H229186   2.601   6.978   0.181
 9749TIP3   OH229187   5.551   3.491   1.610
 9749TIP3    H129188   5.589   3.522   1.528
 9749TIP3    H229189   5.532   3.399   1.594
 9750TIP3   OH229190   4.566   0.458   4.593
 9750TIP3    H129191   4.552   0.443   4.499
 9750TIP3    H229192   4.637   0.522   4.596
 9751TIP3   OH229193   2.329   6.355   4.346
 9751TIP3    H129194   2.365   6.421   4.287
 9751TIP3    H229195   2.234   6.367   4.340
 9752TIP3   OH229196   1.429   4.913   2.702
 9752TIP3    H129197   1.335   4.922   2.718
 9752TIP3    H229198   1.441   4.820   2.683
 9753TIP3   OH229199   1.029   1.671   5.229
 9753TIP3    H129200   1.072   1.754   5.209
 9753TIP3    H229201   0.954   1.695   5.283
 9754TIP3   OH229202   1.626   6.007   4.140
 9754TIP3    H129203   1.633   6.037   4.049
 9754TIP3    H229204   1.703   5.952   4.153
 9755TIP3   OH229205   7.622   3.806   6.336
 9755TIP3    H129206   7.582   3.720   6.346
 9755TIP3    H229207   7.716   3.790   6.341
 9756TIP3   OH229208   1.025   5.369   4.400
 9756TIP3    H129209   1.107   5.331   4.432
 9756TIP3    H229210   1.043   5.392   4.308
 9757TIP3   OH229211   4.968   6.692   1.310
 9757TIP3    H129212   4.929   6.769   1.268
 9757TIP3    H229213   4.905   6.668   1.378
 9758TIP3   OH229214   8.049   0.426   3.103
 9758TIP3    H129215   7.984   0.408   3.171
 9758TIP3    H229216   8.120   0.364   3.121
 9759TIP3   OH229217   5.660   0.897   0.761
 9759TIP3    H129218   5.604   0.973   0.746
 9759TIP3    H229219   5.601   0.822   0.755
 9760TIP3   OH229220   1.942   2.618   5.410
 9760TIP3    H129221   1.879   2.546   5.418
 9760TIP3    H229222   1.918   2.662   5.329
 9761TIP3   OH229223   7.137   3.374   2.442
 9761TIP3    H129224   7.100   3.289   2.419
 9761TIP3    H229225   7.068   3.418   2.493
 9762TIP3   OH229226   4.362   0.945   5.857
 9762TIP3    H129227   4.290   0.887   5.832
 9762TIP3    H229228   4.425   0.888   5.900
 9763TIP3   OH229229   3.296   6.941   6.244
 9763TIP3    H129230   3.391   6.953   6.242
 9763TIP3    H229231   3.266   6.973   6.159
 9764TIP3   OH229232   8.208   4.131   2.931
 9764TIP3    H129233   8.187   4.039   2.946
 9764TIP3    H229234   8.225   4.166   3.018
 9765TIP3   OH229235   3.713   3.368   0.484
 9765TIP3    H129236   3.804   3.385   0.463
 9765TIP3    H229237   3.712   3.279   0.519
 9766TIP3   OH229238   8.228   3.178   4.958
 9766TIP3    H129239   8.229   3.152   4.866
 9766TIP3    H229240   8.314   3.216   4.973
 9767TIP3   OH229241   1.733   4.937   3.889
 9767TIP3    H129242   1.825   4.964   3.885
 9767TIP3    H229243   1.701   4.949   3.799
 9768TIP3   OH229244   7.659   0.672   5.236
 9768TIP3    H129245   7.740   0.636   5.271
 9768TIP3    H229246   7.621   0.721   5.310
 9769TIP3   OH229247   2.581   5.210   6.541
 9769TIP3    H129248   2.583   5.303   6.521
 9769TIP3    H229249   2.585   5.167   6.455
 9770TIP3   OH229250   6.736   5.022   3.897
 9770TIP3    H129251   6.682   5.098   3.874
 9770TIP3    H229252   6.680   4.969   3.953
 9771TIP3   OH229253   5.349   6.057   0.547
 9771TIP3    H129254   5.350   6.116   0.622
 9771TIP3    H229255   5.276   6.087   0.493
 9772TIP3   OH229256   2.816   7.277   4.902
 9772TIP3    H129257   2.893   7.302   4.851
 9772TIP3    H229258   2.810   7.182   4.891
 9773TIP3   OH229259   2.114   5.796   0.343
 9773TIP3    H129260   2.060   5.745   0.282
 9773TIP3    H229261   2.147   5.731   0.405
 9774TIP3   OH229262   7.171   7.363   6.011
 9774TIP3    H129263   7.132   7.327   6.090
 9774TIP3    H229264   7.255   7.399   6.039
 9775TIP3   OH229265   6.998   6.252   2.696
 9775TIP3    H129266   6.922   6.239   2.640
 9775TIP3    H229267   6.995   6.345   2.719
 9776TIP3   OH229268   3.155   0.673   6.653
 9776TIP3    H129269   3.192   0.621   6.724
 9776TIP3    H229270   3.137   0.610   6.583
 9777TIP3   OH229271   0.809   0.664   5.340
 9777TIP3    H129272   0.803   0.607   5.263
 9777TIP3    H229273   0.899   0.695   5.340
 9778TIP3   OH229274   6.137   1.128   2.003
 9778TIP3    H129275   6.144   1.170   2.089
 9778TIP3    H229276   6.182   1.187   1.943
 9779TIP3   OH229277   0.748   4.935   3.553
 9779TIP3    H129278   0.703   4.875   3.494
 9779TIP3    H229279   0.789   4.877   3.618
 9780TIP3   OH229280   0.985   1.735   6.101
 9780TIP3    H129281   1.078   1.748   6.081
 9780TIP3    H229282   0.984   1.669   6.170
 9781TIP3   OH229283   0.617   0.862   3.005
 9781TIP3    H129284   0.709   0.853   2.981
 9781TIP3    H229285   0.585   0.772   3.014
 9782TIP3   OH229286   0.767   1.414   3.750
 9782TIP3    H129287   0.829   1.432   3.820
 9782TIP3    H229288   0.746   1.500   3.713
 9783TIP3   OH229289   2.316   7.815   5.475
 9783TIP3    H129290   2.349   7.810   5.385
 9783TIP3    H229291   2.314   7.909   5.494
 9784TIP3   OH229292   0.809   7.077   2.100
 9784TIP3    H129293   0.854   7.002   2.059
 9784TIP3    H229294   0.760   7.039   2.172
 9785TIP3   OH229295   7.003   5.063   1.993
 9785TIP3    H129296   7.047   5.080   2.076
 9785TIP3    H229297   6.949   5.140   1.977
 9786TIP3   OH229298   5.296   2.182   1.646
 9786TIP3    H129299   5.250   2.150   1.723
 9786TIP3    H229300   5.368   2.120   1.633
 9787TIP3   OH229301   0.804   0.868   4.126
 9787TIP3    H129302   0.831   0.789   4.172
 9787TIP3    H229303   0.807   0.844   4.033
 9788TIP3   OH229304   1.910   4.179   2.291
 9788TIP3    H129305   1.861   4.249   2.334
 9788TIP3    H229306   1.996   4.180   2.333
 9789TIP3   OH229307   1.886   1.638   5.078
 9789TIP3    H129308   1.887   1.605   5.168
 9789TIP3    H229309   1.978   1.658   5.059
 9790TIP3   OH229310   6.482   1.340   5.643
 9790TIP3    H129311   6.482   1.434   5.623
 9790TIP3    H229312   6.434   1.300   5.571
 9791TIP3   OH229313   4.051   4.931   0.757
 9791TIP3    H129314   3.980   4.991   0.780
 9791TIP3    H229315   4.085   4.964   0.674
 9792TIP3   OH229316   3.835   3.291   2.392
 9792TIP3    H129317   3.870   3.340   2.317
 9792TIP3    H229318   3.810   3.359   2.454
 9793TIP3   OH229319   0.201   4.275   2.111
 9793TIP3    H129320   0.180   4.233   2.027
 9793TIP3    H229321   0.160   4.361   2.106
 9794TIP3   OH229322   7.945   6.287   0.965
 9794TIP3    H129323   7.967   6.199   0.995
 9794TIP3    H229324   7.862   6.307   1.010
 9795TIP3   OH229325   8.408   2.178   2.330
 9795TIP3    H129326   8.348   2.204   2.401
 9795TIP3    H229327   8.356   2.119   2.276
 9796TIP3   OH229328   5.922   1.022   4.274
 9796TIP3    H129329   5.936   1.027   4.369
 9796TIP3    H229330   5.926   1.113   4.244
 9797TIP3   OH229331   7.189   5.973   4.929
 9797TIP3    H129332   7.101   5.970   4.892
 9797TIP3    H229333   7.177   6.001   5.020
 9798TIP3   OH229334   5.019   3.618   1.734
 9798TIP3    H129335   5.105   3.604   1.694
 9798TIP3    H229336   5.036   3.675   1.809
 9799TIP3   OH229337   7.869   1.272   3.825
 9799TIP3    H129338   7.959   1.287   3.798
 9799TIP3    H229339   7.833   1.214   3.757
 9800TIP3   OH229340   8.004   2.207   6.777
 9800TIP3    H129341   7.946   2.194   6.702
 9800TIP3    H229342   8.083   2.247   6.740
 9801TIP3   OH229343   5.349   0.251   2.669
 9801TIP3    H129344   5.370   0.307   2.743
 9801TIP3    H229345   5.298   0.179   2.706
 9802TIP3   OH229346   6.814   2.039   5.893
 9802TIP3    H129347   6.876   1.981   5.938
 9802TIP3    H229348   6.856   2.060   5.810
 9803TIP3   OH229349   4.180   2.815   3.459
 9803TIP3    H129350   4.130   2.875   3.403
 9803TIP3    H229351   4.269   2.820   3.426
 9804TIP3   OH229352   7.735   1.901   4.292
 9804TIP3    H129353   7.760   1.838   4.359
 9804TIP3    H229354   7.727   1.850   4.212
 9805TIP3   OH229355   5.831   0.741   0.310
 9805TIP3    H129356   5.855   0.792   0.233
 9805TIP3    H229357   5.911   0.692   0.333
 9806TIP3   OH229358   1.771   7.582   0.363
 9806TIP3    H129359   1.689   7.538   0.384
 9806TIP3    H229360   1.757   7.673   0.389
 9807TIP3   OH229361   6.594   2.513   1.289
 9807TIP3    H129362   6.533   2.550   1.227
 9807TIP3    H229363   6.586   2.569   1.367
 9808TIP3   OH229364   2.683   6.478   5.380
 9808TIP3    H129365   2.607   6.463   5.435
 9808TIP3    H229366   2.678   6.410   5.312
 9809TIP3   OH229367   1.092   2.166   2.985
 9809TIP3    H129368   1.033   2.227   2.940
 9809TIP3    H229369   1.037   2.124   3.051
 9810TIP3   OH229370   4.550   3.058  -0.011
 9810TIP3    H129371   4.490   3.132  -0.018
 9810TIP3    H229372   4.530   3.018   0.074
 9811TIP3   OH229373   3.799   4.882   4.891
 9811TIP3    H129374   3.834   4.807   4.940
 9811TIP3    H229375   3.768   4.942   4.958
 9812TIP3   OH229376   5.947   7.229   0.155
 9812TIP3    H129377   5.985   7.281   0.085
 9812TIP3    H229378   6.023   7.194   0.203
 9813TIP3   OH229379   2.987   1.959   1.500
 9813TIP3    H129380   2.922   2.025   1.475
 9813TIP3    H229381   2.935   1.883   1.525
 9814TIP3   OH229382   2.836   0.944   5.866
 9814TIP3    H129383   2.925   0.979   5.867
 9814TIP3    H229384   2.787   1.005   5.811
 9815TIP3   OH229385   1.992   4.612   6.368
 9815TIP3    H129386   1.899   4.609   6.386
 9815TIP3    H229387   2.019   4.520   6.362
 9816TIP3   OH229388   4.303   1.610   4.125
 9816TIP3    H129389   4.344   1.673   4.184
 9816TIP3    H229390   4.281   1.536   4.181
 9817TIP3   OH229391   2.053   7.047   1.339
 9817TIP3    H129392   2.099   7.125   1.306
 9817TIP3    H229393   1.991   7.026   1.269
 9818TIP3   OH229394   6.485   1.708   1.593
 9818TIP3    H129395   6.521   1.622   1.572
 9818TIP3    H229396   6.560   1.759   1.624
 9819TIP3   OH229397   5.698   6.334   5.499
 9819TIP3    H129398   5.615   6.295   5.473
 9819TIP3    H229399   5.684   6.361   5.590
 9820TIP3   OH229400   8.258  -0.012   5.091
 9820TIP3    H129401   8.259   0.042   5.012
 9820TIP3    H229402   8.204   0.038   5.153
 9821TIP3   OH229403   4.998   5.969   2.620
 9821TIP3    H129404   5.043   5.992   2.702
 9821TIP3    H229405   4.908   5.999   2.634
 9822TIP3   OH229406   0.638   7.792   2.561
 9822TIP3    H129407   0.695   7.855   2.516
 9822TIP3    H229408   0.640   7.820   2.652
 9823TIP3   OH229409   6.220   0.990   3.628
 9823TIP3    H129410   6.176   0.931   3.688
 9823TIP3    H229411   6.191   1.077   3.654
 9824TIP3   OH229412   0.852   0.763   6.434
 9824TIP3    H129413   0.831   0.856   6.426
 9824TIP3    H229414   0.799   0.733   6.507
 9825TIP3   OH229415   6.697   4.998   0.198
 9825TIP3    H129416   6.727   4.929   0.256
 9825TIP3    H229417   6.719   4.968   0.110
 9826TIP3   OH229418   3.795   0.639   4.271
 9826TIP3    H129419   3.884   0.608   4.289
 9826TIP3    H229420   3.788   0.722   4.317
 9827TIP3   OH229421   7.514   4.664   6.633
 9827TIP3    H129422   7.494   4.758   6.632
 9827TIP3    H229423   7.551   4.649   6.720
 9828TIP3   OH229424   4.468   7.723   0.079
 9828TIP3    H129425   4.379   7.752   0.098
 9828TIP3    H229426   4.459   7.666   0.003
 9829TIP3   OH229427   6.627   6.452   0.022
 9829TIP3    H129428   6.708   6.502   0.015
 9829TIP3    H229429   6.603   6.458   0.114
 9830TIP3   OH229430   3.467   4.179   1.013
 9830TIP3    H129431   3.513   4.116   0.957
 9830TIP3    H229432   3.388   4.133   1.042
 9831TIP3   OH229433   0.872   4.494   6.823
 9831TIP3    H129434   0.958   4.528   6.797
 9831TIP3    H229435   0.877   4.489   6.919
 9832TIP3   OH229436   5.748   3.280   5.273
 9832TIP3    H129437   5.760   3.233   5.191
 9832TIP3    H229438   5.770   3.217   5.341
 9833TIP3   OH229439   2.725   1.726   0.693
 9833TIP3    H129440   2.676   1.792   0.742
 9833TIP3    H229441   2.677   1.645   0.708
 9834TIP3   OH229442   1.841   6.196   5.885
 9834TIP3    H129443   1.762   6.251   5.883
 9834TIP3    H229444   1.907   6.251   5.928
 9835TIP3   OH229445   1.174   7.058   0.295
 9835TIP3    H129446   1.267   7.039   0.310
 9835TIP3    H229447   1.169   7.080   0.202
 9836TIP3   OH229448   3.349   5.723   2.012
 9836TIP3    H129449   3.336   5.628   2.016
 9836TIP3    H229450   3.437   5.734   1.975
 9837TIP3   OH229451   6.465   5.102   1.170
 9837TIP3    H129452   6.479   5.151   1.089
 9837TIP3    H229453   6.478   5.011   1.145
 9838TIP3   OH229454   7.549   2.318   0.229
 9838TIP3    H129455   7.600   2.314   0.310
 9838TIP3    H229456   7.611   2.347   0.163
 9839TIP3   OH229457   7.260   2.261   2.672
 9839TIP3    H129458   7.300   2.271   2.585
 9839TIP3    H229459   7.169   2.239   2.654
 9840TIP3   OH229460   2.735   6.514   6.886
 9840TIP3    H129461   2.659   6.473   6.845
 9840TIP3    H229462   2.762   6.583   6.825
 9841TIP3   OH229463   3.422   2.834   2.016
 9841TIP3    H129464   3.344   2.888   2.004
 9841TIP3    H229465   3.445   2.805   1.928
 9842TIP3   OH229466   2.658   4.921   4.974
 9842TIP3    H129467   2.663   5.015   4.992
 9842TIP3    H229468   2.584   4.912   4.915
 9843TIP3   OH229469   0.081   2.837   6.121
 9843TIP3    H129470   0.020   2.906   6.148
 9843TIP3    H229471   0.046   2.804   6.039
 9844TIP3   OH229472   0.501   4.357   2.863
 9844TIP3    H129473   0.475   4.363   2.771
 9844TIP3    H229474   0.427   4.394   2.911
 9845TIP3   OH229475   5.853   0.900   5.494
 9845TIP3    H129476   5.917   0.832   5.516
 9845TIP3    H229477   5.803   0.913   5.575
 9846TIP3   OH229478   5.645   2.453   1.147
 9846TIP3    H129479   5.575   2.478   1.207
 9846TIP3    H229480   5.723   2.450   1.201
 9847TIP3   OH229481   3.435   4.451   2.464
 9847TIP3    H129482   3.381   4.372   2.457
 9847TIP3    H229483   3.515   4.430   2.414
 9848TIP3   OH229484   0.725   6.446   4.833
 9848TIP3    H129485   0.686   6.419   4.749
 9848TIP3    H229486   0.800   6.389   4.844
 9849TIP3   OH229487   2.679   2.906   4.844
 9849TIP3    H129488   2.614   2.888   4.776
 9849TIP3    H229489   2.741   2.834   4.838
 9850TIP3   OH229490   2.261   5.096   3.679
 9850TIP3    H129491   2.320   5.020   3.674
 9850TIP3    H229492   2.183   5.068   3.632
 9851TIP3   OH229493   7.831   4.042   6.195
 9851TIP3    H129494   7.893   4.115   6.191
 9851TIP3    H229495   7.849   4.000   6.279
 9852TIP3   OH229496   5.546   1.382   1.335
 9852TIP3    H129497   5.598   1.334   1.399
 9852TIP3    H229498   5.609   1.404   1.266
 9853TIP3   OH229499   6.879   3.179   3.553
 9853TIP3    H129500   6.835   3.156   3.635
 9853TIP3    H229501   6.868   3.101   3.498
 9854TIP3   OH229502   3.648   3.350   4.523
 9854TIP3    H129503   3.622   3.413   4.590
 9854TIP3    H229504   3.715   3.394   4.472
 9855TIP3   OH229505   3.804   4.585   1.866
 9855TIP3    H129506   3.721   4.569   1.910
 9855TIP3    H229507   3.838   4.498   1.845
 9856TIP3   OH229508   5.862   4.320   6.663
 9856TIP3    H129509   5.814   4.317   6.746
 9856TIP3    H229510   5.860   4.231   6.630
 9857TIP3   OH229511   2.781   5.510   1.744
 9857TIP3    H129512   2.856   5.451   1.749
 9857TIP3    H229513   2.811   5.591   1.786
 9858TIP3   OH229514   7.701   5.847   4.145
 9858TIP3    H129515   7.704   5.796   4.226
 9858TIP3    H229516   7.787   5.889   4.140
 9859TIP3   OH229517   6.934   0.565   1.945
 9859TIP3    H129518   6.958   0.600   1.859
 9859TIP3    H229519   6.916   0.472   1.930
 9860TIP3   OH229520   2.877   6.547   0.288
 9860TIP3    H129521   2.822   6.595   0.226
 9860TIP3    H229522   2.815   6.498   0.342
 9861TIP3   OH229523   7.830   7.653   1.448
 9861TIP3    H129524   7.757   7.620   1.396
 9861TIP3    H229525   7.884   7.576   1.465
 9862TIP3   OH229526   3.878   2.463   1.474
 9862TIP3    H129527   3.923   2.443   1.391
 9862TIP3    H229528   3.915   2.400   1.536
 9863TIP3   OH229529   0.160   3.253   1.613
 9863TIP3    H129530   0.196   3.196   1.680
 9863TIP3    H229531   0.232   3.313   1.592
 9864TIP3   OH229532   1.291   7.284   5.023
 9864TIP3    H129533   1.274   7.374   4.996
 9864TIP3    H229534   1.368   7.259   4.972
 9865TIP3   OH229535   6.480   6.052   2.933
 9865TIP3    H129536   6.401   5.998   2.925
 9865TIP3    H229537   6.539   6.017   2.867
 9866TIP3   OH229538   3.813   1.067   2.582
 9866TIP3    H129539   3.747   1.011   2.623
 9866TIP3    H229540   3.895   1.019   2.596
 9867TIP3   OH229541   6.838   0.791   4.426
 9867TIP3    H129542   6.899   0.865   4.433
 9867TIP3    H229543   6.759   0.829   4.389
 9868TIP3   OH229544   1.676   7.760   6.521
 9868TIP3    H129545   1.684   7.768   6.426
 9868TIP3    H229546   1.638   7.844   6.549
 9869TIP3   OH229547   5.144   1.069   3.087
 9869TIP3    H129548   5.166   0.992   3.035
 9869TIP3    H229549   5.061   1.100   3.050
 9870TIP3   OH229550   6.515   4.485   3.849
 9870TIP3    H129551   6.519   4.397   3.814
 9870TIP3    H229552   6.598   4.497   3.895
 9871TIP3   OH229553   5.327   4.273   6.006
 9871TIP3    H129554   5.345   4.320   6.087
 9871TIP3    H229555   5.403   4.290   5.951
 9872TIP3   OH229556   1.998   4.755   3.700
 9872TIP3    H129557   2.012   4.800   3.784
 9872TIP3    H229558   1.904   4.764   3.683
 9873TIP3   OH229559   6.309   1.082   0.704
 9873TIP3    H129560   6.339   1.002   0.747
 9873TIP3    H229561   6.379   1.145   0.719
 9874TIP3   OH229562   0.045   6.925   0.510
 9874TIP3    H129563   0.037   6.968   0.595
 9874TIP3    H229564  -0.044   6.922   0.476
 9875TIP3   OH229565   3.651   4.584   3.082
 9875TIP3    H129566   3.620   4.616   3.166
 9875TIP3    H229567   3.644   4.660   3.023
 9876TIP3   OH229568   5.246   7.631   4.155
 9876TIP3    H129569   5.202   7.579   4.222
 9876TIP3    H229570   5.336   7.639   4.187
 9877TIP3   OH229571   3.220   1.187   3.163
 9877TIP3    H129572   3.151   1.249   3.139
 9877TIP3    H229573   3.297   1.215   3.115
 9878TIP3   OH229574   1.030   5.863   3.127
 9878TIP3    H129575   0.935   5.873   3.132
 9878TIP3    H229576   1.058   5.929   3.064
 9879TIP3   OH229577   1.995   3.609   2.087
 9879TIP3    H129578   2.031   3.525   2.114
 9879TIP3    H229579   2.024   3.621   1.997
 9880TIP3   OH229580   5.770   1.400   2.104
 9880TIP3    H129581   5.699   1.342   2.133
 9880TIP3    H229582   5.788   1.456   2.179
 9881TIP3   OH229583   6.247   2.860   6.007
 9881TIP3    H129584   6.163   2.817   6.018
 9881TIP3    H229585   6.303   2.795   5.965
 9882TIP3   OH229586   7.408   0.508   3.131
 9882TIP3    H129587   7.487   0.453   3.127
 9882TIP3    H229588   7.439   0.591   3.167
 9883TIP3   OH229589   2.132   6.929   4.676
 9883TIP3    H129590   2.226   6.913   4.677
 9883TIP3    H229591   2.093   6.845   4.701
 9884TIP3   OH229592   6.293   5.442   5.805
 9884TIP3    H129593   6.262   5.431   5.895
 9884TIP3    H229594   6.356   5.371   5.792
 9885TIP3   OH229595   8.096   1.421   4.468
 9885TIP3    H129596   8.177   1.403   4.422
 9885TIP3    H229597   8.100   1.366   4.546
 9886TIP3   OH229598   2.938   3.699   0.006
 9886TIP3    H129599   2.861   3.644  -0.011
 9886TIP3    H229600   2.911   3.754   0.080
 9887TIP3   OH229601   5.655   0.589   3.235
 9887TIP3    H129602   5.713   0.572   3.161
 9887TIP3    H229603   5.570   0.611   3.195
 9888TIP3   OH229604   6.354   6.240   3.773
 9888TIP3    H129605   6.301   6.294   3.832
 9888TIP3    H229606   6.442   6.242   3.810
 9889TIP3   OH229607   1.818   2.630   0.676
 9889TIP3    H129608   1.844   2.538   0.684
 9889TIP3    H229609   1.898   2.675   0.650
 9890TIP3   OH229610   1.039   3.759   4.024
 9890TIP3    H129611   1.017   3.691   3.960
 9890TIP3    H229612   1.105   3.813   3.981
 9891TIP3   OH229613   7.923   0.989   1.050
 9891TIP3    H129614   7.940   0.951   0.964
 9891TIP3    H229615   7.956   0.925   1.113
 9892TIP3   OH229616   4.284   3.345   4.249
 9892TIP3    H129617   4.199   3.322   4.286
 9892TIP3    H229618   4.343   3.353   4.324
 9893TIP3   OH229619   3.293   3.987   1.101
 9893TIP3    H129620   3.323   3.942   1.023
 9893TIP3    H229621   3.197   3.989   1.093
 9894TIP3   OH229622   2.178   5.799   2.506
 9894TIP3    H129623   2.236   5.731   2.471
 9894TIP3    H229624   2.107   5.805   2.442
 9895TIP3   OH229625   5.786   5.750   5.945
 9895TIP3    H129626   5.788   5.663   5.906
 9895TIP3    H229627   5.752   5.807   5.876
 9896TIP3   OH229628   0.565   6.384   3.423
 9896TIP3    H129629   0.523   6.324   3.362
 9896TIP3    H229630   0.574   6.334   3.504
 9897TIP3   OH229631   3.701   5.770   3.832
 9897TIP3    H129632   3.655   5.851   3.812
 9897TIP3    H229633   3.701   5.765   3.928
 9898TIP3   OH229634   0.430   5.492   4.315
 9898TIP3    H129635   0.351   5.440   4.328
 9898TIP3    H229636   0.405   5.581   4.339
 9899TIP3   OH229637   5.609   2.634   0.548
 9899TIP3    H129638   5.588   2.704   0.610
 9899TIP3    H229639   5.554   2.652   0.472
 9900TIP3   OH229640   3.431   6.654   4.708
 9900TIP3    H129641   3.356   6.710   4.689
 9900TIP3    H229642   3.492   6.710   4.755
 9901TIP3   OH229643   7.317   2.244   6.806
 9901TIP3    H129644   7.247   2.190   6.768
 9901TIP3    H229645   7.287   2.334   6.793
 9902TIP3   OH229646   8.193   5.674   5.517
 9902TIP3    H129647   8.181   5.602   5.455
 9902TIP3    H229648   8.214   5.749   5.462
 9903TIP3   OH229649   0.502   3.051   5.602
 9903TIP3    H129650   0.576   3.017   5.552
 9903TIP3    H229651   0.427   2.999   5.573
 9904TIP3   OH229652   2.507   0.215   1.822
 9904TIP3    H129653   2.595   0.204   1.857
 9904TIP3    H229654   2.519   0.256   1.737
 9905TIP3   OH229655   3.320   0.081   5.681
 9905TIP3    H129656   3.243   0.068   5.625
 9905TIP3    H229657   3.388   0.027   5.641
 9906TIP3   OH229658   3.317   5.132   6.237
 9906TIP3    H129659   3.357   5.094   6.315
 9906TIP3    H229660   3.234   5.086   6.227
 9907TIP3   OH229661   2.696   1.860   4.007
 9907TIP3    H129662   2.727   1.794   3.945
 9907TIP3    H229663   2.601   1.860   3.996
 9908TIP3   OH229664   7.609   0.657   1.217
 9908TIP3    H129665   7.664   0.620   1.147
 9908TIP3    H229666   7.547   0.713   1.171
 9909TIP3   OH229667   0.365   2.026   2.759
 9909TIP3    H129668   0.443   1.976   2.784
 9909TIP3    H229669   0.310   1.963   2.712
 9910TIP3   OH229670   4.406   5.492   0.903
 9910TIP3    H129671   4.498   5.465   0.908
 9910TIP3    H229672   4.357   5.411   0.919
 9911TIP3   OH229673   0.391   7.697   5.884
 9911TIP3    H129674   0.474   7.739   5.859
 9911TIP3    H229675   0.412   7.604   5.888
 9912TIP3   OH229676   4.827   7.675   3.242
 9912TIP3    H129677   4.749   7.621   3.228
 9912TIP3    H229678   4.892   7.614   3.277
 9913TIP3   OH229679   1.805   7.735   5.131
 9913TIP3    H129680   1.845   7.721   5.045
 9913TIP3    H229681   1.878   7.741   5.191
 9914TIP3   OH229682   7.201   2.506   6.718
 9914TIP3    H129683   7.228   2.565   6.788
 9914TIP3    H229684   7.107   2.518   6.711
 9915TIP3   OH229685   0.100   7.360   2.899
 9915TIP3    H129686   0.087   7.303   2.975
 9915TIP3    H229687   0.016   7.359   2.853
 9916TIP3   OH229688   2.155   7.283   3.358
 9916TIP3    H129689   2.190   7.354   3.412
 9916TIP3    H229690   2.232   7.237   3.325
 9917TIP3   OH229691   3.554   0.139   2.398
 9917TIP3    H129692   3.481   0.152   2.337
 9917TIP3    H229693   3.602   0.222   2.396
 9918TIP3   OH229694   2.778   7.547   3.110
 9918TIP3    H129695   2.833   7.572   3.185
 9918TIP3    H229696   2.836   7.496   3.054
 9919TIP3   OH229697   2.359   3.062   3.026
 9919TIP3    H129698   2.414   3.088   2.952
 9919TIP3    H229699   2.394   2.978   3.054
 9920TIP3   OH229700   2.572   1.604   6.034
 9920TIP3    H129701   2.566   1.687   6.081
 9920TIP3    H229702   2.487   1.562   6.049
 9921TIP3   OH229703   2.155   1.692   5.094
 9921TIP3    H129704   2.194   1.757   5.152
 9921TIP3    H229705   2.221   1.623   5.087
 9922TIP3   OH229706   6.096   4.320   3.800
 9922TIP3    H129707   6.024   4.364   3.755
 9922TIP3    H229708   6.085   4.345   3.892
 9923TIP3   OH229709   4.682   1.456   1.233
 9923TIP3    H129710   4.670   1.509   1.155
 9923TIP3    H229711   4.771   1.422   1.225
 9924TIP3   OH229712   2.489   1.602   0.286
 9924TIP3    H129713   2.419   1.630   0.346
 9924TIP3    H229714   2.510   1.513   0.314
 9925TIP3   OH229715   3.177   3.038   0.645
 9925TIP3    H129716   3.156   2.973   0.712
 9925TIP3    H229717   3.149   3.121   0.684
 9926TIP3   OH229718   4.577   0.209   4.924
 9926TIP3    H129719   4.585   0.162   4.842
 9926TIP3    H229720   4.654   0.266   4.927
 9927TIP3   OH229721   1.955   7.357   5.002
 9927TIP3    H129722   2.032   7.411   4.981
 9927TIP3    H229723   1.991   7.275   5.035
 9928TIP3   OH229724   1.244   3.362   2.780
 9928TIP3    H129725   1.158   3.352   2.821
 9928TIP3    H229726   1.257   3.280   2.733
 9929TIP3   OH229727   4.457   0.933   3.628
 9929TIP3    H129728   4.431   1.025   3.627
 9929TIP3    H229729   4.546   0.933   3.661
 9930TIP3   OH229730   6.209   2.202   4.894
 9930TIP3    H129731   6.215   2.164   4.981
 9930TIP3    H229732   6.269   2.150   4.841
 9931TIP3   OH229733   7.405   1.798   0.940
 9931TIP3    H129734   7.346   1.865   0.974
 9931TIP3    H229735   7.408   1.732   1.009
 9932TIP3   OH229736   7.563   1.181   5.289
 9932TIP3    H129737   7.612   1.127   5.227
 9932TIP3    H229738   7.624   1.198   5.360
 9933TIP3   OH229739   4.272   0.069   4.943
 9933TIP3    H129740   4.257   0.027   5.027
 9933TIP3    H229741   4.367   0.078   4.937
 9934TIP3   OH229742   5.988   2.643   5.494
 9934TIP3    H129743   5.992   2.716   5.556
 9934TIP3    H229744   5.924   2.671   5.429
 9935TIP3   OH229745   1.853   5.910   0.738
 9935TIP3    H129746   1.806   5.936   0.817
 9935TIP3    H229747   1.826   5.820   0.723
 9936TIP3   OH229748   0.818   3.995   2.851
 9936TIP3    H129749   0.753   3.976   2.920
 9936TIP3    H229750   0.902   3.972   2.891
 9937TIP3   OH229751   5.964   6.990   5.011
 9937TIP3    H129752   5.927   6.966   4.927
 9937TIP3    H229753   6.041   6.935   5.020
 9938TIP3   OH229754   3.217   7.335   6.184
 9938TIP3    H129755   3.161   7.257   6.181
 9938TIP3    H229756   3.260   7.331   6.269
 9939TIP3   OH229757   0.013   7.731   3.756
 9939TIP3    H129758  -0.072   7.767   3.733
 9939TIP3    H229759   0.075   7.803   3.740
 9940TIP3   OH229760   7.795   2.414   0.342
 9940TIP3    H129761   7.850   2.427   0.419
 9940TIP3    H229762   7.783   2.503   0.306
 9941TIP3   OH229763   2.508   0.801   4.481
 9941TIP3    H129764   2.542   0.795   4.391
 9941TIP3    H229765   2.566   0.743   4.532
 9942TIP3   OH229766   4.074   1.819   2.529
 9942TIP3    H129767   4.061   1.887   2.595
 9942TIP3    H229768   4.168   1.817   2.514
 9943TIP3   OH229769   3.973   6.524   0.917
 9943TIP3    H129770   4.044   6.459   0.913
 9943TIP3    H229771   3.930   6.517   0.832
 9944TIP3   OH229772   7.772   0.722   5.738
 9944TIP3    H129773   7.742   0.798   5.789
 9944TIP3    H229774   7.731   0.647   5.781
 9945TIP3   OH229775   7.764   2.535   5.513
 9945TIP3    H129776   7.734   2.624   5.495
 9945TIP3    H229777   7.749   2.488   5.431
 9946TIP3   OH229778   4.864   3.014   3.625
 9946TIP3    H129779   4.883   3.031   3.532
 9946TIP3    H229780   4.837   3.099   3.660
 9947TIP3   OH229781   1.518   4.306   1.517
 9947TIP3    H129782   1.604   4.333   1.484
 9947TIP3    H229783   1.538   4.246   1.589
 9948TIP3   OH229784   6.230   1.017   2.387
 9948TIP3    H129785   6.322   1.031   2.407
 9948TIP3    H229786   6.217   0.923   2.395
 9949TIP3   OH229787   4.348   6.910   5.620
 9949TIP3    H129788   4.386   6.847   5.681
 9949TIP3    H229789   4.381   6.882   5.534
 9950TIP3   OH229790   3.319   5.286   2.576
 9950TIP3    H129791   3.247   5.298   2.639
 9950TIP3    H229792   3.279   5.303   2.491
 9951TIP3   OH229793   4.159   2.765   0.238
 9951TIP3    H129794   4.230   2.726   0.288
 9951TIP3    H229795   4.090   2.699   0.238
 9952TIP3   OH229796   5.587   6.525   3.912
 9952TIP3    H129797   5.617   6.606   3.954
 9952TIP3    H229798   5.572   6.550   3.821
 9953TIP3   OH229799   7.805   3.554   5.017
 9953TIP3    H129800   7.814   3.547   4.922
 9953TIP3    H229801   7.852   3.479   5.052
 9954TIP3   OH229802   6.873   4.557   5.540
 9954TIP3    H129803   6.812   4.490   5.508
 9954TIP3    H229804   6.823   4.605   5.606
 9955TIP3   OH229805   0.056   4.124   4.658
 9955TIP3    H129806   0.029   4.062   4.590
 9955TIP3    H229807   0.003   4.202   4.641
 9956TIP3   OH229808   3.384   1.917   2.798
 9956TIP3    H129809   3.367   1.850   2.731
 9956TIP3    H229810   3.453   1.879   2.852
 9957TIP3   OH229811   6.295   1.693   3.610
 9957TIP3    H129812   6.348   1.649   3.676
 9957TIP3    H229813   6.332   1.781   3.605
 9958TIP3   OH229814   6.461   2.635   0.228
 9958TIP3    H129815   6.497   2.593   0.306
 9958TIP3    H229816   6.475   2.728   0.242
 9959TIP3   OH229817   4.136   3.923   4.724
 9959TIP3    H129818   4.106   4.014   4.727
 9959TIP3    H229819   4.226   3.929   4.690
 9960TIP3   OH229820   1.552   2.400   5.184
 9960TIP3    H129821   1.604   2.320   5.188
 9960TIP3    H229822   1.596   2.453   5.117
 9961TIP3   OH229823   7.504   1.385   0.769
 9961TIP3    H129824   7.489   1.342   0.853
 9961TIP3    H229825   7.557   1.462   0.791
 9962TIP3   OH229826   7.205   3.472   0.584
 9962TIP3    H129827   7.195   3.519   0.667
 9962TIP3    H229828   7.298   3.480   0.564
 9963TIP3   OH229829   3.363   2.609   4.660
 9963TIP3    H129830   3.278   2.564   4.664
 9963TIP3    H229831   3.404   2.590   4.744
 9964TIP3   OH229832   4.698   0.636   3.191
 9964TIP3    H129833   4.675   0.726   3.216
 9964TIP3    H229834   4.704   0.639   3.095
 9965TIP3   OH229835   4.165   4.543   4.557
 9965TIP3    H129836   4.093   4.605   4.570
 9965TIP3    H229837   4.221   4.585   4.492
 9966TIP3   OH229838   7.653   5.880   4.643
 9966TIP3    H129839   7.719   5.942   4.675
 9966TIP3    H229840   7.597   5.864   4.719
 9967TIP3   OH229841   4.614   6.796   0.687
 9967TIP3    H129842   4.594   6.704   0.674
 9967TIP3    H229843   4.709   6.798   0.699
 9968TIP3   OH229844   1.083   5.182   4.722
 9968TIP3    H129845   1.047   5.269   4.734
 9968TIP3    H229846   1.112   5.155   4.810
 9969TIP3   OH229847   0.318   1.947   0.361
 9969TIP3    H129848   0.383   2.015   0.373
 9969TIP3    H229849   0.317   1.931   0.266
 9970TIP3   OH229850   8.080   0.544   4.100
 9970TIP3    H129851   7.989   0.570   4.117
 9970TIP3    H229852   8.116   0.616   4.049
 9971TIP3   OH229853   7.134   2.516   1.013
 9971TIP3    H129854   7.071   2.456   0.974
 9971TIP3    H229855   7.201   2.528   0.946
 9972TIP3   OH229856   4.514   0.690   2.271
 9972TIP3    H129857   4.510   0.705   2.177
 9972TIP3    H229858   4.533   0.777   2.308
 9973TIP3   OH229859   7.705   0.480   1.027
 9973TIP3    H129860   7.774   0.536   0.992
 9973TIP3    H229861   7.733   0.391   1.004
 9974TIP3   OH229862   0.019   4.534   6.685
 9974TIP3    H129863   0.008   4.623   6.654
 9974TIP3    H229864   0.088   4.539   6.751
 9975TIP3   OH229865   8.029   1.700   4.466
 9975TIP3    H129866   7.951   1.689   4.521
 9975TIP3    H229867   8.044   1.614   4.428
 9976TIP3   OH229868   2.809   1.460   6.004
 9976TIP3    H129869   2.903   1.448   5.993
 9976TIP3    H229870   2.790   1.427   6.092
 9977TIP3   OH229871   1.809   1.523   0.034
 9977TIP3    H129872   1.832   1.511  -0.058
 9977TIP3    H229873   1.879   1.579   0.069
 9978TIP3   OH229874   6.825   6.055   3.862
 9978TIP3    H129875   6.755   6.053   3.797
 9978TIP3    H229876   6.889   5.992   3.831
 9979TIP3   OH229877   7.655   2.664   3.044
 9979TIP3    H129878   7.653   2.753   3.007
 9979TIP3    H229879   7.690   2.676   3.132
 9980TIP3   OH229880   1.582   6.948   0.815
 9980TIP3    H129881   1.653   7.012   0.813
 9980TIP3    H229882   1.537   6.959   0.731
 9981TIP3   OH229883   7.979   5.834   6.684
 9981TIP3    H129884   7.964   5.863   6.594
 9981TIP3    H229885   7.953   5.742   6.684
 9982TIP3   OH229886   4.245   5.641   2.381
 9982TIP3    H129887   4.302   5.632   2.458
 9982TIP3    H229888   4.189   5.563   2.384
 9983TIP3   OH229889   0.572   7.214   1.109
 9983TIP3    H129890   0.620   7.223   1.191
 9983TIP3    H229891   0.548   7.122   1.105
 9984TIP3   OH229892   2.805   6.329   3.168
 9984TIP3    H129893   2.736   6.264   3.157
 9984TIP3    H229894   2.795   6.388   3.093
 9985TIP3   OH229895   2.927   0.396   5.987
 9985TIP3    H129896   2.952   0.336   6.058
 9985TIP3    H229897   2.915   0.480   6.030
 9986TIP3   OH229898   6.712   1.317   1.414
 9986TIP3    H129899   6.649   1.362   1.358
 9986TIP3    H229900   6.781   1.290   1.354
 9987TIP3   OH229901   1.200   6.867   6.607
 9987TIP3    H129902   1.293   6.854   6.624
 9987TIP3    H229903   1.170   6.781   6.577
 9988TIP3   OH229904   1.747   4.274   5.670
 9988TIP3    H129905   1.774   4.196   5.623
 9988TIP3    H229906   1.765   4.254   5.762
 9989TIP3   OH229907   3.356   7.022   5.640
 9989TIP3    H129908   3.343   7.101   5.693
 9989TIP3    H229909   3.398   6.960   5.698
 9990TIP3   OH229910   6.669   0.087   1.474
 9990TIP3    H129911   6.610   0.112   1.403
 9990TIP3    H229912   6.712   0.007   1.442
 9991TIP3   OH229913   6.397   2.116   3.997
 9991TIP3    H129914   6.401   2.159   3.911
 9991TIP3    H229915   6.311   2.139   4.032
 9992TIP3   OH229916   1.984   0.835   4.643
 9992TIP3    H129917   2.042   0.894   4.691
 9992TIP3    H229918   2.039   0.761   4.617
 9993TIP3   OH229919   3.988   0.889   6.813
 9993TIP3    H129920   4.042   0.823   6.856
 9993TIP3    H229921   4.038   0.915   6.735
 9994TIP3   OH229922   4.164   6.272   6.846
 9994TIP3    H129923   4.209   6.346   6.888
 9994TIP3    H229924   4.233   6.227   6.797
 9995TIP3   OH229925   7.891   2.949   6.708
 9995TIP3    H129926   7.806   2.943   6.663
 9995TIP3    H229927   7.895   3.038   6.741
 9996TIP3   OH229928   7.454   0.580   2.472
 9996TIP3    H129929   7.366   0.580   2.435
 9996TIP3    H229930   7.512   0.584   2.395
 9997TIP3   OH229931   6.289   1.573   6.619
 9997TIP3    H129932   6.296   1.667   6.602
 9997TIP3    H229933   6.306   1.564   6.713
 9998TIP3   OH229934   2.524   5.379   0.863
 9998TIP3    H129935   2.582   5.319   0.910
 9998TIP3    H229936   2.562   5.386   0.775
 9999TIP3   OH229937   0.714   5.360   0.534
 9999TIP3    H129938   0.668   5.418   0.474
 9999TIP3    H229939   0.655   5.351   0.609
10000TIP3   OH229940   5.431   4.174   5.221
10000TIP3    H129941   5.365   4.207   5.160
10000TIP3    H229942   5.410   4.081   5.231
10001TIP3   OH229943   3.317   3.995   2.088
10001TIP3    H129944   3.264   3.946   2.026
10001TIP3    H229945   3.368   4.056   2.034
10002TIP3   OH229946   0.939   0.281   4.120
10002TIP3    H129947   0.976   0.280   4.032
10002TIP3    H229948   0.846   0.296   4.107
10003TIP3   OH229949   3.152   7.270   1.994
10003TIP3    H129950   3.135   7.240   1.905
10003TIP3    H229951   3.179   7.191   2.041
10004TIP3   OH229952   2.429   4.423   5.356
10004TIP3    H129953   2.492   4.412   5.428
10004TIP3    H229954   2.380   4.341   5.355
10005TIP3   OH229955   4.410   0.835   4.001
10005TIP3    H129956   4.468   0.908   3.978
10005TIP3    H229957   4.418   0.826   4.096
10006TIP3   OH229958   2.258   1.091   5.131
10006TIP3    H129959   2.320   1.077   5.060
10006TIP3    H229960   2.299   1.050   5.208
10007TIP3   OH229961   2.828   3.679   5.605
10007TIP3    H129962   2.752   3.731   5.580
10007TIP3    H229963   2.802   3.634   5.685
10008TIP3   OH229964   0.576   5.630   0.639
10008TIP3    H129965   0.502   5.685   0.663
10008TIP3    H229966   0.625   5.618   0.721
10009TIP3   OH229967   3.252   1.774   3.062
10009TIP3    H129968   3.290   1.808   3.143
10009TIP3    H229969   3.328   1.755   3.006
10010TIP3   OH229970   5.050   6.784   6.769
10010TIP3    H129971   4.984   6.854   6.768
10010TIP3    H229972   5.122   6.818   6.716
10011TIP3   OH229973   2.733   6.957   0.312
10011TIP3    H129974   2.783   7.038   0.305
10011TIP3    H229975   2.798   6.888   0.302
10012TIP3   OH229976   5.516   3.362   3.423
10012TIP3    H129977   5.435   3.409   3.444
10012TIP3    H229978   5.488   3.293   3.362
10013TIP3   OH229979   6.083   2.460   6.539
10013TIP3    H129980   6.132   2.473   6.458
10013TIP3    H229981   5.992   2.451   6.510
10014TIP3   OH229982   3.213   6.523   1.963
10014TIP3    H129983   3.172   6.545   1.879
10014TIP3    H229984   3.272   6.451   1.942
10015TIP3   OH229985   7.789   6.112   4.687
10015TIP3    H129986   7.733   6.155   4.752
10015TIP3    H229987   7.873   6.158   4.693
10016TIP3   OH229988   4.196   1.748   1.413
10016TIP3    H129989   4.171   1.797   1.491
10016TIP3    H229990   4.271   1.695   1.440
10017TIP3   OH229991   3.176   6.763   6.514
10017TIP3    H129992   3.189   6.734   6.605
10017TIP3    H229993   3.262   6.795   6.487
10018TIP3   OH229994   7.570   3.850   1.633
10018TIP3    H129995   7.476   3.840   1.619
10018TIP3    H229996   7.587   3.942   1.615
10019TIP3   OH229997   6.344   4.688   5.476
10019TIP3    H129998   6.286   4.612   5.477
10019TIP3    H229999   6.364   4.705   5.568
10020TIP3   OH230000   2.203   5.525   0.190
10020TIP3    H130001   2.175   5.476   0.268
10020TIP3    H230002   2.238   5.459   0.131
10021TIP3   OH230003   3.153   7.209   1.143
10021TIP3    H130004   3.097   7.174   1.213
10021TIP3    H230005   3.127   7.160   1.065
10022TIP3   OH230006   5.128   0.077   1.415
10022TIP3    H130007   5.110  -0.002   1.467
10022TIP3    H230008   5.042   0.106   1.386
10023TIP3   OH230009   3.626   7.674   3.103
10023TIP3    H130010   3.633   7.722   3.185
10023TIP3    H230011   3.682   7.723   3.042
10024TIP3   OH230012   5.797   5.521   4.612
10024TIP3    H130013   5.774   5.478   4.694
10024TIP3    H230014   5.853   5.458   4.566
10025TIP3   OH230015   2.961   2.356   5.685
10025TIP3    H130016   2.944   2.262   5.688
10025TIP3    H230017   2.876   2.396   5.665
10026TIP3   OH230018   4.772   0.369   2.962
10026TIP3    H130019   4.754   0.463   2.951
10026TIP3    H230020   4.719   0.327   2.893
10027TIP3   OH230021   2.749   5.100   6.179
10027TIP3    H130022   2.696   5.166   6.133
10027TIP3    H230023   2.694   5.070   6.251
10028TIP3   OH230024   4.637   4.080   1.798
10028TIP3    H130025   4.690   4.133   1.858
10028TIP3    H230026   4.655   4.117   1.712
10029TIP3   OH230027   3.765   4.974   0.333
10029TIP3    H130028   3.688   4.974   0.276
10029TIP3    H230029   3.825   4.911   0.292
10030TIP3   OH230030   3.007   7.065   5.758
10030TIP3    H130031   3.095   7.097   5.777
10030TIP3    H230032   3.021   6.978   5.720
10031TIP3   OH230033   5.089   7.184   0.667
10031TIP3    H130034   5.140   7.147   0.595
10031TIP3    H230035   4.999   7.155   0.650
10032TIP3   OH230036   5.680   4.006   3.030
10032TIP3    H130037   5.730   3.974   2.955
10032TIP3    H230038   5.632   3.930   3.062
10033TIP3   OH230039   7.844   2.798   1.221
10033TIP3    H130040   7.800   2.741   1.284
10033TIP3    H230041   7.896   2.738   1.167
10034TIP3   OH230042   0.129   2.857   3.632
10034TIP3    H130043   0.065   2.912   3.676
10034TIP3    H230044   0.120   2.771   3.674
10035TIP3   OH230045   4.053   3.072   2.274
10035TIP3    H130046   3.997   3.147   2.254
10035TIP3    H230047   4.065   3.028   2.190
10036TIP3   OH230048   2.785   4.748   6.404
10036TIP3    H130049   2.744   4.772   6.487
10036TIP3    H230050   2.879   4.753   6.421
10037TIP3   OH230051   7.551   2.425   3.283
10037TIP3    H130052   7.535   2.354   3.222
10037TIP3    H230053   7.475   2.425   3.341
10038TIP3   OH230054   2.663   2.869   1.709
10038TIP3    H130055   2.753   2.894   1.732
10038TIP3    H230056   2.664   2.774   1.708
10039TIP3   OH230057   2.065   6.322   1.533
10039TIP3    H130058   1.988   6.268   1.515
10039TIP3    H230059   2.092   6.354   1.447
10040TIP3   OH230060   6.699   0.803   3.614
10040TIP3    H130061   6.624   0.756   3.577
10040TIP3    H230062   6.766   0.735   3.625
10041TIP3   OH230063   5.489   4.080   0.556
10041TIP3    H130064   5.539   4.003   0.582
10041TIP3    H230065   5.400   4.047   0.542
10042TIP3   OH230066   5.880   4.442   3.709
10042TIP3    H130067   5.838   4.469   3.791
10042TIP3    H230068   5.809   4.407   3.656
10043TIP3   OH230069   1.095   7.820   4.786
10043TIP3    H130070   1.138   7.745   4.746
10043TIP3    H230071   1.075   7.791   4.875
10044TIP3   OH230072   6.764   6.273   0.495
10044TIP3    H130073   6.845   6.284   0.547
10044TIP3    H230074   6.786   6.312   0.410
10045TIP3   OH230075   5.371   3.036   0.281
10045TIP3    H130076   5.460   3.051   0.248
10045TIP3    H230077   5.329   3.122   0.275
10046TIP3   OH230078   8.188   4.833   6.044
10046TIP3    H130079   8.230   4.749   6.058
10046TIP3    H230080   8.165   4.863   6.132
10047TIP3   OH230081   5.587   1.226   6.587
10047TIP3    H130082   5.614   1.145   6.631
10047TIP3    H230083   5.655   1.289   6.610
10048TIP3   OH230084   1.043   3.525   6.598
10048TIP3    H130085   0.950   3.532   6.580
10048TIP3    H230086   1.085   3.559   6.519
10049TIP3   OH230087   3.397   3.859   0.866
10049TIP3    H130088   3.332   3.893   0.804
10049TIP3    H230089   3.474   3.914   0.853
10050TIP3   OH230090   2.901   6.057   4.929
10050TIP3    H130091   2.926   6.148   4.916
10050TIP3    H230092   2.867   6.054   5.018
10051TIP3   OH230093   3.201   5.242   3.646
10051TIP3    H130094   3.155   5.161   3.669
10051TIP3    H230095   3.285   5.236   3.691
10052TIP3   OH230096   1.218   6.526   3.121
10052TIP3    H130097   1.195   6.554   3.210
10052TIP3    H230098   1.172   6.588   3.064
10053TIP3   OH230099   2.811   2.538   2.666
10053TIP3    H130100   2.888   2.580   2.625
10053TIP3    H230101   2.792   2.593   2.742
10054TIP3   OH230102   2.295   3.857   1.647
10054TIP3    H130103   2.274   3.862   1.741
10054TIP3    H230104   2.379   3.901   1.639
10055TIP3   OH230105   3.011   1.564   6.395
10055TIP3    H130106   2.968   1.613   6.325
10055TIP3    H230107   2.947   1.563   6.466
10056TIP3   OH230108   4.318   1.701   6.035
10056TIP3    H130109   4.413   1.697   6.038
10056TIP3    H230110   4.289   1.623   6.081
10057TIP3   OH230111   6.577   3.723   1.671
10057TIP3    H130112   6.604   3.810   1.643
10057TIP3    H230113   6.515   3.694   1.604
10058TIP3   OH230114   2.347   6.407   1.098
10058TIP3    H130115   2.257   6.378   1.106
10058TIP3    H230116   2.367   6.399   1.005
10059TIP3   OH230117   6.239   7.461   0.196
10059TIP3    H130118   6.222   7.367   0.198
10059TIP3    H230119   6.283   7.476   0.112
10060TIP3   OH230120   4.667   2.519   1.029
10060TIP3    H130121   4.672   2.556   0.941
10060TIP3    H230122   4.754   2.481   1.044
10061TIP3   OH230123   3.367   5.420   4.274
10061TIP3    H130124   3.385   5.327   4.281
10061TIP3    H230125   3.296   5.436   4.336
10062TIP3   OH230126   1.642   1.445   2.305
10062TIP3    H130127   1.677   1.532   2.325
10062TIP3    H230128   1.561   1.463   2.256
10063TIP3   OH230129   0.609   3.688   6.389
10063TIP3    H130130   0.525   3.658   6.424
10063TIP3    H230131   0.587   3.766   6.338
10064TIP3   OH230132   1.599   6.779   4.782
10064TIP3    H130133   1.620   6.845   4.847
10064TIP3    H230134   1.643   6.700   4.812
10065TIP3   OH230135   0.496   0.193   6.694
10065TIP3    H130136   0.543   0.116   6.727
10065TIP3    H230137   0.472   0.169   6.605
10066TIP3   OH230138   5.097   5.469   4.394
10066TIP3    H130139   5.162   5.439   4.457
10066TIP3    H230140   5.013   5.448   4.435
10067TIP3   OH230141   7.112   3.026   3.168
10067TIP3    H130142   7.141   2.947   3.214
10067TIP3    H230143   7.186   3.085   3.174
10068TIP3   OH230144   1.262   3.621   4.942
10068TIP3    H130145   1.194   3.638   5.008
10068TIP3    H230146   1.234   3.670   4.865
10069TIP3   OH230147   0.429   7.771   4.226
10069TIP3    H130148   0.449   7.741   4.137
10069TIP3    H230149   0.468   7.858   4.230
10070TIP3   OH230150   5.512   7.844   2.073
10070TIP3    H130151   5.476   7.927   2.103
10070TIP3    H230152   5.443   7.806   2.018
10071TIP3   OH230153   2.562   3.593   5.291
10071TIP3    H130154   2.617   3.564   5.364
10071TIP3    H230155   2.620   3.646   5.236
10072TIP3   OH230156   7.841   5.997   0.668
10072TIP3    H130157   7.855   6.043   0.585
10072TIP3    H230158   7.760   6.035   0.703
10073TIP3   OH230159   3.958   3.717   0.337
10073TIP3    H130160   3.996   3.792   0.292
10073TIP3    H230161   3.886   3.688   0.280
10074TIP3   OH230162   6.459   5.935   2.315
10074TIP3    H130163   6.410   6.001   2.267
10074TIP3    H230164   6.414   5.928   2.399
10075TIP3   OH230165   4.089   7.830   2.394
10075TIP3    H130166   4.154   7.766   2.422
10075TIP3    H230167   4.131   7.915   2.408
10076TIP3   OH230168   8.190   4.755   1.502
10076TIP3    H130169   8.255   4.745   1.572
10076TIP3    H230170   8.141   4.834   1.527
10077TIP3   OH230171   4.855   2.784   4.791
10077TIP3    H130172   4.777   2.753   4.744
10077TIP3    H230173   4.898   2.843   4.729
10078TIP3   OH230174   8.330   7.518   3.920
10078TIP3    H130175   8.372   7.572   3.853
10078TIP3    H230176   8.389   7.525   3.996
10079TIP3   OH230177   7.041   1.957   2.001
10079TIP3    H130178   7.092   2.038   2.000
10079TIP3    H230179   7.016   1.946   2.093
10080TIP3   OH230180   1.603   0.911   2.718
10080TIP3    H130181   1.674   0.885   2.776
10080TIP3    H230182   1.569   0.992   2.757
10081TIP3   OH230183   6.244   4.573   0.424
10081TIP3    H130184   6.327   4.549   0.465
10081TIP3    H230185   6.190   4.495   0.431
10082TIP3   OH230186   6.643   4.205   3.203
10082TIP3    H130187   6.589   4.131   3.232
10082TIP3    H230188   6.658   4.190   3.110
10083TIP3   OH230189   7.643   3.539   1.044
10083TIP3    H130190   7.558   3.527   1.002
10083TIP3    H230191   7.646   3.633   1.065
10084TIP3   OH230192   1.186   4.148   0.617
10084TIP3    H130193   1.150   4.124   0.702
10084TIP3    H230194   1.168   4.073   0.561
10085TIP3   OH230195   5.656   5.041   0.741
10085TIP3    H130196   5.681   4.997   0.822
10085TIP3    H230197   5.560   5.044   0.745
10086TIP3   OH230198   6.809   1.482   3.564
10086TIP3    H130199   6.742   1.521   3.507
10086TIP3    H230200   6.879   1.455   3.504
10087TIP3   OH230201   8.170   2.482   2.217
10087TIP3    H130202   8.089   2.533   2.219
10087TIP3    H230203   8.233   2.541   2.174
10088TIP3   OH230204   6.767   0.548   0.082
10088TIP3    H130205   6.860   0.537   0.102
10088TIP3    H230206   6.723   0.545   0.167
10089TIP3   OH230207   5.911   6.963   4.694
10089TIP3    H130208   5.916   6.921   4.608
10089TIP3    H230209   5.825   6.938   4.727
10090TIP3   OH230210   1.877   6.922   5.955
10090TIP3    H130211   1.931   6.955   6.026
10090TIP3    H230212   1.792   6.965   5.967
10091TIP3   OH230213   3.989   2.151   6.387
10091TIP3    H130214   3.952   2.178   6.302
10091TIP3    H230215   4.076   2.118   6.366
10092TIP3   OH230216   7.548   0.984   0.610
10092TIP3    H130217   7.588   1.071   0.613
10092TIP3    H230218   7.480   0.991   0.544
10093TIP3   OH230219   5.619   6.058   0.471
10093TIP3    H130220   5.535   6.087   0.507
10093TIP3    H230221   5.598   5.978   0.422
10094TIP3   OH230222   0.280   7.007   4.915
10094TIP3    H130223   0.311   7.097   4.925
10094TIP3    H230224   0.222   6.993   4.990
10095TIP3   OH230225   4.586   1.327   5.837
10095TIP3    H130226   4.565   1.234   5.839
10095TIP3    H230227   4.505   1.369   5.808
10096TIP3   OH230228   1.622   6.895   4.277
10096TIP3    H130229   1.696   6.920   4.222
10096TIP3    H230230   1.661   6.879   4.363
10097TIP3   OH230231   8.364   6.721   5.334
10097TIP3    H130232   8.316   6.790   5.288
10097TIP3    H230233   8.299   6.653   5.349
10098TIP3   OH230234   2.007   3.786   5.419
10098TIP3    H130235   2.024   3.701   5.460
10098TIP3    H230236   1.983   3.843   5.492
10099TIP3   OH230237   7.957   5.038   2.240
10099TIP3    H130238   7.919   5.099   2.303
10099TIP3    H230239   7.949   5.084   2.156
10100TIP3   OH230240   3.394   2.770   1.052
10100TIP3    H130241   3.488   2.759   1.060
10100TIP3    H230242   3.358   2.737   1.135
10101TIP3   OH230243   0.118   5.533   0.253
10101TIP3    H130244   0.150   5.610   0.206
10101TIP3    H230245   0.144   5.548   0.344
10102TIP3   OH230246   3.710   3.103   0.257
10102TIP3    H130247   3.704   3.104   0.353
10102TIP3    H230248   3.681   3.016   0.232
10103TIP3   OH230249   2.231   0.071   4.930
10103TIP3    H130250   2.323   0.095   4.920
10103TIP3    H230251   2.227   0.022   5.012
10104TIP3   OH230252   7.537   4.701   1.425
10104TIP3    H130253   7.533   4.621   1.373
10104TIP3    H230254   7.450   4.740   1.418
10105TIP3   OH230255   3.626   6.682   0.773
10105TIP3    H130256   3.720   6.703   0.769
10105TIP3    H230257   3.582   6.766   0.761
10106TIP3   OH230258   2.106   7.846   2.782
10106TIP3    H130259   2.176   7.803   2.732
10106TIP3    H230260   2.032   7.847   2.722
10107TIP3   OH230261   1.615   4.867   6.530
10107TIP3    H130262   1.531   4.901   6.562
10107TIP3    H230263   1.669   4.945   6.518
10108TIP3   OH230264   4.700   7.216   0.535
10108TIP3    H130265   4.765   7.180   0.476
10108TIP3    H230266   4.648   7.141   0.563
10109TIP3   OH230267   6.999   0.349   3.498
10109TIP3    H130268   7.033   0.263   3.477
10109TIP3    H230269   6.981   0.345   3.592
10110TIP3   OH230270   0.618   0.951   3.373
10110TIP3    H130271   0.667   1.031   3.354
10110TIP3    H230272   0.626   0.898   3.294
10111TIP3   OH230273   6.729   7.868   5.851
10111TIP3    H130274   6.777   7.943   5.816
10111TIP3    H230275   6.788   7.829   5.915
10112TIP3   OH230276   2.968   0.486   4.682
10112TIP3    H130277   2.941   0.533   4.761
10112TIP3    H230278   3.004   0.555   4.625
10113TIP3   OH230279   8.337   5.054   4.574
10113TIP3    H130280   8.399   5.005   4.520
10113TIP3    H230281   8.255   5.007   4.565
10114TIP3   OH230282   0.417   4.397   2.600
10114TIP3    H130283   0.370   4.477   2.626
10114TIP3    H230284   0.475   4.426   2.530
10115TIP3   OH230285   4.264   4.904   4.832
10115TIP3    H130286   4.306   4.954   4.902
10115TIP3    H230287   4.214   4.969   4.782
10116TIP3   OH230288   1.931   1.667   0.748
10116TIP3    H130289   1.893   1.754   0.735
10116TIP3    H230290   1.857   1.607   0.736
10117TIP3   OH230291   1.443   4.334   1.251
10117TIP3    H130292   1.518   4.280   1.228
10117TIP3    H230293   1.448   4.342   1.347
10118TIP3   OH230294   5.072   0.203   2.322
10118TIP3    H130295   5.067   0.253   2.403
10118TIP3    H230296   5.123   0.125   2.345
10119TIP3   OH230297   5.930   2.947   0.288
10119TIP3    H130298   5.913   2.994   0.370
10119TIP3    H230299   5.889   2.862   0.301
10120TIP3   OH230300   0.860   3.407   1.424
10120TIP3    H130301   0.930   3.356   1.382
10120TIP3    H230302   0.811   3.342   1.475
10121TIP3   OH230303   4.967   4.724   4.890
10121TIP3    H130304   4.894   4.741   4.830
10121TIP3    H230305   5.026   4.667   4.842
10122TIP3   OH230306   3.306   5.790   3.467
10122TIP3    H130307   3.400   5.774   3.473
10122TIP3    H230308   3.291   5.869   3.518
10123TIP3   OH230309   1.378   2.891   2.397
10123TIP3    H130310   1.450   2.939   2.355
10123TIP3    H230311   1.405   2.883   2.489
10124TIP3   OH230312   3.465   2.496   3.786
10124TIP3    H130313   3.478   2.588   3.808
10124TIP3    H230314   3.394   2.497   3.721
10125TIP3   OH230315   4.941   3.995   5.591
10125TIP3    H130316   4.985   3.919   5.631
10125TIP3    H230317   4.980   4.002   5.504
10126TIP3   OH230318   0.466   0.272   5.289
10126TIP3    H130319   0.539   0.321   5.326
10126TIP3    H230320   0.397   0.338   5.278
10127TIP3   OH230321   0.964   4.255   5.437
10127TIP3    H130322   0.935   4.281   5.349
10127TIP3    H230323   1.046   4.207   5.421
10128TIP3   OH230324   2.521   7.588   6.607
10128TIP3    H130325   2.559   7.642   6.676
10128TIP3    H230326   2.555   7.626   6.525
10129TIP3   OH230327   1.935   7.842   0.318
10129TIP3    H130328   1.877   7.807   0.385
10129TIP3    H230329   1.878   7.894   0.262
10130TIP3   OH230330   2.228   7.568   5.508
10130TIP3    H130331   2.264   7.657   5.513
10130TIP3    H230332   2.218   7.551   5.415
10131TIP3   OH230333   1.816   3.987   5.625
10131TIP3    H130334   1.792   3.925   5.694
10131TIP3    H230335   1.912   3.982   5.620
10132TIP3   OH230336   5.658   3.002   2.667
10132TIP3    H130337   5.720   2.954   2.722
10132TIP3    H230338   5.701   3.009   2.582
10133TIP3   OH230339   1.275   3.956   2.503
10133TIP3    H130340   1.196   3.937   2.452
10133TIP3    H230341   1.325   3.874   2.500
10134TIP3   OH230342   1.244   0.088   1.706
10134TIP3    H130343   1.327   0.063   1.666
10134TIP3    H230344   1.181   0.022   1.675
10135TIP3   OH230345   1.774   0.615   0.152
10135TIP3    H130346   1.757   0.706   0.176
10135TIP3    H230347   1.856   0.618   0.102
10136TIP3   OH230348   7.722   0.060   5.066
10136TIP3    H130349   7.807   0.046   5.025
10136TIP3    H230350   7.709   0.155   5.064
10137TIP3   OH230351   2.506   5.400   5.145
10137TIP3    H130352   2.438   5.336   5.167
10137TIP3    H230353   2.457   5.479   5.123
10138TIP3   OH230354   2.035   4.011   3.208
10138TIP3    H130355   1.965   3.997   3.272
10138TIP3    H230356   2.105   3.952   3.237
10139TIP3   OH230357   1.022   5.796   5.887
10139TIP3    H130358   1.107   5.837   5.901
10139TIP3    H230359   0.998   5.761   5.973
10140TIP3   OH230360   8.336   4.210   1.495
10140TIP3    H130361   8.321   4.119   1.523
10140TIP3    H230362   8.426   4.228   1.521
10141TIP3   OH230363   7.448   5.143   2.443
10141TIP3    H130364   7.531   5.183   2.465
10141TIP3    H230365   7.435   5.075   2.509
10142TIP3   OH230366   7.859   7.136   5.840
10142TIP3    H130367   7.898   7.193   5.906
10142TIP3    H230368   7.769   7.122   5.869
10143TIP3   OH230369   6.806   4.442   6.131
10143TIP3    H130370   6.715   4.428   6.156
10143TIP3    H230371   6.835   4.357   6.097
10144TIP3   OH230372   1.623   2.775   4.813
10144TIP3    H130373   1.636   2.748   4.722
10144TIP3    H230374   1.712   2.794   4.845
10145TIP3   OH230375   3.223   0.166   5.943
10145TIP3    H130376   3.247   0.130   5.858
10145TIP3    H230377   3.144   0.119   5.968
10146TIP3   OH230378   5.396   0.582   1.335
10146TIP3    H130379   5.338   0.506   1.342
10146TIP3    H230380   5.379   0.632   1.415
10147TIP3   OH230381   7.223   0.322   4.817
10147TIP3    H130382   7.129   0.329   4.800
10147TIP3    H230383   7.263   0.388   4.760
10148TIP3   OH230384   6.127   1.328   4.998
10148TIP3    H130385   6.136   1.364   4.910
10148TIP3    H230386   6.038   1.350   5.024
10149TIP3   OH230387   0.033   3.848   1.972
10149TIP3    H130388   0.102   3.784   1.992
10149TIP3    H230389   0.021   3.896   2.055
10150TIP3   OH230390   0.977   0.981   3.601
10150TIP3    H130391   1.012   1.036   3.671
10150TIP3    H230392   1.044   0.983   3.533
10151TIP3   OH230393   1.859   1.925   5.985
10151TIP3    H130394   1.905   1.898   5.906
10151TIP3    H230395   1.773   1.883   5.978
10152TIP3   OH230396   2.058   5.465   3.313
10152TIP3    H130397   2.105   5.548   3.321
10152TIP3    H230398   2.075   5.419   3.395
10153TIP3   OH230399   0.790   7.156   4.583
10153TIP3    H130400   0.863   7.095   4.593
10153TIP3    H230401   0.756   7.139   4.495
10154TIP3   OH230402   7.928   4.233   2.399
10154TIP3    H130403   7.972   4.149   2.409
10154TIP3    H230404   7.892   4.251   2.486
10155TIP3   OH230405   0.881   3.248   5.715
10155TIP3    H130406   0.833   3.296   5.647
10155TIP3    H230407   0.971   3.283   5.709
10156TIP3   OH230408   4.954   4.171   1.343
10156TIP3    H130409   4.972   4.233   1.273
10156TIP3    H230410   5.023   4.186   1.407
10157TIP3   OH230411   4.632   2.493   1.630
10157TIP3    H130412   4.679   2.540   1.699
10157TIP3    H230413   4.690   2.498   1.554
10158TIP3   OH230414   1.441   2.265   3.453
10158TIP3    H130415   1.501   2.191   3.444
10158TIP3    H230416   1.491   2.330   3.504
10159TIP3   OH230417   0.787   4.726   1.581
10159TIP3    H130418   0.692   4.716   1.590
10159TIP3    H230419   0.799   4.756   1.491
10160TIP3   OH230420   4.101   1.817   2.939
10160TIP3    H130421   4.065   1.869   2.867
10160TIP3    H230422   4.038   1.828   3.010
10161TIP3   OH230423   7.766   2.766   6.460
10161TIP3    H130424   7.842   2.729   6.505
10161TIP3    H230425   7.690   2.723   6.501
10162TIP3   OH230426   4.150   7.816   5.665
10162TIP3    H130427   4.072   7.791   5.714
10162TIP3    H230428   4.196   7.878   5.722
10163TIP3   OH230429   0.474   3.889   0.151
10163TIP3    H130430   0.562   3.893   0.188
10163TIP3    H230431   0.425   3.834   0.212
10164TIP3   OH230432   3.668   6.774   2.967
10164TIP3    H130433   3.724   6.702   2.937
10164TIP3    H230434   3.728   6.841   2.998
10165TIP3   OH230435   3.595   1.645   3.551
10165TIP3    H130436   3.675   1.636   3.602
10165TIP3    H230437   3.613   1.715   3.488
10166TIP3   OH230438   8.164   0.669   3.531
10166TIP3    H130439   8.237   0.725   3.556
10166TIP3    H230440   8.146   0.616   3.609
10167TIP3   OH230441   1.686   4.172   3.284
10167TIP3    H130442   1.690   4.125   3.367
10167TIP3    H230443   1.618   4.239   3.297
10168TIP3   OH230444   5.199   3.547   1.557
10168TIP3    H130445   5.228   3.469   1.510
10168TIP3    H230446   5.179   3.611   1.489
10169TIP3   OH230447   6.824   7.378   4.909
10169TIP3    H130448   6.781   7.457   4.943
10169TIP3    H230449   6.755   7.312   4.908
10170TIP3   OH230450   2.640   7.894   0.873
10170TIP3    H130451   2.662   7.907   0.781
10170TIP3    H230452   2.564   7.835   0.872
10171TIP3   OH230453   8.286   1.209   3.293
10171TIP3    H130454   8.272   1.115   3.303
10171TIP3    H230455   8.381   1.219   3.291
10172TIP3   OH230456   3.744   5.352   4.048
10172TIP3    H130457   3.656   5.354   4.012
10172TIP3    H230458   3.749   5.267   4.092
10173TIP3   OH230459   5.242   0.149   0.159
10173TIP3    H130460   5.295   0.116   0.087
10173TIP3    H230461   5.163   0.096   0.157
10174TIP3   OH230462   6.646   7.021   4.710
10174TIP3    H130463   6.725   7.033   4.658
10174TIP3    H230464   6.577   7.065   4.661
10175TIP3   OH230465   4.052   5.749   6.731
10175TIP3    H130466   3.979   5.691   6.754
10175TIP3    H230467   4.130   5.701   6.760
10176TIP3   OH230468   1.019   5.425   4.774
10176TIP3    H130469   1.001   5.476   4.853
10176TIP3    H230470   0.963   5.462   4.707
10177TIP3   OH230471   1.521   0.515   0.050
10177TIP3    H130472   1.502   0.537  -0.041
10177TIP3    H230473   1.613   0.542   0.063
10178TIP3   OH230474   3.520   1.201   6.495
10178TIP3    H130475   3.605   1.242   6.477
10178TIP3    H230476   3.538   1.108   6.502
10179TIP3   OH230477   1.704   7.385   3.288
10179TIP3    H130478   1.611   7.372   3.269
10179TIP3    H230479   1.727   7.466   3.243
10180TIP3   OH230480   1.609   4.505   2.893
10180TIP3    H130481   1.534   4.531   2.946
10180TIP3    H230482   1.674   4.474   2.956
10181TIP3   OH230483   1.902   6.263   0.579
10181TIP3    H130484   1.857   6.252   0.495
10181TIP3    H230485   1.838   6.236   0.645
10182TIP3   OH230486   5.493   6.572   0.500
10182TIP3    H130487   5.551   6.497   0.503
10182TIP3    H230488   5.418   6.543   0.449
10183TIP3   OH230489   7.523   0.465   2.882
10183TIP3    H130490   7.539   0.450   2.789
10183TIP3    H230491   7.589   0.411   2.927
10184TIP3   OH230492   2.312   0.155   0.235
10184TIP3    H130493   2.383   0.198   0.188
10184TIP3    H230494   2.349   0.070   0.260
10185TIP3   OH230495   1.111   5.866   2.203
10185TIP3    H130496   1.206   5.860   2.212
10185TIP3    H230497   1.094   5.955   2.172
10186TIP3   OH230498   3.014   0.949   4.297
10186TIP3    H130499   3.011   1.042   4.319
10186TIP3    H230500   3.012   0.947   4.201
10187TIP3   OH230501   7.163   3.757   2.686
10187TIP3    H130502   7.258   3.763   2.694
10187TIP3    H230503   7.129   3.812   2.757
10188TIP3   OH230504   6.308   1.874   4.273
10188TIP3    H130505   6.331   1.831   4.191
10188TIP3    H230506   6.212   1.872   4.275
10189TIP3   OH230507   2.427   6.701   3.742
10189TIP3    H130508   2.413   6.607   3.729
10189TIP3    H230509   2.436   6.737   3.654
10190TIP3   OH230510   3.591   5.624   4.906
10190TIP3    H130511   3.641   5.549   4.937
10190TIP3    H230512   3.644   5.700   4.928
10191TIP3   OH230513   4.837   4.823   2.764
10191TIP3    H130514   4.758   4.873   2.781
10191TIP3    H230515   4.877   4.811   2.850
10192TIP3   OH230516   4.225   2.060   3.186
10192TIP3    H130517   4.156   2.111   3.143
10192TIP3    H230518   4.299   2.064   3.124
10193TIP3   OH230519   4.364   7.075   5.067
10193TIP3    H130520   4.360   7.104   4.975
10193TIP3    H230521   4.430   7.006   5.067
10194TIP3   OH230522   4.644   5.723   6.100
10194TIP3    H130523   4.579   5.747   6.165
10194TIP3    H230524   4.646   5.797   6.039
10195TIP3   OH230525   1.389   4.973   2.070
10195TIP3    H130526   1.457   5.020   2.023
10195TIP3    H230527   1.316   5.034   2.076
10196TIP3   OH230528   3.878   1.489   1.676
10196TIP3    H130529   3.941   1.464   1.744
10196TIP3    H230530   3.828   1.409   1.660
10197TIP3   OH230531   6.662   3.725   3.044
10197TIP3    H130532   6.708   3.780   3.107
10197TIP3    H230533   6.572   3.721   3.076
10198TIP3   OH230534   1.540   2.318   1.636
10198TIP3    H130535   1.571   2.244   1.584
10198TIP3    H230536   1.446   2.303   1.645
10199TIP3   OH230537   2.387   7.135   0.836
10199TIP3    H130538   2.370   7.051   0.879
10199TIP3    H230539   2.320   7.140   0.767
10200TIP3   OH230540   5.007   2.128   4.957
10200TIP3    H130541   5.010   2.217   4.923
10200TIP3    H230542   5.003   2.072   4.879
10201TIP3   OH230543   3.299   0.931   1.269
10201TIP3    H130544   3.385   0.942   1.230
10201TIP3    H230545   3.240   0.981   1.213
10202TIP3   OH230546   4.090   3.312   1.222
10202TIP3    H130547   4.098   3.243   1.156
10202TIP3    H230548   4.161   3.373   1.200
10203TIP3   OH230549   2.045   5.943   5.250
10203TIP3    H130550   2.074   5.999   5.322
10203TIP3    H230551   2.041   6.001   5.174
10204TIP3   OH230552   6.718   6.824   6.388
10204TIP3    H130553   6.704   6.816   6.294
10204TIP3    H230554   6.795   6.880   6.396
10205TIP3   OH230555   0.480   0.302   0.258
10205TIP3    H130556   0.396   0.347   0.255
10205TIP3    H230557   0.482   0.259   0.343
10206TIP3   OH230558   4.110   5.491   6.111
10206TIP3    H130559   4.089   5.401   6.136
10206TIP3    H230560   4.192   5.510   6.156
10207TIP3   OH230561   6.358   4.204   2.428
10207TIP3    H130562   6.339   4.186   2.336
10207TIP3    H230563   6.327   4.293   2.442
10208TIP3   OH230564   3.413   7.458   5.268
10208TIP3    H130565   3.341   7.405   5.235
10208TIP3    H230566   3.372   7.537   5.303
10209TIP3   OH230567   0.397   2.481   4.100
10209TIP3    H130568   0.364   2.464   4.012
10209TIP3    H230569   0.454   2.407   4.119
10210TIP3   OH230570   0.849   2.215   5.217
10210TIP3    H130571   0.905   2.203   5.294
10210TIP3    H230572   0.843   2.310   5.206
10211TIP3   OH230573   7.288   7.247   2.883
10211TIP3    H130574   7.345   7.215   2.952
10211TIP3    H230575   7.336   7.229   2.802
10212TIP3   OH230576   2.424   5.605   2.093
10212TIP3    H130577   2.509   5.597   2.136
10212TIP3    H230578   2.384   5.518   2.103
10213TIP3   OH230579   2.543   4.215   3.072
10213TIP3    H130580   2.468   4.170   3.032
10213TIP3    H230581   2.505   4.293   3.113
10214TIP3   OH230582   4.765   3.560   3.944
10214TIP3    H130583   4.783   3.627   4.010
10214TIP3    H230584   4.807   3.481   3.978
10215TIP3   OH230585   4.633   3.561   2.351
10215TIP3    H130586   4.555   3.607   2.320
10215TIP3    H230587   4.690   3.630   2.383
10216TIP3   OH230588   3.610   5.534   4.246
10216TIP3    H130589   3.654   5.463   4.198
10216TIP3    H230590   3.517   5.509   4.244
10217TIP3   OH230591   1.374   1.209   5.268
10217TIP3    H130592   1.459   1.184   5.304
10217TIP3    H230593   1.383   1.302   5.245
10218TIP3   OH230594   7.128   5.571   2.586
10218TIP3    H130595   7.078   5.626   2.525
10218TIP3    H230596   7.153   5.495   2.533
10219TIP3   OH230597   2.297   5.021   0.076
10219TIP3    H130598   2.282   4.939   0.124
10219TIP3    H230599   2.314   4.992  -0.014
10220TIP3   OH230600   7.719   1.482   4.354
10220TIP3    H130601   7.807   1.457   4.326
10220TIP3    H230602   7.706   1.434   4.436
10221TIP3   OH230603   4.636   0.867   2.710
10221TIP3    H130604   4.595   0.806   2.648
10221TIP3    H230605   4.563   0.909   2.754
10222TIP3   OH230606   8.186   1.250   0.867
10222TIP3    H130607   8.232   1.271   0.948
10222TIP3    H230608   8.195   1.155   0.858
10223TIP3   OH230609   5.316   2.201   1.221
10223TIP3    H130610   5.383   2.246   1.274
10223TIP3    H230611   5.239   2.199   1.277
10224TIP3   OH230612   5.073   7.378   4.215
10224TIP3    H130613   5.062   7.330   4.133
10224TIP3    H230614   4.984   7.397   4.244
10225TIP3   OH230615   2.055   1.935   2.097
10225TIP3    H130616   2.134   1.986   2.079
10225TIP3    H230617   2.076   1.846   2.069
10226TIP3   OH230618   6.432   3.853   0.580
10226TIP3    H130619   6.472   3.779   0.534
10226TIP3    H230620   6.354   3.875   0.529
10227TIP3   OH230621   1.424   1.861   4.973
10227TIP3    H130622   1.499   1.813   4.937
10227TIP3    H230623   1.436   1.856   5.068
10228TIP3   OH230624   4.430   6.574   3.307
10228TIP3    H130625   4.458   6.647   3.361
10228TIP3    H230626   4.409   6.504   3.369
10229TIP3   OH230627   5.948   7.594   5.615
10229TIP3    H130628   6.004   7.556   5.547
10229TIP3    H230629   6.004   7.598   5.692
10230TIP3   OH230630   0.317   4.046   4.649
10230TIP3    H130631   0.355   4.129   4.619
10230TIP3    H230632   0.225   4.067   4.666
10231TIP3   OH230633   6.829   0.125   1.701
10231TIP3    H130634   6.780   0.116   1.783
10231TIP3    H230635   6.766   0.101   1.633
10232TIP3   OH230636   1.495   7.438   2.663
10232TIP3    H130637   1.490   7.419   2.569
10232TIP3    H230638   1.410   7.476   2.685
10233TIP3   OH230639   0.785   0.988   5.993
10233TIP3    H130640   0.698   0.973   6.031
10233TIP3    H230641   0.810   0.903   5.956
10234TIP3   OH230642   5.399   7.272   4.559
10234TIP3    H130643   5.348   7.192   4.545
10234TIP3    H230644   5.428   7.266   4.650
10235TIP3   OH230645   0.027   6.067   6.199
10235TIP3    H130646  -0.058   6.039   6.232
10235TIP3    H230647   0.043   6.009   6.124
10236TIP3   OH230648   5.906   5.692   1.002
10236TIP3    H130649   5.859   5.753   1.060
10236TIP3    H230650   5.983   5.741   0.974
10237TIP3   OH230651   1.523   2.539   0.070
10237TIP3    H130652   1.557   2.593   0.142
10237TIP3    H230653   1.582   2.556  -0.003
10238TIP3   OH230654   6.271   7.689   4.681
10238TIP3    H130655   6.335   7.734   4.625
10238TIP3    H230656   6.213   7.759   4.712
10239TIP3   OH230657   2.764   7.796   3.658
10239TIP3    H130658   2.810   7.880   3.654
10239TIP3    H230659   2.819   7.736   3.607
10240TIP3   OH230660   5.823   1.991   6.039
10240TIP3    H130661   5.765   2.038   6.099
10240TIP3    H230662   5.766   1.966   5.966
10241TIP3   OH230663   4.941   6.935   5.941
10241TIP3    H130664   4.954   7.016   5.990
10241TIP3    H230665   4.949   6.866   6.006
10242TIP3   OH230666   1.379   5.603   0.352
10242TIP3    H130667   1.290   5.568   0.343
10242TIP3    H230668   1.430   5.556   0.287
10243TIP3   OH230669   5.858   6.135   4.572
10243TIP3    H130670   5.927   6.079   4.536
10243TIP3    H230671   5.830   6.190   4.499
10244TIP3   OH230672   1.427   7.498   2.406
10244TIP3    H130673   1.506   7.549   2.422
10244TIP3    H230674   1.373   7.553   2.350
10245TIP3   OH230675   8.118   1.058   5.806
10245TIP3    H130676   8.203   1.064   5.762
10245TIP3    H230677   8.098   0.965   5.807
10246TIP3   OH230678   1.792   1.899   5.191
10246TIP3    H130679   1.767   1.865   5.277
10246TIP3    H230680   1.823   1.823   5.142
10247TIP3   OH230681   5.402   1.277   2.142
10247TIP3    H130682   5.395   1.306   2.233
10247TIP3    H230683   5.368   1.350   2.091
10248TIP3   OH230684   5.507   7.510   1.926
10248TIP3    H130685   5.600   7.531   1.921
10248TIP3    H230686   5.465   7.591   1.956
10249TIP3   OH230687   7.426   4.735   2.032
10249TIP3    H130688   7.402   4.740   1.939
10249TIP3    H230689   7.517   4.704   2.032
10250TIP3   OH230690   4.345   6.166   6.344
10250TIP3    H130691   4.268   6.189   6.293
10250TIP3    H230692   4.332   6.074   6.368
10251TIP3   OH230693   5.820   3.621   0.716
10251TIP3    H130694   5.832   3.665   0.800
10251TIP3    H230695   5.900   3.570   0.704
10252TIP3   OH230696   6.010   1.474   0.551
10252TIP3    H130697   6.049   1.394   0.585
10252TIP3    H230698   6.083   1.522   0.510
10253TIP3   OH230699   3.288   7.738   0.227
10253TIP3    H130700   3.219   7.787   0.181
10253TIP3    H230701   3.240   7.685   0.291
10254TIP3   OH230702   6.086   0.512   2.693
10254TIP3    H130703   6.049   0.424   2.703
10254TIP3    H230704   6.115   0.515   2.602
10255TIP3   OH230705   0.627   0.114   5.162
10255TIP3    H130706   0.616   0.171   5.086
10255TIP3    H230707   0.558   0.142   5.223
10256TIP3   OH230708   0.671   7.633   1.918
10256TIP3    H130709   0.674   7.552   1.968
10256TIP3    H230710   0.622   7.694   1.974
10257TIP3   OH230711   1.754   6.935   3.256
10257TIP3    H130712   1.740   6.857   3.310
10257TIP3    H230713   1.816   6.906   3.189
10258TIP3   OH230714   4.779   1.285   2.179
10258TIP3    H130715   4.838   1.247   2.244
10258TIP3    H230716   4.744   1.209   2.131
10259TIP3   OH230717   3.892   0.112   3.390
10259TIP3    H130718   3.883   0.071   3.476
10259TIP3    H230719   3.854   0.200   3.402
10260TIP3   OH230720   2.994   6.079   4.014
10260TIP3    H130721   2.975   6.071   3.921
10260TIP3    H230722   3.012   6.172   4.028
10261TIP3   OH230723   7.354   5.304   1.248
10261TIP3    H130724   7.270   5.264   1.271
10261TIP3    H230725   7.330   5.380   1.194
10262TIP3   OH230726   8.097   0.158   0.689
10262TIP3    H130727   8.006   0.188   0.687
10262TIP3    H230728   8.094   0.074   0.734
10263TIP3   OH230729   1.015   3.441   3.192
10263TIP3    H130730   0.947   3.387   3.151
10263TIP3    H230731   1.093   3.386   3.191
10264TIP3   OH230732   6.712   2.092   4.492
10264TIP3    H130733   6.671   2.053   4.414
10264TIP3    H230734   6.754   2.019   4.536
10265TIP3   OH230735   3.024   3.259   0.026
10265TIP3    H130736   3.075   3.212   0.092
10265TIP3    H230737   2.983   3.190  -0.027
10266TIP3   OH230738   7.724   3.049   5.669
10266TIP3    H130739   7.816   3.049   5.696
10266TIP3    H230740   7.675   3.061   5.751
10267TIP3   OH230741   3.799   7.698   5.077
10267TIP3    H130742   3.785   7.790   5.099
10267TIP3    H230743   3.741   7.681   5.003
10268TIP3   OH230744   6.734   1.572   1.518
10268TIP3    H130745   6.757   1.480   1.509
10268TIP3    H230746   6.816   1.616   1.539
10269TIP3   OH230747   1.251   5.957   3.744
10269TIP3    H130748   1.295   6.039   3.723
10269TIP3    H230749   1.176   5.953   3.683
10270TIP3   OH230750   2.436   1.771   4.575
10270TIP3    H130751   2.457   1.677   4.567
10270TIP3    H230752   2.455   1.792   4.666
10271TIP3   OH230753   0.638   4.595   5.312
10271TIP3    H130754   0.569   4.632   5.368
10271TIP3    H230755   0.694   4.546   5.373
10272TIP3   OH230756   7.435   2.532   6.222
10272TIP3    H130757   7.424   2.445   6.182
10272TIP3    H230758   7.380   2.529   6.301
10273TIP3   OH230759   1.872   5.359   3.702
10273TIP3    H130760   1.850   5.332   3.791
10273TIP3    H230761   1.826   5.296   3.646
10274TIP3   OH230762   5.625   1.663   5.932
10274TIP3    H130763   5.720   1.662   5.919
10274TIP3    H230764   5.591   1.713   5.858
10275TIP3   OH230765   1.811   1.996   1.177
10275TIP3    H130766   1.873   1.976   1.247
10275TIP3    H230767   1.816   2.091   1.167
10276TIP3   OH230768   6.116   3.667   1.657
10276TIP3    H130769   6.070   3.584   1.648
10276TIP3    H230770   6.050   3.727   1.693
10277TIP3   OH230771   3.445   4.224   2.224
10277TIP3    H130772   3.366   4.222   2.171
10277TIP3    H230773   3.514   4.254   2.165
10278TIP3   OH230774   8.222   5.078   1.793
10278TIP3    H130775   8.246   5.125   1.873
10278TIP3    H230776   8.253   5.134   1.722
10279TIP3   OH230777   1.517   0.428   2.388
10279TIP3    H130778   1.489   0.498   2.329
10279TIP3    H230779   1.551   0.475   2.465
10280TIP3   OH230780   5.160   4.797   2.500
10280TIP3    H130781   5.069   4.768   2.490
10280TIP3    H230782   5.154   4.873   2.558
10281TIP3   OH230783   3.807   5.509   0.288
10281TIP3    H130784   3.715   5.483   0.285
10281TIP3    H230785   3.807   5.592   0.334
10282TIP3   OH230786   1.007   1.279   0.029
10282TIP3    H130787   0.912   1.281   0.019
10282TIP3    H230788   1.037   1.220  -0.040
10283TIP3   OH230789   1.582   1.374   0.939
10283TIP3    H130790   1.532   1.328   1.007
10283TIP3    H230791   1.648   1.424   0.988
10284TIP3   OH230792   6.736   6.786   1.221
10284TIP3    H130793   6.701   6.762   1.307
10284TIP3    H230794   6.829   6.805   1.238
10285TIP3   OH230795   0.477   5.836   3.366
10285TIP3    H130796   0.473   5.804   3.276
10285TIP3    H230797   0.416   5.780   3.414
10286TIP3   OH230798   8.172   3.443   6.122
10286TIP3    H130799   8.121   3.380   6.071
10286TIP3    H230800   8.119   3.458   6.201
10287TIP3   OH230801   0.310   4.537   4.819
10287TIP3    H130802   0.346   4.494   4.896
10287TIP3    H230803   0.233   4.585   4.851
10288TIP3   OH230804   3.434   4.433   5.980
10288TIP3    H130805   3.479   4.515   5.997
10288TIP3    H230806   3.486   4.366   6.024
10289TIP3   OH230807   0.184   1.810   3.907
10289TIP3    H130808   0.271   1.849   3.899
10289TIP3    H230809   0.179   1.780   3.998
10290TIP3   OH230810   4.499   4.741   2.976
10290TIP3    H130811   4.440   4.666   2.963
10290TIP3    H230812   4.486   4.795   2.899
10291TIP3   OH230813   2.491   5.003   5.895
10291TIP3    H130814   2.486   4.952   5.814
10291TIP3    H230815   2.441   4.951   5.958
10292TIP3   OH230816   8.313   0.411   4.214
10292TIP3    H130817   8.289   0.395   4.305
10292TIP3    H230818   8.239   0.461   4.179
10293TIP3   OH230819   6.066   1.732   2.754
10293TIP3    H130820   6.105   1.784   2.825
10293TIP3    H230821   5.988   1.781   2.729
10294TIP3   OH230822   2.344   4.237   2.705
10294TIP3    H130823   2.347   4.177   2.631
10294TIP3    H230824   2.343   4.180   2.782
10295TIP3   OH230825   5.457   3.285   1.135
10295TIP3    H130826   5.486   3.308   1.047
10295TIP3    H230827   5.495   3.198   1.151
10296TIP3   OH230828   2.307   2.046   6.647
10296TIP3    H130829   2.247   1.972   6.655
10296TIP3    H230830   2.263   2.107   6.587
10297TIP3   OH230831   3.984   2.664   3.012
10297TIP3    H130832   4.034   2.583   3.018
10297TIP3    H230833   4.031   2.716   2.946
10298TIP3   OH230834   3.511   7.892   0.297
10298TIP3    H130835   3.551   7.891   0.210
10298TIP3    H230836   3.423   7.857   0.283
10299TIP3   OH230837   5.966   0.882   3.226
10299TIP3    H130838   6.043   0.938   3.234
10299TIP3    H230839   5.893   0.943   3.216
10300TIP3   OH230840   1.284   6.710   1.242
10300TIP3    H130841   1.336   6.642   1.285
10300TIP3    H230842   1.199   6.668   1.225
10301TIP3   OH230843   7.411   6.285   1.774
10301TIP3    H130844   7.381   6.347   1.707
10301TIP3    H230845   7.469   6.337   1.830
10302TIP3   OH230846   6.721   1.994   1.353
10302TIP3    H130847   6.746   2.052   1.424
10302TIP3    H230848   6.643   2.034   1.314
10303TIP3   OH230849   5.690   7.095   2.390
10303TIP3    H130850   5.630   7.168   2.405
10303TIP3    H230851   5.737   7.086   2.473
10304TIP3   OH230852   3.110   1.919   4.552
10304TIP3    H130853   3.170   1.971   4.605
10304TIP3    H230854   3.097   1.972   4.473
10305TIP3   OH230855   0.755   6.837   3.019
10305TIP3    H130856   0.663   6.824   2.995
10305TIP3    H230857   0.804   6.802   2.944
10306TIP3   OH230858   1.820   4.997   2.030
10306TIP3    H130859   1.745   5.034   1.983
10306TIP3    H230860   1.849   5.068   2.087
10307TIP3   OH230861   0.366   7.194   4.022
10307TIP3    H130862   0.444   7.213   3.970
10307TIP3    H230863   0.334   7.280   4.050
10308TIP3   OH230864   2.056   3.854   4.881
10308TIP3    H130865   2.106   3.915   4.935
10308TIP3    H230866   1.967   3.859   4.916
10309TIP3   OH230867   5.723   0.758   6.738
10309TIP3    H130868   5.759   0.738   6.652
10309TIP3    H230869   5.647   0.700   6.747
10310TIP3   OH230870   7.947   2.494   2.494
10310TIP3    H130871   7.932   2.546   2.415
10310TIP3    H230872   7.901   2.543   2.563
10311TIP3   OH230873   4.519   1.814   0.337
10311TIP3    H130874   4.593   1.753   0.339
10311TIP3    H230875   4.537   1.871   0.262
10312TIP3   OH230876   3.398   5.412   2.210
10312TIP3    H130877   3.327   5.445   2.154
10312TIP3    H230878   3.462   5.376   2.149
10313TIP3   OH230879   3.304   7.258   4.390
10313TIP3    H130880   3.396   7.284   4.392
10313TIP3    H230881   3.286   7.240   4.297
10314TIP3   OH230882   6.478   0.184   4.108
10314TIP3    H130883   6.424   0.188   4.029
10314TIP3    H230884   6.463   0.096   4.142
10315TIP3   OH230885   0.894   0.647   4.297
10315TIP3    H130886   0.836   0.591   4.349
10315TIP3    H230887   0.964   0.589   4.267
10316TIP3   OH230888   2.317   2.779   6.450
10316TIP3    H130889   2.329   2.856   6.394
10316TIP3    H230890   2.225   2.782   6.476
10317TIP3   OH230891   4.858   5.012   6.541
10317TIP3    H130892   4.778   4.974   6.578
10317TIP3    H230893   4.884   5.079   6.605
10318TIP3   OH230894   7.658   3.334   3.691
10318TIP3    H130895   7.750   3.346   3.668
10318TIP3    H230896   7.639   3.243   3.666
10319TIP3   OH230897   6.570   6.765   4.783
10319TIP3    H130898   6.556   6.858   4.765
10319TIP3    H230899   6.579   6.760   4.878
10320TIP3   OH230900   3.420   1.443   5.254
10320TIP3    H130901   3.466   1.504   5.312
10320TIP3    H230902   3.454   1.463   5.167
10321TIP3   OH230903   2.281   1.311   0.444
10321TIP3    H130904   2.244   1.387   0.399
10321TIP3    H230905   2.218   1.290   0.512
10322TIP3   OH230906   6.793   6.341   5.935
10322TIP3    H130907   6.697   6.340   5.939
10322TIP3    H230908   6.816   6.433   5.921
10323TIP3   OH230909   3.903   7.592   4.358
10323TIP3    H130910   3.914   7.612   4.451
10323TIP3    H230911   3.905   7.677   4.314
10324TIP3   OH230912   3.748   5.855   4.931
10324TIP3    H130913   3.801   5.889   5.003
10324TIP3    H230914   3.804   5.861   4.855
10325TIP3   OH230915   1.400   2.575   4.396
10325TIP3    H130916   1.366   2.503   4.449
10325TIP3    H230917   1.433   2.638   4.460
10326TIP3   OH230918   4.366   7.311   4.357
10326TIP3    H130919   4.340   7.403   4.364
10326TIP3    H230920   4.285   7.262   4.364
10327TIP3   OH230921   8.175   5.282   2.286
10327TIP3    H130922   8.157   5.346   2.216
10327TIP3    H230923   8.268   5.259   2.273
10328TIP3   OH230924   1.497   4.715   1.027
10328TIP3    H130925   1.520   4.763   1.106
10328TIP3    H230926   1.447   4.778   0.975
10329TIP3   OH230927   5.891   3.171   1.468
10329TIP3    H130928   5.956   3.156   1.537
10329TIP3    H230929   5.911   3.105   1.402
10330TIP3   OH230930   7.011   0.667   2.212
10330TIP3    H130931   6.975   0.636   2.129
10330TIP3    H230932   6.937   0.663   2.273
10331TIP3   OH230933   8.360   5.033   6.844
10331TIP3    H130934   8.285   4.996   6.797
10331TIP3    H230935   8.430   5.036   6.779
10332TIP3   OH230936   3.381   7.229   0.791
10332TIP3    H130937   3.326   7.185   0.726
10332TIP3    H230938   3.322   7.292   0.833
10333TIP3   OH230939   8.359   3.224   1.813
10333TIP3    H130940   8.414   3.293   1.773
10333TIP3    H230941   8.389   3.143   1.772
10334TIP3   OH230942   8.171   4.035   1.653
10334TIP3    H130943   8.137   4.081   1.730
10334TIP3    H230944   8.216   3.959   1.689
10335TIP3   OH230945   5.244   3.518   4.847
10335TIP3    H130946   5.280   3.583   4.786
10335TIP3    H230947   5.181   3.567   4.900
10336TIP3   OH230948   7.698   0.351   5.127
10336TIP3    H130949   7.680   0.434   5.172
10336TIP3    H230950   7.655   0.360   5.042
10337TIP3   OH230951   3.541   4.846   4.368
10337TIP3    H130952   3.619   4.867   4.317
10337TIP3    H230953   3.572   4.843   4.458
10338TIP3   OH230954   1.570   5.641   2.724
10338TIP3    H130955   1.482   5.617   2.695
10338TIP3    H230956   1.561   5.651   2.819
10339TIP3   OH230957   5.053   4.670   6.163
10339TIP3    H130958   4.982   4.724   6.199
10339TIP3    H230959   5.011   4.587   6.142
10340TIP3   OH230960   2.178   6.585   1.993
10340TIP3    H130961   2.144   6.571   1.904
10340TIP3    H230962   2.106   6.559   2.050
10341TIP3   OH230963   0.629   0.343   6.249
10341TIP3    H130964   0.630   0.254   6.215
10341TIP3    H230965   0.712   0.381   6.219
10342TIP3   OH230966   4.159   4.401   5.836
10342TIP3    H130967   4.087   4.341   5.855
10342TIP3    H230968   4.228   4.346   5.799
10343TIP3   OH230969   5.328   4.579   3.614
10343TIP3    H130970   5.245   4.540   3.641
10343TIP3    H230971   5.391   4.547   3.679
10344TIP3   OH230972   0.317   3.910   2.534
10344TIP3    H130973   0.331   3.996   2.574
10344TIP3    H230974   0.266   3.861   2.599
10345TIP3   OH230975   5.772   2.109   4.637
10345TIP3    H130976   5.847   2.166   4.657
10345TIP3    H230977   5.773   2.043   4.706
10346TIP3   OH230978   0.262   0.195   3.928
10346TIP3    H130979   0.226   0.270   3.975
10346TIP3    H230980   0.343   0.174   3.974
10347TIP3   OH230981   7.131   4.837   3.700
10347TIP3    H130982   7.165   4.926   3.689
10347TIP3    H230983   7.069   4.844   3.772
10348TIP3   OH230984   8.370   2.198   1.263
10348TIP3    H130985   8.455   2.153   1.260
10348TIP3    H230986   8.307   2.131   1.234
10349TIP3   OH230987   6.869   3.186   3.256
10349TIP3    H130988   6.932   3.258   3.260
10349TIP3    H230989   6.923   3.108   3.245
10350TIP3   OH230990   1.273   6.250   4.797
10350TIP3    H130991   1.257   6.156   4.785
10350TIP3    H230992   1.238   6.270   4.884
10351TIP3   OH230993   1.399   5.967   1.782
10351TIP3    H130994   1.427   5.993   1.695
10351TIP3    H230995   1.407   5.871   1.782
10352TIP3   OH230996   7.810   6.800   5.145
10352TIP3    H130997   7.770   6.798   5.058
10352TIP3    H230998   7.790   6.888   5.178
10353TIP3   OH230999   7.269   0.961   6.269
10353TIP3    H131000   7.328   0.929   6.337
10353TIP3    H231001   7.184   0.970   6.312
10354TIP3   OH231002   0.470   4.982   4.891
10354TIP3    H131003   0.409   4.967   4.820
10354TIP3    H231004   0.476   4.898   4.937
10355TIP3   OH231005   5.471   2.151   0.719
10355TIP3    H131006   5.529   2.220   0.687
10355TIP3    H231007   5.441   2.182   0.805
10356TIP3   OH231008   3.880   6.738   5.639
10356TIP3    H131009   3.965   6.752   5.598
10356TIP3    H231010   3.873   6.807   5.705
10357TIP3   OH231011   7.101   1.220   6.759
10357TIP3    H131012   7.178   1.242   6.811
10357TIP3    H231013   7.135   1.205   6.671
10358TIP3   OH231014   2.431   1.057   6.176
10358TIP3    H131015   2.372   1.127   6.203
10358TIP3    H231016   2.491   1.046   6.250
10359TIP3   OH231017   0.417   0.915   0.079
10359TIP3    H131018   0.477   0.918   0.004
10359TIP3    H231019   0.353   0.848   0.057
10360TIP3   OH231020   1.744   6.256   6.251
10360TIP3    H131021   1.796   6.195   6.199
10360TIP3    H231022   1.655   6.245   6.217
10361TIP3   OH231023   3.937   6.577   1.616
10361TIP3    H131024   3.927   6.669   1.591
10361TIP3    H231025   3.856   6.535   1.586
10362TIP3   OH231026   4.841   5.552   5.050
10362TIP3    H131027   4.762   5.519   5.006
10362TIP3    H231028   4.810   5.579   5.137
10363TIP3   OH231029   2.314   7.800   5.786
10363TIP3    H131030   2.309   7.835   5.697
10363TIP3    H231031   2.382   7.852   5.829
10364TIP3   OH231032   4.271   3.998   2.453
10364TIP3    H131033   4.233   4.003   2.365
10364TIP3    H231034   4.355   3.955   2.439
10365TIP3   OH231035   8.267   1.227   3.573
10365TIP3    H131036   8.360   1.244   3.566
10365TIP3    H231037   8.240   1.206   3.483
10366TIP3   OH231038   6.929   2.968   2.980
10366TIP3    H131039   7.007   2.991   3.031
10366TIP3    H231040   6.887   3.052   2.962
10367TIP3   OH231041   6.306   6.527   6.378
10367TIP3    H131042   6.289   6.608   6.426
10367TIP3    H231043   6.229   6.516   6.321
10368TIP3   OH231044   2.353   5.085   6.670
10368TIP3    H131045   2.398   5.094   6.586
10368TIP3    H231046   2.404   5.140   6.730
10369TIP3   OH231047   7.938   4.800   0.584
10369TIP3    H131048   7.932   4.789   0.679
10369TIP3    H231049   7.870   4.864   0.563
10370TIP3   OH231050   0.967   5.509   5.127
10370TIP3    H131051   1.004   5.436   5.176
10370TIP3    H231052   1.035   5.533   5.064
10371TIP3   OH231053   5.666   6.099   2.057
10371TIP3    H131054   5.721   6.027   2.025
10371TIP3    H231055   5.655   6.156   1.981
10372TIP3   OH231056   4.177   1.634   1.713
10372TIP3    H131057   4.182   1.576   1.637
10372TIP3    H231058   4.177   1.575   1.789
10373TIP3   OH231059   1.173   3.245   6.059
10373TIP3    H131060   1.105   3.213   6.118
10373TIP3    H231061   1.239   3.283   6.117
10374TIP3   OH231062   1.820   4.145   3.687
10374TIP3    H131063   1.807   4.058   3.724
10374TIP3    H231064   1.731   4.180   3.675
10375TIP3   OH231065   1.848   1.006   4.233
10375TIP3    H131066   1.807   0.958   4.162
10375TIP3    H231067   1.813   0.967   4.313
10376TIP3   OH231068   2.085   7.007   3.898
10376TIP3    H131069   2.118   6.918   3.886
10376TIP3    H231070   2.058   7.035   3.811
10377TIP3   OH231071   4.578   3.261   5.262
10377TIP3    H131072   4.630   3.198   5.312
10377TIP3    H231073   4.518   3.299   5.326
10378TIP3   OH231074   8.305   7.172   0.044
10378TIP3    H131075   8.348   7.087   0.040
10378TIP3    H231076   8.377   7.235   0.045
10379TIP3   OH231077   3.037   6.147   3.069
10379TIP3    H131078   3.047   6.241   3.056
10379TIP3    H231079   3.126   6.112   3.065
10380TIP3   OH231080   7.535   6.717   5.950
10380TIP3    H131081   7.619   6.675   5.969
10380TIP3    H231082   7.535   6.730   5.855
10381TIP3   OH231083   5.066   1.296   4.906
10381TIP3    H131084   5.136   1.359   4.886
10381TIP3    H231085   4.988   1.350   4.916
10382TIP3   OH231086   4.206   6.039   0.780
10382TIP3    H131087   4.161   5.977   0.839
10382TIP3    H231088   4.222   6.116   0.835
10383TIP3   OH231089   6.449   6.082   0.031
10383TIP3    H131090   6.487   6.036   0.106
10383TIP3    H231091   6.524   6.114  -0.018
10384TIP3   OH231092   3.047   3.593   1.495
10384TIP3    H131093   3.140   3.606   1.510
10384TIP3    H231094   3.042   3.549   1.410
10385TIP3   OH231095   3.951   1.253   2.028
10385TIP3    H131096   3.977   1.172   2.072
10385TIP3    H231097   4.033   1.293   2.000
10386TIP3   OH231098   2.908   0.570   2.283
10386TIP3    H131099   2.844   0.535   2.346
10386TIP3    H231100   2.904   0.510   2.209
10387TIP3   OH231101   0.219   2.044   1.103
10387TIP3    H131102   0.306   2.024   1.067
10387TIP3    H231103   0.210   2.139   1.092
10388TIP3   OH231104   6.235   3.984   1.723
10388TIP3    H131105   6.252   4.064   1.773
10388TIP3    H231106   6.140   3.978   1.719
10389TIP3   OH231107   7.740   5.436   3.977
10389TIP3    H131108   7.798   5.448   4.052
10389TIP3    H231109   7.673   5.375   4.008
10390TIP3   OH231110   4.851   1.799   1.079
10390TIP3    H131111   4.872   1.710   1.107
10390TIP3    H231112   4.933   1.834   1.044
10391TIP3   OH231113   5.734   7.074   0.043
10391TIP3    H131114   5.811   7.121   0.074
10391TIP3    H231115   5.660   7.119   0.084
10392TIP3   OH231116   5.933   3.254   5.773
10392TIP3    H131117   6.002   3.314   5.746
10392TIP3    H231118   5.942   3.247   5.868
10393TIP3   OH231119   2.034   0.675   2.911
10393TIP3    H131120   2.058   0.583   2.923
10393TIP3    H231121   2.053   0.716   2.996
10394TIP3   OH231122   8.364   1.843   0.766
10394TIP3    H131123   8.434   1.890   0.720
10394TIP3    H231124   8.389   1.751   0.761
10395TIP3   OH231125   7.702   4.344   1.167
10395TIP3    H131126   7.704   4.366   1.074
10395TIP3    H231127   7.794   4.345   1.193
10396TIP3   OH231128   0.879   1.431   4.814
10396TIP3    H131129   0.917   1.360   4.866
10396TIP3    H231130   0.818   1.388   4.754
10397TIP3   OH231131   3.115   0.942   3.002
10397TIP3    H131132   3.111   0.999   3.078
10397TIP3    H231133   3.046   0.975   2.944
10398TIP3   OH231134   7.582   4.577   4.690
10398TIP3    H131135   7.537   4.662   4.681
10398TIP3    H231136   7.625   4.565   4.605
10399TIP3   OH231137   4.700   7.747   4.217
10399TIP3    H131138   4.698   7.728   4.124
10399TIP3    H231139   4.610   7.735   4.246
10400TIP3   OH231140   6.271   3.823   3.352
10400TIP3    H131141   6.261   3.870   3.435
10400TIP3    H231142   6.192   3.769   3.346
10401TIP3   OH231143   6.131   3.007   2.198
10401TIP3    H131144   6.154   2.955   2.276
10401TIP3    H231145   6.178   2.965   2.126
10402TIP3   OH231146   7.061   0.489   0.670
10402TIP3    H131147   6.993   0.472   0.604
10402TIP3    H231148   7.099   0.573   0.643
10403TIP3   OH231149   1.331   1.071   4.759
10403TIP3    H131150   1.272   1.012   4.805
10403TIP3    H231151   1.361   1.133   4.825
10404TIP3   OH231152   1.557   3.828   6.366
10404TIP3    H131153   1.638   3.778   6.375
10404TIP3    H231154   1.546   3.872   6.450
10405TIP3   OH231155   1.607   5.077   1.886
10405TIP3    H131156   1.623   5.164   1.849
10405TIP3    H231157   1.588   5.022   1.810
10406TIP3   OH231158   7.980   6.248   2.614
10406TIP3    H131159   8.050   6.278   2.672
10406TIP3    H231160   7.922   6.197   2.670
10407TIP3   OH231161   3.439   1.193   2.801
10407TIP3    H131162   3.495   1.121   2.829
10407TIP3    H231163   3.430   1.248   2.879
10408TIP3   OH231164   4.459   4.227   3.786
10408TIP3    H131165   4.373   4.249   3.750
10408TIP3    H231166   4.465   4.132   3.777
10409TIP3   OH231167   2.668   1.314   6.570
10409TIP3    H131168   2.728   1.239   6.570
10409TIP3    H231169   2.724   1.389   6.590
10410TIP3   OH231170   5.990   4.692   2.388
10410TIP3    H131171   6.079   4.661   2.402
10410TIP3    H231172   5.996   4.747   2.309
10411TIP3   OH231173   7.329   2.246   4.729
10411TIP3    H131174   7.253   2.204   4.770
10411TIP3    H231175   7.348   2.321   4.785
10412TIP3   OH231176   6.359   7.762   6.118
10412TIP3    H131177   6.314   7.683   6.089
10412TIP3    H231178   6.414   7.733   6.191
10413TIP3   OH231179   8.249   2.294   2.012
10413TIP3    H131180   8.242   2.337   2.097
10413TIP3    H231181   8.340   2.305   1.986
10414TIP3   OH231182   3.893   1.524   3.365
10414TIP3    H131183   3.987   1.509   3.363
10414TIP3    H231184   3.865   1.488   3.449
10415TIP3   OH231185   7.564   2.344   5.742
10415TIP3    H131186   7.603   2.415   5.792
10415TIP3    H231187   7.488   2.317   5.793
10416TIP3   OH231188   7.950   1.404   6.494
10416TIP3    H131189   7.895   1.479   6.517
10416TIP3    H231190   7.913   1.371   6.413
10417TIP3   OH231191   5.019   2.573   6.687
10417TIP3    H131192   4.944   2.607   6.738
10417TIP3    H231193   5.093   2.625   6.717
10418TIP3   OH231194   2.183   6.029   5.972
10418TIP3    H131195   2.172   6.122   5.994
10418TIP3    H231196   2.160   5.982   6.052
10419TIP3   OH231197   7.218   4.761   1.823
10419TIP3    H131198   7.302   4.749   1.780
10419TIP3    H231199   7.197   4.675   1.859
10420TIP3   OH231200   2.121   0.718   3.788
10420TIP3    H131201   2.069   0.648   3.748
10420TIP3    H231202   2.093   0.797   3.742
10421TIP3   OH231203   0.879   4.253   0.573
10421TIP3    H131204   0.958   4.232   0.622
10421TIP3    H231205   0.909   4.266   0.483
10422TIP3   OH231206   6.231   0.037   4.491
10422TIP3    H131207   6.239  -0.008   4.575
10422TIP3    H231208   6.252   0.128   4.510
10423TIP3   OH231209   7.775   0.912   6.002
10423TIP3    H131210   7.688   0.944   5.982
10423TIP3    H231211   7.762   0.820   6.025
10424TIP3   OH231212   8.403   5.559   0.989
10424TIP3    H131213   8.371   5.618   1.058
10424TIP3    H231214   8.342   5.572   0.917
10425TIP3   OH231215   4.695   1.069   4.925
10425TIP3    H131216   4.698   1.151   4.975
10425TIP3    H231217   4.737   1.090   4.842
10426TIP3   OH231218   5.568   5.751   4.861
10426TIP3    H131219   5.618   5.754   4.942
10426TIP3    H231220   5.625   5.792   4.796
10427TIP3   OH231221   3.244   0.205   1.081
10427TIP3    H131222   3.181   0.144   1.042
10427TIP3    H231223   3.330   0.167   1.061
10428TIP3   OH231224   7.531   1.998   1.954
10428TIP3    H131225   7.620   1.973   1.928
10428TIP3    H231226   7.529   1.985   2.049
10429TIP3   OH231227   5.824   0.756   4.541
10429TIP3    H131228   5.762   0.702   4.491
10429TIP3    H231229   5.899   0.767   4.483
10430TIP3   OH231230   7.626   3.043   5.125
10430TIP3    H131231   7.648   3.071   5.214
10430TIP3    H231232   7.640   3.121   5.071
10431TIP3   OH231233   5.908   1.960   4.863
10431TIP3    H131234   5.896   1.866   4.876
10431TIP3    H231235   5.983   1.966   4.804
10432TIP3   OH231236   7.556   1.468   0.495
10432TIP3    H131237   7.535   1.422   0.577
10432TIP3    H231238   7.470   1.490   0.458
10433TIP3   OH231239   5.616   5.766   0.435
10433TIP3    H131240   5.676   5.752   0.509
10433TIP3    H231241   5.609   5.680   0.393
10434TIP3   OH231242   4.238   0.575   2.450
10434TIP3    H131243   4.236   0.483   2.426
10434TIP3    H231244   4.312   0.582   2.511
10435TIP3   OH231245   4.117   3.483   4.828
10435TIP3    H131246   4.068   3.444   4.900
10435TIP3    H231247   4.051   3.515   4.768
10436TIP3   OH231248   1.477   6.228   0.219
10436TIP3    H131249   1.468   6.136   0.195
10436TIP3    H231250   1.571   6.241   0.228
10437TIP3   OH231251   1.211   5.639   3.028
10437TIP3    H131252   1.145   5.582   2.990
10437TIP3    H231253   1.163   5.694   3.090
10438TIP3   OH231254   2.383   3.605   6.257
10438TIP3    H131255   2.402   3.533   6.197
10438TIP3    H231256   2.451   3.670   6.240
10439TIP3   OH231257   5.332   1.629   6.599
10439TIP3    H131258   5.392   1.690   6.557
10439TIP3    H231259   5.360   1.543   6.569
10440TIP3   OH231260   5.010   2.692   4.486
10440TIP3    H131261   4.984   2.779   4.516
10440TIP3    H231262   4.928   2.650   4.460
10441TIP3   OH231263   4.989   7.246   3.293
10441TIP3    H131264   4.973   7.160   3.254
10441TIP3    H231265   5.082   7.246   3.314
10442TIP3   OH231266   8.143   1.838   2.969
10442TIP3    H131267   8.210   1.904   2.948
10442TIP3    H231268   8.136   1.841   3.064
10443TIP3   OH231269   2.474   4.770   6.459
10443TIP3    H131270   2.507   4.717   6.531
10443TIP3    H231271   2.397   4.813   6.494
10444TIP3   OH231272   0.032   3.352   6.169
10444TIP3    H131273  -0.040   3.415   6.171
10444TIP3    H231274   0.061   3.347   6.260
10445TIP3   OH231275   2.000   0.881   0.305
10445TIP3    H131276   2.059   0.852   0.236
10445TIP3    H231277   2.052   0.873   0.385
10446TIP3   OH231278   4.345   1.342   4.740
10446TIP3    H131279   4.333   1.375   4.651
10446TIP3    H231280   4.280   1.272   4.749
10447TIP3   OH231281   1.316   1.447   5.568
10447TIP3    H131282   1.374   1.397   5.511
10447TIP3    H231283   1.277   1.513   5.512
10448TIP3   OH231284   0.179   5.331   4.278
10448TIP3    H131285   0.102   5.355   4.329
10448TIP3    H231286   0.200   5.242   4.306
10449TIP3   OH231287   2.294   1.827   4.103
10449TIP3    H131288   2.253   1.860   4.183
10449TIP3    H231289   2.282   1.732   4.108
10450TIP3   OH231290   8.055   0.942   6.714
10450TIP3    H131291   8.058   0.881   6.641
10450TIP3    H231292   8.065   1.029   6.674
10451TIP3   OH231293   4.413   2.847   3.848
10451TIP3    H131294   4.432   2.911   3.780
10451TIP3    H231295   4.329   2.809   3.824
10452TIP3   OH231296   1.410   7.322   3.555
10452TIP3    H131297   1.339   7.367   3.600
10452TIP3    H231298   1.413   7.235   3.594
10453TIP3   OH231299   2.147   1.410   4.631
10453TIP3    H131300   2.216   1.364   4.678
10453TIP3    H231301   2.188   1.439   4.550
10454TIP3   OH231302   1.214   4.380   3.250
10454TIP3    H131303   1.227   4.287   3.227
10454TIP3    H231304   1.285   4.425   3.204
10455TIP3   OH231305   6.805   3.239   1.115
10455TIP3    H131306   6.899   3.249   1.096
10455TIP3    H231307   6.802   3.197   1.200
10456TIP3   OH231308   2.477   7.557   4.123
10456TIP3    H131309   2.466   7.484   4.062
10456TIP3    H231310   2.567   7.586   4.110
10457TIP3   OH231311   2.646   5.572   3.946
10457TIP3    H131312   2.620   5.582   3.855
10457TIP3    H231313   2.598   5.494   3.976
10458TIP3   OH231314   8.282   7.332   4.283
10458TIP3    H131315   8.359   7.356   4.334
10458TIP3    H231316   8.209   7.341   4.345
10459TIP3   OH231317   5.684   4.564   2.989
10459TIP3    H131318   5.651   4.478   3.015
10459TIP3    H231319   5.679   4.617   3.069
10460TIP3   OH231320   4.942   3.795   4.829
10460TIP3    H131321   4.919   3.730   4.896
10460TIP3    H231322   4.859   3.813   4.784
10461TIP3   OH231323   7.488   3.242   1.215
10461TIP3    H131324   7.500   3.151   1.242
10461TIP3    H231325   7.425   3.238   1.143
10462TIP3   OH231326   1.388   7.101   3.691
10462TIP3    H131327   1.390   7.044   3.614
10462TIP3    H231328   1.296   7.103   3.717
10463TIP3   OH231329   5.689   1.626   2.805
10463TIP3    H131330   5.700   1.631   2.900
10463TIP3    H231331   5.731   1.543   2.781
10464TIP3   OH231332   5.346   3.938   1.542
10464TIP3    H131333   5.415   4.003   1.555
10464TIP3    H231334   5.369   3.867   1.602
10465TIP3   OH231335   6.877   7.567   6.383
10465TIP3    H131336   6.843   7.620   6.311
10465TIP3    H231337   6.825   7.486   6.380
10466TIP3   OH231338  -0.015   0.900   2.287
10466TIP3    H131339   0.081   0.906   2.288
10466TIP3    H231340  -0.038   0.919   2.196
10467TIP3   OH231341   5.399   7.431   5.261
10467TIP3    H131342   5.389   7.526   5.270
10467TIP3    H231343   5.447   7.404   5.339
10468TIP3   OH231344   1.675   0.469   1.175
10468TIP3    H131345   1.728   0.394   1.151
10468TIP3    H231346   1.726   0.545   1.147
10469TIP3   OH231347   4.927   2.343   6.886
10469TIP3    H131348   5.002   2.387   6.844
10469TIP3    H231349   4.915   2.263   6.835
10470TIP3   OH231350   2.388   2.414   0.159
10470TIP3    H131351   2.332   2.462   0.098
10470TIP3    H231352   2.399   2.328   0.119
10471TIP3   OH231353   6.087   0.100   5.081
10471TIP3    H131354   6.070   0.080   4.989
10471TIP3    H231355   6.109   0.193   5.082
10472TIP3   OH231356   7.003   3.761   2.453
10472TIP3    H131357   7.031   3.728   2.539
10472TIP3    H231358   7.018   3.856   2.459
10473TIP3   OH231359   5.694   4.786   5.912
10473TIP3    H131360   5.626   4.823   5.969
10473TIP3    H231361   5.660   4.799   5.824
10474TIP3   OH231362   2.592   2.626   6.243
10474TIP3    H131363   2.682   2.628   6.275
10474TIP3    H231364   2.542   2.586   6.314
10475TIP3   OH231365   1.776   4.355   1.418
10475TIP3    H131366   1.847   4.354   1.481
10475TIP3    H231367   1.818   4.344   1.333
10476TIP3   OH231368   3.475   5.173   0.364
10476TIP3    H131369   3.522   5.117   0.303
10476TIP3    H231370   3.487   5.132   0.449
10477TIP3   OH231371   7.777   3.265   2.465
10477TIP3    H131372   7.810   3.258   2.554
10477TIP3    H231373   7.682   3.251   2.473
10478TIP3   OH231374   6.529   2.249   1.998
10478TIP3    H131375   6.583   2.220   2.071
10478TIP3    H231376   6.460   2.183   1.991
10479TIP3   OH231377   6.913   2.969   6.042
10479TIP3    H131378   6.949   3.033   5.981
10479TIP3    H231379   6.818   2.974   6.029
10480TIP3   OH231380   3.148   6.252   6.450
10480TIP3    H131381   3.143   6.222   6.540
10480TIP3    H231382   3.223   6.206   6.413
10481TIP3   OH231383   3.688   7.217   0.701
10481TIP3    H131384   3.675   7.224   0.795
10481TIP3    H231385   3.710   7.305   0.673
10482TIP3   OH231386   5.141   7.358   0.299
10482TIP3    H131387   5.064   7.390   0.252
10482TIP3    H231388   5.208   7.350   0.231
10483TIP3   OH231389   4.265   0.770   6.338
10483TIP3    H131390   4.329   0.839   6.321
10483TIP3    H231391   4.203   0.777   6.266
10484TIP3   OH231392   7.562   4.506   3.431
10484TIP3    H131393   7.549   4.600   3.417
10484TIP3    H231394   7.480   4.466   3.403
10485TIP3   OH231395   3.740   2.003   0.677
10485TIP3    H131396   3.650   2.025   0.700
10485TIP3    H231397   3.733   1.922   0.626
10486TIP3   OH231398   0.323   0.111   1.548
10486TIP3    H131399   0.330   0.180   1.614
10486TIP3    H231400   0.409   0.070   1.547
10487TIP3   OH231401   5.989   4.843   0.258
10487TIP3    H131402   6.022   4.911   0.197
10487TIP3    H231403   6.026   4.868   0.343
10488TIP3   OH231404   2.660   4.466   3.244
10488TIP3    H131405   2.730   4.400   3.251
10488TIP3    H231406   2.692   4.539   3.297
10489TIP3   OH231407   3.249   6.822   5.426
10489TIP3    H131408   3.262   6.795   5.335
10489TIP3    H231409   3.338   6.833   5.460
10490TIP3   OH231410   3.720   1.587   5.903
10490TIP3    H131411   3.750   1.595   5.994
10490TIP3    H231412   3.685   1.498   5.897
10491TIP3   OH231413   8.071   1.844   2.683
10491TIP3    H131414   7.999   1.806   2.633
10491TIP3    H231415   8.062   1.808   2.771
10492TIP3   OH231416   7.052   0.508   4.995
10492TIP3    H131417   7.089   0.595   5.010
10492TIP3    H231418   7.057   0.466   5.081
10493TIP3   OH231419   6.801   2.719   5.085
10493TIP3    H131420   6.734   2.763   5.138
10493TIP3    H231421   6.877   2.777   5.090
10494TIP3   OH231422   0.732   4.081   6.583
10494TIP3    H131423   0.784   4.002   6.566
10494TIP3    H231424   0.744   4.134   6.504
10495TIP3   OH231425   3.267   3.567   4.569
10495TIP3    H131426   3.214   3.514   4.629
10495TIP3    H231427   3.297   3.505   4.502
10496TIP3   OH231428   5.101   5.275   4.805
10496TIP3    H131429   5.116   5.342   4.872
10496TIP3    H231430   5.158   5.203   4.830
10497TIP3   OH231431   3.357   4.144   0.717
10497TIP3    H131432   3.437   4.191   0.737
10497TIP3    H231433   3.286   4.204   0.742
10498TIP3   OH231434   3.795   3.918   5.140
10498TIP3    H131435   3.708   3.896   5.172
10498TIP3    H231436   3.843   3.946   5.218
10499TIP3   OH231437   6.799   3.242   0.392
10499TIP3    H131438   6.859   3.205   0.457
10499TIP3    H231439   6.848   3.314   0.353
10500TIP3   OH231440   2.048   0.790   1.770
10500TIP3    H131441   2.057   0.883   1.751
10500TIP3    H231442   2.017   0.787   1.861
10501TIP3   OH231443   3.984   7.545   6.259
10501TIP3    H131444   4.069   7.587   6.244
10501TIP3    H231445   4.000   7.482   6.329
10502TIP3   OH231446   1.925   5.976   3.321
10502TIP3    H131447   1.977   5.974   3.241
10502TIP3    H231448   1.986   5.946   3.389
10503TIP3   OH231449   2.231   4.128   1.543
10503TIP3    H131450   2.212   4.038   1.568
10503TIP3    H231451   2.147   4.173   1.547
10504TIP3   OH231452   4.283   4.009   5.355
10504TIP3    H131453   4.276   3.984   5.448
10504TIP3    H231454   4.194   3.999   5.321
10505TIP3   OH231455   0.079   6.697   2.616
10505TIP3    H131456   0.161   6.739   2.590
10505TIP3    H231457   0.012   6.743   2.565
10506TIP3   OH231458   6.679   2.583   4.874
10506TIP3    H131459   6.747   2.566   4.939
10506TIP3    H231460   6.726   2.596   4.792
10507TIP3   OH231461   5.093   1.163   4.026
10507TIP3    H131462   5.094   1.150   3.931
10507TIP3    H231463   5.162   1.105   4.059
10508TIP3   OH231464   0.831   4.971   4.343
10508TIP3    H131465   0.875   4.997   4.424
10508TIP3    H231466   0.830   4.876   4.345
10509TIP3   OH231467   1.903   4.601   4.681
10509TIP3    H131468   1.990   4.597   4.721
10509TIP3    H231469   1.863   4.517   4.704
10510TIP3   OH231470   5.591   4.064   2.558
10510TIP3    H131471   5.533   4.137   2.581
10510TIP3    H231472   5.558   3.990   2.609
10511TIP3   OH231473   8.341   1.564   0.653
10511TIP3    H131474   8.365   1.604   0.570
10511TIP3    H231475   8.384   1.478   0.652
10512TIP3   OH231476   4.846   5.148   2.057
10512TIP3    H131477   4.908   5.144   2.130
10512TIP3    H231478   4.836   5.241   2.038
10513TIP3   OH231479   1.782   4.149   4.491
10513TIP3    H131480   1.772   4.067   4.442
10513TIP3    H231481   1.817   4.121   4.576
10514TIP3   OH231482   7.381   7.782   6.439
10514TIP3    H131483   7.414   7.858   6.390
10514TIP3    H231484   7.316   7.743   6.381
10515TIP3   OH231485   8.051   5.189   3.438
10515TIP3    H131486   8.050   5.284   3.438
10515TIP3    H231487   8.047   5.165   3.531
10516TIP3   OH231488   2.526   6.585   5.834
10516TIP3    H131489   2.590   6.550   5.772
10516TIP3    H231490   2.477   6.508   5.864
10517TIP3   OH231491   2.487   6.973   3.469
10517TIP3    H131492   2.427   6.990   3.541
10517TIP3    H231493   2.574   6.990   3.507
10518TIP3   OH231494   4.253   1.026   6.164
10518TIP3    H131495   4.268   1.046   6.072
10518TIP3    H231496   4.316   1.081   6.211
10519TIP3   OH231497   7.263   6.464   0.596
10519TIP3    H131498   7.343   6.500   0.634
10519TIP3    H231499   7.195   6.529   0.615
10520TIP3   OH231500   2.945   1.948   6.079
10520TIP3    H131501   2.887   2.024   6.089
10520TIP3    H231502   2.908   1.881   6.136
10521TIP3   OH231503   5.872   1.890   0.161
10521TIP3    H131504   5.845   1.940   0.084
10521TIP3    H231505   5.802   1.903   0.224
10522TIP3   OH231506   4.631   5.815   0.313
10522TIP3    H131507   4.667   5.903   0.328
10522TIP3    H231508   4.708   5.757   0.316
10523TIP3   OH231509   7.496   2.810   5.031
10523TIP3    H131510   7.500   2.752   5.107
10523TIP3    H231511   7.541   2.890   5.059
10524TIP3   OH231512   7.325   0.413   3.979
10524TIP3    H131513   7.237   0.441   3.953
10524TIP3    H231514   7.318   0.317   3.986
10525TIP3   OH231515   4.802   6.843   0.225
10525TIP3    H131516   4.840   6.771   0.277
10525TIP3    H231517   4.847   6.921   0.256
10526TIP3   OH231518   0.057   3.363   6.445
10526TIP3    H131519   0.114   3.429   6.484
10526TIP3    H231520   0.111   3.285   6.437
10527TIP3   OH231521   4.882   1.478   2.835
10527TIP3    H131522   4.815   1.473   2.903
10527TIP3    H231523   4.833   1.470   2.753
10528TIP3   OH231524   5.785   4.835   5.392
10528TIP3    H131525   5.874   4.807   5.415
10528TIP3    H231526   5.785   4.841   5.297
10529TIP3   OH231527   4.771   1.966   1.562
10529TIP3    H131528   4.851   1.961   1.509
10529TIP3    H231529   4.732   2.051   1.538
10530TIP3   OH231530   3.196   0.032   0.668
10530TIP3    H131531   3.151   0.023   0.752
10530TIP3    H231532   3.126   0.038   0.603
10531TIP3   OH231533   6.804   5.737   6.836
10531TIP3    H131534   6.730   5.798   6.838
10531TIP3    H231535   6.817   5.719   6.743
10532TIP3   OH231536   5.952   2.563   3.883
10532TIP3    H131537   5.863   2.597   3.892
10532TIP3    H231538   5.988   2.568   3.972
10533TIP3   OH231539   0.165   2.904   3.360
10533TIP3    H131540   0.081   2.944   3.335
10533TIP3    H231541   0.156   2.885   3.453
10534TIP3   OH231542   7.676   1.998   5.069
10534TIP3    H131543   7.769   2.022   5.073
10534TIP3    H231544   7.637   2.043   5.144
10535TIP3   OH231545   3.719   2.738   3.336
10535TIP3    H131546   3.812   2.717   3.340
10535TIP3    H231547   3.675   2.656   3.355
10536TIP3   OH231548   0.686   4.228   1.078
10536TIP3    H131549   0.741   4.307   1.072
10536TIP3    H231550   0.716   4.184   1.157
10537TIP3   OH231551   2.313   4.835   5.333
10537TIP3    H131552   2.233   4.870   5.294
10537TIP3    H231553   2.353   4.784   5.262
10538TIP3   OH231554   6.668   4.006   6.171
10538TIP3    H131555   6.728   4.076   6.146
10538TIP3    H231556   6.705   3.971   6.252
10539TIP3   OH231557   6.331   7.095   5.165
10539TIP3    H131558   6.274   7.172   5.154
10539TIP3    H231559   6.339   7.058   5.077
10540TIP3   OH231560   3.754   3.577   6.536
10540TIP3    H131561   3.765   3.660   6.583
10540TIP3    H231562   3.840   3.561   6.498
10541TIP3   OH231563   3.249   3.319   3.886
10541TIP3    H131564   3.333   3.362   3.872
10541TIP3    H231565   3.272   3.236   3.929
10542TIP3   OH231566   7.513   0.756   3.212
10542TIP3    H131567   7.481   0.787   3.296
10542TIP3    H231568   7.484   0.821   3.149
10543TIP3   OH231569   7.001   0.041   5.924
10543TIP3    H131570   6.929   0.104   5.929
10543TIP3    H231571   6.971  -0.034   5.977
10544TIP3   OH231572   3.347   6.278   1.952
10544TIP3    H131573   3.395   6.271   2.034
10544TIP3    H231574   3.302   6.194   1.943
10545TIP3   OH231575   5.556   1.588   3.455
10545TIP3    H131576   5.644   1.624   3.447
10545TIP3    H231577   5.570   1.499   3.488
10546TIP3   OH231578   2.696   6.314   4.026
10546TIP3    H131579   2.754   6.380   4.065
10546TIP3    H231580   2.747   6.233   4.029
10547TIP3   OH231581   2.751   3.725   1.348
10547TIP3    H131582   2.676   3.669   1.332
10547TIP3    H231583   2.825   3.681   1.306
10548TIP3   OH231584   0.597   0.734   4.406
10548TIP3    H131585   0.541   0.763   4.478
10548TIP3    H231586   0.622   0.815   4.361
10549TIP3   OH231587   4.801   2.513   2.316
10549TIP3    H131588   4.800   2.448   2.246
10549TIP3    H231589   4.882   2.495   2.364
10550TIP3   OH231590   4.376   7.756   2.233
10550TIP3    H131591   4.286   7.772   2.203
10550TIP3    H231592   4.367   7.740   2.327
10551TIP3   OH231593   5.396   6.236   2.171
10551TIP3    H131594   5.452   6.276   2.104
10551TIP3    H231595   5.450   6.234   2.250
10552TIP3   OH231596   7.706   0.547   3.237
10552TIP3    H131597   7.771   0.601   3.283
10552TIP3    H231598   7.642   0.609   3.204
10553TIP3   OH231599   5.415   0.741   0.702
10553TIP3    H131600   5.394   0.747   0.609
10553TIP3    H231601   5.346   0.790   0.746
10554TIP3   OH231602   3.440   7.795   5.238
10554TIP3    H131603   3.371   7.730   5.238
10554TIP3    H231604   3.398   7.875   5.207
10555TIP3   OH231605   7.437   0.186   4.701
10555TIP3    H131606   7.364   0.223   4.752
10555TIP3    H231607   7.433   0.232   4.617
10556TIP3   OH231608   3.481   0.311   6.636
10556TIP3    H131609   3.576   0.296   6.640
10556TIP3    H231610   3.466   0.343   6.547
10557TIP3   OH231611   5.557   5.935   2.901
10557TIP3    H131612   5.646   5.961   2.921
10557TIP3    H231613   5.515   6.015   2.868
10558TIP3   OH231614   0.160   5.404   1.203
10558TIP3    H131615   0.069   5.433   1.209
10558TIP3    H231616   0.157   5.310   1.222
10559TIP3   OH231617   4.443   2.350   1.762
10559TIP3    H131618   4.493   2.268   1.769
10559TIP3    H231619   4.493   2.404   1.701
10560TIP3   OH231620   3.537   4.361   3.454
10560TIP3    H131621   3.483   4.292   3.491
10560TIP3    H231622   3.478   4.411   3.398
10561TIP3   OH231623   2.474   1.597   2.577
10561TIP3    H131624   2.493   1.550   2.658
10561TIP3    H231625   2.548   1.657   2.566
10562TIP3   OH231626   5.583   5.486   0.335
10562TIP3    H131627   5.589   5.476   0.430
10562TIP3    H231628   5.667   5.456   0.302
10563TIP3   OH231629   6.097   2.159   2.813
10563TIP3    H131630   6.036   2.214   2.860
10563TIP3    H231631   6.067   2.160   2.722
10564TIP3   OH231632   4.058   6.074   3.782
10564TIP3    H131633   4.104   6.157   3.770
10564TIP3    H231634   4.010   6.062   3.700
10565TIP3   OH231635   5.020   0.096   5.044
10565TIP3    H131636   4.994   0.091   4.952
10565TIP3    H231637   5.110   0.129   5.042
10566TIP3   OH231638   2.811   2.103   2.291
10566TIP3    H131639   2.870   2.100   2.216
10566TIP3    H231640   2.823   2.191   2.328
10567TIP3   OH231641   8.187   1.280   1.218
10567TIP3    H131642   8.248   1.337   1.172
10567TIP3    H231643   8.141   1.338   1.278
10568TIP3   OH231644   0.182   7.807   1.123
10568TIP3    H131645   0.263   7.757   1.114
10568TIP3    H231646   0.117   7.744   1.154
10569TIP3   OH231647   2.672   0.360   6.347
10569TIP3    H131648   2.730   0.423   6.389
10569TIP3    H231649   2.605   0.341   6.413
10570TIP3   OH231650   1.897   5.173   2.218
10570TIP3    H131651   1.883   5.239   2.151
10570TIP3    H231652   1.911   5.223   2.299
10571TIP3   OH231653   7.786   7.324   6.551
10571TIP3    H131654   7.811   7.316   6.459
10571TIP3    H231655   7.694   7.298   6.553
10572TIP3   OH231656   0.065   3.673   3.937
10572TIP3    H131657   0.058   3.621   4.018
10572TIP3    H231658   0.000   3.742   3.948
10573TIP3   OH231659   1.972   1.591   2.742
10573TIP3    H131660   1.967   1.660   2.808
10573TIP3    H231661   1.915   1.522   2.775
10574TIP3   OH231662   4.307   2.512   6.081
10574TIP3    H131663   4.293   2.607   6.088
10574TIP3    H231664   4.255   2.486   6.005
10575TIP3   OH231665   1.735   0.482   5.020
10575TIP3    H131666   1.826   0.457   5.035
10575TIP3    H231667   1.738   0.541   4.946
10576TIP3   OH231668   3.887   1.772   6.064
10576TIP3    H131669   3.965   1.829   6.065
10576TIP3    H231670   3.839   1.799   5.986
10577TIP3   OH231671   8.029   2.751   0.673
10577TIP3    H131672   8.109   2.699   0.679
10577TIP3    H231673   8.020   2.790   0.760
10578TIP3   OH231674   5.551   4.862   6.766
10578TIP3    H131675   5.594   4.817   6.694
10578TIP3    H231676   5.459   4.836   6.760
10579TIP3   OH231677   6.896   5.955   5.650
10579TIP3    H131678   6.967   5.986   5.706
10579TIP3    H231679   6.816   5.975   5.699
10580TIP3   OH231680   7.028   4.436   6.342
10580TIP3    H131681   7.081   4.455   6.265
10580TIP3    H231682   6.939   4.460   6.316
10581TIP3   OH231683   5.552   3.001   1.957
10581TIP3    H131684   5.497   3.059   1.904
10581TIP3    H231685   5.539   3.031   2.047
10582TIP3   OH231686   1.880   3.248   4.913
10582TIP3    H131687   1.913   3.315   4.853
10582TIP3    H231688   1.785   3.253   4.905
10583TIP3   OH231689   5.471   1.734   4.834
10583TIP3    H131690   5.547   1.749   4.779
10583TIP3    H231691   5.406   1.694   4.776
10584TIP3   OH231692   7.700   4.597   1.608
10584TIP3    H131693   7.789   4.597   1.573
10584TIP3    H231694   7.646   4.628   1.536
10585TIP3   OH231695   6.457   6.111   4.644
10585TIP3    H131696   6.435   6.018   4.650
10585TIP3    H231697   6.440   6.133   4.552
10586TIP3   OH231698   3.619   3.926   6.276
10586TIP3    H131699   3.665   3.849   6.242
10586TIP3    H231700   3.676   3.960   6.344
10587TIP3   OH231701   3.749   4.057   6.488
10587TIP3    H131702   3.759   4.139   6.440
10587TIP3    H231703   3.712   4.083   6.573
10588TIP3   OH231704   3.342   7.588   1.232
10588TIP3    H131705   3.347   7.638   1.313
10588TIP3    H231706   3.428   7.548   1.222
10589TIP3   OH231707   0.645   6.767   6.205
10589TIP3    H131708   0.589   6.727   6.273
10589TIP3    H231709   0.583   6.803   6.142
10590TIP3   OH231710   3.693   5.307   0.971
10590TIP3    H131711   3.628   5.333   1.037
10590TIP3    H231712   3.753   5.381   0.967
10591TIP3   OH231713   1.797   2.341   5.836
10591TIP3    H131714   1.816   2.420   5.787
10591TIP3    H231715   1.731   2.367   5.900
10592TIP3   OH231716   6.222   5.313   0.438
10592TIP3    H131717   6.154   5.288   0.376
10592TIP3    H231718   6.250   5.231   0.478
10593TIP3   OH231719   6.642   5.780   1.946
10593TIP3    H131720   6.706   5.810   2.011
10593TIP3    H231721   6.615   5.860   1.900
10594TIP3   OH231722   7.063   0.928   1.680
10594TIP3    H131723   7.093   0.945   1.591
10594TIP3    H231724   7.045   1.015   1.716
10595TIP3   OH231725   4.591   0.940   2.993
10595TIP3    H131726   4.612   0.941   3.086
10595TIP3    H231727   4.677   0.946   2.949
10596TIP3   OH231728   2.894   6.071   2.323
10596TIP3    H131729   2.932   5.984   2.314
10596TIP3    H231730   2.895   6.088   2.418
10597TIP3   OH231731   4.663   4.727   1.527
10597TIP3    H131732   4.609   4.694   1.455
10597TIP3    H231733   4.603   4.735   1.601
10598TIP3   OH231734   6.665   2.313   3.295
10598TIP3    H131735   6.586   2.261   3.278
10598TIP3    H231736   6.730   2.278   3.235
10599TIP3   OH231737   0.964   3.096   0.320
10599TIP3    H131738   1.034   3.086   0.255
10599TIP3    H231739   0.960   3.190   0.337
10600TIP3   OH231740   7.391   5.866   1.536
10600TIP3    H131741   7.322   5.888   1.474
10600TIP3    H231742   7.346   5.857   1.621
10601TIP3   OH231743   4.505   0.650   3.557
10601TIP3    H131744   4.471   0.592   3.625
10601TIP3    H231745   4.482   0.738   3.588
10602TIP3   OH231746   0.534   7.672   6.141
10602TIP3    H131747   0.501   7.706   6.057
10602TIP3    H231748   0.609   7.728   6.162
10603TIP3   OH231749   1.967   1.958   2.694
10603TIP3    H131750   1.937   1.889   2.634
10603TIP3    H231751   1.888   2.006   2.716
10604TIP3   OH231752   3.117   1.331   1.315
10604TIP3    H131753   3.198   1.376   1.337
10604TIP3    H231754   3.098   1.277   1.392
10605TIP3   OH231755   4.622   7.274   6.467
10605TIP3    H131756   4.561   7.313   6.529
10605TIP3    H231757   4.646   7.346   6.408
10606TIP3   OH231758   4.313   6.367   6.523
10606TIP3    H131759   4.224   6.397   6.508
10606TIP3    H231760   4.325   6.295   6.461
10607TIP3   OH231761   6.927   4.213   6.748
10607TIP3    H131762   6.991   4.275   6.712
10607TIP3    H231763   6.958   4.196   6.837
10608TIP3   OH231764   6.320   1.197   4.500
10608TIP3    H131765   6.404   1.232   4.531
10608TIP3    H231766   6.333   1.181   4.407
10609TIP3   OH231767   5.610   0.090   2.208
10609TIP3    H131768   5.537   0.043   2.167
10609TIP3    H231769   5.585   0.096   2.300
10610TIP3   OH231770   3.609   4.298   4.200
10610TIP3    H131771   3.651   4.342   4.127
10610TIP3    H231772   3.538   4.356   4.225
10611TIP3   OH231773   5.135   3.836   6.289
10611TIP3    H131774   5.220   3.859   6.251
10611TIP3    H231775   5.144   3.857   6.382
10612TIP3   OH231776   2.781   6.594   2.497
10612TIP3    H131777   2.862   6.548   2.520
10612TIP3    H231778   2.713   6.549   2.547
10613TIP3   OH231779   6.052   4.501   0.015
10613TIP3    H131780   5.993   4.527   0.086
10613TIP3    H231781   6.135   4.546   0.035
10614TIP3   OH231782   1.483   7.810   4.066
10614TIP3    H131783   1.575   7.836   4.065
10614TIP3    H231784   1.442   7.869   4.128
10615TIP3   OH231785   3.181   2.712   3.541
10615TIP3    H131786   3.138   2.783   3.494
10615TIP3    H231787   3.274   2.729   3.531
10616TIP3   OH231788   0.252   1.611   2.602
10616TIP3    H131789   0.194   1.549   2.558
10616TIP3    H231790   0.205   1.694   2.600
10617TIP3   OH231791   3.714   6.785   0.483
10617TIP3    H131792   3.761   6.765   0.403
10617TIP3    H231793   3.621   6.777   0.459
10618TIP3   OH231794   3.824   1.210   3.175
10618TIP3    H131795   3.918   1.203   3.159
10618TIP3    H231796   3.788   1.251   3.096
10619TIP3   OH231797   3.566   0.930   1.174
10619TIP3    H131798   3.544   0.899   1.086
10619TIP3    H231799   3.605   0.854   1.217
10620TIP3   OH231800   6.132   5.526   4.928
10620TIP3    H131801   6.179   5.527   5.012
10620TIP3    H231802   6.047   5.564   4.948
10621TIP3   OH231803   7.183   0.750   0.675
10621TIP3    H131804   7.197   0.844   0.662
10621TIP3    H231805   7.238   0.728   0.750
10622TIP3   OH231806   3.046   0.590   3.357
10622TIP3    H131807   2.951   0.597   3.346
10622TIP3    H231808   3.061   0.618   3.448
10623TIP3   OH231809   6.581   2.540   0.853
10623TIP3    H131810   6.518   2.544   0.781
10623TIP3    H231811   6.665   2.524   0.810
10624TIP3   OH231812   2.500   0.745   5.331
10624TIP3    H131813   2.419   0.737   5.382
10624TIP3    H231814   2.568   0.765   5.395
10625TIP3   OH231815   2.903   5.262   2.046
10625TIP3    H131816   2.873   5.177   2.076
10625TIP3    H231817   2.908   5.254   1.951
10626TIP3   OH231818   2.894   1.763   1.019
10626TIP3    H131819   2.834   1.832   0.989
10626TIP3    H231820   2.904   1.781   1.113
10627TIP3   OH231821   7.593   3.641   2.901
10627TIP3    H131822   7.524   3.696   2.864
10627TIP3    H231823   7.565   3.551   2.882
10628TIP3   OH231824   5.535   3.534   6.153
10628TIP3    H131825   5.596   3.544   6.079
10628TIP3    H231826   5.565   3.455   6.198
10629TIP3   OH231827   6.636   7.598   5.870
10629TIP3    H131828   6.667   7.688   5.858
10629TIP3    H231829   6.600   7.574   5.785
10630TIP3   OH231830   2.055   1.922   6.200
10630TIP3    H131831   2.143   1.957   6.214
10630TIP3    H231832   2.051   1.843   6.255
10631TIP3   OH231833   0.196   3.844   0.689
10631TIP3    H131834   0.190   3.760   0.643
10631TIP3    H231835   0.109   3.883   0.678
10632TIP3   OH231836   4.673   0.023   5.537
10632TIP3    H131837   4.690  -0.067   5.564
10632TIP3    H231838   4.745   0.073   5.575
10633TIP3   OH231839   0.470   1.323   5.924
10633TIP3    H131840   0.461   1.251   5.862
10633TIP3    H231841   0.564   1.331   5.939
10634TIP3   OH231842   2.680   3.225   6.538
10634TIP3    H131843   2.755   3.264   6.582
10634TIP3    H231844   2.647   3.294   6.480
10635TIP3   OH231845   0.100   2.552   6.620
10635TIP3    H131846   0.020   2.553   6.567
10635TIP3    H231847   0.164   2.600   6.567
10636TIP3   OH231848   6.914  -0.007   3.304
10636TIP3    H131849   6.864   0.027   3.229
10636TIP3    H231850   6.979   0.060   3.322
10637TIP3   OH231851   3.612   7.084   4.108
10637TIP3    H131852   3.590   7.086   4.014
10637TIP3    H231853   3.699   7.124   4.113
10638TIP3   OH231854   1.957   5.949   4.468
10638TIP3    H131855   1.927   6.036   4.496
10638TIP3    H231856   1.907   5.888   4.522
10639TIP3   OH231857   0.457   2.390   6.615
10639TIP3    H131858   0.468   2.358   6.704
10639TIP3    H231859   0.497   2.323   6.559
10640TIP3   OH231860   4.151   6.099   2.782
10640TIP3    H131861   4.179   6.107   2.691
10640TIP3    H231862   4.070   6.047   2.778
10641TIP3   OH231863   1.328   2.187   0.289
10641TIP3    H131864   1.267   2.217   0.222
10641TIP3    H231865   1.379   2.119   0.246
10642TIP3   OH231866   1.533   7.676   0.200
10642TIP3    H131867   1.449   7.701   0.238
10642TIP3    H231868   1.533   7.580   0.203
10643TIP3   OH231869   6.649   0.485   3.698
10643TIP3    H131870   6.588   0.507   3.628
10643TIP3    H231871   6.733   0.522   3.669
10644TIP3   OH231872   3.311   5.855   2.323
10644TIP3    H131873   3.279   5.801   2.395
10644TIP3    H231874   3.288   5.945   2.350
10645TIP3   OH231875   3.214   1.006   3.547
10645TIP3    H131876   3.210   1.083   3.605
10645TIP3    H231877   3.248   0.936   3.603
10646TIP3   OH231878   1.257   4.282   2.119
10646TIP3    H131879   1.284   4.190   2.113
10646TIP3    H231880   1.289   4.321   2.038
10647TIP3   OH231881   3.701   0.361   2.453
10647TIP3    H131882   3.796   0.350   2.455
10647TIP3    H231883   3.682   0.413   2.531
10648TIP3   OH231884   7.726   7.063   3.201
10648TIP3    H131885   7.661   7.100   3.260
10648TIP3    H231886   7.695   7.088   3.113
10649TIP3   OH231887   3.656   6.268   5.285
10649TIP3    H131888   3.583   6.236   5.337
10649TIP3    H231889   3.680   6.195   5.229
10650TIP3   OH231890   6.120   7.858   3.656
10650TIP3    H131891   6.204   7.813   3.663
10650TIP3    H231892   6.104   7.865   3.562
10651TIP3   OH231893   7.431   6.686   0.939
10651TIP3    H131894   7.519   6.718   0.960
10651TIP3    H231895   7.384   6.686   1.023
10652TIP3   OH231896   0.517   1.295   0.169
10652TIP3    H131897   0.446   1.358   0.155
10652TIP3    H231898   0.546   1.310   0.258
10653TIP3   OH231899   2.497   1.520   4.554
10653TIP3    H131900   2.582   1.520   4.509
10653TIP3    H231901   2.486   1.429   4.583
10654TIP3   OH231902   4.240   0.570   3.757
10654TIP3    H131903   4.158   0.542   3.798
10654TIP3    H231904   4.241   0.525   3.672
10655TIP3   OH231905   5.989   7.361   6.587
10655TIP3    H131906   5.958   7.442   6.628
10655TIP3    H231907   6.081   7.379   6.567
10656TIP3   OH231908   1.243   7.655   3.425
10656TIP3    H131909   1.284   7.741   3.432
10656TIP3    H231910   1.208   7.639   3.513
10657TIP3   OH231911   7.192   1.332   1.008
10657TIP3    H131912   7.120   1.360   0.952
10657TIP3    H231913   7.156   1.334   1.097
10658TIP3   OH231914   4.757   3.368   6.389
10658TIP3    H131915   4.838   3.323   6.366
10658TIP3    H231916   4.699   3.352   6.315
10659TIP3   OH231917   6.836   2.932   3.442
10659TIP3    H131918   6.923   2.900   3.418
10659TIP3    H231919   6.796   2.859   3.489
10660TIP3   OH231920   8.030   6.411   0.730
10660TIP3    H131921   8.027   6.497   0.772
10660TIP3    H231922   7.978   6.355   0.787
10661TIP3   OH231923   5.146   6.114   0.388
10661TIP3    H131924   5.060   6.156   0.396
10661TIP3    H231925   5.138   6.059   0.310
10662TIP3   OH231926   6.333   4.507   6.867
10662TIP3    H131927   6.366   4.495   6.779
10662TIP3    H231928   6.346   4.422   6.910
10663TIP3   OH231929   0.053   4.588   2.443
10663TIP3    H131930  -0.039   4.566   2.433
10663TIP3    H231931   0.072   4.570   2.535
10664TIP3   OH231932   2.063   4.286   4.474
10664TIP3    H131933   2.101   4.303   4.561
10664TIP3    H231934   1.968   4.290   4.489
10665TIP3   OH231935   3.050   6.073   5.846
10665TIP3    H131936   2.971   6.127   5.846
10665TIP3    H231937   3.040   6.018   5.924
10666TIP3   OH231938   7.813   2.790   3.309
10666TIP3    H131939   7.810   2.713   3.366
10666TIP3    H231940   7.734   2.840   3.330
10667TIP3   OH231941   3.722   7.270   0.960
10667TIP3    H131942   3.815   7.288   0.951
10667TIP3    H231943   3.705   7.277   1.054
10668TIP3   OH231944   8.314   3.587   0.245
10668TIP3    H131945   8.313   3.600   0.339
10668TIP3    H231946   8.237   3.635   0.214
10669TIP3   OH231947   2.702   7.045   6.581
10669TIP3    H131948   2.741   7.084   6.503
10669TIP3    H231949   2.725   6.952   6.575
10670TIP3   OH231950   5.009   2.763   2.116
10670TIP3    H131951   5.063   2.685   2.104
10670TIP3    H231952   5.072   2.835   2.125
10671TIP3   OH231953   8.284   4.215   0.807
10671TIP3    H131954   8.350   4.267   0.852
10671TIP3    H231955   8.201   4.242   0.846
10672TIP3   OH231956   1.592   3.078   0.426
10672TIP3    H131957   1.504   3.042   0.420
10672TIP3    H231958   1.597   3.114   0.515
10673TIP3   OH231959   6.547   5.124   1.630
10673TIP3    H131960   6.463   5.080   1.616
10673TIP3    H231961   6.594   5.111   1.548
10674TIP3   OH231962   4.508   2.647   0.774
10674TIP3    H131963   4.468   2.697   0.845
10674TIP3    H231964   4.460   2.565   0.771
10675TIP3   OH231965   7.287   6.542   3.768
10675TIP3    H131966   7.317   6.580   3.851
10675TIP3    H231967   7.230   6.469   3.794
10676TIP3   OH231968   7.318   3.401   1.423
10676TIP3    H131969   7.316   3.347   1.503
10676TIP3    H231970   7.370   3.350   1.361
10677TIP3   OH231971   0.485   4.114   1.306
10677TIP3    H131972   0.553   4.096   1.371
10677TIP3    H231973   0.409   4.064   1.336
10678TIP3   OH231974   0.482   2.772   4.517
10678TIP3    H131975   0.465   2.694   4.570
10678TIP3    H231976   0.573   2.795   4.537
10679TIP3   OH231977   3.962   0.086   1.934
10679TIP3    H131978   3.928   0.146   2.000
10679TIP3    H231979   4.056   0.081   1.953
10680TIP3   OH231980   8.226   7.019   5.508
10680TIP3    H131981   8.232   7.091   5.571
10680TIP3    H231982   8.138   7.025   5.472
10681TIP3   OH231983   3.174   5.663   1.597
10681TIP3    H131984   3.181   5.612   1.517
10681TIP3    H231985   3.264   5.678   1.624
10682TIP3   OH231986   1.692   2.114   3.205
10682TIP3    H131987   1.753   2.183   3.232
10682TIP3    H231988   1.670   2.068   3.286
10683TIP3   OH231989   6.088   6.729   5.578
10683TIP3    H131990   6.001   6.763   5.600
10683TIP3    H231991   6.134   6.803   5.540
10684TIP3   OH231992   6.662   2.316   1.111
10684TIP3    H131993   6.699   2.341   1.026
10684TIP3    H231994   6.658   2.398   1.160
10685TIP3   OH231995   7.247   0.030   4.153
10685TIP3    H131996   7.265   0.096   4.086
10685TIP3    H231997   7.277  -0.052   4.114
10686TIP3   OH231998   4.216   2.710   2.629
10686TIP3    H131999   4.212   2.793   2.581
10686TIP3    H232000   4.239   2.645   2.562
10687TIP3   OH232001   1.573   5.072   0.883
10687TIP3    H132002   1.569   5.121   0.965
10687TIP3    H232003   1.649   5.014   0.893
10688TIP3   OH232004   2.468   2.413   6.667
10688TIP3    H132005   2.557   2.377   6.667
10688TIP3    H232006   2.451   2.434   6.576
10689TIP3   OH232007   7.385   7.564   0.348
10689TIP3    H132008   7.382   7.649   0.304
10689TIP3    H232009   7.418   7.503   0.282
10690TIP3   OH232010   6.467   2.585   6.535
10690TIP3    H132011   6.554   2.615   6.562
10690TIP3    H232012   6.419   2.572   6.617
10691TIP3   OH232013   7.872   0.788   2.173
10691TIP3    H132014   7.927   0.862   2.198
10691TIP3    H232015   7.801   0.827   2.121
10692TIP3   OH232016   8.074   7.419   2.731
10692TIP3    H132017   8.090   7.426   2.825
10692TIP3    H232018   8.137   7.353   2.701
10693TIP3   OH232019   2.198   6.895   6.634
10693TIP3    H132020   2.204   6.906   6.729
10693TIP3    H232021   2.285   6.920   6.602
10694TIP3   OH232022   6.978   2.394   0.567
10694TIP3    H132023   7.026   2.422   0.489
10694TIP3    H232024   6.983   2.469   0.627
10695TIP3   OH232025   0.710   4.846   5.217
10695TIP3    H132026   0.668   4.930   5.236
10695TIP3    H232027   0.643   4.781   5.235
10696TIP3   OH232028   8.189   7.826   4.062
10696TIP3    H132029   8.185   7.731   4.073
10696TIP3    H232030   8.100   7.850   4.034
10697TIP3   OH232031   7.187   1.440   5.203
10697TIP3    H132032   7.147   1.382   5.268
10697TIP3    H232033   7.237   1.381   5.147
10698TIP3   OH232034   1.348   5.050   5.810
10698TIP3    H132035   1.414   5.102   5.766
10698TIP3    H232036   1.363   5.065   5.903
10699TIP3   OH232037   4.431   2.965   5.760
10699TIP3    H132038   4.345   2.923   5.765
10699TIP3    H232039   4.492   2.892   5.753
10700TIP3   OH232040   7.541   1.144   6.482
10700TIP3    H132041   7.516   1.064   6.435
10700TIP3    H232042   7.507   1.215   6.429
10701TIP3   OH232043   2.433   4.459   3.094
10701TIP3    H132044   2.361   4.517   3.117
10701TIP3    H232045   2.504   4.482   3.154
10702TIP3   OH232046   2.312   1.837   2.580
10702TIP3    H132047   2.351   1.751   2.590
10702TIP3    H232048   2.248   1.827   2.509
10703TIP3   OH232049   5.220   6.708   5.414
10703TIP3    H132050   5.245   6.799   5.430
10703TIP3    H232051   5.151   6.691   5.479
10704TIP3   OH232052   7.697   3.288   5.009
10704TIP3    H132053   7.673   3.326   4.924
10704TIP3    H232054   7.790   3.266   5.001
10705TIP3   OH232055   4.064   6.709   4.773
10705TIP3    H132056   4.043   6.799   4.748
10705TIP3    H232057   4.099   6.716   4.862
10706TIP3   OH232058   3.549   7.196   6.727
10706TIP3    H132059   3.540   7.221   6.819
10706TIP3    H232060   3.629   7.145   6.723
10707TIP3   OH232061   2.789   4.511   1.181
10707TIP3    H132062   2.878   4.475   1.187
10707TIP3    H232063   2.733   4.446   1.222
10708TIP3   OH232064   3.409   1.744   6.081
10708TIP3    H132065   3.331   1.726   6.029
10708TIP3    H232066   3.376   1.756   6.170
10709TIP3   OH232067   7.879   6.213   5.967
10709TIP3    H132068   7.900   6.134   5.918
10709TIP3    H232069   7.875   6.282   5.900
10710TIP3   OH232070   2.089   4.391   2.070
10710TIP3    H132071   2.051   4.438   2.144
10710TIP3    H232072   2.172   4.356   2.104
10711TIP3   OH232073   7.372   1.238   4.599
10711TIP3    H132074   7.367   1.166   4.663
10711TIP3    H232075   7.288   1.283   4.607
10712TIP3   OH232076   1.803   3.246   6.516
10712TIP3    H132077   1.715   3.210   6.525
10712TIP3    H232078   1.834   3.214   6.432
10713TIP3   OH232079   8.361   4.538   4.491
10713TIP3    H132080   8.434   4.481   4.467
10713TIP3    H232081   8.350   4.596   4.416
10714TIP3   OH232082   4.123   1.181   3.131
10714TIP3    H132083   4.144   1.133   3.051
10714TIP3    H232084   4.204   1.227   3.153
10715TIP3   OH232085   8.004   5.820   0.783
10715TIP3    H132086   7.944   5.877   0.735
10715TIP3    H232087   7.952   5.785   0.855
10716TIP3   OH232088   3.162   4.316   4.556
10716TIP3    H132089   3.204   4.238   4.592
10716TIP3    H232090   3.079   4.285   4.520
10717TIP3   OH232091   7.786   7.137   4.262
10717TIP3    H132092   7.860   7.117   4.205
10717TIP3    H232093   7.783   7.232   4.265
10718TIP3   OH232094   3.801   6.090   5.977
10718TIP3    H132095   3.763   6.150   6.042
10718TIP3    H232096   3.797   6.138   5.895
10719TIP3   OH232097   1.245   2.008   1.334
10719TIP3    H132098   1.330   2.022   1.375
10719TIP3    H232099   1.190   1.972   1.404
10720TIP3   OH232100   4.686   1.161   4.243
10720TIP3    H132101   4.673   1.179   4.150
10720TIP3    H232102   4.633   1.084   4.261
10721TIP3   OH232103   7.891   7.186   0.119
10721TIP3    H132104   7.830   7.149   0.054
10721TIP3    H232105   7.833   7.223   0.187
10722TIP3   OH232106   6.324   0.645   4.598
10722TIP3    H132107   6.350   0.632   4.507
10722TIP3    H232108   6.406   0.639   4.648
10723TIP3   OH232109   4.453   4.326   4.321
10723TIP3    H132110   4.364   4.293   4.329
10723TIP3    H232111   4.475   4.314   4.228
10724TIP3   OH232112   5.071   6.153   4.292
10724TIP3    H132113   5.012   6.203   4.236
10724TIP3    H232114   5.158   6.167   4.254
10725TIP3   OH232115   3.542   7.129   3.151
10725TIP3    H132116   3.446   7.124   3.148
10725TIP3    H232117   3.560   7.223   3.160
10726TIP3   OH232118   6.511   5.654   6.452
10726TIP3    H132119   6.471   5.732   6.414
10726TIP3    H232120   6.600   5.653   6.416
10727TIP3   OH232121   1.891   1.057   0.846
10727TIP3    H132122   1.918   1.147   0.861
10727TIP3    H232123   1.796   1.062   0.837
10728TIP3   OH232124   6.400   5.911   1.569
10728TIP3    H132125   6.389   5.965   1.491
10728TIP3    H232126   6.386   5.822   1.539
10729TIP3   OH232127   8.017   4.327   4.041
10729TIP3    H132128   8.027   4.390   3.969
10729TIP3    H232129   7.929   4.291   4.030
10730TIP3   OH232130   5.755   1.235   1.447
10730TIP3    H132131   5.832   1.219   1.392
10730TIP3    H232132   5.791   1.248   1.535
10731TIP3   OH232133   2.660   3.507   4.403
10731TIP3    H132134   2.659   3.475   4.313
10731TIP3    H232135   2.694   3.434   4.455
10732TIP3   OH232136   3.126   1.148   4.718
10732TIP3    H132137   3.174   1.101   4.786
10732TIP3    H232138   3.185   1.218   4.691
10733TIP3   OH232139   4.410   6.210   3.681
10733TIP3    H132140   4.364   6.138   3.638
10733TIP3    H232141   4.347   6.244   3.745
10734TIP3   OH232142   2.668   5.503   2.189
10734TIP3    H132143   2.748   5.502   2.135
10734TIP3    H232144   2.700   5.501   2.279
10735TIP3   OH232145   5.413   1.561   1.114
10735TIP3    H132146   5.459   1.477   1.112
10735TIP3    H232147   5.483   1.627   1.106
10736TIP3   OH232148   0.945   1.062   5.483
10736TIP3    H132149   1.030   1.037   5.520
10736TIP3    H232150   0.964   1.135   5.426
10737TIP3   OH232151   4.962   0.599   4.135
10737TIP3    H132152   4.978   0.657   4.210
10737TIP3    H232153   4.871   0.571   4.146
10738TIP3   OH232154   3.718   7.291   5.432
10738TIP3    H132155   3.725   7.383   5.404
10738TIP3    H232156   3.667   7.249   5.363
10739TIP3   OH232157   4.225   1.671   1.149
10739TIP3    H132158   4.314   1.638   1.158
10739TIP3    H232159   4.204   1.710   1.234
10740TIP3   OH232160   3.951   5.235   4.290
10740TIP3    H132161   3.917   5.300   4.352
10740TIP3    H232162   3.951   5.280   4.206
10741TIP3   OH232163   0.080   2.146   5.666
10741TIP3    H132164   0.064   2.223   5.612
10741TIP3    H232165   0.023   2.159   5.743
10742TIP3   OH232166   6.576   0.857   4.557
10742TIP3    H132167   6.527   0.815   4.486
10742TIP3    H232168   6.537   0.821   4.637
10743TIP3   OH232169   4.256   2.501   2.463
10743TIP3    H132170   4.180   2.459   2.423
10743TIP3    H232171   4.322   2.502   2.395
10744TIP3   OH232172   2.820   1.675   2.882
10744TIP3    H132173   2.857   1.712   2.801
10744TIP3    H232174   2.896   1.654   2.935
10745TIP3   OH232175   1.990   4.067   4.686
10745TIP3    H132176   1.941   4.049   4.766
10745TIP3    H232177   2.079   4.088   4.717
10746TIP3   OH232178   2.132   5.735   3.233
10746TIP3    H132179   2.117   5.767   3.144
10746TIP3    H232180   2.192   5.799   3.272
10747TIP3   OH232181   6.189   4.799   4.014
10747TIP3    H132182   6.230   4.715   3.997
10747TIP3    H232183   6.108   4.797   3.962
10748TIP3   OH232184   1.638   6.688   3.340
10748TIP3    H132185   1.721   6.644   3.355
10748TIP3    H232186   1.597   6.638   3.269
10749TIP3   OH232187   4.744   0.425   4.970
10749TIP3    H132188   4.689   0.504   4.977
10749TIP3    H232189   4.781   0.414   5.058
10750TIP3   OH232190   1.687   0.955   0.470
10750TIP3    H132191   1.687   0.865   0.502
10750TIP3    H232192   1.780   0.978   0.465
10751TIP3   OH232193   1.096   0.118   4.924
10751TIP3    H132194   1.110   0.128   4.830
10751TIP3    H232195   1.068   0.027   4.935
10752TIP3   OH232196   1.940   6.378   5.529
10752TIP3    H132197   1.911   6.301   5.479
10752TIP3    H232198   1.923   6.355   5.620
10753TIP3   OH232199   6.622   2.147   2.277
10753TIP3    H132200   6.665   2.061   2.284
10753TIP3    H232201   6.630   2.185   2.365
10754TIP3   OH232202   0.498   1.427   4.878
10754TIP3    H132203   0.403   1.428   4.865
10754TIP3    H232204   0.514   1.495   4.943
10755TIP3   OH232205   0.404   5.080   2.056
10755TIP3    H132206   0.309   5.069   2.063
10755TIP3    H232207   0.433   5.093   2.146
10756TIP3   OH232208   0.854   4.924   0.705
10756TIP3    H132209   0.939   4.960   0.731
10756TIP3    H232210   0.831   4.971   0.625
10757TIP3   OH232211   4.994   2.457   5.216
10757TIP3    H132212   4.960   2.464   5.305
10757TIP3    H232213   5.018   2.546   5.193
10758TIP3   OH232214   3.888   6.727   0.285
10758TIP3    H132215   3.976   6.744   0.250
10758TIP3    H232216   3.855   6.654   0.233
10759TIP3   OH232217   7.530   1.665   2.961
10759TIP3    H132218   7.496   1.591   2.910
10759TIP3    H232219   7.498   1.650   3.050
10760TIP3   OH232220   4.380   1.432   1.148
10760TIP3    H132221   4.475   1.431   1.140
10760TIP3    H232222   4.350   1.376   1.076
10761TIP3   OH232223   4.353   5.514   4.050
10761TIP3    H132224   4.442   5.479   4.058
10761TIP3    H232225   4.330   5.541   4.138
10762TIP3   OH232226   4.596   4.331   2.690
10762TIP3    H132227   4.558   4.405   2.642
10762TIP3    H232228   4.633   4.370   2.769
10763TIP3   OH232229   1.634   0.494   5.436
10763TIP3    H132230   1.723   0.508   5.405
10763TIP3    H232231   1.644   0.476   5.530
10764TIP3   OH232232   7.949   4.344   1.699
10764TIP3    H132233   7.985   4.398   1.628
10764TIP3    H232234   7.899   4.406   1.752
10765TIP3   OH232235   2.605   3.016   5.192
10765TIP3    H132236   2.636   3.097   5.234
10765TIP3    H232237   2.518   3.037   5.160
10766TIP3   OH232238   1.414   3.543   3.457
10766TIP3    H132239   1.323   3.518   3.446
10766TIP3    H232240   1.463   3.482   3.402
10767TIP3   OH232241   3.676   4.605   1.558
10767TIP3    H132242   3.754   4.628   1.507
10767TIP3    H232243   3.693   4.516   1.589
10768TIP3   OH232244   7.851   6.417   6.774
10768TIP3    H132245   7.859   6.367   6.693
10768TIP3    H232246   7.889   6.502   6.755
10769TIP3   OH232247   2.434   6.662   4.751
10769TIP3    H132248   2.421   6.749   4.713
10769TIP3    H232249   2.481   6.678   4.833
10770TIP3   OH232250   5.174   0.870   5.986
10770TIP3    H132251   5.267   0.881   6.008
10770TIP3    H232252   5.164   0.776   5.971
10771TIP3   OH232253   7.089   7.870   5.930
10771TIP3    H132254   7.159   7.887   5.993
10771TIP3    H232255   7.023   7.936   5.951
10772TIP3   OH232256   8.095   6.077   3.194
10772TIP3    H132257   8.071   6.000   3.245
10772TIP3    H232258   8.075   6.053   3.103
10773TIP3   OH232259   3.712   1.853   3.826
10773TIP3    H132260   3.690   1.937   3.865
10773TIP3    H232261   3.673   1.788   3.884
10774TIP3   OH232262   3.799   3.225   3.544
10774TIP3    H132263   3.736   3.236   3.473
10774TIP3    H232264   3.872   3.176   3.504
10775TIP3   OH232265   5.573   2.531   4.193
10775TIP3    H132266   5.637   2.461   4.183
10775TIP3    H232267   5.545   2.526   4.284
10776TIP3   OH232268   0.827   4.539   4.079
10776TIP3    H132269   0.821   4.522   3.985
10776TIP3    H232270   0.898   4.603   4.087
10777TIP3   OH232271   5.276   0.979   4.101
10777TIP3    H132272   5.282   0.893   4.061
10777TIP3    H232273   5.366   1.000   4.126
10778TIP3   OH232274   7.950   6.972   3.891
10778TIP3    H132275   7.867   7.000   3.852
10778TIP3    H232276   7.956   6.879   3.870
10779TIP3   OH232277   2.412   2.385   3.197
10779TIP3    H132278   2.460   2.382   3.114
10779TIP3    H232279   2.323   2.357   3.174
10780TIP3   OH232280   3.035   2.366   2.737
10780TIP3    H132281   2.972   2.334   2.802
10780TIP3    H232282   2.981   2.390   2.662
10781TIP3   OH232283   4.327   5.654   3.178
10781TIP3    H132284   4.415   5.685   3.156
10781TIP3    H232285   4.335   5.622   3.268
10782TIP3   OH232286   1.909   5.621   3.685
10782TIP3    H132287   1.897   5.527   3.670
10782TIP3    H232288   1.999   5.629   3.718
10783TIP3   OH232289   6.933   7.496   4.685
10783TIP3    H132290   6.878   7.445   4.745
10783TIP3    H232291   6.907   7.466   4.598
10784TIP3   OH232292   0.183   6.534   3.864
10784TIP3    H132293   0.188   6.626   3.890
10784TIP3    H232294   0.269   6.514   3.829
10785TIP3   OH232295   6.477   7.774   1.317
10785TIP3    H132296   6.407   7.803   1.259
10785TIP3    H232297   6.539   7.729   1.260
10786TIP3   OH232298   6.778   5.658   1.609
10786TIP3    H132299   6.726   5.653   1.529
10786TIP3    H232300   6.769   5.573   1.651
10787TIP3   OH232301   2.846   0.086   5.695
10787TIP3    H132302   2.888   0.025   5.756
10787TIP3    H232303   2.787   0.138   5.750
10788TIP3   OH232304   1.334   6.477   1.792
10788TIP3    H132305   1.257   6.432   1.824
10788TIP3    H232306   1.404   6.412   1.796
10789TIP3   OH232307   1.106   0.753   5.926
10789TIP3    H132308   1.153   0.764   6.009
10789TIP3    H232309   1.176   0.745   5.861
10790TIP3   OH232310   8.099   1.004   1.881
10790TIP3    H132311   8.066   0.917   1.902
10790TIP3    H232312   8.066   1.022   1.793
10791TIP3   OH232313   1.289   7.567   4.878
10791TIP3    H132314   1.212   7.592   4.930
10791TIP3    H232315   1.257   7.567   4.787
10792TIP3   OH232316   3.816   4.063   0.670
10792TIP3    H132317   3.874   3.988   0.683
10792TIP3    H232318   3.855   4.132   0.723
10793TIP3   OH232319   4.003   1.115   4.471
10793TIP3    H132320   3.971   1.040   4.522
10793TIP3    H232321   3.978   1.095   4.381
10794TIP3   OH232322   3.748   5.956   5.543
10794TIP3    H132323   3.794   6.039   5.529
10794TIP3    H232324   3.707   5.966   5.629
10795TIP3   OH232325   0.163   3.519   2.929
10795TIP3    H132326   0.259   3.521   2.933
10795TIP3    H232327   0.142   3.537   2.838
10796TIP3   OH232328   6.756   3.585   2.807
10796TIP3    H132329   6.693   3.603   2.737
10796TIP3    H232330   6.737   3.651   2.874
10797TIP3   OH232331   4.121   5.930   6.029
10797TIP3    H132332   4.099   5.984   6.105
10797TIP3    H232333   4.150   5.994   5.963
10798TIP3   OH232334   8.060   5.288   2.944
10798TIP3    H132335   8.103   5.364   2.982
10798TIP3    H232336   8.069   5.220   3.010
10799TIP3   OH232337   4.292   3.156   5.570
10799TIP3    H132338   4.247   3.104   5.636
10799TIP3    H232339   4.384   3.155   5.598
10800TIP3   OH232340   6.851   4.129   3.922
10800TIP3    H132341   6.887   4.043   3.898
10800TIP3    H232342   6.881   4.143   4.012
10801TIP3   OH232343   2.395   4.892   2.912
10801TIP3    H132344   2.438   4.895   2.998
10801TIP3    H232345   2.323   4.830   2.924
10802TIP3   OH232346   2.232   4.222   6.791
10802TIP3    H132347   2.145   4.262   6.784
10802TIP3    H232348   2.224   4.159   6.862
10803TIP3   OH232349   5.697   5.140   3.278
10803TIP3    H132350   5.729   5.228   3.257
10803TIP3    H232351   5.692   5.096   3.193
10804TIP3   OH232352   4.669   6.533   5.619
10804TIP3    H132353   4.627   6.611   5.654
10804TIP3    H232354   4.636   6.461   5.672
10805TIP3   OH232355   0.260   0.955   2.226
10805TIP3    H132356   0.317   0.880   2.245
10805TIP3    H232357   0.278   1.017   2.296
10806TIP3   OH232358   4.785   0.582   5.975
10806TIP3    H132359   4.750   0.506   5.929
10806TIP3    H232360   4.875   0.591   5.942
10807TIP3   OH232361   0.167   7.868   4.780
10807TIP3    H132362   0.163   7.953   4.737
10807TIP3    H232363   0.079   7.856   4.817
10808TIP3   OH232364   7.385   1.184   0.475
10808TIP3    H132365   7.314   1.238   0.508
10808TIP3    H232366   7.349   1.143   0.396
10809TIP3   OH232367   4.178   6.838   4.102
10809TIP3    H132368   4.209   6.894   4.030
10809TIP3    H232369   4.097   6.880   4.131
10810TIP3   OH232370   2.580   5.330   2.859
10810TIP3    H132371   2.509   5.382   2.898
10810TIP3    H232372   2.538   5.247   2.837
10811TIP3   OH232373   0.785   4.160   2.368
10811TIP3    H132374   0.854   4.201   2.421
10811TIP3    H232375   0.831   4.093   2.317
10812TIP3   OH232376   7.163   0.583   2.634
10812TIP3    H132377   7.183   0.556   2.544
10812TIP3    H232378   7.246   0.574   2.680
10813TIP3   OH232379   2.041   6.637   4.994
10813TIP3    H132380   2.056   6.625   4.900
10813TIP3    H232381   2.051   6.731   5.008
10814TIP3   OH232382   2.413   7.428   4.595
10814TIP3    H132383   2.466   7.431   4.675
10814TIP3    H232384   2.459   7.366   4.539
10815TIP3   OH232385   7.056   7.918   1.592
10815TIP3    H132386   7.056   7.822   1.590
10815TIP3    H232387   7.093   7.944   1.507
10816TIP3   OH232388   8.192   4.657   0.553
10816TIP3    H132389   8.109   4.694   0.584
10816TIP3    H232390   8.170   4.614   0.470
10817TIP3   OH232391   3.574   6.328   4.079
10817TIP3    H132392   3.581   6.234   4.098
10817TIP3    H232393   3.662   6.362   4.092
10818TIP3   OH232394   8.256   6.164   0.419
10818TIP3    H132395   8.218   6.080   0.445
10818TIP3    H232396   8.233   6.173   0.327
10819TIP3   OH232397   6.273   5.234   3.874
10819TIP3    H132398   6.341   5.293   3.905
10819TIP3    H232399   6.319   5.153   3.850
10820TIP3   OH232400   3.232   5.508   6.348
10820TIP3    H132401   3.223   5.603   6.340
10820TIP3    H232402   3.273   5.481   6.266
10821TIP3   OH232403   0.816   7.559   4.008
10821TIP3    H132404   0.806   7.529   4.099
10821TIP3    H232405   0.813   7.479   3.956
10822TIP3   OH232406   0.725   6.119   1.151
10822TIP3    H132407   0.699   6.124   1.059
10822TIP3    H232408   0.647   6.149   1.199
10823TIP3   OH232409   6.601   7.578   1.511
10823TIP3    H132410   6.629   7.625   1.590
10823TIP3    H232411   6.612   7.641   1.440
10824TIP3   OH232412   2.328   4.819   3.648
10824TIP3    H132413   2.301   4.831   3.739
10824TIP3    H232414   2.309   4.727   3.629
10825TIP3   OH232415   3.076   6.862   1.111
10825TIP3    H132416   2.983   6.843   1.095
10825TIP3    H232417   3.116   6.776   1.125
10826TIP3   OH232418   7.582   7.143   2.798
10826TIP3    H132419   7.526   7.073   2.832
10826TIP3    H232420   7.671   7.110   2.810
10827TIP3   OH232421   6.106   7.130   6.023
10827TIP3    H132422   6.133   7.046   6.060
10827TIP3    H232423   6.187   7.178   6.011
10828TIP3   OH232424   6.052   4.912   5.187
10828TIP3    H132425   6.147   4.911   5.192
10828TIP3    H232426   6.023   4.864   5.265
10829TIP3   OH232427   2.895   1.865   3.395
10829TIP3    H132428   2.899   1.960   3.381
10829TIP3    H232429   2.818   1.836   3.346
10830TIP3   OH232430   8.167   3.590   4.643
10830TIP3    H132431   8.103   3.641   4.594
10830TIP3    H232432   8.193   3.520   4.582
10831TIP3   OH232433   7.979   4.384   5.903
10831TIP3    H132434   7.992   4.290   5.893
10831TIP3    H232435   8.051   4.423   5.853
10832TIP3   OH232436   8.276   2.414   5.835
10832TIP3    H132437   8.185   2.385   5.844
10832TIP3    H232438   8.325   2.361   5.897
10833TIP3   OH232439   6.390   2.284   1.652
10833TIP3    H132440   6.321   2.260   1.590
10833TIP3    H232441   6.397   2.208   1.710
10834TIP3   OH232442   6.534   7.006   4.044
10834TIP3    H132443   6.539   6.917   4.008
10834TIP3    H232444   6.588   7.003   4.123
10835TIP3   OH232445   4.580   0.811   5.973
10835TIP3    H132446   4.655   0.855   5.932
10835TIP3    H232447   4.617   0.732   6.013
10836TIP3   OH232448   3.030   6.171   2.576
10836TIP3    H132449   3.112   6.215   2.600
10836TIP3    H232450   2.964   6.212   2.631
10837TIP3   OH232451   1.968   0.736   6.465
10837TIP3    H132452   1.966   0.653   6.416
10837TIP3    H232453   2.043   0.726   6.524
10838TIP3   OH232454   2.692   0.427   3.958
10838TIP3    H132455   2.686   0.331   3.956
10838TIP3    H232456   2.645   0.452   4.038
10839TIP3   OH232457   0.927   4.590   2.741
10839TIP3    H132458   0.893   4.679   2.729
10839TIP3    H232459   1.021   4.597   2.726
10840TIP3   OH232460   2.403   0.857   5.627
10840TIP3    H132461   2.470   0.914   5.591
10840TIP3    H232462   2.356   0.911   5.690
10841TIP3   OH232463   1.298   7.278   2.035
10841TIP3    H132464   1.371   7.240   2.084
10841TIP3    H232465   1.339   7.345   1.980
10842TIP3   OH232466   5.188   0.387   1.653
10842TIP3    H132467   5.226   0.301   1.633
10842TIP3    H232468   5.191   0.434   1.570
10843TIP3   OH232469   5.718   2.664   3.956
10843TIP3    H132470   5.721   2.747   3.910
10843TIP3    H232471   5.634   2.664   4.002
10844TIP3   OH232472   0.359   6.972   5.802
10844TIP3    H132473   0.365   6.922   5.721
10844TIP3    H232474   0.400   6.916   5.868
10845TIP3   OH232475   6.774   2.790   5.482
10845TIP3    H132476   6.749   2.866   5.535
10845TIP3    H232477   6.820   2.828   5.407
10846TIP3   OH232478   5.514   2.378   6.484
10846TIP3    H132479   5.563   2.458   6.503
10846TIP3    H232480   5.447   2.405   6.421
10847TIP3   OH232481   3.059   2.689   1.187
10847TIP3    H132482   3.148   2.654   1.191
10847TIP3    H232483   3.011   2.641   1.254
10848TIP3   OH232484   2.403   6.095   3.478
10848TIP3    H132485   2.331   6.130   3.531
10848TIP3    H232486   2.437   6.021   3.529
10849TIP3   OH232487   6.401   0.264   1.573
10849TIP3    H132488   6.349   0.184   1.571
10849TIP3    H232489   6.420   0.283   1.481
10850TIP3   OH232490   1.964   1.047   2.853
10850TIP3    H132491   2.056   1.031   2.870
10850TIP3    H232492   1.920   1.027   2.935
10851TIP3   OH232493   7.005   3.913   1.839
10851TIP3    H132494   7.018   3.898   1.745
10851TIP3    H232495   6.927   3.862   1.861
10852TIP3   OH232496   5.402   0.577   3.121
10852TIP3    H132497   5.447   0.541   3.044
10852TIP3    H232498   5.316   0.603   3.088
10853TIP3   OH232499   3.764   6.470   0.012
10853TIP3    H132500   3.836   6.408  -0.003
10853TIP3    H232501   3.751   6.469   0.106
10854TIP3   OH232502   7.956   6.471   0.317
10854TIP3    H132503   8.001   6.550   0.347
10854TIP3    H232504   8.006   6.443   0.240
10855TIP3   OH232505   3.963   6.555   3.833
10855TIP3    H132506   3.983   6.567   3.925
10855TIP3    H232507   3.916   6.634   3.808
10856TIP3   OH232508   0.731   5.126   3.800
10856TIP3    H132509   0.738   5.060   3.870
10856TIP3    H232510   0.736   5.075   3.719
10857TIP3   OH232511   4.381   6.675   5.995
10857TIP3    H132512   4.378   6.640   6.083
10857TIP3    H232513   4.416   6.764   6.005
10858TIP3   OH232514   0.921   1.375   2.080
10858TIP3    H132515   0.996   1.380   2.138
10858TIP3    H232516   0.878   1.292   2.101
10859TIP3   OH232517   7.832   1.930   0.149
10859TIP3    H132518   7.835   1.976   0.232
10859TIP3    H232519   7.834   2.000   0.083
10860TIP3   OH232520   1.676   6.605   0.087
10860TIP3    H132521   1.598   6.627   0.137
10860TIP3    H232522   1.743   6.586   0.153
10861TIP3   OH232523   4.772   0.522   5.259
10861TIP3    H132524   4.749   0.586   5.325
10861TIP3    H232525   4.855   0.552   5.222
10862TIP3   OH232526   0.870   0.466   5.778
10862TIP3    H132527   0.906   0.389   5.821
10862TIP3    H232528   0.863   0.441   5.686
10863TIP3   OH232529   3.620   2.989   3.417
10863TIP3    H132530   3.683   2.943   3.472
10863TIP3    H232531   3.587   2.922   3.357
10864TIP3   OH232532   3.492   1.808   0.884
10864TIP3    H132533   3.470   1.870   0.814
10864TIP3    H232534   3.584   1.786   0.868
10865TIP3   OH232535   8.042   1.382   5.610
10865TIP3    H132536   8.037   1.294   5.573
10865TIP3    H232537   8.135   1.405   5.604
10866TIP3   OH232538   1.507   5.262   6.528
10866TIP3    H132539   1.483   5.216   6.608
10866TIP3    H232540   1.552   5.341   6.558
10867TIP3   OH232541   7.198   5.935   3.421
10867TIP3    H132542   7.194   5.862   3.482
10867TIP3    H232543   7.254   5.904   3.349
10868TIP3   OH232544   1.640   0.540   3.964
10868TIP3    H132545   1.600   0.579   3.887
10868TIP3    H232546   1.566   0.521   4.022
10869TIP3   OH232547   0.525   5.843   2.421
10869TIP3    H132548   0.597   5.818   2.478
10869TIP3    H232549   0.566   5.894   2.351
10870TIP3   OH232550   2.868   6.545   6.306
10870TIP3    H132551   2.902   6.564   6.393
10870TIP3    H232552   2.861   6.630   6.263
10871TIP3   OH232553   6.688   2.567   3.388
10871TIP3    H132554   6.674   2.491   3.331
10871TIP3    H232555   6.729   2.632   3.331
10872TIP3   OH232556   2.016   4.817   4.855
10872TIP3    H132557   1.955   4.838   4.925
10872TIP3    H232558   1.961   4.778   4.787
10873TIP3   OH232559   7.372   3.655   1.097
10873TIP3    H132560   7.385   3.635   1.189
10873TIP3    H232561   7.288   3.615   1.075
10874TIP3   OH232562   0.987   7.271   1.420
10874TIP3    H132563   0.988   7.280   1.515
10874TIP3    H232564   1.080   7.264   1.395
10875TIP3   OH232565   4.991   2.981   4.158
10875TIP3    H132566   4.995   2.927   4.080
10875TIP3    H232567   4.906   3.024   4.154
10876TIP3   OH232568   7.136   6.201   3.984
10876TIP3    H132569   7.158   6.294   3.988
10876TIP3    H232570   7.063   6.197   3.922
10877TIP3   OH232571   1.952   0.879   3.634
10877TIP3    H132572   1.874   0.827   3.614
10877TIP3    H232573   1.921   0.969   3.632
10878TIP3   OH232574   7.516   2.518   4.184
10878TIP3    H132575   7.464   2.449   4.226
10878TIP3    H232576   7.540   2.577   4.256
10879TIP3   OH232577   1.951   4.392   5.162
10879TIP3    H132578   1.888   4.364   5.228
10879TIP3    H232579   1.971   4.483   5.183
10880TIP3   OH232580   8.218   0.301   0.934
10880TIP3    H132581   8.184   0.233   0.877
10880TIP3    H232582   8.176   0.381   0.903
10881TIP3   OH232583   5.130   6.189   3.474
10881TIP3    H132584   5.156   6.224   3.389
10881TIP3    H232585   5.071   6.117   3.454
10882TIP3   OH232586   3.150   3.374   0.350
10882TIP3    H132587   3.225   3.434   0.356
10882TIP3    H232588   3.179   3.306   0.290
10883TIP3   OH232589   0.044   7.567   0.047
10883TIP3    H132590  -0.047   7.586   0.024
10883TIP3    H232591   0.052   7.598   0.137
10884TIP3   OH232592   6.045   6.417   4.419
10884TIP3    H132593   6.033   6.489   4.481
10884TIP3    H232594   6.130   6.433   4.380
10885TIP3   OH232595   1.667   5.508   2.327
10885TIP3    H132596   1.590   5.452   2.328
10885TIP3    H232597   1.703   5.498   2.238
10886TIP3   OH232598   3.107   7.797   0.810
10886TIP3    H132599   3.019   7.779   0.778
10886TIP3    H232600   3.126   7.727   0.872
10887TIP3   OH232601   6.748   7.635   6.129
10887TIP3    H132602   6.679   7.648   6.193
10887TIP3    H232603   6.702   7.618   6.047
10888TIP3   OH232604   8.059   1.152   5.431
10888TIP3    H132605   8.136   1.112   5.390
10888TIP3    H232606   7.985   1.099   5.401
10889TIP3   OH232607   8.215   3.899   5.629
10889TIP3    H132608   8.144   3.964   5.639
10889TIP3    H232609   8.173   3.815   5.649
10890TIP3   OH232610   6.307   1.871   1.728
10890TIP3    H132611   6.219   1.857   1.693
10890TIP3    H232612   6.365   1.836   1.661
10891TIP3   OH232613   0.070   7.649   5.141
10891TIP3    H132614   0.091   7.672   5.232
10891TIP3    H232615   0.004   7.581   5.149
10892TIP3   OH232616   3.818   1.821   1.524
10892TIP3    H132617   3.762   1.776   1.587
10892TIP3    H232618   3.863   1.888   1.575
10893TIP3   OH232619   2.918   5.341   5.586
10893TIP3    H132620   2.881   5.254   5.567
10893TIP3    H232621   2.859   5.378   5.651
10894TIP3   OH232622   3.066   4.533   6.228
10894TIP3    H132623   3.150   4.488   6.217
10894TIP3    H232624   3.001   4.468   6.205
10895TIP3   OH232625   8.214   6.447   0.497
10895TIP3    H132626   8.152   6.436   0.570
10895TIP3    H232627   8.231   6.358   0.466
10896TIP3   OH232628   2.082   7.157   6.609
10896TIP3    H132629   2.118   7.233   6.564
10896TIP3    H232630   2.120   7.082   6.563
10897TIP3   OH232631   7.238   5.098   2.714
10897TIP3    H132632   7.181   5.056   2.648
10897TIP3    H232633   7.326   5.068   2.692
10898TIP3   OH232634   6.543   5.685   5.188
10898TIP3    H132635   6.574   5.767   5.225
10898TIP3    H232636   6.597   5.672   5.110
10899TIP3   OH232637   1.105   7.196   2.977
10899TIP3    H132638   1.093   7.269   2.916
10899TIP3    H232639   1.016   7.164   2.993
10900TIP3   OH232640   2.495   4.573   5.750
10900TIP3    H132641   2.432   4.623   5.698
10900TIP3    H232642   2.485   4.606   5.839
10901TIP3   OH232643   0.903   6.494   3.021
10901TIP3    H132644   0.935   6.579   3.050
10901TIP3    H232645   0.812   6.491   3.051
10902TIP3   OH232646   1.626   7.313   5.949
10902TIP3    H132647   1.693   7.246   5.935
10902TIP3    H232648   1.666   7.375   6.009
10903TIP3   OH232649   5.612   0.144   0.321
10903TIP3    H132650   5.620   0.161   0.415
10903TIP3    H232651   5.518   0.141   0.304
10904TIP3   OH232652   3.762   5.490   1.863
10904TIP3    H132653   3.675   5.493   1.822
10904TIP3    H232654   3.774   5.579   1.898
10905TIP3   OH232655   1.581   0.861   5.940
10905TIP3    H132656   1.542   0.923   6.001
10905TIP3    H232657   1.660   0.830   5.984
10906TIP3   OH232658   3.874   4.079   1.842
10906TIP3    H132659   3.932   4.105   1.913
10906TIP3    H232660   3.813   4.017   1.882
10907TIP3   OH232661   6.671   4.493   4.663
10907TIP3    H132662   6.733   4.429   4.628
10907TIP3    H232663   6.627   4.530   4.586
10908TIP3   OH232664   4.927   5.955   1.454
10908TIP3    H132665   5.003   5.925   1.404
10908TIP3    H232666   4.868   5.991   1.388
10909TIP3   OH232667   4.953   7.361   6.442
10909TIP3    H132668   5.042   7.371   6.477
10909TIP3    H232669   4.933   7.268   6.455
10910TIP3   OH232670   2.102   7.032   5.803
10910TIP3    H132671   2.029   7.000   5.855
10910TIP3    H232672   2.110   7.125   5.826
10911TIP3   OH232673   0.359   1.440   2.212
10911TIP3    H132674   0.426   1.456   2.278
10911TIP3    H232675   0.286   1.497   2.237
10912TIP3   OH232676   3.176   2.795   6.668
10912TIP3    H132677   3.117   2.796   6.744
10912TIP3    H232678   3.173   2.704   6.637
10913TIP3   OH232679   5.374   1.339   6.768
10913TIP3    H132680   5.422   1.333   6.685
10913TIP3    H232681   5.410   1.417   6.811
10914TIP3   OH232682   1.784   7.611   2.947
10914TIP3    H132683   1.746   7.643   3.029
10914TIP3    H232684   1.879   7.611   2.963
10915TIP3   OH232685   7.993   4.493   0.409
10915TIP3    H132686   7.962   4.457   0.492
10915TIP3    H232687   7.937   4.453   0.342
10916TIP3   OH232688   3.331   2.349   4.488
10916TIP3    H132689   3.321   2.422   4.426
10916TIP3    H232690   3.424   2.352   4.512
10917TIP3   OH232691   7.100   3.239   1.069
10917TIP3    H132692   7.179   3.199   1.031
10917TIP3    H232693   7.099   3.208   1.159
10918TIP3   OH232694   3.990   2.567   0.135
10918TIP3    H132695   3.909   2.525   0.104
10918TIP3    H232696   4.015   2.625   0.064
10919TIP3   OH232697   1.730   1.035   1.798
10919TIP3    H132698   1.748   0.962   1.739
10919TIP3    H232699   1.816   1.074   1.814
10920TIP3   OH232700   4.518   7.908   0.418
10920TIP3    H132701   4.500   7.854   0.495
10920TIP3    H232702   4.601   7.875   0.384
10921TIP3   OH232703   5.064   6.284   1.335
10921TIP3    H132704   5.054   6.357   1.275
10921TIP3    H232705   4.976   6.249   1.345
10922TIP3   OH232706   0.635   2.424   5.105
10922TIP3    H132707   0.543   2.451   5.095
10922TIP3    H232708   0.642   2.397   5.197
10923TIP3   OH232709   0.129   7.745   5.402
10923TIP3    H132710   0.191   7.717   5.469
10923TIP3    H232711   0.051   7.690   5.418
10924TIP3   OH232712   3.915   3.063   0.962
10924TIP3    H132713   3.996   3.102   0.928
10924TIP3    H232714   3.845   3.113   0.921
10925TIP3   OH232715   2.188   7.417   0.921
10925TIP3    H132716   2.163   7.334   0.960
10925TIP3    H232717   2.237   7.462   0.990
10926TIP3   OH232718   4.951   7.737   3.842
10926TIP3    H132719   5.038   7.701   3.859
10926TIP3    H232720   4.961   7.831   3.858
10927TIP3   OH232721   3.935   6.177   2.591
10927TIP3    H132722   3.968   6.108   2.533
10927TIP3    H232723   3.880   6.232   2.535
10928TIP3   OH232724   2.983   2.475   4.868
10928TIP3    H132725   2.972   2.393   4.916
10928TIP3    H232726   3.048   2.455   4.800
10929TIP3   OH232727   4.807   5.394   0.509
10929TIP3    H132728   4.880   5.434   0.463
10929TIP3    H232729   4.753   5.356   0.440
10930TIP3   OH232730   8.005   2.446   5.858
10930TIP3    H132731   7.968   2.478   5.776
10930TIP3    H232732   8.012   2.523   5.913
10931TIP3   OH232733   7.541   6.713   2.588
10931TIP3    H132734   7.628   6.680   2.566
10931TIP3    H232735   7.494   6.636   2.621
10932TIP3   OH232736   0.997   3.450   1.081
10932TIP3    H132737   0.972   3.395   1.008
10932TIP3    H232738   1.089   3.429   1.098
10933TIP3   OH232739   5.215   3.998   0.198
10933TIP3    H132740   5.271   3.968   0.270
10933TIP3    H232741   5.191   3.918   0.152
10934TIP3   OH232742   2.716   4.086   5.094
10934TIP3    H132743   2.791   4.064   5.149
10934TIP3    H232744   2.729   4.179   5.072
10935TIP3   OH232745   3.991   3.987   5.329
10935TIP3    H132746   3.937   3.950   5.398
10935TIP3    H232747   3.966   4.079   5.324
10936TIP3   OH232748   0.588   3.459   6.073
10936TIP3    H132749   0.619   3.408   6.148
10936TIP3    H232750   0.500   3.487   6.097
10937TIP3   OH232751   6.522   5.702   3.814
10937TIP3    H132752   6.474   5.650   3.878
10937TIP3    H232753   6.577   5.639   3.768
10938TIP3   OH232754   7.106   4.153   1.595
10938TIP3    H132755   7.166   4.101   1.542
10938TIP3    H232756   7.158   4.181   1.670
10939TIP3   OH232757   7.098   6.598   1.219
10939TIP3    H132758   7.056   6.656   1.282
10939TIP3    H232759   7.191   6.621   1.222
10940TIP3   OH232760   3.546   5.649   0.535
10940TIP3    H132761   3.474   5.707   0.512
10940TIP3    H232762   3.530   5.570   0.484
10941TIP3   OH232763   0.906   1.275   0.784
10941TIP3    H132764   0.820   1.300   0.819
10941TIP3    H232765   0.952   1.236   0.859
10942TIP3   OH232766   0.822   1.932   0.550
10942TIP3    H132767   0.748   1.966   0.599
10942TIP3    H232768   0.796   1.843   0.525
10943TIP3   OH232769   1.406   1.972   0.583
10943TIP3    H132770   1.464   2.006   0.516
10943TIP3    H232771   1.457   1.977   0.664
10944TIP3   OH232772   0.599   6.463   2.296
10944TIP3    H132773   0.604   6.445   2.202
10944TIP3    H232774   0.652   6.542   2.309
10945TIP3   OH232775   6.616   0.291   4.319
10945TIP3    H132776   6.553   0.308   4.389
10945TIP3    H232777   6.564   0.255   4.248
10946TIP3   OH232778   5.165   1.347   5.397
10946TIP3    H132779   5.084   1.299   5.385
10946TIP3    H232780   5.202   1.311   5.478
10947TIP3   OH232781   8.013   7.609   4.985
10947TIP3    H132782   8.015   7.513   4.984
10947TIP3    H232783   8.054   7.635   4.902
10948TIP3   OH232784   1.014   7.046   2.622
10948TIP3    H132785   1.039   7.137   2.630
10948TIP3    H232786   1.037   7.023   2.532
10949TIP3   OH232787   5.681   7.035   3.793
10949TIP3    H132788   5.680   7.059   3.885
10949TIP3    H232789   5.625   7.101   3.751
10950TIP3   OH232790   7.582   5.438   3.688
10950TIP3    H132791   7.643   5.368   3.663
10950TIP3    H232792   7.528   5.399   3.757
10951TIP3   OH232793   3.758   4.898   4.200
10951TIP3    H132794   3.844   4.911   4.240
10951TIP3    H232795   3.759   4.808   4.168
10952TIP3   OH232796   6.652   6.990   2.793
10952TIP3    H132797   6.619   7.076   2.768
10952TIP3    H232798   6.667   6.997   2.888
10953TIP3   OH232799   1.606   3.443   1.735
10953TIP3    H132800   1.590   3.437   1.830
10953TIP3    H232801   1.700   3.461   1.729
10954TIP3   OH232802   4.978   2.493   2.511
10954TIP3    H132803   5.036   2.510   2.586
10954TIP3    H232804   4.997   2.403   2.486
10955TIP3   OH232805   6.386   3.201   2.853
10955TIP3    H132806   6.457   3.228   2.794
10955TIP3    H232807   6.400   3.108   2.866
10956TIP3   OH232808   3.068   5.141   1.669
10956TIP3    H132809   3.073   5.118   1.576
10956TIP3    H232810   3.124   5.076   1.713
10957TIP3   OH232811   6.736   7.433   2.533
10957TIP3    H132812   6.816   7.384   2.553
10957TIP3    H232813   6.764   7.501   2.472
10958TIP3   OH232814   2.746   3.182   0.200
10958TIP3    H132815   2.687   3.250   0.167
10958TIP3    H232816   2.802   3.227   0.263
10959TIP3   OH232817   7.956   4.319   2.986
10959TIP3    H132818   7.924   4.356   2.904
10959TIP3    H232819   7.919   4.375   3.054
10960TIP3   OH232820   0.116   4.101   1.877
10960TIP3    H132821   0.198   4.053   1.861
10960TIP3    H232822   0.047   4.035   1.868
10961TIP3   OH232823   3.882   2.832   0.797
10961TIP3    H132824   3.975   2.849   0.781
10961TIP3    H232825   3.849   2.913   0.835
10962TIP3   OH232826   0.123   7.375   1.814
10962TIP3    H132827   0.205   7.419   1.794
10962TIP3    H232828   0.147   7.282   1.823
10963TIP3   OH232829   7.508   5.384   4.146
10963TIP3    H132830   7.470   5.346   4.067
10963TIP3    H232831   7.558   5.313   4.185
10964TIP3   OH232832   4.685   3.407   3.176
10964TIP3    H132833   4.693   3.426   3.269
10964TIP3    H232834   4.770   3.431   3.139
10965TIP3   OH232835   0.180   2.498   3.010
10965TIP3    H132836   0.274   2.503   2.990
10965TIP3    H232837   0.144   2.579   2.974
10966TIP3   OH232838   2.920   4.165   3.605
10966TIP3    H132839   2.993   4.219   3.575
10966TIP3    H232840   2.953   4.120   3.683
10967TIP3   OH232841   0.384   6.283   2.724
10967TIP3    H132842   0.466   6.262   2.678
10967TIP3    H232843   0.317   6.238   2.674
10968TIP3   OH232844   4.863   5.625   6.304
10968TIP3    H132845   4.793   5.627   6.238
10968TIP3    H232846   4.882   5.717   6.322
10969TIP3   OH232847   6.572   4.104   0.597
10969TIP3    H132848   6.551   4.153   0.676
10969TIP3    H232849   6.571   4.012   0.624
10970TIP3   OH232850   2.016   3.786   0.010
10970TIP3    H132851   2.030   3.696   0.038
10970TIP3    H232852   2.102   3.815  -0.023
10971TIP3   OH232853   0.107   5.410   2.445
10971TIP3    H132854   0.095   5.505   2.448
10971TIP3    H232855   0.188   5.395   2.494
10972TIP3   OH232856   7.189   5.867   5.922
10972TIP3    H132857   7.199   5.804   5.994
10972TIP3    H232858   7.158   5.947   5.965
10973TIP3   OH232859   5.832   6.543   1.864
10973TIP3    H132860   5.788   6.475   1.813
10973TIP3    H232861   5.886   6.495   1.927
10974TIP3   OH232862   5.591   7.165   5.244
10974TIP3    H132863   5.505   7.131   5.267
10974TIP3    H232864   5.632   7.185   5.329
10975TIP3   OH232865   7.732   6.490   3.582
10975TIP3    H132866   7.667   6.561   3.576
10975TIP3    H232867   7.809   6.525   3.537
10976TIP3   OH232868   4.100   5.112   2.297
10976TIP3    H132869   4.130   5.024   2.319
10976TIP3    H232870   4.167   5.169   2.334
10977TIP3   OH232871   4.207   1.534   3.630
10977TIP3    H132872   4.295   1.544   3.665
10977TIP3    H232873   4.172   1.624   3.628
10978TIP3   OH232874   5.353   2.689   1.665
10978TIP3    H132875   5.348   2.716   1.757
10978TIP3    H232876   5.395   2.763   1.620
10979TIP3   OH232877   0.462   6.944   3.809
10979TIP3    H132878   0.472   6.861   3.762
10979TIP3    H232879   0.473   6.920   3.901
10980TIP3   OH232880   7.096   2.447   1.298
10980TIP3    H132881   7.099   2.504   1.220
10980TIP3    H232882   7.004   2.423   1.306
10981TIP3   OH232883   1.080   6.430   2.780
10981TIP3    H132884   1.109   6.519   2.758
10981TIP3    H232885   1.032   6.441   2.862
10982TIP3   OH232886   6.695   6.057   4.754
10982TIP3    H132887   6.720   6.011   4.674
10982TIP3    H232888   6.613   6.102   4.731
10983TIP3   OH232889   7.879   2.060   6.407
10983TIP3    H132890   7.906   2.137   6.356
10983TIP3    H232891   7.961   2.015   6.428
10984TIP3   OH232892   2.773   1.064   6.600
10984TIP3    H132893   2.809   1.021   6.678
10984TIP3    H232894   2.836   1.045   6.531
10985TIP3   OH232895   6.602   7.236   5.617
10985TIP3    H132896   6.650   7.194   5.688
10985TIP3    H232897   6.669   7.256   5.552
10986TIP3   OH232898   1.438   5.995   3.432
10986TIP3    H132899   1.464   6.054   3.502
10986TIP3    H232900   1.344   6.009   3.423
10987TIP3   OH232901   2.301   3.149   1.252
10987TIP3    H132902   2.228   3.113   1.201
10987TIP3    H232903   2.376   3.095   1.227
10988TIP3   OH232904   1.198   6.188   5.481
10988TIP3    H132905   1.148   6.262   5.516
10988TIP3    H232906   1.241   6.150   5.558
10989TIP3   OH232907   4.320   4.467   1.044
10989TIP3    H132908   4.362   4.479   1.130
10989TIP3    H232909   4.278   4.551   1.026
10990TIP3   OH232910   7.552   3.842   5.810
10990TIP3    H132911   7.574   3.863   5.901
10990TIP3    H232912   7.505   3.758   5.816
10991TIP3   OH232913   4.211   0.886   1.552
10991TIP3    H132914   4.247   0.891   1.463
10991TIP3    H232915   4.116   0.889   1.540
10992TIP3   OH232916   6.671   2.254   6.305
10992TIP3    H132917   6.620   2.229   6.228
10992TIP3    H232918   6.656   2.348   6.314
10993TIP3   OH232919   5.059   6.745   4.106
10993TIP3    H132920   5.077   6.651   4.115
10993TIP3    H232921   5.133   6.787   4.150
10994TIP3   OH232922   1.772   2.667   0.036
10994TIP3    H132923   1.826   2.677   0.114
10994TIP3    H232924   1.754   2.756   0.006
10995TIP3   OH232925   0.436   6.132   3.234
10995TIP3    H132926   0.441   6.038   3.252
10995TIP3    H232927   0.354   6.142   3.186
10996TIP3   OH232928   1.269   3.407   3.840
10996TIP3    H132929   1.357   3.441   3.855
10996TIP3    H232930   1.268   3.324   3.887
10997TIP3   OH232931   8.091   0.534   5.212
10997TIP3    H132932   8.089   0.551   5.306
10997TIP3    H232933   8.056   0.614   5.172
10998TIP3   OH232934   1.125   0.151   1.175
10998TIP3    H132935   1.069   0.122   1.247
10998TIP3    H232936   1.199   0.194   1.218
10999TIP3   OH232937   5.206   6.889   2.673
10999TIP3    H132938   5.153   6.960   2.708
10999TIP3    H232939   5.284   6.932   2.636
11000TIP3   OH232940   4.088   3.807   3.476
11000TIP3    H132941   4.155   3.876   3.478
11000TIP3    H232942   4.088   3.776   3.386
11001TIP3   OH232943   2.072   3.487   4.905
11001TIP3    H132944   2.147   3.543   4.926
11001TIP3    H232945   1.998   3.548   4.899
11002TIP3   OH232946   1.134   7.307   0.437
11002TIP3    H132947   1.226   7.316   0.413
11002TIP3    H232948   1.132   7.234   0.498
11003TIP3   OH232949   4.478   6.910   1.648
11003TIP3    H132950   4.488   6.815   1.652
11003TIP3    H232951   4.554   6.945   1.695
11004TIP3   OH232952   5.317   3.922   5.240
11004TIP3    H132953   5.231   3.888   5.215
11004TIP3    H232954   5.354   3.853   5.296
11005TIP3   OH232955   0.392   3.329   4.039
11005TIP3    H132956   0.313   3.293   4.080
11005TIP3    H232957   0.401   3.416   4.077
11006TIP3   OH232958   2.435   2.880   4.693
11006TIP3    H132959   2.372   2.852   4.759
11006TIP3    H232960   2.434   2.810   4.628
11007TIP3   OH232961   3.258   4.362   1.655
11007TIP3    H132962   3.243   4.287   1.714
11007TIP3    H232963   3.218   4.335   1.572
11008TIP3   OH232964   0.995   3.013   3.819
11008TIP3    H132965   0.991   3.006   3.915
11008TIP3    H232966   0.918   2.965   3.789
11009TIP3   OH232967   6.426   4.105   6.793
11009TIP3    H132968   6.492   4.173   6.793
11009TIP3    H232969   6.348   4.147   6.757
11010TIP3   OH232970   0.704   5.722   5.493
11010TIP3    H132971   0.759   5.707   5.416
11010TIP3    H232972   0.759   5.696   5.567
11011TIP3   OH232973   0.390   0.198   0.546
11011TIP3    H132974   0.315   0.138   0.541
11011TIP3    H232975   0.454   0.151   0.599
11012TIP3   OH232976   0.543   3.639   3.903
11012TIP3    H132977   0.541   3.601   3.991
11012TIP3    H232978   0.455   3.625   3.869
11013TIP3   OH232979   2.242   6.964   4.154
11013TIP3    H132980   2.193   7.016   4.091
11013TIP3    H232981   2.331   7.001   4.151
11014TIP3   OH232982   2.371   4.481   0.976
11014TIP3    H132983   2.427   4.489   1.053
11014TIP3    H232984   2.303   4.547   0.989
11015TIP3   OH232985   2.416   6.663   5.487
11015TIP3    H132986   2.329   6.699   5.504
11015TIP3    H232987   2.404   6.569   5.491
11016TIP3   OH232988   4.789   1.312   0.482
11016TIP3    H132989   4.755   1.248   0.545
11016TIP3    H232990   4.828   1.380   0.537
11017TIP3   OH232991   1.833   0.283   0.179
11017TIP3    H132992   1.793   0.302   0.264
11017TIP3    H232993   1.760   0.280   0.118
11018TIP3   OH232994   4.966   3.584   5.022
11018TIP3    H132995   4.886   3.587   5.075
11018TIP3    H232996   4.978   3.491   5.001
11019TIP3   OH232997   7.492   6.512   0.737
11019TIP3    H132998   7.572   6.556   0.709
11019TIP3    H232999   7.456   6.569   0.805
11020TIP3   OH233000   7.440   5.472   5.369
11020TIP3    H133001   7.475   5.479   5.280
11020TIP3    H233002   7.438   5.562   5.401
11021TIP3   OH233003   2.702   5.229   1.573
11021TIP3    H133004   2.618   5.262   1.605
11021TIP3    H233005   2.731   5.295   1.510
11022TIP3   OH233006   8.103   0.385   1.397
11022TIP3    H133007   8.106   0.366   1.491
11022TIP3    H233008   8.080   0.478   1.392
11023TIP3   OH233009   4.023   7.545   1.516
11023TIP3    H133010   3.954   7.587   1.567
11023TIP3    H233011   3.981   7.470   1.474
11024TIP3   OH233012   7.012   6.428   3.625
11024TIP3    H133013   7.075   6.493   3.655
11024TIP3    H233014   7.049   6.344   3.653
11025TIP3   OH233015   5.321   2.439   0.616
11025TIP3    H133016   5.273   2.389   0.550
11025TIP3    H233017   5.410   2.405   0.612
11026TIP3   OH233018   1.502   2.330   3.764
11026TIP3    H133019   1.538   2.248   3.797
11026TIP3    H233020   1.537   2.397   3.823
11027TIP3   OH233021   1.915   5.244   1.294
11027TIP3    H133022   1.937   5.292   1.374
11027TIP3    H233023   1.902   5.313   1.228
11028TIP3   OH233024   1.940   5.969   4.813
11028TIP3    H133025   1.885   6.048   4.807
11028TIP3    H233026   1.911   5.914   4.740
11029TIP3   OH233027   1.439   4.589   5.347
11029TIP3    H133028   1.431   4.555   5.436
11029TIP3    H233029   1.407   4.679   5.353
11030TIP3   OH233030   6.502   5.969   5.942
11030TIP3    H133031   6.572   6.021   5.902
11030TIP3    H233032   6.505   5.992   6.035
11031TIP3   OH233033   7.492   3.412   2.803
11031TIP3    H133034   7.405   3.451   2.792
11031TIP3    H233035   7.537   3.428   2.720
11032TIP3   OH233036   4.060   6.664   6.370
11032TIP3    H133037   4.080   6.680   6.462
11032TIP3    H233038   3.977   6.618   6.371
11033TIP3   OH233039   6.669   0.986   6.258
11033TIP3    H133040   6.631   1.030   6.182
11033TIP3    H233041   6.604   0.997   6.328
11034TIP3   OH233042   2.243   1.259   1.531
11034TIP3    H133043   2.322   1.278   1.480
11034TIP3    H233044   2.261   1.294   1.618
11035TIP3   OH233045   3.374   0.549   4.137
11035TIP3    H133046   3.405   0.469   4.179
11035TIP3    H233047   3.290   0.568   4.180
11036TIP3   OH233048   1.581   7.673   0.657
11036TIP3    H133049   1.623   7.658   0.742
11036TIP3    H233050   1.646   7.722   0.606
11037TIP3   OH233051   4.172   4.271   4.611
11037TIP3    H133052   4.227   4.254   4.687
11037TIP3    H233053   4.165   4.366   4.607
11038TIP3   OH233054   2.299   7.296   5.917
11038TIP3    H133055   2.307   7.202   5.906
11038TIP3    H233056   2.319   7.312   6.010
11039TIP3   OH233057   4.459   5.923   3.904
11039TIP3    H133058   4.504   5.880   3.831
11039TIP3    H233059   4.529   5.943   3.967
11040TIP3   OH233060   1.970   2.188   4.681
11040TIP3    H133061   1.890   2.197   4.629
11040TIP3    H233062   1.938   2.165   4.769
11041TIP3   OH233063   1.546   2.534   6.269
11041TIP3    H133064   1.613   2.568   6.329
11041TIP3    H233065   1.463   2.548   6.315
11042TIP3   OH233066   1.029   3.184   2.861
11042TIP3    H133067   1.068   3.098   2.874
11042TIP3    H233068   0.987   3.204   2.945
11043TIP3   OH233069   7.421   3.720   3.484
11043TIP3    H133070   7.516   3.709   3.492
11043TIP3    H233071   7.387   3.680   3.564
11044TIP3   OH233072   1.232   5.716   2.520
11044TIP3    H133073   1.294   5.786   2.538
11044TIP3    H233074   1.261   5.643   2.576
11045TIP3   OH233075   7.711   1.868   3.045
11045TIP3    H133076   7.740   1.820   3.123
11045TIP3    H233077   7.636   1.818   3.012
11046TIP3   OH233078   4.231   1.401   0.102
11046TIP3    H133079   4.221   1.479   0.156
11046TIP3    H233080   4.267   1.433   0.020
11047TIP3   OH233081   4.913   5.359   6.542
11047TIP3    H133082   4.935   5.414   6.467
11047TIP3    H233083   4.997   5.336   6.582
11048TIP3   OH233084   3.488   0.917   4.491
11048TIP3    H133085   3.393   0.922   4.486
11048TIP3    H233086   3.508   0.824   4.488
11049TIP3   OH233087   2.395   2.195   5.519
11049TIP3    H133088   2.481   2.181   5.559
11049TIP3    H233089   2.414   2.216   5.427
11050TIP3   OH233090   4.567   2.239   0.447
11050TIP3    H133091   4.502   2.176   0.480
11050TIP3    H233092   4.632   2.185   0.402
11051TIP3   OH233093   6.532   2.876   0.381
11051TIP3    H133094   6.542   2.959   0.334
11051TIP3    H233095   6.520   2.901   0.472
11052TIP3   OH233096   4.239   0.301   5.413
11052TIP3    H133097   4.169   0.360   5.386
11052TIP3    H233098   4.285   0.281   5.331
11053TIP3   OH233099   0.509   4.718   1.358
11053TIP3    H133100   0.554   4.792   1.399
11053TIP3    H233101   0.430   4.756   1.319
11054TIP3   OH233102   1.745   0.069   1.824
11054TIP3    H133103   1.809   0.122   1.873
11054TIP3    H233104   1.666   0.073   1.878
11055TIP3   OH233105   0.589   4.476   2.387
11055TIP3    H133106   0.653   4.538   2.353
11055TIP3    H233107   0.545   4.442   2.309
11056TIP3   OH233108   3.088   1.852   0.817
11056TIP3    H133109   3.163   1.793   0.814
11056TIP3    H233110   3.042   1.828   0.898
11057TIP3   OH233111   6.751   0.659   0.841
11057TIP3    H133112   6.750   0.629   0.750
11057TIP3    H233113   6.826   0.615   0.880
11058TIP3   OH233114   1.922   0.832   2.709
11058TIP3    H133115   1.944   0.915   2.753
11058TIP3    H233116   1.919   0.768   2.780
11059TIP3   OH233117   1.133   1.949   6.680
11059TIP3    H133118   1.070   1.913   6.743
11059TIP3    H233119   1.218   1.918   6.712
11060TIP3   OH233120   6.771   0.541   2.314
11060TIP3    H133121   6.702   0.541   2.381
11060TIP3    H233122   6.735   0.593   2.242
11061TIP3   OH233123   2.626   2.868   3.896
11061TIP3    H133124   2.651   2.960   3.891
11061TIP3    H233125   2.706   2.820   3.874
11062TIP3   OH233126   4.114   2.447   2.223
11062TIP3    H133127   4.196   2.488   2.196
11062TIP3    H233128   4.088   2.394   2.147
11063TIP3   OH233129   1.940   0.172   1.981
11063TIP3    H133130   2.008   0.184   1.916
11063TIP3    H233131   1.977   0.208   2.062
11064TIP3   OH233132   1.167   5.687   1.377
11064TIP3    H133133   1.106   5.733   1.435
11064TIP3    H233134   1.216   5.757   1.334
11065TIP3   OH233135   4.467   7.728   6.303
11065TIP3    H133136   4.507   7.792   6.361
11065TIP3    H233137   4.397   7.688   6.355
11066TIP3   OH233138   4.479   3.976   3.523
11066TIP3    H133139   4.552   4.033   3.498
11066TIP3    H233140   4.516   3.919   3.590
11067TIP3   OH233141   6.951   4.859   1.300
11067TIP3    H133142   6.999   4.940   1.285
11067TIP3    H233143   6.938   4.855   1.394
11068TIP3   OH233144   4.590   0.588   5.572
11068TIP3    H133145   4.583   0.683   5.567
11068TIP3    H233146   4.549   0.556   5.492
11069TIP3   OH233147   5.184   7.907   2.139
11069TIP3    H133148   5.239   7.943   2.070
11069TIP3    H233149   5.110   7.867   2.092
11070TIP3   OH233150   6.395   5.912   1.853
11070TIP3    H133151   6.465   5.972   1.880
11070TIP3    H233152   6.411   5.897   1.759
11071TIP3   OH233153   7.382   0.046   3.659
11071TIP3    H133154   7.478   0.043   3.651
11071TIP3    H233155   7.355   0.111   3.593
11072TIP3   OH233156   2.668   7.527   5.337
11072TIP3    H133157   2.652   7.436   5.361
11072TIP3    H233158   2.753   7.548   5.377
11073TIP3   OH233159   4.230   6.998   0.610
11073TIP3    H133160   4.230   6.940   0.535
11073TIP3    H233161   4.232   6.940   0.686
11074TIP3   OH233162   4.984   0.085   6.294
11074TIP3    H133163   4.964   0.127   6.210
11074TIP3    H233164   5.072   0.050   6.283
11075TIP3   OH233165   7.481   1.183   3.343
11075TIP3    H133166   7.480   1.259   3.402
11075TIP3    H233167   7.458   1.219   3.257
11076TIP3   OH233168   7.044   4.956   2.479
11076TIP3    H133169   7.076   4.866   2.487
11076TIP3    H233170   6.963   4.958   2.531
11077TIP3   OH233171   8.089   2.100   5.375
11077TIP3    H133172   8.172   2.137   5.343
11077TIP3    H233173   8.050   2.170   5.427
11078TIP3   OH233174   2.866   4.449   4.240
11078TIP3    H133175   2.906   4.370   4.277
11078TIP3    H233176   2.901   4.520   4.294
11079TIP3   OH233177   3.203   7.267   5.256
11079TIP3    H133178   3.168   7.250   5.344
11079TIP3    H233179   3.130   7.307   5.209
11080TIP3   OH233180   0.333   5.070   3.449
11080TIP3    H133181   0.299   5.121   3.522
11080TIP3    H233182   0.332   5.130   3.375
11081TIP3   OH233183   4.232   2.224   6.257
11081TIP3    H133184   4.284   2.197   6.182
11081TIP3    H233185   4.296   2.263   6.318
11082TIP3   OH233186   3.236   5.987   4.786
11082TIP3    H133187   3.299   5.966   4.716
11082TIP3    H233188   3.179   6.053   4.747
11083TIP3   OH233189   7.562   7.603   0.798
11083TIP3    H133190   7.621   7.565   0.732
11083TIP3    H233191   7.611   7.597   0.880
11084TIP3   OH233192   5.294   1.937   5.230
11084TIP3    H133193   5.351   1.957   5.155
11084TIP3    H233194   5.209   1.920   5.191
11085TIP3   OH233195   4.230   6.605   1.080
11085TIP3    H133196   4.197   6.695   1.072
11085TIP3    H233197   4.193   6.573   1.162
11086TIP3   OH233198   1.216   3.154   0.749
11086TIP3    H133199   1.280   3.214   0.787
11086TIP3    H233200   1.178   3.110   0.825
11087TIP3   OH233201   4.614   7.044   4.686
11087TIP3    H133202   4.551   7.099   4.732
11087TIP3    H233203   4.604   7.067   4.594
11088TIP3   OH233204   4.933   3.880   0.063
11088TIP3    H133205   4.856   3.864   0.008
11088TIP3    H233206   4.900   3.936   0.133
11089TIP3   OH233207   3.514   5.714   2.600
11089TIP3    H133208   3.555   5.642   2.648
11089TIP3    H233209   3.539   5.700   2.509
11090TIP3   OH233210   1.344   1.934   0.947
11090TIP3    H133211   1.270   1.957   0.891
11090TIP3    H233212   1.305   1.917   1.033
11091TIP3   OH233213   6.629   7.339   1.630
11091TIP3    H133214   6.593   7.273   1.570
11091TIP3    H233215   6.624   7.421   1.581
11092TIP3   OH233216   1.304   0.171   5.100
11092TIP3    H133217   1.297   0.266   5.108
11092TIP3    H233218   1.220   0.144   5.060
11093TIP3   OH233219   1.653  -0.003   6.206
11093TIP3    H133220   1.662   0.074   6.262
11093TIP3    H233221   1.587  -0.057   6.250
11094TIP3   OH233222   1.899   6.735   3.780
11094TIP3    H133223   1.818   6.724   3.829
11094TIP3    H233224   1.968   6.706   3.841
11095TIP3   OH233225   6.217   1.509   1.238
11095TIP3    H133226   6.279   1.478   1.305
11095TIP3    H233227   6.254   1.477   1.156
11096TIP3   OH233228   6.354   2.759   4.167
11096TIP3    H133229   6.423   2.759   4.233
11096TIP3    H233230   6.389   2.704   4.096
11097TIP3   OH233231   2.007   1.564   4.393
11097TIP3    H133232   1.999   1.484   4.446
11097TIP3    H233233   2.101   1.579   4.386
11098TIP3   OH233234   1.610   5.158   3.060
11098TIP3    H133235   1.517   5.134   3.052
11098TIP3    H233236   1.617   5.242   3.015
11099TIP3   OH233237   5.138   1.530   2.724
11099TIP3    H133238   5.212   1.521   2.783
11099TIP3    H233239   5.061   1.523   2.780
11100TIP3   OH233240   4.377   3.360   0.804
11100TIP3    H133241   4.417   3.436   0.846
11100TIP3    H233242   4.305   3.335   0.862
11101TIP3   OH233243   2.290   2.989   2.519
11101TIP3    H133244   2.256   2.980   2.608
11101TIP3    H233245   2.266   2.907   2.476
11102TIP3   OH233246   2.706   5.060   6.714
11102TIP3    H133247   2.641   5.066   6.784
11102TIP3    H233248   2.661   5.093   6.636
11103TIP3   OH233249   0.915   5.581   1.353
11103TIP3    H133250   1.010   5.594   1.352
11103TIP3    H233251   0.881   5.651   1.408
11104TIP3   OH233252   1.326   3.097   2.728
11104TIP3    H133253   1.248   3.049   2.754
11104TIP3    H233254   1.390   3.029   2.706
11105TIP3   OH233255   1.456   1.461   5.156
11105TIP3    H133256   1.433   1.552   5.138
11105TIP3    H233257   1.525   1.465   5.222
11106TIP3   OH233258   0.355   2.480   3.804
11106TIP3    H133259   0.394   2.394   3.791
11106TIP3    H233260   0.369   2.525   3.721
11107TIP3   OH233261   4.154   4.717   1.587
11107TIP3    H133262   4.177   4.803   1.622
11107TIP3    H233263   4.104   4.675   1.657
11108TIP3   OH233264   6.127   6.195   0.116
11108TIP3    H133265   6.150   6.162   0.029
11108TIP3    H233266   6.208   6.235   0.149
11109TIP3   OH233267   6.866   4.828   4.807
11109TIP3    H133268   6.898   4.900   4.753
11109TIP3    H233269   6.917   4.834   4.888
11110TIP3   OH233270   5.601   3.739   3.921
11110TIP3    H133271   5.530   3.769   3.865
11110TIP3    H233272   5.663   3.812   3.925
11111TIP3   OH233273   4.283   4.751   6.058
11111TIP3    H133274   4.213   4.716   6.003
11111TIP3    H233275   4.263   4.721   6.146
11112TIP3   OH233276   3.706   5.813   2.992
11112TIP3    H133277   3.616   5.782   3.005
11112TIP3    H233278   3.709   5.897   3.037
11113TIP3   OH233279   0.560   5.853   1.032
11113TIP3    H133280   0.556   5.877   1.125
11113TIP3    H233281   0.472   5.821   1.011
11114TIP3   OH233282   2.987   6.350   4.071
11114TIP3    H133283   3.018   6.324   4.158
11114TIP3    H233284   3.030   6.435   4.056
11115TIP3   OH233285   6.325   6.545   6.687
11115TIP3    H133286   6.235   6.577   6.675
11115TIP3    H233287   6.379   6.623   6.676
11116TIP3   OH233288   6.172   7.889   1.612
11116TIP3    H133289   6.245   7.840   1.648
11116TIP3    H233290   6.102   7.879   1.677
11117TIP3   OH233291   4.124   5.761   5.086
11117TIP3    H133292   4.157   5.822   5.152
11117TIP3    H233293   4.041   5.730   5.122
11118TIP3   OH233294   0.108   6.039   1.864
11118TIP3    H133295   0.093   5.992   1.946
11118TIP3    H233296   0.040   6.007   1.805
11119TIP3   OH233297   6.295   7.872   6.399
11119TIP3    H133298   6.345   7.885   6.479
11119TIP3    H233299   6.341   7.923   6.333
11120TIP3   OH233300   2.096   2.984   4.509
11120TIP3    H133301   2.086   2.917   4.442
11120TIP3    H233302   2.190   2.985   4.527
11121TIP3   OH233303   3.393   6.939   1.894
11121TIP3    H133304   3.369   7.023   1.932
11121TIP3    H233305   3.377   6.875   1.964
11122TIP3   OH233306   5.237   7.294   3.794
11122TIP3    H133307   5.170   7.350   3.831
11122TIP3    H233308   5.216   7.289   3.701
11123TIP3   OH233309   6.157   1.212   3.006
11123TIP3    H133310   6.080   1.234   3.059
11123TIP3    H233311   6.216   1.286   3.016
11124TIP3   OH233312   4.913   7.247   1.838
11124TIP3    H133313   4.992   7.193   1.844
11124TIP3    H233314   4.877   7.229   1.752
11125TIP3   OH233315   5.270   3.281   0.241
11125TIP3    H133316   5.282   3.375   0.255
11125TIP3    H233317   5.289   3.267   0.148
11126TIP3   OH233318   1.720   3.091   2.212
11126TIP3    H133319   1.711   3.145   2.134
11126TIP3    H233320   1.762   3.149   2.276
11127TIP3   OH233321   4.512   1.387   6.396
11127TIP3    H133322   4.595   1.363   6.356
11127TIP3    H233323   4.536   1.433   6.477
11128TIP3   OH233324   6.135   1.279   1.614
11128TIP3    H133325   6.069   1.291   1.546
11128TIP3    H233326   6.119   1.192   1.648
11129TIP3   OH233327   3.672   1.806   6.498
11129TIP3    H133328   3.745   1.862   6.471
11129TIP3    H233329   3.702   1.767   6.580
11130TIP3   OH233330   2.542   0.349   1.313
11130TIP3    H133331   2.611   0.407   1.281
11130TIP3    H233332   2.471   0.407   1.339
11131TIP3   OH233333   5.985   3.890   2.093
11131TIP3    H133334   5.915   3.949   2.120
11131TIP3    H233335   6.065   3.931   2.128
11132TIP3   OH233336   5.989   2.509   2.670
11132TIP3    H133337   5.935   2.575   2.626
11132TIP3    H233338   5.980   2.529   2.763
11133TIP3   OH233339   8.351   4.817   1.826
11133TIP3    H133340   8.293   4.881   1.785
11133TIP3    H233341   8.297   4.739   1.836
11134TIP3   OH233342   3.365   0.403   1.639
11134TIP3    H133343   3.270   0.399   1.651
11134TIP3    H233344   3.387   0.494   1.661
11135TIP3   OH233345   5.768   1.099   1.984
11135TIP3    H133346   5.858   1.068   1.997
11135TIP3    H233347   5.762   1.179   2.035
11136TIP3   OH233348   2.321   5.801   0.163
11136TIP3    H133349   2.247   5.802   0.224
11136TIP3    H233350   2.283   5.772   0.080
11137TIP3   OH233351   7.840   0.303   3.262
11137TIP3    H133352   7.778   0.375   3.271
11137TIP3    H233353   7.848   0.267   3.350
11138TIP3   OH233354   6.308   5.898   2.543
11138TIP3    H133355   6.257   5.975   2.569
11138TIP3    H233356   6.244   5.841   2.500
11139TIP3   OH233357   3.761   3.943   5.471
11139TIP3    H133358   3.731   3.897   5.550
11139TIP3    H233359   3.681   3.980   5.434
11140TIP3   OH233360   4.565   0.932   1.801
11140TIP3    H133361   4.613   0.874   1.742
11140TIP3    H233362   4.529   0.999   1.743
11141TIP3   OH233363   4.883   6.345   3.876
11141TIP3    H133364   4.867   6.251   3.868
11141TIP3    H233365   4.856   6.367   3.965
11142TIP3   OH233366   0.891   6.247   0.377
11142TIP3    H133367   0.890   6.154   0.354
11142TIP3    H233368   0.863   6.249   0.469
11143TIP3   OH233369   5.777   4.391   1.461
11143TIP3    H133370   5.738   4.406   1.375
11143TIP3    H233371   5.870   4.379   1.444
11144TIP3   OH233372   4.156   0.742   0.752
11144TIP3    H133373   4.236   0.693   0.733
11144TIP3    H233374   4.113   0.691   0.820
11145TIP3   OH233375   8.363   4.793   3.807
11145TIP3    H133376   8.439   4.844   3.832
11145TIP3    H233377   8.295   4.858   3.789
11146TIP3   OH233378   8.391   4.528   2.695
11146TIP3    H133379   8.311   4.537   2.747
11146TIP3    H233380   8.411   4.435   2.698
11147TIP3   OH233381   3.466   1.977   0.671
11147TIP3    H133382   3.439   1.913   0.606
11147TIP3    H233383   3.422   2.058   0.645
11148TIP3   OH233384   0.452   4.635   4.294
11148TIP3    H133385   0.370   4.684   4.304
11148TIP3    H233386   0.436   4.577   4.220
11149TIP3   OH233387   0.500   5.389   5.481
11149TIP3    H133388   0.485   5.384   5.387
11149TIP3    H233389   0.477   5.479   5.504
11150TIP3   OH233390   4.415   2.565   2.240
11150TIP3    H133391   4.415   2.543   2.147
11150TIP3    H233392   4.430   2.660   2.242
11151TIP3   OH233393   8.253   2.600   6.467
11151TIP3    H133394   8.178   2.655   6.491
11151TIP3    H233395   8.273   2.624   6.377
11152TIP3   OH233396   1.979   3.251   6.241
11152TIP3    H133397   1.974   3.344   6.262
11152TIP3    H233398   2.070   3.239   6.212
11153TIP3   OH233399   3.724   1.618   2.300
11153TIP3    H133400   3.739   1.523   2.295
11153TIP3    H233401   3.634   1.626   2.331
11154TIP3   OH233402   0.869   4.779   1.990
11154TIP3    H133403   0.922   4.823   1.923
11154TIP3    H233404   0.782   4.816   1.980
11155TIP3   OH233405   2.609   3.609   1.057
11155TIP3    H133406   2.531   3.629   1.004
11155TIP3    H233407   2.681   3.653   1.011
11156TIP3   OH233408   7.428   0.504   0.169
11156TIP3    H133409   7.352   0.470   0.122
11156TIP3    H233410   7.450   0.435   0.232
11157TIP3   OH233411   6.022   3.159   6.344
11157TIP3    H133412   6.079   3.113   6.283
11157TIP3    H233413   6.081   3.199   6.408
11158TIP3   OH233414   7.014   2.616   5.311
11158TIP3    H133415   7.066   2.691   5.341
11158TIP3    H233416   6.960   2.593   5.386
11159TIP3   OH233417   3.192   0.246   3.300
11159TIP3    H133418   3.209   0.333   3.264
11159TIP3    H233419   3.142   0.201   3.232
11160TIP3   OH233420   5.497   6.355   3.106
11160TIP3    H133421   5.414   6.354   3.059
11160TIP3    H233422   5.480   6.412   3.181
11161TIP3   OH233423   6.438   1.545   4.602
11161TIP3    H133424   6.377   1.583   4.538
11161TIP3    H233425   6.516   1.525   4.551
11162TIP3   OH233426   3.020   6.797   2.813
11162TIP3    H133427   3.042   6.888   2.795
11162TIP3    H233428   3.097   6.748   2.783
11163TIP3   OH233429   7.533   0.049   6.678
11163TIP3    H133430   7.468   0.118   6.665
11163TIP3    H233431   7.587   0.080   6.751
11164TIP3   OH233432   2.200   5.530   5.685
11164TIP3    H133433   2.282   5.517   5.637
11164TIP3    H233434   2.143   5.460   5.653
11165TIP3   OH233435   4.922   5.688   2.090
11165TIP3    H133436   4.983   5.689   2.164
11165TIP3    H233437   4.952   5.756   2.031
11166TIP3   OH233438   2.996   4.040   1.039
11166TIP3    H133439   2.970   4.106   0.975
11166TIP3    H233440   2.925   4.039   1.103
11167TIP3   OH233441   2.840   5.779   4.925
11167TIP3    H133442   2.859   5.873   4.932
11167TIP3    H233443   2.843   5.748   5.016
11168TIP3   OH233444   5.141   5.632   4.691
11168TIP3    H133445   5.071   5.670   4.637
11168TIP3    H233446   5.221   5.652   4.643
11169TIP3   OH233447   0.345   0.069   5.455
11169TIP3    H133448   0.385   0.131   5.395
11169TIP3    H233449   0.251   0.087   5.449
11170TIP3   OH233450   2.100   0.155   2.464
11170TIP3    H133451   2.072   0.075   2.421
11170TIP3    H233452   2.060   0.225   2.413
11171TIP3   OH233453   6.614   0.267   6.548
11171TIP3    H133454   6.529   0.272   6.591
11171TIP3    H233455   6.670   0.327   6.599
11172TIP3   OH233456   2.256   3.639   0.441
11172TIP3    H133457   2.219   3.727   0.435
11172TIP3    H233458   2.334   3.642   0.386
11173TIP3   OH233459   7.524   6.255   0.222
11173TIP3    H133460   7.597   6.273   0.163
11173TIP3    H233461   7.447   6.254   0.165
11174TIP3   OH233462   7.986   5.151   3.692
11174TIP3    H133463   7.916   5.095   3.725
11174TIP3    H233464   7.968   5.237   3.732
11175TIP3   OH233465   5.052   7.282   5.595
11175TIP3    H133466   5.034   7.359   5.649
11175TIP3    H233467   5.091   7.317   5.515
11176TIP3   OH233468   4.296   5.928   0.219
11176TIP3    H133469   4.225   5.947   0.157
11176TIP3    H233470   4.270   5.846   0.260
11177TIP3   OH233471   5.176   1.759   5.656
11177TIP3    H133472   5.191   1.678   5.607
11177TIP3    H233473   5.145   1.821   5.590
11178TIP3   OH233474   0.883   7.738   6.560
11178TIP3    H133475   0.842   7.714   6.476
11178TIP3    H233476   0.959   7.681   6.566
11179TIP3   OH233477   2.812   4.961   1.071
11179TIP3    H133478   2.757   5.006   1.135
11179TIP3    H233479   2.806   5.013   0.992
11180TIP3   OH233480   7.909   4.151   3.336
11180TIP3    H133481   7.914   4.080   3.400
11180TIP3    H233482   7.819   4.148   3.304
11181TIP3   OH233483   0.361   7.203   1.339
11181TIP3    H133484   0.385   7.293   1.358
11181TIP3    H233485   0.388   7.190   1.248
11182TIP3   OH233486   1.086   5.986   1.216
11182TIP3    H133487   1.020   5.921   1.191
11182TIP3    H233488   1.077   5.993   1.311
11183TIP3   OH233489   1.513   0.826   4.334
11183TIP3    H133490   1.525   0.863   4.421
11183TIP3    H233491   1.599   0.795   4.308
11184TIP3   OH233492   8.091   1.940   4.350
11184TIP3    H133493   8.173   1.929   4.301
11184TIP3    H233494   8.066   1.850   4.374
11185TIP3   OH233495   0.856   7.649   0.452
11185TIP3    H133496   0.832   7.583   0.386
11185TIP3    H233497   0.917   7.604   0.510
11186TIP3   OH233498   6.222   0.050   4.005
11186TIP3    H133499   6.166   0.090   4.071
11186TIP3    H233500   6.162   0.008   3.944
11187TIP3   OH233501   0.720   1.377   1.664
11187TIP3    H133502   0.700   1.465   1.630
11187TIP3    H233503   0.717   1.386   1.759
11188TIP3   OH233504   1.358   4.550   3.472
11188TIP3    H133505   1.329   4.627   3.423
11188TIP3    H233506   1.372   4.583   3.561
11189TIP3   OH233507   6.688   5.857   4.059
11189TIP3    H133508   6.755   5.791   4.041
11189TIP3    H233509   6.664   5.891   3.973
11190TIP3   OH233510   6.394   2.415   3.427
11190TIP3    H133511   6.338   2.490   3.450
11190TIP3    H233512   6.475   2.454   3.396
11191TIP3   OH233513   5.098   5.488   0.746
11191TIP3    H133514   5.036   5.555   0.775
11191TIP3    H233515   5.064   5.459   0.661
11192TIP3   OH233516   4.391   6.668   0.040
11192TIP3    H133517   4.428   6.708  -0.039
11192TIP3    H233518   4.437   6.711   0.112
11193TIP3   OH233519   6.404   0.462   2.743
11193TIP3    H133520   6.322   0.504   2.768
11193TIP3    H233521   6.469   0.500   2.803
11194TIP3   OH233522   0.056   6.982   1.487
11194TIP3    H133523  -0.030   6.959   1.522
11194TIP3    H233524   0.103   6.898   1.480
11195TIP3   OH233525   4.362   3.311   0.030
11195TIP3    H133526   4.390   3.263   0.108
11195TIP3    H233527   4.274   3.279   0.012
11196TIP3   OH233528   3.373   3.149   5.802
11196TIP3    H133529   3.308   3.164   5.734
11196TIP3    H233530   3.370   3.228   5.856
11197TIP3   OH233531   7.636   0.181   5.635
11197TIP3    H133532   7.648   0.095   5.595
11197TIP3    H233533   7.717   0.197   5.682
11198TIP3   OH233534   1.251   6.388   0.250
11198TIP3    H133535   1.340   6.354   0.242
11198TIP3    H233536   1.230   6.378   0.343
11199TIP3   OH233537   7.930   3.232   0.209
11199TIP3    H133538   7.900   3.209   0.297
11199TIP3    H233539   8.012   3.185   0.199
11200TIP3   OH233540   8.136   3.870   1.418
11200TIP3    H133541   8.146   3.953   1.372
11200TIP3    H233542   8.090   3.893   1.499
11201TIP3   OH233543   2.442   5.016   2.534
11201TIP3    H133544   2.458   4.933   2.579
11201TIP3    H233545   2.523   5.066   2.546
11202TIP3   OH233546   6.000   0.151   5.976
11202TIP3    H133547   5.941   0.215   6.015
11202TIP3    H233548   6.078   0.153   6.030
11203TIP3   OH233549   7.161   3.108   1.298
11203TIP3    H133550   7.187   3.130   1.388
11203TIP3    H233551   7.229   3.048   1.267
11204TIP3   OH233552   3.761   4.986   2.145
11204TIP3    H133553   3.818   5.060   2.167
11204TIP3    H233554   3.784   4.965   2.054
11205TIP3   OH233555   3.735   0.984   6.224
11205TIP3    H133556   3.694   1.068   6.203
11205TIP3    H233557   3.689   0.921   6.169
11206TIP3   OH233558   4.198   6.165   1.455
11206TIP3    H133559   4.266   6.170   1.522
11206TIP3    H233560   4.150   6.248   1.464
11207TIP3   OH233561   8.136   4.436   5.184
11207TIP3    H133562   8.042   4.445   5.171
11207TIP3    H233563   8.168   4.525   5.200
11208TIP3   OH233564   1.830   6.993   4.100
11208TIP3    H133565   1.823   7.016   4.007
11208TIP3    H233566   1.925   6.986   4.115
11209TIP3   OH233567   3.587   3.890   4.253
11209TIP3    H133568   3.524   3.931   4.194
11209TIP3    H233569   3.672   3.913   4.216
11210TIP3   OH233570   8.276   5.241   1.999
11210TIP3    H133571   8.272   5.173   2.066
11210TIP3    H233572   8.299   5.321   2.048
11211TIP3   OH233573   2.913   5.695   4.089
11211TIP3    H133574   2.953   5.610   4.070
11211TIP3    H233575   2.960   5.726   4.167
11212TIP3   OH233576   4.568   5.537   0.434
11212TIP3    H133577   4.597   5.597   0.365
11212TIP3    H233578   4.649   5.505   0.474
11213TIP3   OH233579   7.971   3.445   4.778
11213TIP3    H133580   7.916   3.384   4.728
11213TIP3    H233581   8.020   3.492   4.711
11214TIP3   OH233582   2.314   0.071   3.000
11214TIP3    H133583   2.263  -0.003   3.035
11214TIP3    H233584   2.314   0.057   2.905
11215TIP3   OH233585   3.968   7.557   6.778
11215TIP3    H133586   3.987   7.521   6.865
11215TIP3    H233587   3.940   7.647   6.794
11216TIP3   OH233588   6.386   0.841   3.084
11216TIP3    H133589   6.387   0.746   3.092
11216TIP3    H233590   6.478   0.867   3.088
11217TIP3   OH233591   2.868   7.611   6.580
11217TIP3    H133592   2.816   7.541   6.542
11217TIP3    H233593   2.935   7.566   6.632
11218TIP3   OH233594   5.193   6.837   1.194
11218TIP3    H133595   5.146   6.764   1.234
11218TIP3    H233596   5.201   6.813   1.102
11219TIP3   OH233597   5.473   1.497   4.535
11219TIP3    H133598   5.413   1.465   4.601
11219TIP3    H233599   5.553   1.446   4.548
11220TIP3   OH233600   8.203   4.119   4.087
11220TIP3    H133601   8.131   4.080   4.038
11220TIP3    H233602   8.183   4.213   4.088
11221TIP3   OH233603   1.846   3.921   0.552
11221TIP3    H133604   1.901   3.956   0.482
11221TIP3    H233605   1.894   3.844   0.584
11222TIP3   OH233606   3.907   0.926   0.914
11222TIP3    H133607   3.851   0.909   0.838
11222TIP3    H233608   3.996   0.920   0.880
11223TIP3   OH233609   2.439   6.511   2.447
11223TIP3    H133610   2.348   6.489   2.428
11223TIP3    H233611   2.460   6.581   2.385
11224TIP3   OH233612   4.781   2.410   3.113
11224TIP3    H133613   4.744   2.409   3.202
11224TIP3    H233614   4.726   2.349   3.064
11225TIP3   OH233615   4.395   1.940   5.136
11225TIP3    H133616   4.385   1.934   5.041
11225TIP3    H233617   4.313   1.979   5.167
11226TIP3   OH233618   4.612   1.875   6.439
11226TIP3    H133619   4.609   1.952   6.496
11226TIP3    H233620   4.642   1.909   6.355
11227TIP3   OH233621   7.437   1.730   4.220
11227TIP3    H133622   7.530   1.751   4.230
11227TIP3    H233623   7.401   1.804   4.171
11228TIP3   OH233624   5.613   3.077   5.745
11228TIP3    H133625   5.531   3.039   5.713
11228TIP3    H233626   5.597   3.096   5.837
11229TIP3   OH233627   7.783   1.080   6.570
11229TIP3    H133628   7.797   1.128   6.652
11229TIP3    H233629   7.695   1.104   6.542
11230TIP3   OH233630   2.172   4.578   1.175
11230TIP3    H133631   2.227   4.595   1.251
11230TIP3    H233632   2.112   4.653   1.171
11231TIP3   OH233633   1.625   3.552   4.862
11231TIP3    H133634   1.529   3.550   4.867
11231TIP3    H233635   1.654   3.499   4.936
11232TIP3   OH233636   4.337   7.181   3.858
11232TIP3    H133637   4.254   7.157   3.899
11232TIP3    H233638   4.370   7.253   3.912
11233TIP3   OH233639   5.711   7.907   0.244
11233TIP3    H133640   5.764   7.866   0.312
11233TIP3    H233641   5.649   7.840   0.218
11234TIP3   OH233642   5.494   5.391   5.705
11234TIP3    H133643   5.516   5.468   5.653
11234TIP3    H233644   5.399   5.389   5.708
11235TIP3   OH233645   7.774   3.496   5.650
11235TIP3    H133646   7.706   3.465   5.709
11235TIP3    H233647   7.794   3.585   5.680
11236TIP3   OH233648   4.859   7.826  -0.005
11236TIP3    H133649   4.841   7.807   0.087
11236TIP3    H233650   4.889   7.917  -0.006
11237TIP3   OH233651   7.227   6.819   4.445
11237TIP3    H133652   7.288   6.771   4.389
11237TIP3    H233653   7.284   6.870   4.503
11238TIP3   OH233654   4.756   0.671   2.906
11238TIP3    H133655   4.689   0.712   2.851
11238TIP3    H233656   4.830   0.658   2.847
11239TIP3   OH233657   6.405   4.118   6.134
11239TIP3    H133658   6.494   4.097   6.108
11239TIP3    H233659   6.405   4.109   6.229
11240TIP3   OH233660   1.719   5.282   3.341
11240TIP3    H133661   1.733   5.358   3.285
11240TIP3    H233662   1.737   5.207   3.284
11241TIP3   OH233663   1.196   4.848   0.791
11241TIP3    H133664   1.174   4.932   0.831
11241TIP3    H233665   1.280   4.864   0.748
11242TIP3   OH233666   3.825   5.810   5.908
11242TIP3    H133667   3.836   5.763   5.991
11242TIP3    H233668   3.816   5.902   5.933
11243TIP3   OH233669   3.335   2.254   3.996
11243TIP3    H133670   3.372   2.310   4.064
11243TIP3    H233671   3.358   2.297   3.913
11244TIP3   OH233672   7.908   4.381   0.147
11244TIP3    H133673   7.828   4.334   0.124
11244TIP3    H233674   7.920   4.445   0.077
11245TIP3   OH233675   2.653   6.342   2.483
11245TIP3    H133676   2.570   6.385   2.462
11245TIP3    H233677   2.689   6.317   2.398
11246TIP3   OH233678   2.936   2.088   5.751
11246TIP3    H133679   2.953   1.994   5.746
11246TIP3    H233680   2.985   2.117   5.829
11247TIP3   OH233681   7.401   4.731   6.261
11247TIP3    H133682   7.385   4.710   6.353
11247TIP3    H233683   7.315   4.735   6.222
11248TIP3   OH233684   4.069   0.319   6.411
11248TIP3    H133685   4.150   0.325   6.360
11248TIP3    H233686   4.089   0.255   6.480
11249TIP3   OH233687   2.298   6.879   0.104
11249TIP3    H133688   2.306   6.864   0.010
11249TIP3    H233689   2.304   6.792   0.144
11250TIP3   OH233690   3.262   1.316   4.375
11250TIP3    H133691   3.298   1.385   4.319
11250TIP3    H233692   3.296   1.234   4.338
11251TIP3   OH233693   0.392   4.903   0.502
11251TIP3    H133694   0.464   4.863   0.453
11251TIP3    H233695   0.314   4.884   0.451
11252TIP3   OH233696   0.298   2.999   1.436
11252TIP3    H133697   0.206   3.006   1.410
11252TIP3    H233698   0.338   2.943   1.370
11253TIP3   OH233699   5.629   5.464   0.615
11253TIP3    H133700   5.668   5.418   0.688
11253TIP3    H233701   5.560   5.518   0.655
11254TIP3   OH233702   0.137   2.368   2.561
11254TIP3    H133703   0.114   2.456   2.532
11254TIP3    H233704   0.185   2.330   2.487
11255TIP3   OH233705   4.823   0.495   0.063
11255TIP3    H133706   4.789   0.425   0.007
11255TIP3    H233707   4.912   0.466   0.086
11256TIP3   OH233708   4.143   4.126   6.795
11256TIP3    H133709   4.166   4.078   6.715
11256TIP3    H233710   4.115   4.058   6.856
11257TIP3   OH233711   1.396   4.850   1.255
11257TIP3    H133712   1.304   4.860   1.281
11257TIP3    H233713   1.428   4.776   1.308
11258TIP3   OH233714   4.348   2.686   0.443
11258TIP3    H133715   4.334   2.592   0.435
11258TIP3    H233716   4.437   2.695   0.478
11259TIP3   OH233717   3.315   1.544   1.385
11259TIP3    H133718   3.410   1.536   1.394
11259TIP3    H233719   3.287   1.593   1.462
11260TIP3   OH233720   5.368   6.920   5.076
11260TIP3    H133721   5.441   6.923   5.014
11260TIP3    H233722   5.374   6.833   5.115
11261TIP3   OH233723   0.694   7.672   6.743
11261TIP3    H133724   0.614   7.669   6.691
11261TIP3    H233725   0.762   7.701   6.682
11262TIP3   OH233726   7.087   2.640   4.012
11262TIP3    H133727   7.142   2.694   3.955
11262TIP3    H233728   7.124   2.652   4.099
11263TIP3   OH233729   6.006   7.745   1.818
11263TIP3    H133730   5.926   7.711   1.777
11263TIP3    H233731   6.056   7.667   1.842
11264TIP3   OH233732   4.241   6.343   4.198
11264TIP3    H133733   4.157   6.387   4.212
11264TIP3    H233734   4.301   6.388   4.257
11265TIP3   OH233735   1.950   7.629   1.382
11265TIP3    H133736   1.943   7.684   1.460
11265TIP3    H233737   2.028   7.575   1.399
11266TIP3   OH233738   7.498   2.171   6.454
11266TIP3    H133739   7.535   2.191   6.368
11266TIP3    H233740   7.412   2.215   6.454
11267TIP3   OH233741   5.528   6.304   1.936
11267TIP3    H133742   5.615   6.327   1.904
11267TIP3    H233743   5.468   6.346   1.875
11268TIP3   OH233744   8.368   7.299   3.687
11268TIP3    H133745   8.303   7.229   3.685
11268TIP3    H233746   8.369   7.333   3.598
11269TIP3   OH233747   7.732   6.092   4.411
11269TIP3    H133748   7.681   6.015   4.436
11269TIP3    H233749   7.768   6.124   4.493
11270TIP3   OH233750   8.215   5.284   6.466
11270TIP3    H133751   8.155   5.282   6.541
11270TIP3    H233752   8.302   5.278   6.504
11271TIP3   OH233753   0.820   1.385   0.456
11271TIP3    H133754   0.814   1.303   0.406
11271TIP3    H233755   0.906   1.420   0.433
11272TIP3   OH233756   4.467   5.427   4.732
11272TIP3    H133757   4.479   5.354   4.793
11272TIP3    H233758   4.421   5.494   4.783
11273TIP3   OH233759   4.401   1.706   0.916
11273TIP3    H133760   4.314   1.737   0.941
11273TIP3    H233761   4.410   1.730   0.824
11274TIP3   OH233762   4.057   0.459   5.266
11274TIP3    H133763   4.074   0.553   5.275
11274TIP3    H233764   3.966   0.448   5.291
11275TIP3   OH233765   7.091   6.907   2.626
11275TIP3    H133766   7.174   6.887   2.583
11275TIP3    H233767   7.024   6.869   2.569
11276TIP3   OH233768   3.601   5.729   6.390
11276TIP3    H133769   3.633   5.802   6.336
11276TIP3    H233770   3.583   5.659   6.327
11277TIP3   OH233771   8.077   1.616   0.764
11277TIP3    H133772   8.164   1.634   0.728
11277TIP3    H233773   8.023   1.595   0.688
11278TIP3   OH233774   8.272   7.200   4.998
11278TIP3    H133775   8.196   7.143   4.986
11278TIP3    H233776   8.264   7.265   4.928
11279TIP3   OH233777   3.150   7.156   6.428
11279TIP3    H133778   3.174   7.065   6.413
11279TIP3    H233779   3.231   7.197   6.460
11280TIP3   OH233780   7.952   7.239   6.075
11280TIP3    H133781   8.027   7.242   6.135
11280TIP3    H233782   7.904   7.161   6.101
11281TIP3   OH233783   8.188   2.093   3.662
11281TIP3    H133784   8.240   2.173   3.657
11281TIP3    H233785   8.234   2.038   3.725
11282TIP3   OH233786   7.126   4.553   3.170
11282TIP3    H133787   7.136   4.644   3.197
11282TIP3    H233788   7.073   4.514   3.240
11283TIP3   OH233789   1.819   0.640   2.516
11283TIP3    H133790   1.872   0.711   2.553
11283TIP3    H233791   1.731   0.677   2.509
11284TIP3   OH233792   6.105   7.552   5.833
11284TIP3    H133793   6.184   7.505   5.859
11284TIP3    H233794   6.108   7.635   5.881
11285TIP3   OH233795   3.680   0.721   5.490
11285TIP3    H133796   3.626   0.675   5.554
11285TIP3    H233797   3.618   0.770   5.437
11286TIP3   OH233798   3.540   2.569   2.418
11286TIP3    H133799   3.590   2.643   2.384
11286TIP3    H233800   3.594   2.493   2.397
11287TIP3   OH233801   6.965   4.055   2.433
11287TIP3    H133802   7.039   4.076   2.377
11287TIP3    H233803   6.903   4.127   2.418
11288TIP3   OH233804   3.221   3.428   5.641
11288TIP3    H133805   3.179   3.348   5.670
11288TIP3    H233806   3.242   3.414   5.549
11289TIP3   OH233807   7.719   5.173   2.365
11289TIP3    H133808   7.778   5.234   2.409
11289TIP3    H233809   7.694   5.217   2.284
11290TIP3   OH233810   7.131   5.550   3.541
11290TIP3    H133811   7.137   5.587   3.453
11290TIP3    H233812   7.046   5.580   3.574
11291TIP3   OH233813   1.819   3.825   4.462
11291TIP3    H133814   1.825   3.734   4.489
11291TIP3    H233815   1.782   3.870   4.537
11292TIP3   OH233816   7.224   6.525   2.705
11292TIP3    H133817   7.183   6.494   2.786
11292TIP3    H233818   7.277   6.600   2.732
11293TIP3   OH233819   8.232   7.368   2.362
11293TIP3    H133820   8.204   7.459   2.367
11293TIP3    H233821   8.244   7.341   2.453
11294TIP3   OH233822   1.631   3.373   5.079
11294TIP3    H133823   1.671   3.317   5.145
11294TIP3    H233824   1.537   3.361   5.091
11295TIP3   OH233825   2.741   0.409   4.432
11295TIP3    H133826   2.750   0.482   4.494
11295TIP3    H233827   2.809   0.347   4.459
11296TIP3   OH233828   0.194   1.404   6.855
11296TIP3    H133829   0.267   1.463   6.837
11296TIP3    H233830   0.116   1.456   6.838
11297TIP3   OH233831   5.810   3.063   5.128
11297TIP3    H133832   5.871   2.995   5.155
11297TIP3    H233833   5.744   3.017   5.076
11298TIP3   OH233834   5.901   7.236   5.132
11298TIP3    H133835   5.970   7.183   5.092
11298TIP3    H233836   5.832   7.173   5.154
11299TIP3   OH233837   3.221   2.476   4.269
11299TIP3    H133838   3.167   2.420   4.212
11299TIP3    H233839   3.158   2.518   4.327
11300TIP3   OH233840   7.502   1.808   6.052
11300TIP3    H133841   7.438   1.738   6.037
11300TIP3    H233842   7.587   1.764   6.048
11301TIP3   OH233843   3.474   4.589   6.327
11301TIP3    H133844   3.487   4.622   6.238
11301TIP3    H233845   3.419   4.655   6.369
11302TIP3   OH233846   0.390   3.002   6.286
11302TIP3    H133847   0.389   3.091   6.322
11302TIP3    H233848   0.431   3.012   6.200
11303TIP3   OH233849   4.507   7.345   0.674
11303TIP3    H133850   4.584   7.324   0.621
11303TIP3    H233851   4.542   7.365   0.761
11304TIP3   OH233852   3.389   7.490   5.981
11304TIP3    H133853   3.361   7.398   5.984
11304TIP3    H233854   3.389   7.518   6.073
11305TIP3   OH233855   0.812   2.031   3.655
11305TIP3    H133856   0.862   1.986   3.724
11305TIP3    H233857   0.871   2.031   3.579
11306TIP3   OH233858   1.378   1.712   4.494
11306TIP3    H133859   1.393   1.764   4.415
11306TIP3    H233860   1.465   1.679   4.517
11307TIP3   OH233861   8.023   1.279   4.713
11307TIP3    H133862   8.015   1.222   4.790
11307TIP3    H233863   7.969   1.237   4.646
11308TIP3   OH233864   3.985   7.240   6.268
11308TIP3    H133865   3.924   7.222   6.196
11308TIP3    H233866   4.071   7.244   6.225
11309TIP3   OH233867   7.810   0.219   2.105
11309TIP3    H133868   7.783   0.211   2.014
11309TIP3    H233869   7.896   0.178   2.109
11310TIP3   OH233870   5.742   2.536   2.329
11310TIP3    H133871   5.687   2.607   2.297
11310TIP3    H233872   5.811   2.579   2.379
11311TIP3   OH233873   2.482   5.088   2.029
11311TIP3    H133874   2.516   5.160   1.976
11311TIP3    H233875   2.460   5.128   2.113
11312TIP3   OH233876   6.556   6.957   3.250
11312TIP3    H133877   6.587   6.944   3.160
11312TIP3    H233878   6.551   6.869   3.287
11313TIP3   OH233879   1.253   3.262   0.487
11313TIP3    H133880   1.311   3.198   0.446
11313TIP3    H233881   1.229   3.223   0.571
11314TIP3   OH233882   4.582   1.470   4.802
11314TIP3    H133883   4.524   1.398   4.777
11314TIP3    H233884   4.544   1.548   4.761
11315TIP3   OH233885   3.344   2.269   2.437
11315TIP3    H133886   3.296   2.208   2.380
11315TIP3    H233887   3.403   2.213   2.488
11316TIP3   OH233888   6.411   5.860   4.143
11316TIP3    H133889   6.398   5.778   4.190
11316TIP3    H233890   6.503   5.859   4.117
11317TIP3   OH233891   8.266   7.408   0.767
11317TIP3    H133892   8.251   7.474   0.700
11317TIP3    H233893   8.358   7.418   0.791
11318TIP3   OH233894   0.246   5.205   0.282
11318TIP3    H133895   0.299   5.282   0.303
11318TIP3    H233896   0.217   5.172   0.367
11319TIP3   OH233897   0.728   5.753   4.413
11319TIP3    H133898   0.800   5.691   4.426
11319TIP3    H233899   0.650   5.706   4.442
11320TIP3   OH233900   5.933   3.952   5.954
11320TIP3    H133901   5.953   3.903   6.034
11320TIP3    H233902   5.992   4.027   5.956
11321TIP3   OH233903   1.045   3.888   6.029
11321TIP3    H133904   1.121   3.943   6.048
11321TIP3    H233905   0.972   3.950   6.024
11322TIP3   OH233906   0.708   5.349   4.750
11322TIP3    H133907   0.613   5.359   4.755
11322TIP3    H233908   0.741   5.438   4.747
11323TIP3   OH233909   5.235   6.857   0.290
11323TIP3    H133910   5.244   6.779   0.235
11323TIP3    H233911   5.258   6.929   0.232
11324TIP3   OH233912   2.589   5.503   1.259
11324TIP3    H133913   2.621   5.542   1.340
11324TIP3    H233914   2.650   5.432   1.241
11325TIP3   OH233915   0.430   6.237   0.349
11325TIP3    H133916   0.517   6.265   0.319
11325TIP3    H233917   0.376   6.236   0.271
11326TIP3   OH233918   6.237   1.341   4.744
11326TIP3    H133919   6.227   1.435   4.726
11326TIP3    H233920   6.332   1.326   4.738
11327TIP3   OH233921   3.568   0.837   6.055
11327TIP3    H133922   3.484   0.792   6.062
11327TIP3    H233923   3.619   0.784   5.994
11328TIP3   OH233924   5.462   7.795   6.495
11328TIP3    H133925   5.384   7.849   6.485
11328TIP3    H233926   5.430   7.714   6.535
11329TIP3   OH233927   6.593   5.941   0.889
11329TIP3    H133928   6.522   6.002   0.867
11329TIP3    H233929   6.672   5.996   0.888
11330TIP3   OH233930   2.622   2.644   1.192
11330TIP3    H133931   2.606   2.691   1.111
11330TIP3    H233932   2.535   2.635   1.232
11331TIP3   OH233933   0.247   7.614   4.676
11331TIP3    H133934   0.327   7.587   4.721
11331TIP3    H233935   0.224   7.698   4.717
11332TIP3   OH233936   7.083   4.392   6.619
11332TIP3    H133937   7.093   4.402   6.525
11332TIP3    H233938   7.155   4.335   6.646
11333TIP3   OH233939   4.393   1.974   1.150
11333TIP3    H133940   4.368   2.058   1.112
11333TIP3    H233941   4.323   1.914   1.123
11334TIP3   OH233942   3.591   5.327   1.479
11334TIP3    H133943   3.511   5.304   1.528
11334TIP3    H233944   3.661   5.281   1.525
11335TIP3   OH233945   6.431   2.848   3.336
11335TIP3    H133946   6.463   2.937   3.355
11335TIP3    H233947   6.344   2.846   3.376
11336TIP3   OH233948   2.576   0.266   0.122
11336TIP3    H133949   2.637   0.289   0.051
11336TIP3    H233950   2.631   0.224   0.188
11337TIP3   OH233951   7.616   2.628   4.682
11337TIP3    H133952   7.543   2.659   4.629
11337TIP3    H233953   7.648   2.707   4.726
11338TIP3   OH233954   7.572   5.160   0.511
11338TIP3    H133955   7.533   5.192   0.593
11338TIP3    H233956   7.621   5.235   0.478
11339TIP3   OH233957   5.279   3.395   6.109
11339TIP3    H133958   5.367   3.431   6.122
11339TIP3    H233959   5.237   3.456   6.048
11340TIP3   OH233960   2.386   6.963   4.694
11340TIP3    H133961   2.405   7.024   4.765
11340TIP3    H233962   2.396   7.014   4.614
11341TIP3   OH233963   6.310   1.790   6.252
11341TIP3    H133964   6.273   1.773   6.339
11341TIP3    H233965   6.383   1.850   6.269
11342TIP3   OH233966   6.738   7.397   3.057
11342TIP3    H133967   6.809   7.410   3.121
11342TIP3    H233968   6.733   7.479   3.009
11343TIP3   OH233969   8.078   5.834   3.782
11343TIP3    H133970   8.134   5.843   3.706
11343TIP3    H233971   8.117   5.892   3.848
11344TIP3   OH233972   7.818   5.974   5.576
11344TIP3    H133973   7.729   5.942   5.560
11344TIP3    H233974   7.812   6.069   5.566
11345TIP3   OH233975   4.396   7.745   1.416
11345TIP3    H133976   4.353   7.705   1.341
11345TIP3    H233977   4.338   7.816   1.443
11346TIP3   OH233978   5.724   5.751   6.708
11346TIP3    H133979   5.731   5.656   6.722
11346TIP3    H233980   5.696   5.785   6.793
11347TIP3   OH233981   1.040   1.661   1.365
11347TIP3    H133982   1.123   1.648   1.319
11347TIP3    H233983   0.980   1.598   1.325
11348TIP3   OH233984   4.737   0.405   6.515
11348TIP3    H133985   4.742   0.432   6.423
11348TIP3    H233986   4.722   0.311   6.512
11349TIP3   OH233987   8.318   6.581   1.059
11349TIP3    H133988   8.366   6.594   1.141
11349TIP3    H233989   8.386   6.565   0.993
11350TIP3   OH233990   6.105   4.114   2.626
11350TIP3    H133991   6.053   4.131   2.548
11350TIP3    H233992   6.095   4.192   2.680
11351TIP3   OH233993   4.945   3.987   2.376
11351TIP3    H133994   5.000   3.928   2.427
11351TIP3    H233995   4.860   3.943   2.370
11352TIP3   OH233996   0.599   1.745   0.460
11352TIP3    H133997   0.540   1.732   0.386
11352TIP3    H233998   0.541   1.770   0.533
11353TIP3   OH233999   1.410   2.449   1.263
11353TIP3    H134000   1.489   2.469   1.212
11353TIP3    H234001   1.388   2.360   1.238
11354TIP3   OH234002   3.584   4.663   6.090
11354TIP3    H134003   3.672   4.681   6.123
11354TIP3    H234004   3.563   4.739   6.035
11355TIP3   OH234005   1.839   1.305   4.228
11355TIP3    H134006   1.832   1.316   4.323
11355TIP3    H234007   1.831   1.211   4.213
11356TIP3   OH234008   6.918   5.415   4.497
11356TIP3    H134009   6.935   5.376   4.583
11356TIP3    H234010   6.878   5.344   4.447
11357TIP3   OH234011   7.961   5.196   4.841
11357TIP3    H134012   8.036   5.167   4.894
11357TIP3    H234013   7.903   5.239   4.904
11358TIP3   OH234014   7.083   6.206   0.847
11358TIP3    H134015   7.061   6.230   0.756
11358TIP3    H234016   7.073   6.288   0.896
11359TIP3   OH234017   5.975   5.941   5.688
11359TIP3    H134018   5.963   5.993   5.609
11359TIP3    H234019   5.893   5.951   5.736
11360TIP3   OH234020   0.611   3.314   3.705
11360TIP3    H134021   0.574   3.286   3.789
11360TIP3    H234022   0.536   3.347   3.656
11361TIP3   OH234023   6.494   4.412   0.460
11361TIP3    H134024   6.560   4.442   0.397
11361TIP3    H234025   6.470   4.325   0.429
11362TIP3   OH234026   5.781   7.588   6.433
11362TIP3    H134027   5.719   7.519   6.458
11362TIP3    H234028   5.861   7.542   6.410
11363TIP3   OH234029   0.122   6.509   0.921
11363TIP3    H134030   0.103   6.450   0.847
11363TIP3    H234031   0.212   6.489   0.944
11364TIP3   OH234032   6.338   0.106   4.831
11364TIP3    H134033   6.328   0.185   4.884
11364TIP3    H234034   6.248   0.082   4.807
11365TIP3   OH234035   3.368   3.559   0.382
11365TIP3    H134036   3.437   3.592   0.440
11365TIP3    H234037   3.335   3.637   0.338
11366TIP3   OH234038   2.298   6.074   2.419
11366TIP3    H134039   2.262   6.007   2.478
11366TIP3    H234040   2.221   6.112   2.377
11367TIP3   OH234041   3.924   6.464   2.290
11367TIP3    H134042   3.874   6.389   2.324
11367TIP3    H234043   4.004   6.424   2.254
11368TIP3   OH234044   0.093   0.475   3.170
11368TIP3    H134045   0.112   0.566   3.148
11368TIP3    H234046   0.105   0.427   3.088
11369TIP3   OH234047   7.286   3.280   3.569
11369TIP3    H134048   7.247   3.284   3.656
11369TIP3    H234049   7.244   3.351   3.520
11370TIP3   OH234050   5.897   1.632   4.558
11370TIP3    H134051   5.909   1.539   4.576
11370TIP3    H234052   5.978   1.658   4.513
11371TIP3   OH234053   2.658   7.110   1.724
11371TIP3    H134054   2.618   7.031   1.688
11371TIP3    H234055   2.645   7.103   1.818
11372TIP3   OH234056   1.241   7.793   6.643
11372TIP3    H134057   1.270   7.718   6.695
11372TIP3    H234058   1.298   7.793   6.567
11373TIP3   OH234059   2.883   7.193   6.405
11373TIP3    H134060   2.967   7.168   6.443
11373TIP3    H234061   2.886   7.158   6.316
11374TIP3   OH234062   6.429   6.923   3.691
11374TIP3    H134063   6.424   6.997   3.751
11374TIP3    H234064   6.492   6.863   3.731
11375TIP3   OH234065   2.771   4.096   3.168
11375TIP3    H134066   2.685   4.130   3.141
11375TIP3    H234067   2.795   4.150   3.243
11376TIP3   OH234068   2.312   4.074   4.734
11376TIP3    H134069   2.362   4.041   4.660
11376TIP3    H234070   2.370   4.062   4.809
11377TIP3   OH234071   1.044   1.394   5.611
11377TIP3    H134072   1.026   1.352   5.695
11377TIP3    H234073   1.139   1.390   5.602
11378TIP3   OH234074   2.302   5.961   3.234
11378TIP3    H134075   2.312   6.027   3.166
11378TIP3    H234076   2.331   6.005   3.315
11379TIP3   OH234077   1.329   7.115   0.823
11379TIP3    H134078   1.316   7.201   0.864
11379TIP3    H234079   1.251   7.065   0.847
11380TIP3   OH234080   1.578   1.859   5.675
11380TIP3    H134081   1.588   1.947   5.712
11380TIP3    H234082   1.560   1.803   5.750
11381TIP3   OH234083   2.977   1.786   3.764
11381TIP3    H134084   2.997   1.722   3.696
11381TIP3    H234085   2.883   1.775   3.780
11382TIP3   OH234086   7.711   7.056   2.048
11382TIP3    H134087   7.709   7.002   1.969
11382TIP3    H234088   7.784   7.021   2.100
11383TIP3   OH234089   7.484   1.327   3.092
11383TIP3    H134090   7.524   1.324   3.005
11383TIP3    H234091   7.401   1.281   3.082
11384TIP3   OH234092   1.724   4.800   3.627
11384TIP3    H134093   1.673   4.807   3.546
11384TIP3    H234094   1.711   4.710   3.656
11385TIP3   OH234095   3.928   4.340   4.068
11385TIP3    H134096   4.012   4.382   4.088
11385TIP3    H234097   3.948   4.247   4.065
11386TIP3   OH234098   0.353   0.405   2.925
11386TIP3    H134099   0.395   0.341   2.868
11386TIP3    H234100   0.259   0.389   2.914
11387TIP3   OH234101   0.771   5.129   1.955
11387TIP3    H134102   0.771   5.143   2.050
11387TIP3    H234103   0.738   5.040   1.944
11388TIP3   OH234104   7.825   4.484   2.549
11388TIP3    H134105   7.892   4.448   2.491
11388TIP3    H234106   7.745   4.483   2.496
11389TIP3   OH234107   1.449   7.064   6.511
11389TIP3    H134108   1.491   6.983   6.480
11389TIP3    H234109   1.359   7.057   6.480
11390TIP3   OH234110   3.375   2.070   4.605
11390TIP3    H134111   3.396   2.046   4.695
11390TIP3    H234112   3.427   2.149   4.588
11391TIP3   OH234113   8.245   5.455   4.201
11391TIP3    H134114   8.203   5.459   4.286
11391TIP3    H234115   8.251   5.546   4.172
11392TIP3   OH234116   6.600   3.581   1.936
11392TIP3    H134117   6.633   3.650   1.878
11392TIP3    H234118   6.632   3.605   2.023
11393TIP3   OH234119   0.399   1.187   4.555
11393TIP3    H134120   0.313   1.145   4.547
11393TIP3    H234121   0.460   1.124   4.516
11394TIP3   OH234122   6.261   6.867   3.433
11394TIP3    H134123   6.211   6.935   3.388
11394TIP3    H234124   6.294   6.910   3.512
11395TIP3   OH234125   2.234   7.839   0.512
11395TIP3    H134126   2.191   7.914   0.472
11395TIP3    H234127   2.229   7.770   0.445
11396TIP3   OH234128   0.774   0.877   1.306
11396TIP3    H134129   0.754   0.783   1.309
11396TIP3    H234130   0.718   0.911   1.236
11397TIP3   OH234131   7.318   0.668   1.618
11397TIP3    H134132   7.333   0.583   1.658
11397TIP3    H234133   7.251   0.653   1.552
11398TIP3   OH234134   7.572   5.275   1.804
11398TIP3    H134135   7.633   5.346   1.783
11398TIP3    H234136   7.543   5.242   1.720
11399TIP3   OH234137   2.581   3.126   5.637
11399TIP3    H134138   2.554   3.044   5.677
11399TIP3    H234139   2.554   3.118   5.545
11400TIP3   OH234140   2.373   2.396   2.780
11400TIP3    H134141   2.461   2.361   2.768
11400TIP3    H234142   2.331   2.386   2.694
11401TIP3   OH234143   6.079   7.226   3.981
11401TIP3    H134144   6.078   7.173   4.061
11401TIP3    H234145   6.151   7.190   3.929
11402TIP3   OH234146   1.864   7.039   1.114
11402TIP3    H134147   1.837   6.981   1.044
11402TIP3    H234148   1.787   7.093   1.132
11403TIP3   OH234149   1.781   6.010   6.616
11403TIP3    H134150   1.784   6.056   6.532
11403TIP3    H234151   1.742   6.074   6.676
11404TIP3   OH234152   1.897   7.329   3.470
11404TIP3    H134153   1.835   7.357   3.402
11404TIP3    H234154   1.956   7.269   3.424
11405TIP3   OH234155   0.703   7.179   0.260
11405TIP3    H134156   0.745   7.095   0.240
11405TIP3    H234157   0.633   7.156   0.322
11406TIP3   OH234158   5.816   7.039   1.990
11406TIP3    H134159   5.838   6.999   2.075
11406TIP3    H234160   5.798   6.965   1.933
11407TIP3   OH234161   4.672   2.487   5.832
11407TIP3    H134162   4.738   2.433   5.876
11407TIP3    H234163   4.601   2.426   5.811
11408TIP3   OH234164   5.553   6.151   4.770
11408TIP3    H134165   5.594   6.080   4.721
11408TIP3    H234166   5.488   6.187   4.710
11409TIP3   OH234167   6.808   4.440   5.012
11409TIP3    H134168   6.820   4.514   5.071
11409TIP3    H234169   6.808   4.479   4.924
11410TIP3   OH234170   3.371   4.838   4.113
11410TIP3    H134171   3.302   4.890   4.072
11410TIP3    H234172   3.401   4.891   4.187
11411TIP3   OH234173   7.557   6.936   6.699
11411TIP3    H134174   7.501   6.969   6.769
11411TIP3    H234175   7.502   6.939   6.621
11412TIP3   OH234176   7.615   3.126   6.271
11412TIP3    H134177   7.708   3.143   6.288
11412TIP3    H234178   7.576   3.213   6.263
11413TIP3   OH234179   2.081   3.748   5.947
11413TIP3    H134180   2.086   3.663   5.903
11413TIP3    H234181   2.147   3.802   5.903
11414TIP3   OH234182   5.941   5.148   0.554
11414TIP3    H134183   5.973   5.208   0.487
11414TIP3    H234184   5.878   5.092   0.508
11415TIP3   OH234185   3.369   5.954   6.115
11415TIP3    H134186   3.351   5.905   6.034
11415TIP3    H234187   3.335   6.042   6.098
11416TIP3   OH234188   3.132   0.018   0.353
11416TIP3    H134189   3.050   0.044   0.311
11416TIP3    H234190   3.179   0.101   0.365
11417TIP3   OH234191   4.745   5.290   5.926
11417TIP3    H134192   4.719   5.277   5.835
11417TIP3    H234193   4.786   5.376   5.927
11418TIP3   OH234194   6.482   2.921   3.648
11418TIP3    H134195   6.459   2.991   3.587
11418TIP3    H234196   6.416   2.853   3.633
11419TIP3   OH234197   4.641   3.152   3.097
11419TIP3    H134198   4.666   3.240   3.123
11419TIP3    H234199   4.694   3.094   3.152
11420TIP3   OH234200   7.080   7.257   6.253
11420TIP3    H134201   6.998   7.300   6.276
11420TIP3    H234202   7.056   7.166   6.234
11421TIP3   OH234203   3.855   2.284   0.676
11421TIP3    H134204   3.804   2.232   0.738
11421TIP3    H234205   3.842   2.241   0.592
11422TIP3   OH234206   1.141   5.447   6.297
11422TIP3    H134207   1.231   5.427   6.271
11422TIP3    H234208   1.150   5.496   6.379
11423TIP3   OH234209   7.322   1.993   6.162
11423TIP3    H134210   7.410   1.966   6.140
11423TIP3    H234211   7.299   1.941   6.239
11424TIP3   OH234212   0.205   5.333   0.049
11424TIP3    H134213   0.188   5.409   0.105
11424TIP3    H234214   0.194   5.258   0.108
11425TIP3   OH234215   2.191   7.893   3.727
11425TIP3    H134216   2.096   7.888   3.714
11425TIP3    H234217   2.205   7.861   3.816
11426TIP3   OH234218   7.270   1.739   3.830
11426TIP3    H134219   7.240   1.723   3.741
11426TIP3    H234220   7.284   1.834   3.834
11427TIP3   OH234221   1.205   6.662   2.629
11427TIP3    H134222   1.241   6.742   2.667
11427TIP3    H234223   1.280   6.621   2.586
11428TIP3   OH234224   0.976   5.934   3.624
11428TIP3    H134225   0.956   5.887   3.705
11428TIP3    H234226   0.891   5.967   3.594
11429TIP3   OH234227   1.892   2.369   0.292
11429TIP3    H134228   1.947   2.297   0.262
11429TIP3    H234229   1.810   2.359   0.244
11430TIP3   OH234230   7.496   3.677   2.092
11430TIP3    H134231   7.531   3.761   2.063
11430TIP3    H234232   7.428   3.656   2.028
11431TIP3   OH234233   7.592   3.405   5.834
11431TIP3    H134234   7.587   3.325   5.886
11431TIP3    H234235   7.511   3.407   5.784
11432TIP3   OH234236   4.783   5.447   2.352
11432TIP3    H134237   4.866   5.446   2.400
11432TIP3    H234238   4.768   5.356   2.327
11433TIP3   OH234239   4.219   2.150   5.657
11433TIP3    H134240   4.214   2.206   5.579
11433TIP3    H234241   4.135   2.103   5.658
11434TIP3   OH234242   4.891   3.337   5.633
11434TIP3    H134243   4.898   3.427   5.665
11434TIP3    H234244   4.981   3.309   5.617
11435TIP3   OH234245   0.856   5.279   1.024
11435TIP3    H134246   0.838   5.366   1.061
11435TIP3    H234247   0.810   5.218   1.082
11436TIP3   OH234248   7.064   7.095   2.363
11436TIP3    H134249   7.096   7.050   2.441
11436TIP3    H234250   6.969   7.087   2.367
11437TIP3   OH234251   6.595   3.740   4.910
11437TIP3    H134252   6.652   3.806   4.873
11437TIP3    H234253   6.587   3.674   4.841
11438TIP3   OH234254   4.837   6.793   2.307
11438TIP3    H134255   4.814   6.838   2.226
11438TIP3    H234256   4.899   6.852   2.350
11439TIP3   OH234257   1.068   5.531   1.671
11439TIP3    H134258   1.135   5.478   1.629
11439TIP3    H234259   1.006   5.468   1.707
11440TIP3   OH234260   7.229   4.299   2.587
11440TIP3    H134261   7.287   4.242   2.536
11440TIP3    H234262   7.283   4.375   2.609
11441TIP3   OH234263   3.163   2.775   4.244
11441TIP3    H134264   3.071   2.748   4.245
11441TIP3    H234265   3.202   2.727   4.171
11442TIP3   OH234266   3.943   3.066   0.485
11442TIP3    H134267   3.937   2.997   0.419
11442TIP3    H234268   3.852   3.083   0.510
11443TIP3   OH234269   4.469   2.542   1.314
11443TIP3    H134270   4.558   2.514   1.332
11443TIP3    H234271   4.416   2.464   1.330
11444TIP3   OH234272   3.600   3.984   5.994
11444TIP3    H134273   3.519   3.947   6.028
11444TIP3    H234274   3.631   4.041   6.065
11445TIP3   OH234275   0.064   0.080   5.474
11445TIP3    H134276   0.082   0.059   5.566
11445TIP3    H234277  -0.026   0.113   5.474
11446TIP3   OH234278   1.153   4.637   1.297
11446TIP3    H134279   1.172   4.600   1.210
11446TIP3    H234280   1.200   4.580   1.358
11447TIP3   OH234281   2.521   7.341   6.465
11447TIP3    H134282   2.512   7.415   6.525
11447TIP3    H234283   2.610   7.347   6.432
11448TIP3   OH234284   0.000   2.215   4.635
11448TIP3    H134285   0.004   2.194   4.541
11448TIP3    H234286   0.090   2.239   4.658
11449TIP3   OH234287   7.511   7.733   5.038
11449TIP3    H134288   7.437   7.790   5.019
11449TIP3    H234289   7.488   7.649   4.998
11450TIP3   OH234290   5.257   1.934   1.244
11450TIP3    H134291   5.338   1.883   1.251
11450TIP3    H234292   5.278   2.018   1.284
11451TIP3   OH234293   7.325   2.568   0.812
11451TIP3    H134294   7.361   2.645   0.856
11451TIP3    H234295   7.398   2.505   0.810
11452TIP3   OH234296   0.024   7.097   0.824
11452TIP3    H134297   0.092   7.033   0.842
11452TIP3    H234298  -0.024   7.104   0.907
11453TIP3   OH234299   6.969   6.186   4.787
11453TIP3    H134300   7.002   6.151   4.704
11453TIP3    H234301   6.879   6.153   4.792
11454TIP3   OH234302   4.492   6.788   6.482
11454TIP3    H134303   4.514   6.877   6.456
11454TIP3    H234304   4.574   6.739   6.476
11455TIP3   OH234305   3.394   1.152   0.589
11455TIP3    H134306   3.439   1.081   0.634
11455TIP3    H234307   3.463   1.199   0.543
11456TIP3   OH234308   5.258   2.300   4.126
11456TIP3    H134309   5.246   2.395   4.114
11456TIP3    H234310   5.229   2.284   4.216
11457TIP3   OH234311   5.977   1.882   3.543
11457TIP3    H134312   5.925   1.916   3.469
11457TIP3    H234313   6.052   1.840   3.502
11458TIP3   OH234314   0.202   3.958   3.689
11458TIP3    H134315   0.264   3.887   3.700
11458TIP3    H234316   0.249   4.023   3.637
11459TIP3   OH234317   1.267   1.735   6.014
11459TIP3    H134318   1.307   1.687   5.942
11459TIP3    H234319   1.318   1.815   6.021
11460TIP3   OH234320   0.482   0.138   4.101
11460TIP3    H134321   0.544   0.090   4.156
11460TIP3    H234322   0.402   0.144   4.154
11461TIP3   OH234323   4.215   2.296   4.497
11461TIP3    H134324   4.273   2.343   4.557
11461TIP3    H234325   4.167   2.235   4.552
11462TIP3   OH234326   5.660   0.635   5.889
11462TIP3    H134327   5.624   0.610   5.975
11462TIP3    H234328   5.587   0.679   5.846
11463TIP3   OH234329   1.335   2.560   1.532
11463TIP3    H134330   1.361   2.515   1.452
11463TIP3    H234331   1.369   2.649   1.522
11464TIP3   OH234332   0.872   4.335   4.278
11464TIP3    H134333   0.861   4.387   4.198
11464TIP3    H234334   0.787   4.340   4.322
11465TIP3   OH234335   5.203   3.443   5.254
11465TIP3    H134336   5.135   3.386   5.290
11465TIP3    H234337   5.207   3.419   5.161
11466TIP3   OH234338   7.440   0.373   1.094
11466TIP3    H134339   7.517   0.426   1.071
11466TIP3    H234340   7.441   0.301   1.031
11467TIP3   OH234341   0.204   7.921   1.421
11467TIP3    H134342   0.207   7.860   1.348
11467TIP3    H234343   0.126   7.894   1.471
11468TIP3   OH234344   7.279   2.282   0.186
11468TIP3    H134345   7.236   2.351   0.236
11468TIP3    H234346   7.373   2.297   0.200
11469TIP3   OH234347   1.775   2.484   2.336
11469TIP3    H134348   1.781   2.529   2.420
11469TIP3    H234349   1.682   2.486   2.315
11470TIP3   OH234350   2.169   6.500   6.462
11470TIP3    H134351   2.130   6.462   6.541
11470TIP3    H234352   2.151   6.594   6.470
11471TIP3   OH234353   2.732   6.463   5.664
11471TIP3    H134354   2.756   6.432   5.576
11471TIP3    H234355   2.780   6.545   5.674
11472TIP3   OH234356   2.113   3.274   1.408
11472TIP3    H134357   2.181   3.244   1.348
11472TIP3    H234358   2.073   3.194   1.442
11473TIP3   OH234359   5.389   0.262   4.623
11473TIP3    H134360   5.476   0.293   4.649
11473TIP3    H234361   5.388   0.169   4.647
11474TIP3   OH234362   0.579   6.259   6.010
11474TIP3    H134363   0.496   6.232   6.050
11474TIP3    H234364   0.554   6.288   5.922
11475TIP3   OH234365   2.492   2.498   5.357
11475TIP3    H134366   2.439   2.487   5.279
11475TIP3    H234367   2.514   2.591   5.358
11476TIP3   OH234368   1.841   5.453   5.729
11476TIP3    H134369   1.760   5.467   5.778
11476TIP3    H234370   1.815   5.458   5.637
11477TIP3   OH234371   5.825   4.482   2.449
11477TIP3    H134372   5.848   4.420   2.380
11477TIP3    H234373   5.886   4.555   2.438
11478TIP3   OH234374   0.346   3.770   1.494
11478TIP3    H134375   0.310   3.847   1.540
11478TIP3    H234376   0.283   3.753   1.423
11479TIP3   OH234377   0.239   1.558   0.788
11479TIP3    H134378   0.287   1.571   0.707
11479TIP3    H234379   0.165   1.502   0.764
11480TIP3   OH234380   1.816   3.398   3.965
11480TIP3    H134381   1.862   3.326   4.007
11480TIP3    H234382   1.820   3.378   3.872
11481TIP3   OH234383   5.026   2.669   3.538
11481TIP3    H134384   5.083   2.596   3.562
11481TIP3    H234385   5.075   2.747   3.563
11482TIP3   OH234386   1.244   6.823   0.931
11482TIP3    H134387   1.308   6.871   0.983
11482TIP3    H234388   1.181   6.890   0.903
11483TIP3   OH234389   3.841   2.322   4.841
11483TIP3    H134390   3.873   2.331   4.752
11483TIP3    H234391   3.920   2.309   4.894
11484TIP3   OH234392   2.298   7.489   0.165
11484TIP3    H134393   2.203   7.481   0.175
11484TIP3    H234394   2.320   7.429   0.094
11485TIP3   OH234395   7.630   1.428   3.298
11485TIP3    H134396   7.712   1.421   3.248
11485TIP3    H234397   7.562   1.408   3.234
11486TIP3   OH234398   2.110   6.351   1.233
11486TIP3    H134399   2.070   6.269   1.203
11486TIP3    H234400   2.047   6.418   1.206
11487TIP3   OH234401   3.159   3.552   0.065
11487TIP3    H134402   3.090   3.616   0.049
11487TIP3    H234403   3.114   3.468   0.071
11488TIP3   OH234404   4.279   1.357   6.729
11488TIP3    H134405   4.268   1.443   6.689
11488TIP3    H234406   4.374   1.344   6.734
11489TIP3   OH234407   2.810   7.664   5.078
11489TIP3    H134408   2.849   7.603   5.141
11489TIP3    H234409   2.716   7.648   5.083
11490TIP3   OH234410   6.395   4.785   3.285
11490TIP3    H134411   6.366   4.819   3.200
11490TIP3    H234412   6.484   4.819   3.295
11491TIP3   OH234413   5.627   5.061   5.395
11491TIP3    H134414   5.679   4.981   5.386
11491TIP3    H234415   5.618   5.094   5.305
11492TIP3   OH234416   0.046   2.435   3.968
11492TIP3    H134417  -0.034   2.385   3.983
11492TIP3    H234418   0.111   2.369   3.943
11493TIP3   OH234419   7.232   5.310   6.414
11493TIP3    H134420   7.314   5.267   6.392
11493TIP3    H234421   7.245   5.401   6.388
11494TIP3   OH234422   3.349   1.852   5.132
11494TIP3    H134423   3.264   1.856   5.088
11494TIP3    H234424   3.380   1.763   5.117
11495TIP3   OH234425   6.333   3.775   1.552
11495TIP3    H134426   6.316   3.857   1.599
11495TIP3    H234427   6.250   3.727   1.558
11496TIP3   OH234428   3.921   0.342   4.311
11496TIP3    H134429   3.845   0.285   4.303
11496TIP3    H234430   3.896   0.406   4.377
11497TIP3   OH234431   3.749   2.997   1.907
11497TIP3    H134432   3.725   2.979   1.998
11497TIP3    H234433   3.667   2.995   1.859
11498TIP3   OH234434   8.209   2.848   2.132
11498TIP3    H134435   8.136   2.895   2.094
11498TIP3    H234436   8.274   2.915   2.153
11499TIP3   OH234437   7.136   7.571  -0.009
11499TIP3    H134438   7.116   7.664   0.003
11499TIP3    H234439   7.116   7.532   0.077
11500TIP3   OH234440   8.352   1.877   6.189
11500TIP3    H134441   8.332   1.820   6.115
11500TIP3    H234442   8.280   1.940   6.191
11501TIP3   OH234443   3.538   5.680   4.463
11501TIP3    H134444   3.579   5.621   4.400
11501TIP3    H234445   3.609   5.708   4.521
11502TIP3   OH234446   1.801   3.857   6.117
11502TIP3    H134447   1.818   3.800   6.192
11502TIP3    H234448   1.830   3.943   6.145
11503TIP3   OH234449   0.918   3.598   5.466
11503TIP3    H134450   0.919   3.682   5.421
11503TIP3    H234451   0.990   3.549   5.426
11504TIP3   OH234452   1.454   0.365   3.038
11504TIP3    H134453   1.476   0.325   2.953
11504TIP3    H234454   1.523   0.430   3.052
11505TIP3   OH234455   4.180   4.989   2.556
11505TIP3    H134456   4.116   4.921   2.533
11505TIP3    H234457   4.245   4.943   2.608
11506TIP3   OH234458   6.234   3.324   5.388
11506TIP3    H134459   6.161   3.377   5.420
11506TIP3    H234460   6.211   3.235   5.414
11507TIP3   OH234461   5.572   0.841   2.601
11507TIP3    H134462   5.531   0.777   2.658
11507TIP3    H234463   5.499   0.892   2.567
11508TIP3   OH234464   1.927   4.004   1.050
11508TIP3    H134465   1.941   4.069   0.982
11508TIP3    H234466   1.983   3.930   1.025
11509TIP3   OH234467   2.763   0.096   6.362
11509TIP3    H134468   2.799   0.096   6.451
11509TIP3    H234469   2.733   0.186   6.348
11510TIP3   OH234470   2.374   2.977   5.434
11510TIP3    H134471   2.283   2.994   5.461
11510TIP3    H234472   2.386   3.030   5.356
11511TIP3   OH234473   1.931   1.636   3.497
11511TIP3    H134474   1.910   1.683   3.417
11511TIP3    H234475   1.851   1.588   3.519
11512TIP3   OH234476   4.824   7.822   2.685
11512TIP3    H134477   4.895   7.786   2.739
11512TIP3    H234478   4.816   7.913   2.714
11513TIP3   OH234479   2.633   5.919   6.309
11513TIP3    H134480   2.582   5.843   6.281
11513TIP3    H234481   2.724   5.890   6.305
11514TIP3   OH234482   3.254   6.087   2.465
11514TIP3    H134483   3.305   6.062   2.542
11514TIP3    H234484   3.163   6.082   2.495
11515TIP3   OH234485   7.914   3.888   3.460
11515TIP3    H134486   7.928   3.889   3.555
11515TIP3    H234487   8.001   3.876   3.422
11516TIP3   OH234488   4.829   0.825   2.461
11516TIP3    H134489   4.816   0.748   2.407
11516TIP3    H234490   4.746   0.838   2.506
11517TIP3   OH234491   5.687   0.398   6.621
11517TIP3    H134492   5.750   0.427   6.687
11517TIP3    H234493   5.738   0.345   6.560
11518TIP3   OH234494   6.172   3.270   5.973
11518TIP3    H134495   6.171   3.205   5.903
11518TIP3    H234496   6.257   3.256   6.016
11519TIP3   OH234497   4.951   6.285   2.770
11519TIP3    H134498   4.866   6.312   2.805
11519TIP3    H234499   4.935   6.275   2.676
11520TIP3   OH234500   7.409   5.463   3.455
11520TIP3    H134501   7.469   5.460   3.530
11520TIP3    H234502   7.328   5.498   3.491
11521TIP3   OH234503   7.076   0.183   1.563
11521TIP3    H134504   7.048   0.147   1.479
11521TIP3    H234505   7.000   0.170   1.620
11522TIP3   OH234506   6.981   1.729   1.550
11522TIP3    H134507   7.014   1.783   1.478
11522TIP3    H234508   7.030   1.759   1.627
11523TIP3   OH234509   2.813   1.324   0.745
11523TIP3    H134510   2.744   1.387   0.726
11523TIP3    H234511   2.861   1.362   0.819
11524TIP3   OH234512   5.174   5.298   3.627
11524TIP3    H134513   5.248   5.297   3.688
11524TIP3    H234514   5.183   5.217   3.577
11525TIP3   OH234515   7.831   3.313   4.376
11525TIP3    H134516   7.899   3.297   4.310
11525TIP3    H234517   7.755   3.263   4.345
11526TIP3   OH234518   4.325   5.063   3.849
11526TIP3    H134519   4.370   5.075   3.766
11526TIP3    H234520   4.394   5.070   3.915
11527TIP3   OH234521   6.267   7.800   5.026
11527TIP3    H134522   6.209   7.731   5.061
11527TIP3    H234523   6.244   7.878   5.077
11528TIP3   OH234524   3.884   4.239   6.286
11528TIP3    H134525   3.925   4.158   6.255
11528TIP3    H234526   3.943   4.271   6.354
11529TIP3   OH234527   1.235   5.258   5.518
11529TIP3    H134528   1.181   5.292   5.590
11529TIP3    H234529   1.242   5.332   5.458
11530TIP3   OH234530   6.488   1.565   1.963
11530TIP3    H134531   6.583   1.561   1.952
11530TIP3    H234532   6.455   1.595   1.878
11531TIP3   OH234533   5.211   3.188   2.115
11531TIP3    H134534   5.192   3.143   2.032
11531TIP3    H234535   5.169   3.133   2.182
11532TIP3   OH234536   1.893   6.317   5.217
11532TIP3    H134537   1.861   6.401   5.250
11532TIP3    H234538   1.827   6.253   5.246
11533TIP3   OH234539   2.882   1.310   1.961
11533TIP3    H134540   2.875   1.347   1.873
11533TIP3    H234541   2.929   1.377   2.011
11534TIP3   OH234542   5.314   6.943   5.497
11534TIP3    H134543   5.409   6.930   5.495
11534TIP3    H234544   5.297   6.986   5.581
11535TIP3   OH234545   5.541   1.527   2.589
11535TIP3    H134546   5.533   1.454   2.650
11535TIP3    H234547   5.539   1.605   2.644
11536TIP3   OH234548   8.002   5.931   5.327
11536TIP3    H134549   7.964   5.980   5.400
11536TIP3    H234550   7.927   5.889   5.285
11537TIP3   OH234551   3.540   3.787   0.269
11537TIP3    H134552   3.549   3.829   0.355
11537TIP3    H234553   3.448   3.764   0.263
11538TIP3   OH234554   8.056   5.210   4.599
11538TIP3    H134555   8.077   5.123   4.566
11538TIP3    H234556   8.031   5.196   4.691
11539TIP3   OH234557   3.323   4.840   2.220
11539TIP3    H134558   3.261   4.856   2.150
11539TIP3    H234559   3.377   4.767   2.189
11540TIP3   OH234560   4.612   1.052   0.019
11540TIP3    H134561   4.558   1.121   0.059
11540TIP3    H234562   4.672   1.025   0.088
11541TIP3   OH234563   6.237   2.738   2.821
11541TIP3    H134564   6.209   2.744   2.913
11541TIP3    H234565   6.325   2.776   2.820
11542TIP3   OH234566   7.406   0.100   6.061
11542TIP3    H134567   7.431   0.035   6.127
11542TIP3    H234568   7.476   0.165   6.064
11543TIP3   OH234569   7.740   1.064   3.680
11543TIP3    H134570   7.717   1.026   3.595
11543TIP3    H234571   7.812   1.010   3.711
11544TIP3   OH234572   6.616   3.994   1.889
11544TIP3    H134573   6.626   4.000   1.794
11544TIP3    H234574   6.577   4.079   1.914
11545TIP3   OH234575   7.487   1.707   0.018
11545TIP3    H134576   7.461   1.781   0.072
11545TIP3    H234577   7.559   1.666   0.066
11546TIP3   OH234578   1.835   6.253   2.313
11546TIP3    H134579   1.746   6.277   2.288
11546TIP3    H234580   1.854   6.173   2.264
11547TIP3   OH234581   2.234   3.592   2.483
11547TIP3    H134582   2.305   3.620   2.541
11547TIP3    H234583   2.154   3.617   2.529
11548TIP3   OH234584   2.061   6.673   0.039
11548TIP3    H134585   2.137   6.617   0.056
11548TIP3    H234586   2.008   6.667   0.119
11549TIP3   OH234587   5.540   6.175   3.844
11549TIP3    H134588   5.524   6.170   3.938
11549TIP3    H234589   5.623   6.223   3.836
11550TIP3   OH234590   4.130   2.010   0.277
11550TIP3    H134591   4.055   2.066   0.256
11550TIP3    H234592   4.172   1.994   0.193
11551TIP3   OH234593   6.491   5.327   6.555
11551TIP3    H134594   6.542   5.388   6.608
11551TIP3    H234595   6.513   5.350   6.464
11552TIP3   OH234596   6.084   5.238   5.764
11552TIP3    H134597   6.136   5.167   5.726
11552TIP3    H234598   6.147   5.308   5.780
11553TIP3   OH234599   3.096   2.557   6.264
11553TIP3    H134600   3.013   2.587   6.301
11553TIP3    H234601   3.085   2.565   6.169
11554TIP3   OH234602   0.779   4.943   6.165
11554TIP3    H134603   0.804   4.908   6.079
11554TIP3    H234604   0.860   4.983   6.198
11555TIP3   OH234605   1.952   2.206   6.035
11555TIP3    H134606   2.015   2.270   6.067
11555TIP3    H234607   1.885   2.259   5.991
11556TIP3   OH234608   4.808   6.714   4.402
11556TIP3    H134609   4.725   6.683   4.439
11556TIP3    H234610   4.801   6.694   4.309
11557TIP3   OH234611   1.096   7.200   0.050
11557TIP3    H134612   1.072   7.268  -0.013
11557TIP3    H234613   1.012   7.162   0.077
11558TIP3   OH234614   4.119   5.227   5.111
11558TIP3    H134615   4.183   5.243   5.181
11558TIP3    H234616   4.065   5.306   5.110
11559TIP3   OH234617   0.921   6.444   3.421
11559TIP3    H134618   0.869   6.384   3.367
11559TIP3    H234619   0.884   6.435   3.508
11560TIP3   OH234620   5.864   6.419   0.356
11560TIP3    H134621   5.886   6.475   0.281
11560TIP3    H234622   5.891   6.332   0.328
11561TIP3   OH234623   6.674   0.652   2.875
11561TIP3    H134624   6.637   0.717   2.935
11561TIP3    H234625   6.710   0.703   2.803
11562TIP3   OH234626   7.801   1.636   6.577
11562TIP3    H134627   7.764   1.703   6.519
11562TIP3    H234628   7.759   1.653   6.662
11563TIP3   OH234629   4.382   0.021   6.285
11563TIP3    H134630   4.442   0.021   6.211
11563TIP3    H234631   4.356   0.113   6.294
11564TIP3   OH234632   0.332   7.014   3.419
11564TIP3    H134633   0.238   7.007   3.434
11564TIP3    H234634   0.356   6.933   3.374
11565TIP3   OH234635   1.316   2.835   4.182
11565TIP3    H134636   1.303   2.855   4.090
11565TIP3    H234637   1.234   2.796   4.211
11566TIP3   OH234638   5.327   6.026   1.268
11566TIP3    H134639   5.243   5.982   1.280
11566TIP3    H234640   5.341   6.025   1.173
11567TIP3   OH234641   3.746   3.521   1.934
11567TIP3    H134642   3.776   3.573   1.859
11567TIP3    H234643   3.827   3.489   1.975
11568TIP3   OH234644   0.029   1.168   0.180
11568TIP3    H134645   0.117   1.131   0.186
11568TIP3    H234646   0.042   1.253   0.137
11569TIP3   OH234647   5.657   2.182   4.930
11569TIP3    H134648   5.745   2.173   4.894
11569TIP3    H234649   5.609   2.229   4.861
11570TIP3   OH234650   2.985   0.878   4.032
11570TIP3    H134651   2.902   0.924   4.019
11570TIP3    H234652   2.963   0.786   4.017
11571TIP3   OH234653   3.490   1.390   3.557
11571TIP3    H134654   3.526   1.478   3.546
11571TIP3    H234655   3.400   1.405   3.584
11572TIP3   OH234656   7.655   2.555   3.782
11572TIP3    H134657   7.602   2.561   3.702
11572TIP3    H234658   7.744   2.538   3.751
11573TIP3   OH234659   8.370   1.693   5.580
11573TIP3    H134660   8.461   1.722   5.578
11573TIP3    H234661   8.320   1.772   5.558
11574TIP3   OH234662   0.707   2.570   0.709
11574TIP3    H134663   0.760   2.500   0.747
11574TIP3    H234664   0.698   2.546   0.616
11575TIP3   OH234665   5.038   0.308   0.932
11575TIP3    H134666   4.986   0.231   0.955
11575TIP3    H234667   5.009   0.376   0.992
11576TIP3   OH234668   1.669   4.237   1.136
11576TIP3    H134669   1.763   4.254   1.142
11576TIP3    H234670   1.652   4.227   1.042
11577TIP3   OH234671   7.143   3.575   3.847
11577TIP3    H134672   7.052   3.604   3.844
11577TIP3    H234673   7.168   3.583   3.939
11578TIP3   OH234674   7.822   2.347   4.291
11578TIP3    H134675   7.757   2.381   4.228
11578TIP3    H234676   7.813   2.252   4.284
11579TIP3   OH234677   0.976   6.826   2.778
11579TIP3    H134678   0.961   6.916   2.748
11579TIP3    H234679   1.041   6.791   2.717
11580TIP3   OH234680   6.016   4.600   0.673
11580TIP3    H134681   6.053   4.533   0.615
11580TIP3    H234682   5.957   4.650   0.617
11581TIP3   OH234683   1.545   7.479   4.963
11581TIP3    H134684   1.483   7.509   4.897
11581TIP3    H234685   1.629   7.477   4.918
11582TIP3   OH234686   7.953   4.989   2.581
11582TIP3    H134687   8.008   4.922   2.540
11582TIP3    H234688   8.010   5.065   2.592
11583TIP3   OH234689   2.667   5.958   0.797
11583TIP3    H134690   2.657   6.015   0.873
11583TIP3    H234691   2.605   5.887   0.812
11584TIP3   OH234692   1.513   6.274   1.816
11584TIP3    H134693   1.571   6.215   1.864
11584TIP3    H234694   1.535   6.259   1.724
11585TIP3   OH234695   1.494   1.063   5.016
11585TIP3    H134696   1.498   0.970   5.040
11585TIP3    H234697   1.585   1.093   5.022
11586TIP3   OH234698   1.233   3.935   3.894
11586TIP3    H134699   1.194   3.901   3.814
11586TIP3    H234700   1.213   4.028   3.893
11587TIP3   OH234701   1.156   5.921   3.402
11587TIP3    H134702   1.074   5.901   3.446
11587TIP3    H234703   1.154   5.869   3.322
11588TIP3   OH234704   1.853   7.472   5.386
11588TIP3    H134705   1.927   7.418   5.360
11588TIP3    H234706   1.778   7.412   5.384
11589TIP3   OH234707   3.142   3.973   6.833
11589TIP3    H134708   3.065   3.933   6.792
11589TIP3    H234709   3.127   4.067   6.824
11590TIP3   OH234710   2.640   3.488   4.927
11590TIP3    H134711   2.730   3.469   4.954
11590TIP3    H234712   2.645   3.574   4.885
11591TIP3   OH234713   0.105   6.216   3.373
11591TIP3    H134714   0.147   6.130   3.382
11591TIP3    H234715   0.061   6.212   3.288
11592TIP3   OH234716   2.180   1.810   5.450
11592TIP3    H134717   2.157   1.728   5.407
11592TIP3    H234718   2.096   1.856   5.461
11593TIP3   OH234719   1.870   2.855   4.258
11593TIP3    H134720   1.812   2.784   4.230
11593TIP3    H234721   1.821   2.901   4.326
11594TIP3   OH234722   3.796   5.576   2.486
11594TIP3    H134723   3.749   5.493   2.500
11594TIP3    H234724   3.803   5.583   2.391
11595TIP3   OH234725   0.386   2.613   3.571
11595TIP3    H134726   0.298   2.606   3.533
11595TIP3    H234727   0.445   2.596   3.497
11596TIP3   OH234728   1.207   1.169   0.214
11596TIP3    H134729   1.141   1.213   0.161
11596TIP3    H234730   1.273   1.140   0.151
11597TIP3   OH234731   6.405   0.952   5.200
11597TIP3    H134732   6.446   1.006   5.268
11597TIP3    H234733   6.369   1.016   5.138
11598TIP3   OH234734   7.020   5.100   5.785
11598TIP3    H134735   7.012   5.184   5.741
11598TIP3    H234736   7.084   5.051   5.733
11599TIP3   OH234737   3.169   1.570   0.665
11599TIP3    H134738   3.088   1.598   0.622
11599TIP3    H234739   3.156   1.476   0.680
11600TIP3   OH234740   4.737   5.297   1.184
11600TIP3    H134741   4.833   5.304   1.188
11600TIP3    H234742   4.718   5.206   1.207
11601TIP3   OH234743   0.319   1.623   1.732
11601TIP3    H134744   0.345   1.697   1.786
11601TIP3    H234745   0.255   1.659   1.670
11602TIP3   OH234746   6.968   3.160   4.012
11602TIP3    H134747   6.920   3.222   4.067
11602TIP3    H234748   6.943   3.074   4.047
11603TIP3   OH234749   1.017   3.638   3.397
11603TIP3    H134750   1.054   3.594   3.474
11603TIP3    H234751   1.022   3.573   3.327
11604TIP3   OH234752   1.159   7.353   5.956
11604TIP3    H134753   1.142   7.271   5.910
11604TIP3    H234754   1.253   7.368   5.942
11605TIP3   OH234755   0.904   6.257   4.870
11605TIP3    H134756   0.870   6.170   4.849
11605TIP3    H234757   0.993   6.240   4.902
11606TIP3   OH234758   0.588   3.660   0.687
11606TIP3    H134759   0.580   3.586   0.748
11606TIP3    H234760   0.589   3.619   0.600
11607TIP3   OH234761   5.704   3.704   2.439
11607TIP3    H134762   5.778   3.746   2.484
11607TIP3    H234763   5.662   3.651   2.507
11608TIP3   OH234764   6.909   6.037   0.445
11608TIP3    H134765   6.913   6.076   0.358
11608TIP3    H234766   6.833   6.077   0.487
11609TIP3   OH234767   5.849   4.279   4.107
11609TIP3    H134768   5.876   4.210   4.167
11609TIP3    H234769   5.931   4.324   4.085
11610TIP3   OH234770   1.321   5.297   0.816
11610TIP3    H134771   1.364   5.281   0.900
11610TIP3    H234772   1.230   5.314   0.838
11611TIP3   OH234773   7.471   4.899   5.448
11611TIP3    H134774   7.559   4.936   5.443
11611TIP3    H234775   7.481   4.809   5.415
11612TIP3   OH234776   5.091   3.902   2.799
11612TIP3    H134777   5.069   3.989   2.832
11612TIP3    H234778   5.186   3.895   2.810
11613TIP3   OH234779   6.622   2.436   2.342
11613TIP3    H134780   6.572   2.358   2.317
11613TIP3    H234781   6.618   2.437   2.438
11614TIP3   OH234782   2.692   7.850   5.623
11614TIP3    H134783   2.644   7.792   5.683
11614TIP3    H234784   2.766   7.798   5.594
11615TIP3   OH234785   0.321   6.598   4.919
11615TIP3    H134786   0.407   6.566   4.945
11615TIP3    H234787   0.273   6.611   5.001
11616TIP3   OH234788   4.914   1.495   5.565
11616TIP3    H134789   4.877   1.489   5.653
11616TIP3    H234790   4.903   1.407   5.529
11617TIP3   OH234791   8.133   7.713   5.202
11617TIP3    H134792   8.069   7.782   5.220
11617TIP3    H234793   8.100   7.669   5.125
11618TIP3   OH234794   3.277   1.953   1.512
11618TIP3    H134795   3.182   1.953   1.522
11618TIP3    H234796   3.291   1.983   1.422
11619TIP3   OH234797   3.656   3.945   4.762
11619TIP3    H134798   3.743   3.963   4.797
11619TIP3    H234799   3.597   3.957   4.836
11620TIP3   OH234800   8.403   6.678   1.777
11620TIP3    H134801   8.339   6.745   1.755
11620TIP3    H234802   8.453   6.664   1.697
11621TIP3   OH234803   6.259   5.483   4.542
11621TIP3    H134804   6.297   5.406   4.502
11621TIP3    H234805   6.239   5.457   4.632
11622TIP3   OH234806   2.884   5.690   6.559
11622TIP3    H134807   2.980   5.698   6.563
11622TIP3    H234808   2.852   5.755   6.621
11623TIP3   OH234809   2.800   7.193   4.642
11623TIP3    H134810   2.733   7.169   4.706
11623TIP3    H234811   2.791   7.127   4.573
11624TIP3   OH234812   2.618   0.010   3.703
11624TIP3    H134813   2.605   0.052   3.788
11624TIP3    H234814   2.530  -0.014   3.675
11625TIP3   OH234815   1.123   2.209   0.553
11625TIP3    H134816   1.171   2.145   0.501
11625TIP3    H234817   1.085   2.269   0.488
11626TIP3   OH234818   2.279   7.685   2.656
11626TIP3    H134819   2.369   7.684   2.623
11626TIP3    H234820   2.247   7.596   2.641
11627TIP3   OH234821   5.743   0.621   6.488
11627TIP3    H134822   5.812   0.582   6.434
11627TIP3    H234823   5.702   0.546   6.532
11628TIP3   OH234824   0.135   0.921   3.403
11628TIP3    H134825   0.042   0.926   3.379
11628TIP3    H234826   0.138   0.852   3.469
11629TIP3   OH234827   3.802   4.495   5.839
11629TIP3    H134828   3.849   4.503   5.756
11629TIP3    H234829   3.850   4.428   5.887
11630TIP3   OH234830   6.024   0.871   3.760
11630TIP3    H134831   5.966   0.806   3.721
11630TIP3    H234832   5.968   0.947   3.775
11631TIP3   OH234833   6.415   2.169   0.328
11631TIP3    H134834   6.419   2.075   0.344
11631TIP3    H234835   6.407   2.178   0.233
11632TIP3   OH234836   4.483   2.729   2.873
11632TIP3    H134837   4.448   2.818   2.883
11632TIP3    H234838   4.519   2.727   2.784
11633TIP3   OH234839   2.475   0.789   0.810
11633TIP3    H134840   2.400   0.738   0.779
11633TIP3    H234841   2.545   0.768   0.748
11634TIP3   OH234842   4.939   2.947   4.562
11634TIP3    H134843   4.994   3.012   4.518
11634TIP3    H234844   4.849   2.975   4.544
11635TIP3   OH234845   1.473   5.617   4.068
11635TIP3    H134846   1.498   5.700   4.028
11635TIP3    H234847   1.416   5.575   4.003
11636TIP3   OH234848   8.263   5.963   0.824
11636TIP3    H134849   8.239   6.055   0.817
11636TIP3    H234850   8.323   5.958   0.898
11637TIP3   OH234851   1.650   5.119   6.069
11637TIP3    H134852   1.587   5.058   6.029
11637TIP3    H234853   1.681   5.173   5.996
11638TIP3   OH234854   5.617   2.643   3.681
11638TIP3    H134855   5.570   2.716   3.721
11638TIP3    H234856   5.619   2.575   3.749
11639TIP3   OH234857   2.437   1.139   2.523
11639TIP3    H134858   2.409   1.153   2.614
11639TIP3    H234859   2.421   1.223   2.480
11640TIP3   OH234860   2.698   5.351   5.316
11640TIP3    H134861   2.676   5.291   5.388
11640TIP3    H234862   2.623   5.347   5.257
11641TIP3   OH234863   0.530   7.171   5.896
11641TIP3    H134864   0.497   7.131   5.815
11641TIP3    H234865   0.617   7.134   5.908
11642TIP3   OH234866   4.266   2.946   3.178
11642TIP3    H134867   4.181   2.970   3.216
11642TIP3    H234868   4.249   2.934   3.085
11643TIP3   OH234869   4.498   7.023   0.644
11643TIP3    H134870   4.526   6.934   0.668
11643TIP3    H234871   4.408   7.012   0.613
11644TIP3   OH234872   7.329   3.566   3.678
11644TIP3    H134873   7.395   3.540   3.742
11644TIP3    H234874   7.247   3.568   3.727
11645TIP3   OH234875   5.807   4.663   1.864
11645TIP3    H134876   5.884   4.654   1.921
11645TIP3    H234877   5.802   4.580   1.818
11646TIP3   OH234878   3.428   5.856   4.105
11646TIP3    H134879   3.483   5.778   4.098
11646TIP3    H234880   3.440   5.902   4.022
11647TIP3   OH234881   0.682   6.121   3.126
11647TIP3    H134882   0.588   6.131   3.111
11647TIP3    H234883   0.700   6.175   3.203
11648TIP3   OH234884   2.724   3.238   0.732
11648TIP3    H134885   2.698   3.188   0.654
11648TIP3    H234886   2.695   3.185   0.805
11649TIP3   OH234887   5.404   4.738   2.815
11649TIP3    H134888   5.443   4.670   2.761
11649TIP3    H234889   5.311   4.737   2.792
11650TIP3   OH234890   6.521   1.160   2.037
11650TIP3    H134891   6.463   1.094   2.077
11650TIP3    H234892   6.509   1.238   2.091
11651TIP3   OH234893   1.213   6.612   0.088
11651TIP3    H134894   1.120   6.590   0.087
11651TIP3    H234895   1.251   6.557   0.157
11652TIP3   OH234896   2.258   2.098   0.878
11652TIP3    H134897   2.266   2.182   0.924
11652TIP3    H234898   2.164   2.080   0.877
11653TIP3   OH234899   5.138   6.674   2.490
11653TIP3    H134900   5.191   6.600   2.521
11653TIP3    H234901   5.163   6.747   2.546
11654TIP3   OH234902   2.117   6.790   3.300
11654TIP3    H134903   2.101   6.868   3.354
11654TIP3    H234904   2.033   6.773   3.257
11655TIP3   OH234905   6.085   5.939   1.192
11655TIP3    H134906   6.104   5.959   1.100
11655TIP3    H234907   6.033   6.013   1.222
11656TIP3   OH234908   1.381   1.164   3.776
11656TIP3    H134909   1.423   1.078   3.770
11656TIP3    H234910   1.293   1.145   3.810
11657TIP3   OH234911   4.919   1.821   0.354
11657TIP3    H134912   4.968   1.894   0.392
11657TIP3    H234913   4.857   1.795   0.422
11658TIP3   OH234914   0.962   5.618   0.085
11658TIP3    H134915   0.896   5.549   0.070
11658TIP3    H234916   0.918   5.699   0.058
11659TIP3   OH234917   3.247   5.017   4.669
11659TIP3    H134918   3.265   5.108   4.692
11659TIP3    H234919   3.179   4.989   4.730
11660TIP3   OH234920   4.364   3.275   3.502
11660TIP3    H134921   4.341   3.336   3.432
11660TIP3    H234922   4.377   3.330   3.579
11661TIP3   OH234923   7.905   5.857   0.050
11661TIP3    H134924   7.819   5.840   0.087
11661TIP3    H234925   7.933   5.773   0.014
11662TIP3   OH234926   0.228   2.691   2.038
11662TIP3    H134927   0.274   2.690   2.121
11662TIP3    H234928   0.136   2.702   2.061
11663TIP3   OH234929   3.951   6.089   5.036
11663TIP3    H134930   4.017   6.091   4.966
11663TIP3    H234931   3.925   6.180   5.047
11664TIP3   OH234932   3.425   2.863   2.493
11664TIP3    H134933   3.343   2.879   2.540
11664TIP3    H234934   3.398   2.819   2.413
11665TIP3   OH234935   2.643   0.109   1.065
11665TIP3    H134936   2.593   0.130   1.144
11665TIP3    H234937   2.652   0.013   1.067
11666TIP3   OH234938   3.781   0.027   0.120
11666TIP3    H134939   3.702   0.075   0.096
11666TIP3    H234940   3.803  -0.022   0.041
11667TIP3   OH234941   1.304   1.425   1.830
11667TIP3    H134942   1.290   1.411   1.736
11667TIP3    H234943   1.387   1.472   1.835
11668TIP3   OH234944   6.192   1.536   5.757
11668TIP3    H134945   6.268   1.573   5.802
11668TIP3    H234946   6.176   1.597   5.684
11669TIP3   OH234947   5.387   2.343   5.768
11669TIP3    H134948   5.345   2.295   5.697
11669TIP3    H234949   5.447   2.281   5.808
11670TIP3   OH234950   8.256   4.587   2.090
11670TIP3    H134951   8.254   4.574   1.995
11670TIP3    H234952   8.195   4.659   2.106
11671TIP3   OH234953   5.559   5.657   1.239
11671TIP3    H134954   5.594   5.732   1.286
11671TIP3    H234955   5.604   5.581   1.277
11672TIP3   OH234956   0.928   6.266   1.288
11672TIP3    H134957   0.850   6.213   1.267
11672TIP3    H234958   0.990   6.203   1.325
11673TIP3   OH234959   6.101   5.235   6.858
11673TIP3    H134960   6.072   5.153   6.818
11673TIP3    H234961   6.132   5.287   6.784
11674TIP3   OH234962   7.572   4.161   1.844
11674TIP3    H134963   7.652   4.162   1.896
11674TIP3    H234964   7.601   4.182   1.755
11675TIP3   OH234965   4.667   5.669   2.234
11675TIP3    H134966   4.687   5.587   2.279
11675TIP3    H234967   4.752   5.704   2.208
11676TIP3   OH234968   7.452   6.944   1.305
11676TIP3    H134969   7.392   6.957   1.378
11676TIP3    H234970   7.471   7.032   1.274
11677TIP3   OH234971   2.267   5.021   6.296
11677TIP3    H134972   2.216   4.947   6.265
11677TIP3    H234973   2.224   5.098   6.258
11678TIP3   OH234974   0.227   1.443   4.857
11678TIP3    H134975   0.167   1.478   4.923
11678TIP3    H234976   0.187   1.361   4.829
11679TIP3   OH234977   0.455   4.617   6.791
11679TIP3    H134978   0.378   4.577   6.831
11679TIP3    H234979   0.423   4.655   6.709
11680TIP3   OH234980   6.536   7.379   3.789
11680TIP3    H134981   6.521   7.362   3.882
11680TIP3    H234982   6.577   7.299   3.756
11681TIP3   OH234983   0.797   0.433   3.150
11681TIP3    H134984   0.868   0.456   3.210
11681TIP3    H234985   0.721   0.418   3.207
11682TIP3   OH234986   3.192   0.937   1.552
11682TIP3    H134987   3.110   0.973   1.585
11682TIP3    H234988   3.177   0.842   1.547
11683TIP3   OH234989   0.332   1.460   3.145
11683TIP3    H134990   0.360   1.531   3.203
11683TIP3    H234991   0.307   1.503   3.064
11684TIP3   OH234992   6.515   1.608   5.612
11684TIP3    H134993   6.517   1.678   5.678
11684TIP3    H234994   6.483   1.651   5.532
11685TIP3   OH234995   6.499   7.133   0.999
11685TIP3    H134996   6.418   7.175   1.027
11685TIP3    H234997   6.479   7.040   0.998
11686TIP3   OH234998   5.657   1.804   0.763
11686TIP3    H134999   5.711   1.736   0.723
11686TIP3    H235000   5.570   1.764   0.770
11687TIP3   OH235001   5.395   1.111   2.502
11687TIP3    H135002   5.328   1.053   2.465
11687TIP3    H235003   5.349   1.194   2.516
11688TIP3   OH235004   6.166   1.912   2.924
11688TIP3    H135005   6.132   1.984   2.872
11688TIP3    H235006   6.232   1.952   2.981
11689TIP3   OH235007   7.757   3.251   1.746
11689TIP3    H135008   7.819   3.317   1.775
11689TIP3    H235009   7.679   3.300   1.721
11690TIP3   OH235010   1.078   0.139   5.567
11690TIP3    H135011   1.145   0.104   5.509
11690TIP3    H235012   1.007   0.075   5.562
11691TIP3   OH235013   2.048   3.284   2.206
11691TIP3    H135014   2.027   3.252   2.119
11691TIP3    H235015   2.049   3.205   2.261
11692TIP3   OH235016   7.479   6.890   4.560
11692TIP3    H135017   7.469   6.840   4.640
11692TIP3    H235018   7.562   6.937   4.571
11693TIP3   OH235019   7.015   3.884   6.477
11693TIP3    H135020   7.022   3.979   6.465
11693TIP3    H235021   7.100   3.850   6.449
11694TIP3   OH235022   1.452   3.719   2.531
11694TIP3    H135023   1.470   3.634   2.570
11694TIP3    H235024   1.519   3.729   2.463
11695TIP3   OH235025   6.637   5.789   4.329
11695TIP3    H135026   6.647   5.813   4.237
11695TIP3    H235027   6.687   5.708   4.338
11696TIP3   OH235028   3.688   0.681   1.797
11696TIP3    H135029   3.695   0.587   1.816
11696TIP3    H235030   3.762   0.721   1.843
11697TIP3   OH235031   1.080   7.479   2.322
11697TIP3    H135032   1.095   7.491   2.228
11697TIP3    H235033   1.079   7.568   2.358
11698TIP3   OH235034   7.027   3.411   4.254
11698TIP3    H135035   6.947   3.452   4.223
11698TIP3    H235036   6.999   3.325   4.286
11699TIP3   OH235037   2.595   7.638   3.783
11699TIP3    H135038   2.654   7.702   3.743
11699TIP3    H235039   2.652   7.564   3.805
11700TIP3   OH235040   2.426   2.902   5.753
11700TIP3    H135041   2.419   2.893   5.848
11700TIP3    H235042   2.392   2.820   5.718
11701TIP3   OH235043   2.105   0.160   2.748
11701TIP3    H135044   2.136   0.071   2.761
11701TIP3    H235045   2.094   0.168   2.653
11702TIP3   OH235046   2.591   5.330   1.947
11702TIP3    H135047   2.624   5.378   2.023
11702TIP3    H235048   2.607   5.389   1.873
11703TIP3   OH235049   7.296   7.494   6.847
11703TIP3    H135050   7.386   7.477   6.820
11703TIP3    H235051   7.257   7.407   6.859
11704TIP3   OH235052   0.531   4.449   0.406
11704TIP3    H135053   0.514   4.360   0.375
11704TIP3    H235054   0.449   4.478   0.445
11705TIP3   OH235055   4.936   1.820   0.715
11705TIP3    H135056   4.856   1.853   0.756
11705TIP3    H235057   4.962   1.889   0.655
11706TIP3   OH235058   3.025   0.491   0.623
11706TIP3    H135059   3.114   0.525   0.621
11706TIP3    H235060   3.019   0.442   0.705
11707TIP3   OH235061   2.111   0.353   6.082
11707TIP3    H135062   2.080   0.311   6.001
11707TIP3    H235063   2.194   0.310   6.101
11708TIP3   OH235064   4.466   5.803   6.271
11708TIP3    H135065   4.419   5.795   6.188
11708TIP3    H235066   4.398   5.826   6.335
11709TIP3   OH235067   2.088   3.047   5.514
11709TIP3    H135068   2.050   3.040   5.426
11709TIP3    H235069   2.022   3.010   5.572
11710TIP3   OH235070   3.174   3.272   6.636
11710TIP3    H135071   3.234   3.207   6.672
11710TIP3    H235072   3.230   3.343   6.606
11711TIP3   OH235073   7.812   3.759   5.771
11711TIP3    H135074   7.859   3.794   5.846
11711TIP3    H235075   7.728   3.804   5.772
11712TIP3   OH235076   1.771   0.143   6.832
11712TIP3    H135077   1.736   0.089   6.903
11712TIP3    H235078   1.757   0.090   6.753
11713TIP3   OH235079   2.951   2.387   6.063
11713TIP3    H135080   2.980   2.474   6.036
11713TIP3    H235081   3.015   2.328   6.024
11714TIP3   OH235082   3.664   7.835   0.078
11714TIP3    H135083   3.736   7.896   0.062
11714TIP3    H235084   3.707   7.749   0.082
11715TIP3   OH235085   1.499   5.546   6.334
11715TIP3    H135086   1.592   5.558   6.316
11715TIP3    H235087   1.494   5.533   6.428
11716TIP3   OH235088   0.106   1.906   1.458
11716TIP3    H135089   0.011   1.911   1.460
11716TIP3    H235090   0.125   1.812   1.468
11717TIP3   OH235091   1.613   3.441   4.524
11717TIP3    H135092   1.524   3.471   4.537
11717TIP3    H235093   1.621   3.429   4.429
11718TIP3   OH235094   0.233   7.276   0.088
11718TIP3    H135095   0.249   7.339   0.159
11718TIP3    H235096   0.272   7.195   0.119
11719TIP3   OH235097   4.863   1.098   1.374
11719TIP3    H135098   4.796   1.150   1.420
11719TIP3    H235099   4.940   1.154   1.373
11720TIP3   OH235100   1.560   3.975   5.052
11720TIP3    H135101   1.533   3.888   5.079
11720TIP3    H235102   1.479   4.017   5.022
11721TIP3   OH235103   0.470   2.218   4.812
11721TIP3    H135104   0.446   2.147   4.871
11721TIP3    H235105   0.555   2.249   4.845
11722TIP3   OH235106   8.340   7.181   6.805
11722TIP3    H135107   8.250   7.216   6.804
11722TIP3    H235108   8.379   7.216   6.725
11723TIP3   OH235109   0.245   2.209   0.172
11723TIP3    H135110   0.281   2.176   0.090
11723TIP3    H235111   0.314   2.194   0.236
11724TIP3   OH235112   4.339   3.248   4.014
11724TIP3    H135113   4.338   3.291   4.100
11724TIP3    H235114   4.386   3.166   4.029
11725TIP3   OH235115   4.870   7.387   6.139
11725TIP3    H135116   4.897   7.307   6.184
11725TIP3    H235117   4.792   7.415   6.186
11726TIP3   OH235118   6.342   0.491   6.209
11726TIP3    H135119   6.313   0.442   6.287
11726TIP3    H235120   6.371   0.424   6.147
11727TIP3   OH235121   1.424   7.832   5.564
11727TIP3    H135122   1.493   7.871   5.511
11727TIP3    H235123   1.396   7.755   5.515
11728TIP3   OH235124   3.383   5.096   5.515
11728TIP3    H135125   3.394   5.189   5.534
11728TIP3    H235126   3.291   5.078   5.534
11729TIP3   OH235127   6.696   3.316   1.997
11729TIP3    H135128   6.686   3.288   1.906
11729TIP3    H235129   6.691   3.411   1.994
11730TIP3   OH235130   7.285   5.520   1.107
11730TIP3    H135131   7.325   5.572   1.037
11730TIP3    H235132   7.245   5.585   1.165
11731TIP3   OH235133   6.983   6.196   1.615
11731TIP3    H135134   6.915   6.151   1.564
11731TIP3    H235135   7.025   6.255   1.552
11732TIP3   OH235136   1.333   4.528   3.069
11732TIP3    H135137   1.351   4.622   3.073
11732TIP3    H235138   1.270   4.519   2.997
11733TIP3   OH235139   6.710   7.143   0.226
11733TIP3    H135140   6.666   7.156   0.141
11733TIP3    H235141   6.644   7.168   0.290
11734TIP3   OH235142   6.077   4.193   5.977
11734TIP3    H135143   6.035   4.205   5.892
11734TIP3    H235144   6.073   4.280   6.018
11735TIP3   OH235145   3.256   7.079   0.463
11735TIP3    H135146   3.290   7.023   0.533
11735TIP3    H235147   3.258   7.023   0.385
11736TIP3   OH235148   6.832   6.244   5.155
11736TIP3    H135149   6.794   6.167   5.113
11736TIP3    H235150   6.860   6.213   5.241
11737TIP3   OH235151   0.905   0.039   1.821
11737TIP3    H135152   0.824   0.059   1.868
11737TIP3    H235153   0.974   0.054   1.884
11738TIP3   OH235154   3.094   3.238   4.457
11738TIP3    H135155   3.120   3.148   4.437
11738TIP3    H235156   3.171   3.290   4.437
11739TIP3   OH235157   3.598   4.090   6.714
11739TIP3    H135158   3.674   4.081   6.770
11739TIP3    H235159   3.533   4.134   6.768
11740TIP3   OH235160   5.388   7.559   6.660
11740TIP3    H135161   5.309   7.504   6.659
11740TIP3    H235162   5.453   7.507   6.613
11741TIP3   OH235163   5.278   5.768   1.901
11741TIP3    H135164   5.252   5.698   1.961
11741TIP3    H235165   5.282   5.846   1.956
11742TIP3   OH235166   6.883   1.156   3.541
11742TIP3    H135167   6.941   1.218   3.496
11742TIP3    H235168   6.826   1.212   3.594
11743TIP3   OH235169   6.441   2.053   6.686
11743TIP3    H135170   6.513   2.078   6.627
11743TIP3    H235171   6.407   2.136   6.719
11744TIP3   OH235172   0.741   7.109   5.433
11744TIP3    H135173   0.658   7.096   5.388
11744TIP3    H235174   0.806   7.067   5.376
11745TIP3   OH235175   6.885   3.044   1.299
11745TIP3    H135176   6.976   3.069   1.313
11745TIP3    H235177   6.881   2.952   1.325
11746TIP3   OH235178   2.918   6.604   4.014
11746TIP3    H135179   2.964   6.687   4.002
11746TIP3    H235180   2.869   6.592   3.933
11747TIP3   OH235181   4.836   2.722   1.394
11747TIP3    H135182   4.772   2.756   1.331
11747TIP3    H235183   4.869   2.800   1.439
11748TIP3   OH235184   1.571   2.719   0.270
11748TIP3    H135185   1.646   2.779   0.268
11748TIP3    H235186   1.589   2.662   0.344
11749TIP3   OH235187   2.520   6.632   2.844
11749TIP3    H135188   2.549   6.557   2.896
11749TIP3    H235189   2.468   6.595   2.774
11750TIP3   OH235190   6.313   5.750   2.085
11750TIP3    H135191   6.384   5.753   2.149
11750TIP3    H235192   6.354   5.774   2.002
11751TIP3   OH235193   7.347   4.080   1.120
11751TIP3    H135194   7.257   4.050   1.103
11751TIP3    H235195   7.368   4.138   1.048
11752TIP3   OH235196   0.827   6.043   5.155
11752TIP3    H135197   0.769   6.119   5.152
11752TIP3    H235198   0.841   6.027   5.248
11753TIP3   OH235199   0.891   3.654   0.175
11753TIP3    H135200   0.911   3.571   0.133
11753TIP3    H235201   0.922   3.720   0.113
11754TIP3   OH235202   5.136   5.965   2.888
11754TIP3    H135203   5.055   5.945   2.935
11754TIP3    H235204   5.206   5.948   2.951
11755TIP3   OH235205   0.968   1.652   5.527
11755TIP3    H135206   1.052   1.686   5.496
11755TIP3    H235207   0.986   1.561   5.551
11756TIP3   OH235208   2.618   4.285   2.626
11756TIP3    H135209   2.639   4.200   2.663
11756TIP3    H235210   2.546   4.318   2.679
11757TIP3   OH235211   1.122   4.371   2.350
11757TIP3    H135212   1.076   4.298   2.392
11757TIP3    H235213   1.184   4.330   2.291
11758TIP3   OH235214   6.592   2.264   5.835
11758TIP3    H135215   6.656   2.197   5.858
11758TIP3    H235216   6.529   2.220   5.779
11759TIP3   OH235217   7.180   5.326   2.134
11759TIP3    H135218   7.165   5.417   2.158
11759TIP3    H235219   7.261   5.328   2.083
11760TIP3   OH235220   4.499   0.348   4.339
11760TIP3    H135221   4.511   0.253   4.347
11760TIP3    H235222   4.445   0.359   4.262
11761TIP3   OH235223   6.259   6.589   2.841
11761TIP3    H135224   6.252   6.680   2.870
11761TIP3    H235225   6.196   6.542   2.895
11762TIP3   OH235226   2.390   4.010   4.472
11762TIP3    H135227   2.469   3.957   4.486
11762TIP3    H235228   2.414   4.070   4.401
11763TIP3   OH235229   0.236   3.750   0.033
11763TIP3    H135230   0.198   3.785   0.114
11763TIP3    H235231   0.214   3.657   0.035
11764TIP3   OH235232   2.551   7.263   5.475
11764TIP3    H135233   2.620   7.235   5.535
11764TIP3    H235234   2.556   7.201   5.402
11765TIP3   OH235235   7.691   6.283   0.703
11765TIP3    H135236   7.612   6.330   0.726
11765TIP3    H235237   7.744   6.346   0.654
11766TIP3   OH235238   1.482   2.160   1.020
11766TIP3    H135239   1.412   2.126   0.965
11766TIP3    H235240   1.477   2.109   1.101
11767TIP3   OH235241   6.430   6.332   6.559
11767TIP3    H135242   6.340   6.303   6.540
11767TIP3    H235243   6.422   6.425   6.576
11768TIP3   OH235244   7.000   3.275   4.742
11768TIP3    H135245   7.087   3.297   4.775
11768TIP3    H235246   6.959   3.360   4.726
11769TIP3   OH235247   0.675   5.958   6.104
11769TIP3    H135248   0.665   5.966   6.009
11769TIP3    H235249   0.629   6.033   6.141
11770TIP3   OH235250   6.925   5.329   2.024
11770TIP3    H135251   6.857   5.316   2.091
11770TIP3    H235252   7.006   5.302   2.067
11771TIP3   OH235253   1.304   4.511   1.087
11771TIP3    H135254   1.346   4.450   1.148
11771TIP3    H235255   1.374   4.568   1.057
11772TIP3   OH235256   4.155   1.162   1.618
11772TIP3    H135257   4.090   1.193   1.555
11772TIP3    H235258   4.198   1.089   1.574
11773TIP3   OH235259   5.353   1.238   1.258
11773TIP3    H135260   5.409   1.312   1.282
11773TIP3    H235261   5.396   1.161   1.295
11774TIP3   OH235262   1.580   3.671   5.396
11774TIP3    H135263   1.491   3.650   5.368
11774TIP3    H235264   1.568   3.721   5.477
11775TIP3   OH235265   6.344   3.411   3.257
11775TIP3    H135266   6.363   3.429   3.165
11775TIP3    H235267   6.417   3.450   3.304
11776TIP3   OH235268   4.324   0.569   1.583
11776TIP3    H135269   4.307   0.487   1.536
11776TIP3    H235270   4.249   0.625   1.562
11777TIP3   OH235271   1.349   7.248   2.342
11777TIP3    H135272   1.365   7.339   2.369
11777TIP3    H235273   1.255   7.244   2.327
11778TIP3   OH235274   0.344   3.098   3.802
11778TIP3    H135275   0.424   3.114   3.852
11778TIP3    H235276   0.319   3.009   3.825
11779TIP3   OH235277   3.949   1.014   5.869
11779TIP3    H135278   3.854   1.021   5.871
11779TIP3    H235279   3.980   1.103   5.884
11780TIP3   OH235280   0.442   7.734   3.120
11780TIP3    H135281   0.441   7.766   3.211
11780TIP3    H235282   0.518   7.676   3.116
11781TIP3   OH235283   8.382   1.639   4.893
11781TIP3    H135284   8.315   1.574   4.875
11781TIP3    H235285   8.438   1.638   4.815
11782TIP3   OH235286   7.283   4.490   0.717
11782TIP3    H135287   7.216   4.422   0.715
11782TIP3    H235288   7.315   4.490   0.807
11783TIP3   OH235289   4.878   3.855   3.113
11783TIP3    H135290   4.889   3.784   3.050
11783TIP3    H235291   4.831   3.923   3.065
11784TIP3   OH235292   2.395   0.728   2.432
11784TIP3    H135293   2.490   0.739   2.421
11784TIP3    H235294   2.357   0.765   2.352
11785TIP3   OH235295   6.479   2.443   3.740
11785TIP3    H135296   6.436   2.358   3.752
11785TIP3    H235297   6.559   2.422   3.692
11786TIP3   OH235298   2.468   5.915   6.537
11786TIP3    H135299   2.508   5.949   6.457
11786TIP3    H235300   2.537   5.863   6.578
11787TIP3   OH235301   4.530   1.407   0.362
11787TIP3    H135302   4.598   1.351   0.398
11787TIP3    H235303   4.545   1.493   0.403
11788TIP3   OH235304   3.141   6.178   4.632
11788TIP3    H135305   3.127   6.257   4.685
11788TIP3    H235306   3.225   6.193   4.588
11789TIP3   OH235307   1.572   1.444   5.980
11789TIP3    H135308   1.579   1.385   6.056
11789TIP3    H235309   1.662   1.469   5.961
11790TIP3   OH235310   5.292   2.884   0.058
11790TIP3    H135311   5.337   2.800   0.058
11790TIP3    H235312   5.310   2.921   0.144
11791TIP3   OH235313   3.761   3.227   6.465
11791TIP3    H135314   3.763   3.189   6.552
11791TIP3    H235315   3.789   3.156   6.407
11792TIP3   OH235316   1.708   5.230   4.271
11792TIP3    H135317   1.701   5.325   4.278
11792TIP3    H235318   1.770   5.205   4.339
11793TIP3   OH235319   7.233   6.716   3.334
11793TIP3    H135320   7.138   6.707   3.344
11793TIP3    H235321   7.246   6.807   3.307
11794TIP3   OH235322   6.179   4.253   3.462
11794TIP3    H135323   6.140   4.170   3.490
11794TIP3    H235324   6.146   4.317   3.525
11795TIP3   OH235325   4.388   1.781   5.424
11795TIP3    H135326   4.293   1.780   5.434
11795TIP3    H235327   4.404   1.728   5.346
11796TIP3   OH235328   5.697   3.727   5.625
11796TIP3    H135329   5.679   3.753   5.715
11796TIP3    H235330   5.767   3.663   5.632
11797TIP3   OH235331   3.715   0.969   1.668
11797TIP3    H135332   3.651   0.929   1.608
11797TIP3    H235333   3.703   0.922   1.751
11798TIP3   OH235334   0.702   0.556   2.017
11798TIP3    H135335   0.777   0.514   1.976
11798TIP3    H235336   0.626   0.517   1.974
11799TIP3   OH235337   0.813   2.498   4.215
11799TIP3    H135338   0.763   2.579   4.231
11799TIP3    H235339   0.886   2.502   4.277
11800TIP3   OH235340   7.495   5.919   3.561
11800TIP3    H135341   7.409   5.928   3.602
11800TIP3    H235342   7.534   5.843   3.605
11801TIP3   OH235343   7.317   5.021   5.185
11801TIP3    H135344   7.320   4.970   5.266
11801TIP3    H235345   7.379   5.093   5.200
11802TIP3   OH235346   2.606   4.418   6.005
11802TIP3    H135347   2.533   4.476   5.984
11802TIP3    H235348   2.608   4.415   6.100
11803TIP3   OH235349   7.651   1.465   3.771
11803TIP3    H135350   7.705   1.399   3.813
11803TIP3    H235351   7.714   1.526   3.731
11804TIP3   OH235352   7.885   0.934   3.209
11804TIP3    H135353   7.829   0.987   3.152
11804TIP3    H235354   7.966   0.922   3.160
11805TIP3   OH235355   5.838   4.311   5.137
11805TIP3    H135356   5.797   4.234   5.097
11805TIP3    H235357   5.890   4.350   5.067
11806TIP3   OH235358   3.397   2.146   2.984
11806TIP3    H135359   3.380   2.077   2.920
11806TIP3    H235360   3.426   2.220   2.931
11807TIP3   OH235361   4.372   7.849   0.812
11807TIP3    H135362   4.379   7.811   0.899
11807TIP3    H235363   4.459   7.837   0.773
11808TIP3   OH235364   5.760   0.131   3.625
11808TIP3    H135365   5.796   0.148   3.712
11808TIP3    H235366   5.832   0.153   3.565
11809TIP3   OH235367   3.978   6.593   3.458
11809TIP3    H135368   3.904   6.653   3.471
11809TIP3    H235369   4.046   6.627   3.516
11810TIP3   OH235370   5.773   4.992   1.743
11810TIP3    H135371   5.730   4.962   1.663
11810TIP3    H235372   5.852   5.037   1.712
11811TIP3   OH235373   3.788   4.367   1.604
11811TIP3    H135374   3.763   4.334   1.691
11811TIP3    H235375   3.876   4.403   1.617
11812TIP3   OH235376   2.204   2.965   6.237
11812TIP3    H135377   2.213   3.014   6.318
11812TIP3    H235378   2.109   2.960   6.223
11813TIP3   OH235379   4.909   4.958   5.512
11813TIP3    H135380   4.897   5.026   5.446
11813TIP3    H235381   4.846   4.979   5.581
11814TIP3   OH235382   6.623   6.793   3.865
11814TIP3    H135383   6.699   6.792   3.807
11814TIP3    H235384   6.646   6.733   3.936
11815TIP3   OH235385   2.728   4.893   5.680
11815TIP3    H135386   2.636   4.891   5.652
11815TIP3    H235387   2.767   4.815   5.640
11816TIP3   OH235388   7.435   3.546   4.241
11816TIP3    H135389   7.360   3.559   4.183
11816TIP3    H235390   7.482   3.472   4.203
11817TIP3   OH235391   2.550   6.500   6.475
11817TIP3    H135392   2.602   6.464   6.547
11817TIP3    H235393   2.541   6.428   6.413
11818TIP3   OH235394   4.052   6.569   4.105
11818TIP3    H135395   4.009   6.564   4.190
11818TIP3    H235396   4.115   6.641   4.115
11819TIP3   OH235397   3.534   6.387   1.752
11819TIP3    H135398   3.462   6.365   1.811
11819TIP3    H235399   3.532   6.482   1.745
11820TIP3   OH235400   3.460   0.432   5.415
11820TIP3    H135401   3.498   0.354   5.456
11820TIP3    H235402   3.382   0.450   5.468
11821TIP3   OH235403   6.811   5.160   2.219
11821TIP3    H135404   6.821   5.067   2.201
11821TIP3    H235405   6.718   5.171   2.236
11822TIP3   OH235406   2.657   4.727   1.027
11822TIP3    H135407   2.699   4.655   1.074
11822TIP3    H235408   2.720   4.799   1.032
11823TIP3   OH235409   5.990   3.685   6.414
11823TIP3    H135410   6.054   3.617   6.395
11823TIP3    H235411   5.967   3.671   6.506
11824TIP3   OH235412   1.654   1.714   4.957
11824TIP3    H135413   1.684   1.718   4.866
11824TIP3    H235414   1.728   1.676   5.004
11825TIP3   OH235415   5.020   0.206   4.401
11825TIP3    H135416   5.023   0.136   4.336
11825TIP3    H235417   5.111   0.234   4.412
11826TIP3   OH235418   3.962   1.752   4.197
11826TIP3    H135419   3.939   1.659   4.187
11826TIP3    H235420   4.009   1.774   4.117
11827TIP3   OH235421   3.426   6.562   1.262
11827TIP3    H135422   3.464   6.497   1.202
11827TIP3    H235423   3.497   6.624   1.278
11828TIP3   OH235424   2.515   5.987   3.805
11828TIP3    H135425   2.533   5.947   3.720
11828TIP3    H235426   2.465   6.067   3.784
11829TIP3   OH235427   5.996   7.603   2.214
11829TIP3    H135428   6.064   7.601   2.147
11829TIP3    H235429   5.991   7.514   2.247
11830TIP3   OH235430   5.682   7.635   3.619
11830TIP3    H135431   5.755   7.678   3.664
11830TIP3    H235432   5.711   7.629   3.528
11831TIP3   OH235433   3.206   3.737   6.372
11831TIP3    H135434   3.240   3.775   6.291
11831TIP3    H235435   3.111   3.735   6.359
11832TIP3   OH235436   2.395   1.821   6.467
11832TIP3    H135437   2.311   1.828   6.421
11832TIP3    H235438   2.403   1.727   6.487
11833TIP3   OH235439   7.778   2.122   0.337
11833TIP3    H135440   7.787   2.214   0.364
11833TIP3    H235441   7.783   2.073   0.419
11834TIP3   OH235442   0.350   1.619   4.655
11834TIP3    H135443   0.282   1.571   4.703
11834TIP3    H235444   0.423   1.558   4.649
11835TIP3   OH235445   1.796   6.843   2.205
11835TIP3    H135446   1.709   6.805   2.195
11835TIP3    H235447   1.793   6.924   2.154
11836TIP3   OH235448   4.208   2.799   5.802
11836TIP3    H135449   4.150   2.748   5.858
11836TIP3    H235450   4.272   2.735   5.770
11837TIP3   OH235451   6.305   4.442   2.888
11837TIP3    H135452   6.303   4.435   2.983
11837TIP3    H235453   6.333   4.355   2.858
11838TIP3   OH235454   7.580   6.218   6.649
11838TIP3    H135455   7.569   6.282   6.719
11838TIP3    H235456   7.604   6.137   6.694
11839TIP3   OH235457   1.969   6.007   3.812
11839TIP3    H135458   1.877   6.029   3.824
11839TIP3    H235459   2.001   5.988   3.900
11840TIP3   OH235460   1.292   2.371   0.696
11840TIP3    H135461   1.352   2.384   0.622
11840TIP3    H235462   1.232   2.303   0.667
11841TIP3   OH235463   2.452   4.650   2.153
11841TIP3    H135464   2.527   4.657   2.212
11841TIP3    H235465   2.477   4.582   2.090
11842TIP3   OH235466   4.663   3.368   0.439
11842TIP3    H135467   4.628   3.286   0.476
11842TIP3    H235468   4.663   3.429   0.512
11843TIP3   OH235469   7.159   2.397   2.055
11843TIP3    H135470   7.212   2.328   2.016
11843TIP3    H235471   7.113   2.356   2.127
11844TIP3   OH235472   2.464   4.364   6.314
11844TIP3    H135473   2.481   4.369   6.408
11844TIP3    H235474   2.410   4.440   6.295
11845TIP3   OH235475   0.241   0.748   3.567
11845TIP3    H135476   0.318   0.709   3.526
11845TIP3    H235477   0.209   0.682   3.628
11846TIP3   OH235478   1.186   1.407   1.530
11846TIP3    H135479   1.161   1.325   1.487
11846TIP3    H235480   1.262   1.438   1.481
11847TIP3   OH235481   4.299   1.152   5.638
11847TIP3    H135482   4.242   1.207   5.693
11847TIP3    H235483   4.331   1.085   5.698
11848TIP3   OH235484   7.556   0.317   0.312
11848TIP3    H135485   7.585   0.248   0.253
11848TIP3    H235486   7.621   0.318   0.382
11849TIP3   OH235487   3.440   6.285   2.366
11849TIP3    H135488   3.372   6.329   2.315
11849TIP3    H235489   3.401   6.202   2.393
11850TIP3   OH235490   3.607   2.050   4.253
11850TIP3    H135491   3.604   2.143   4.233
11850TIP3    H235492   3.541   2.011   4.196
11851TIP3   OH235493   6.307   7.216   1.451
11851TIP3    H135494   6.212   7.223   1.455
11851TIP3    H235495   6.336   7.304   1.426
11852TIP3   OH235496   4.166   6.687   5.024
11852TIP3    H135497   4.215   6.607   5.042
11852TIP3    H235498   4.179   6.741   5.102
11853TIP3   OH235499   0.265   1.577   3.598
11853TIP3    H135500   0.294   1.487   3.586
11853TIP3    H235501   0.200   1.591   3.529
11854TIP3   OH235502   1.462   2.671   1.805
11854TIP3    H135503   1.520   2.613   1.854
11854TIP3    H235504   1.497   2.670   1.716
11855TIP3   OH235505   3.528   0.599   0.370
11855TIP3    H135506   3.445   0.643   0.388
11855TIP3    H235507   3.504   0.523   0.317
11856TIP3   OH235508   5.223   3.573   6.574
11856TIP3    H135509   5.181   3.488   6.567
11856TIP3    H235510   5.265   3.586   6.488
11857TIP3   OH235511   8.315   5.544   1.277
11857TIP3    H135512   8.281   5.612   1.219
11857TIP3    H235513   8.242   5.525   1.336
11858TIP3   OH235514   6.699   0.970   1.305
11858TIP3    H135515   6.704   0.890   1.357
11858TIP3    H235516   6.614   1.008   1.327
11859TIP3   OH235517   8.348   1.176   6.499
11859TIP3    H135518   8.270   1.227   6.476
11859TIP3    H235519   8.416   1.208   6.440
11860TIP3   OH235520   1.965   3.246   2.944
11860TIP3    H135521   2.054   3.282   2.948
11860TIP3    H235522   1.919   3.286   3.018
11861TIP3   OH235523   0.459   6.209   4.272
11861TIP3    H135524   0.409   6.202   4.191
11861TIP3    H235525   0.444   6.299   4.302
11862TIP3   OH235526   0.855   7.559   2.578
11862TIP3    H135527   0.765   7.528   2.589
11862TIP3    H235528   0.862   7.634   2.637
11863TIP3   OH235529   7.756   3.650   1.635
11863TIP3    H135530   7.702   3.571   1.638
11863TIP3    H235531   7.696   3.721   1.654
11864TIP3   OH235532   2.671   2.491   4.077
11864TIP3    H135533   2.701   2.558   4.015
11864TIP3    H235534   2.586   2.523   4.108
11865TIP3   OH235535   0.951   4.348   0.331
11865TIP3    H135536   1.033   4.391   0.309
11865TIP3    H235537   0.951   4.268   0.278
11866TIP3   OH235538   6.974   3.074   4.940
11866TIP3    H135539   6.984   3.156   4.891
11866TIP3    H235540   6.888   3.041   4.915
11867TIP3   OH235541   5.273   3.565   0.310
11867TIP3    H135542   5.184   3.595   0.291
11867TIP3    H235543   5.280   3.571   0.405
11868TIP3   OH235544   4.381   1.359   2.454
11868TIP3    H135545   4.416   1.378   2.367
11868TIP3    H235546   4.287   1.375   2.446
11869TIP3   OH235547   4.412   2.971   4.106
11869TIP3    H135548   4.402   2.888   4.152
11869TIP3    H235549   4.385   2.952   4.016
11870TIP3   OH235550   4.400   0.296   4.097
11870TIP3    H135551   4.439   0.275   4.012
11870TIP3    H235552   4.338   0.226   4.114
11871TIP3   OH235553   0.431   3.208   2.339
11871TIP3    H135554   0.515   3.247   2.359
11871TIP3    H235555   0.432   3.124   2.384
11872TIP3   OH235556   1.368   3.578   6.241
11872TIP3    H135557   1.394   3.647   6.179
11872TIP3    H235558   1.438   3.513   6.236
11873TIP3   OH235559   8.327   2.856   4.197
11873TIP3    H135560   8.247   2.825   4.156
11873TIP3    H235561   8.389   2.783   4.187
11874TIP3   OH235562   0.972   3.426   6.833
11874TIP3    H135563   0.996   3.462   6.748
11874TIP3    H235564   0.882   3.394   6.821
11875TIP3   OH235565   5.078   2.056   3.172
11875TIP3    H135566   5.078   2.140   3.218
11875TIP3    H235567   5.163   2.053   3.128
11876TIP3   OH235568   6.643   3.223   6.303
11876TIP3    H135569   6.691   3.263   6.375
11876TIP3    H235570   6.699   3.236   6.226
11877TIP3   OH235571   8.057   6.060   2.932
11877TIP3    H135572   8.115   6.135   2.918
11877TIP3    H235573   7.977   6.082   2.885
11878TIP3   OH235574   8.306   6.629   0.311
11878TIP3    H135575   8.274   6.719   0.319
11878TIP3    H235576   8.262   6.582   0.382
11879TIP3   OH235577   4.626   7.474   6.287
11879TIP3    H135578   4.681   7.550   6.268
11879TIP3    H235579   4.549   7.485   6.231
11880TIP3   OH235580   4.756   5.206   0.310
11880TIP3    H135581   4.719   5.128   0.268
11880TIP3    H235582   4.810   5.246   0.242
11881TIP3   OH235583   3.876   0.387   3.168
11881TIP3    H135584   3.930   0.442   3.225
11881TIP3    H235585   3.819   0.339   3.228
11882TIP3   OH235586   8.331   2.870   4.807
11882TIP3    H135587   8.404   2.931   4.790
11882TIP3    H235588   8.270   2.885   4.735
11883TIP3   OH235589   3.499   1.596   2.460
11883TIP3    H135590   3.407   1.617   2.442
11883TIP3    H235591   3.495   1.520   2.518
11884TIP3   OH235592   1.711   6.340   4.366
11884TIP3    H135593   1.798   6.314   4.396
11884TIP3    H235594   1.720   6.350   4.271
11885TIP3   OH235595   3.006   1.793   6.558
11885TIP3    H135596   3.057   1.857   6.508
11885TIP3    H235597   3.020   1.710   6.511
11886TIP3   OH235598   2.588   5.047   0.818
11886TIP3    H135599   2.549   4.988   0.754
11886TIP3    H235600   2.635   5.112   0.766
11887TIP3   OH235601   4.138   1.137   4.762
11887TIP3    H135602   4.154   1.043   4.761
11887TIP3    H235603   4.076   1.152   4.690
11888TIP3   OH235604   3.411   1.029   3.827
11888TIP3    H135605   3.408   0.941   3.864
11888TIP3    H235606   3.320   1.047   3.803
11889TIP3   OH235607   4.479   1.646   2.815
11889TIP3    H135608   4.555   1.592   2.836
11889TIP3    H235609   4.410   1.615   2.874
11890TIP3   OH235610   6.878   0.763   5.712
11890TIP3    H135611   6.932   0.720   5.779
11890TIP3    H235612   6.854   0.692   5.652
11891TIP3   OH235613   4.743   0.692   4.358
11891TIP3    H135614   4.776   0.611   4.397
11891TIP3    H235615   4.819   0.749   4.354
11892TIP3   OH235616   1.155   5.170   1.882
11892TIP3    H135617   1.240   5.209   1.863
11892TIP3    H235618   1.142   5.186   1.976
11893TIP3   OH235619   0.016   5.968   2.144
11893TIP3    H135620   0.111   5.961   2.134
11893TIP3    H235621   0.003   5.986   2.237
11894TIP3   OH235622   0.705   5.674   3.514
11894TIP3    H135623   0.614   5.646   3.503
11894TIP3    H235624   0.704   5.730   3.591
11895TIP3   OH235625   6.856   0.702   0.372
11895TIP3    H135626   6.875   0.775   0.432
11895TIP3    H235627   6.772   0.724   0.333
11896TIP3   OH235628   6.390   3.108   3.418
11896TIP3    H135629   6.331   3.118   3.343
11896TIP3    H235630   6.453   3.179   3.408
11897TIP3   OH235631   4.111   7.030   3.929
11897TIP3    H135632   4.019   7.056   3.934
11897TIP3    H235633   4.111   6.958   3.865
11898TIP3   OH235634   3.662   2.052   5.969
11898TIP3    H135635   3.629   1.995   6.038
11898TIP3    H235636   3.706   1.993   5.908
11899TIP3   OH235637   3.270   5.277   1.125
11899TIP3    H135638   3.178   5.290   1.145
11899TIP3    H235639   3.274   5.277   1.029
11900TIP3   OH235640   3.422   3.695   2.541
11900TIP3    H135641   3.476   3.744   2.603
11900TIP3    H235642   3.422   3.748   2.462
11901TIP3   OH235643   1.189   6.097   4.079
11901TIP3    H135644   1.267   6.148   4.057
11901TIP3    H235645   1.126   6.118   4.009
11902TIP3   OH235646   3.651   5.998   1.986
11902TIP3    H135647   3.688   5.947   2.058
11902TIP3    H235648   3.607   6.071   2.029
11903TIP3   OH235649   0.760   1.984   6.842
11903TIP3    H135650   0.792   2.067   6.879
11903TIP3    H235651   0.665   1.992   6.843
11904TIP3   OH235652   6.468   4.145   4.442
11904TIP3    H135653   6.554   4.145   4.399
11904TIP3    H235654   6.449   4.238   4.456
11905TIP3   OH235655   4.811   0.248   1.557
11905TIP3    H135656   4.838   0.167   1.601
11905TIP3    H235657   4.790   0.308   1.629
11906TIP3   OH235658   2.853   2.135   4.601
11906TIP3    H135659   2.798   2.102   4.530
11906TIP3    H235660   2.942   2.136   4.565
11907TIP3   OH235661   3.654   6.481   2.015
11907TIP3    H135662   3.733   6.533   2.027
11907TIP3    H235663   3.628   6.498   1.924
11908TIP3   OH235664   7.820   2.501   0.912
11908TIP3    H135665   7.912   2.519   0.929
11908TIP3    H235666   7.791   2.450   0.988
11909TIP3   OH235667   7.036   6.087   4.538
11909TIP3    H135668   7.100   6.079   4.466
11909TIP3    H235669   6.984   6.007   4.532
11910TIP3   OH235670   3.862   7.138   4.382
11910TIP3    H135671   3.842   7.170   4.470
11910TIP3    H235672   3.777   7.123   4.342
11911TIP3   OH235673   0.340   1.801   2.965
11911TIP3    H135674   0.277   1.813   3.036
11911TIP3    H235675   0.324   1.711   2.934
11912TIP3   OH235676   4.545   7.243   3.461
11912TIP3    H135677   4.578   7.330   3.439
11912TIP3    H235678   4.539   7.198   3.376
11913TIP3   OH235679   7.824   0.517   5.432
11913TIP3    H135680   7.887   0.460   5.477
11913TIP3    H235681   7.741   0.499   5.475
11914TIP3   OH235682   1.367   5.358   1.918
11914TIP3    H135683   1.334   5.443   1.946
11914TIP3    H235684   1.410   5.321   1.995
11915TIP3   OH235685   4.444   2.081   1.424
11915TIP3    H135686   4.465   2.016   1.357
11915TIP3    H235687   4.529   2.120   1.446
11916TIP3   OH235688   3.790   2.473   5.386
11916TIP3    H135689   3.836   2.472   5.469
11916TIP3    H235690   3.788   2.565   5.360
11917TIP3   OH235691   2.787   3.542   6.078
11917TIP3    H135692   2.874   3.503   6.069
11917TIP3    H235693   2.774   3.550   6.172
11918TIP3   OH235694   0.218   4.301   0.185
11918TIP3    H135695   0.224   4.262   0.272
11918TIP3    H235696   0.213   4.226   0.125
11919TIP3   OH235697   8.188   1.366   2.613
11919TIP3    H135698   8.277   1.352   2.644
11919TIP3    H235699   8.133   1.323   2.679
11920TIP3   OH235700   5.134   1.371   0.366
11920TIP3    H135701   5.057   1.395   0.417
11920TIP3    H235702   5.114   1.284   0.332
11921TIP3   OH235703   8.277   7.613   5.412
11921TIP3    H135704   8.241   7.663   5.338
11921TIP3    H235705   8.199   7.579   5.457
11922TIP3   OH235706   6.290   5.023   5.718
11922TIP3    H135707   6.310   5.051   5.628
11922TIP3    H235708   6.326   4.935   5.724
11923TIP3   OH235709   8.356   2.028   2.938
11923TIP3    H135710   8.347   2.081   2.859
11923TIP3    H235711   8.418   2.076   2.993
11924TIP3   OH235712   7.313   1.888   4.434
11924TIP3    H135713   7.378   1.854   4.373
11924TIP3    H235714   7.357   1.888   4.519
11925TIP3   OH235715   5.647   6.722   5.956
11925TIP3    H135716   5.593   6.784   5.908
11925TIP3    H235717   5.628   6.740   6.048
11926TIP3   OH235718   1.518   5.087   5.058
11926TIP3    H135719   1.562   5.040   4.987
11926TIP3    H235720   1.583   5.148   5.091
11927TIP3   OH235721   0.991   4.972   2.221
11927TIP3    H135722   0.976   4.883   2.189
11927TIP3    H235723   0.976   4.966   2.316
11928TIP3   OH235724   7.925   4.525   5.384
11928TIP3    H135725   7.890   4.470   5.314
11928TIP3    H235726   7.862   4.516   5.456
11929TIP3   OH235727   4.092   2.767   6.666
11929TIP3    H135728   4.151   2.841   6.682
11929TIP3    H235729   4.130   2.721   6.592
11930TIP3   OH235730   3.814   6.490   5.767
11930TIP3    H135731   3.808   6.566   5.710
11930TIP3    H235732   3.896   6.503   5.815
11931TIP3   OH235733   3.304   5.348   0.785
11931TIP3    H135734   3.360   5.416   0.824
11931TIP3    H235735   3.364   5.294   0.734
11932TIP3   OH235736   0.406   5.104   2.854
11932TIP3    H135737   0.407   5.193   2.890
11932TIP3    H235738   0.333   5.062   2.899
11933TIP3   OH235739   1.820   0.636   4.817
11933TIP3    H135740   1.815   0.642   4.722
11933TIP3    H235741   1.824   0.728   4.846
11934TIP3   OH235742   5.817   1.687   3.411
11934TIP3    H135743   5.816   1.778   3.382
11934TIP3    H235744   5.909   1.669   3.432
11935TIP3   OH235745   8.347   6.697   5.983
11935TIP3    H135746   8.302   6.630   5.933
11935TIP3    H235747   8.360   6.769   5.922
11936TIP3   OH235748   7.768   5.157   4.600
11936TIP3    H135749   7.833   5.102   4.556
11936TIP3    H235750   7.792   5.153   4.692
11937TIP3   OH235751   3.144   7.321   3.735
11937TIP3    H135752   3.089   7.243   3.745
11937TIP3    H235753   3.223   7.301   3.784
11938TIP3   OH235754   5.521   1.347   2.827
11938TIP3    H135755   5.518   1.252   2.816
11938TIP3    H235756   5.614   1.365   2.845
11939TIP3   OH235757   8.386   6.021   4.683
11939TIP3    H135758   8.328   6.083   4.640
11939TIP3    H235759   8.355   6.018   4.774
11940TIP3   OH235760   5.409   3.677   2.029
11940TIP3    H135761   5.463   3.739   2.078
11940TIP3    H235762   5.418   3.704   1.937
11941TIP3   OH235763   5.842   3.701   1.110
11941TIP3    H135764   5.854   3.699   1.205
11941TIP3    H235765   5.921   3.743   1.077
11942TIP3   OH235766   5.340   5.833   3.060
11942TIP3    H135767   5.427   5.858   3.029
11942TIP3    H235768   5.343   5.738   3.069
11943TIP3   OH235769   8.179   3.207   3.780
11943TIP3    H135770   8.098   3.160   3.797
11943TIP3    H235771   8.214   3.168   3.700
11944TIP3   OH235772   1.988   2.101   0.910
11944TIP3    H135773   1.975   2.184   0.954
11944TIP3    H235774   1.929   2.041   0.954
11945TIP3   OH235775   2.178   0.459   0.125
11945TIP3    H135776   2.092   0.491   0.098
11945TIP3    H235777   2.210   0.408   0.050
11946TIP3   OH235778   3.127   5.454   5.463
11946TIP3    H135779   3.053   5.397   5.487
11946TIP3    H235780   3.157   5.490   5.546
11947TIP3   OH235781   3.347   5.567   5.066
11947TIP3    H135782   3.427   5.573   5.012
11947TIP3    H235783   3.285   5.626   5.024
11948TIP3   OH235784   3.527   7.771   2.378
11948TIP3    H135785   3.467   7.712   2.423
11948TIP3    H235786   3.521   7.745   2.286
11949TIP3   OH235787   0.383   5.980   0.479
11949TIP3    H135788   0.410   6.071   0.479
11949TIP3    H235789   0.344   5.966   0.392
11950TIP3   OH235790   0.484   4.202   0.881
11950TIP3    H135791   0.503   4.128   0.823
11950TIP3    H235792   0.565   4.213   0.932
11951TIP3   OH235793   0.470   4.518   6.437
11951TIP3    H135794   0.540   4.496   6.497
11951TIP3    H235795   0.440   4.604   6.466
11952TIP3   OH235796   6.242   5.362   5.146
11952TIP3    H135797   6.182   5.348   5.219
11952TIP3    H235798   6.256   5.275   5.109
11953TIP3   OH235799   8.349   5.362   4.564
11953TIP3    H135800   8.342   5.269   4.584
11953TIP3    H235801   8.310   5.406   4.639
11954TIP3   OH235802   0.332   2.928   5.278
11954TIP3    H135803   0.378   3.012   5.283
11954TIP3    H235804   0.293   2.917   5.365
11955TIP3   OH235805   7.611   0.272   6.085
11955TIP3    H135806   7.700   0.288   6.117
11955TIP3    H235807   7.557   0.333   6.135
11956TIP3   OH235808   6.830   3.927   2.756
11956TIP3    H135809   6.847   4.021   2.764
11956TIP3    H235810   6.757   3.921   2.694
11957TIP3   OH235811   7.256   0.908   2.785
11957TIP3    H135812   7.279   0.818   2.807
11957TIP3    H235813   7.164   0.917   2.810
11958TIP3   OH235814   4.975   2.269   3.690
11958TIP3    H135815   4.900   2.248   3.633
11958TIP3    H235816   4.941   2.259   3.778
11959TIP3   OH235817   2.245   7.211   3.989
11959TIP3    H135818   2.197   7.261   4.056
11959TIP3    H235819   2.178   7.159   3.945
11960TIP3   OH235820   6.038   3.959   4.551
11960TIP3    H135821   6.104   3.974   4.483
11960TIP3    H235822   6.088   3.952   4.632
11961TIP3   OH235823   0.494   0.760   6.447
11961TIP3    H135824   0.402   0.788   6.439
11961TIP3    H235825   0.507   0.698   6.376
11962TIP3   OH235826   3.278   1.573   1.667
11962TIP3    H135827   3.327   1.495   1.696
11962TIP3    H235828   3.189   1.557   1.697
11963TIP3   OH235829   4.599   7.828   5.163
11963TIP3    H135830   4.680   7.830   5.215
11963TIP3    H235831   4.615   7.890   5.092
11964TIP3   OH235832   1.364   1.370   3.440
11964TIP3    H135833   1.386   1.463   3.446
11964TIP3    H235834   1.286   1.361   3.495
11965TIP3   OH235835   7.489   5.772   3.335
11965TIP3    H135836   7.555   5.713   3.370
11965TIP3    H235837   7.480   5.840   3.402
11966TIP3   OH235838   0.935   4.886   1.732
11966TIP3    H135839   0.900   4.818   1.675
11966TIP3    H235840   0.926   4.967   1.682
11967TIP3   OH235841   1.867   5.887   1.151
11967TIP3    H135842   1.793   5.883   1.212
11967TIP3    H235843   1.835   5.841   1.073
11968TIP3   OH235844   6.388   4.186   5.648
11968TIP3    H135845   6.382   4.267   5.699
11968TIP3    H235846   6.365   4.212   5.559
11969TIP3   OH235847   6.635   4.432   3.379
11969TIP3    H135848   6.659   4.505   3.322
11969TIP3    H235849   6.641   4.354   3.324
11970TIP3   OH235850   0.434   5.764   3.713
11970TIP3    H135851   0.346   5.733   3.735
11970TIP3    H235852   0.491   5.689   3.730
11971TIP3   OH235853   6.562   6.149   3.178
11971TIP3    H135854   6.524   6.140   3.091
11971TIP3    H235855   6.640   6.093   3.176
11972TIP3   OH235856   5.193   7.192   1.739
11972TIP3    H135857   5.221   7.250   1.810
11972TIP3    H235858   5.272   7.145   1.714
11973TIP3   OH235859   0.918   6.980   6.304
11973TIP3    H135860   0.953   6.955   6.219
11973TIP3    H235861   0.830   7.015   6.284
11974TIP3   OH235862   2.917   2.864   5.722
11974TIP3    H135863   3.011   2.845   5.720
11974TIP3    H235864   2.890   2.860   5.630
11975TIP3   OH235865   8.051   5.855   2.199
11975TIP3    H135866   8.032   5.946   2.223
11975TIP3    H235867   8.033   5.806   2.280
11976TIP3   OH235868   7.001   2.157   5.702
11976TIP3    H135869   7.033   2.185   5.787
11976TIP3    H235870   7.046   2.213   5.639
11977TIP3   OH235871   4.030   2.618   4.799
11977TIP3    H135872   4.061   2.685   4.738
11977TIP3    H235873   3.975   2.561   4.746
11978TIP3   OH235874   3.508   3.663   3.742
11978TIP3    H135875   3.540   3.748   3.711
11978TIP3    H235876   3.550   3.600   3.684
11979TIP3   OH235877   5.393   6.176   4.293
11979TIP3    H135878   5.450   6.099   4.291
11979TIP3    H235879   5.408   6.215   4.379
11980TIP3   OH235880   3.968   6.003   5.310
11980TIP3    H135881   4.015   6.051   5.241
11980TIP3    H235882   3.893   5.964   5.265
11981TIP3   OH235883   4.316   7.313   2.753
11981TIP3    H135884   4.315   7.358   2.837
11981TIP3    H235885   4.329   7.221   2.775
11982TIP3   OH235886   2.134   3.849   2.362
11982TIP3    H135887   2.183   3.775   2.326
11982TIP3    H235888   2.167   3.858   2.452
11983TIP3   OH235889   7.144   5.857   2.254
11983TIP3    H135890   7.096   5.920   2.200
11983TIP3    H235891   7.195   5.912   2.314
11984TIP3   OH235892   3.528   3.690   4.020
11984TIP3    H135893   3.463   3.761   4.021
11984TIP3    H235894   3.557   3.684   3.929
11985TIP3   OH235895   8.400   7.888   2.188
11985TIP3    H135896   8.337   7.852   2.251
11985TIP3    H235897   8.375   7.980   2.179
11986TIP3   OH235898   2.233   7.368   6.449
11986TIP3    H135899   2.320   7.336   6.474
11986TIP3    H235900   2.243   7.394   6.357
11987TIP3   OH235901   5.082   6.677   5.957
11987TIP3    H135902   5.120   6.594   5.929
11987TIP3    H235903   5.132   6.744   5.909
11988TIP3   OH235904   7.905   2.745   5.807
11988TIP3    H135905   7.968   2.812   5.780
11988TIP3    H235906   7.928   2.726   5.898
11989TIP3   OH235907   7.536   5.635   0.403
11989TIP3    H135908   7.443   5.656   0.403
11989TIP3    H235909   7.572   5.684   0.476
11990TIP3   OH235910   8.104   6.031   6.403
11990TIP3    H135911   8.011   6.015   6.421
11990TIP3    H235912   8.110   6.029   6.308
11991TIP3   OH235913   3.550   3.562   0.623
11991TIP3    H135914   3.600   3.488   0.590
11991TIP3    H235915   3.611   3.609   0.680
11992TIP3   OH235916   2.704   4.684   2.961
11992TIP3    H135917   2.670   4.739   3.031
11992TIP3    H235918   2.627   4.639   2.926
11993TIP3   OH235919   6.074   3.926   1.447
11993TIP3    H135920   6.024   3.844   1.453
11993TIP3    H235921   6.011   3.993   1.474
11994TIP3   OH235922   6.694   5.297   3.157
11994TIP3    H135923   6.672   5.389   3.147
11994TIP3    H235924   6.646   5.254   3.086
11995TIP3   OH235925   3.877   7.325   1.445
11995TIP3    H135926   3.882   7.265   1.520
11995TIP3    H235927   3.786   7.351   1.440
11996TIP3   OH235928   8.422   3.408   0.739
11996TIP3    H135929   8.384   3.368   0.818
11996TIP3    H235930   8.383   3.495   0.735
11997TIP3   OH235931   5.416   0.722   5.001
11997TIP3    H135932   5.326   0.693   4.992
11997TIP3    H235933   5.452   0.719   4.913
11998TIP3   OH235934   5.076   0.620   5.466
11998TIP3    H135935   5.000   0.606   5.523
11998TIP3    H235936   5.045   0.594   5.379
11999TIP3   OH235937   5.625   6.863   4.348
11999TIP3    H135938   5.563   6.795   4.323
11999TIP3    H235939   5.589   6.899   4.429
12000TIP3   OH235940   5.420   0.786   3.378
12000TIP3    H135941   5.496   0.730   3.366
12000TIP3    H235942   5.381   0.756   3.461
12001TIP3   OH235943   5.506   1.092   2.762
12001TIP3    H135944   5.443   1.136   2.705
12001TIP3    H235945   5.546   1.025   2.707
12002TIP3   OH235946   4.305   5.716   6.082
12002TIP3    H135947   4.250   5.660   6.136
12002TIP3    H235948   4.251   5.794   6.067
12003TIP3   OH235949   7.398   7.093   2.531
12003TIP3    H135950   7.426   7.093   2.439
12003TIP3    H235951   7.480   7.094   2.580
12004TIP3   OH235952   1.371   7.782   0.951
12004TIP3    H135953   1.341   7.767   0.861
12004TIP3    H235954   1.341   7.705   0.999
12005TIP3   OH235955   0.592   6.109   4.706
12005TIP3    H135956   0.519   6.057   4.740
12005TIP3    H235957   0.665   6.087   4.765
12006TIP3   OH235958   2.785   3.807   6.425
12006TIP3    H135959   2.806   3.762   6.506
12006TIP3    H235960   2.707   3.858   6.445
12007TIP3   OH235961   8.103   4.942   4.497
12007TIP3    H135962   8.123   4.854   4.467
12007TIP3    H235963   8.011   4.955   4.477
12008TIP3   OH235964   6.829   0.373   6.692
12008TIP3    H135965   6.880   0.421   6.627
12008TIP3    H235966   6.889   0.364   6.767
12009TIP3   OH235967   0.695   5.142   1.530
12009TIP3    H135968   0.691   5.049   1.508
12009TIP3    H235969   0.787   5.165   1.522
12010TIP3   OH235970   2.143   1.930   3.370
12010TIP3    H135971   2.102   2.001   3.320
12010TIP3    H235972   2.106   1.850   3.334
12011TIP3   OH235973   6.852   3.074   6.608
12011TIP3    H135974   6.866   3.021   6.530
12011TIP3    H235975   6.851   3.165   6.576
12012TIP3   OH235976   5.541   3.850   3.284
12012TIP3    H135977   5.544   3.788   3.357
12012TIP3    H235978   5.532   3.936   3.326
12013TIP3   OH235979   0.894   3.672   4.923
12013TIP3    H135980   0.988   3.667   4.903
12013TIP3    H235981   0.853   3.609   4.863
12014TIP3   OH235982   2.308   6.144   1.471
12014TIP3    H135983   2.401   6.156   1.490
12014TIP3    H235984   2.275   6.233   1.460
12015TIP3   OH235985   6.069   5.220   1.019
12015TIP3    H135986   6.121   5.288   0.978
12015TIP3    H235987   6.132   5.171   1.073
12016TIP3   OH235988   5.118   0.616   3.662
12016TIP3    H135989   5.084   0.527   3.659
12016TIP3    H235990   5.213   0.605   3.654
12017TIP3   OH235991   8.343   5.911   6.876
12017TIP3    H135992   8.309   5.998   6.853
12017TIP3    H235993   8.434   5.912   6.845
12018TIP3   OH235994   4.035   1.499   2.188
12018TIP3    H135995   4.100   1.565   2.212
12018TIP3    H235996   4.084   1.434   2.138
12019TIP3   OH235997   5.605   2.442   2.813
12019TIP3    H135998   5.579   2.526   2.774
12019TIP3    H235999   5.624   2.463   2.904
12020TIP3   OH236000   4.104   1.188   5.050
12020TIP3    H136001   4.061   1.103   5.046
12020TIP3    H236002   4.115   1.214   4.958
12021TIP3   OH236003   3.596   2.775   2.691
12021TIP3    H136004   3.662   2.718   2.652
12021TIP3    H236005   3.552   2.815   2.616
12022TIP3   OH236006   2.827   7.577   0.231
12022TIP3    H136007   2.844   7.552   0.322
12022TIP3    H236008   2.756   7.641   0.237
12023TIP3   OH236009   0.139   2.632   4.190
12023TIP3    H136010   0.140   2.570   4.117
12023TIP3    H236011   0.107   2.582   4.264
12024TIP3   OH236012   1.025   3.520   6.260
12024TIP3    H136013   0.953   3.578   6.283
12024TIP3    H236014   1.083   3.574   6.206
12025TIP3   OH236015   0.929   3.547   2.063
12025TIP3    H136016   0.846   3.590   2.045
12025TIP3    H236017   0.939   3.482   1.994
12026TIP3   OH236018   1.278   4.167   3.096
12026TIP3    H136019   1.218   4.133   3.030
12026TIP3    H236020   1.349   4.209   3.045
12027TIP3   OH236021   2.279   3.960   0.477
12027TIP3    H136022   2.346   3.933   0.539
12027TIP3    H236023   2.206   3.988   0.531
12028TIP3   OH236024   5.770   3.005   0.802
12028TIP3    H136025   5.833   2.971   0.739
12028TIP3    H236026   5.689   2.958   0.782
12029TIP3   OH236027   4.360   5.223   0.964
12029TIP3    H136028   4.354   5.162   1.037
12029TIP3    H236029   4.357   5.168   0.886
12030TIP3   OH236030   6.462   6.238   1.100
12030TIP3    H136031   6.388   6.235   1.040
12030TIP3    H236032   6.513   6.315   1.072
12031TIP3   OH236033   4.658   2.012   1.196
12031TIP3    H136034   4.574   1.998   1.153
12031TIP3    H236035   4.672   2.106   1.192
12032TIP3   OH236036   4.351   2.041   6.715
12032TIP3    H136037   4.422   2.090   6.673
12032TIP3    H236038   4.274   2.098   6.706
12033TIP3   OH236039   3.958   4.105   3.791
12033TIP3    H136040   4.018   4.030   3.795
12033TIP3    H236041   3.916   4.107   3.877
12034TIP3   OH236042   0.303   1.057   3.245
12034TIP3    H136043   0.282   0.997   3.316
12034TIP3    H236044   0.374   1.111   3.280
12035TIP3   OH236045   4.328   7.522   2.934
12035TIP3    H136046   4.356   7.570   2.857
12035TIP3    H236047   4.383   7.554   3.005
12036TIP3   OH236048   2.863   1.918   5.037
12036TIP3    H136049   2.936   1.889   5.092
12036TIP3    H236050   2.904   1.963   4.963
12037TIP3   OH236051   3.192   2.376   4.738
12037TIP3    H136052   3.244   2.369   4.658
12037TIP3    H236053   3.238   2.323   4.802
12038TIP3   OH236054   7.713   4.895   0.011
12038TIP3    H136055   7.781   4.890  -0.056
12038TIP3    H236056   7.761   4.901   0.094
12039TIP3   OH236057   5.031   5.480   2.446
12039TIP3    H136058   5.044   5.573   2.430
12039TIP3    H236059   5.065   5.466   2.534
12040TIP3   OH236060   6.236   2.142   1.225
12040TIP3    H136061   6.154   2.162   1.178
12040TIP3    H236062   6.256   2.223   1.272
12041TIP3   OH236063   7.700   5.739   0.204
12041TIP3    H136064   7.642   5.756   0.279
12041TIP3    H236065   7.673   5.653   0.172
12042TIP3   OH236066   7.510   0.751   6.525
12042TIP3    H136067   7.442   0.691   6.554
12042TIP3    H236068   7.592   0.711   6.554
12043TIP3   OH236069   7.572   0.612   0.816
12043TIP3    H136070   7.481   0.609   0.844
12043TIP3    H236071   7.619   0.561   0.883
12044TIP3   OH236072   3.189   6.584   0.719
12044TIP3    H136073   3.192   6.636   0.639
12044TIP3    H236074   3.222   6.642   0.787
12045TIP3   OH236075   4.730   5.996   5.310
12045TIP3    H136076   4.684   5.944   5.245
12045TIP3    H236077   4.661   6.043   5.357
12046TIP3   OH236078   6.966   3.223   1.668
12046TIP3    H136079   7.056   3.244   1.644
12046TIP3    H236080   6.971   3.196   1.759
12047TIP3   OH236081   1.418   0.349   0.265
12047TIP3    H136082   1.422   0.401   0.184
12047TIP3    H236083   1.508   0.346   0.295
12048TIP3   OH236084   5.008   0.476   6.517
12048TIP3    H136085   4.968   0.562   6.502
12048TIP3    H236086   4.934   0.417   6.527
12049TIP3   OH236087   0.437   1.303   2.609
12049TIP3    H136088   0.359   1.353   2.583
12049TIP3    H236089   0.448   1.322   2.702
12050TIP3   OH236090   5.165   1.109   3.760
12050TIP3    H136091   5.201   1.197   3.769
12050TIP3    H236092   5.218   1.068   3.692
12051TIP3   OH236093   4.361   1.106   5.187
12051TIP3    H136094   4.293   1.124   5.122
12051TIP3    H236095   4.314   1.066   5.260
12052TIP3   OH236096   7.337   2.898   1.252
12052TIP3    H136097   7.419   2.908   1.204
12052TIP3    H236098   7.353   2.825   1.311
12053TIP3   OH236099   2.542   0.418   4.820
12053TIP3    H136100   2.562   0.326   4.837
12053TIP3    H236101   2.523   0.456   4.906
12054TIP3   OH236102   3.157   5.298   3.356
12054TIP3    H136103   3.233   5.272   3.305
12054TIP3    H236104   3.176   5.270   3.445
12055TIP3   OH236105   6.653   7.169   0.769
12055TIP3    H136106   6.577   7.121   0.737
12055TIP3    H236107   6.636   7.181   0.863
12056TIP3   OH236108   7.016   6.561   5.605
12056TIP3    H136109   6.973   6.476   5.607
12056TIP3    H236110   6.976   6.611   5.676
12057TIP3   OH236111   1.252   3.904   0.471
12057TIP3    H136112   1.297   3.848   0.407
12057TIP3    H236113   1.309   3.902   0.548
12058TIP3   OH236114   7.063   3.713   4.966
12058TIP3    H136115   7.145   3.731   5.011
12058TIP3    H236116   7.010   3.666   5.030
12059TIP3   OH236117   0.706   6.255   6.265
12059TIP3    H136118   0.661   6.239   6.182
12059TIP3    H236119   0.741   6.343   6.257
12060TIP3   OH236120   3.491   3.583   5.389
12060TIP3    H136121   3.518   3.500   5.350
12060TIP3    H236122   3.547   3.593   5.466
12061TIP3   OH236123   7.058   2.169   0.807
12061TIP3    H136124   7.131   2.114   0.834
12061TIP3    H236125   7.091   2.218   0.731
12062TIP3   OH236126   2.039   4.856   1.468
12062TIP3    H136127   1.962   4.800   1.476
12062TIP3    H236128   2.106   4.813   1.521
12063TIP3   OH236129   7.241   0.091   5.314
12063TIP3    H136130   7.283   0.163   5.361
12063TIP3    H236131   7.305   0.020   5.317
12064TIP3   OH236132   6.231   2.482   4.930
12064TIP3    H136133   6.183   2.400   4.916
12064TIP3    H236134   6.323   2.455   4.940
12065TIP3   OH236135   0.429   0.709   1.956
12065TIP3    H136136   0.428   0.620   1.922
12065TIP3    H236137   0.356   0.752   1.911
12066TIP3   OH236138   6.139   0.174   1.780
12066TIP3    H136139   6.107   0.259   1.811
12066TIP3    H236140   6.084   0.110   1.824
12067TIP3   OH236141   2.211   4.704   2.266
12067TIP3    H136142   2.293   4.688   2.221
12067TIP3    H236143   2.188   4.619   2.306
12068TIP3   OH236144   7.965   4.098   6.751
12068TIP3    H136145   8.049   4.144   6.749
12068TIP3    H236146   7.928   4.112   6.664
12069TIP3   OH236147   8.241   7.642   4.352
12069TIP3    H136148   8.287   7.600   4.425
12069TIP3    H236149   8.174   7.579   4.327
12070TIP3   OH236150   3.364   1.432   2.046
12070TIP3    H136151   3.402   1.356   2.002
12070TIP3    H236152   3.424   1.503   2.028
12071TIP3   OH236153   2.743   0.807   1.430
12071TIP3    H136154   2.836   0.786   1.445
12071TIP3    H236155   2.744   0.863   1.353
12072TIP3   OH236156   6.416   1.818   0.594
12072TIP3    H136157   6.355   1.771   0.651
12072TIP3    H236158   6.503   1.789   0.622
12073TIP3   OH236159   4.866   1.699   5.410
12073TIP3    H136160   4.874   1.637   5.483
12073TIP3    H236161   4.952   1.695   5.367
12074TIP3   OH236162   0.654   4.284   2.005
12074TIP3    H136163   0.616   4.351   1.947
12074TIP3    H236164   0.658   4.326   2.090
12075TIP3   OH236165   2.487   5.781   4.589
12075TIP3    H136166   2.580   5.775   4.612
12075TIP3    H236167   2.484   5.770   4.494
12076TIP3   OH236168   1.735   6.506   6.347
12076TIP3    H136169   1.743   6.421   6.306
12076TIP3    H236170   1.679   6.491   6.423
12077TIP3   OH236171   7.872   0.183   3.565
12077TIP3    H136172   7.964   0.163   3.551
12077TIP3    H236173   7.855   0.160   3.657
12078TIP3   OH236174   0.123   5.449   1.491
12078TIP3    H136175   0.211   5.449   1.452
12078TIP3    H236176   0.083   5.530   1.459
12079TIP3   OH236177   3.074   7.669   0.026
12079TIP3    H136178   3.010   7.644  -0.041
12079TIP3    H236179   3.022   7.708   0.095
12080TIP3   OH236180   1.765   2.345   3.570
12080TIP3    H136181   1.860   2.349   3.577
12080TIP3    H236182   1.744   2.253   3.586
12081TIP3   OH236183   6.844   1.273   4.309
12081TIP3    H136184   6.900   1.282   4.232
12081TIP3    H236185   6.801   1.188   4.298
12082TIP3   OH236186   7.770   2.189   0.793
12082TIP3    H136187   7.802   2.183   0.702
12082TIP3    H236188   7.679   2.162   0.788
12083TIP3   OH236189   1.056   0.249   3.864
12083TIP3    H136190   1.070   0.176   3.803
12083TIP3    H236191   1.144   0.282   3.883
12084TIP3   OH236192   6.099   6.067   3.011
12084TIP3    H136193   6.157   6.133   3.048
12084TIP3    H236194   6.106   6.080   2.916
12085TIP3   OH236195   0.567   3.131   1.866
12085TIP3    H136196   0.512   3.185   1.810
12085TIP3    H236197   0.509   3.063   1.900
12086TIP3   OH236198   4.526   0.922   6.246
12086TIP3    H136199   4.595   0.857   6.240
12086TIP3    H236200   4.517   0.957   6.157
12087TIP3   OH236201   5.425   2.782   0.380
12087TIP3    H136202   5.342   2.748   0.414
12087TIP3    H236203   5.401   2.863   0.335
12088TIP3   OH236204   0.338   0.435   5.550
12088TIP3    H136205   0.400   0.399   5.487
12088TIP3    H236206   0.383   0.429   5.635
12089TIP3   OH236207   2.274   5.771   5.450
12089TIP3    H136208   2.343   5.831   5.423
12089TIP3    H236209   2.276   5.775   5.546
12090TIP3   OH236210   8.016   5.040   0.450
12090TIP3    H136211   8.017   4.953   0.489
12090TIP3    H236212   8.109   5.063   0.440
12091TIP3   OH236213   4.295   0.577   1.858
12091TIP3    H136214   4.310   0.602   1.767
12091TIP3    H236215   4.310   0.482   1.860
12092TIP3   OH236216   6.384   4.934   6.363
12092TIP3    H136217   6.337   4.909   6.283
12092TIP3    H236218   6.351   5.021   6.384
12093TIP3   OH236219   1.346   4.815   3.855
12093TIP3    H136220   1.363   4.799   3.948
12093TIP3    H236221   1.433   4.821   3.816
12094TIP3   OH236222   7.221   1.507   5.804
12094TIP3    H136223   7.171   1.562   5.743
12094TIP3    H236224   7.155   1.460   5.854
12095TIP3   OH236225   3.448   2.769   3.824
12095TIP3    H136226   3.528   2.792   3.777
12095TIP3    H236227   3.398   2.851   3.827
12096TIP3   OH236228   4.961   6.689   3.576
12096TIP3    H136229   4.907   6.661   3.649
12096TIP3    H236230   5.028   6.621   3.567
12097TIP3   OH236231   5.674   6.553   0.856
12097TIP3    H136232   5.725   6.494   0.912
12097TIP3    H236233   5.731   6.628   0.842
12098TIP3   OH236234   4.416   7.295   1.218
12098TIP3    H136235   4.380   7.281   1.305
12098TIP3    H236236   4.379   7.225   1.165
12099TIP3   OH236237   5.928   1.815   1.340
12099TIP3    H136238   5.976   1.790   1.262
12099TIP3    H236239   5.991   1.862   1.394
12100TIP3   OH236240   7.860   5.887   6.421
12100TIP3    H136241   7.807   5.966   6.416
12100TIP3    H236242   7.826   5.831   6.351
12101TIP3   OH236243   2.045   3.553   5.535
12101TIP3    H136244   2.128   3.522   5.500
12101TIP3    H236245   1.979   3.495   5.497
12102TIP3   OH236246   2.849   3.207   5.539
12102TIP3    H136247   2.765   3.189   5.581
12102TIP3    H236248   2.832   3.284   5.484
12103TIP3   OH236249   1.647   7.524   5.576
12103TIP3    H136250   1.613   7.600   5.527
12103TIP3    H236251   1.728   7.555   5.616
12104TIP3   OH236252   6.287   2.271   5.679
12104TIP3    H136253   6.279   2.291   5.585
12104TIP3    H236254   6.314   2.354   5.719
12105TIP3   OH236255   1.379   3.002   6.814
12105TIP3    H136256   1.450   3.050   6.856
12105TIP3    H236257   1.306   3.008   6.875
12106TIP3   OH236258   3.619   2.705   5.190
12106TIP3    H136259   3.677   2.689   5.265
12106TIP3    H236260   3.677   2.698   5.114
12107TIP3   OH236261   5.979   3.699   4.818
12107TIP3    H136262   5.920   3.624   4.816
12107TIP3    H236263   5.924   3.774   4.795
12108TIP3   OH236264   8.138   4.735   4.314
12108TIP3    H136265   8.191   4.711   4.238
12108TIP3    H236266   8.057   4.685   4.304
12109TIP3   OH236267   7.615   3.761   2.472
12109TIP3    H136268   7.637   3.836   2.417
12109TIP3    H236269   7.546   3.715   2.425
12110TIP3   OH236270   3.291   5.628   5.682
12110TIP3    H136271   3.295   5.701   5.744
12110TIP3    H236272   3.365   5.642   5.623
12111TIP3   OH236273   3.336   5.179   5.823
12111TIP3    H136274   3.281   5.256   5.811
12111TIP3    H236275   3.274   5.107   5.834
12112TIP3   OH236276   3.706   3.392   1.146
12112TIP3    H136277   3.742   3.317   1.193
12112TIP3    H236278   3.682   3.455   1.214
12113TIP3   OH236279   4.097   2.143   4.715
12113TIP3    H136280   4.105   2.218   4.774
12113TIP3    H236281   4.004   2.123   4.714
12114TIP3   OH236282   7.722   1.931   2.622
12114TIP3    H136283   7.650   1.994   2.611
12114TIP3    H236284   7.782   1.951   2.550
12115TIP3   OH236285   0.888   3.918   0.653
12115TIP3    H136286   0.901   3.964   0.736
12115TIP3    H236287   0.940   3.839   0.661
12116TIP3   OH236288   0.955   4.797   5.978
12116TIP3    H136289   0.972   4.719   5.926
12116TIP3    H236290   0.996   4.868   5.929
12117TIP3   OH236291   7.661   4.247   3.588
12117TIP3    H136292   7.672   4.158   3.623
12117TIP3    H236293   7.570   4.250   3.557
12118TIP3   OH236294   4.059   6.061   3.370
12118TIP3    H136295   4.042   6.146   3.410
12118TIP3    H236296   3.975   6.015   3.375
12119TIP3   OH236297   4.551   7.277   0.221
12119TIP3    H136298   4.566   7.368   0.247
12119TIP3    H236299   4.503   7.238   0.294
12120TIP3   OH236300   3.743   7.488   0.457
12120TIP3    H136301   3.798   7.461   0.530
12120TIP3    H236302   3.782   7.570   0.427
12121TIP3   OH236303   6.590   6.320   3.913
12121TIP3    H136304   6.661   6.281   3.965
12121TIP3    H236305   6.542   6.375   3.974
12122TIP3   OH236306   8.185   0.642   0.500
12122TIP3    H136307   8.271   0.629   0.461
12122TIP3    H236308   8.124   0.627   0.427
12123TIP3   OH236309   7.884   4.801   0.298
12123TIP3    H136310   7.862   4.893   0.285
12123TIP3    H236311   7.891   4.792   0.393
12124TIP3   OH236312   1.229   1.575   4.944
12124TIP3    H136313   1.134   1.563   4.955
12124TIP3    H236314   1.240   1.669   4.933
12125TIP3   OH236315   0.814   4.492   3.387
12125TIP3    H136316   0.789   4.433   3.458
12125TIP3    H236317   0.824   4.435   3.310
12126TIP3   OH236318   1.942   4.301   2.937
12126TIP3    H136319   1.857   4.290   2.980
12126TIP3    H236320   2.006   4.287   3.006
12127TIP3   OH236321   3.943   7.280   5.838
12127TIP3    H136322   4.035   7.255   5.842
12127TIP3    H236323   3.940   7.366   5.881
12128TIP3   OH236324   7.741   4.587   6.434
12128TIP3    H136325   7.795   4.645   6.488
12128TIP3    H236326   7.656   4.585   6.478
12129TIP3   OH236327   0.370   0.829   2.721
12129TIP3    H136328   0.463   0.811   2.732
12129TIP3    H236329   0.341   0.860   2.807
12130TIP3   OH236330   3.558   4.997   0.165
12130TIP3    H136331   3.554   5.082   0.121
12130TIP3    H236332   3.475   4.954   0.141
12131TIP3   OH236333   7.163   0.894   5.782
12131TIP3    H136334   7.143   0.834   5.854
12131TIP3    H236335   7.146   0.981   5.818
12132TIP3   OH236336   2.516   5.173   2.280
12132TIP3    H136337   2.463   5.115   2.334
12132TIP3    H236338   2.581   5.116   2.240
12133TIP3   OH236339   3.604   2.604   5.669
12133TIP3    H136340   3.614   2.514   5.700
12133TIP3    H236341   3.693   2.631   5.644
12134TIP3   OH236342   0.791   1.759   5.707
12134TIP3    H136343   0.805   1.849   5.736
12134TIP3    H236344   0.872   1.737   5.659
12135TIP3   OH236345   5.796   1.489   2.400
12135TIP3    H136346   5.720   1.468   2.454
12135TIP3    H236347   5.869   1.440   2.439
12136TIP3   OH236348   7.882   0.459   4.730
12136TIP3    H136349   7.870   0.534   4.788
12136TIP3    H236350   7.961   0.480   4.680
12137TIP3   OH236351   1.933   6.075   1.761
12137TIP3    H136352   1.973   6.150   1.803
12137TIP3    H236353   1.995   6.050   1.692
12138TIP3   OH236354   7.816   5.429   3.001
12138TIP3    H136355   7.813   5.425   3.096
12138TIP3    H236356   7.867   5.353   2.975
12139TIP3   OH236357   3.468   7.539   1.552
12139TIP3    H136358   3.391   7.516   1.604
12139TIP3    H236359   3.500   7.620   1.591
12140TIP3   OH236360   3.855   7.194   6.507
12140TIP3    H136361   3.915   7.218   6.437
12140TIP3    H236362   3.802   7.273   6.521
12141TIP3   OH236363   7.324   6.084   0.873
12141TIP3    H136364   7.286   5.996   0.877
12141TIP3    H236365   7.249   6.143   0.865
12142TIP3   OH236366   1.986   5.043   5.563
12142TIP3    H136367   1.928   5.079   5.496
12142TIP3    H236368   2.056   5.107   5.572
12143TIP3   OH236369   7.975   6.359   4.467
12143TIP3    H136370   8.057   6.409   4.467
12143TIP3    H236371   7.937   6.376   4.381
12144TIP3   OH236372   3.648  -0.024   1.494
12144TIP3    H136373   3.702   0.036   1.544
12144TIP3    H236374   3.600   0.031   1.432
12145TIP3   OH236375   4.215   2.072   1.583
12145TIP3    H136376   4.243   2.133   1.651
12145TIP3    H236377   4.293   2.058   1.529
12146TIP3   OH236378   8.090   7.409   4.471
12146TIP3    H136379   8.101   7.397   4.565
12146TIP3    H236380   7.996   7.401   4.457
12147TIP3   OH236381   4.114   5.099   4.043
12147TIP3    H136382   4.187   5.070   3.989
12147TIP3    H236383   4.068   5.018   4.066
12148TIP3   OH236384   6.282   6.446   1.537
12148TIP3    H136385   6.354   6.391   1.567
12148TIP3    H236386   6.311   6.536   1.552
12149TIP3   OH236387   5.850   4.166   3.342
12149TIP3    H136388   5.878   4.127   3.425
12149TIP3    H236389   5.931   4.200   3.304
12150TIP3   OH236390   1.503   5.433   0.138
12150TIP3    H136391   1.528   5.453   0.048
12150TIP3    H236392   1.407   5.432   0.136
12151TIP3   OH236393   5.298   6.167   0.858
12151TIP3    H136394   5.244   6.223   0.914
12151TIP3    H236395   5.360   6.228   0.817
12152TIP3   OH236396   1.627   5.493   6.594
12152TIP3    H136397   1.675   5.463   6.671
12152TIP3    H236398   1.636   5.589   6.596
12153TIP3   OH236399   5.383   0.741   2.293
12153TIP3    H136400   5.293   0.711   2.304
12153TIP3    H236401   5.437   0.668   2.324
12154TIP3   OH236402   8.169   7.161   1.319
12154TIP3    H136403   8.193   7.249   1.348
12154TIP3    H236404   8.099   7.133   1.378
12155TIP3   OH236405   6.554   6.416   4.442
12155TIP3    H136406   6.482   6.432   4.504
12155TIP3    H236407   6.540   6.326   4.413
12156TIP3   OH236408   7.348   0.040   4.410
12156TIP3    H136409   7.326   0.029   4.317
12156TIP3    H236410   7.409   0.115   4.411
12157TIP3   OH236411   0.795   0.460   5.171
12157TIP3    H136412   0.861   0.406   5.127
12157TIP3    H236413   0.740   0.493   5.099
12158TIP3   OH236414   0.755   2.848   3.851
12158TIP3    H136415   0.821   2.780   3.849
12158TIP3    H236416   0.675   2.804   3.878
12159TIP3   OH236417   6.357   0.281   6.393
12159TIP3    H136418   6.306   0.275   6.473
12159TIP3    H236419   6.448   0.283   6.422
12160TIP3   OH236420   3.606   6.119   4.265
12160TIP3    H136421   3.561   6.035   4.252
12160TIP3    H236422   3.697   6.096   4.279
12161TIP3   OH236423   0.863   2.560   6.633
12161TIP3    H136424   0.890   2.604   6.713
12161TIP3    H236425   0.879   2.467   6.649
12162TIP3   OH236426  -0.017   1.379   5.346
12162TIP3    H136427   0.062   1.390   5.399
12162TIP3    H236428   0.011   1.322   5.274
12163TIP3   OH236429   5.570   0.175   2.852
12163TIP3    H136430   5.491   0.130   2.878
12163TIP3    H236431   5.628   0.106   2.820
12164TIP3   OH236432   2.414   7.861   6.148
12164TIP3    H136433   2.430   7.768   6.133
12164TIP3    H236434   2.443   7.903   6.067
12165TIP3   OH236435   2.047   3.793   0.294
12165TIP3    H136436   1.993   3.714   0.299
12165TIP3    H236437   2.067   3.802   0.201
12166TIP3   OH236438   2.846   6.255   1.733
12166TIP3    H136439   2.837   6.310   1.655
12166TIP3    H236440   2.757   6.244   1.765
12167TIP3   OH236441   1.642   2.498   1.927
12167TIP3    H136442   1.581   2.464   1.993
12167TIP3    H236443   1.680   2.420   1.887
12168TIP3   OH236444   0.335   1.718   3.258
12168TIP3    H136445   0.370   1.792   3.309
12168TIP3    H236446   0.264   1.684   3.313
12169TIP3   OH236447   5.068   7.694   6.772
12169TIP3    H136448   5.143   7.686   6.831
12169TIP3    H236449   5.022   7.610   6.778
12170TIP3   OH236450   2.798   0.494   3.637
12170TIP3    H136451   2.876   0.530   3.595
12170TIP3    H236452   2.813   0.399   3.638
12171TIP3   OH236453   0.840   5.647   6.723
12171TIP3    H136454   0.847   5.740   6.701
12171TIP3    H236455   0.782   5.645   6.799
12172TIP3   OH236456   5.989   6.625   0.165
12172TIP3    H136457   6.046   6.599   0.093
12172TIP3    H236458   5.922   6.680   0.125
12173TIP3   OH236459   2.282   0.187   5.301
12173TIP3    H136460   2.340   0.248   5.347
12173TIP3    H236461   2.296   0.103   5.345
12174TIP3   OH236462   5.915   3.838   2.520
12174TIP3    H136463   5.997   3.803   2.486
12174TIP3    H236464   5.900   3.918   2.471
12175TIP3   OH236465   4.210   0.302   2.504
12175TIP3    H136466   4.171   0.231   2.556
12175TIP3    H236467   4.273   0.258   2.447
12176TIP3   OH236468   2.338   5.625   4.109
12176TIP3    H136469   2.330   5.716   4.140
12176TIP3    H236470   2.425   5.597   4.139
12177TIP3   OH236471   4.494   3.664   1.679
12177TIP3    H136472   4.538   3.606   1.617
12177TIP3    H236473   4.534   3.643   1.764
12178TIP3   OH236474   5.861   2.725   2.547
12178TIP3    H136475   5.851   2.796   2.484
12178TIP3    H236476   5.911   2.764   2.618
12179TIP3   OH236477   2.148   2.782   1.845
12179TIP3    H136478   2.238   2.782   1.877
12179TIP3    H236479   2.114   2.869   1.868
12180TIP3   OH236480   1.897   6.722   1.737
12180TIP3    H136481   1.877   6.816   1.733
12180TIP3    H236482   1.838   6.683   1.672
12181TIP3   OH236483   0.854   5.581   4.585
12181TIP3    H136484   0.774   5.602   4.633
12181TIP3    H236485   0.828   5.513   4.522
12182TIP3   OH236486   2.981   6.907   0.713
12182TIP3    H136487   3.077   6.908   0.708
12182TIP3    H236488   2.953   6.896   0.622
12183TIP3   OH236489   3.913   1.830   3.161
12183TIP3    H136490   3.854   1.767   3.121
12183TIP3    H236491   3.882   1.915   3.130
12184TIP3   OH236492   5.931   5.309   3.053
12184TIP3    H136493   6.022   5.337   3.052
12184TIP3    H236494   5.895   5.346   3.133
12185TIP3   OH236495   5.016   0.115   6.006
12185TIP3    H136496   5.087   0.112   5.941
12185TIP3    H236497   5.004   0.208   6.025
12186TIP3   OH236498   7.742   0.118   2.851
12186TIP3    H136499   7.747   0.210   2.877
12186TIP3    H236500   7.699   0.074   2.925
12187TIP3   OH236501   7.335   7.130   2.190
12187TIP3    H136502   7.339   7.130   2.094
12187TIP3    H236503   7.260   7.075   2.211
12188TIP3   OH236504   1.747   0.246   2.492
12188TIP3    H136505   1.722   0.299   2.416
12188TIP3    H236506   1.784   0.309   2.554
12189TIP3   OH236507   3.605   3.223   5.661
12189TIP3    H136508   3.576   3.182   5.743
12189TIP3    H236509   3.601   3.153   5.597
12190TIP3   OH236510   6.528   7.312   2.887
12190TIP3    H136511   6.498   7.389   2.838
12190TIP3    H236512   6.588   7.348   2.952
12191TIP3   OH236513   4.677   1.303   1.462
12191TIP3    H136514   4.647   1.366   1.397
12191TIP3    H236515   4.728   1.354   1.524
12192TIP3   OH236516   2.863   4.100   5.530
12192TIP3    H136517   2.855   4.191   5.501
12192TIP3    H236518   2.928   4.103   5.600
12193TIP3   OH236519   6.476   3.438   5.270
12193TIP3    H136520   6.397   3.394   5.301
12193TIP3    H236521   6.467   3.439   5.175
12194TIP3   OH236522   4.462   5.196   2.199
12194TIP3    H136523   4.423   5.197   2.287
12194TIP3    H236524   4.500   5.109   2.191
12195TIP3   OH236525   5.105   1.419   4.125
12195TIP3    H136526   5.104   1.408   4.220
12195TIP3    H236527   5.092   1.331   4.090
12196TIP3   OH236528   1.525   3.487   6.548
12196TIP3    H136529   1.571   3.506   6.466
12196TIP3    H236530   1.506   3.394   6.544
12197TIP3   OH236531   5.718   5.045   4.774
12197TIP3    H136532   5.703   5.139   4.781
12197TIP3    H236533   5.813   5.036   4.765
12198TIP3   OH236534   2.989   5.436   3.986
12198TIP3    H136535   3.080   5.428   4.016
12198TIP3    H236536   2.995   5.445   3.891
12199TIP3   OH236537   0.248   7.085   4.467
12199TIP3    H136538   0.335   7.126   4.474
12199TIP3    H236539   0.263   7.007   4.415
12200TIP3   OH236540   8.160   2.640   4.461
12200TIP3    H136541   8.104   2.611   4.533
12200TIP3    H236542   8.186   2.729   4.485
12201TIP3   OH236543   7.675   6.694   4.895
12201TIP3    H136544   7.611   6.628   4.869
12201TIP3    H236545   7.626   6.776   4.896
12202TIP3   OH236546   4.266   5.536   5.212
12202TIP3    H136547   4.224   5.619   5.233
12202TIP3    H236548   4.335   5.559   5.149
12203TIP3   OH236549   0.391   5.192   5.059
12203TIP3    H136550   0.449   5.127   5.017
12203TIP3    H236551   0.307   5.181   5.015
12204TIP3   OH236552   4.227   4.981   2.887
12204TIP3    H136553   4.300   4.973   2.825
12204TIP3    H236554   4.149   4.970   2.834
12205TIP3   OH236555   4.760   4.060   4.115
12205TIP3    H136556   4.712   4.142   4.104
12205TIP3    H236557   4.692   3.993   4.119
12206TIP3   OH236558   3.328   5.688   3.852
12206TIP3    H136559   3.407   5.636   3.839
12206TIP3    H236560   3.351   5.776   3.823
12207TIP3   OH236561   6.564   0.119   5.557
12207TIP3    H136562   6.631   0.059   5.589
12207TIP3    H236563   6.491   0.062   5.532
12208TIP3   OH236564   6.949   5.218   3.269
12208TIP3    H136565   6.868   5.268   3.265
12208TIP3    H236566   6.995   5.242   3.188
12209TIP3   OH236567   4.223   2.927   5.032
12209TIP3    H136568   4.305   2.959   5.070
12209TIP3    H236569   4.209   2.982   4.954
12210TIP3   OH236570   3.917   4.034   3.491
12210TIP3    H136571   3.940   3.943   3.509
12210TIP3    H236572   3.896   4.071   3.577
12211TIP3   OH236573   2.362   2.569   1.571
12211TIP3    H136574   2.342   2.484   1.612
12211TIP3    H236575   2.456   2.582   1.587
12212TIP3   OH236576   2.639   2.270   1.570
12212TIP3    H136577   2.695   2.316   1.632
12212TIP3    H236578   2.567   2.237   1.623
12213TIP3   OH236579   0.959   6.050   5.432
12213TIP3    H136580   1.033   6.110   5.446
12213TIP3    H236581   0.930   6.026   5.520
12214TIP3   OH236582   0.822   5.850   0.041
12214TIP3    H136583   0.855   5.892  -0.038
12214TIP3    H236584   0.751   5.907   0.070
12215TIP3   OH236585   2.084   4.049   5.161
12215TIP3    H136586   2.044   4.130   5.128
12215TIP3    H236587   2.013   3.984   5.157
12216TIP3   OH236588   7.113   7.374   2.345
12216TIP3    H136589   7.162   7.416   2.416
12216TIP3    H236590   7.135   7.281   2.352
12217TIP3   OH236591   2.488   3.136   6.731
12217TIP3    H136592   2.414   3.131   6.671
12217TIP3    H236593   2.564   3.148   6.674
12218TIP3   OH236594   7.341   1.020   0.262
12218TIP3    H136595   7.357   0.935   0.304
12218TIP3    H236596   7.366   1.007   0.171
12219TIP3   OH236597   7.172   7.049   5.220
12219TIP3    H136598   7.229   6.972   5.214
12219TIP3    H236599   7.095   7.025   5.169
12220TIP3   OH236600   0.003   5.016   4.864
12220TIP3    H136601   0.042   4.938   4.826
12220TIP3    H236602  -0.038   5.062   4.791
12221TIP3   OH236603   7.164   7.820   4.207
12221TIP3    H136604   7.177   7.835   4.301
12221TIP3    H236605   7.166   7.908   4.169
12222TIP3   OH236606   2.375   4.077   2.386
12222TIP3    H136607   2.333   4.057   2.470
12222TIP3    H236608   2.304   4.100   2.328
12223TIP3   OH236609   2.150   2.314   2.211
12223TIP3    H136610   2.172   2.316   2.304
12223TIP3    H236611   2.055   2.320   2.209
12224TIP3   OH236612   6.965   6.674   1.600
12224TIP3    H136613   7.045   6.633   1.568
12224TIP3    H236614   6.979   6.768   1.586
12225TIP3   OH236615   2.527   2.608   3.678
12225TIP3    H136616   2.460   2.677   3.674
12225TIP3    H236617   2.542   2.583   3.587
12226TIP3   OH236618   0.367   7.526   1.884
12226TIP3    H136619   0.368   7.598   1.821
12226TIP3    H236620   0.329   7.565   1.963
12227TIP3   OH236621   5.422   3.742   1.019
12227TIP3    H136622   5.462   3.675   1.075
12227TIP3    H236623   5.430   3.823   1.069
12228TIP3   OH236624   6.537   5.259   5.788
12228TIP3    H136625   6.610   5.317   5.807
12228TIP3    H236626   6.494   5.245   5.873
12229TIP3   OH236627   8.247   1.640   3.572
12229TIP3    H136628   8.327   1.628   3.520
12229TIP3    H236629   8.271   1.608   3.659
12230TIP3   OH236630   3.395   5.753   6.765
12230TIP3    H136631   3.451   5.828   6.745
12230TIP3    H236632   3.449   5.677   6.742
12231TIP3   OH236633   1.625   1.149   3.561
12231TIP3    H136634   1.558   1.142   3.493
12231TIP3    H236635   1.591   1.216   3.621
12232TIP3   OH236636   6.738   4.515   1.586
12232TIP3    H136637   6.822   4.469   1.584
12232TIP3    H236638   6.760   4.607   1.571
12233TIP3   OH236639   5.919   3.114   3.667
12233TIP3    H136640   5.980   3.185   3.648
12233TIP3    H236641   5.866   3.106   3.588
12234TIP3   OH236642   3.681   6.854   2.469
12234TIP3    H136643   3.748   6.812   2.415
12234TIP3    H236644   3.609   6.872   2.408
12235TIP3   OH236645   6.240   6.872   4.762
12235TIP3    H136646   6.251   6.781   4.733
12235TIP3    H236647   6.171   6.907   4.705
12236TIP3   OH236648   0.731   0.772   4.728
12236TIP3    H136649   0.731   0.860   4.766
12236TIP3    H236650   0.754   0.786   4.636
12237TIP3   OH236651   5.794   0.089   5.774
12237TIP3    H136652   5.840   0.025   5.719
12237TIP3    H236653   5.861   0.123   5.832
12238TIP3   OH236654   7.417   0.843   5.782
12238TIP3    H136655   7.438   0.754   5.809
12238TIP3    H236656   7.322   0.848   5.783
12239TIP3   OH236657   5.879   1.125   2.339
12239TIP3    H136658   5.859   1.076   2.260
12239TIP3    H236659   5.886   1.058   2.408
12240TIP3   OH236660   2.802   2.327   6.313
12240TIP3    H136661   2.779   2.412   6.351
12240TIP3    H236662   2.850   2.349   6.234
12241TIP3   OH236663   3.226   6.580   1.670
12241TIP3    H136664   3.234   6.522   1.593
12241TIP3    H236665   3.279   6.656   1.648
12242TIP3   OH236666   1.470   2.629   0.835
12242TIP3    H136667   1.529   2.584   0.775
12242TIP3    H236668   1.484   2.586   0.919
12243TIP3   OH236669   3.835   2.956   5.704
12243TIP3    H136670   3.747   2.925   5.684
12243TIP3    H236671   3.854   2.921   5.791
12244TIP3   OH236672   7.866   0.202   1.287
12244TIP3    H136673   7.824   0.185   1.202
12244TIP3    H236674   7.820   0.145   1.348
12245TIP3   OH236675   8.339   2.074   5.878
12245TIP3    H136676   8.381   2.081   5.964
12245TIP3    H236677   8.262   2.019   5.893
12246TIP3   OH236678   4.548   6.247   4.461
12246TIP3    H136679   4.532   6.330   4.415
12246TIP3    H236680   4.641   6.229   4.445
12247TIP3   OH236681   3.022   2.591   4.428
12247TIP3    H136682   3.033   2.650   4.502
12247TIP3    H236683   2.950   2.628   4.377
12248TIP3   OH236684   2.388   0.142   2.493
12248TIP3    H136685   2.387   0.236   2.478
12248TIP3    H236686   2.299   0.121   2.522
12249TIP3   OH236687   6.015   0.714   2.864
12249TIP3    H136688   6.045   0.639   2.813
12249TIP3    H236689   6.090   0.772   2.869
12250TIP3   OH236690   4.129   3.609   4.269
12250TIP3    H136691   4.136   3.517   4.244
12250TIP3    H236692   4.131   3.656   4.185
12251TIP3   OH236693   4.354   1.499   5.807
12251TIP3    H136694   4.303   1.489   5.726
12251TIP3    H236695   4.298   1.552   5.864
12252TIP3   OH236696   8.123   1.955   6.430
12252TIP3    H136697   8.099   1.876   6.382
12252TIP3    H236698   8.214   1.941   6.456
12253TIP3   OH236699   2.217   5.565   1.675
12253TIP3    H136700   2.302   5.568   1.718
12253TIP3    H236701   2.231   5.516   1.595
12254TIP3   OH236702   5.508   7.263   3.747
12254TIP3    H136703   5.420   7.285   3.777
12254TIP3    H236704   5.566   7.313   3.804
12255TIP3   OH236705   3.589   3.561   6.820
12255TIP3    H136706   3.565   3.525   6.735
12255TIP3    H236707   3.637   3.641   6.800
12256TIP3   OH236708   1.979   7.165   2.898
12256TIP3    H136709   2.005   7.253   2.925
12256TIP3    H236710   1.948   7.124   2.978
12257TIP3   OH236711   6.479   2.268   4.593
12257TIP3    H136712   6.429   2.255   4.513
12257TIP3    H236713   6.549   2.203   4.589
12258TIP3   OH236714   6.051   5.913   5.094
12258TIP3    H136715   6.064   5.898   5.000
12258TIP3    H236716   6.122   5.864   5.136
12259TIP3   OH236717   4.793   3.180   1.366
12259TIP3    H136718   4.874   3.221   1.397
12259TIP3    H236719   4.731   3.194   1.438
12260TIP3   OH236720   2.105   7.783   2.318
12260TIP3    H136721   2.070   7.733   2.243
12260TIP3    H236722   2.074   7.872   2.303
12261TIP3   OH236723   3.932   5.411   3.123
12261TIP3    H136724   4.002   5.351   3.098
12261TIP3    H236725   3.853   5.373   3.084
12262TIP3   OH236726   7.184   5.556   0.054
12262TIP3    H136727   7.116   5.494   0.030
12262TIP3    H236728   7.219   5.523   0.136
12263TIP3   OH236729   5.573   4.907   2.292
12263TIP3    H136730   5.612   4.934   2.209
12263TIP3    H236731   5.617   4.960   2.358
12264TIP3   OH236732   2.246   1.470   5.409
12264TIP3    H136733   2.296   1.487   5.329
12264TIP3    H236734   2.156   1.492   5.385
12265TIP3   OH236735   3.235   6.614   2.785
12265TIP3    H136736   3.274   6.698   2.761
12265TIP3    H236737   3.269   6.552   2.721
12266TIP3   OH236738   3.918   6.883   0.659
12266TIP3    H136739   3.999   6.879   0.607
12266TIP3    H236740   3.848   6.862   0.597
12267TIP3   OH236741   4.290   6.105   5.884
12267TIP3    H136742   4.317   6.180   5.937
12267TIP3    H236743   4.354   6.101   5.814
12268TIP3   OH236744   2.821   2.164   1.382
12268TIP3    H136745   2.750   2.198   1.436
12268TIP3    H236746   2.834   2.231   1.315
12269TIP3   OH236747   6.427   6.434   5.728
12269TIP3    H136748   6.365   6.367   5.758
12269TIP3    H236749   6.499   6.384   5.689
12270TIP3   OH236750   5.776   5.858   1.370
12270TIP3    H136751   5.786   5.884   1.279
12270TIP3    H236752   5.863   5.867   1.408
12271TIP3   OH236753   4.237   7.285   6.793
12271TIP3    H136754   4.251   7.234   6.873
12271TIP3    H236755   4.149   7.261   6.765
12272TIP3   OH236756   6.123   1.619   3.417
12272TIP3    H136757   6.170   1.546   3.377
12272TIP3    H236758   6.156   1.622   3.507
12273TIP3   OH236759   7.245   4.699   1.156
12273TIP3    H136760   7.178   4.718   1.091
12273TIP3    H236761   7.197   4.696   1.239
12274TIP3   OH236762   5.180   6.837   5.735
12274TIP3    H136763   5.100   6.791   5.710
12274TIP3    H236764   5.157   6.930   5.734
12275TIP3   OH236765   5.427   4.784   6.413
12275TIP3    H136766   5.395   4.868   6.445
12275TIP3    H236767   5.382   4.771   6.330
12276TIP3   OH236768   3.010   4.917   1.280
12276TIP3    H136769   2.949   4.946   1.212
12276TIP3    H236770   2.973   4.834   1.311
12277TIP3   OH236771   3.072   6.730   4.778
12277TIP3    H136772   3.045   6.814   4.740
12277TIP3    H236773   3.079   6.747   4.872
12278TIP3   OH236774   5.124   7.261   3.553
12278TIP3    H136775   5.172   7.231   3.476
12278TIP3    H236776   5.041   7.214   3.549
12279TIP3   OH236777   2.423   4.836   4.845
12279TIP3    H136778   2.477   4.840   4.766
12279TIP3    H236779   2.355   4.772   4.824
12280TIP3   OH236780   6.431   6.621   3.604
12280TIP3    H136781   6.382   6.652   3.680
12280TIP3    H236782   6.509   6.580   3.640
12281TIP3   OH236783   4.172   7.552   5.009
12281TIP3    H136784   4.104   7.594   5.062
12281TIP3    H236785   4.189   7.614   4.938
12282TIP3   OH236786   7.162   3.280   3.828
12282TIP3    H136787   7.109   3.360   3.826
12282TIP3    H236788   7.106   3.214   3.869
12283TIP3   OH236789   3.171   4.351   0.794
12283TIP3    H136790   3.141   4.436   0.761
12283TIP3    H236791   3.226   4.372   0.869
12284TIP3   OH236792   8.136   4.537   2.898
12284TIP3    H136793   8.066   4.601   2.912
12284TIP3    H236794   8.091   4.452   2.902
12285TIP3   OH236795   5.654   6.076   5.020
12285TIP3    H136796   5.605   6.139   5.073
12285TIP3    H236797   5.631   6.096   4.930
12286TIP3   OH236798   7.897   1.855   1.477
12286TIP3    H136799   7.879   1.891   1.564
12286TIP3    H236800   7.914   1.762   1.492
12287TIP3   OH236801   5.199   7.426   0.786
12287TIP3    H136802   5.142   7.349   0.784
12287TIP3    H236803   5.216   7.445   0.693
12288TIP3   OH236804   3.082   0.689   4.556
12288TIP3    H136805   3.151   0.751   4.537
12288TIP3    H236806   3.022   0.695   4.482
12289TIP3   OH236807   3.282   5.158   4.183
12289TIP3    H136808   3.324   5.125   4.263
12289TIP3    H236809   3.189   5.157   4.203
12290TIP3   OH236810   2.305   5.338   2.208
12290TIP3    H136811   2.381   5.287   2.233
12290TIP3    H236812   2.243   5.274   2.173
12291TIP3   OH236813   8.175   6.023   3.959
12291TIP3    H136814   8.153   6.104   3.913
12291TIP3    H236815   8.256   6.042   4.005
12292TIP3   OH236816   0.459   6.244   5.441
12292TIP3    H136817   0.428   6.335   5.446
12292TIP3    H236818   0.385   6.192   5.474
12293TIP3   OH236819   3.244   3.783   3.792
12293TIP3    H136820   3.320   3.724   3.795
12293TIP3    H236821   3.282   3.871   3.785
12294TIP3   OH236822   6.835   2.992   0.611
12294TIP3    H136823   6.879   3.055   0.669
12294TIP3    H236824   6.742   3.014   0.619
12295TIP3   OH236825   1.688   4.659   3.886
12295TIP3    H136826   1.689   4.755   3.881
12295TIP3    H236827   1.774   4.636   3.921
12296TIP3   OH236828   5.431   1.468   4.134
12296TIP3    H136829   5.412   1.534   4.201
12296TIP3    H236830   5.350   1.419   4.124
12297TIP3   OH236831   4.552   5.573   4.302
12297TIP3    H136832   4.472   5.534   4.338
12297TIP3    H236833   4.615   5.501   4.300
12298TIP3   OH236834   3.139   0.930   0.770
12298TIP3    H136835   3.216   0.881   0.738
12298TIP3    H236836   3.065   0.872   0.753
12299TIP3   OH236837   5.070   5.450   6.265
12299TIP3    H136838   5.161   5.451   6.294
12299TIP3    H236839   5.031   5.530   6.301
12300TIP3   OH236840   1.845   0.954   6.343
12300TIP3    H136841   1.875   0.876   6.391
12300TIP3    H236842   1.923   1.009   6.335
12301TIP3   OH236843   8.327   5.702   0.447
12301TIP3    H136844   8.287   5.689   0.362
12301TIP3    H236845   8.300   5.790   0.474
12302TIP3   OH236846   1.278   2.467   5.708
12302TIP3    H136847   1.210   2.415   5.750
12302TIP3    H236848   1.351   2.406   5.697
12303TIP3   OH236849   8.170   1.032   3.778
12303TIP3    H136850   8.159   1.080   3.860
12303TIP3    H236851   8.206   1.096   3.717
12304TIP3   OH236852   7.762   6.909   4.534
12304TIP3    H136853   7.757   6.987   4.477
12304TIP3    H236854   7.841   6.922   4.586
12305TIP3   OH236855   7.938   6.437   4.185
12305TIP3    H136856   7.867   6.498   4.165
12305TIP3    H236857   7.898   6.350   4.171
12306TIP3   OH236858   1.247   0.492   5.952
12306TIP3    H136859   1.334   0.528   5.965
12306TIP3    H236860   1.230   0.503   5.858
12307TIP3   OH236861   8.131   6.487   3.351
12307TIP3    H136862   8.087   6.438   3.420
12307TIP3    H236863   8.066   6.490   3.280
12308TIP3   OH236864   4.912   3.199   6.774
12308TIP3    H136865   4.961   3.183   6.694
12308TIP3    H236866   4.848   3.266   6.750
12309TIP3   OH236867   1.965   4.558   5.940
12309TIP3    H136868   1.996   4.484   5.992
12309TIP3    H236869   2.002   4.543   5.853
12310TIP3   OH236870   4.191   2.199   2.809
12310TIP3    H136871   4.155   2.254   2.879
12310TIP3    H236872   4.284   2.221   2.808
12311TIP3   OH236873   1.174   0.383   0.406
12311TIP3    H136874   1.252   0.386   0.350
12311TIP3    H236875   1.155   0.475   0.425
12312TIP3   OH236876   5.517   0.025   0.609
12312TIP3    H136877   5.444   0.053   0.555
12312TIP3    H236878   5.576   0.100   0.611
12313TIP3   OH236879   7.712   5.003   5.383
12313TIP3    H136880   7.733   5.070   5.318
12313TIP3    H236881   7.755   4.924   5.349
12314TIP3   OH236882   8.240   1.935   1.477
12314TIP3    H136883   8.204   2.023   1.481
12314TIP3    H236884   8.179   1.887   1.420
12315TIP3   OH236885   5.911   1.637   3.995
12315TIP3    H136886   5.974   1.708   3.996
12315TIP3    H236887   5.875   1.638   3.906
12316TIP3   OH236888   1.936   6.338   4.869
12316TIP3    H136889   2.010   6.397   4.856
12316TIP3    H236890   1.967   6.273   4.932
12317TIP3   OH236891   0.297   5.622   6.330
12317TIP3    H136892   0.259   5.696   6.378
12317TIP3    H236893   0.392   5.633   6.340
12318TIP3   OH236894   0.016   6.611   6.273
12318TIP3    H136895   0.043   6.520   6.286
12318TIP3    H236896  -0.017   6.613   6.183
12319TIP3   OH236897   7.953   6.605   2.306
12319TIP3    H136898   8.032   6.601   2.253
12319TIP3    H236899   7.977   6.660   2.381
12320TIP3   OH236900   6.339   1.413   3.093
12320TIP3    H136901   6.411   1.373   3.045
12320TIP3    H236902   6.334   1.502   3.059
12321TIP3   OH236903   0.747   4.816   3.825
12321TIP3    H136904   0.665   4.769   3.837
12321TIP3    H236905   0.766   4.853   3.912
12322TIP3   OH236906   1.305   0.130   0.393
12322TIP3    H136907   1.367   0.199   0.371
12322TIP3    H236908   1.224   0.177   0.412
12323TIP3   OH236909   4.547   5.067   0.491
12323TIP3    H136910   4.564   4.975   0.472
12323TIP3    H236911   4.580   5.114   0.415
12324TIP3   OH236912   0.188   1.076   0.660
12324TIP3    H136913   0.187   1.121   0.744
12324TIP3    H236914   0.247   1.002   0.672
12325TIP3   OH236915   5.673   6.643   5.491
12325TIP3    H136916   5.703   6.658   5.580
12325TIP3    H236917   5.725   6.569   5.460
12326TIP3   OH236918   3.583   6.648   1.771
12326TIP3    H136919   3.505   6.699   1.751
12326TIP3    H236920   3.633   6.704   1.831
12327TIP3   OH236921   1.334   1.922   1.660
12327TIP3    H136922   1.367   1.981   1.727
12327TIP3    H236923   1.239   1.937   1.660
12328TIP3   OH236924   4.769   3.961   5.354
12328TIP3    H136925   4.787   4.014   5.276
12328TIP3    H236926   4.758   4.024   5.424
12329TIP3   OH236927   1.402   1.965   3.037
12329TIP3    H136928   1.324   1.928   2.996
12329TIP3    H236929   1.474   1.908   3.009
12330TIP3   OH236930   7.271   6.657   4.973
12330TIP3    H136931   7.228   6.573   4.955
12330TIP3    H236932   7.203   6.722   4.955
12331TIP3   OH236933   7.074   1.805   4.276
12331TIP3    H136934   7.111   1.760   4.200
12331TIP3    H236935   7.147   1.855   4.312
12332TIP3   OH236936   4.161   0.319   2.811
12332TIP3    H136937   4.087   0.267   2.843
12332TIP3    H236938   4.226   0.314   2.881
12333TIP3   OH236939   0.835   3.849   1.540
12333TIP3    H136940   0.811   3.836   1.449
12333TIP3    H236941   0.754   3.875   1.583
12334TIP3   OH236942   2.421   1.082   1.925
12334TIP3    H136943   2.336   1.085   1.882
12334TIP3    H236944   2.462   1.002   1.892
12335TIP3   OH236945   0.641   7.354   4.707
12335TIP3    H136946   0.619   7.342   4.800
12335TIP3    H236947   0.701   7.282   4.687
12336TIP3   OH236948   0.237   6.067   2.984
12336TIP3    H136949   0.208   6.154   2.955
12336TIP3    H236950   0.299   6.039   2.916
12337TIP3   OH236951   6.517   1.616   4.845
12337TIP3    H136952   6.487   1.569   4.767
12337TIP3    H236953   6.532   1.705   4.815
12338TIP3   OH236954   6.927   4.554   4.795
12338TIP3    H136955   6.997   4.567   4.731
12338TIP3    H236956   6.893   4.642   4.812
12339TIP3   OH236957   0.898   1.316   3.499
12339TIP3    H136958   0.985   1.318   3.540
12339TIP3    H236959   0.837   1.326   3.571
12340TIP3   OH236960   6.388   7.035   1.639
12340TIP3    H136961   6.309   6.984   1.652
12340TIP3    H236962   6.360   7.109   1.585
12341TIP3   OH236963   2.929   7.791   3.241
12341TIP3    H136964   2.960   7.776   3.330
12341TIP3    H236965   2.843   7.832   3.252
12342TIP3   OH236966   0.685   7.691   0.676
12342TIP3    H136967   0.752   7.710   0.742
12342TIP3    H236968   0.735   7.682   0.595
12343TIP3   OH236969   2.639   3.847   5.903
12343TIP3    H136970   2.657   3.758   5.874
12343TIP3    H236971   2.726   3.886   5.915
12344TIP3   OH236972   0.990   0.504   1.237
12344TIP3    H136973   0.982   0.453   1.318
12344TIP3    H236974   0.899   0.523   1.212
12345TIP3   OH236975   6.508   5.877   5.656
12345TIP3    H136976   6.532   5.899   5.746
12345TIP3    H236977   6.466   5.792   5.662
12346TIP3   OH236978   8.129   3.412   1.278
12346TIP3    H136979   8.095   3.475   1.214
12346TIP3    H236980   8.054   3.394   1.336
12347TIP3   OH236981   6.301   1.119   4.978
12347TIP3    H136982   6.351   1.144   4.900
12347TIP3    H236983   6.234   1.186   4.986
12348TIP3   OH236984   6.110   3.272   2.120
12348TIP3    H136985   6.204   3.291   2.125
12348TIP3    H236986   6.103   3.179   2.145
12349TIP3   OH236987   4.551   4.980   6.232
12349TIP3    H136988   4.501   5.004   6.154
12349TIP3    H236989   4.643   4.986   6.205
12350TIP3   OH236990   7.068   2.026   1.582
12350TIP3    H136991   7.092   2.080   1.506
12350TIP3    H236992   7.142   1.965   1.592
12351TIP3   OH236993   3.150   3.168   5.628
12351TIP3    H136994   3.074   3.191   5.575
12351TIP3    H236995   3.170   3.077   5.604
12352TIP3   OH236996   3.083   7.696   3.026
12352TIP3    H136997   3.165   7.659   3.059
12352TIP3    H236998   3.042   7.737   3.102
12353TIP3   OH236999   4.070   7.459   3.006
12353TIP3    H137000   4.071   7.383   2.947
12353TIP3    H237001   4.158   7.496   2.999
12354TIP3   OH237002   0.670   2.728   1.786
12354TIP3    H137003   0.622   2.700   1.708
12354TIP3    H237004   0.759   2.746   1.754
12355TIP3   OH237005   2.183   1.922   0.183
12355TIP3    H137006   2.240   1.984   0.137
12355TIP3    H237007   2.103   1.971   0.200
12356TIP3   OH237008   2.253   2.950   6.765
12356TIP3    H137009   2.255   2.862   6.802
12356TIP3    H237010   2.160   2.970   6.755
12357TIP3   OH237011   2.468   4.759   6.747
12357TIP3    H137012   2.474   4.821   6.819
12357TIP3    H237013   2.388   4.709   6.765
12358TIP3   OH237014   0.628   3.629   1.404
12358TIP3    H137015   0.664   3.558   1.352
12358TIP3    H237016   0.659   3.709   1.362
12359TIP3   OH237017   3.975   4.300   4.847
12359TIP3    H137018   3.925   4.374   4.813
12359TIP3    H237019   3.989   4.244   4.770
12360TIP3   OH237020   1.191   6.765   4.637
12360TIP3    H137021   1.248   6.778   4.561
12360TIP3    H237022   1.197   6.671   4.656
12361TIP3   OH237023   0.994   4.055   3.303
12361TIP3    H137024   1.004   4.100   3.220
12361TIP3    H237025   0.905   4.074   3.332
12362TIP3   OH237026   0.291   4.137   3.059
12362TIP3    H137027   0.284   4.218   3.110
12362TIP3    H237028   0.338   4.162   2.980
12363TIP3   OH237029   2.271   7.897   4.258
12363TIP3    H137030   2.357   7.893   4.300
12363TIP3    H237031   2.249   7.806   4.239
12364TIP3   OH237032   8.115   0.120   5.282
12364TIP3    H137033   8.053   0.177   5.236
12364TIP3    H237034   8.060   0.070   5.342
12365TIP3   OH237035   1.090   3.162   1.744
12365TIP3    H137036   1.171   3.112   1.734
12365TIP3    H237037   1.068   3.191   1.655
12366TIP3   OH237038   2.478   4.282   3.624
12366TIP3    H137039   2.510   4.361   3.581
12366TIP3    H237040   2.385   4.298   3.638
12367TIP3   OH237041   7.669   2.898   2.582
12367TIP3    H137042   7.591   2.953   2.581
12367TIP3    H237043   7.723   2.935   2.652
12368TIP3   OH237044   2.114   6.069   2.114
12368TIP3    H137045   2.084   6.117   2.036
12368TIP3    H237046   2.034   6.052   2.163
12369TIP3   OH237047   6.355   5.753   0.853
12369TIP3    H137048   6.364   5.671   0.901
12369TIP3    H237049   6.440   5.796   0.862
12370TIP3   OH237050   3.566   7.582   0.246
12370TIP3    H137051   3.632   7.650   0.232
12370TIP3    H237052   3.484   7.621   0.213
12371TIP3   OH237053   0.088   5.505   1.758
12371TIP3    H137054   0.097   5.597   1.734
12371TIP3    H237055   0.093   5.458   1.675
12372TIP3   OH237056   8.108   7.230   6.466
12372TIP3    H137057   8.145   7.306   6.510
12372TIP3    H237058   8.124   7.245   6.373
12373TIP3   OH237059   5.139   6.072   1.717
12373TIP3    H137060   5.067   6.122   1.677
12373TIP3    H237061   5.155   6.000   1.656
12374TIP3   OH237062   2.832   0.603   5.607
12374TIP3    H137063   2.927   0.612   5.600
12374TIP3    H237064   2.820   0.532   5.670
12375TIP3   OH237065   1.274   1.691   0.552
12375TIP3    H137066   1.292   1.643   0.471
12375TIP3    H237067   1.310   1.778   0.536
12376TIP3   OH237068   4.400   4.988   5.057
12376TIP3    H137069   4.353   5.018   5.135
12376TIP3    H237070   4.455   4.916   5.088
12377TIP3   OH237071   7.696   2.435   4.025
12377TIP3    H137072   7.618   2.459   4.076
12377TIP3    H237073   7.680   2.470   3.938
12378TIP3   OH237074   8.167   5.051   0.045
12378TIP3    H137075   8.224   5.128   0.044
12378TIP3    H237076   8.098   5.074   0.108
12379TIP3   OH237077   4.369   5.847   1.545
12379TIP3    H137078   4.433   5.896   1.595
12379TIP3    H237079   4.421   5.790   1.488
12380TIP3   OH237080   2.260   1.543   6.339
12380TIP3    H137081   2.315   1.528   6.416
12380TIP3    H237082   2.203   1.616   6.364
12381TIP3   OH237083   4.304   7.447   4.780
12381TIP3    H137084   4.325   7.535   4.750
12381TIP3    H237085   4.282   7.458   4.872
12382TIP3   OH237086   2.900   1.260   3.965
12382TIP3    H137087   2.813   1.246   4.002
12382TIP3    H237088   2.894   1.229   3.875
12383TIP3   OH237089   6.024   0.642   1.788
12383TIP3    H137090   6.037   0.642   1.693
12383TIP3    H237091   6.087   0.706   1.821
12384TIP3   OH237092   6.974   7.308   0.870
12384TIP3    H137093   7.048   7.351   0.827
12384TIP3    H237094   6.975   7.218   0.836
12385TIP3   OH237095   8.016   7.117   1.547
12385TIP3    H137096   8.068   7.037   1.550
12385TIP3    H237097   7.947   7.104   1.612
12386TIP3   OH237098   0.052   5.251   6.632
12386TIP3    H137099   0.025   5.257   6.724
12386TIP3    H237100   0.049   5.341   6.600
12387TIP3   OH237101   6.168   7.483   4.045
12387TIP3    H137102   6.111   7.431   3.989
12387TIP3    H237103   6.252   7.437   4.043
12388TIP3   OH237104   8.046   2.783   3.629
12388TIP3    H137105   7.960   2.781   3.671
12388TIP3    H237106   8.071   2.691   3.622
12389TIP3   OH237107   6.863   6.212   4.313
12389TIP3    H137108   6.944   6.161   4.312
12389TIP3    H237109   6.883   6.287   4.369
12390TIP3   OH237110   3.332   5.598   6.053
12390TIP3    H137111   3.240   5.612   6.030
12390TIP3    H237112   3.370   5.559   5.974
12391TIP3   OH237113   3.155   0.047   2.234
12391TIP3    H137114   3.193   0.123   2.189
12391TIP3    H237115   3.095   0.085   2.298
12392TIP3   OH237116   7.757   6.753   4.314
12392TIP3    H137117   7.850   6.760   4.292
12392TIP3    H237118   7.746   6.810   4.390
12393TIP3   OH237119   0.840   4.122   5.629
12393TIP3    H137120   0.877   4.035   5.615
12393TIP3    H237121   0.887   4.179   5.568
12394TIP3   OH237122   1.565   4.371   2.261
12394TIP3    H137123   1.489   4.329   2.301
12394TIP3    H237124   1.574   4.454   2.307
12395TIP3   OH237125   6.304   3.836   0.119
12395TIP3    H137126   6.388   3.795   0.140
12395TIP3    H237127   6.276   3.792   0.039
12396TIP3   OH237128   6.852   0.487   6.278
12396TIP3    H137129   6.894   0.514   6.360
12396TIP3    H237130   6.778   0.547   6.268
12397TIP3   OH237131   0.569   1.142   1.633
12397TIP3    H137132   0.494   1.126   1.691
12397TIP3    H237133   0.607   1.224   1.665
12398TIP3   OH237134   6.357   6.625   1.126
12398TIP3    H137135   6.282   6.608   1.181
12398TIP3    H237136   6.396   6.539   1.109
12399TIP3   OH237137   7.829   4.858   4.194
12399TIP3    H137138   7.890   4.931   4.182
12399TIP3    H237139   7.853   4.821   4.278
12400TIP3   OH237140   3.785   7.647   2.765
12400TIP3    H137141   3.836   7.725   2.743
12400TIP3    H237142   3.699   7.681   2.789
12401TIP3   OH237143   7.811   5.625   5.120
12401TIP3    H137144   7.757   5.703   5.107
12401TIP3    H237145   7.822   5.588   5.033
12402TIP3   OH237146   2.262   2.097   2.063
12402TIP3    H137147   2.229   2.168   2.119
12402TIP3    H237148   2.348   2.077   2.099
12403TIP3   OH237149   1.748   1.173   5.206
12403TIP3    H137150   1.748   1.233   5.132
12403TIP3    H237151   1.833   1.129   5.201
12404TIP3   OH237152   3.342   2.904   5.978
12404TIP3    H137153   3.269   2.922   6.039
12404TIP3    H237154   3.407   2.860   6.032
12405TIP3   OH237155   0.151   5.775   6.602
12405TIP3    H137156   0.074   5.794   6.548
12405TIP3    H237157   0.129   5.695   6.649
12406TIP3   OH237158   3.408   2.759   0.092
12406TIP3    H137159   3.335   2.762   0.154
12406TIP3    H237160   3.406   2.669   0.058
12407TIP3   OH237161   7.206   4.749   4.426
12407TIP3    H137162   7.162   4.693   4.490
12407TIP3    H237163   7.296   4.756   4.459
12408TIP3   OH237164   5.980   0.806   6.495
12408TIP3    H137165   6.013   0.894   6.477
12408TIP3    H237166   5.888   0.810   6.469
12409TIP3   OH237167   4.431   1.987   3.015
12409TIP3    H137168   4.434   1.950   2.927
12409TIP3    H237169   4.455   1.914   3.072
12410TIP3   OH237170   2.134   1.280   3.559
12410TIP3    H137171   2.201   1.245   3.499
12410TIP3    H237172   2.166   1.367   3.582
12411TIP3   OH237173   8.416   7.328   5.226
12411TIP3    H137174   8.402   7.364   5.138
12411TIP3    H237175   8.328   7.326   5.265
12412TIP3   OH237176   0.173   1.373   2.467
12412TIP3    H137177   0.120   1.340   2.394
12412TIP3    H237178   0.137   1.329   2.544
12413TIP3   OH237179   5.039   0.596   4.510
12413TIP3    H137180   5.067   0.518   4.557
12413TIP3    H237181   5.113   0.619   4.454
12414TIP3   OH237182   1.572   2.116   4.928
12414TIP3    H137183   1.495   2.060   4.917
12414TIP3    H237184   1.632   2.088   4.859
12415TIP3   OH237185   5.711   2.359   6.738
12415TIP3    H137186   5.661   2.296   6.790
12415TIP3    H237187   5.659   2.439   6.741
12416TIP3   OH237188   1.143   6.501   4.677
12416TIP3    H137189   1.066   6.512   4.620
12416TIP3    H237190   1.127   6.418   4.722
12417TIP3   OH237191   4.686   2.923   1.747
12417TIP3    H137192   4.731   2.839   1.751
12417TIP3    H237193   4.635   2.928   1.828
12418TIP3   OH237194   7.417   0.154   1.798
12418TIP3    H137195   7.416   0.196   1.712
12418TIP3    H237196   7.388   0.222   1.859
12419TIP3   OH237197   6.951   0.564   6.537
12419TIP3    H137198   6.929   0.647   6.578
12419TIP3    H237199   7.045   0.570   6.519
12420TIP3   OH237200   3.363   2.444   2.225
12420TIP3    H137201   3.358   2.403   2.311
12420TIP3    H237202   3.364   2.538   2.244
12421TIP3   OH237203   0.082   4.088   6.536
12421TIP3    H137204   0.030   4.168   6.545
12421TIP3    H237205   0.166   4.110   6.575
12422TIP3   OH237206   3.610   2.519   1.644
12422TIP3    H137207   3.600   2.424   1.633
12422TIP3    H237208   3.680   2.542   1.584
12423TIP3   OH237209   4.043   3.508   0.909
12423TIP3    H137210   4.104   3.560   0.857
12423TIP3    H237211   3.991   3.573   0.957
12424TIP3   OH237212   5.705   7.903   4.525
12424TIP3    H137213   5.634   7.895   4.462
12424TIP3    H237214   5.732   7.813   4.543
12425TIP3   OH237215   0.585   5.952   1.867
12425TIP3    H137216   0.577   5.950   1.772
12425TIP3    H237217   0.676   5.975   1.884
12426TIP3   OH237218   6.409   1.297   2.681
12426TIP3    H137219   6.496   1.281   2.643
12426TIP3    H237220   6.368   1.360   2.621
12427TIP3   OH237221   4.918   4.372   2.692
12427TIP3    H137222   4.825   4.355   2.678
12427TIP3    H237223   4.962   4.323   2.622
12428TIP3   OH237224   2.844   5.368   2.875
12428TIP3    H137225   2.753   5.341   2.862
12428TIP3    H237226   2.856   5.365   2.970
12429TIP3   OH237227   6.324   3.393   0.327
12429TIP3    H137228   6.262   3.380   0.255
12429TIP3    H237229   6.281   3.353   0.402
12430TIP3   OH237230   8.097   7.830   1.650
12430TIP3    H137231   8.023   7.890   1.639
12430TIP3    H237232   8.059   7.753   1.692
12431TIP3   OH237233   3.426   1.397   2.617
12431TIP3    H137234   3.424   1.302   2.631
12431TIP3    H237235   3.456   1.433   2.700
12432TIP3   OH237236   1.780   5.293   3.963
12432TIP3    H137237   1.782   5.288   4.058
12432TIP3    H237238   1.692   5.264   3.939
12433TIP3   OH237239   4.684   2.989   5.318
12433TIP3    H137240   4.651   3.002   5.406
12433TIP3    H237241   4.775   2.959   5.330
12434TIP3   OH237242   4.863   3.893   6.313
12434TIP3    H137243   4.955   3.875   6.296
12434TIP3    H237244   4.828   3.810   6.347
12435TIP3   OH237245   2.519   6.699   3.996
12435TIP3    H137246   2.466   6.719   3.919
12435TIP3    H237247   2.455   6.681   4.065
12436TIP3   OH237248   0.765   1.324   6.600
12436TIP3    H137249   0.816   1.244   6.617
12436TIP3    H237250   0.675   1.300   6.621
12437TIP3   OH237251   1.520   6.821   6.429
12437TIP3    H137252   1.485   6.748   6.378
12437TIP3    H237253   1.613   6.825   6.404
12438TIP3   OH237254   8.009   3.288   0.976
12438TIP3    H137255   7.972   3.226   1.038
12438TIP3    H237256   7.977   3.373   1.006
12439TIP3   OH237257   1.875   2.952   5.699
12439TIP3    H137258   1.810   2.883   5.683
12439TIP3    H237259   1.852   2.987   5.786
12440TIP3   OH237260   5.221   4.569   6.690
12440TIP3    H137261   5.287   4.538   6.628
12440TIP3    H237262   5.149   4.601   6.635
12441TIP3   OH237263   3.779   2.702   4.633
12441TIP3    H137264   3.744   2.763   4.698
12441TIP3    H237265   3.856   2.746   4.597
12442TIP3   OH237266   7.446   5.632   4.079
12442TIP3    H137267   7.486   5.547   4.093
12442TIP3    H237268   7.499   5.673   4.010
12443TIP3   OH237269   4.219   3.731   6.509
12443TIP3    H137270   4.311   3.707   6.506
12443TIP3    H237271   4.210   3.803   6.446
12444TIP3   OH237272   7.163   6.517   5.941
12444TIP3    H137273   7.072   6.548   5.932
12444TIP3    H237274   7.200   6.571   6.010
12445TIP3   OH237275   6.524   1.535   2.551
12445TIP3    H137276   6.437   1.571   2.568
12445TIP3    H237277   6.574   1.608   2.516
12446TIP3   OH237278   1.883   4.921   2.660
12446TIP3    H137279   1.818   4.977   2.617
12446TIP3    H237280   1.862   4.833   2.630
12447TIP3   OH237281   6.360   7.388   6.290
12447TIP3    H137282   6.365   7.481   6.265
12447TIP3    H237283   6.336   7.390   6.383
12448TIP3   OH237284   6.060   4.572   5.965
12448TIP3    H137285   6.047   4.566   6.059
12448TIP3    H237286   6.034   4.661   5.942
12449TIP3   OH237287   2.216   2.755   4.364
12449TIP3    H137288   2.140   2.704   4.394
12449TIP3    H237289   2.286   2.731   4.423
12450TIP3   OH237290   4.886   7.774   5.244
12450TIP3    H137291   4.898   7.850   5.187
12450TIP3    H237292   4.970   7.729   5.243
12451TIP3   OH237293   2.264   4.157   5.373
12451TIP3    H137294   2.218   4.098   5.314
12451TIP3    H237295   2.195   4.201   5.422
12452TIP3   OH237296   7.771   6.566   6.035
12452TIP3    H137297   7.773   6.474   6.008
12452TIP3    H237298   7.859   6.599   6.016
12453TIP3   OH237299   7.163   1.653   2.863
12453TIP3    H137300   7.115   1.682   2.785
12453TIP3    H237301   7.120   1.572   2.889
12454TIP3   OH237302   0.421   5.471   1.150
12454TIP3    H137303   0.334   5.489   1.184
12454TIP3    H237304   0.451   5.554   1.114
12455TIP3   OH237305   6.316   7.255   2.120
12455TIP3    H137306   6.243   7.301   2.161
12455TIP3    H237307   6.392   7.277   2.174
12456TIP3   OH237308   6.650   1.126   4.550
12456TIP3    H137309   6.696   1.149   4.469
12456TIP3    H237310   6.626   1.034   4.539
12457TIP3   OH237311   6.393   3.944   1.151
12457TIP3    H137312   6.453   3.877   1.183
12457TIP3    H237313   6.423   3.963   1.062
12458TIP3   OH237314   0.174   6.202   4.992
12458TIP3    H137315   0.206   6.115   5.016
12458TIP3    H237316   0.240   6.262   5.028
12459TIP3   OH237317   2.416   4.476   0.444
12459TIP3    H137318   2.416   4.572   0.448
12459TIP3    H237319   2.502   4.454   0.409
12460TIP3   OH237320   7.791   6.480   5.083
12460TIP3    H137321   7.827   6.558   5.040
12460TIP3    H237322   7.708   6.509   5.121
12461TIP3   OH237323   8.150   2.536   5.230
12461TIP3    H137324   8.240   2.552   5.256
12461TIP3    H237325   8.103   2.615   5.257
12462TIP3   OH237326   7.282   0.580   6.564
12462TIP3    H137327   7.254   0.562   6.653
12462TIP3    H237328   7.264   0.500   6.515
12463TIP3   OH237329   8.114   5.161   6.249
12463TIP3    H137330   8.159   5.186   6.168
12463TIP3    H237331   8.165   5.202   6.319
12464TIP3   OH237332   6.146   6.294   6.582
12464TIP3    H137333   6.091   6.363   6.618
12464TIP3    H237334   6.118   6.286   6.491
12465TIP3   OH237335   1.114   0.136   4.651
12465TIP3    H137336   1.139   0.073   4.583
12465TIP3    H237337   1.157   0.217   4.625
12466TIP3   OH237338   4.257   4.963   1.619
12466TIP3    H137339   4.238   5.036   1.677
12466TIP3    H237340   4.273   5.003   1.534
12467TIP3   OH237341   3.512   4.277   0.390
12467TIP3    H137342   3.454   4.350   0.411
12467TIP3    H237343   3.460   4.199   0.408
12468TIP3   OH237344   1.765   0.306   4.759
12468TIP3    H137345   1.678   0.298   4.797
12468TIP3    H237346   1.823   0.320   4.834
12469TIP3   OH237347   1.517   4.303   1.979
12469TIP3    H137348   1.509   4.329   2.071
12469TIP3    H237349   1.601   4.339   1.951
12470TIP3   OH237350   8.320   0.863   0.416
12470TIP3    H137351   8.310   0.950   0.454
12470TIP3    H237352   8.236   0.820   0.431
12471TIP3   OH237353   5.221   5.675   2.846
12471TIP3    H137354   5.275   5.722   2.782
12471TIP3    H237355   5.254   5.704   2.931
12472TIP3   OH237356   7.184   4.755   0.871
12472TIP3    H137357   7.238   4.831   0.849
12472TIP3    H237358   7.232   4.681   0.833
12473TIP3   OH237359   2.364   2.225   4.271
12473TIP3    H137360   2.347   2.160   4.340
12473TIP3    H237361   2.299   2.293   4.285
12474TIP3   OH237362   2.097   7.244   4.235
12474TIP3    H137363   2.083   7.337   4.217
12474TIP3    H237364   2.137   7.243   4.322
12475TIP3   OH237365   0.571   1.979   4.489
12475TIP3    H137366   0.500   1.951   4.547
12475TIP3    H237367   0.571   2.074   4.494
12476TIP3   OH237368   6.042   4.476   4.989
12476TIP3    H137369   6.008   4.554   4.945
12476TIP3    H237370   6.094   4.432   4.922
12477TIP3   OH237371   2.896   2.588   5.404
12477TIP3    H137372   2.893   2.500   5.366
12477TIP3    H237373   2.983   2.596   5.442
12478TIP3   OH237374   3.545   0.915   4.993
12478TIP3    H137375   3.509   0.997   4.960
12478TIP3    H237376   3.548   0.857   4.916
12479TIP3   OH237377   3.053   0.594   1.024
12479TIP3    H137378   3.029   0.681   1.055
12479TIP3    H237379   2.991   0.577   0.953
12480TIP3   OH237380   3.999   4.252   5.272
12480TIP3    H137381   4.005   4.317   5.203
12480TIP3    H237382   3.974   4.301   5.350
12481TIP3   OH237383   3.960   1.058   3.989
12481TIP3    H137384   4.044   1.085   3.952
12481TIP3    H237385   3.929   0.989   3.931
12482TIP3   OH237386   3.866   0.625   3.615
12482TIP3    H137387   3.814   0.626   3.534
12482TIP3    H237388   3.924   0.701   3.607
12483TIP3   OH237389   2.176   1.857   1.250
12483TIP3    H137390   2.238   1.929   1.251
12483TIP3    H237391   2.230   1.778   1.253
12484TIP3   OH237392   2.045   6.143   5.063
12484TIP3    H137393   2.000   6.195   5.130
12484TIP3    H237394   2.130   6.185   5.052
12485TIP3   OH237395   2.471   2.636   2.580
12485TIP3    H137396   2.450   2.585   2.659
12485TIP3    H237397   2.494   2.722   2.614
12486TIP3   OH237398   0.748   2.357   1.095
12486TIP3    H137399   0.774   2.378   1.184
12486TIP3    H237400   0.764   2.263   1.087
12487TIP3   OH237401   3.397   3.995   5.209
12487TIP3    H137402   3.409   3.993   5.114
12487TIP3    H237403   3.311   4.035   5.222
12488TIP3   OH237404   0.448   7.598   6.643
12488TIP3    H137405   0.387   7.671   6.634
12488TIP3    H237406   0.404   7.525   6.598
12489TIP3   OH237407   1.121   1.517  -0.023
12489TIP3    H137408   1.063   1.441  -0.017
12489TIP3    H237409   1.099   1.570   0.053
12490TIP3   OH237410   0.345   5.894   6.214
12490TIP3    H137411   0.419   5.837   6.237
12490TIP3    H237412   0.295   5.843   6.150
12491TIP3   OH237413   5.207   7.672   3.868
12491TIP3    H137414   5.260   7.652   3.945
12491TIP3    H237415   5.270   7.694   3.800
12492TIP3   OH237416   1.956   2.248   2.898
12492TIP3    H137417   1.883   2.282   2.949
12492TIP3    H237418   1.941   2.283   2.810
12493TIP3   OH237419   6.253   1.692   0.093
12493TIP3    H137420   6.166   1.700   0.052
12493TIP3    H237421   6.238   1.719   0.183
12494TIP3   OH237422   3.581   4.452   0.925
12494TIP3    H137423   3.575   4.404   1.008
12494TIP3    H237424   3.648   4.518   0.941
12495TIP3   OH237425   6.378   2.415   1.009
12495TIP3    H137426   6.447   2.439   0.947
12495TIP3    H237427   6.323   2.355   0.960
12496TIP3   OH237428   6.719   5.480   2.870
12496TIP3    H137429   6.687   5.460   2.782
12496TIP3    H237430   6.806   5.518   2.856
12497TIP3   OH237431   7.917   6.575   4.724
12497TIP3    H137432   7.912   6.578   4.628
12497TIP3    H237433   7.843   6.629   4.753
12498TIP3   OH237434   5.704   5.039   2.776
12498TIP3    H137435   5.738   5.067   2.861
12498TIP3    H237436   5.674   5.119   2.734
12499TIP3   OH237437   8.237   6.925   5.205
12499TIP3    H137438   8.170   6.894   5.144
12499TIP3    H237439   8.187   6.963   5.277
12500TIP3   OH237440   5.090   4.174   2.964
12500TIP3    H137441   5.101   4.269   2.958
12500TIP3    H237442   5.105   4.154   3.056
12501TIP3   OH237443   7.090   4.608   6.804
12501TIP3    H137444   7.173   4.645   6.835
12501TIP3    H237445   7.115   4.543   6.739
12502TIP3   OH237446   6.555   5.168   2.917
12502TIP3    H137447   6.553   5.155   2.823
12502TIP3    H237448   6.616   5.101   2.949
12503TIP3   OH237449   7.976   0.303   5.557
12503TIP3    H137450   7.924   0.285   5.635
12503TIP3    H237451   7.936   0.250   5.489
12504TIP3   OH237452   2.332   0.656   6.594
12504TIP3    H137453   2.388   0.689   6.524
12504TIP3    H237454   2.393   0.624   6.661
12505TIP3   OH237455   1.441   0.880   1.607
12505TIP3    H137456   1.412   0.792   1.582
12505TIP3    H237457   1.492   0.866   1.687
12506TIP3   OH237458   2.363   4.333   5.747
12506TIP3    H137459   2.410   4.261   5.789
12506TIP3    H237460   2.390   4.411   5.797
12507TIP3   OH237461   3.274   4.049   2.604
12507TIP3    H137462   3.340   3.983   2.627
12507TIP3    H237463   3.302   4.128   2.651
12508TIP3   OH237464   3.417   1.046   3.318
12508TIP3    H137465   3.336   1.059   3.268
12508TIP3    H237466   3.410   1.107   3.391
12509TIP3   OH237467   1.031   5.411   0.821
12509TIP3    H137468   1.022   5.496   0.864
12509TIP3    H237469   0.961   5.357   0.859
12510TIP3   OH237470   3.111   1.734   4.362
12510TIP3    H137471   3.189   1.733   4.306
12510TIP3    H237472   3.137   1.787   4.437
12511TIP3   OH237473   6.377   0.728   6.475
12511TIP3    H137474   6.307   0.715   6.539
12511TIP3    H237475   6.332   0.725   6.390
12512TIP3   OH237476   5.260   2.901   1.353
12512TIP3    H137477   5.205   2.948   1.291
12512TIP3    H237478   5.207   2.828   1.384
12513TIP3   OH237479   5.367   1.460   0.132
12513TIP3    H137480   5.292   1.509   0.167
12513TIP3    H237481   5.417   1.526   0.083
12514TIP3   OH237482   7.456   1.994   6.641
12514TIP3    H137483   7.431   2.062   6.704
12514TIP3    H237484   7.482   2.042   6.562
12515TIP3   OH237485   1.385   6.628   6.289
12515TIP3    H137486   1.344   6.553   6.246
12515TIP3    H237487   1.355   6.623   6.380
12516TIP3   OH237488   3.771   2.174   6.554
12516TIP3    H137489   3.829   2.169   6.631
12516TIP3    H237490   3.831   2.177   6.480
12517TIP3   OH237491   1.475   3.731   6.702
12517TIP3    H137492   1.382   3.731   6.721
12517TIP3    H237493   1.489   3.650   6.652
12518TIP3   OH237494   1.730   5.198   0.079
12518TIP3    H137495   1.804   5.248   0.114
12518TIP3    H237496   1.666   5.198   0.151
12519TIP3   OH237497   1.205   3.391   5.845
12519TIP3    H137498   1.171   3.476   5.872
12519TIP3    H237499   1.183   3.333   5.918
12520TIP3   OH237500   6.763   7.858   4.460
12520TIP3    H137501   6.833   7.798   4.486
12520TIP3    H237502   6.756   7.847   4.365
12521TIP3   OH237503   8.246   6.172   4.935
12521TIP3    H137504   8.302   6.243   4.903
12521TIP3    H237505   8.159   6.192   4.900
12522TIP3   OH237506   6.173   2.989   3.779
12522TIP3    H137507   6.193   2.949   3.695
12522TIP3    H237508   6.246   3.049   3.795
12523TIP3   OH237509   3.195   2.123   1.901
12523TIP3    H137510   3.275   2.092   1.944
12523TIP3    H237511   3.157   2.045   1.862
12524TIP3   OH237512   3.943   0.881   4.607
12524TIP3    H137513   3.910   0.867   4.696
12524TIP3    H237514   4.002   0.807   4.591
12525TIP3   OH237515   5.002   2.803   3.941
12525TIP3    H137516   4.923   2.773   3.897
12525TIP3    H237517   5.044   2.862   3.878
12526TIP3   OH237518   2.784   4.601   5.741
12526TIP3    H137519   2.698   4.558   5.738
12526TIP3    H237520   2.819   4.580   5.828
12527TIP3   OH237521   2.805   4.284   2.875
12527TIP3    H137522   2.861   4.361   2.887
12527TIP3    H237523   2.756   4.276   2.956
12528TIP3   OH237524   3.144   4.279   3.505
12528TIP3    H137525   3.221   4.303   3.454
12528TIP3    H237526   3.173   4.285   3.596
12529TIP3   OH237527   4.154   1.865   0.971
12529TIP3    H137528   4.107   1.830   0.896
12529TIP3    H237529   4.173   1.789   1.025
12530TIP3   OH237530   5.098   6.734   1.802
12530TIP3    H137531   5.100   6.808   1.864
12530TIP3    H237532   5.142   6.663   1.849
12531TIP3   OH237533   3.068   0.705   5.419
12531TIP3    H137534   3.131   0.647   5.462
12531TIP3    H237535   3.045   0.769   5.487
12532TIP3   OH237536   7.764   7.527   3.647
12532TIP3    H137537   7.704   7.465   3.604
12532TIP3    H237538   7.745   7.611   3.606
12533TIP3   OH237539   3.886   5.430   4.469
12533TIP3    H137540   3.822   5.449   4.537
12533TIP3    H237541   3.967   5.469   4.501
12534TIP3   OH237542   5.299   2.249   2.863
12534TIP3    H137543   5.266   2.223   2.777
12534TIP3    H237544   5.293   2.169   2.916
12535TIP3   OH237545   1.532   1.375   3.706
12535TIP3    H137546   1.515   1.435   3.778
12535TIP3    H237547   1.470   1.303   3.720
12536TIP3   OH237548   2.717   7.015   5.554
12536TIP3    H137549   2.806   7.035   5.524
12536TIP3    H237550   2.724   6.928   5.594
12537TIP3   OH237551   7.050   2.531   0.332
12537TIP3    H137552   7.139   2.565   0.345
12537TIP3    H237553   7.014   2.585   0.262
12538TIP3   OH237554   7.286   0.893   4.155
12538TIP3    H137555   7.286   0.854   4.242
12538TIP3    H237556   7.371   0.868   4.118
12539TIP3   OH237557   5.989   0.857   0.668
12539TIP3    H137558   6.002   0.876   0.575
12539TIP3    H237559   6.034   0.773   0.681
12540TIP3   OH237560   3.655   2.895   4.757
12540TIP3    H137561   3.601   2.973   4.763
12540TIP3    H237562   3.661   2.863   4.847
12541TIP3   OH237563   1.370   2.829   3.454
12541TIP3    H137564   1.336   2.908   3.495
12541TIP3    H237565   1.423   2.861   3.381
12542TIP3   OH237566   8.198   6.076   1.193
12542TIP3    H137567   8.196   6.167   1.165
12542TIP3    H237568   8.144   6.029   1.129
12543TIP3   OH237569   5.322   5.489   6.340
12543TIP3    H137570   5.403   5.499   6.289
12543TIP3    H237571   5.319   5.568   6.394
12544TIP3   OH237572   0.063   1.224   2.244
12544TIP3    H137573   0.153   1.209   2.215
12544TIP3    H237574   0.023   1.136   2.245
12545TIP3   OH237575   5.271   5.585   1.333
12545TIP3    H137576   5.319   5.622   1.259
12545TIP3    H237577   5.327   5.513   1.365
12546TIP3   OH237578   2.186   2.841   4.116
12546TIP3    H137579   2.275   2.824   4.149
12546TIP3    H237580   2.130   2.829   4.193
12547TIP3   OH237581   0.397   6.598   1.921
12547TIP3    H137582   0.335   6.629   1.987
12547TIP3    H237583   0.426   6.513   1.954
12548TIP3   OH237584   2.634   4.681   2.366
12548TIP3    H137585   2.728   4.691   2.357
12548TIP3    H237586   2.622   4.607   2.425
12549TIP3   OH237587   1.866   5.495   2.592
12549TIP3    H137588   1.810   5.421   2.617
12549TIP3    H237589   1.884   5.480   2.499
12550TIP3   OH237590   7.874   2.064   1.014
12550TIP3    H137591   7.830   2.111   0.942
12550TIP3    H237592   7.967   2.078   0.997
12551TIP3   OH237593   5.308   2.240   4.407
12551TIP3    H137594   5.327   2.327   4.444
12551TIP3    H237595   5.226   2.213   4.449
12552TIP3   OH237596   3.153   4.924   4.409
12552TIP3    H137597   3.097   4.990   4.370
12552TIP3    H237598   3.200   4.969   4.479
12553TIP3   OH237599   4.417   0.497   6.046
12553TIP3    H137600   4.466   0.468   5.968
12553TIP3    H237601   4.341   0.543   6.010
12554TIP3   OH237602   1.219   3.331   6.411
12554TIP3    H137603   1.143   3.370   6.370
12554TIP3    H237604   1.239   3.389   6.485
12555TIP3   OH237605   0.071   4.671   0.635
12555TIP3    H137606   0.119   4.610   0.579
12555TIP3    H237607  -0.021   4.659   0.611
12556TIP3   OH237608   7.395   7.489   3.142
12556TIP3    H137609   7.444   7.473   3.061
12556TIP3    H237610   7.399   7.584   3.154
12557TIP3   OH237611   8.358   6.221   5.613
12557TIP3    H137612   8.448   6.191   5.620
12557TIP3    H237613   8.310   6.170   5.679
12558TIP3   OH237614   0.419   7.406   0.938
12558TIP3    H137615   0.467   7.342   0.991
12558TIP3    H237616   0.329   7.373   0.936
12559TIP3   OH237617   6.590   0.171   6.197
12559TIP3    H137618   6.676   0.154   6.237
12559TIP3    H237619   6.588   0.266   6.185
12560TIP3   OH237620   0.496   1.634   0.215
12560TIP3    H137621   0.409   1.609   0.183
12560TIP3    H237622   0.553   1.623   0.139
12561TIP3   OH237623   6.311   2.062   0.079
12561TIP3    H137624   6.233   2.108   0.047
12561TIP3    H237625   6.283   1.971   0.090
12562TIP3   OH237626   5.305   0.235   6.198
12562TIP3    H137627   5.284   0.300   6.265
12562TIP3    H237628   5.370   0.178   6.240
12563TIP3   OH237629   1.871   5.111   5.820
12563TIP3    H137630   1.937   5.080   5.881
12563TIP3    H237631   1.908   5.094   5.733
12564TIP3   OH237632   1.074   0.930   1.130
12564TIP3    H137633   1.100   0.865   1.196
12564TIP3    H237634   0.996   0.893   1.090
12565TIP3   OH237635   2.694   5.016   1.372
12565TIP3    H137636   2.759   5.058   1.316
12565TIP3    H237637   2.707   5.055   1.458
12566TIP3   OH237638   3.452   4.179   1.517
12566TIP3    H137639   3.513   4.211   1.583
12566TIP3    H237640   3.446   4.250   1.454
12567TIP3   OH237641   7.312   0.666   0.917
12567TIP3    H137642   7.320   0.708   1.003
12567TIP3    H237643   7.238   0.606   0.926
12568TIP3   OH237644   1.272   1.391   5.898
12568TIP3    H137645   1.203   1.331   5.871
12568TIP3    H237646   1.243   1.423   5.984
12569TIP3   OH237647   4.632   2.751   5.788
12569TIP3    H137648   4.636   2.655   5.792
12569TIP3    H237649   4.695   2.775   5.721
12570TIP3   OH237650   0.474   0.706   4.869
12570TIP3    H137651   0.560   0.670   4.848
12570TIP3    H237652   0.483   0.739   4.958
12571TIP3   OH237653   1.471   0.656   3.765
12571TIP3    H137654   1.464   0.677   3.672
12571TIP3    H237655   1.416   0.721   3.808
12572TIP3   OH237656   0.865   0.448   3.839
12572TIP3    H137657   0.896   0.358   3.840
12572TIP3    H237658   0.803   0.453   3.912
12573TIP3   OH237659   2.217   5.088   1.386
12573TIP3    H137660   2.278   5.028   1.343
12573TIP3    H237661   2.174   5.033   1.452
12574TIP3   OH237662   1.763   5.913   1.434
12574TIP3    H137663   1.706   5.859   1.379
12574TIP3    H237664   1.813   5.849   1.486
12575TIP3   OH237665   5.375   1.414   5.249
12575TIP3    H137666   5.311   1.385   5.314
12575TIP3    H237667   5.356   1.361   5.171
12576TIP3   OH237668   7.571   6.790   5.697
12576TIP3    H137669   7.481   6.755   5.694
12576TIP3    H237670   7.571   6.861   5.633
12577TIP3   OH237671   1.771   3.919   3.844
12577TIP3    H137672   1.841   3.877   3.894
12577TIP3    H237673   1.690   3.892   3.889
12578TIP3   OH237674   1.100   4.309   4.437
12578TIP3    H137675   1.144   4.393   4.428
12578TIP3    H237676   1.018   4.319   4.389
12579TIP3   OH237677   3.329   4.513   0.475
12579TIP3    H137678   3.236   4.490   0.471
12579TIP3    H237679   3.341   4.573   0.402
12580TIP3   OH237680   7.767   0.311   6.677
12580TIP3    H137681   7.716   0.237   6.711
12580TIP3    H237682   7.780   0.368   6.753
12581TIP3   OH237683   4.866   7.560   5.560
12581TIP3    H137684   4.959   7.546   5.543
12581TIP3    H237685   4.862   7.644   5.607
12582TIP3   OH237686   2.900   2.343   0.143
12582TIP3    H137687   2.903   2.438   0.155
12582TIP3    H237688   2.913   2.307   0.230
12583TIP3   OH237689   0.983   1.117   0.576
12583TIP3    H137690   0.927   1.176   0.626
12583TIP3    H237691   0.924   1.076   0.513
12584TIP3   OH237692   4.606   6.817   1.094
12584TIP3    H137693   4.651   6.741   1.056
12584TIP3    H237694   4.647   6.828   1.180
12585TIP3   OH237695   3.337   6.954   4.882
12585TIP3    H137696   3.247   6.934   4.908
12585TIP3    H237697   3.335   6.951   4.786
12586TIP3   OH237698   3.345   5.242   4.945
12586TIP3    H137699   3.277   5.266   4.882
12586TIP3    H237700   3.298   5.199   5.017
12587TIP3   OH237701   5.850   6.575   2.411
12587TIP3    H137702   5.756   6.568   2.394
12587TIP3    H237703   5.856   6.614   2.498
12588TIP3   OH237704   1.704   4.575   6.144
12588TIP3    H137705   1.778   4.608   6.093
12588TIP3    H237706   1.709   4.622   6.228
12589TIP3   OH237707   4.947   2.562   1.004
12589TIP3    H137708   4.958   2.490   1.066
12589TIP3    H237709   4.987   2.531   0.923
12590TIP3   OH237710   5.392   2.855   6.186
12590TIP3    H137711   5.408   2.817   6.272
12590TIP3    H237712   5.463   2.821   6.132
12591TIP3   OH237713   4.300   0.958   3.019
12591TIP3    H137714   4.390   0.987   3.032
12591TIP3    H237715   4.271   0.928   3.105
12592TIP3   OH237716   5.468   6.411   6.332
12592TIP3    H137717   5.426   6.351   6.393
12592TIP3    H237718   5.530   6.357   6.283
12593TIP3   OH237719   2.971   0.311   6.587
12593TIP3    H137720   3.062   0.312   6.617
12593TIP3    H237721   2.937   0.227   6.617
12594TIP3   OH237722   6.731   4.004   6.720
12594TIP3    H137723   6.657   4.064   6.713
12594TIP3    H237724   6.806   4.060   6.740
12595TIP3   OH237725   5.774   6.058   2.992
12595TIP3    H137726   5.818   5.987   3.038
12595TIP3    H237727   5.711   6.093   3.055
12596TIP3   OH237728   6.518   5.233   3.642
12596TIP3    H137729   6.561   5.247   3.727
12596TIP3    H237730   6.451   5.167   3.660
12597TIP3   OH237731   4.351   6.095   0.436
12597TIP3    H137732   4.387   6.042   0.507
12597TIP3    H237733   4.353   6.038   0.359
12598TIP3   OH237734   3.741   3.845   3.103
12598TIP3    H137735   3.819   3.899   3.093
12598TIP3    H237736   3.679   3.878   3.039
12599TIP3   OH237737   6.613   1.659   3.913
12599TIP3    H137738   6.700   1.633   3.942
12599TIP3    H237739   6.625   1.744   3.870
12600TIP3   OH237740   7.854   7.492   6.023
12600TIP3    H137741   7.899   7.415   6.058
12600TIP3    H237742   7.919   7.534   5.966
12601TIP3   OH237743   8.148   6.032   5.732
12601TIP3    H137744   8.083   5.979   5.778
12601TIP3    H237745   8.097   6.098   5.685
12602TIP3   OH237746   0.179   3.917   4.237
12602TIP3    H137747   0.164   3.921   4.142
12602TIP3    H237748   0.100   3.954   4.276
12603TIP3   OH237749   4.590   3.077   3.473
12603TIP3    H137750   4.533   3.153   3.462
12603TIP3    H237751   4.554   3.012   3.412
12604TIP3   OH237752   3.422   6.002   2.662
12604TIP3    H137753   3.468   5.924   2.630
12604TIP3    H237754   3.492   6.062   2.688
12605TIP3   OH237755   3.639   1.572   0.291
12605TIP3    H137756   3.598   1.492   0.257
12605TIP3    H237757   3.566   1.634   0.300
12606TIP3   OH237758   0.827   5.150   4.593
12606TIP3    H137759   0.907   5.192   4.562
12606TIP3    H237760   0.782   5.218   4.643
12607TIP3   OH237761   3.118   0.915   5.224
12607TIP3    H137762   3.043   0.974   5.237
12607TIP3    H237763   3.113   0.854   5.298
12608TIP3   OH237764   6.183   3.932   6.748
12608TIP3    H137765   6.237   3.863   6.708
12608TIP3    H237766   6.190   3.916   6.842
12609TIP3   OH237767   6.980   5.503   1.084
12609TIP3    H137768   7.035   5.564   1.133
12609TIP3    H237769   7.040   5.435   1.053
12610TIP3   OH237770   1.641   4.605   6.737
12610TIP3    H137771   1.590   4.676   6.775
12610TIP3    H237772   1.725   4.645   6.714
12611TIP3   OH237773   2.432   6.370   5.489
12611TIP3    H137774   2.486   6.299   5.523
12611TIP3    H237775   2.347   6.329   5.469
12612TIP3   OH237776   6.780   4.717   3.835
12612TIP3    H137777   6.863   4.743   3.875
12612TIP3    H237778   6.749   4.645   3.889
12613TIP3   OH237779   0.656   4.162   4.770
12613TIP3    H137780   0.717   4.231   4.793
12613TIP3    H237781   0.707   4.100   4.718
12614TIP3   OH237782   7.076   7.403   4.129
12614TIP3    H137783   7.133   7.401   4.206
12614TIP3    H237784   7.004   7.344   4.152
12615TIP3   OH237785   3.515   7.484   4.917
12615TIP3    H137786   3.525   7.579   4.919
12615TIP3    H237787   3.430   7.468   4.957
12616TIP3   OH237788   0.581   6.375   4.612
12616TIP3    H137789   0.563   6.281   4.621
12616TIP3    H237790   0.498   6.411   4.579
12617TIP3   OH237791   7.974   2.323   5.490
12617TIP3    H137792   8.014   2.404   5.460
12617TIP3    H237793   7.890   2.350   5.528
12618TIP3   OH237794   8.093   3.731   4.947
12618TIP3    H137795   8.067   3.816   4.912
12618TIP3    H237796   8.049   3.667   4.891
12619TIP3   OH237797   3.442   3.248   0.278
12619TIP3    H137798   3.522   3.268   0.326
12619TIP3    H237799   3.398   3.182   0.332
12620TIP3   OH237800   1.803   6.125   0.364
12620TIP3    H137801   1.873   6.078   0.409
12620TIP3    H237802   1.724   6.103   0.414
12621TIP3   OH237803   6.644   1.729   2.813
12621TIP3    H137804   6.681   1.689   2.892
12621TIP3    H237805   6.583   1.664   2.779
12622TIP3   OH237806   5.492   7.465   0.901
12622TIP3    H137807   5.405   7.464   0.859
12622TIP3    H237808   5.508   7.374   0.925
12623TIP3   OH237809   0.890   5.924   6.289
12623TIP3    H137810   0.820   5.933   6.224
12623TIP3    H237811   0.939   6.006   6.283
12624TIP3   OH237812   6.657   4.999   5.754
12624TIP3    H137813   6.691   5.018   5.841
12624TIP3    H237814   6.596   5.071   5.736
12625TIP3   OH237815   4.314   1.364   1.707
12625TIP3    H137816   4.266   1.288   1.674
12625TIP3    H237817   4.338   1.413   1.629
12626TIP3   OH237818   7.305   0.778   1.169
12626TIP3    H137819   7.249   0.715   1.214
12626TIP3    H237820   7.250   0.857   1.162
12627TIP3   OH237821   6.571   4.436   1.051
12627TIP3    H137822   6.540   4.526   1.064
12627TIP3    H237823   6.598   4.433   0.959
12628TIP3   OH237824   0.444   5.084   5.372
12628TIP3    H137825   0.400   5.169   5.376
12628TIP3    H237826   0.531   5.103   5.337
12629TIP3   OH237827   3.741   4.257   1.085
12629TIP3    H137828   3.682   4.237   1.013
12629TIP3    H237829   3.714   4.199   1.156
12630TIP3   OH237830   1.170   1.152   6.272
12630TIP3    H137831   1.089   1.106   6.252
12630TIP3    H237832   1.158   1.239   6.235
12631TIP3   OH237833   0.471   3.405   1.350
12631TIP3    H137834   0.528   3.401   1.273
12631TIP3    H237835   0.445   3.497   1.357
12632TIP3   OH237836   2.184   2.113   2.652
12632TIP3    H137837   2.098   2.070   2.661
12632TIP3    H237838   2.246   2.040   2.654
12633TIP3   OH237839   2.251   3.419   6.719
12633TIP3    H137840   2.258   3.386   6.630
12633TIP3    H237841   2.174   3.475   6.718
12634TIP3   OH237842   2.008   1.585   6.092
12634TIP3    H137843   2.078   1.641   6.059
12634TIP3    H237844   2.048   1.538   6.165
12635TIP3   OH237845   2.857   3.580   5.181
12635TIP3    H137846   2.924   3.535   5.131
12635TIP3    H237847   2.896   3.665   5.203
12636TIP3   OH237848   8.136   5.563   1.475
12636TIP3    H137849   8.102   5.635   1.422
12636TIP3    H237850   8.138   5.597   1.564
12637TIP3   OH237851   3.634   4.578   0.512
12637TIP3    H137852   3.546   4.552   0.483
12637TIP3    H237853   3.693   4.530   0.454
12638TIP3   OH237854   5.733   4.571   3.982
12638TIP3    H137855   5.728   4.568   4.078
12638TIP3    H237856   5.797   4.640   3.964
12639TIP3   OH237857   6.077   2.986   3.012
12639TIP3    H137858   6.120   2.904   3.036
12639TIP3    H237859   6.129   3.054   3.056
12640TIP3   OH237860   2.360   5.223   5.421
12640TIP3    H137861   2.281   5.217   5.367
12640TIP3    H237862   2.425   5.170   5.376
12641TIP3   OH237863   3.759   6.226   5.749
12641TIP3    H137864   3.710   6.245   5.669
12641TIP3    H237865   3.817   6.301   5.760
12642TIP3   OH237866   8.196   7.082   3.740
12642TIP3    H137867   8.118   7.127   3.771
12642TIP3    H237868   8.209   7.011   3.803
12643TIP3   OH237869   4.450   1.237   0.139
12643TIP3    H137870   4.363   1.271   0.118
12643TIP3    H237871   4.468   1.269   0.227
12644TIP3   OH237872   0.746   7.575   1.657
12644TIP3    H137873   0.690   7.559   1.733
12644TIP3    H237874   0.830   7.603   1.694
12645TIP3   OH237875   1.298   4.849   6.626
12645TIP3    H137876   1.335   4.895   6.702
12645TIP3    H237877   1.211   4.889   6.615
12646TIP3   OH237878   3.975   4.823   3.871
12646TIP3    H137879   4.021   4.748   3.832
12646TIP3    H237880   4.024   4.841   3.952
12647TIP3   OH237881   4.842   3.071   5.951
12647TIP3    H137882   4.896   3.007   5.904
12647TIP3    H237883   4.816   3.026   6.031
12648TIP3   OH237884   5.962   5.084   2.382
12648TIP3    H137885   5.926   5.149   2.321
12648TIP3    H237886   5.968   5.004   2.330
12649TIP3   OH237887   8.332   2.274   2.703
12649TIP3    H137888   8.406   2.297   2.647
12649TIP3    H237889   8.255   2.285   2.647
12650TIP3   OH237890   8.186   6.328   1.111
12650TIP3    H137891   8.222   6.416   1.126
12650TIP3    H237892   8.106   6.343   1.061
12651TIP3   OH237893   5.478   6.833   0.447
12651TIP3    H137894   5.509   6.746   0.471
12651TIP3    H237895   5.394   6.817   0.403
12652TIP3   OH237896   2.120   6.084   0.235
12652TIP3    H137897   2.196   6.036   0.202
12652TIP3    H237898   2.065   6.016   0.275
12653TIP3   OH237899   0.226   6.830   4.675
12653TIP3    H137900   0.140   6.855   4.639
12653TIP3    H237901   0.237   6.888   4.751
12654TIP3   OH237902   6.694   7.780   1.668
12654TIP3    H137903   6.623   7.827   1.711
12654TIP3    H237904   6.744   7.741   1.739
12655TIP3   OH237905   6.871   1.041   0.830
12655TIP3    H137906   6.888   0.980   0.902
12655TIP3    H237907   6.896   1.127   0.865
12656TIP3   OH237908   5.535   5.558   4.300
12656TIP3    H137909   5.585   5.585   4.377
12656TIP3    H237910   5.530   5.462   4.308
12657TIP3   OH237911   0.479   5.858   6.768
12657TIP3    H137912   0.412   5.926   6.777
12657TIP3    H237913   0.543   5.896   6.707
12658TIP3   OH237914   1.768   0.813   2.981
12658TIP3    H137915   1.846   0.764   3.007
12658TIP3    H237916   1.761   0.883   3.046
12659TIP3   OH237917   6.602   7.118   6.308
12659TIP3    H137918   6.685   7.127   6.355
12659TIP3    H237919   6.608   7.032   6.266
12660TIP3   OH237920   3.707   0.159   4.695
12660TIP3    H137921   3.725   0.180   4.787
12660TIP3    H237922   3.794   0.152   4.655
12661TIP3   OH237923   5.054   5.517   0.437
12661TIP3    H137924   5.080   5.603   0.468
12661TIP3    H237925   5.136   5.474   0.412
12662TIP3   OH237926   3.442   2.424   3.162
12662TIP3    H137927   3.427   2.402   3.070
12662TIP3    H237928   3.373   2.487   3.184
12663TIP3   OH237929   1.382   5.978   2.193
12663TIP3    H137930   1.345   6.017   2.114
12663TIP3    H237931   1.394   6.052   2.253
12664TIP3   OH237932   6.535   5.243   2.028
12664TIP3    H137933   6.451   5.287   2.038
12664TIP3    H237934   6.600   5.313   2.038
12665TIP3   OH237935   4.843   4.332   0.673
12665TIP3    H137936   4.908   4.373   0.730
12665TIP3    H237937   4.805   4.262   0.727
12666TIP3   OH237938   3.606   4.610   3.588
12666TIP3    H137939   3.693   4.649   3.598
12666TIP3    H237940   3.619   4.518   3.611
12667TIP3   OH237941   1.768   5.780   3.219
12667TIP3    H137942   1.826   5.848   3.256
12667TIP3    H237943   1.682   5.822   3.215
12668TIP3   OH237944   7.624   1.386   6.200
12668TIP3    H137945   7.703   1.336   6.223
12668TIP3    H237946   7.595   1.347   6.117
12669TIP3   OH237947   7.692   5.108   3.271
12669TIP3    H137948   7.749   5.040   3.236
12669TIP3    H237949   7.606   5.087   3.235
12670TIP3   OH237950   2.234   5.558   2.371
12670TIP3    H137951   2.315   5.582   2.417
12670TIP3    H237952   2.262   5.494   2.306
12671TIP3   OH237953   0.737   1.427   4.246
12671TIP3    H137954   0.649   1.390   4.255
12671TIP3    H237955   0.738   1.502   4.306
12672TIP3   OH237956   0.117   3.896   5.271
12672TIP3    H137957   0.149   3.943   5.194
12672TIP3    H237958   0.025   3.924   5.279
12673TIP3   OH237959   3.522   0.365   3.433
12673TIP3    H137960   3.545   0.409   3.515
12673TIP3    H237961   3.485   0.434   3.378
12674TIP3   OH237962   1.764   2.798   3.185
12674TIP3    H137963   1.825   2.788   3.112
12674TIP3    H237964   1.815   2.774   3.262
12675TIP3   OH237965   4.557   0.495   6.286
12675TIP3    H137966   4.531   0.502   6.194
12675TIP3    H237967   4.531   0.579   6.324
12676TIP3   OH237968   8.276   5.539   5.723
12676TIP3    H137969   8.267   5.593   5.645
12676TIP3    H237970   8.356   5.488   5.708
12677TIP3   OH237971   3.487   4.805   5.145
12677TIP3    H137972   3.505   4.782   5.236
12677TIP3    H237973   3.530   4.890   5.133
12678TIP3   OH237974   5.729   4.226   4.755
12678TIP3    H137975   5.727   4.226   4.659
12678TIP3    H237976   5.822   4.218   4.777
12679TIP3   OH237977   4.716   2.755   6.492
12679TIP3    H137978   4.711   2.731   6.585
12679TIP3    H237979   4.715   2.850   6.491
12680TIP3   OH237980   1.116   3.814   3.684
12680TIP3    H137981   1.090   3.847   3.598
12680TIP3    H237982   1.061   3.737   3.697
12681TIP3   OH237983   0.812   1.851   2.214
12681TIP3    H137984   0.861   1.769   2.207
12681TIP3    H237985   0.818   1.890   2.126
12682TIP3   OH237986   7.848   7.839   2.725
12682TIP3    H137987   7.789   7.778   2.682
12682TIP3    H237988   7.901   7.785   2.783
12683TIP3   OH237989   3.475   3.601   3.036
12683TIP3    H137990   3.410   3.534   3.056
12683TIP3    H237991   3.424   3.675   3.002
12684TIP3   OH237992   5.774   5.046   4.360
12684TIP3    H137993   5.844   5.039   4.425
12684TIP3    H237994   5.729   4.962   4.364
12685TIP3   OH237995   2.222   0.407   6.542
12685TIP3    H137996   2.201   0.372   6.628
12685TIP3    H237997   2.244   0.499   6.558
12686TIP3   OH237998   4.731   6.372   3.508
12686TIP3    H137999   4.724   6.282   3.539
12686TIP3    H238000   4.822   6.397   3.527
12687TIP3   OH238001   5.034   1.716   4.369
12687TIP3    H138002   4.977   1.741   4.297
12687TIP3    H238003   5.122   1.716   4.331
12688TIP3   OH238004   3.631   6.112   3.544
12688TIP3    H138005   3.568   6.090   3.612
12688TIP3    H238006   3.680   6.186   3.580
12689TIP3   OH238007   5.488   5.900   3.857
12689TIP3    H138008   5.501   5.994   3.841
12689TIP3    H238009   5.423   5.897   3.928
12690TIP3   OH238010   7.959   2.111   2.716
12690TIP3    H138011   7.948   2.104   2.811
12690TIP3    H238012   8.003   2.029   2.692
12691TIP3   OH238013   1.206   3.015   2.021
12691TIP3    H138014   1.146   3.059   1.961
12691TIP3    H238015   1.170   3.033   2.108
12692TIP3   OH238016   5.877   6.483   3.656
12692TIP3    H138017   5.950   6.527   3.700
12692TIP3    H238018   5.905   6.392   3.647
12693TIP3   OH238019   1.774   0.721   4.217
12693TIP3    H138020   1.868   0.733   4.233
12693TIP3    H238021   1.759   0.761   4.131
12694TIP3   OH238022   0.433   3.133   4.607
12694TIP3    H138023   0.366   3.064   4.603
12694TIP3    H238024   0.514   3.086   4.627
12695TIP3   OH238025   7.568   4.671   5.935
12695TIP3    H138026   7.521   4.606   5.882
12695TIP3    H238027   7.590   4.624   6.015
12696TIP3   OH238028   4.316   3.722   5.477
12696TIP3    H138029   4.308   3.724   5.572
12696TIP3    H238030   4.403   3.759   5.459
12697TIP3   OH238031   1.752   0.918   4.484
12697TIP3    H138032   1.695   0.955   4.552
12697TIP3    H238033   1.834   0.898   4.529
12698TIP3   OH238034   4.427   4.310   0.112
12698TIP3    H138035   4.465   4.270   0.034
12698TIP3    H238036   4.490   4.291   0.181
12699TIP3   OH238037   4.740   5.477   5.686
12699TIP3    H138038   4.738   5.438   5.599
12699TIP3    H238039   4.817   5.534   5.686
12700TIP3   OH238040   4.006   5.261   0.324
12700TIP3    H138041   3.988   5.319   0.251
12700TIP3    H238042   4.050   5.186   0.285
12701TIP3   OH238043   0.534   7.523   0.285
12701TIP3    H138044   0.440   7.544   0.285
12701TIP3    H238045   0.577   7.608   0.299
12702TIP3   OH238046   2.485   4.298   3.910
12702TIP3    H138047   2.491   4.385   3.950
12702TIP3    H238048   2.506   4.313   3.818
12703TIP3   OH238049   1.969   3.628   0.703
12703TIP3    H138050   1.970   3.682   0.783
12703TIP3    H238051   1.979   3.539   0.734
12704TIP3   OH238052   7.447   6.921   3.220
12704TIP3    H138053   7.503   6.844   3.212
12704TIP3    H238054   7.478   6.965   3.300
12705TIP3   OH238055   4.409   2.394   0.761
12705TIP3    H138056   4.425   2.355   0.675
12705TIP3    H238057   4.333   2.347   0.795
12706TIP3   OH238058   3.876   2.952   3.558
12706TIP3    H138059   3.931   2.948   3.480
12706TIP3    H238060   3.922   3.013   3.616
12707TIP3   OH238061   6.354   0.318   3.905
12707TIP3    H138062   6.270   0.320   3.859
12707TIP3    H238063   6.416   0.284   3.841
12708TIP3   OH238064   5.525   7.361   5.027
12708TIP3    H138065   5.450   7.404   5.070
12708TIP3    H238066   5.571   7.317   5.099
12709TIP3   OH238067   4.243   0.485   1.205
12709TIP3    H138068   4.319   0.484   1.147
12709TIP3    H238069   4.247   0.570   1.249
12710TIP3   OH238070   0.711   2.538   0.419
12710TIP3    H138071   0.766   2.616   0.412
12710TIP3    H238072   0.744   2.480   0.350
12711TIP3   OH238073   2.918   5.717   1.883
12711TIP3    H138074   2.893   5.793   1.935
12711TIP3    H238075   2.924   5.645   1.947
12712TIP3   OH238076   0.867   7.699   5.324
12712TIP3    H138077   0.963   7.701   5.326
12712TIP3    H238078   0.845   7.606   5.333
12713TIP3   OH238079   6.803   1.947   2.624
12713TIP3    H138080   6.895   1.977   2.626
12713TIP3    H238081   6.799   1.878   2.690
12714TIP3   OH238082   7.758   2.535   3.430
12714TIP3    H138083   7.828   2.484   3.389
12714TIP3    H238084   7.681   2.519   3.374
12715TIP3   OH238085   5.936   6.317   6.420
12715TIP3    H138086   5.864   6.278   6.471
12715TIP3    H238087   5.892   6.361   6.347
12716TIP3   OH238088   2.912   2.238   0.408
12716TIP3    H138089   2.944   2.158   0.450
12716TIP3    H238090   2.817   2.227   0.403
12717TIP3   OH238091   4.804   4.530   1.728
12717TIP3    H138092   4.898   4.515   1.720
12717TIP3    H238093   4.781   4.574   1.646
12718TIP3   OH238094   6.214   7.856   2.254
12718TIP3    H138095   6.153   7.879   2.184
12718TIP3    H238096   6.203   7.923   2.320
12719TIP3   OH238097   2.650   5.259   0.143
12719TIP3    H138098   2.706   5.253   0.066
12719TIP3    H238099   2.565   5.287   0.108
12720TIP3   OH238100   1.731   0.559   6.284
12720TIP3    H138101   1.812   0.518   6.316
12720TIP3    H238102   1.761   0.629   6.226
12721TIP3   OH238103   0.078   5.828   3.713
12721TIP3    H138104   0.084   5.770   3.790
12721TIP3    H238105   0.156   5.884   3.720
12722TIP3   OH238106   2.096   3.981   5.628
12722TIP3    H138107   2.128   4.069   5.606
12722TIP3    H238108   2.174   3.931   5.651
12723TIP3   OH238109   5.767   7.293   0.701
12723TIP3    H138110   5.855   7.323   0.679
12723TIP3    H238111   5.734   7.256   0.619
12724TIP3   OH238112   0.675   6.654   3.459
12724TIP3    H138113   0.612   6.667   3.529
12724TIP3    H238114   0.671   6.560   3.441
12725TIP3   OH238115   6.446   7.585   4.083
12725TIP3    H138116   6.368   7.583   4.139
12725TIP3    H238117   6.500   7.655   4.119
12726TIP3   OH238118   1.033   1.264   5.868
12726TIP3    H138119   0.940   1.251   5.847
12726TIP3    H238120   1.062   1.181   5.903
12727TIP3   OH238121   3.641   1.561   4.795
12727TIP3    H138122   3.681   1.495   4.852
12727TIP3    H238123   3.595   1.510   4.728
12728TIP3   OH238124   4.890   3.503   1.085
12728TIP3    H138125   4.878   3.436   1.017
12728TIP3    H238126   4.982   3.496   1.109
12729TIP3   OH238127   8.179   0.461   6.480
12729TIP3    H138128   8.240   0.421   6.543
12729TIP3    H238129   8.192   0.555   6.490
12730TIP3   OH238130   1.331   5.656   6.109
12730TIP3    H138131   1.323   5.584   6.045
12730TIP3    H238132   1.365   5.614   6.188
12731TIP3   OH238133   7.334   0.519   4.655
12731TIP3    H138134   7.358   0.584   4.721
12731TIP3    H238135   7.414   0.504   4.605
12732TIP3   OH238136   6.888   7.819   1.269
12732TIP3    H138137   6.814   7.765   1.240
12732TIP3    H238138   6.847   7.894   1.313
12733TIP3   OH238139   7.571   6.804   1.600
12733TIP3    H138140   7.591   6.819   1.507
12733TIP3    H238141   7.650   6.763   1.635
12734TIP3   OH238142   3.753   5.094   5.994
12734TIP3    H138143   3.739   5.082   5.900
12734TIP3    H238144   3.670   5.130   6.026
12735TIP3   OH238145   3.847   3.788   4.239
12735TIP3    H138146   3.864   3.732   4.163
12735TIP3    H238147   3.832   3.727   4.311
12736TIP3   OH238148   1.463   4.468   6.468
12736TIP3    H138149   1.415   4.394   6.430
12736TIP3    H238150   1.471   4.446   6.560
12737TIP3   OH238151   0.407   5.382   2.959
12737TIP3    H138152   0.408   5.322   3.034
12737TIP3    H238153   0.479   5.442   2.975
12738TIP3   OH238154   6.979   7.787   0.434
12738TIP3    H138155   6.903   7.741   0.470
12738TIP3    H238156   6.943   7.868   0.397
12739TIP3   OH238157   5.301   0.649   5.693
12739TIP3    H138158   5.259   0.615   5.772
12739TIP3    H238159   5.357   0.720   5.724
12740TIP3   OH238160   1.142   4.228   5.034
12740TIP3    H138161   1.158   4.306   4.981
12740TIP3    H238162   1.050   4.235   5.060
12741TIP3   OH238163   7.084   2.816   1.932
12741TIP3    H138164   7.063   2.728   1.902
12741TIP3    H238165   7.156   2.844   1.876
12742TIP3   OH238166   0.059   4.223   6.814
12742TIP3    H138167   0.012   4.260   6.739
12742TIP3    H238168   0.135   4.178   6.775
12743TIP3   OH238169   8.092   6.897   6.640
12743TIP3    H138170   8.142   6.818   6.618
12743TIP3    H238171   8.085   6.895   6.736
12744TIP3   OH238172   1.932   1.184   3.890
12744TIP3    H138173   1.845   1.202   3.924
12744TIP3    H238174   1.916   1.148   3.803
12745TIP3   OH238175   2.506   6.439   3.820
12745TIP3    H138176   2.525   6.402   3.906
12745TIP3    H238177   2.561   6.388   3.760
12746TIP3   OH238178   4.965   4.788   2.089
12746TIP3    H138179   4.914   4.814   2.012
12746TIP3    H238180   4.916   4.824   2.163
12747TIP3   OH238181   8.219   5.919   1.440
12747TIP3    H138182   8.134   5.875   1.447
12747TIP3    H238183   8.215   5.966   1.357
12748TIP3   OH238184   2.849   2.974   5.038
12748TIP3    H138185   2.793   2.983   5.116
12748TIP3    H238186   2.787   2.968   4.965
12749TIP3   OH238187   5.105   5.095   3.376
12749TIP3    H138188   5.163   5.089   3.300
12749TIP3    H238189   5.067   5.007   3.384
12750TIP3   OH238190   7.017   4.394   3.706
12750TIP3    H138191   7.035   4.397   3.800
12750TIP3    H238192   6.941   4.451   3.694
12751TIP3   OH238193   0.644   4.089   0.541
12751TIP3    H138194   0.710   4.156   0.556
12751TIP3    H238195   0.682   4.009   0.578
12752TIP3   OH238196   2.777   1.047   4.798
12752TIP3    H138197   2.698   1.086   4.836
12752TIP3    H238198   2.754   0.954   4.787
12753TIP3   OH238199   6.508   2.596   3.987
12753TIP3    H138200   6.487   2.550   3.907
12753TIP3    H238201   6.603   2.588   3.996
12754TIP3   OH238202   7.966   6.232   5.625
12754TIP3    H138203   7.953   6.289   5.549
12754TIP3    H238204   7.953   6.290   5.701
12755TIP3   OH238205   0.235   7.703   3.946
12755TIP3    H138206   0.216   7.632   3.885
12755TIP3    H238207   0.150   7.723   3.987
12756TIP3   OH238208   1.547   3.030   4.862
12756TIP3    H138209   1.535   3.038   4.956
12756TIP3    H238210   1.580   2.941   4.848
12757TIP3   OH238211   3.420   6.388   0.028
12757TIP3    H138212   3.375   6.423   0.105
12757TIP3    H238213   3.452   6.466  -0.019
12758TIP3   OH238214   6.480   0.969   6.468
12758TIP3    H138215   6.403   1.007   6.426
12758TIP3    H238216   6.460   0.876   6.476
12759TIP3   OH238217   1.315   4.319   2.710
12759TIP3    H138218   1.273   4.236   2.687
12759TIP3    H238219   1.368   4.298   2.787
12760TIP3   OH238220   0.784   2.049   0.285
12760TIP3    H138221   0.808   1.978   0.344
12760TIP3    H238222   0.822   2.023   0.201
12761TIP3   OH238223   6.198   4.521   1.220
12761TIP3    H138224   6.110   4.512   1.184
12761TIP3    H238225   6.186   4.573   1.299
12762TIP3   OH238226   6.633   4.266   0.221
12762TIP3    H138227   6.677   4.188   0.252
12762TIP3    H238228   6.682   4.339   0.259
12763TIP3   OH238229   5.346   5.935   4.620
12763TIP3    H138230   5.363   5.985   4.700
12763TIP3    H238231   5.260   5.965   4.591
12764TIP3   OH238232   8.254   3.352   3.393
12764TIP3    H138233   8.347   3.348   3.415
12764TIP3    H238234   8.239   3.443   3.366
12765TIP3   OH238235   2.141   3.674   1.536
12765TIP3    H138236   2.118   3.705   1.448
12765TIP3    H238237   2.215   3.728   1.563
12766TIP3   OH238238   3.118   1.609   5.416
12766TIP3    H138239   3.032   1.651   5.418
12766TIP3    H238240   3.109   1.539   5.352
12767TIP3   OH238241   3.836   6.946   3.942
12767TIP3    H138242   3.833   6.900   4.027
12767TIP3    H238243   3.796   6.884   3.881
12768TIP3   OH238244   1.271   5.400   3.324
12768TIP3    H138245   1.342   5.372   3.382
12768TIP3    H238246   1.241   5.319   3.283
12769TIP3   OH238247   1.800   5.822   2.958
12769TIP3    H138248   1.774   5.799   3.047
12769TIP3    H238249   1.733   5.884   2.929
12770TIP3   OH238250   7.192   3.975   0.881
12770TIP3    H138251   7.131   3.920   0.930
12770TIP3    H238252   7.195   3.936   0.793
12771TIP3   OH238253   6.988   5.867   0.170
12771TIP3    H138254   7.082   5.851   0.168
12771TIP3    H238255   6.979   5.960   0.148
12772TIP3   OH238256   1.913   3.564   2.943
12772TIP3    H138257   1.923   3.591   3.035
12772TIP3    H238258   2.001   3.536   2.917
12773TIP3   OH238259   1.891   4.722   1.097
12773TIP3    H138260   1.877   4.785   1.168
12773TIP3    H238261   1.852   4.641   1.130
12774TIP3   OH238262   5.399   1.665   0.444
12774TIP3    H138263   5.332   1.725   0.412
12774TIP3    H238264   5.395   1.591   0.383
12775TIP3   OH238265   2.166   5.625   3.893
12775TIP3    H138266   2.241   5.651   3.947
12775TIP3    H238267   2.179   5.531   3.878
12776TIP3   OH238268   5.004   5.304   1.239
12776TIP3    H138269   4.981   5.219   1.204
12776TIP3    H238270   5.074   5.336   1.181
12777TIP3   OH238271   2.258   0.859   1.453
12777TIP3    H138272   2.182   0.801   1.451
12777TIP3    H238273   2.332   0.802   1.436
12778TIP3   OH238274   6.379   5.655   5.658
12778TIP3    H138275   6.327   5.583   5.695
12778TIP3    H238276   6.431   5.613   5.589
12779TIP3   OH238277   1.765   1.495   1.077
12779TIP3    H138278   1.747   1.535   1.162
12779TIP3    H238279   1.853   1.526   1.054
12780TIP3   OH238280   0.557   0.406   4.694
12780TIP3    H138281   0.621   0.457   4.743
12780TIP3    H238282   0.537   0.332   4.751
12781TIP3   OH238283   6.332   5.085   0.571
12781TIP3    H138284   6.378   5.103   0.653
12781TIP3    H238285   6.400   5.093   0.504
12782TIP3   OH238286   1.035   1.548   0.401
12782TIP3    H138287   1.102   1.479   0.399
12782TIP3    H238288   1.083   1.629   0.385
12783TIP3   OH238289   8.265   7.889   0.135
12783TIP3    H138290   8.252   7.795   0.119
12783TIP3    H238291   8.176   7.925   0.140
12784TIP3   OH238292   1.586   4.569   0.026
12784TIP3    H138293   1.657   4.598   0.083
12784TIP3    H238294   1.512   4.626   0.048
12785TIP3   OH238295   2.337   2.805   3.676
12785TIP3    H138296   2.397   2.870   3.713
12785TIP3    H238297   2.271   2.857   3.629
12786TIP3   OH238298   2.581   2.720   0.920
12786TIP3    H138299   2.486   2.710   0.924
12786TIP3    H238300   2.611   2.641   0.874
12787TIP3   OH238301   5.643   1.378   0.731
12787TIP3    H138302   5.647   1.303   0.672
12787TIP3    H238303   5.550   1.397   0.740
12788TIP3   OH238304   7.380   3.126   2.143
12788TIP3    H138305   7.301   3.180   2.134
12788TIP3    H238306   7.350   3.047   2.189
12789TIP3   OH238307   8.118   2.181   1.500
12789TIP3    H138308   8.080   2.266   1.478
12789TIP3    H238309   8.086   2.163   1.589
12790TIP3   OH238310   0.978   4.582   5.763
12790TIP3    H138311   0.980   4.488   5.783
12790TIP3    H238312   1.068   4.603   5.737
12791TIP3   OH238313   1.111   7.850   5.166
12791TIP3    H138314   1.206   7.848   5.158
12791TIP3    H238315   1.082   7.766   5.132
12792TIP3   OH238316   2.720   2.747   6.841
12792TIP3    H138317   2.678   2.668   6.876
12792TIP3    H238318   2.659   2.778   6.774
12793TIP3   OH238319   1.290   3.540   0.611
12793TIP3    H138320   1.368   3.578   0.569
12793TIP3    H238321   1.275   3.458   0.565
12794TIP3   OH238322   3.571   5.955   5.816
12794TIP3    H138323   3.635   5.976   5.884
12794TIP3    H238324   3.540   5.867   5.838
12795TIP3   OH238325   5.827   0.696   0.867
12795TIP3    H138326   5.801   0.762   0.803
12795TIP3    H238327   5.910   0.662   0.833
12796TIP3   OH238328   0.467   7.615   4.828
12796TIP3    H138329   0.479   7.709   4.813
12796TIP3    H238330   0.460   7.606   4.923
12797TIP3   OH238331   5.593   4.398   1.234
12797TIP3    H138332   5.529   4.451   1.282
12797TIP3    H238333   5.573   4.415   1.142
12798TIP3   OH238334   0.452   7.533   0.687
12798TIP3    H138335   0.536   7.573   0.666
12798TIP3    H238336   0.454   7.517   0.781
12799TIP3   OH238337   4.097   5.642   4.314
12799TIP3    H138338   4.143   5.701   4.253
12799TIP3    H238339   4.046   5.584   4.258
12800TIP3   OH238340   1.806   4.678   2.554
12800TIP3    H138341   1.822   4.628   2.634
12800TIP3    H238342   1.810   4.614   2.484
12801TIP3   OH238343   1.720   1.817   5.443
12801TIP3    H138344   1.783   1.746   5.450
12801TIP3    H238345   1.676   1.820   5.528
12802TIP3   OH238346   6.290   2.110   2.211
12802TIP3    H138347   6.337   2.119   2.128
12802TIP3    H238348   6.237   2.031   2.200
12803TIP3   OH238349   1.547   2.938   3.257
12803TIP3    H138350   1.575   3.028   3.277
12803TIP3    H238351   1.625   2.896   3.220
12804TIP3   OH238352   4.712   6.084   0.292
12804TIP3    H138353   4.673   6.146   0.231
12804TIP3    H238354   4.748   6.138   0.362
12805TIP3   OH238355   2.557   4.996   3.660
12805TIP3    H138356   2.498   4.921   3.660
12805TIP3    H238357   2.566   5.020   3.568
12806TIP3   OH238358   4.590   3.814   2.184
12806TIP3    H138359   4.568   3.867   2.108
12806TIP3    H238360   4.660   3.756   2.153
12807TIP3   OH238361   5.268   4.239   2.364
12807TIP3    H138362   5.344   4.283   2.324
12807TIP3    H238363   5.278   4.147   2.341
12808TIP3   OH238364   4.167   1.048   1.122
12808TIP3    H138365   4.223   1.051   1.044
12808TIP3    H238366   4.157   1.140   1.148
12809TIP3   OH238367   6.293   0.321   3.439
12809TIP3    H138368   6.262   0.394   3.493
12809TIP3    H238369   6.249   0.244   3.474
12810TIP3   OH238370   5.674   5.420   3.541
12810TIP3    H138371   5.721   5.350   3.586
12810TIP3    H238372   5.609   5.450   3.605
12811TIP3   OH238373   4.434   7.407   2.499
12811TIP3    H138374   4.431   7.387   2.593
12811TIP3    H238375   4.442   7.321   2.457
12812TIP3   OH238376   6.618   1.612   3.369
12812TIP3    H138377   6.678   1.652   3.306
12812TIP3    H238378   6.531   1.631   3.335
12813TIP3   OH238379   0.179   0.083   1.031
12813TIP3    H138380   0.190   0.033   1.112
12813TIP3    H238381   0.120   0.154   1.054
12814TIP3   OH238382   2.446   0.413   3.732
12814TIP3    H138383   2.500   0.456   3.798
12814TIP3    H238384   2.399   0.345   3.780
12815TIP3   OH238385   0.160   4.651   4.019
12815TIP3    H138386   0.207   4.603   3.951
12815TIP3    H238387   0.167   4.596   4.097
12816TIP3   OH238388   0.394   7.702   1.681
12816TIP3    H138389   0.314   7.753   1.669
12816TIP3    H238390   0.458   7.742   1.622
12817TIP3   OH238391   3.029   1.482   4.445
12817TIP3    H138392   3.101   1.426   4.415
12817TIP3    H238393   3.060   1.571   4.430
12818TIP3   OH238394   6.780   6.566   2.108
12818TIP3    H138395   6.796   6.542   2.017
12818TIP3    H238396   6.867   6.574   2.147
12819TIP3   OH238397   2.326   2.328   3.444
12819TIP3    H138398   2.386   2.323   3.370
12819TIP3    H238399   2.327   2.241   3.483
12820TIP3   OH238400   6.132   3.263   3.553
12820TIP3    H138401   6.214   3.293   3.592
12820TIP3    H238402   6.110   3.331   3.489
12821TIP3   OH238403   4.428   4.814   3.848
12821TIP3    H138404   4.510   4.826   3.800
12821TIP3    H238405   4.401   4.902   3.873
12822TIP3   OH238406   4.719   1.662   6.186
12822TIP3    H138407   4.775   1.739   6.197
12822TIP3    H238408   4.670   1.679   6.105
12823TIP3   OH238409   7.440   4.348   4.480
12823TIP3    H138410   7.407   4.281   4.419
12823TIP3    H238411   7.389   4.335   4.560
12824TIP3   OH238412   7.126   2.289   4.512
12824TIP3    H138413   7.139   2.330   4.427
12824TIP3    H238414   7.147   2.358   4.575
12825TIP3   OH238415   4.442   0.439   2.665
12825TIP3    H138416   4.366   0.393   2.699
12825TIP3    H238417   4.516   0.401   2.712
12826TIP3   OH238418   4.165   3.174   0.393
12826TIP3    H138419   4.123   3.188   0.308
12826TIP3    H238420   4.095   3.140   0.449
12827TIP3   OH238421   6.177   0.711   6.649
12827TIP3    H138422   6.157   0.733   6.740
12827TIP3    H238423   6.106   0.750   6.598
12828TIP3   OH238424   4.151   3.122   3.845
12828TIP3    H138425   4.164   3.149   3.754
12828TIP3    H238426   4.238   3.125   3.883
12829TIP3   OH238427   8.356   6.121   5.172
12829TIP3    H138428   8.322   6.115   5.082
12829TIP3    H238429   8.452   6.121   5.161
12830TIP3   OH238430   3.798   4.670   4.083
12830TIP3    H138431   3.729   4.611   4.053
12830TIP3    H238432   3.877   4.617   4.082
12831TIP3   OH238433   0.255   2.132   4.564
12831TIP3    H138434   0.276   2.058   4.621
12831TIP3    H238435   0.295   2.207   4.606
12832TIP3   OH238436   8.260   0.973   0.840
12832TIP3    H138437   8.172   0.945   0.814
12832TIP3    H238438   8.316   0.898   0.817
12833TIP3   OH238439   8.368   2.142   0.744
12833TIP3    H138440   8.421   2.215   0.712
12833TIP3    H238441   8.358   2.158   0.838
12834TIP3   OH238442   5.155   1.095   0.860
12834TIP3    H138443   5.195   1.079   0.774
12834TIP3    H238444   5.207   1.165   0.899
12835TIP3   OH238445   2.876   5.796   6.289
12835TIP3    H138446   2.943   5.864   6.296
12835TIP3    H238447   2.880   5.750   6.373
12836TIP3   OH238448   1.607   7.647   6.754
12836TIP3    H138449   1.633   7.682   6.669
12836TIP3    H238450   1.614   7.722   6.814
12837TIP3   OH238451   4.926   2.347   1.174
12837TIP3    H138452   4.893   2.281   1.113
12837TIP3    H238453   4.994   2.302   1.224
12838TIP3   OH238454   7.979   0.559   2.076
12838TIP3    H138455   7.964   0.652   2.094
12838TIP3    H238456   8.073   0.547   2.091
12839TIP3   OH238457   1.352   0.429   4.832
12839TIP3    H138458   1.386   0.347   4.867
12839TIP3    H238459   1.302   0.404   4.754
12840TIP3   OH238460   4.944   2.204   6.285
12840TIP3    H138461   4.987   2.254   6.216
12840TIP3    H238462   4.858   2.245   6.294
12841TIP3   OH238463   1.985   1.174   6.827
12841TIP3    H138464   1.901   1.135   6.851
12841TIP3    H238465   2.046   1.139   6.892
12842TIP3   OH238466   3.423   7.103   5.379
12842TIP3    H138467   3.337   7.136   5.353
12842TIP3    H238468   3.412   7.078   5.471
12843TIP3   OH238469   1.990   4.307   3.467
12843TIP3    H138470   1.939   4.305   3.548
12843TIP3    H238471   1.958   4.384   3.421
12844TIP3   OH238472   7.719   7.215   1.444
12844TIP3    H138473   7.628   7.233   1.471
12844TIP3    H238474   7.752   7.155   1.511
12845TIP3   OH238475   7.286   3.787   6.383
12845TIP3    H138476   7.327   3.731   6.449
12845TIP3    H238477   7.316   3.751   6.300
12846TIP3   OH238478   3.980   4.782   6.654
12846TIP3    H138479   4.050   4.790   6.588
12846TIP3    H238480   3.952   4.691   6.648
12847TIP3   OH238481   1.304   2.190   5.207
12847TIP3    H138482   1.251   2.176   5.128
12847TIP3    H238483   1.388   2.221   5.174
12848TIP3   OH238484   3.287   6.691   5.194
12848TIP3    H138485   3.324   6.646   5.269
12848TIP3    H238486   3.357   6.693   5.129
12849TIP3   OH238487   3.228   6.400   2.234
12849TIP3    H138488   3.139   6.417   2.266
12849TIP3    H238489   3.228   6.436   2.145
12850TIP3   OH238490   6.039   7.183   4.786
12850TIP3    H138491   6.033   7.169   4.880
12850TIP3    H238492   6.023   7.097   4.748
12851TIP3   OH238493   8.356   2.861   0.175
12851TIP3    H138494   8.309   2.783   0.146
12851TIP3    H238495   8.291   2.931   0.172
12852TIP3   OH238496   0.647   6.483   4.154
12852TIP3    H138497   0.596   6.476   4.235
12852TIP3    H238498   0.727   6.529   4.180
12853TIP3   OH238499   3.015   5.168   6.371
12853TIP3    H138500   2.952   5.196   6.438
12853TIP3    H238501   3.101   5.180   6.413
12854TIP3   OH238502   5.209   6.120   5.359
12854TIP3    H138503   5.131   6.069   5.339
12854TIP3    H238504   5.186   6.210   5.337
12855TIP3   OH238505   7.501   3.204   2.967
12855TIP3    H138506   7.489   3.280   2.911
12855TIP3    H238507   7.556   3.235   3.039
12856TIP3   OH238508   1.574   7.724   5.966
12856TIP3    H138509   1.566   7.819   5.973
12856TIP3    H238510   1.643   7.711   5.901
12857TIP3   OH238511   5.336   7.097   6.341
12857TIP3    H138512   5.261   7.113   6.284
12857TIP3    H238513   5.315   7.016   6.386
12858TIP3   OH238514   1.484   5.518   4.352
12858TIP3    H138515   1.418   5.453   4.375
12858TIP3    H238516   1.462   5.544   4.263
12859TIP3   OH238517   7.114   7.639   1.272
12859TIP3    H138518   7.077   7.563   1.226
12859TIP3    H238519   7.044   7.704   1.271
12860TIP3   OH238520   8.244   0.931   3.343
12860TIP3    H138521   8.254   0.852   3.290
12860TIP3    H238522   8.176   0.908   3.407
12861TIP3   OH238523   2.621   2.264   0.074
12861TIP3    H138524   2.615   2.342   0.020
12861TIP3    H238525   2.712   2.262   0.104
12862TIP3   OH238526   0.127   3.059   4.767
12862TIP3    H138527   0.169   3.145   4.773
12862TIP3    H238528   0.167   3.017   4.691
12863TIP3   OH238529   1.378   0.727   3.100
12863TIP3    H138530   1.311   0.770   3.046
12863TIP3    H238531   1.453   0.718   3.041
12864TIP3   OH238532   1.131   4.238   0.967
12864TIP3    H138533   1.050   4.228   1.016
12864TIP3    H238534   1.139   4.333   0.954
12865TIP3   OH238535   2.663   7.835   3.362
12865TIP3    H138536   2.698   7.842   3.451
12865TIP3    H238537   2.587   7.779   3.370
12866TIP3   OH238538   1.400   6.006   1.257
12866TIP3    H138539   1.462   6.067   1.217
12866TIP3    H238540   1.322   6.013   1.203
12867TIP3   OH238541   3.392  -0.027   2.813
12867TIP3    H138542   3.423  -0.009   2.901
12867TIP3    H238543   3.348   0.053   2.786
12868TIP3   OH238544   3.553   6.700   0.245
12868TIP3    H138545   3.494   6.680   0.172
12868TIP3    H238546   3.545   6.625   0.304
12869TIP3   OH238547   7.694   1.585   0.738
12869TIP3    H138548   7.723   1.671   0.767
12869TIP3    H238549   7.755   1.561   0.668
12870TIP3   OH238550   5.233   5.369   5.234
12870TIP3    H138551   5.269   5.347   5.320
12870TIP3    H238552   5.138   5.369   5.247
12871TIP3   OH238553   4.987   7.631   6.060
12871TIP3    H138554   4.923   7.566   6.088
12871TIP3    H238555   4.939   7.714   6.060
12872TIP3   OH238556   4.681   0.800   5.253
12872TIP3    H138557   4.753   0.821   5.194
12872TIP3    H238558   4.603   0.803   5.197
12873TIP3   OH238559   7.543   2.896   5.862
12873TIP3    H138560   7.481   2.963   5.888
12873TIP3    H238561   7.490   2.829   5.818
12874TIP3   OH238562   0.486   0.721   0.445
12874TIP3    H138563   0.471   0.636   0.487
12874TIP3    H238564   0.399   0.757   0.430
12875TIP3   OH238565   2.905   7.930   4.027
12875TIP3    H138566   2.949   7.849   4.001
12875TIP3    H238567   2.838   7.943   3.960
12876TIP3   OH238568   3.457   3.173   6.506
12876TIP3    H138569   3.466   3.138   6.594
12876TIP3    H238570   3.540   3.217   6.489
12877TIP3   OH238571   0.295   6.846   5.293
12877TIP3    H138572   0.364   6.845   5.227
12877TIP3    H238573   0.225   6.793   5.254
12878TIP3   OH238574   6.920   2.829   0.415
12878TIP3    H138575   6.908   2.895   0.483
12878TIP3    H238576   6.854   2.762   0.434
12879TIP3   OH238577   5.343   4.769   5.056
12879TIP3    H138578   5.264   4.743   5.010
12879TIP3    H238579   5.370   4.850   5.012
12880TIP3   OH238580   7.902   4.715   2.903
12880TIP3    H138581   7.937   4.782   2.845
12880TIP3    H238582   7.881   4.761   2.984
12881TIP3   OH238583   6.089   4.461   6.642
12881TIP3    H138584   6.010   4.409   6.632
12881TIP3    H238585   6.148   4.427   6.575
12882TIP3   OH238586   4.583   7.802   1.173
12882TIP3    H138587   4.513   7.767   1.117
12882TIP3    H238588   4.657   7.744   1.159
12883TIP3   OH238589   0.161   6.818   3.873
12883TIP3    H138590   0.128   6.907   3.884
12883TIP3    H238591   0.200   6.818   3.785
12884TIP3   OH238592   4.069   1.767   5.178
12884TIP3    H138593   4.061   1.816   5.260
12884TIP3    H238594   4.076   1.834   5.110
12885TIP3   OH238595   1.019   7.211   1.061
12885TIP3    H138596   1.035   7.147   0.991
12885TIP3    H238597   1.106   7.229   1.097
12886TIP3   OH238598   7.694   7.762   3.526
12886TIP3    H138599   7.686   7.815   3.446
12886TIP3    H238600   7.761   7.807   3.578
12887TIP3   OH238601   0.510   7.278   0.549
12887TIP3    H138602   0.459   7.315   0.621
12887TIP3    H238603   0.558   7.352   0.513
12888TIP3   OH238604   1.599   2.414   4.010
12888TIP3    H138605   1.610   2.320   4.027
12888TIP3    H238606   1.538   2.444   4.077
12889TIP3   OH238607   7.965   4.036   4.651
12889TIP3    H138608   7.918   4.118   4.666
12889TIP3    H238609   7.900   3.967   4.664
12890TIP3   OH238610   2.616   6.283   6.664
12890TIP3    H138611   2.522   6.300   6.669
12890TIP3    H238612   2.632   6.260   6.573
12891TIP3   OH238613   4.400   0.121   3.700
12891TIP3    H138614   4.412   0.163   3.615
12891TIP3    H238615   4.466   0.162   3.756
12892TIP3   OH238616   7.568   1.879   5.779
12892TIP3    H138617   7.542   1.855   5.869
12892TIP3    H238618   7.549   1.800   5.728
12893TIP3   OH238619   5.046   0.734   4.737
12893TIP3    H138620   5.094   0.817   4.736
12893TIP3    H238621   5.038   0.711   4.644
12894TIP3   OH238622   1.427   0.271   6.556
12894TIP3    H138623   1.463   0.357   6.534
12894TIP3    H238624   1.376   0.285   6.635
12895TIP3   OH238625   7.786   5.682   3.029
12895TIP3    H138626   7.794   5.587   3.023
12895TIP3    H238627   7.833   5.715   2.953
12896TIP3   OH238628   7.576   3.902   4.923
12896TIP3    H138629   7.534   3.826   4.965
12896TIP3    H238630   7.662   3.907   4.963
12897TIP3   OH238631   4.076   4.308   6.467
12897TIP3    H138632   4.051   4.400   6.473
12897TIP3    H238633   4.055   4.272   6.553
12898TIP3   OH238634   4.025   3.934   4.362
12898TIP3    H138635   3.980   3.856   4.330
12898TIP3    H238636   3.954   3.994   4.385
12899TIP3   OH238637   8.372   0.622   0.157
12899TIP3    H138638   8.371   0.714   0.131
12899TIP3    H238639   8.396   0.575   0.078
12900TIP3   OH238640   0.431   6.621   0.716
12900TIP3    H138641   0.407   6.669   0.637
12900TIP3    H238642   0.527   6.626   0.719
12901TIP3   OH238643   0.889   6.956   3.821
12901TIP3    H138644   0.849   6.885   3.771
12901TIP3    H238645   0.847   7.036   3.788
12902TIP3   OH238646   2.776   6.000   5.166
12902TIP3    H138647   2.800   6.063   5.235
12902TIP3    H238648   2.695   5.960   5.198
12903TIP3   OH238649   6.257   7.877   3.933
12903TIP3    H138650   6.204   7.855   3.857
12903TIP3    H238651   6.263   7.972   3.931
12904TIP3   OH238652   2.839   7.024   2.173
12904TIP3    H138653   2.806   6.970   2.245
12904TIP3    H238654   2.925   6.988   2.153
12905TIP3   OH238655   6.653   3.069   1.483
12905TIP3    H138656   6.600   3.126   1.428
12905TIP3    H238657   6.717   3.031   1.424
12906TIP3   OH238658   7.500   7.585   4.041
12906TIP3    H138659   7.406   7.574   4.027
12906TIP3    H238660   7.524   7.660   3.986
12907TIP3   OH238661   1.195   1.235   4.050
12907TIP3    H138662   1.156   1.149   4.063
12907TIP3    H238663   1.186   1.278   4.135
12908TIP3   OH238664   7.287   4.195   5.527
12908TIP3    H138665   7.305   4.150   5.609
12908TIP3    H238666   7.229   4.267   5.551
12909TIP3   OH238667   4.902   5.521   2.979
12909TIP3    H138668   4.943   5.434   2.979
12909TIP3    H238669   4.914   5.553   3.068
12910TIP3   OH238670   4.050   0.213   4.930
12910TIP3    H138671   3.966   0.168   4.935
12910TIP3    H238672   4.114   0.143   4.916
12911TIP3   OH238673   5.378   4.439   0.586
12911TIP3    H138674   5.333   4.523   0.579
12911TIP3    H238675   5.445   4.453   0.652
12912TIP3   OH238676   7.909   1.663   5.343
12912TIP3    H138677   7.921   1.571   5.369
12912TIP3    H238678   7.992   1.704   5.362
12913TIP3   OH238679   0.754   5.295   5.872
12913TIP3    H138680   0.717   5.220   5.825
12913TIP3    H238681   0.763   5.265   5.963
12914TIP3   OH238682   2.965   3.584   0.279
12914TIP3    H138683   2.998   3.635   0.353
12914TIP3    H238684   3.022   3.508   0.274
12915TIP3   OH238685   0.145   4.157   5.400
12915TIP3    H138686   0.092   4.174   5.322
12915TIP3    H238687   0.235   4.175   5.372
12916TIP3   OH238688   5.435   5.521   1.767
12916TIP3    H138689   5.353   5.554   1.804
12916TIP3    H238690   5.433   5.427   1.782
12917TIP3   OH238691   5.425   2.592   5.603
12917TIP3    H138692   5.378   2.645   5.667
12917TIP3    H238693   5.418   2.503   5.636
12918TIP3   OH238694   3.435   6.490   0.374
12918TIP3    H138695   3.368   6.422   0.383
12918TIP3    H238696   3.475   6.496   0.461
12919TIP3   OH238697   7.803   6.630   1.279
12919TIP3    H138698   7.766   6.586   1.355
12919TIP3    H238699   7.882   6.674   1.314
12920TIP3   OH238700   8.234   6.476   4.341
12920TIP3    H138701   8.220   6.457   4.248
12920TIP3    H238702   8.292   6.407   4.372
12921TIP3   OH238703   8.222   7.701   0.337
12921TIP3    H138704   8.164   7.671   0.266
12921TIP3    H238705   8.266   7.778   0.300
12922TIP3   OH238706   8.050   4.124   5.649
12922TIP3    H138707   7.962   4.120   5.610
12922TIP3    H238708   8.091   4.199   5.605
12923TIP3   OH238709   0.709   6.512   5.682
12923TIP3    H138710   0.763   6.495   5.605
12923TIP3    H238711   0.634   6.454   5.673
12924TIP3   OH238712   3.882   3.342   4.802
12924TIP3    H138713   3.857   3.308   4.888
12924TIP3    H238714   3.820   3.414   4.786
12925TIP3   OH238715   8.135   7.775   2.191
12925TIP3    H138716   8.156   7.689   2.155
12925TIP3    H238717   8.083   7.817   2.122
12926TIP3   OH238718   1.867   3.266   3.470
12926TIP3    H138719   1.838   3.282   3.560
12926TIP3    H238720   1.946   3.212   3.480
12927TIP3   OH238721   5.965   7.131   6.312
12927TIP3    H138722   5.987   7.113   6.404
12927TIP3    H238723   6.010   7.063   6.263
12928TIP3   OH238724   3.969   5.677   2.224
12928TIP3    H138725   4.039   5.738   2.246
12928TIP3    H238726   4.004   5.591   2.246
12929TIP3   OH238727   6.925   0.535   2.767
12929TIP3    H138728   6.996   0.526   2.704
12929TIP3    H238729   6.968   0.530   2.853
12930TIP3   OH238730   5.163   5.901   6.073
12930TIP3    H138731   5.213   5.837   6.124
12930TIP3    H238732   5.136   5.967   6.138
12931TIP3   OH238733   7.601   3.475   2.545
12931TIP3    H138734   7.667   3.531   2.505
12931TIP3    H238735   7.527   3.478   2.484
12932TIP3   OH238736   6.939   3.920   0.523
12932TIP3    H138737   6.950   3.883   0.435
12932TIP3    H238738   7.027   3.919   0.560
12933TIP3   OH238739   3.038   3.228   0.769
12933TIP3    H138740   2.949   3.216   0.736
12933TIP3    H238741   3.037   3.316   0.808
12934TIP3   OH238742   0.973   3.138   4.527
12934TIP3    H138743   0.942   3.145   4.618
12934TIP3    H238744   1.044   3.074   4.531
12935TIP3   OH238745   2.681   5.188   2.592
12935TIP3    H138746   2.663   5.256   2.657
12935TIP3    H238747   2.737   5.231   2.527
12936TIP3   OH238748   2.911   4.474   4.712
12936TIP3    H138749   2.854   4.547   4.735
12936TIP3    H238750   2.994   4.514   4.687
12937TIP3   OH238751   6.752   5.580   4.990
12937TIP3    H138752   6.773   5.496   5.031
12937TIP3    H238753   6.666   5.566   4.949
12938TIP3   OH238754   7.561   7.215   4.962
12938TIP3    H138755   7.575   7.298   5.009
12938TIP3    H238756   7.548   7.240   4.871
12939TIP3   OH238757   5.143   7.656   5.263
12939TIP3    H138758   5.150   7.674   5.169
12939TIP3    H238759   5.230   7.676   5.298
12940TIP3   OH238760   2.333   7.692   4.553
12940TIP3    H138761   2.356   7.611   4.598
12940TIP3    H238762   2.280   7.741   4.617
12941TIP3   OH238763   8.245   0.420   2.336
12941TIP3    H138764   8.196   0.363   2.396
12941TIP3    H238765   8.263   0.499   2.387
12942TIP3   OH238766   4.105   7.126   0.189
12942TIP3    H138767   4.096   7.177   0.270
12942TIP3    H238768   4.017   7.124   0.152
12943TIP3   OH238769   0.329   3.035   6.692
12943TIP3    H138770   0.331   3.058   6.785
12943TIP3    H238771   0.237   3.021   6.672
12944TIP3   OH238772   6.362   3.874   1.992
12944TIP3    H138773   6.316   3.825   1.923
12944TIP3    H238774   6.437   3.913   1.947
12945TIP3   OH238775   7.483   3.830   4.256
12945TIP3    H138776   7.479   3.734   4.265
12945TIP3    H238777   7.393   3.855   4.234
12946TIP3   OH238778   4.022   6.276   1.134
12946TIP3    H138779   4.069   6.205   1.178
12946TIP3    H238780   4.034   6.259   1.041
12947TIP3   OH238781   7.880   3.811   1.031
12947TIP3    H138782   7.787   3.831   1.042
12947TIP3    H238783   7.922   3.897   1.028
12948TIP3   OH238784   1.636   5.000   6.825
12948TIP3    H138785   1.593   4.924   6.865
12948TIP3    H238786   1.570   5.069   6.829
12949TIP3   OH238787   0.969   1.689   4.725
12949TIP3    H138788   0.944   1.598   4.741
12949TIP3    H238789   0.891   1.730   4.688
12950TIP3   OH238790   1.517   5.904   3.161
12950TIP3    H138791   1.498   5.927   3.252
12950TIP3    H238792   1.457   5.958   3.110
12951TIP3   OH238793   6.500   5.509   1.028
12951TIP3    H138794   6.519   5.485   0.937
12951TIP3    H238795   6.585   5.505   1.072
12952TIP3   OH238796   2.761   6.587   0.987
12952TIP3    H138797   2.770   6.629   1.073
12952TIP3    H238798   2.801   6.501   0.998
12953TIP3   OH238799   6.551   6.787   1.008
12953TIP3    H138800   6.477   6.744   1.051
12953TIP3    H238801   6.617   6.796   1.077
12954TIP3   OH238802   2.070   1.054   1.078
12954TIP3    H138803   2.000   1.025   1.020
12954TIP3    H238804   2.029   1.058   1.165
12955TIP3   OH238805   2.875   0.899   2.591
12955TIP3    H138806   2.877   0.899   2.687
12955TIP3    H238807   2.866   0.991   2.567
12956TIP3   OH238808   0.235   6.973   2.635
12956TIP3    H138809   0.173   7.013   2.575
12956TIP3    H238810   0.320   7.012   2.612
12957TIP3   OH238811   6.982   2.728   6.167
12957TIP3    H138812   7.069   2.738   6.206
12957TIP3    H238813   6.965   2.813   6.125
12958TIP3   OH238814   4.743   2.709   4.447
12958TIP3    H138815   4.752   2.803   4.465
12958TIP3    H238816   4.675   2.679   4.508
12959TIP3   OH238817   3.701   7.908   4.394
12959TIP3    H138818   3.722   7.948   4.479
12959TIP3    H238819   3.621   7.858   4.410
12960TIP3   OH238820   2.806   7.139   2.499
12960TIP3    H138821   2.898   7.154   2.479
12960TIP3    H238822   2.788   7.051   2.466
12961TIP3   OH238823   5.784   1.360   2.914
12961TIP3    H138824   5.817   1.271   2.910
12961TIP3    H238825   5.850   1.409   2.962
12962TIP3   OH238826   4.523   4.475   3.386
12962TIP3    H138827   4.529   4.562   3.426
12962TIP3    H238828   4.573   4.418   3.446
12963TIP3   OH238829   7.509   0.561   3.809
12963TIP3    H138830   7.559   0.517   3.740
12963TIP3    H238831   7.458   0.491   3.850
12964TIP3   OH238832   3.547   2.492   2.037
12964TIP3    H138833   3.518   2.581   2.018
12964TIP3    H238834   3.477   2.455   2.091
12965TIP3   OH238835   4.790   7.401   3.349
12965TIP3    H138836   4.868   7.346   3.334
12965TIP3    H238837   4.807   7.444   3.432
12966TIP3   OH238838   8.168   2.516   3.771
12966TIP3    H138839   8.201   2.471   3.849
12966TIP3    H238840   8.161   2.447   3.705
12967TIP3   OH238841   1.330   2.960   0.463
12967TIP3    H138842   1.308   2.913   0.383
12967TIP3    H238843   1.310   2.899   0.534
12968TIP3   OH238844   3.835   7.799   6.864
12968TIP3    H138845   3.782   7.847   6.801
12968TIP3    H238846   3.912   7.855   6.878
12969TIP3   OH238847   0.666   0.674   6.636
12969TIP3    H138848   0.651   0.585   6.669
12969TIP3    H238849   0.589   0.692   6.581
12970TIP3   OH238850   3.776   0.273   3.909
12970TIP3    H138851   3.806   0.196   3.958
12970TIP3    H238852   3.771   0.342   3.975
12971TIP3   OH238853   0.732   3.917   4.899
12971TIP3    H138854   0.719   3.880   4.812
12971TIP3    H238855   0.802   3.864   4.938
12972TIP3   OH238856   4.390   6.575   2.687
12972TIP3    H138857   4.379   6.480   2.690
12972TIP3    H238858   4.371   6.604   2.776
12973TIP3   OH238859   0.058   0.426   5.537
12973TIP3    H138860   0.140   0.379   5.520
12973TIP3    H238861  -0.010   0.370   5.500
12974TIP3   OH238862   6.324   5.849   6.137
12974TIP3    H138863   6.266   5.827   6.210
12974TIP3    H238864   6.268   5.899   6.078
12975TIP3   OH238865   0.196   3.653   2.362
12975TIP3    H138866   0.196   3.600   2.441
12975TIP3    H238867   0.108   3.692   2.359
12976TIP3   OH238868   2.389   3.760   4.708
12976TIP3    H138869   2.383   3.707   4.629
12976TIP3    H238870   2.309   3.738   4.757
12977TIP3   OH238871   4.899   0.964   4.005
12977TIP3    H138872   4.964   1.033   4.020
12977TIP3    H238873   4.946   0.896   3.958
12978TIP3   OH238874   5.268   6.626   0.117
12978TIP3    H138875   5.272   6.661   0.028
12978TIP3    H238876   5.192   6.569   0.117
12979TIP3   OH238877   6.716   3.524   0.108
12979TIP3    H138878   6.783   3.555   0.169
12979TIP3    H238879   6.758   3.525   0.022
12980TIP3   OH238880   4.527   0.734   6.459
12980TIP3    H138881   4.557   0.810   6.409
12980TIP3    H238882   4.445   0.763   6.499
12981TIP3   OH238883   6.440   7.857   5.343
12981TIP3    H138884   6.379   7.905   5.399
12981TIP3    H238885   6.412   7.878   5.254
12982TIP3   OH238886   2.841   6.569   5.049
12982TIP3    H138887   2.773   6.505   5.070
12982TIP3    H238888   2.923   6.525   5.070
12983TIP3   OH238889   1.770   6.875   2.485
12983TIP3    H138890   1.800   6.886   2.395
12983TIP3    H238891   1.791   6.958   2.528
12984TIP3   OH238892   6.878   6.488   2.809
12984TIP3    H138893   6.842   6.454   2.892
12984TIP3    H238894   6.901   6.578   2.829
12985TIP3   OH238895   8.068   4.558   3.874
12985TIP3    H138896   8.070   4.645   3.914
12985TIP3    H238897   8.029   4.572   3.787
12986TIP3   OH238898   5.287   1.617   3.412
12986TIP3    H138899   5.268   1.661   3.330
12986TIP3    H238900   5.382   1.625   3.422
12987TIP3   OH238901   2.472   0.244   0.505
12987TIP3    H138902   2.377   0.252   0.497
12987TIP3    H238903   2.491   0.271   0.595
12988TIP3   OH238904   4.301   1.021   0.882
12988TIP3    H138905   4.259   0.980   0.807
12988TIP3    H238906   4.356   0.951   0.918
12989TIP3   OH238907   7.475   1.327   5.942
12989TIP3    H138908   7.463   1.271   5.865
12989TIP3    H238909   7.403   1.302   6.001
12990TIP3   OH238910   5.369   6.234   4.578
12990TIP3    H138911   5.294   6.268   4.529
12990TIP3    H238912   5.331   6.209   4.663
12991TIP3   OH238913   4.705   1.893   5.246
12991TIP3    H138914   4.611   1.898   5.265
12991TIP3    H238915   4.736   1.820   5.299
12992TIP3   OH238916   1.953   1.544   4.119
12992TIP3    H138917   1.925   1.594   4.196
12992TIP3    H238918   1.939   1.453   4.144
12993TIP3   OH238919   6.485   2.383   4.898
12993TIP3    H138920   6.546   2.457   4.893
12993TIP3    H238921   6.541   2.306   4.901
12994TIP3   OH238922   4.812   6.915   3.461
12994TIP3    H138923   4.850   6.843   3.511
12994TIP3    H238924   4.808   6.988   3.523
12995TIP3   OH238925   3.785   3.455   3.259
12995TIP3    H138926   3.747   3.390   3.200
12995TIP3    H238927   3.710   3.507   3.289
12996TIP3   OH238928   7.603   2.030   3.647
12996TIP3    H138929   7.636   1.999   3.731
12996TIP3    H238930   7.651   2.111   3.630
12997TIP3   OH238931   0.349   1.075   2.480
12997TIP3    H138932   0.353   1.005   2.545
12997TIP3    H238933   0.369   1.155   2.528
12998TIP3   OH238934   3.425   1.959   6.546
12998TIP3    H138935   3.463   1.927   6.628
12998TIP3    H238936   3.397   1.879   6.500
12999TIP3   OH238937   5.590   6.647   6.467
12999TIP3    H138938   5.562   6.577   6.408
12999TIP3    H238939   5.685   6.644   6.465
13000TIP3   OH238940   4.108   4.562   5.513
13000TIP3    H138941   4.135   4.519   5.432
13000TIP3    H238942   4.031   4.514   5.542
13001TIP3   OH238943   3.997   0.102   4.636
13001TIP3    H138944   3.957   0.046   4.703
13001TIP3    H238945   4.090   0.077   4.638
13002TIP3   OH238946   3.393   5.197   3.274
13002TIP3    H138947   3.399   5.132   3.343
13002TIP3    H238948   3.473   5.186   3.223
13003TIP3   OH238949   4.408   5.524   5.880
13003TIP3    H138950   4.433   5.447   5.931
13003TIP3    H238951   4.375   5.586   5.945
13004TIP3   OH238952   6.287   2.321   5.413
13004TIP3    H138953   6.290   2.414   5.436
13004TIP3    H238954   6.342   2.314   5.335
13005TIP3   OH238955   6.110   4.508   3.548
13005TIP3    H138956   6.093   4.579   3.487
13005TIP3    H238957   6.031   4.503   3.603
13006TIP3   OH238958   6.759   1.159   1.637
13006TIP3    H138959   6.727   1.212   1.564
13006TIP3    H238960   6.765   1.220   1.710
13007TIP3   OH238961   6.356   3.920   2.479
13007TIP3    H138962   6.282   3.957   2.527
13007TIP3    H238963   6.416   3.994   2.467
13008TIP3   OH238964   3.269   6.896   0.213
13008TIP3    H138965   3.318   6.940   0.143
13008TIP3    H238966   3.276   6.803   0.192
13009TIP3   OH238967   0.501   3.575   5.492
13009TIP3    H138968   0.430   3.549   5.550
13009TIP3    H238969   0.476   3.539   5.407
13010TIP3   OH238970   1.787   2.870   0.353
13010TIP3    H138971   1.724   2.942   0.361
13010TIP3    H238972   1.776   2.819   0.433
13011TIP3   OH238973   6.142   1.481   0.851
13011TIP3    H138974   6.054   1.489   0.816
13011TIP3    H238975   6.144   1.396   0.894
13012TIP3   OH238976   2.355   0.765   2.070
13012TIP3    H138977   2.279   0.721   2.109
13012TIP3    H238978   2.345   0.749   1.976
13013TIP3   OH238979   0.080   0.848   2.676
13013TIP3    H138980  -0.001   0.820   2.634
13013TIP3    H238981   0.146   0.786   2.646
13014TIP3   OH238982   6.606   2.477   5.665
13014TIP3    H138983   6.595   2.476   5.570
13014TIP3    H238984   6.591   2.386   5.691
13015TIP3   OH238985   7.897   2.973   2.744
13015TIP3    H138986   7.861   3.061   2.733
13015TIP3    H238987   7.953   2.979   2.822
13016TIP3   OH238988   2.083   2.997   1.151
13016TIP3    H138989   2.069   2.906   1.177
13016TIP3    H238990   2.019   3.047   1.201
13017TIP3   OH238991   4.853   6.942   1.242
13017TIP3    H138992   4.890   6.959   1.155
13017TIP3    H238993   4.806   7.022   1.264
13018TIP3   OH238994   6.515   2.703   1.481
13018TIP3    H138995   6.560   2.788   1.484
13018TIP3    H238996   6.427   2.722   1.513
13019TIP3   OH238997   5.233   6.332   0.572
13019TIP3    H138998   5.228   6.323   0.477
13019TIP3    H238999   5.305   6.393   0.587
13020TIP3   OH239000   3.995   4.800   2.538
13020TIP3    H139001   3.994   4.851   2.619
13020TIP3    H239002   3.938   4.725   2.555
13021TIP3   OH239003   1.334   2.137   2.768
13021TIP3    H139004   1.259   2.143   2.826
13021TIP3    H239005   1.394   2.076   2.812
13022TIP3   OH239006   3.777   1.228   1.625
13022TIP3    H139007   3.745   1.140   1.647
13022TIP3    H239008   3.828   1.215   1.545
13023TIP3   OH239009   4.037   0.341   1.130
13023TIP3    H139010   4.127   0.367   1.153
13023TIP3    H239011   3.995   0.422   1.104
13024TIP3   OH239012   0.777   1.208   5.832
13024TIP3    H139013   0.731   1.173   5.756
13024TIP3    H239014   0.772   1.139   5.898
13025TIP3   OH239015   6.218   0.764   5.151
13025TIP3    H139016   6.290   0.823   5.174
13025TIP3    H239017   6.259   0.696   5.097
13026TIP3   OH239018   0.422   4.100   4.907
13026TIP3    H139019   0.351   4.092   4.843
13026TIP3    H239020   0.502   4.104   4.855
13027TIP3   OH239021   1.075   6.678   1.792
13027TIP3    H139022   1.113   6.693   1.879
13027TIP3    H239023   0.991   6.634   1.810
13028TIP3   OH239024   5.432   6.301   5.453
13028TIP3    H139025   5.461   6.317   5.542
13028TIP3    H239026   5.369   6.370   5.435
13029TIP3   OH239027   4.027   3.645   6.705
13029TIP3    H139028   4.038   3.716   6.768
13029TIP3    H239029   4.086   3.667   6.633
13030TIP3   OH239030   0.500   7.437   5.922
13030TIP3    H139031   0.544   7.358   5.953
13030TIP3    H239032   0.565   7.480   5.866
13031TIP3   OH239033   4.493   2.466   5.463
13031TIP3    H139034   4.556   2.405   5.501
13031TIP3    H239035   4.521   2.475   5.372
13032TIP3   OH239036   7.915   2.172   3.689
13032TIP3    H139037   7.889   2.188   3.780
13032TIP3    H239038   8.009   2.156   3.693
13033TIP3   OH239039   3.885   0.966   1.197
13033TIP3    H139040   3.946   0.965   1.124
13033TIP3    H239041   3.802   0.996   1.158
13034TIP3   OH239042   0.120   0.264   0.168
13034TIP3    H139043   0.123   0.169   0.175
13034TIP3    H239044   0.171   0.284   0.089
13035TIP3   OH239045   4.128   5.985   3.127
13035TIP3    H139046   4.094   6.006   3.214
13035TIP3    H239047   4.154   6.070   3.091
13036TIP3   OH239048   4.299   6.406   0.616
13036TIP3    H139049   4.256   6.401   0.530
13036TIP3    H239050   4.392   6.399   0.597
13037TIP3   OH239051   6.421   1.126   1.698
13037TIP3    H139052   6.424   1.065   1.772
13037TIP3    H239053   6.436   1.072   1.621
13038TIP3   OH239054   8.039   1.319   5.877
13038TIP3    H139055   8.088   1.237   5.865
13038TIP3    H239056   8.023   1.351   5.788
13039TIP3   OH239057   7.053   1.440   1.335
13039TIP3    H139058   7.086   1.511   1.280
13039TIP3    H239059   7.077   1.466   1.424
13040TIP3   OH239060   1.116   0.094   3.645
13040TIP3    H139061   1.126   0.061   3.556
13040TIP3    H239062   1.202   0.081   3.685
13041TIP3   OH239063   6.349   3.259   4.458
13041TIP3    H139064   6.290   3.267   4.383
13041TIP3    H239065   6.294   3.222   4.527
13042TIP3   OH239066   7.081   5.116   5.431
13042TIP3    H139067   7.157   5.172   5.444
13042TIP3    H239068   7.107   5.031   5.466
13043TIP3   OH239069   7.346   5.779   6.247
13043TIP3    H139070   7.322   5.700   6.201
13043TIP3    H239071   7.425   5.756   6.295
13044TIP3   OH239072   0.036   2.045   4.412
13044TIP3    H139073   0.119   2.056   4.459
13044TIP3    H239074   0.040   1.956   4.376
13045TIP3   OH239075   4.137   3.781   3.137
13045TIP3    H139076   4.116   3.845   3.070
13045TIP3    H239077   4.232   3.770   3.132
13046TIP3   OH239078   3.395   6.456   5.308
13046TIP3    H139079   3.416   6.442   5.215
13046TIP3    H239080   3.370   6.370   5.340
13047TIP3   OH239081   0.952   7.803   4.269
13047TIP3    H139082   0.966   7.726   4.214
13047TIP3    H239083   0.890   7.773   4.336
13048TIP3   OH239084   3.969   2.060   5.550
13048TIP3    H139085   3.885   2.031   5.513
13048TIP3    H239086   4.032   1.995   5.519
13049TIP3   OH239087   5.381   2.747   5.843
13049TIP3    H139088   5.453   2.736   5.905
13049TIP3    H239089   5.361   2.841   5.846
13050TIP3   OH239090   7.250   3.229   4.387
13050TIP3    H139091   7.240   3.193   4.299
13050TIP3    H239092   7.165   3.214   4.429
13051TIP3   OH239093   2.008   7.342   1.626
13051TIP3    H139094   1.955   7.323   1.548
13051TIP3    H239095   1.969   7.422   1.662
13052TIP3   OH239096   7.135   4.193   5.789
13052TIP3    H139097   7.144   4.192   5.884
13052TIP3    H239098   7.070   4.124   5.771
13053TIP3   OH239099   1.577   2.134   5.462
13053TIP3    H139100   1.531   2.051   5.454
13053TIP3    H239101   1.640   2.133   5.390
13054TIP3   OH239102   0.534   1.234   6.729
13054TIP3    H139103   0.550   1.142   6.709
13054TIP3    H239104   0.440   1.247   6.713
13055TIP3   OH239105   6.162   6.135   6.138
13055TIP3    H139106   6.142   6.084   6.216
13055TIP3    H239107   6.086   6.124   6.081
13056TIP3   OH239108   4.518   5.130   1.885
13056TIP3    H139109   4.552   5.098   1.969
13056TIP3    H239110   4.447   5.069   1.863
13057TIP3   OH239111   2.966   0.806   2.129
13057TIP3    H139112   2.935   0.746   2.198
13057TIP3    H239113   3.032   0.756   2.082
13058TIP3   OH239114   2.836   1.426   5.273
13058TIP3    H139115   2.824   1.476   5.192
13058TIP3    H239116   2.822   1.490   5.343
13059TIP3   OH239117   1.663   5.750   2.494
13059TIP3    H139118   1.723   5.690   2.449
13059TIP3    H239119   1.627   5.698   2.566
13060TIP3   OH239120   0.020   0.718   5.307
13060TIP3    H139121   0.114   0.733   5.298
13060TIP3    H239122  -0.014   0.727   5.218
13061TIP3   OH239123   1.572   6.176   5.056
13061TIP3    H139124   1.544   6.266   5.039
13061TIP3    H239125   1.554   6.129   4.975
13062TIP3   OH239126   0.749   3.239   3.462
13062TIP3    H139127   0.715   3.243   3.552
13062TIP3    H239128   0.699   3.169   3.420
13063TIP3   OH239129   4.582   4.002   2.378
13063TIP3    H139130   4.620   3.928   2.331
13063TIP3    H239131   4.596   4.077   2.320
13064TIP3   OH239132   6.877   2.635   4.253
13064TIP3    H139133   6.801   2.587   4.286
13064TIP3    H239134   6.906   2.687   4.328
13065TIP3   OH239135   3.826   7.258   4.074
13065TIP3    H139136   3.839   7.249   3.979
13065TIP3    H239137   3.903   7.307   4.104
13066TIP3   OH239138   1.166   7.288   5.480
13066TIP3    H139139   1.243   7.312   5.430
13066TIP3    H239140   1.184   7.200   5.512
13067TIP3   OH239141   5.818   4.144   0.631
13067TIP3    H139142   5.762   4.107   0.563
13067TIP3    H239143   5.907   4.137   0.597
13068TIP3   OH239144   7.314   7.098   3.799
13068TIP3    H139145   7.383   7.160   3.823
13068TIP3    H239146   7.232   7.146   3.813
13069TIP3   OH239147   5.542   5.497   4.965
13069TIP3    H139148   5.524   5.586   4.934
13069TIP3    H239149   5.609   5.508   5.032
13070TIP3   OH239150   7.304   7.224   0.528
13070TIP3    H139151   7.323   7.172   0.607
13070TIP3    H239152   7.258   7.301   0.561
13071TIP3   OH239153   7.564   3.458   1.641
13071TIP3    H139154   7.574   3.444   1.547
13071TIP3    H239155   7.477   3.424   1.661
13072TIP3   OH239156   0.472   4.068   3.778
13072TIP3    H139157   0.526   4.065   3.857
13072TIP3    H239158   0.518   4.011   3.715
13073TIP3   OH239159   1.205   4.204   3.853
13073TIP3    H139160   1.177   4.285   3.896
13073TIP3    H239161   1.243   4.233   3.770
13074TIP3   OH239162   3.588   3.598   4.372
13074TIP3    H139163   3.497   3.575   4.392
13074TIP3    H239164   3.581   3.676   4.315
13075TIP3   OH239165   6.160   0.607   5.837
13075TIP3    H139166   6.120   0.580   5.920
13075TIP3    H239167   6.249   0.633   5.861
13076TIP3   OH239168   0.420   4.309   4.663
13076TIP3    H139169   0.389   4.349   4.744
13076TIP3    H239170   0.514   4.296   4.676
13077TIP3   OH239171   1.636   3.975   5.439
13077TIP3    H139172   1.705   4.013   5.492
13077TIP3    H239173   1.678   3.904   5.391
13078TIP3   OH239174   2.659   5.501   6.540
13078TIP3    H139175   2.718   5.574   6.525
13078TIP3    H239176   2.573   5.542   6.552
13079TIP3   OH239177   3.943   3.776   1.405
13079TIP3    H139178   3.956   3.806   1.316
13079TIP3    H239179   3.973   3.685   1.405
13080TIP3   OH239180   8.285   1.543   2.068
13080TIP3    H139181   8.282   1.587   1.983
13080TIP3    H239182   8.255   1.454   2.050
13081TIP3   OH239183   6.341   1.136   5.768
13081TIP3    H139184   6.410   1.194   5.736
13081TIP3    H239185   6.343   1.061   5.708
13082TIP3   OH239186   4.443   1.784   5.709
13082TIP3    H139187   4.438   1.688   5.710
13082TIP3    H239188   4.436   1.807   5.616
13083TIP3   OH239189   0.252   5.756   5.994
13083TIP3    H139190   0.214   5.769   5.907
13083TIP3    H239191   0.285   5.666   5.992
13084TIP3   OH239192   5.128   1.622   5.004
13084TIP3    H139193   5.045   1.669   5.010
13084TIP3    H239194   5.190   1.687   4.969
13085TIP3   OH239195   1.545   0.183   0.997
13085TIP3    H139196   1.596   0.261   0.979
13085TIP3    H239197   1.461   0.198   0.954
13086TIP3   OH239198   6.387   6.431   4.657
13086TIP3    H139199   6.443   6.436   4.735
13086TIP3    H239200   6.323   6.364   4.679
13087TIP3   OH239201   1.360   5.638   1.990
13087TIP3    H139202   1.400   5.663   1.906
13087TIP3    H239203   1.390   5.705   2.051
13088TIP3   OH239204   0.996   7.873   6.768
13088TIP3    H139205   1.081   7.877   6.725
13088TIP3    H239206   0.936   7.845   6.700
13089TIP3   OH239207   8.044   0.332   1.649
13089TIP3    H139208   8.072   0.254   1.697
13089TIP3    H239209   7.996   0.384   1.714
13090TIP3   OH239210   5.289   4.781   6.838
13090TIP3    H139211   5.214   4.830   6.869
13090TIP3    H239212   5.253   4.698   6.806
13091TIP3   OH239213   7.703   5.776   2.712
13091TIP3    H139214   7.724   5.726   2.633
13091TIP3    H239215   7.655   5.715   2.768
13092TIP3   OH239216   7.881   1.944   4.690
13092TIP3    H139217   7.802   1.982   4.728
13092TIP3    H239218   7.867   1.951   4.595
13093TIP3   OH239219   4.667   6.075   6.264
13093TIP3    H139220   4.651   5.981   6.251
13093TIP3    H239221   4.737   6.096   6.202
13094TIP3   OH239222   2.134   1.802   1.746
13094TIP3    H139223   2.103   1.753   1.822
13094TIP3    H239224   2.143   1.735   1.677
13095TIP3   OH239225   7.704   0.542   5.976
13095TIP3    H139226   7.652   0.582   6.046
13095TIP3    H239227   7.662   0.457   5.960
13096TIP3   OH239228   8.370   5.459   6.046
13096TIP3    H139229   8.303   5.472   6.113
13096TIP3    H239230   8.452   5.477   6.090
13097TIP3   OH239231   4.456   7.210   4.818
13097TIP3    H139232   4.517   7.282   4.832
13097TIP3    H239233   4.388   7.246   4.762
13098TIP3   OH239234   8.277   5.086   5.278
13098TIP3    H139235   8.269   5.119   5.367
13098TIP3    H239236   8.208   5.020   5.270
13099TIP3   OH239237   6.486   5.209   3.347
13099TIP3    H139238   6.408   5.197   3.294
13099TIP3    H239239   6.538   5.130   3.333
13100TIP3   OH239240   7.575   7.726   0.508
13100TIP3    H139241   7.563   7.642   0.464
13100TIP3    H239242   7.543   7.712   0.597
13101TIP3   OH239243   3.566   5.483   6.762
13101TIP3    H139244   3.626   5.528   6.820
13101TIP3    H239245   3.546   5.401   6.808
13102TIP3   OH239246   4.146   4.596   6.267
13102TIP3    H139247   4.180   4.509   6.246
13102TIP3    H239248   4.072   4.608   6.207
13103TIP3   OH239249   6.639   0.900   2.238
13103TIP3    H139250   6.723   0.915   2.282
13103TIP3    H239251   6.644   0.809   2.207
13104TIP3   OH239252   3.387   0.492   5.152
13104TIP3    H139253   3.408   0.407   5.116
13104TIP3    H239254   3.426   0.492   5.240
13105TIP3   OH239255   1.484   4.185   3.999
13105TIP3    H139256   1.482   4.164   3.905
13105TIP3    H239257   1.529   4.270   4.003
13106TIP3   OH239258   7.088   4.852   2.863
13106TIP3    H139259   7.115   4.760   2.866
13106TIP3    H239260   7.166   4.900   2.890
13107TIP3   OH239261   0.965   3.640   2.343
13107TIP3    H139262   0.962   3.578   2.269
13107TIP3    H239263   1.022   3.711   2.311
13108TIP3   OH239264   0.747   6.662   2.705
13108TIP3    H139265   0.687   6.641   2.777
13108TIP3    H239266   0.829   6.687   2.748
13109TIP3   OH239267   1.466   7.315   6.583
13109TIP3    H139268   1.489   7.372   6.510
13109TIP3    H239269   1.460   7.228   6.546
13110TIP3   OH239270   4.423   5.416   0.639
13110TIP3    H139271   4.469   5.450   0.563
13110TIP3    H239272   4.434   5.483   0.707
13111TIP3   OH239273   5.105   7.213   3.006
13111TIP3    H139274   5.187   7.165   3.017
13111TIP3    H239275   5.053   7.189   3.083
13112TIP3   OH239276   7.845   0.411   6.207
13112TIP3    H139277   7.812   0.501   6.203
13112TIP3    H239278   7.915   0.415   6.273
13113TIP3   OH239279   0.815   1.140   4.069
13113TIP3    H139280   0.779   1.055   4.095
13113TIP3    H239281   0.862   1.170   4.147
13114TIP3   OH239282   8.271   0.119   6.069
13114TIP3    H139283   8.321   0.051   6.114
13114TIP3    H239284   8.325   0.198   6.075
13115TIP3   OH239285   1.854   1.205   3.141
13115TIP3    H139286   1.886   1.266   3.207
13115TIP3    H239287   1.898   1.122   3.161
13116TIP3   OH239288   7.525   1.891   0.222
13116TIP3    H139289   7.432   1.868   0.220
13116TIP3    H239290   7.530   1.966   0.280
13117TIP3   OH239291   1.227   5.136   0.370
13117TIP3    H139292   1.314   5.100   0.385
13117TIP3    H239293   1.212   5.123   0.276
13118TIP3   OH239294   0.651   7.783   0.142
13118TIP3    H139295   0.732   7.732   0.147
13118TIP3    H239296   0.657   7.845   0.214
13119TIP3   OH239297   5.836   7.360   2.432
13119TIP3    H139298   5.758   7.324   2.390
13119TIP3    H239299   5.818   7.453   2.440
13120TIP3   OH239300   2.779   0.189   1.854
13120TIP3    H139301   2.787   0.241   1.775
13120TIP3    H239302   2.869   0.175   1.883
13121TIP3   OH239303   3.838   5.099   0.868
13121TIP3    H139304   3.891   5.169   0.829
13121TIP3    H239305   3.779   5.144   0.929
13122TIP3   OH239306   5.304   2.506   5.968
13122TIP3    H139307   5.309   2.590   5.923
13122TIP3    H239308   5.346   2.444   5.908
13123TIP3   OH239309   6.219   4.549   2.165
13123TIP3    H139310   6.277   4.508   2.101
13123TIP3    H239311   6.254   4.637   2.177
13124TIP3   OH239312   4.893   2.252   0.250
13124TIP3    H139313   4.950   2.287   0.319
13124TIP3    H239314   4.876   2.328   0.193
13125TIP3   OH239315   2.375   5.163   2.859
13125TIP3    H139316   2.351   5.140   2.949
13125TIP3    H239317   2.399   5.079   2.819
13126TIP3   OH239318   3.627   3.484   5.623
13126TIP3    H139319   3.637   3.391   5.605
13126TIP3    H239320   3.592   3.488   5.712
13127TIP3   OH239321  -0.006   4.193   5.893
13127TIP3    H139322   0.071   4.232   5.933
13127TIP3    H239323   0.020   4.174   5.803
13128TIP3   OH239324   4.779   0.697   1.940
13128TIP3    H139325   4.777   0.718   1.847
13128TIP3    H239326   4.872   0.699   1.963
13129TIP3   OH239327   4.289   7.353   0.120
13129TIP3    H139328   4.360   7.306   0.164
13129TIP3    H239329   4.221   7.288   0.106
13130TIP3   OH239330   0.935   1.235   4.308
13130TIP3    H139331   0.982   1.224   4.390
13130TIP3    H239332   0.853   1.278   4.333
13131TIP3   OH239333   4.490   2.042   5.404
13131TIP3    H139334   4.430   1.999   5.343
13131TIP3    H239335   4.448   2.033   5.490
13132TIP3   OH239336   4.477   4.110   2.991
13132TIP3    H139337   4.504   4.033   2.942
13132TIP3    H239338   4.413   4.154   2.935
13133TIP3   OH239339   1.525   2.529   2.226
13133TIP3    H139340   1.557   2.604   2.176
13133TIP3    H239341   1.438   2.556   2.255
13134TIP3   OH239342   8.164   7.408   1.028
13134TIP3    H139343   8.201   7.468   1.093
13134TIP3    H239344   8.195   7.442   0.944
13135TIP3   OH239345   6.387   2.461   5.922
13135TIP3    H139346   6.359   2.543   5.882
13135TIP3    H239347   6.481   2.455   5.902
13136TIP3   OH239348   7.914   0.066   2.616
13136TIP3    H139349   7.851   0.083   2.686
13136TIP3    H239350   7.863   0.021   2.548
13137TIP3   OH239351   2.860   0.676   0.361
13137TIP3    H139352   2.851   0.658   0.454
13137TIP3    H239353   2.770   0.691   0.331
13138TIP3   OH239354   1.315   5.540   2.273
13138TIP3    H139355   1.305   5.548   2.178
13138TIP3    H239356   1.237   5.581   2.309
13139TIP3   OH239357   8.073   0.366   3.443
13139TIP3    H139358   8.047   0.405   3.526
13139TIP3    H239359   8.145   0.421   3.412
13140TIP3   OH239360   5.616   0.784   1.530
13140TIP3    H139361   5.604   0.821   1.617
13140TIP3    H239362   5.531   0.794   1.487
13141TIP3   OH239363   7.748   0.379   4.479
13141TIP3    H139364   7.782   0.431   4.552
13141TIP3    H239365   7.806   0.302   4.476
13142TIP3   OH239366   3.859   2.675   5.590
13142TIP3    H139367   3.946   2.635   5.587
13142TIP3    H239368   3.875   2.763   5.623
13143TIP3   OH239369   1.686   0.158   5.574
13143TIP3    H139370   1.708   0.132   5.663
13143TIP3    H239371   1.703   0.252   5.572
13144TIP3   OH239372   2.593   5.811   5.227
13144TIP3    H139373   2.650   5.759   5.283
13144TIP3    H239374   2.538   5.861   5.288
13145TIP3   OH239375   6.431   7.472   1.778
13145TIP3    H139376   6.497   7.426   1.727
13145TIP3    H239377   6.362   7.407   1.794
13146TIP3   OH239378   8.088   7.302   6.831
13146TIP3    H139379   8.019   7.245   6.798
13146TIP3    H239380   8.059   7.390   6.809
13147TIP3   OH239381   7.399   7.733   3.267
13147TIP3    H139382   7.457   7.750   3.341
13147TIP3    H239383   7.394   7.816   3.221
13148TIP3   OH239384   2.906   3.927   5.930
13148TIP3    H139385   2.991   3.886   5.921
13148TIP3    H239386   2.903   3.993   5.860
13149TIP3   OH239387   3.480   5.080   2.602
13149TIP3    H139388   3.444   5.169   2.595
13149TIP3    H239389   3.487   5.050   2.512
13150TIP3   OH239390   0.933   6.546   4.246
13150TIP3    H139391   0.954   6.467   4.296
13150TIP3    H239392   1.016   6.594   4.240
13151TIP3   OH239393   7.750   1.934   6.817
13151TIP3    H139394   7.800   2.001   6.772
13151TIP3    H239395   7.680   1.981   6.862
13152TIP3   OH239396   1.498   7.836   1.721
13152TIP3    H139397   1.529   7.926   1.733
13152TIP3    H239398   1.428   7.844   1.656
13153TIP3   OH239399   1.796   6.484   5.766
13153TIP3    H139400   1.888   6.486   5.793
13153TIP3    H239401   1.750   6.536   5.832
13154TIP3   OH239402   0.748   4.369   5.825
13154TIP3    H139403   0.841   4.347   5.817
13154TIP3    H239404   0.714   4.306   5.888
13155TIP3   OH239405   0.390   7.257   5.516
13155TIP3    H139406   0.442   7.333   5.541
13155TIP3    H239407   0.453   7.198   5.474
13156TIP3   OH239408   6.078   0.389   5.099
13156TIP3    H139409   6.064   0.426   5.186
13156TIP3    H239410   6.037   0.451   5.039
13157TIP3   OH239411   0.801   7.311   3.904
13157TIP3    H139412   0.797   7.283   3.812
13157TIP3    H239413   0.894   7.309   3.925
13158TIP3   OH239414   7.928   1.214   3.356
13158TIP3    H139415   7.907   1.305   3.335
13158TIP3    H239416   7.965   1.178   3.276
13159TIP3   OH239417   4.116   1.891   6.044
13159TIP3    H139418   4.204   1.878   6.078
13159TIP3    H239419   4.116   1.982   6.014
13160TIP3   OH239420   8.189   6.880   0.397
13160TIP3    H139421   8.145   6.908   0.317
13160TIP3    H239422   8.128   6.903   0.467
13161TIP3   OH239423   4.134   6.736   5.546
13161TIP3    H139424   4.165   6.651   5.578
13161TIP3    H239425   4.204   6.797   5.570
13162TIP3   OH239426   3.062   5.479   6.683
13162TIP3    H139427   2.973   5.507   6.664
13162TIP3    H239428   3.117   5.542   6.637
13163TIP3   OH239429   2.114   0.413   5.172
13163TIP3    H139430   2.125   0.434   5.079
13163TIP3    H239431   2.172   0.338   5.186
13164TIP3   OH239432   2.353   3.297   5.884
13164TIP3    H139433   2.300   3.219   5.902
13164TIP3    H239434   2.336   3.318   5.793
13165TIP3   OH239435   7.768   7.465   0.673
13165TIP3    H139436   7.821   7.447   0.751
13165TIP3    H239437   7.822   7.434   0.600
13166TIP3   OH239438   7.185   3.863   3.704
13166TIP3    H139439   7.161   3.937   3.649
13166TIP3    H239440   7.207   3.793   3.642
13167TIP3   OH239441   3.329   1.183   1.473
13167TIP3    H139442   3.300   1.109   1.420
13167TIP3    H239443   3.251   1.208   1.523
13168TIP3   OH239444   1.185   3.882   2.226
13168TIP3    H139445   1.242   3.948   2.188
13168TIP3    H239446   1.162   3.824   2.153
13169TIP3   OH239447   2.011   6.526   0.510
13169TIP3    H139448   1.995   6.433   0.525
13169TIP3    H239449   2.019   6.565   0.597
13170TIP3   OH239450   6.247   2.219   0.902
13170TIP3    H139451   6.334   2.200   0.867
13170TIP3    H239452   6.198   2.138   0.887
13171TIP3   OH239453   1.905   6.764   3.121
13171TIP3    H139454   1.843   6.745   3.051
13171TIP3    H239455   1.989   6.734   3.087
13172TIP3   OH239456   5.523   5.620   5.216
13172TIP3    H139457   5.497   5.529   5.228
13172TIP3    H239458   5.441   5.669   5.223
13173TIP3   OH239459   2.015   1.393   0.540
13173TIP3    H139460   1.957   1.417   0.468
13173TIP3    H239461   1.965   1.411   0.619
13174TIP3   OH239462   7.950   1.539   0.983
13174TIP3    H139463   7.955   1.446   0.962
13174TIP3    H239464   7.999   1.582   0.913
13175TIP3   OH239465   7.347   6.825   5.218
13175TIP3    H139466   7.430   6.840   5.265
13175TIP3    H239467   7.362   6.745   5.168
13176TIP3   OH239468   2.675   7.015   2.717
13176TIP3    H139469   2.606   6.964   2.675
13176TIP3    H239470   2.720   7.058   2.644
13177TIP3   OH239471   6.664   5.276   6.335
13177TIP3    H139472   6.701   5.203   6.385
13177TIP3    H239473   6.737   5.307   6.281
13178TIP3   OH239474   4.979   0.356   6.136
13178TIP3    H139475   5.034   0.415   6.084
13178TIP3    H239476   4.889   0.378   6.110
13179TIP3   OH239477   6.310   6.896   0.141
13179TIP3    H139478   6.353   6.810   0.137
13179TIP3    H239479   6.310   6.926   0.050
13180TIP3   OH239480   0.205   5.750   0.146
13180TIP3    H139481   0.174   5.838   0.165
13180TIP3    H239482   0.299   5.759   0.136
13181TIP3   OH239483   6.151   0.127   5.513
13181TIP3    H139484   6.151   0.220   5.535
13181TIP3    H239485   6.232   0.093   5.552
13182TIP3   OH239486   4.586   7.552   0.277
13182TIP3    H139487   4.532   7.578   0.352
13182TIP3    H239488   4.581   7.627   0.218
13183TIP3   OH239489   3.104   0.806   2.433
13183TIP3    H139490   3.102   0.754   2.513
13183TIP3    H239491   3.055   0.885   2.455
13184TIP3   OH239492   5.809   4.929   3.107
13184TIP3    H139493   5.729   4.887   3.076
13184TIP3    H239494   5.868   4.926   3.032
13185TIP3   OH239495   3.871   7.423   0.688
13185TIP3    H139496   3.947   7.471   0.656
13185TIP3    H239497   3.906   7.340   0.720
13186TIP3   OH239498   4.257   7.568   4.452
13186TIP3    H139499   4.192   7.504   4.481
13186TIP3    H239500   4.242   7.644   4.509
13187TIP3   OH239501   0.316   1.832   6.776
13187TIP3    H139502   0.356   1.748   6.753
13187TIP3    H239503   0.334   1.889   6.702
13188TIP3   OH239504   1.864   7.827   1.632
13188TIP3    H139505   1.937   7.862   1.683
13188TIP3    H239506   1.787   7.868   1.671
13189TIP3   OH239507   4.723   6.509   3.273
13189TIP3    H139508   4.739   6.427   3.319
13189TIP3    H239509   4.632   6.531   3.293
13190TIP3   OH239510   0.833   0.239   4.427
13190TIP3    H139511   0.738   0.226   4.430
13190TIP3    H239512   0.845   0.334   4.433
13191TIP3   OH239513   7.692   0.927   5.106
13191TIP3    H139514   7.673   0.845   5.152
13191TIP3    H239515   7.731   0.900   5.023
13192TIP3   OH239516   2.044   0.211   5.432
13192TIP3    H139517   2.124   0.224   5.381
13192TIP3    H239518   1.992   0.149   5.379
13193TIP3   OH239519   2.350   3.415   1.175
13193TIP3    H139520   2.285   3.359   1.217
13193TIP3    H239521   2.298   3.479   1.126
13194TIP3   OH239522   4.297   2.530   5.133
13194TIP3    H139523   4.249   2.599   5.180
13194TIP3    H239524   4.386   2.535   5.168
13195TIP3   OH239525   6.377   7.043   5.438
13195TIP3    H139526   6.380   7.081   5.350
13195TIP3    H239527   6.445   7.089   5.486
13196TIP3   OH239528   0.347   1.015   1.341
13196TIP3    H139529   0.369   0.922   1.334
13196TIP3    H239530   0.431   1.060   1.342
13197TIP3   OH239531   0.453   0.643   3.459
13197TIP3    H139532   0.446   0.632   3.365
13197TIP3    H239533   0.536   0.688   3.472
13198TIP3   OH239534   6.229   0.739   5.442
13198TIP3    H139535   6.175   0.771   5.514
13198TIP3    H239536   6.166   0.721   5.372
13199TIP3   OH239537   4.909   5.832   4.042
13199TIP3    H139538   5.000   5.850   4.066
13199TIP3    H239539   4.886   5.752   4.089
13200TIP3   OH239540   3.059   6.833   5.621
13200TIP3    H139541   3.142   6.826   5.574
13200TIP3    H239542   3.004   6.764   5.585
13201TIP3   OH239543   0.194   1.885   6.359
13201TIP3    H139544   0.122   1.923   6.307
13201TIP3    H239545   0.249   1.840   6.295
13202TIP3   OH239546   6.364   1.722   4.075
13202TIP3    H139547   6.447   1.721   4.028
13202TIP3    H239548   6.373   1.653   4.141
13203TIP3   OH239549   1.438   1.821   4.245
13203TIP3    H139550   1.405   1.902   4.206
13203TIP3    H239551   1.392   1.752   4.198
13204TIP3   OH239552   1.892   4.710   6.664
13204TIP3    H139553   1.946   4.698   6.586
13204TIP3    H239554   1.869   4.803   6.663
13205TIP3   OH239555   4.736   5.920   5.841
13205TIP3    H139556   4.830   5.928   5.855
13205TIP3    H239557   4.727   5.867   5.762
13206TIP3   OH239558   2.863   7.505   1.828
13206TIP3    H139559   2.859   7.600   1.841
13206TIP3    H239560   2.917   7.473   1.900
13207TIP3   OH239561   1.706   6.879   4.520
13207TIP3    H139562   1.683   6.807   4.579
13207TIP3    H239563   1.773   6.928   4.567
13208TIP3   OH239564   0.754   3.049   4.129
13208TIP3    H139565   0.836   3.003   4.147
13208TIP3    H239566   0.720   3.071   4.215
13209TIP3   OH239567   6.647   0.521   3.238
13209TIP3    H139568   6.594   0.458   3.189
13209TIP3    H239569   6.669   0.588   3.173
13210TIP3   OH239570   7.319   4.422   5.019
13210TIP3    H139571   7.309   4.329   5.001
13210TIP3    H239572   7.285   4.433   5.108
13211TIP3   OH239573   1.313   0.296   3.498
13211TIP3    H139574   1.228   0.286   3.541
13211TIP3    H239575   1.300   0.369   3.438
13212TIP3   OH239576   4.601   5.691   1.466
13212TIP3    H139577   4.566   5.629   1.401
13212TIP3    H239578   4.592   5.645   1.550
13213TIP3   OH239579   1.224   3.993   1.795
13213TIP3    H139580   1.140   3.947   1.805
13213TIP3    H239581   1.234   4.005   1.701
13214TIP3   OH239582   1.105   6.304   3.753
13214TIP3    H139583   1.170   6.274   3.689
13214TIP3    H239584   1.145   6.382   3.792
13215TIP3   OH239585   8.144   3.124   6.690
13215TIP3    H139586   8.095   3.200   6.659
13215TIP3    H239587   8.122   3.118   6.783
13216TIP3   OH239588   1.631   4.267   0.846
13216TIP3    H139589   1.538   4.278   0.866
13216TIP3    H239590   1.631   4.225   0.759
13217TIP3   OH239591   0.299   2.119   5.373
13217TIP3    H139592   0.349   2.059   5.428
13217TIP3    H239593   0.208   2.097   5.390
13218TIP3   OH239594   1.135   6.351   6.410
13218TIP3    H139595   1.105   6.301   6.334
13218TIP3    H239596   1.055   6.366   6.461
13219TIP3   OH239597   2.335   7.760   6.733
13219TIP3    H139598   2.372   7.693   6.675
13219TIP3    H239599   2.247   7.775   6.698
13220TIP3   OH239600   5.697   5.709   5.426
13220TIP3    H139601   5.734   5.621   5.436
13220TIP3    H239602   5.656   5.708   5.339
13221TIP3   OH239603   7.400   6.486   3.234
13221TIP3    H139604   7.359   6.561   3.277
13221TIP3    H239605   7.369   6.410   3.283
13222TIP3   OH239606   6.587   5.836   3.098
13222TIP3    H139607   6.666   5.878   3.066
13222TIP3    H239608   6.516   5.877   3.049
13223TIP3   OH239609   0.620   7.280   4.977
13223TIP3    H139610   0.614   7.351   5.041
13223TIP3    H239611   0.531   7.246   4.970
13224TIP3   OH239612   0.375   7.108   6.674
13224TIP3    H139613   0.461   7.120   6.634
13224TIP3    H239614   0.394   7.084   6.765
13225TIP3   OH239615   3.366   2.646   6.350
13225TIP3    H139616   3.382   2.724   6.404
13225TIP3    H239617   3.270   2.639   6.347
13226TIP3   OH239618   8.325   3.755   2.340
13226TIP3    H139619   8.329   3.834   2.287
13226TIP3    H239620   8.233   3.729   2.338
13227TIP3   OH239621   4.136   2.120   1.061
13227TIP3    H139622   4.044   2.148   1.054
13227TIP3    H239623   4.133   2.026   1.047
13228TIP3   OH239624   2.757   7.181   2.908
13228TIP3    H139625   2.701   7.151   2.836
13228TIP3    H239626   2.697   7.227   2.968
13229TIP3   OH239627   0.236   4.371   4.466
13229TIP3    H139628   0.234   4.290   4.414
13229TIP3    H239629   0.291   4.350   4.541
13230TIP3   OH239630   1.420   3.756   5.140
13230TIP3    H139631   1.386   3.713   5.061
13230TIP3    H239632   1.429   3.684   5.203
13231TIP3   OH239633   7.282   1.804   2.238
13231TIP3    H139634   7.197   1.773   2.206
13231TIP3    H239635   7.341   1.730   2.225
13232TIP3   OH239636   6.241   4.117   1.295
13232TIP3    H139637   6.216   4.047   1.355
13232TIP3    H239638   6.295   4.073   1.229
13233TIP3   OH239639   3.053   2.854   2.764
13233TIP3    H139640   3.073   2.945   2.745
13233TIP3    H239641   3.132   2.806   2.740
13234TIP3   OH239642   4.856   5.136   5.319
13234TIP3    H139643   4.764   5.155   5.302
13234TIP3    H239644   4.902   5.218   5.302
13235TIP3   OH239645   1.690   7.231   5.077
13235TIP3    H139646   1.743   7.310   5.091
13235TIP3    H239647   1.612   7.263   5.031
13236TIP3   OH239648   7.186   5.726   5.175
13236TIP3    H139649   7.164   5.819   5.165
13236TIP3    H239650   7.165   5.707   5.267
13237TIP3   OH239651   2.100   3.816   0.903
13237TIP3    H139652   2.139   3.878   0.965
13237TIP3    H239653   2.099   3.864   0.820
13238TIP3   OH239654   0.683   1.397   5.253
13238TIP3    H139655   0.692   1.408   5.347
13238TIP3    H239656   0.755   1.340   5.228
13239TIP3   OH239657   7.567   0.817   3.603
13239TIP3    H139658   7.509   0.872   3.655
13239TIP3    H239659   7.582   0.867   3.522
13240TIP3   OH239660   4.091   2.318   4.940
13240TIP3    H139661   4.161   2.380   4.918
13240TIP3    H239662   4.068   2.340   5.031
13241TIP3   OH239663   7.775   0.773   4.636
13241TIP3    H139664   7.735   0.691   4.666
13241TIP3    H239665   7.784   0.761   4.541
13242TIP3   OH239666   2.433   1.039   1.287
13242TIP3    H139667   2.421   0.961   1.340
13242TIP3    H239668   2.523   1.033   1.255
13243TIP3   OH239669   3.485   5.554   0.827
13243TIP3    H139670   3.500   5.557   0.921
13243TIP3    H239671   3.566   5.517   0.791
13244TIP3   OH239672   3.848   5.689   1.236
13244TIP3    H139673   3.892   5.753   1.292
13244TIP3    H239674   3.777   5.739   1.194
13245TIP3   OH239675   0.561   5.149   3.161
13245TIP3    H139676   0.542   5.057   3.143
13245TIP3    H239677   0.631   5.146   3.226
13246TIP3   OH239678   5.656   3.897   5.179
13246TIP3    H139679   5.615   3.875   5.263
13246TIP3    H239680   5.610   3.843   5.115
13247TIP3   OH239681   1.836   0.519   1.865
13247TIP3    H139682   1.921   0.534   1.907
13247TIP3    H239683   1.850   0.443   1.808
13248TIP3   OH239684   6.228   2.676   2.179
13248TIP3    H139685   6.268   2.629   2.252
13248TIP3    H239686   6.303   2.707   2.127
13249TIP3   OH239687   7.273   2.129   3.481
13249TIP3    H139688   7.178   2.137   3.495
13249TIP3    H239689   7.284   2.144   3.387
13250TIP3   OH239690   1.137   2.005   2.268
13250TIP3    H139691   1.066   2.069   2.278
13250TIP3    H239692   1.204   2.053   2.218
13251TIP3   OH239693   0.188   0.783   1.804
13251TIP3    H139694   0.183   0.869   1.845
13251TIP3    H239695   0.260   0.791   1.741
13252TIP3   OH239696   2.396   7.092   6.601
13252TIP3    H139697   2.368   7.168   6.651
13252TIP3    H239698   2.437   7.128   6.523
13253TIP3   OH239699   6.696   7.041   4.998
13253TIP3    H139700   6.650   7.124   4.983
13253TIP3    H239701   6.696   6.998   4.912
13254TIP3   OH239702   4.621   5.862   1.211
13254TIP3    H139703   4.539   5.908   1.195
13254TIP3    H239704   4.618   5.840   1.304
13255TIP3   OH239705   2.423   1.367   3.690
13255TIP3    H139706   2.337   1.361   3.731
13255TIP3    H239707   2.429   1.289   3.634
13256TIP3   OH239708   0.254   1.267   6.056
13256TIP3    H139709   0.248   1.322   6.134
13256TIP3    H239710   0.339   1.288   6.018
13257TIP3   OH239711   0.126   1.227   3.523
13257TIP3    H139712   0.211   1.269   3.529
13257TIP3    H239713   0.146   1.135   3.503
13258TIP3   OH239714   6.911   0.339   4.132
13258TIP3    H139715   6.907   0.344   4.228
13258TIP3    H239716   6.998   0.371   4.110
13259TIP3   OH239717   0.166   4.870   2.003
13259TIP3    H139718   0.137   4.945   2.054
13259TIP3    H239719   0.088   4.843   1.954
13260TIP3   OH239720   2.228   5.853   2.756
13260TIP3    H139721   2.222   5.948   2.771
13260TIP3    H239722   2.212   5.843   2.662
13261TIP3   OH239723   5.106   0.929   1.883
13261TIP3    H139724   5.029   0.952   1.831
13261TIP3    H239725   5.113   0.999   1.948
13262TIP3   OH239726   6.245   6.274   3.079
13262TIP3    H139727   6.179   6.343   3.080
13262TIP3    H239728   6.313   6.307   3.020
13263TIP3   OH239729   4.528   4.570   2.597
13263TIP3    H139730   4.559   4.575   2.507
13263TIP3    H239731   4.550   4.656   2.634
13264TIP3   OH239732   0.368   6.456   0.509
13264TIP3    H139733   0.309   6.525   0.479
13264TIP3    H239734   0.376   6.396   0.435
13265TIP3   OH239735   5.216   0.137   1.120
13265TIP3    H139736   5.193   0.127   1.212
13265TIP3    H239737   5.273   0.214   1.118
13266TIP3   OH239738   4.918   5.787   4.656
13266TIP3    H139739   4.933   5.853   4.724
13266TIP3    H239740   4.858   5.725   4.697
13267TIP3   OH239741   5.400   4.948   5.766
13267TIP3    H139742   5.317   4.964   5.721
13267TIP3    H239743   5.464   5.001   5.718
13268TIP3   OH239744   0.463   4.969   1.091
13268TIP3    H139745   0.523   4.954   1.018
13268TIP3    H239746   0.481   5.059   1.119
13269TIP3   OH239747   5.916   1.207   4.709
13269TIP3    H139748   5.942   1.120   4.677
13269TIP3    H239749   5.997   1.249   4.737
13270TIP3   OH239750   7.576   1.121   1.805
13270TIP3    H139751   7.628   1.089   1.732
13270TIP3    H239752   7.521   1.046   1.830
13271TIP3   OH239753   6.434   3.355   2.115
13271TIP3    H139754   6.519   3.336   2.075
13271TIP3    H239755   6.380   3.388   2.043
13272TIP3   OH239756   4.777   4.858   0.964
13272TIP3    H139757   4.841   4.878   0.895
13272TIP3    H239758   4.705   4.918   0.948
13273TIP3   OH239759   3.231   0.736   6.001
13273TIP3    H139760   3.296   0.666   6.004
13273TIP3    H239761   3.243   0.784   6.083
13274TIP3   OH239762   5.156   5.035   4.880
13274TIP3    H139763   5.150   5.040   4.975
13274TIP3    H239764   5.170   4.942   4.861
13275TIP3   OH239765   1.037   1.275   4.981
13275TIP3    H139766   1.083   1.191   4.986
13275TIP3    H239767   1.061   1.320   5.062
13276TIP3   OH239768   5.271   6.174   4.827
13276TIP3    H139769   5.190   6.211   4.862
13276TIP3    H239770   5.298   6.109   4.892
13277TIP3   OH239771   6.543   2.616   5.410
13277TIP3    H139772   6.529   2.597   5.317
13277TIP3    H239773   6.631   2.653   5.414
13278TIP3   OH239774   6.934   0.739   3.072
13278TIP3    H139775   6.952   0.667   3.010
13278TIP3    H239776   7.014   0.748   3.122
13279TIP3   OH239777   0.367   1.502   4.150
13279TIP3    H139778   0.409   1.480   4.067
13279TIP3    H239779   0.411   1.581   4.179
13280TIP3   OH239780   3.702   5.087   1.210
13280TIP3    H139781   3.699   5.167   1.158
13280TIP3    H239782   3.776   5.099   1.269
13281TIP3   OH239783   2.343   5.118   3.176
13281TIP3    H139784   2.410   5.185   3.171
13281TIP3    H239785   2.262   5.162   3.151
13282TIP3   OH239786   0.899   3.291   2.192
13282TIP3    H139787   0.935   3.357   2.250
13282TIP3    H239788   0.949   3.302   2.110
13283TIP3   OH239789   8.200   0.646   5.448
13283TIP3    H139790   8.215   0.625   5.540
13283TIP3    H239791   8.287   0.651   5.409
13284TIP3   OH239792   7.187   7.056   5.597
13284TIP3    H139793   7.095   7.058   5.571
13284TIP3    H239794   7.197   7.129   5.658
13285TIP3   OH239795   2.927   4.516   2.920
13285TIP3    H139796   2.854   4.576   2.936
13285TIP3    H239797   3.000   4.574   2.897
13286TIP3   OH239798   7.125   7.547   0.441
13286TIP3    H139799   7.212   7.548   0.402
13286TIP3    H239800   7.096   7.638   0.438
13287TIP3   OH239801   1.205   2.569   3.895
13287TIP3    H139802   1.242   2.554   3.808
13287TIP3    H239803   1.278   2.602   3.947
13288TIP3   OH239804   8.347   1.058   4.839
13288TIP3    H139805   8.291   0.984   4.814
13288TIP3    H239806   8.298   1.103   4.908
13289TIP3   OH239807   2.913   4.595   2.182
13289TIP3    H139808   2.910   4.634   2.270
13289TIP3    H239809   2.953   4.509   2.196
13290TIP3   OH239810   0.770   0.916   2.352
13290TIP3    H139811   0.718   0.837   2.337
13290TIP3    H239812   0.706   0.982   2.378
13291TIP3   OH239813   0.785   1.222   2.530
13291TIP3    H139814   0.748   1.218   2.618
13291TIP3    H239815   0.718   1.183   2.474
13292TIP3   OH239816   6.082   4.588   4.281
13292TIP3    H139817   6.153   4.622   4.336
13292TIP3    H239818   6.035   4.665   4.251
13293TIP3   OH239819   5.064   5.240   6.078
13293TIP3    H139820   5.052   5.305   6.147
13293TIP3    H239821   5.158   5.223   6.078
13294TIP3   OH239822   5.171   3.128   5.168
13294TIP3    H139823   5.094   3.160   5.216
13294TIP3    H239824   5.171   3.179   5.087
13295TIP3   OH239825   1.526   0.535   5.855
13295TIP3    H139826   1.584   0.594   5.902
13295TIP3    H239827   1.505   0.582   5.774
13296TIP3   OH239828   2.034   4.646   5.251
13296TIP3    H139829   2.122   4.674   5.276
13296TIP3    H239830   2.001   4.717   5.195
13297TIP3   OH239831   7.936   0.451   5.916
13297TIP3    H139832   7.953   0.416   6.003
13297TIP3    H239833   7.851   0.495   5.923
13298TIP3   OH239834   5.653   3.945   3.572
13298TIP3    H139835   5.629   3.955   3.664
13298TIP3    H239836   5.748   3.942   3.572
13299TIP3   OH239837   5.402   4.292   5.541
13299TIP3    H139838   5.493   4.298   5.515
13299TIP3    H239839   5.355   4.268   5.461
13300TIP3   OH239840   2.004   5.986   0.521
13300TIP3    H139841   1.965   5.959   0.604
13300TIP3    H239842   2.029   5.904   0.479
13301TIP3   OH239843   0.426   2.954   2.441
13301TIP3    H139844   0.368   2.963   2.516
13301TIP3    H239845   0.380   2.894   2.382
13302TIP3   OH239846   8.000   0.969   3.456
13302TIP3    H139847   7.973   0.945   3.367
13302TIP3    H239848   7.970   1.059   3.467
13303TIP3   OH239849   3.508   7.762   1.697
13303TIP3    H139850   3.577   7.827   1.708
13303TIP3    H239851   3.433   7.798   1.745
13304TIP3   OH239852   1.796   0.687   5.774
13304TIP3    H139853   1.844   0.727   5.846
13304TIP3    H239854   1.842   0.715   5.695
13305TIP3   OH239855   3.577   3.150   5.086
13305TIP3    H139856   3.653   3.092   5.085
13305TIP3    H239857   3.502   3.091   5.098
13306TIP3   OH239858   4.487   0.206   4.632
13306TIP3    H139859   4.517   0.296   4.643
13306TIP3    H239860   4.392   0.212   4.624
13307TIP3   OH239861   1.356   5.104   6.099
13307TIP3    H139862   1.378   5.177   6.158
13307TIP3    H239863   1.404   5.029   6.135
13308TIP3   OH239864   5.023   7.861   6.520
13308TIP3    H139865   5.071   7.783   6.547
13308TIP3    H239866   4.940   7.855   6.567
13309TIP3   OH239867   5.977   2.746   2.252
13309TIP3    H139868   5.936   2.769   2.169
13309TIP3    H239869   6.062   2.708   2.228
13310TIP3   OH239870   0.116   3.757   3.378
13310TIP3    H139871   0.169   3.819   3.328
13310TIP3    H239872   0.136   3.672   3.338
13311TIP3   OH239873   3.531   5.333   1.187
13311TIP3    H139874   3.450   5.287   1.165
13311TIP3    H239875   3.548   5.311   1.278
13312TIP3   OH239876   1.346   4.178   4.490
13312TIP3    H139877   1.260   4.220   4.492
13312TIP3    H239878   1.341   4.118   4.416
13313TIP3   OH239879   6.137   0.699   1.516
13313TIP3    H139880   6.098   0.637   1.454
13313TIP3    H239881   6.076   0.773   1.516
13314TIP3   OH239882   4.368   6.644   4.185
13314TIP3    H139883   4.412   6.674   4.105
13314TIP3    H239884   4.297   6.707   4.198
13315TIP3   OH239885   3.854   5.315   4.932
13315TIP3    H139886   3.769   5.335   4.971
13315TIP3    H239887   3.915   5.377   4.973
13316TIP3   OH239888   1.961   0.150   5.930
13316TIP3    H139889   1.986   0.182   5.843
13316TIP3    H239890   1.869   0.177   5.940
13317TIP3   OH239891   7.407   1.283   5.081
13317TIP3    H139892   7.469   1.258   5.149
13317TIP3    H239893   7.456   1.274   4.999
13318TIP3   OH239894   1.035   5.656   5.520
13318TIP3    H139895   1.007   5.738   5.480
13318TIP3    H239896   0.969   5.638   5.587
13319TIP3   OH239897   4.838   1.439   5.817
13319TIP3    H139898   4.870   1.430   5.907
13319TIP3    H239899   4.746   1.414   5.822
13320TIP3   OH239900   4.260   4.516   5.287
13320TIP3    H139901   4.284   4.455   5.218
13320TIP3    H239902   4.194   4.572   5.248
13321TIP3   OH239903   0.553   6.877   4.062
13321TIP3    H139904   0.540   6.900   4.154
13321TIP3    H239905   0.647   6.862   4.053
13322TIP3   OH239906   2.292   2.767   0.617
13322TIP3    H139907   2.226   2.715   0.662
13322TIP3    H239908   2.357   2.703   0.588
13323TIP3   OH239909   5.187   7.767   1.656
13323TIP3    H139910   5.149   7.804   1.736
13323TIP3    H239911   5.257   7.828   1.633
13324TIP3   OH239912   4.526   0.708   2.008
13324TIP3    H139913   4.619   0.696   1.993
13324TIP3    H239914   4.497   0.769   1.940
13325TIP3   OH239915   2.335   7.805   0.982
13325TIP3    H139916   2.357   7.883   1.034
13325TIP3    H239917   2.239   7.806   0.977
13326TIP3   OH239918   4.375   7.064   2.852
13326TIP3    H139919   4.331   7.007   2.916
13326TIP3    H239920   4.463   7.076   2.887
13327TIP3   OH239921   4.456   7.389   6.695
13327TIP3    H139922   4.376   7.352   6.732
13327TIP3    H239923   4.513   7.404   6.771
13328TIP3   OH239924   4.430   3.907   1.567
13328TIP3    H139925   4.462   3.845   1.633
13328TIP3    H239926   4.335   3.894   1.566
13329TIP3   OH239927   2.207   6.329   5.315
13329TIP3    H139928   2.179   6.241   5.339
13329TIP3    H239929   2.126   6.380   5.312
13330TIP3   OH239930   3.533   4.342   4.533
13330TIP3    H139931   3.596   4.411   4.556
13330TIP3    H239932   3.587   4.265   4.515
13331TIP3   OH239933   6.442   3.776   2.226
13331TIP3    H139934   6.428   3.811   2.138
13331TIP3    H239935   6.421   3.849   2.284
13332TIP3   OH239936   6.525   5.131   0.351
13332TIP3    H139937   6.493   5.214   0.316
13332TIP3    H239938   6.582   5.096   0.283
13333TIP3   OH239939   4.322   0.310   1.895
13333TIP3    H139940   4.276   0.238   1.939
13333TIP3    H239941   4.298   0.301   1.803
13334TIP3   OH239942   6.068   6.360   1.699
13334TIP3    H139943   6.027   6.274   1.684
13334TIP3    H239944   6.134   6.367   1.630
13335TIP3   OH239945   0.172   6.994   0.249
13335TIP3    H139946   0.196   7.072   0.297
13335TIP3    H239947   0.121   6.941   0.311
13336TIP3   OH239948   2.871   2.627   0.234
13336TIP3    H139949   2.784   2.591   0.250
13336TIP3    H239950   2.866   2.718   0.264
13337TIP3   OH239951   6.182   2.455   1.738
13337TIP3    H139952   6.172   2.385   1.672
13337TIP3    H239953   6.276   2.457   1.757
13338TIP3   OH239954   5.369   1.061   6.530
13338TIP3    H139955   5.443   1.083   6.588
13338TIP3    H239956   5.293   1.058   6.587
13339TIP3   OH239957   5.069   3.799   5.722
13339TIP3    H139958   5.061   3.705   5.705
13339TIP3    H239959   5.164   3.815   5.718
13340TIP3   OH239960   6.053   2.266   6.746
13340TIP3    H139961   6.062   2.330   6.816
13340TIP3    H239962   6.071   2.316   6.666
13341TIP3   OH239963   5.334   2.055   3.107
13341TIP3    H139964   5.341   2.055   3.202
13341TIP3    H239965   5.369   1.970   3.080
13342TIP3   OH239966   6.138   3.928   4.043
13342TIP3    H139967   6.222   3.919   4.088
13342TIP3    H239968   6.096   3.842   4.053
13343TIP3   OH239969   5.152   5.820   1.355
13343TIP3    H139970   5.186   5.834   1.444
13343TIP3    H239971   5.198   5.742   1.324
13344TIP3   OH239972   4.571   2.219   4.469
13344TIP3    H139973   4.505   2.154   4.443
13344TIP3    H239974   4.636   2.169   4.518
13345TIP3   OH239975   0.670   4.911   6.560
13345TIP3    H139976   0.588   4.944   6.595
13345TIP3    H239977   0.687   4.965   6.483
13346TIP3   OH239978   7.853   4.639   4.384
13346TIP3    H139979   7.892   4.559   4.350
13346TIP3    H239980   7.760   4.618   4.394
13347TIP3   OH239981   2.479   7.378   2.905
13347TIP3    H139982   2.532   7.449   2.869
13347TIP3    H239983   2.392   7.417   2.916
13348TIP3   OH239984   0.475   7.268   4.515
13348TIP3    H139985   0.537   7.293   4.583
13348TIP3    H239986   0.529   7.253   4.437
13349TIP3   OH239987   3.006   0.061   0.915
13349TIP3    H139988   2.964   0.008   0.847
13349TIP3    H239989   2.997   0.010   0.995
13350TIP3   OH239990   8.348   3.878   3.641
13350TIP3    H139991   8.290   3.953   3.655
13350TIP3    H239992   8.436   3.914   3.650
13351TIP3   OH239993   0.429   0.162   1.795
13351TIP3    H139994   0.520   0.148   1.770
13351TIP3    H239995   0.420   0.119   1.880
13352TIP3   OH239996   6.375   7.461   5.859
13352TIP3    H139997   6.352   7.395   5.924
13352TIP3    H239998   6.433   7.521   5.905
13353TIP3   OH239999   0.675   5.937   6.586
13353TIP3    H140000   0.635   5.986   6.514
13353TIP3    H240001   0.766   5.965   6.586
13354TIP3   OH240002   2.648   3.885   3.048
13354TIP3    H140003   2.728   3.937   3.059
13354TIP3    H240004   2.596   3.904   3.127
13355TIP3   OH240005   2.256   5.312   0.031
13355TIP3    H140006   2.274   5.222   0.057
13355TIP3    H240007   2.198   5.304  -0.045
13356TIP3   OH240008   2.576   0.120   6.722
13356TIP3    H140009   2.576   0.191   6.658
13356TIP3    H240010   2.551   0.043   6.672
13357TIP3   OH240011   1.541   3.662   0.085
13357TIP3    H140012   1.599   3.733   0.058
13357TIP3    H240013   1.517   3.618   0.004
13358TIP3   OH240014   3.257   7.149   4.677
13358TIP3    H140015   3.261   7.130   4.583
13358TIP3    H240016   3.341   7.190   4.696
13359TIP3   OH240017   2.565   3.961   1.694
13359TIP3    H140018   2.583   4.055   1.692
13359TIP3    H240019   2.623   3.927   1.763
13360TIP3   OH240020   0.352   5.117   2.334
13360TIP3    H140021   0.366   5.100   2.427
13360TIP3    H240022   0.262   5.091   2.318
13361TIP3   OH240023   4.631   3.515   4.335
13361TIP3    H140024   4.540   3.543   4.330
13361TIP3    H240025   4.680   3.581   4.286
13362TIP3   OH240026   6.913   2.987   5.672
13362TIP3    H140027   6.963   2.906   5.681
13362TIP3    H240028   6.978   3.054   5.657
13363TIP3   OH240029   1.699   0.910   4.870
13363TIP3    H140030   1.615   0.938   4.905
13363TIP3    H240031   1.725   0.979   4.810
13364TIP3   OH240032   3.817   7.820   2.258
13364TIP3    H140033   3.741   7.869   2.287
13364TIP3    H240034   3.866   7.802   2.338
13365TIP3   OH240035   7.471   4.441   1.861
13365TIP3    H140036   7.522   4.361   1.844
13365TIP3    H240037   7.536   4.504   1.891
13366TIP3   OH240038   6.978   5.593   0.524
13366TIP3    H140039   6.997   5.686   0.537
13366TIP3    H240040   6.977   5.581   0.429
13367TIP3   OH240041   1.730   3.285   3.708
13367TIP3    H140042   1.646   3.326   3.729
13367TIP3    H240043   1.708   3.199   3.674
13368TIP3   OH240044   0.879   3.264   5.302
13368TIP3    H140045   0.814   3.311   5.354
13368TIP3    H240046   0.900   3.187   5.355
13369TIP3   OH240047   6.630   3.984   1.607
13369TIP3    H140048   6.716   4.021   1.588
13369TIP3    H240049   6.579   4.001   1.527
13370TIP3   OH240050   6.031   1.354   2.513
13370TIP3    H140051   6.056   1.335   2.422
13370TIP3    H240052   6.070   1.283   2.564
13371TIP3   OH240053   8.242   2.329   6.278
13371TIP3    H140054   8.264   2.422   6.270
13371TIP3    H240055   8.161   2.318   6.227
13372TIP3   OH240056   1.655   3.745   1.321
13372TIP3    H140057   1.613   3.816   1.369
13372TIP3    H240058   1.636   3.667   1.373
13373TIP3   OH240059   6.934   5.036   3.488
13373TIP3    H140060   6.993   4.969   3.523
13373TIP3    H240061   6.992   5.098   3.443
13374TIP3   OH240062   7.764   5.747   0.567
13374TIP3    H140063   7.818   5.734   0.490
13374TIP3    H240064   7.779   5.838   0.593
13375TIP3   OH240065   6.586   1.310   2.421
13375TIP3    H140066   6.543   1.332   2.338
13375TIP3    H240067   6.573   1.387   2.476
13376TIP3   OH240068   3.892   4.073   1.307
13376TIP3    H140069   3.855   4.049   1.392
13376TIP3    H240070   3.908   4.167   1.313
13377TIP3   OH240071   2.170   1.368   3.848
13377TIP3    H140072   2.089   1.318   3.860
13377TIP3    H240073   2.155   1.420   3.769
13378TIP3   OH240074   2.603   0.552   2.283
13378TIP3    H140075   2.649   0.616   2.337
13378TIP3    H240076   2.661   0.537   2.208
13379TIP3   OH240077   0.544   0.604   2.939
13379TIP3    H140078   0.612   0.593   2.872
13379TIP3    H240079   0.484   0.531   2.924
13380TIP3   OH240080   6.533   7.842   5.652
13380TIP3    H140081   6.602   7.856   5.717
13380TIP3    H240082   6.554   7.757   5.613
13381TIP3   OH240083   2.066   3.064   1.596
13381TIP3    H140084   2.105   2.983   1.562
13381TIP3    H240085   2.124   3.090   1.667
13382TIP3   OH240086   7.821   2.822   4.348
13382TIP3    H140087   7.845   2.902   4.301
13382TIP3    H240088   7.835   2.751   4.284
13383TIP3   OH240089   5.280   3.087   6.588
13383TIP3    H140090   5.247   3.066   6.501
13383TIP3    H240091   5.375   3.077   6.581
13384TIP3   OH240092   2.148   7.701   6.123
13384TIP3    H140093   2.144   7.687   6.028
13384TIP3    H240094   2.216   7.767   6.135
13385TIP3   OH240095   8.134   2.345   1.772
13385TIP3    H140096   8.071   2.414   1.752
13385TIP3    H240097   8.187   2.381   1.843
13386TIP3   OH240098   6.142   2.795   1.103
13386TIP3    H140099   6.062   2.819   1.150
13386TIP3    H240100   6.205   2.776   1.173
13387TIP3   OH240101   2.462   7.609   6.073
13387TIP3    H140102   2.480   7.602   5.980
13387TIP3    H240103   2.532   7.560   6.116
13388TIP3   OH240104   7.474   4.278   2.257
13388TIP3    H140105   7.496   4.228   2.178
13388TIP3    H240106   7.535   4.246   2.323
13389TIP3   OH240107   6.116   0.675   0.259
13389TIP3    H140108   6.142   0.718   0.177
13389TIP3    H240109   6.118   0.745   0.324
13390TIP3   OH240110   4.696   7.273   1.041
13390TIP3    H140111   4.787   7.286   1.013
13390TIP3    H240112   4.671   7.190   1.001
13391TIP3   OH240113   2.772   3.460   5.433
13391TIP3    H140114   2.824   3.503   5.366
13391TIP3    H240115   2.812   3.488   5.516
13392TIP3   OH240116   4.080   2.846   6.312
13392TIP3    H140117   3.995   2.891   6.322
13392TIP3    H240118   4.075   2.773   6.374
13393TIP3   OH240119   0.047   5.782   4.541
13393TIP3    H140120  -0.048   5.787   4.552
13393TIP3    H240121   0.080   5.857   4.590
13394TIP3   OH240122   6.276   1.736   1.422
13394TIP3    H140123   6.341   1.703   1.484
13394TIP3    H240124   6.302   1.697   1.338
13395TIP3   OH240125   1.228   4.808   5.629
13395TIP3    H140126   1.293   4.787   5.696
13395TIP3    H240127   1.198   4.895   5.651
13396TIP3   OH240128   7.039   6.361   1.848
13396TIP3    H140129   7.061   6.339   1.757
13396TIP3    H240130   7.113   6.412   1.880
13397TIP3   OH240131   0.558   4.261   1.678
13397TIP3    H140132   0.653   4.271   1.686
13397TIP3    H240133   0.542   4.168   1.695
13398TIP3   OH240134   0.785   6.214   0.633
13398TIP3    H140135   0.701   6.173   0.650
13398TIP3    H240136   0.839   6.192   0.708
13399TIP3   OH240137   5.445   4.243   1.402
13399TIP3    H140138   5.530   4.266   1.365
13399TIP3    H240139   5.467   4.185   1.476
13400TIP3   OH240140   0.646   0.668   1.715
13400TIP3    H140141   0.655   0.741   1.654
13400TIP3    H240142   0.600   0.705   1.791
13401TIP3   OH240143   3.788   7.408   4.873
13401TIP3    H140144   3.794   7.493   4.831
13401TIP3    H240145   3.698   7.405   4.907
13402TIP3   OH240146   3.809   4.462   0.301
13402TIP3    H140147   3.876   4.527   0.280
13402TIP3    H240148   3.858   4.379   0.307
13403TIP3   OH240149   5.220   5.374   5.809
13403TIP3    H140150   5.174   5.290   5.815
13403TIP3    H240151   5.197   5.420   5.889
13404TIP3   OH240152   4.183   2.826   2.885
13404TIP3    H140153   4.209   2.760   2.821
13404TIP3    H240154   4.163   2.904   2.833
13405TIP3   OH240155   4.069   1.823   3.609
13405TIP3    H140156   4.116   1.851   3.530
13405TIP3    H240157   4.071   1.899   3.666
13406TIP3   OH240158   5.645   5.341   0.873
13406TIP3    H140159   5.690   5.302   0.948
13406TIP3    H240160   5.556   5.304   0.877
13407TIP3   OH240161   4.924   5.066   1.134
13407TIP3    H140162   4.990   5.044   1.068
13407TIP3    H240163   4.849   5.010   1.112
13408TIP3   OH240164   0.634   7.524   5.100
13408TIP3    H140165   0.693   7.571   5.042
13408TIP3    H240166   0.692   7.474   5.158
13409TIP3   OH240167   2.026   6.461   0.927
13409TIP3    H140168   2.101   6.423   0.882
13409TIP3    H240169   1.957   6.463   0.861
13410TIP3   OH240170   0.755   5.262   5.006
13410TIP3    H140171   0.848   5.252   5.027
13410TIP3    H240172   0.753   5.268   4.911
13411TIP3   OH240173   3.436   0.556   6.032
13411TIP3    H140174   3.372   0.488   6.009
13411TIP3    H240175   3.503   0.509   6.082
13412TIP3   OH240176   7.911   1.641   1.218
13412TIP3    H140177   7.919   1.621   1.125
13412TIP3    H240178   7.967   1.576   1.261
13413TIP3   OH240179   8.184   1.135   0.284
13413TIP3    H140180   8.268   1.149   0.241
13413TIP3    H240181   8.181   1.202   0.353
13414TIP3   OH240182   1.363   6.678   3.692
13414TIP3    H140183   1.393   6.751   3.638
13414TIP3    H240184   1.329   6.719   3.771
13415TIP3   OH240185   7.799   1.164   4.061
13415TIP3    H140186   7.833   1.213   3.986
13415TIP3    H240187   7.729   1.110   4.024
13416TIP3   OH240188   3.345   6.720   2.116
13416TIP3    H140189   3.289   6.665   2.061
13416TIP3    H240190   3.390   6.659   2.174
13417TIP3   OH240191   5.211   3.654   0.575
13417TIP3    H140192   5.225   3.644   0.669
13417TIP3    H240193   5.116   3.659   0.566
13418TIP3   OH240194   4.955   6.954   3.954
13418TIP3    H140195   4.995   6.877   3.996
13418TIP3    H240196   4.872   6.966   4.000
13419TIP3   OH240197   4.099   5.990   1.803
13419TIP3    H140198   4.107   5.911   1.749
13419TIP3    H240199   4.075   5.958   1.890
13420TIP3   OH240200   2.375   1.311   1.251
13420TIP3    H140201   2.280   1.312   1.244
13420TIP3    H240202   2.397   1.220   1.272
13421TIP3   OH240203   4.961   2.752   2.443
13421TIP3    H140204   4.960   2.663   2.478
13421TIP3    H240205   4.907   2.747   2.364
13422TIP3   OH240206   0.204   7.423   5.997
13422TIP3    H140207   0.179   7.337   5.962
13422TIP3    H240208   0.286   7.444   5.953
13423TIP3   OH240209   3.741   2.176   6.208
13423TIP3    H140210   3.725   2.147   6.118
13423TIP3    H240211   3.689   2.117   6.262
13424TIP3   OH240212   3.040   3.637   4.424
13424TIP3    H140213   2.960   3.621   4.475
13424TIP3    H240214   3.111   3.617   4.485
13425TIP3   OH240215   4.205   0.073   1.200
13425TIP3    H140216   4.136   0.022   1.242
13425TIP3    H240217   4.161   0.120   1.129
13426TIP3   OH240218   5.644   4.118   4.469
13426TIP3    H140219   5.686   4.032   4.476
13426TIP3    H240220   5.593   4.113   4.388
13427TIP3   OH240221   4.820   2.295   4.654
13427TIP3    H140222   4.759   2.354   4.610
13427TIP3    H240223   4.776   2.210   4.653
13428TIP3   OH240224   0.244   7.459   0.300
13428TIP3    H140225   0.254   7.529   0.364
13428TIP3    H240226   0.150   7.441   0.297
13429TIP3   OH240227   7.590   2.669   0.937
13429TIP3    H140228   7.586   2.579   0.968
13429TIP3    H240229   7.683   2.685   0.920
13430TIP3   OH240230   1.219   1.045   5.418
13430TIP3    H140231   1.288   1.068   5.356
13430TIP3    H240232   1.261   1.049   5.504
13431TIP3   OH240233   4.260   2.152   1.945
13431TIP3    H140234   4.191   2.209   1.980
13431TIP3    H240235   4.326   2.149   2.014
13432TIP3   OH240236   3.180   7.889   2.648
13432TIP3    H140237   3.225   7.824   2.703
13432TIP3    H240238   3.241   7.906   2.577
13433TIP3   OH240239   6.771   4.502   4.006
13433TIP3    H140240   6.749   4.521   4.097
13433TIP3    H240241   6.855   4.455   4.010
13434TIP3   OH240242   0.468   3.217   0.274
13434TIP3    H140243   0.478   3.125   0.248
13434TIP3    H240244   0.397   3.250   0.219
13435TIP3   OH240245   2.224   0.291   0.730
13435TIP3    H140246   2.244   0.381   0.756
13435TIP3    H240247   2.201   0.297   0.637
13436TIP3   OH240248   5.424   3.313   0.729
13436TIP3    H140249   5.438   3.307   0.635
13436TIP3    H240250   5.452   3.402   0.752
13437TIP3   OH240251   4.140   4.445   3.144
13437TIP3    H140252   4.060   4.464   3.096
13437TIP3    H240253   4.143   4.350   3.148
13438TIP3   OH240254   7.525   4.482   3.042
13438TIP3    H140255   7.435   4.508   3.025
13438TIP3    H240256   7.564   4.558   3.086
13439TIP3   OH240257   4.578   4.812   1.162
13439TIP3    H140258   4.549   4.728   1.196
13439TIP3    H240259   4.653   4.792   1.107
13440TIP3   OH240260   0.882   2.814   3.480
13440TIP3    H140261   0.970   2.776   3.488
13440TIP3    H240262   0.833   2.776   3.553
13441TIP3   OH240263   0.609   7.484   3.118
13441TIP3    H140264   0.606   7.394   3.151
13441TIP3    H240265   0.701   7.509   3.126
13442TIP3   OH240266   2.771   4.955   3.859
13442TIP3    H140267   2.717   5.008   3.918
13442TIP3    H240268   2.727   4.961   3.774
13443TIP3   OH240269   0.871   0.162   3.606
13443TIP3    H140270   0.961   0.140   3.628
13443TIP3    H240271   0.824   0.079   3.612
13444TIP3   OH240272   7.838   6.113   3.539
13444TIP3    H140273   7.846   6.161   3.456
13444TIP3    H240274   7.858   6.022   3.516
13445TIP3   OH240275   2.389   0.291   2.208
13445TIP3    H140276   2.354   0.313   2.294
13445TIP3    H240277   2.387   0.373   2.159
13446TIP3   OH240278   1.833   0.247   4.486
13446TIP3    H140279   1.900   0.311   4.462
13446TIP3    H240280   1.787   0.289   4.560
13447TIP3   OH240281   4.691   5.719   4.837
13447TIP3    H140282   4.633   5.717   4.760
13447TIP3    H240283   4.699   5.813   4.858
13448TIP3   OH240284   3.947   0.834   5.351
13448TIP3    H140285   3.996   0.898   5.404
13448TIP3    H240286   3.864   0.823   5.397
13449TIP3   OH240287   8.042   2.090   1.776
13449TIP3    H140288   8.062   2.181   1.796
13449TIP3    H240289   8.117   2.041   1.809
13450TIP3   OH240290   3.068   3.478   5.020
13450TIP3    H140291   3.133   3.484   5.090
13450TIP3    H240292   3.022   3.396   5.035
13451TIP3   OH240293   2.019   7.006   3.438
13451TIP3    H140294   2.035   7.075   3.503
13451TIP3    H240295   1.946   6.955   3.475
13452TIP3   OH240296   4.900   3.970   4.551
13452TIP3    H140297   4.941   3.885   4.567
13452TIP3    H240298   4.808   3.958   4.576
13453TIP3   OH240299   2.130   1.586   1.537
13453TIP3    H140300   2.137   1.490   1.542
13453TIP3    H240301   2.200   1.612   1.477
13454TIP3   OH240302   7.277   5.454   1.604
13454TIP3    H140303   7.294   5.360   1.608
13454TIP3    H240304   7.244   5.469   1.515
13455TIP3   OH240305   0.204   7.612   3.052
13455TIP3    H140306   0.290   7.645   3.078
13455TIP3    H240307   0.221   7.523   3.022
13456TIP3   OH240308   4.893   5.606   4.195
13456TIP3    H140309   4.941   5.569   4.269
13456TIP3    H240310   4.836   5.535   4.165
13457TIP3   OH240311   0.843   7.745   2.788
13457TIP3    H140312   0.930   7.781   2.810
13457TIP3    H240313   0.783   7.794   2.843
13458TIP3   OH240314   7.937   5.510   1.198
13458TIP3    H140315   7.867   5.453   1.229
13458TIP3    H240316   8.011   5.451   1.185
13459TIP3   OH240317   0.210   3.262   0.484
13459TIP3    H140318   0.212   3.204   0.408
13459TIP3    H240319   0.119   3.261   0.513
13460TIP3   OH240320   1.795   0.309   1.695
13460TIP3    H140321   1.753   0.315   1.609
13460TIP3    H240322   1.770   0.223   1.728
13461TIP3   OH240323   7.821   5.454   5.368
13461TIP3    H140324   7.902   5.490   5.404
13461TIP3    H240325   7.781   5.527   5.321
13462TIP3   OH240326   0.928   2.891   6.429
13462TIP3    H140327   1.015   2.909   6.465
13462TIP3    H240328   0.868   2.923   6.496
13463TIP3   OH240329   2.443   6.676   6.654
13463TIP3    H140330   2.350   6.693   6.673
13463TIP3    H240331   2.442   6.598   6.599
13464TIP3   OH240332   8.005   7.052   5.363
13464TIP3    H140333   7.950   7.068   5.286
13464TIP3    H240334   7.948   7.072   5.438
13465TIP3   OH240335   0.689   5.494   0.039
13465TIP3    H140336   0.649   5.561   0.096
13465TIP3    H240337   0.689   5.415   0.093
13466TIP3   OH240338   5.596   7.695   3.011
13466TIP3    H140339   5.669   7.635   2.994
13466TIP3    H240340   5.586   7.744   2.929
13467TIP3   OH240341   2.789   1.642   5.059
13467TIP3    H140342   2.856   1.707   5.036
13467TIP3    H240343   2.767   1.600   4.977
13468TIP3   OH240344   2.696   2.690   4.440
13468TIP3    H140345   2.745   2.771   4.426
13468TIP3    H240346   2.745   2.644   4.508
13469TIP3   OH240347   1.629   7.166   6.245
13469TIP3    H140348   1.577   7.100   6.290
13469TIP3    H240349   1.631   7.137   6.154
13470TIP3   OH240350   7.495   6.522   5.142
13470TIP3    H140351   7.431   6.452   5.152
13470TIP3    H240352   7.462   6.575   5.069
13471TIP3   OH240353   1.179   1.360   0.800
13471TIP3    H140354   1.094   1.331   0.767
13471TIP3    H240355   1.188   1.450   0.767
13472TIP3   OH240356   5.840   6.064   1.683
13472TIP3    H140357   5.822   5.976   1.651
13472TIP3    H240358   5.935   6.074   1.674
13473TIP3   OH240359   1.592   7.903   2.774
13473TIP3    H140360   1.558   7.916   2.862
13473TIP3    H240361   1.529   7.844   2.733
13474TIP3   OH240362   5.060   1.161   2.064
13474TIP3    H140363   5.046   1.248   2.103
13474TIP3    H240364   4.992   1.106   2.104
13475TIP3   OH240365   7.700   2.351   1.910
13475TIP3    H140366   7.793   2.328   1.919
13475TIP3    H240367   7.671   2.302   1.833
13476TIP3   OH240368   7.194   3.852   2.066
13476TIP3    H140369   7.114   3.862   2.015
13476TIP3    H240370   7.244   3.785   2.020
13477TIP3   OH240371   4.133   0.898   6.564
13477TIP3    H140372   4.135   0.988   6.531
13477TIP3    H240373   4.148   0.844   6.486
13478TIP3   OH240374   6.196   2.682   0.550
13478TIP3    H140375   6.207   2.711   0.459
13478TIP3    H240376   6.258   2.736   0.600
13479TIP3   OH240377   7.955   5.942   1.610
13479TIP3    H140378   7.876   5.972   1.657
13479TIP3    H240379   7.928   5.859   1.570
13480TIP3   OH240380   8.273   1.581   1.498
13480TIP3    H140381   8.327   1.623   1.431
13480TIP3    H240382   8.317   1.498   1.516
13481TIP3   OH240383   5.580   1.746   3.704
13481TIP3    H140384   5.579   1.689   3.627
13481TIP3    H240385   5.487   1.755   3.729
13482TIP3   OH240386   2.836   4.670   3.922
13482TIP3    H140387   2.851   4.763   3.940
13482TIP3    H240388   2.917   4.627   3.949
13483TIP3   OH240389   6.382   1.060   0.300
13483TIP3    H140390   6.314   1.090   0.239
13483TIP3    H240391   6.435   1.138   0.316
13484TIP3   OH240392   7.795   1.749   3.275
13484TIP3    H140393   7.761   1.824   3.324
13484TIP3    H240394   7.729   1.681   3.286
13485TIP3   OH240395   0.089   3.422   3.519
13485TIP3    H140396   0.057   3.498   3.568
13485TIP3    H240397   0.137   3.370   3.584
13486TIP3   OH240398   6.463   5.195   6.805
13486TIP3    H140399   6.486   5.247   6.728
13486TIP3    H240400   6.483   5.105   6.780
13487TIP3   OH240401   0.737   1.355   2.977
13487TIP3    H140402   0.767   1.403   3.054
13487TIP3    H240403   0.800   1.379   2.908
13488TIP3   OH240404   4.135   2.363   0.210
13488TIP3    H140405   4.086   2.442   0.187
13488TIP3    H240406   4.076   2.291   0.190
13489TIP3   OH240407   4.851   0.528   5.608
13489TIP3    H140408   4.860   0.437   5.637
13489TIP3    H240409   4.757   0.541   5.600
13490TIP3   OH240410   0.296   2.579   5.869
13490TIP3    H140411   0.344   2.650   5.826
13490TIP3    H240412   0.207   2.611   5.878
13491TIP3   OH240413   3.215   1.274   3.692
13491TIP3    H140414   3.250   1.289   3.780
13491TIP3    H240415   3.121   1.268   3.703
13492TIP3   OH240416   6.376   4.327   0.121
13492TIP3    H140417   6.467   4.302   0.141
13492TIP3    H240418   6.336   4.340   0.206
13493TIP3   OH240419   5.716   1.508   6.153
13493TIP3    H140420   5.713   1.544   6.242
13493TIP3    H240421   5.689   1.581   6.097
13494TIP3   OH240422   6.612   4.969   3.335
13494TIP3    H140423   6.690   4.957   3.390
13494TIP3    H240424   6.644   4.954   3.246
13495TIP3   OH240425   3.791   2.033   2.863
13495TIP3    H140426   3.781   1.940   2.843
13495TIP3    H240427   3.762   2.041   2.953
13496TIP3   OH240428   8.238   3.024   0.726
13496TIP3    H140429   8.317   3.022   0.780
13496TIP3    H240430   8.271   3.022   0.636
13497TIP3   OH240431   0.052   6.666   4.880
13497TIP3    H140432  -0.010   6.602   4.845
13497TIP3    H240433   0.002   6.747   4.888
13498TIP3   OH240434   1.406   5.820   6.673
13498TIP3    H140435   1.320   5.779   6.675
13498TIP3    H240436   1.389   5.912   6.693
13499TIP3   OH240437   6.258   1.358   1.900
13499TIP3    H140438   6.320   1.407   1.955
13499TIP3    H240439   6.312   1.324   1.828
13500TIP3   OH240440   2.144   4.988   4.692
13500TIP3    H140441   2.157   4.920   4.759
13500TIP3    H240442   2.059   4.968   4.654
13501TIP3   OH240443   8.097   2.426   4.277
13501TIP3    H140444   8.004   2.413   4.296
13501TIP3    H240445   8.115   2.517   4.299
13502TIP3   OH240446   4.434   4.255   5.400
13502TIP3    H140447   4.525   4.230   5.417
13502TIP3    H240448   4.391   4.173   5.376
13503TIP3   OH240449   2.873   5.424   0.912
13503TIP3    H140450   2.944   5.476   0.875
13503TIP3    H240451   2.802   5.487   0.926
13504TIP3   OH240452   6.867   6.125   1.878
13504TIP3    H140453   6.933   6.193   1.864
13504TIP3    H240454   6.868   6.074   1.797
13505TIP3   OH240455   7.150   4.652   3.470
13505TIP3    H140456   7.106   4.731   3.499
13505TIP3    H240457   7.164   4.601   3.550
13506TIP3   OH240458   6.301   2.205   3.751
13506TIP3    H140459   6.221   2.251   3.776
13506TIP3    H240460   6.300   2.205   3.655
13507TIP3   OH240461   5.804   3.488   1.861
13507TIP3    H140462   5.789   3.560   1.922
13507TIP3    H240463   5.767   3.411   1.905
13508TIP3   OH240464   6.155   4.745   3.415
13508TIP3    H140465   6.232   4.784   3.374
13508TIP3    H240466   6.083   4.802   3.389
13509TIP3   OH240467   4.939   1.912   3.387
13509TIP3    H140468   5.013   1.896   3.446
13509TIP3    H240469   4.979   1.946   3.307
13510TIP3   OH240470   2.679   7.376   4.164
13510TIP3    H140471   2.763   7.335   4.146
13510TIP3    H240472   2.686   7.463   4.125
13511TIP3   OH240473   1.773   6.342   0.214
13511TIP3    H140474   1.824   6.332   0.134
13511TIP3    H240475   1.787   6.260   0.262
13512TIP3   OH240476   5.182   5.700   5.758
13512TIP3    H140477   5.166   5.641   5.832
13512TIP3    H240478   5.252   5.758   5.789
13513TIP3   OH240479   7.150   5.351   5.241
13513TIP3    H140480   7.110   5.267   5.221
13513TIP3    H240481   7.221   5.330   5.302
13514TIP3   OH240482   1.894   2.567   3.643
13514TIP3    H140483   1.967   2.509   3.663
13514TIP3    H240484   1.819   2.509   3.630
13515TIP3   OH240485   8.111   3.507   6.410
13515TIP3    H140486   8.203   3.498   6.436
13515TIP3    H240487   8.085   3.593   6.440
13516TIP3   OH240488   0.214   4.351   3.245
13516TIP3    H140489   0.216   4.328   3.338
13516TIP3    H240490   0.145   4.417   3.239
13517TIP3   OH240491   7.997   6.652   5.615
13517TIP3    H140492   7.951   6.657   5.531
13517TIP3    H240493   7.980   6.737   5.656
13518TIP3   OH240494   4.101   6.594   6.791
13518TIP3    H140495   4.130   6.680   6.758
13518TIP3    H240496   4.179   6.539   6.786
13519TIP3   OH240497   8.253   2.756   2.980
13519TIP3    H140498   8.320   2.703   2.939
13519TIP3    H240499   8.175   2.701   2.980
13520TIP3   OH240500   4.696   3.869   4.695
13520TIP3    H140501   4.636   3.906   4.760
13520TIP3    H240502   4.680   3.775   4.699
13521TIP3   OH240503   1.926   0.258   6.466
13521TIP3    H140504   2.012   0.216   6.456
13521TIP3    H240505   1.927   0.293   6.555
13522TIP3   OH240506   6.775   4.494   3.615
13522TIP3    H140507   6.735   4.476   3.530
13522TIP3    H240508   6.753   4.419   3.669
13523TIP3   OH240509   0.299   6.618   0.215
13523TIP3    H140510   0.221   6.567   0.192
13523TIP3    H240511   0.279   6.652   0.302
13524TIP3   OH240512   0.177   0.413   6.780
13524TIP3    H140513   0.196   0.347   6.714
13524TIP3    H240514   0.223   0.491   6.750
13525TIP3   OH240515   1.795   1.221   0.077
13525TIP3    H140516   1.762   1.243  -0.010
13525TIP3    H240517   1.832   1.303   0.110
13526TIP3   OH240518   4.967   6.112   0.916
13526TIP3    H140519   5.040   6.157   0.959
13526TIP3    H240520   4.902   6.181   0.901
13527TIP3   OH240521   6.094   7.647   6.641
13527TIP3    H140522   6.087   7.703   6.718
13527TIP3    H240523   6.188   7.626   6.635
13528TIP3   OH240524   4.422   3.531   6.599
13528TIP3    H140525   4.406   3.581   6.680
13528TIP3    H240526   4.496   3.475   6.620
13529TIP3   OH240527   1.827   0.824   5.467
13529TIP3    H140528   1.916   0.842   5.496
13529TIP3    H240529   1.838   0.756   5.400
13530TIP3   OH240530   5.855   7.799   3.997
13530TIP3    H140531   5.863   7.810   4.092
13530TIP3    H240532   5.826   7.885   3.965
13531TIP3   OH240533   5.807   1.124   5.354
13531TIP3    H140534   5.732   1.178   5.379
13531TIP3    H240535   5.817   1.062   5.426
13532TIP3   OH240536   6.976   4.465   3.373
13532TIP3    H140537   6.919   4.409   3.426
13532TIP3    H240538   7.002   4.535   3.432
13533TIP3   OH240539   7.171   2.853   4.391
13533TIP3    H140540   7.080   2.852   4.420
13533TIP3    H240541   7.222   2.867   4.472
13534TIP3   OH240542   5.998   1.287   6.433
13534TIP3    H140543   6.092   1.280   6.414
13534TIP3    H240544   5.988   1.240   6.516
13535TIP3   OH240545   0.296   4.885   5.939
13535TIP3    H140546   0.351   4.923   5.870
13535TIP3    H240547   0.268   4.961   5.990
13536TIP3   OH240548   7.434   3.569   4.748
13536TIP3    H140549   7.435   3.531   4.660
13536TIP3    H240550   7.341   3.581   4.768
13537TIP3   OH240551   0.704   0.401   4.051
13537TIP3    H140552   0.641   0.352   3.998
13537TIP3    H240553   0.650   0.461   4.104
13538TIP3   OH240554   0.282   4.247   3.793
13538TIP3    H140555   0.348   4.180   3.809
13538TIP3    H240556   0.229   4.248   3.873
13539TIP3   OH240557   4.576   4.970   2.133
13539TIP3    H140558   4.565   4.899   2.195
13539TIP3    H240559   4.669   4.967   2.110
13540TIP3   OH240560   4.860   3.304   5.010
13540TIP3    H140561   4.915   3.235   4.974
13540TIP3    H240562   4.771   3.277   4.988
13541TIP3   OH240563   0.156   7.196   2.227
13541TIP3    H140564   0.222   7.192   2.295
13541TIP3    H240565   0.152   7.288   2.202
13542TIP3   OH240566   5.005   3.288   6.298
13542TIP3    H140567   5.005   3.384   6.290
13542TIP3    H240568   5.010   3.257   6.207
13543TIP3   OH240569   0.782   4.473   5.524
13543TIP3    H140570   0.765   4.539   5.591
13543TIP3    H240571   0.865   4.433   5.551
13544TIP3   OH240572   3.848   1.660   3.665
13544TIP3    H140573   3.811   1.705   3.741
13544TIP3    H240574   3.921   1.716   3.638
13545TIP3   OH240575   2.314   7.926   3.470
13545TIP3    H140576   2.330   7.835   3.447
13545TIP3    H240577   2.286   7.923   3.562
13546TIP3   OH240578   4.752   4.150   6.276
13546TIP3    H140579   4.828   4.187   6.321
13546TIP3    H240580   4.786   4.069   6.237
13547TIP3   OH240581   0.063   2.540   1.767
13547TIP3    H140582   0.136   2.600   1.779
13547TIP3    H240583   0.099   2.453   1.786
13548TIP3   OH240584   4.154   6.255   4.461
13548TIP3    H140585   4.111   6.341   4.456
13548TIP3    H240586   4.084   6.192   4.447
13549TIP3   OH240587   3.940   1.441   6.485
13549TIP3    H140588   3.879   1.483   6.425
13549TIP3    H240589   4.022   1.435   6.436
13550TIP3   OH240590   2.066   6.455   5.811
13550TIP3    H140591   2.061   6.538   5.859
13550TIP3    H240592   2.148   6.415   5.840
13551TIP3   OH240593   4.697   6.399   2.854
13551TIP3    H140594   4.656   6.440   2.931
13551TIP3    H240595   4.623   6.361   2.806
13552TIP3   OH240596   1.431   7.331   5.378
13552TIP3    H140597   1.459   7.240   5.365
13552TIP3    H240598   1.500   7.383   5.338
13553TIP3   OH240599   3.748   1.633   2.020
13553TIP3    H140600   3.766   1.619   2.112
13553TIP3    H240601   3.666   1.683   2.019
13554TIP3   OH240602   3.118   7.359   0.877
13554TIP3    H140603   3.043   7.300   0.876
13554TIP3    H240604   3.089   7.434   0.928
13555TIP3   OH240605   1.400   7.766   3.215
13555TIP3    H140606   1.436   7.845   3.256
13555TIP3    H240607   1.308   7.767   3.238
13556TIP3   OH240608   4.613   0.043   0.910
13556TIP3    H140609   4.660  -0.034   0.878
13556TIP3    H240610   4.546   0.008   0.968
13557TIP3   OH240611   4.439   3.377   5.465
13557TIP3    H140612   4.354   3.357   5.503
13557TIP3    H240613   4.501   3.359   5.536
13558TIP3   OH240614   2.859   5.842   1.509
13558TIP3    H140615   2.803   5.901   1.460
13558TIP3    H240616   2.944   5.886   1.514
13559TIP3   OH240617   0.432   6.746   1.208
13559TIP3    H140618   0.448   6.686   1.281
13559TIP3    H240619   0.393   6.823   1.248
13560TIP3   OH240620   6.679   2.022   3.121
13560TIP3    H140621   6.685   1.947   3.181
13560TIP3    H240622   6.761   2.070   3.134
13561TIP3   OH240623   1.103   6.171   6.200
13561TIP3    H140624   1.052   6.173   6.119
13561TIP3    H240625   1.157   6.093   6.192
13562TIP3   OH240626   2.670   4.062  -0.008
13562TIP3    H140627   2.651   4.095   0.080
13562TIP3    H240628   2.607   3.991  -0.021
13563TIP3   OH240629   2.446   0.585   5.667
13563TIP3    H140630   2.536   0.591   5.637
13563TIP3    H240631   2.409   0.671   5.649
13564TIP3   OH240632   5.391   3.705   5.031
13564TIP3    H140633   5.388   3.640   4.960
13564TIP3    H240634   5.422   3.785   4.988
13565TIP3   OH240635   3.470   3.113   4.825
13565TIP3    H140636   3.450   3.137   4.915
13565TIP3    H240637   3.497   3.195   4.784
13566TIP3   OH240638   7.762   7.588   2.945
13566TIP3    H140639   7.856   7.574   2.936
13566TIP3    H240640   7.754   7.668   2.996
13567TIP3   OH240641   3.189   4.359   5.606
13567TIP3    H140642   3.278   4.323   5.604
13567TIP3    H240643   3.163   4.363   5.514
13568TIP3   OH240644   7.156   0.275   2.338
13568TIP3    H140645   7.220   0.205   2.325
13568TIP3    H240646   7.101   0.245   2.410
13569TIP3   OH240647   7.683   3.116   5.408
13569TIP3    H140648   7.733   3.197   5.407
13569TIP3    H240649   7.687   3.086   5.499
13570TIP3   OH240650   0.202   3.502   3.263
13570TIP3    H140651   0.200   3.439   3.191
13570TIP3    H240652   0.172   3.453   3.339
13571TIP3   OH240653   3.768   1.727   2.812
13571TIP3    H140654   3.785   1.739   2.718
13571TIP3    H240655   3.841   1.672   2.842
13572TIP3   OH240656   3.356   0.011   6.489
13572TIP3    H140657   3.432   0.060   6.459
13572TIP3    H240658   3.343   0.038   6.580
13573TIP3   OH240659   3.089   4.587   5.711
13573TIP3    H140660   3.046   4.579   5.796
13573TIP3    H240661   3.099   4.497   5.680
13574TIP3   OH240662   4.184   5.174   4.785
13574TIP3    H140663   4.280   5.175   4.786
13574TIP3    H240664   4.159   5.198   4.873
13575TIP3   OH240665   7.356   7.713   1.123
13575TIP3    H140666   7.279   7.660   1.145
13575TIP3    H240667   7.332   7.756   1.042
13576TIP3   OH240668   1.976   6.624   4.327
13576TIP3    H140669   1.999   6.715   4.347
13576TIP3    H240670   1.910   6.631   4.257
13577TIP3   OH240671   5.803   3.003   2.970
13577TIP3    H140672   5.898   3.001   2.985
13577TIP3    H240673   5.776   3.090   2.998
13578TIP3   OH240674   0.888   0.168   3.068
13578TIP3    H140675   0.796   0.159   3.044
13578TIP3    H240676   0.905   0.262   3.066
13579TIP3   OH240677   2.546   1.839   1.199
13579TIP3    H140678   2.540   1.749   1.166
13579TIP3    H240679   2.630   1.843   1.243
13580TIP3   OH240680   0.905   0.503   2.335
13580TIP3    H140681   0.906   0.411   2.364
13580TIP3    H240682   0.996   0.530   2.337
13581TIP3   OH240683   1.327   4.801   3.351
13581TIP3    H140684   1.251   4.853   3.376
13581TIP3    H240685   1.340   4.820   3.258
13582TIP3   OH240686   5.580   7.350   2.365
13582TIP3    H140687   5.525   7.427   2.378
13582TIP3    H240688   5.544   7.307   2.287
13583TIP3   OH240689   8.086   3.976   0.725
13583TIP3    H140690   8.033   3.923   0.665
13583TIP3    H240691   8.176   3.965   0.694
13584TIP3   OH240692   3.245   2.176   2.719
13584TIP3    H140693   3.164   2.226   2.716
13584TIP3    H240694   3.231   2.111   2.787
13585TIP3   OH240695   6.576   2.503   6.287
13585TIP3    H140696   6.627   2.559   6.229
13585TIP3    H240697   6.524   2.564   6.340
13586TIP3   OH240698   7.823   2.196   2.507
13586TIP3    H140699   7.877   2.178   2.584
13586TIP3    H240700   7.887   2.217   2.438
13587TIP3   OH240701   2.354   1.510   3.249
13587TIP3    H140702   2.376   1.508   3.156
13587TIP3    H240703   2.329   1.601   3.266
13588TIP3   OH240704   0.349   5.059   2.585
13588TIP3    H140705   0.372   5.138   2.635
13588TIP3    H240706   0.377   4.986   2.641
13589TIP3   OH240707   4.492   2.268   2.061
13589TIP3    H140708   4.494   2.343   2.003
13589TIP3    H240709   4.567   2.214   2.033
13590TIP3   OH240710   5.107   0.753   0.642
13590TIP3    H140711   5.117   0.689   0.572
13590TIP3    H240712   5.086   0.835   0.597
13591TIP3   OH240713   6.672   3.499   4.422
13591TIP3    H140714   6.726   3.555   4.478
13591TIP3    H240715   6.640   3.557   4.353
13592TIP3   OH240716   7.100   4.739   6.216
13592TIP3    H140717   7.038   4.712   6.283
13592TIP3    H240718   7.107   4.663   6.158
13593TIP3   OH240719   0.853   1.841   6.475
13593TIP3    H140720   0.865   1.925   6.432
13593TIP3    H240721   0.939   1.798   6.468
13594TIP3   OH240722   5.949   6.138   5.953
13594TIP3    H140723   5.880   6.124   5.888
13594TIP3    H240724   6.005   6.204   5.913
13595TIP3   OH240725   1.425   7.535   4.504
13595TIP3    H140726   1.472   7.611   4.540
13595TIP3    H240727   1.488   7.463   4.512
13596TIP3   OH240728   3.108   0.359   4.975
13596TIP3    H140729   3.120   0.264   4.965
13596TIP3    H240730   3.113   0.374   5.070
13597TIP3   OH240731   7.705   3.868   4.679
13597TIP3    H140732   7.642   3.854   4.750
13597TIP3    H240733   7.656   3.917   4.613
13598TIP3   OH240734   7.180   2.584   3.515
13598TIP3    H140735   7.137   2.533   3.446
13598TIP3    H240736   7.118   2.581   3.588
13599TIP3   OH240737   2.105   5.207   2.493
13599TIP3    H140738   2.062   5.282   2.452
13599TIP3    H240739   2.166   5.247   2.556
13600TIP3   OH240740   8.200   7.482   2.968
13600TIP3    H140741   8.261   7.551   2.942
13600TIP3    H240742   8.185   7.497   3.061
13601TIP3   OH240743   7.204   2.910   6.649
13601TIP3    H140744   7.284   2.873   6.686
13601TIP3    H240745   7.134   2.853   6.681
13602TIP3   OH240746   1.382   3.479   5.664
13602TIP3    H140747   1.438   3.555   5.683
13602TIP3    H240748   1.357   3.446   5.750
13603TIP3   OH240749   6.560   0.090   5.071
13603TIP3    H140750   6.617   0.139   5.131
13603TIP3    H240751   6.511   0.156   5.024
13604TIP3   OH240752   5.774   4.907   5.133
13604TIP3    H140753   5.754   4.840   5.068
13604TIP3    H240754   5.812   4.979   5.083
13605TIP3   OH240755   8.133   0.158   1.989
13605TIP3    H140756   8.190   0.214   2.042
13605TIP3    H240757   8.185   0.134   1.913
13606TIP3   OH240758   5.580   7.847   0.498
13606TIP3    H140759   5.628   7.769   0.471
13606TIP3    H240760   5.647   7.906   0.533
13607TIP3   OH240761   1.754   6.024   3.534
13607TIP3    H140762   1.822   5.986   3.479
13607TIP3    H240763   1.695   5.951   3.553
13608TIP3   OH240764   1.447   1.333   3.186
13608TIP3    H140765   1.404   1.325   3.271
13608TIP3    H240766   1.389   1.390   3.135
13609TIP3   OH240767   2.872   2.947   3.751
13609TIP3    H140768   2.820   2.929   3.672
13609TIP3    H240769   2.896   3.039   3.744
13610TIP3   OH240770   5.013   7.130   6.583
13610TIP3    H140771   5.011   7.074   6.506
13610TIP3    H240772   4.978   7.076   6.654
13611TIP3   OH240773   3.053   4.777   6.094
13611TIP3    H140774   3.033   4.693   6.133
13611TIP3    H240775   2.970   4.806   6.055
13612TIP3   OH240776   1.983   4.269   1.617
13612TIP3    H140777   1.949   4.192   1.663
13612TIP3    H240778   2.017   4.325   1.686
13613TIP3   OH240779   2.181   3.567   3.871
13613TIP3    H140780   2.252   3.515   3.833
13613TIP3    H240781   2.145   3.616   3.798
13614TIP3   OH240782   1.398   3.171   4.701
13614TIP3    H140783   1.459   3.109   4.739
13614TIP3    H240784   1.316   3.158   4.750
13615TIP3   OH240785   6.870   6.399   3.075
13615TIP3    H140786   6.781   6.418   3.102
13615TIP3    H240787   6.922   6.406   3.156
13616TIP3   OH240788   5.888   7.555   3.101
13616TIP3    H140789   5.891   7.542   3.006
13616TIP3    H240790   5.973   7.524   3.132
13617TIP3   OH240791   8.280   4.607  -0.026
13617TIP3    H140792   8.246   4.656   0.048
13617TIP3    H240793   8.321   4.530   0.012
13618TIP3   OH240794   7.382   6.770   4.197
13618TIP3    H140795   7.448   6.839   4.206
13618TIP3    H240796   7.314   6.810   4.142
13619TIP3   OH240797   4.236   4.604   1.989
13619TIP3    H140798   4.163   4.635   1.934
13619TIP3    H240799   4.303   4.578   1.926
13620TIP3   OH240800   0.097   7.882   6.163
13620TIP3    H140801   0.157   7.843   6.226
13620TIP3    H240802   0.050   7.949   6.212
13621TIP3   OH240803   4.181   5.211   3.020
13621TIP3    H140804   4.217   5.288   2.975
13621TIP3    H240805   4.193   5.139   2.959
13622TIP3   OH240806   3.193   2.934   5.495
13622TIP3    H140807   3.279   2.911   5.529
13622TIP3    H240808   3.144   2.852   5.495
13623TIP3   OH240809   2.227   5.310   2.703
13623TIP3    H140810   2.284   5.266   2.766
13623TIP3    H240811   2.171   5.366   2.757
13624TIP3   OH240812   4.215   7.344   5.813
13624TIP3    H140813   4.290   7.288   5.793
13624TIP3    H240814   4.251   7.433   5.815
13625TIP3   OH240815   2.304   7.337   1.613
13625TIP3    H140816   2.219   7.342   1.655
13625TIP3    H240817   2.362   7.299   1.679
13626TIP3   OH240818   7.095   0.181   0.893
13626TIP3    H140819   7.155   0.106   0.886
13626TIP3    H240820   7.009   0.140   0.904
13627TIP3   OH240821   6.371   7.120   3.335
13627TIP3    H140822   6.443   7.061   3.311
13627TIP3    H240823   6.351   7.167   3.255
13628TIP3   OH240824   2.836   6.310   2.770
13628TIP3    H140825   2.762   6.316   2.711
13628TIP3    H240826   2.817   6.233   2.824
13629TIP3   OH240827   3.789   6.364   3.691
13629TIP3    H140828   3.833   6.390   3.772
13629TIP3    H240829   3.707   6.414   3.691
13630TIP3   OH240830   3.797   2.785   4.178
13630TIP3    H140831   3.770   2.693   4.170
13630TIP3    H240832   3.735   2.822   4.240
13631TIP3   OH240833   1.459   6.524   2.241
13631TIP3    H140834   1.541   6.480   2.220
13631TIP3    H240835   1.394   6.454   2.245
13632TIP3   OH240836   3.015   7.072   3.737
13632TIP3    H140837   2.980   7.105   3.820
13632TIP3    H240838   3.059   6.990   3.761
13633TIP3   OH240839   7.909   5.670   5.540
13633TIP3    H140840   7.871   5.752   5.572
13633TIP3    H240841   8.002   5.690   5.526
13634TIP3   OH240842   0.908   1.194   1.535
13634TIP3    H140843   0.843   1.264   1.524
13634TIP3    H240844   0.972   1.210   1.466
13635TIP3   OH240845   4.933   0.721   6.446
13635TIP3    H140846   4.984   0.795   6.479
13635TIP3    H240847   4.892   0.754   6.366
13636TIP3   OH240848   0.705   4.610   3.059
13636TIP3    H140849   0.641   4.542   3.082
13636TIP3    H240850   0.788   4.563   3.051
13637TIP3   OH240851   3.231   2.828   0.829
13637TIP3    H140852   3.294   2.808   0.899
13637TIP3    H240853   3.195   2.743   0.804
13638TIP3   OH240854   2.774   7.685   4.399
13638TIP3    H140855   2.701   7.747   4.404
13638TIP3    H240856   2.743   7.608   4.448
13639TIP3   OH240857   7.433   5.173   1.016
13639TIP3    H140858   7.391   5.104   1.067
13639TIP3    H240859   7.430   5.250   1.072
13640TIP3   OH240860   4.346   6.344   6.030
13640TIP3    H140861   4.384   6.325   6.116
13640TIP3    H240862   4.298   6.426   6.043
13641TIP3   OH240863   7.095   7.231   4.407
13641TIP3    H140864   7.172   7.210   4.459
13641TIP3    H240865   7.106   7.180   4.327
13642TIP3   OH240866   6.406   3.164   6.812
13642TIP3    H140867   6.432   3.124   6.730
13642TIP3    H240868   6.340   3.229   6.787
13643TIP3   OH240869   0.240   3.381   6.649
13643TIP3    H140870   0.271   3.314   6.711
13643TIP3    H240871   0.172   3.428   6.697
13644TIP3   OH240872   6.681   5.064   4.840
13644TIP3    H140873   6.716   5.056   4.929
13644TIP3    H240874   6.730   4.999   4.789
13645TIP3   OH240875   4.918   3.224   4.683
13645TIP3    H140876   4.829   3.200   4.655
13645TIP3    H240877   4.931   3.176   4.765
13646TIP3   OH240878   4.278   5.233   6.427
13646TIP3    H140879   4.277   5.229   6.523
13646TIP3    H240880   4.362   5.272   6.406
13647TIP3   OH240881   6.902   7.216   3.689
13647TIP3    H140882   6.919   7.300   3.733
13647TIP3    H240883   6.829   7.235   3.630
13648TIP3   OH240884   2.030   7.809   3.461
13648TIP3    H140885   1.949   7.764   3.438
13648TIP3    H240886   2.021   7.826   3.555
13649TIP3   OH240887   3.120   2.082   3.986
13649TIP3    H140888   3.057   2.052   4.051
13649TIP3    H240889   3.180   2.138   4.035
13650TIP3   OH240890   5.267   2.642   3.036
13650TIP3    H140891   5.258   2.605   2.948
13650TIP3    H240892   5.187   2.617   3.081
13651TIP3   OH240893   0.727   2.133   2.019
13651TIP3    H140894   0.778   2.207   1.985
13651TIP3    H240895   0.743   2.062   1.957
13652TIP3   OH240896   3.679   1.133   0.968
13652TIP3    H140897   3.688   1.214   0.918
13652TIP3    H240898   3.750   1.077   0.938
13653TIP3   OH240899   7.088   5.222   4.157
13653TIP3    H140900   7.135   5.201   4.238
13653TIP3    H240901   7.121   5.308   4.132
13654TIP3   OH240902   1.215   5.442   0.109
13654TIP3    H140903   1.231   5.525   0.064
13654TIP3    H240904   1.139   5.459   0.165
13655TIP3   OH240905   7.659   2.894   4.791
13655TIP3    H140906   7.617   2.883   4.876
13655TIP3    H240907   7.649   2.987   4.771
13656TIP3   OH240908   5.443   2.813   3.792
13656TIP3    H140909   5.445   2.826   3.887
13656TIP3    H240910   5.376   2.874   3.761
13657TIP3   OH240911   2.935   0.204   4.481
13657TIP3    H140912   2.937   0.235   4.571
13657TIP3    H240913   3.000   0.133   4.479
13658TIP3   OH240914   4.910   7.842   0.979
13658TIP3    H140915   4.852   7.771   1.005
13658TIP3    H240916   4.991   7.799   0.953
13659TIP3   OH240917   7.538   5.139   4.403
13659TIP3    H140918   7.595   5.136   4.480
13659TIP3    H240919   7.598   5.144   4.328
13660TIP3   OH240920   0.634   0.630   0.806
13660TIP3    H140921   0.670   0.581   0.732
13660TIP3    H240922   0.539   0.620   0.797
13661TIP3   OH240923   6.017   1.295   4.232
13661TIP3    H140924   5.945   1.359   4.228
13661TIP3    H240925   6.048   1.300   4.322
13662TIP3   OH240926   6.908   7.447   4.421
13662TIP3    H140927   6.838   7.403   4.372
13662TIP3    H240928   6.979   7.382   4.425
13663TIP3   OH240929   2.941   1.048   2.233
13663TIP3    H140930   2.855   1.079   2.203
13663TIP3    H240931   2.943   0.955   2.208
13664TIP3   OH240932   2.656   5.512   4.583
13664TIP3    H140933   2.560   5.504   4.576
13664TIP3    H240934   2.672   5.519   4.677
13665TIP3   OH240935   1.668   0.313   1.445
13665TIP3    H140936   1.681   0.241   1.384
13665TIP3    H240937   1.654   0.390   1.389
13666TIP3   OH240938   3.169   5.747   4.945
13666TIP3    H140939   3.073   5.752   4.945
13666TIP3    H240940   3.196   5.818   4.886
13667TIP3   OH240941   5.527   7.538   5.900
13667TIP3    H140942   5.579   7.579   5.831
13667TIP3    H240943   5.576   7.556   5.981
13668TIP3   OH240944   5.037   4.599   3.727
13668TIP3    H140945   5.015   4.568   3.814
13668TIP3    H240946   4.985   4.544   3.668
13669TIP3   OH240947   2.721   1.268   5.561
13669TIP3    H140948   2.737   1.227   5.476
13669TIP3    H240949   2.783   1.340   5.565
13670TIP3   OH240950   3.214   5.390   1.423
13670TIP3    H140951   3.140   5.331   1.437
13670TIP3    H240952   3.252   5.361   1.340
13671TIP3   OH240953   1.529   1.393   0.452
13671TIP3    H140954   1.520   1.365   0.543
13671TIP3    H240955   1.506   1.316   0.401
13672TIP3   OH240956   6.911   7.217   6.844
13672TIP3    H140957   6.864   7.287   6.798
13672TIP3    H240958   6.863   7.207   6.926
13673TIP3   OH240959   6.299   3.986   5.831
13673TIP3    H140960   6.303   4.016   5.922
13673TIP3    H240961   6.327   4.062   5.780
13674TIP3   OH240962   2.244   6.310   4.959
13674TIP3    H140963   2.275   6.364   5.032
13674TIP3    H240964   2.228   6.372   4.888
13675TIP3   OH240965   7.962   1.412   2.299
13675TIP3    H140966   7.921   1.386   2.216
13675TIP3    H240967   8.028   1.476   2.273
13676TIP3   OH240968   2.448   1.400   2.364
13676TIP3    H140969   2.388   1.470   2.342
13676TIP3    H240970   2.504   1.437   2.433
13677TIP3   OH240971   4.511   0.657   4.233
13677TIP3    H140972   4.573   0.720   4.270
13677TIP3    H240973   4.566   0.590   4.193
13678TIP3   OH240974   3.116   1.349   2.291
13678TIP3    H140975   3.041   1.356   2.232
13678TIP3    H240976   3.192   1.366   2.236
13679TIP3   OH240977   3.932   2.159   1.560
13679TIP3    H140978   4.024   2.154   1.586
13679TIP3    H240979   3.884   2.117   1.631
13680TIP3   OH240980   0.371   3.382   5.310
13680TIP3    H140981   0.359   3.418   5.222
13680TIP3    H240982   0.285   3.387   5.351
13681TIP3   OH240983   6.334   0.488   1.000
13681TIP3    H140984   6.298   0.399   0.997
13681TIP3    H240985   6.400   0.490   0.931
13682TIP3   OH240986   6.394   7.456   1.338
13682TIP3    H140987   6.391   7.534   1.393
13682TIP3    H240988   6.405   7.488   1.249
13683TIP3   OH240989   1.928   5.734   2.723
13683TIP3    H140990   1.858   5.721   2.786
13683TIP3    H240991   1.917   5.662   2.661
13684TIP3   OH240992   8.006   5.813   4.853
13684TIP3    H140993   7.966   5.900   4.849
13684TIP3    H240994   8.065   5.817   4.928
13685TIP3   OH240995   0.354   6.121   0.886
13685TIP3    H140996   0.354   6.182   0.959
13685TIP3    H240997   0.395   6.170   0.814
13686TIP3   OH240998   5.691   3.681   2.882
13686TIP3    H140999   5.743   3.748   2.839
13686TIP3    H241000   5.635   3.645   2.813
13687TIP3   OH241001   0.834   5.431   3.443
13687TIP3    H141002   0.920   5.444   3.404
13687TIP3    H241003   0.783   5.507   3.415
13688TIP3   OH241004   7.986   0.773   1.194
13688TIP3    H141005   7.918   0.710   1.171
13688TIP3    H241006   8.036   0.730   1.264
13689TIP3   OH241007   7.352   7.313   0.135
13689TIP3    H141008   7.265   7.350   0.145
13689TIP3    H241009   7.344   7.223   0.167
13690TIP3   OH241010   4.649   3.501   1.236
13690TIP3    H141011   4.668   3.513   1.329
13690TIP3    H241012   4.733   3.481   1.196
13691TIP3   OH241013   5.670   6.528   4.905
13691TIP3    H141014   5.600   6.496   4.848
13691TIP3    H241015   5.739   6.462   4.898
13692TIP3   OH241016   0.621   5.308   3.553
13692TIP3    H141017   0.654   5.260   3.629
13692TIP3    H241018   0.700   5.339   3.509
13693TIP3   OH241019   4.682   7.357   4.103
13693TIP3    H141020   4.615   7.425   4.094
13693TIP3    H241021   4.698   7.326   4.014
13694TIP3   OH241022   6.123   2.566   3.261
13694TIP3    H141023   6.051   2.626   3.241
13694TIP3    H241024   6.081   2.480   3.269
13695TIP3   OH241025   2.078   0.403   4.840
13695TIP3    H141026   2.150   0.463   4.860
13695TIP3    H241027   2.025   0.450   4.775
13696TIP3   OH241028   8.098   1.609   5.804
13696TIP3    H141029   8.006   1.620   5.829
13696TIP3    H241030   8.095   1.596   5.709
13697TIP3   OH241031   7.221   6.105   3.083
13697TIP3    H141032   7.133   6.093   3.048
13697TIP3    H241033   7.251   6.017   3.106
13698TIP3   OH241034   4.835   2.083   5.966
13698TIP3    H141035   4.761   2.067   5.907
13698TIP3    H241036   4.816   2.028   6.042
13699TIP3   OH241037   3.766   1.364   4.040
13699TIP3    H141038   3.856   1.343   4.015
13699TIP3    H241039   3.713   1.329   3.969
13700TIP3   OH241040   0.831   1.899   1.914
13700TIP3    H141041   0.901   1.834   1.922
13700TIP3    H241042   0.785   1.875   1.833
13701TIP3   OH241043   6.507   2.823   2.824
13701TIP3    H141044   6.525   2.884   2.752
13701TIP3    H241045   6.486   2.879   2.898
13702TIP3   OH241046   4.155   5.183   1.769
13702TIP3    H141047   4.128   5.201   1.859
13702TIP3    H241048   4.125   5.259   1.719
13703TIP3   OH241049   6.930   6.800   2.351
13703TIP3    H141050   6.941   6.706   2.338
13703TIP3    H241051   6.882   6.807   2.434
13704TIP3   OH241052   0.939   2.296   4.470
13704TIP3    H141053   0.895   2.238   4.408
13704TIP3    H241054   0.955   2.241   4.546
13705TIP3   OH241055   0.886   0.689   0.916
13705TIP3    H141056   0.893   0.594   0.918
13705TIP3    H241057   0.793   0.707   0.931
13706TIP3   OH241058   6.065   6.474   3.022
13706TIP3    H141059   5.981   6.455   3.063
13706TIP3    H241060   6.101   6.546   3.074
13707TIP3   OH241061   2.132   1.875   2.364
13707TIP3    H141062   2.050   1.848   2.405
13707TIP3    H241063   2.106   1.936   2.295
13708TIP3   OH241064   8.030   1.809   3.647
13708TIP3    H141065   8.081   1.878   3.688
13708TIP3    H241066   8.095   1.749   3.610
13709TIP3   OH241067   0.135   0.098   1.874
13709TIP3    H141068   0.104   0.054   1.953
13709TIP3    H241069   0.116   0.036   1.804
13710TIP3   OH241070   3.284   5.933   4.313
13710TIP3    H141071   3.194   5.960   4.295
13710TIP3    H241072   3.321   5.915   4.227
13711TIP3   OH241073   1.648   1.050   6.506
13711TIP3    H141074   1.565   1.055   6.459
13711TIP3    H241075   1.704   0.996   6.450
13712TIP3   OH241076   6.839   1.028   5.701
13712TIP3    H141077   6.864   0.936   5.715
13712TIP3    H241078   6.815   1.033   5.609
13713TIP3   OH241079   0.422   0.379   4.423
13713TIP3    H141080   0.452   0.367   4.513
13713TIP3    H241081   0.330   0.351   4.424
13714TIP3   OH241082   1.223   6.551   3.965
13714TIP3    H141083   1.266   6.635   3.953
13714TIP3    H241084   1.231   6.532   4.059
13715TIP3   OH241085   2.636   2.342   2.677
13715TIP3    H141086   2.683   2.278   2.623
13715TIP3    H241087   2.691   2.420   2.674
13716TIP3   OH241088   8.263   1.849   6.757
13716TIP3    H141089   8.193   1.796   6.720
13716TIP3    H241090   8.323   1.864   6.684
13717TIP3   OH241091   0.790   6.986   0.799
13717TIP3    H141092   0.710   7.033   0.823
13717TIP3    H241093   0.760   6.916   0.740
13718TIP3   OH241094   2.552   1.507   0.738
13718TIP3    H141095   2.487   1.534   0.673
13718TIP3    H241096   2.526   1.419   0.764
13719TIP3   OH241097   7.379   0.789   0.380
13719TIP3    H141098   7.291   0.761   0.355
13719TIP3    H241099   7.407   0.723   0.444
13720TIP3   OH241100   6.731   5.421   1.159
13720TIP3    H141101   6.731   5.326   1.153
13720TIP3    H241102   6.821   5.447   1.139
13721TIP3   OH241103   2.088   4.158   4.214
13721TIP3    H141104   2.093   4.208   4.295
13721TIP3    H241105   2.167   4.182   4.165
13722TIP3   OH241106   6.068   7.446   0.581
13722TIP3    H141107   6.062   7.508   0.508
13722TIP3    H241108   6.122   7.375   0.548
13723TIP3   OH241109   6.134   5.699   2.456
13723TIP3    H141110   6.042   5.711   2.477
13723TIP3    H241111   6.149   5.605   2.470
13724TIP3   OH241112   5.676   4.758   1.608
13724TIP3    H141113   5.718   4.729   1.689
13724TIP3    H241114   5.584   4.731   1.618
13725TIP3   OH241115   7.125   7.222   1.488
13725TIP3    H141116   7.194   7.271   1.533
13725TIP3    H241117   7.047   7.236   1.540
13726TIP3   OH241118  -0.023   6.001   2.422
13726TIP3    H141119   0.067   5.971   2.435
13726TIP3    H241120  -0.030   6.080   2.476
13727TIP3   OH241121   5.987   2.943   0.647
13727TIP3    H141122   6.074   2.983   0.641
13727TIP3    H241123   6.003   2.857   0.685
13728TIP3   OH241124   6.923   5.207   2.690
13728TIP3    H141125   6.942   5.118   2.662
13728TIP3    H241126   6.936   5.260   2.612
13729TIP3   OH241127   8.279   1.516   3.254
13729TIP3    H141128   8.296   1.422   3.247
13729TIP3    H241129   8.262   1.544   3.165
13730TIP3   OH241130   3.762   6.673   6.696
13730TIP3    H141131   3.780   6.651   6.605
13730TIP3    H241132   3.793   6.763   6.706
13731TIP3   OH241133   6.605   0.684   6.247
13731TIP3    H141134   6.510   0.683   6.252
13731TIP3    H241135   6.628   0.777   6.247
13732TIP3   OH241136   2.921   1.702   0.132
13732TIP3    H141137   2.945   1.616   0.098
13732TIP3    H241138   2.826   1.697   0.142
13733TIP3   OH241139   0.899   2.968   2.306
13733TIP3    H141140   0.993   2.978   2.293
13733TIP3    H241141   0.859   3.020   2.236
13734TIP3   OH241142   5.849   0.377   5.934
13734TIP3    H141143   5.780   0.435   5.901
13734TIP3    H241144   5.907   0.363   5.859
13735TIP3   OH241145   8.304   3.566   2.965
13735TIP3    H141146   8.260   3.510   2.900
13735TIP3    H241147   8.397   3.560   2.942
13736TIP3   OH241148   7.815   4.901   4.527
13736TIP3    H141149   7.755   4.881   4.599
13736TIP3    H241150   7.819   4.820   4.476
13737TIP3   OH241151   7.409   5.692   3.804
13737TIP3    H141152   7.503   5.697   3.787
13737TIP3    H241153   7.399   5.616   3.863
13738TIP3   OH241154   2.810   1.645   2.155
13738TIP3    H141155   2.749   1.577   2.127
13738TIP3    H241156   2.775   1.676   2.238
13739TIP3   OH241157   2.769   4.180   6.595
13739TIP3    H141158   2.676   4.156   6.600
13739TIP3    H241159   2.790   4.174   6.502
13740TIP3   OH241160   1.171   2.676   3.354
13740TIP3    H141161   1.192   2.662   3.261
13740TIP3    H241162   1.249   2.720   3.389
13741TIP3   OH241163   1.771   4.407   2.096
13741TIP3    H141164   1.720   4.393   2.175
13741TIP3    H241165   1.827   4.330   2.090
13742TIP3   OH241166   6.850   4.655   5.192
13742TIP3    H141167   6.837   4.702   5.275
13742TIP3    H241168   6.943   4.632   5.192
13743TIP3   OH241169   2.724   6.667   0.576
13743TIP3    H141170   2.665   6.706   0.641
13743TIP3    H241171   2.780   6.740   0.548
13744TIP3   OH241172   0.609   5.324   0.779
13744TIP3    H141173   0.529   5.365   0.812
13744TIP3    H241174   0.677   5.389   0.796
13745TIP3   OH241175   3.558   6.275   3.334
13745TIP3    H141176   3.630   6.334   3.359
13745TIP3    H241177   3.575   6.195   3.383
13746TIP3   OH241178   2.638   3.583   1.621
13746TIP3    H141179   2.644   3.490   1.644
13746TIP3    H241180   2.576   3.585   1.548
13747TIP3   OH241181   7.238   3.698   3.282
13747TIP3    H141182   7.307   3.695   3.348
13747TIP3    H241183   7.283   3.685   3.199
13748TIP3   OH241184   8.345   3.852   6.580
13748TIP3    H141185   8.383   3.939   6.565
13748TIP3    H241186   8.280   3.842   6.510
13749TIP3   OH241187   6.401   4.154   0.374
13749TIP3    H141188   6.462   4.136   0.302
13749TIP3    H241189   6.450   4.132   0.453
13750TIP3   OH241190   2.041   2.539   2.566
13750TIP3    H141191   1.953   2.575   2.553
13750TIP3    H241192   2.098   2.616   2.561
13751TIP3   OH241193   3.231   0.372   6.670
13751TIP3    H141194   3.226   0.432   6.745
13751TIP3    H241195   3.324   0.355   6.659
13752TIP3   OH241196   2.355   2.593   1.288
13752TIP3    H141197   2.355   2.611   1.382
13752TIP3    H241198   2.325   2.502   1.281
13753TIP3   OH241199   1.800   7.052   5.253
13753TIP3    H141200   1.770   7.104   5.179
13753TIP3    H241201   1.859   7.110   5.301
13754TIP3   OH241202   4.225   2.698   1.853
13754TIP3    H141203   4.271   2.664   1.776
13754TIP3    H241204   4.194   2.784   1.825
13755TIP3   OH241205   3.472   0.921   0.126
13755TIP3    H141206   3.382   0.950   0.110
13755TIP3    H241207   3.464   0.826   0.134
13756TIP3   OH241208   7.898   3.705   4.543
13756TIP3    H141209   7.826   3.659   4.499
13756TIP3    H241210   7.855   3.776   4.591
13757TIP3   OH241211   7.371   7.322   4.001
13757TIP3    H141212   7.288   7.351   3.964
13757TIP3    H241213   7.394   7.390   4.065
13758TIP3   OH241214   7.541   6.904   5.389
13758TIP3    H141215   7.528   6.983   5.440
13758TIP3    H241216   7.623   6.918   5.342
13759TIP3   OH241217   2.032   2.491   3.896
13759TIP3    H141218   2.093   2.423   3.870
13759TIP3    H241219   2.087   2.567   3.916
13760TIP3   OH241220   2.554   4.563   3.793
13760TIP3    H141221   2.530   4.587   3.704
13760TIP3    H241222   2.640   4.522   3.785
13761TIP3   OH241223   5.687   3.207   3.869
13761TIP3    H141224   5.642   3.282   3.832
13761TIP3    H241225   5.769   3.201   3.819
13762TIP3   OH241226   5.499   0.334   5.268
13762TIP3    H141227   5.592   0.314   5.275
13762TIP3    H241228   5.458   0.251   5.243
13763TIP3   OH241229   6.368   4.234   5.386
13763TIP3    H141230   6.393   4.142   5.380
13763TIP3    H241231   6.344   4.258   5.297
13764TIP3   OH241232   2.131   4.253   5.609
13764TIP3    H141233   2.073   4.323   5.641
13764TIP3    H241234   2.219   4.286   5.627
13765TIP3   OH241235   6.931   1.911   1.215
13765TIP3    H141236   6.873   1.926   1.289
13765TIP3    H241237   6.873   1.904   1.139
13766TIP3   OH241238   1.858   5.733   4.613
13766TIP3    H141239   1.835   5.678   4.538
13766TIP3    H241240   1.820   5.688   4.688
13767TIP3   OH241241   4.226   6.354   3.821
13767TIP3    H141242   4.305   6.358   3.874
13767TIP3    H241243   4.172   6.427   3.851
13768TIP3   OH241244   5.109   0.735   0.020
13768TIP3    H141245   5.193   0.754   0.060
13768TIP3    H241246   5.107   0.640   0.012
13769TIP3   OH241247   3.866   4.534   4.740
13769TIP3    H141248   3.783   4.561   4.700
13769TIP3    H241249   3.919   4.614   4.742
13770TIP3   OH241250   1.549   3.035   5.166
13770TIP3    H141251   1.540   3.108   5.227
13770TIP3    H241252   1.475   2.977   5.186
13771TIP3   OH241253   1.330   4.058   6.090
13771TIP3    H141254   1.341   4.149   6.119
13771TIP3    H241255   1.381   4.052   6.010
13772TIP3   OH241256   3.969   3.339   2.163
13772TIP3    H141257   3.998   3.428   2.180
13772TIP3    H241258   3.975   3.329   2.068
13773TIP3   OH241259   0.866   5.874   1.097
13773TIP3    H141260   0.781   5.837   1.122
13773TIP3    H241261   0.847   5.967   1.081
13774TIP3   OH241262   2.254   7.769   1.536
13774TIP3    H141263   2.330   7.726   1.574
13774TIP3    H241264   2.212   7.700   1.483
13775TIP3   OH241265   7.501   2.787   1.613
13775TIP3    H141266   7.523   2.865   1.562
13775TIP3    H241267   7.452   2.731   1.553
13776TIP3   OH241268   6.499   2.288   0.044
13776TIP3    H141269   6.425   2.229   0.030
13776TIP3    H241270   6.490   2.354  -0.025
13777TIP3   OH241271   1.431   1.631   3.427
13777TIP3    H141272   1.395   1.656   3.512
13777TIP3    H241273   1.436   1.714   3.378
13778TIP3   OH241274   4.896   5.484   4.743
13778TIP3    H141275   4.833   5.520   4.805
13778TIP3    H241276   4.965   5.447   4.798
13779TIP3   OH241277   0.016   7.082   2.449
13779TIP3    H141278   0.080   7.104   2.381
13779TIP3    H241279  -0.032   7.007   2.414
13780TIP3   OH241280   8.330   1.951   0.450
13780TIP3    H141281   8.289   2.005   0.382
13780TIP3    H241282   8.302   1.991   0.532
13781TIP3   OH241283   7.363   5.020   0.329
13781TIP3    H141284   7.327   5.088   0.273
13781TIP3    H241285   7.409   5.067   0.399
13782TIP3   OH241286   1.564   3.250   2.475
13782TIP3    H141287   1.530   3.162   2.490
13782TIP3    H241288   1.659   3.237   2.466
13783TIP3   OH241289   4.006   3.832   0.708
13783TIP3    H141290   3.932   3.780   0.676
13783TIP3    H241291   4.083   3.789   0.670
13784TIP3   OH241292   4.903   3.622   1.484
13784TIP3    H141293   4.935   3.691   1.426
13784TIP3    H241294   4.954   3.631   1.564
13785TIP3   OH241295   3.548   5.493   2.782
13785TIP3    H141296   3.490   5.434   2.831
13785TIP3    H241297   3.578   5.441   2.708
13786TIP3   OH241298   3.980   6.297   3.485
13786TIP3    H141299   3.899   6.304   3.534
13786TIP3    H241300   4.014   6.387   3.482
13787TIP3   OH241301   5.727   4.633   4.597
13787TIP3    H141302   5.797   4.690   4.629
13787TIP3    H241303   5.773   4.565   4.547
13788TIP3   OH241304   2.149   5.257   4.560
13788TIP3    H141305   2.110   5.329   4.611
13788TIP3    H241306   2.083   5.188   4.563
13789TIP3   OH241307   1.577   1.403   4.196
13789TIP3    H141308   1.662   1.366   4.169
13789TIP3    H241309   1.599   1.488   4.233
13790TIP3   OH241310   3.589   0.946   5.606
13790TIP3    H141311   3.591   1.016   5.540
13790TIP3    H241312   3.642   0.876   5.568
13791TIP3   OH241313   3.452   5.740   1.602
13791TIP3    H141314   3.533   5.708   1.562
13791TIP3    H241315   3.480   5.785   1.681
13792TIP3   OH241316   1.967   0.173   4.912
13792TIP3    H141317   2.039   0.111   4.898
13792TIP3    H241318   2.001   0.256   4.877
13793TIP3   OH241319   1.423   7.310   1.071
13793TIP3    H141320   1.376   7.393   1.083
13793TIP3    H241321   1.434   7.276   1.160
13794TIP3   OH241322   5.691   6.971   3.513
13794TIP3    H141323   5.643   6.929   3.442
13794TIP3    H241324   5.684   7.065   3.496
13795TIP3   OH241325   2.681   7.514   2.796
13795TIP3    H141326   2.693   7.467   2.713
13795TIP3    H241327   2.764   7.558   2.811
13796TIP3   OH241328   1.142   4.036   4.741
13796TIP3    H141329   1.125   3.978   4.816
13796TIP3    H241330   1.123   4.124   4.774
13797TIP3   OH241331   2.577   2.039   6.550
13797TIP3    H141332   2.486   2.010   6.554
13797TIP3    H241333   2.605   2.044   6.642
13798TIP3   OH241334   4.482   3.447   3.007
13798TIP3    H141335   4.548   3.442   3.077
13798TIP3    H241336   4.405   3.484   3.049
13799TIP3   OH241337   1.109   4.223   1.741
13799TIP3    H141338   1.150   4.139   1.761
13799TIP3    H241339   1.182   4.285   1.738
13800TIP3   OH241340   0.455   4.824   3.533
13800TIP3    H141341   0.527   4.790   3.479
13800TIP3    H241342   0.442   4.914   3.502
13801TIP3   OH241343   1.138   3.712   2.007
13801TIP3    H141344   1.052   3.672   2.016
13801TIP3    H241345   1.185   3.656   1.945
13802TIP3   OH241346   5.980   0.603   3.931
13802TIP3    H141347   5.907   0.627   3.874
13802TIP3    H241348   6.053   0.589   3.870
13803TIP3   OH241349   4.622   4.851   6.677
13803TIP3    H141350   4.630   4.839   6.772
13803TIP3    H241351   4.608   4.763   6.643
13804TIP3   OH241352   3.438   4.259   2.720
13804TIP3    H141353   3.529   4.261   2.748
13804TIP3    H241354   3.393   4.319   2.779
13805TIP3   OH241355   0.304   2.042   1.575
13805TIP3    H141356   0.233   1.983   1.549
13805TIP3    H241357   0.298   2.115   1.514
13806TIP3   OH241358   4.958   3.487   4.697
13806TIP3    H141359   5.035   3.502   4.751
13806TIP3    H241360   4.952   3.391   4.690
13807TIP3   OH241361   3.022   2.815   4.655
13807TIP3    H141362   3.024   2.763   4.735
13807TIP3    H241363   3.095   2.877   4.665
13808TIP3   OH241364   1.203   4.914   1.817
13808TIP3    H141365   1.119   4.928   1.773
13808TIP3    H241366   1.206   4.981   1.885
13809TIP3   OH241367   4.253   4.577   4.806
13809TIP3    H141368   4.348   4.577   4.809
13809TIP3    H241369   4.232   4.552   4.716
13810TIP3   OH241370   6.375   4.547   3.468
13810TIP3    H141371   6.286   4.532   3.500
13810TIP3    H241372   6.363   4.603   3.391
13811TIP3   OH241373   7.373   0.281   2.124
13811TIP3    H141374   7.327   0.214   2.174
13811TIP3    H241375   7.305   0.325   2.074
13812TIP3   OH241376   0.891   0.399   3.489
13812TIP3    H141377   0.870   0.308   3.510
13812TIP3    H241378   0.902   0.441   3.575
13813TIP3   OH241379   8.277   6.004   6.600
13813TIP3    H141380   8.203   5.990   6.540
13813TIP3    H241381   8.240   5.993   6.687
13814TIP3   OH241382   5.296   6.073   4.013
13814TIP3    H141383   5.243   5.998   3.988
13814TIP3    H241384   5.354   6.039   4.082
13815TIP3   OH241385   5.212   5.097   3.970
13815TIP3    H141386   5.206   5.188   3.941
13815TIP3    H241387   5.178   5.046   3.896
13816TIP3   OH241388   4.860   6.221   5.810
13816TIP3    H141389   4.938   6.270   5.835
13816TIP3    H241390   4.832   6.178   5.890
13817TIP3   OH241391   2.382   1.369   1.730
13817TIP3    H141392   2.466   1.322   1.739
13817TIP3    H241393   2.404   1.448   1.681
13818TIP3   OH241394   6.523   1.368   6.503
13818TIP3    H141395   6.443   1.353   6.554
13818TIP3    H241396   6.590   1.318   6.549
13819TIP3   OH241397   1.444   3.704   2.098
13819TIP3    H141398   1.531   3.666   2.088
13819TIP3    H241399   1.421   3.735   2.011
13820TIP3   OH241400   1.665   2.566   0.471
13820TIP3    H141401   1.604   2.500   0.502
13820TIP3    H241402   1.721   2.585   0.546
13821TIP3   OH241403   5.400   6.431   4.794
13821TIP3    H141404   5.377   6.340   4.814
13821TIP3    H241405   5.366   6.481   4.869
13822TIP3   OH241406   0.389   3.892   2.247
13822TIP3    H141407   0.437   3.966   2.283
13822TIP3    H241408   0.311   3.885   2.303
13823TIP3   OH241409   3.175   1.752   0.302
13823TIP3    H141410   3.092   1.706   0.317
13823TIP3    H241411   3.210   1.712   0.223
13824TIP3   OH241412   7.110   1.535   0.244
13824TIP3    H141413   7.099   1.563   0.153
13824TIP3    H241414   7.111   1.439   0.239
13825TIP3   OH241415   3.223   7.818   4.366
13825TIP3    H141416   3.299   7.839   4.312
13825TIP3    H241417   3.243   7.855   4.452
13826TIP3   OH241418   7.340   5.588   4.990
13826TIP3    H141419   7.288   5.614   5.066
13826TIP3    H241420   7.368   5.672   4.952
13827TIP3   OH241421   0.377   5.145   4.613
13827TIP3    H141422   0.344   5.063   4.650
13827TIP3    H241423   0.428   5.119   4.536
13828TIP3   OH241424   8.176   2.350   2.450
13828TIP3    H141425   8.215   2.400   2.378
13828TIP3    H241426   8.090   2.390   2.464
13829TIP3   OH241427   7.750   3.631   4.021
13829TIP3    H141428   7.733   3.725   4.028
13829TIP3    H241429   7.804   3.610   4.097
13830TIP3   OH241430   0.081   1.480   4.110
13830TIP3    H141431   0.098   1.398   4.064
13830TIP3    H241432   0.168   1.511   4.136
13831TIP3   OH241433   3.390   4.431   4.973
13831TIP3    H141434   3.396   4.370   4.900
13831TIP3    H241435   3.308   4.478   4.959
13832TIP3   OH241436   6.947   2.087   5.376
13832TIP3    H141437   6.941   1.992   5.388
13832TIP3    H241438   7.039   2.108   5.390
13833TIP3   OH241439   2.870   3.552   4.709
13833TIP3    H141440   2.947   3.497   4.724
13833TIP3    H241441   2.877   3.620   4.776
13834TIP3   OH241442   2.865   0.998   3.800
13834TIP3    H141443   2.817   0.916   3.792
13834TIP3    H241444   2.842   1.048   3.721
13835TIP3   OH241445   5.413   7.188   0.954
13835TIP3    H141446   5.397   7.209   0.862
13835TIP3    H241447   5.455   7.102   0.952
13836TIP3   OH241448   2.610   2.599   5.767
13836TIP3    H141449   2.623   2.524   5.708
13836TIP3    H241450   2.516   2.616   5.764
13837TIP3   OH241451   6.984   6.805   0.158
13837TIP3    H141452   7.069   6.761   0.158
13837TIP3    H241453   6.995   6.877   0.096
13838TIP3   OH241454   5.405   6.579   5.549
13838TIP3    H141455   5.499   6.584   5.529
13838TIP3    H241456   5.364   6.641   5.489
13839TIP3   OH241457   0.936   1.955   4.361
13839TIP3    H141458   0.920   1.860   4.363
13839TIP3    H241459   0.870   1.989   4.300
13840TIP3   OH241460   6.905   3.044   5.361
13840TIP3    H141461   6.950   3.118   5.402
13840TIP3    H241462   6.971   2.975   5.359
13841TIP3   OH241463   0.033   2.878   1.441
13841TIP3    H141464  -0.010   2.874   1.356
13841TIP3    H241465   0.026   2.789   1.476
13842TIP3   OH241466   6.397   2.322   6.775
13842TIP3    H141467   6.478   2.327   6.825
13842TIP3    H241468   6.330   2.358   6.834
13843TIP3   OH241469   8.213   7.188   3.114
13843TIP3    H141470   8.165   7.266   3.086
13843TIP3    H241471   8.210   7.130   3.038
13844TIP3   OH241472   6.043   2.294   3.248
13844TIP3    H141473   5.979   2.272   3.315
13844TIP3    H241474   6.127   2.287   3.292
13845TIP3   OH241475   0.057   4.937   0.705
13845TIP3    H141476   0.006   4.914   0.783
13845TIP3    H241477   0.073   4.853   0.661
13846TIP3   OH241478   0.774   5.222   2.221
13846TIP3    H141479   0.755   5.140   2.267
13846TIP3    H241480   0.704   5.281   2.249
13847TIP3   OH241481   3.903   2.218   6.804
13847TIP3    H141482   3.878   2.307   6.828
13847TIP3    H241483   3.983   2.230   6.751
13848TIP3   OH241484   5.056   6.995   3.698
13848TIP3    H141485   5.025   7.009   3.788
13848TIP3    H241486   5.137   6.945   3.708
13849TIP3   OH241487   6.998   7.820   3.530
13849TIP3    H141488   7.075   7.870   3.500
13849TIP3    H241489   6.925   7.862   3.485
13850TIP3   OH241490   1.081   1.916   4.076
13850TIP3    H141491   1.021   1.958   4.015
13850TIP3    H241492   1.063   1.957   4.160
13851TIP3   OH241493   6.619   0.928   3.348
13851TIP3    H141494   6.671   0.916   3.428
13851TIP3    H241495   6.537   0.966   3.378
13852TIP3   OH241496   7.040   2.875   5.127
13852TIP3    H141497   7.017   2.954   5.078
13852TIP3    H241498   7.122   2.898   5.172
13853TIP3   OH241499   0.749   0.333   6.613
13853TIP3    H141500   0.807   0.324   6.537
13853TIP3    H241501   0.661   0.320   6.578
13854TIP3   OH241502   3.702   5.447   4.680
13854TIP3    H141503   3.607   5.452   4.682
13854TIP3    H241504   3.724   5.380   4.744
13855TIP3   OH241505   5.856   4.682   1.395
13855TIP3    H141506   5.935   4.682   1.450
13855TIP3    H241507   5.784   4.671   1.457
13856TIP3   OH241508   3.656   7.252   0.252
13856TIP3    H141509   3.726   7.282   0.194
13856TIP3    H241510   3.652   7.158   0.238
13857TIP3   OH241511   6.799   7.492   0.136
13857TIP3    H141512   6.857   7.527   0.204
13857TIP3    H241513   6.807   7.553   0.063
13858TIP3   OH241514   2.875   6.532   1.267
13858TIP3    H141515   2.949   6.480   1.237
13858TIP3    H241516   2.912   6.617   1.289
13859TIP3   OH241517   0.431   0.075   6.446
13859TIP3    H141518   0.416   0.097   6.354
13859TIP3    H241519   0.523   0.046   6.448
13860TIP3   OH241520   1.264   5.518   5.393
13860TIP3    H141521   1.185   5.567   5.416
13860TIP3    H241522   1.313   5.577   5.337
13861TIP3   OH241523   5.950   6.676   2.700
13861TIP3    H141524   6.042   6.660   2.682
13861TIP3    H241525   5.945   6.770   2.718
13862TIP3   OH241526   1.236   0.668   2.532
13862TIP3    H141527   1.149   0.707   2.527
13862TIP3    H241528   1.275   0.704   2.611
13863TIP3   OH241529   8.353   2.265   4.246
13863TIP3    H141530   8.297   2.279   4.170
13863TIP3    H241531   8.352   2.170   4.259
13864TIP3   OH241532   5.382   4.288   0.367
13864TIP3    H141533   5.437   4.211   0.379
13864TIP3    H241534   5.364   4.320   0.455
13865TIP3   OH241535   7.397   3.156   4.607
13865TIP3    H141536   7.340   3.190   4.539
13865TIP3    H241537   7.363   3.193   4.689
13866TIP3   OH241538   7.738   3.207   2.745
13866TIP3    H141539   7.647   3.191   2.719
13866TIP3    H241540   7.737   3.206   2.840
13867TIP3   OH241541   3.650   5.937   6.197
13867TIP3    H141542   3.674   6.030   6.191
13867TIP3    H241543   3.556   5.935   6.180
13868TIP3   OH241544   6.090   2.553   3.634
13868TIP3    H141545   6.015   2.576   3.690
13868TIP3    H241546   6.096   2.458   3.641
13869TIP3   OH241547   2.870   5.527   4.395
13869TIP3    H141548   2.858   5.620   4.374
13869TIP3    H241549   2.802   5.508   4.459
13870TIP3   OH241550   3.149   0.713   1.826
13870TIP3    H141551   3.178   0.787   1.879
13870TIP3    H241552   3.228   0.684   1.780
13871TIP3   OH241553   2.299   2.040   6.219
13871TIP3    H141554   2.349   2.077   6.146
13871TIP3    H241555   2.327   2.091   6.295
13872TIP3   OH241556   4.434   6.624   6.261
13872TIP3    H141557   4.438   6.667   6.347
13872TIP3    H241558   4.449   6.532   6.279
13873TIP3   OH241559   6.048   4.994   3.536
13873TIP3    H141560   6.068   4.937   3.610
13873TIP3    H241561   6.081   5.080   3.563
13874TIP3   OH241562   6.537   4.293   4.156
13874TIP3    H141563   6.562   4.235   4.228
13874TIP3    H241564   6.594   4.370   4.166
13875TIP3   OH241565   7.615   6.314   5.846
13875TIP3    H141566   7.642   6.376   5.778
13875TIP3    H241567   7.525   6.292   5.823
13876TIP3   OH241568   4.816   2.147   6.726
13876TIP3    H141569   4.882   2.136   6.658
13876TIP3    H241570   4.791   2.058   6.749
13877TIP3   OH241571   4.564   2.443   4.866
13877TIP3    H141572   4.588   2.440   4.774
13877TIP3    H241573   4.616   2.515   4.903
13878TIP3   OH241574   2.282   4.513   1.748
13878TIP3    H141575   2.285   4.418   1.755
13878TIP3    H241576   2.373   4.540   1.739
13879TIP3   OH241577   5.042   0.825   5.751
13879TIP3    H141578   5.108   0.863   5.809
13879TIP3    H241579   5.037   0.733   5.778
13880TIP3   OH241580   7.470   1.564   5.724
13880TIP3    H141581   7.384   1.543   5.760
13880TIP3    H241582   7.473   1.520   5.639
13881TIP3   OH241583   2.118   3.171   3.413
13881TIP3    H141584   2.159   3.086   3.430
13881TIP3    H241585   2.191   3.233   3.411
13882TIP3   OH241586   7.682   5.688   2.421
13882TIP3    H141587   7.633   5.693   2.339
13882TIP3    H241588   7.626   5.636   2.479
13883TIP3   OH241589   1.951   4.200   2.686
13883TIP3    H141590   1.897   4.125   2.712
13883TIP3    H241591   1.966   4.248   2.767
13884TIP3   OH241592   0.067   0.555   1.943
13884TIP3    H141593   0.069   0.643   1.906
13884TIP3    H241594   0.067   0.497   1.866
13885TIP3   OH241595   2.409   3.224   2.102
13885TIP3    H141596   2.363   3.274   2.169
13885TIP3    H241597   2.424   3.286   2.031
13886TIP3   OH241598   0.450   4.787   5.401
13886TIP3    H141599   0.377   4.739   5.440
13886TIP3    H241600   0.420   4.878   5.400
13887TIP3   OH241601   3.331   3.538   2.163
13887TIP3    H141602   3.262   3.488   2.121
13887TIP3    H241603   3.370   3.590   2.093
13888TIP3   OH241604   7.914   7.852   3.954
13888TIP3    H141605   7.835   7.799   3.947
13888TIP3    H241606   7.886   7.941   3.934
13889TIP3   OH241607   6.465   3.516   2.335
13889TIP3    H141608   6.455   3.452   2.265
13889TIP3    H241609   6.487   3.598   2.291
13890TIP3   OH241610   6.507   7.790   3.861
13890TIP3    H141611   6.420   7.798   3.900
13890TIP3    H241612   6.567   7.813   3.932
13891TIP3   OH241613   6.703   4.116   4.279
13891TIP3    H141614   6.780   4.171   4.265
13891TIP3    H241615   6.715   4.043   4.218
13892TIP3   OH241616   3.983   6.779   0.978
13892TIP3    H141617   3.972   6.684   0.972
13892TIP3    H241618   3.987   6.808   0.887
13893TIP3   OH241619   4.784   3.350   0.873
13893TIP3    H141620   4.733   3.274   0.901
13893TIP3    H241621   4.845   3.316   0.808
13894TIP3   OH241622   1.907   6.049   5.673
13894TIP3    H141623   1.892   5.965   5.718
13894TIP3    H241624   1.868   6.114   5.731
13895TIP3   OH241625   8.054   6.632   0.902
13895TIP3    H141626   8.131   6.594   0.945
13895TIP3    H241627   8.003   6.669   0.974
13896TIP3   OH241628   6.115   3.430   5.687
13896TIP3    H141629   6.208   3.443   5.705
13896TIP3    H241630   6.096   3.489   5.614
13897TIP3   OH241631   2.123   1.376   4.995
13897TIP3    H141632   2.075   1.406   5.072
13897TIP3    H241633   2.172   1.300   5.025
13898TIP3   OH241634   7.260   3.372   3.146
13898TIP3    H141635   7.352   3.348   3.133
13898TIP3    H241636   7.241   3.433   3.074
13899TIP3   OH241637   5.201   4.218   0.626
13899TIP3    H141638   5.131   4.216   0.561
13899TIP3    H241639   5.240   4.306   0.617
13900TIP3   OH241640   6.793   0.888   1.647
13900TIP3    H141641   6.747   0.971   1.632
13900TIP3    H241642   6.886   0.911   1.646
13901TIP3   OH241643   3.036   6.140   0.901
13901TIP3    H141644   3.081   6.060   0.876
13901TIP3    H241645   3.106   6.205   0.908
13902TIP3   OH241646   0.159   2.565   3.407
13902TIP3    H141647   0.067   2.565   3.431
13902TIP3    H241648   0.170   2.644   3.353
13903TIP3   OH241649   0.590   3.623   0.381
13903TIP3    H141650   0.529   3.607   0.309
13903TIP3    H241651   0.624   3.711   0.366
13904TIP3   OH241652   8.362   0.402   0.372
13904TIP3    H141653   8.331   0.455   0.299
13904TIP3    H241654   8.417   0.335   0.331
13905TIP3   OH241655   6.830   0.097   0.986
13905TIP3    H141656   6.749   0.129   0.945
13905TIP3    H241657   6.850   0.163   1.053
13906TIP3   OH241658   5.440   7.408   1.591
13906TIP3    H141659   5.431   7.314   1.572
13906TIP3    H241660   5.353   7.433   1.624
13907TIP3   OH241661   8.093   4.167   1.859
13907TIP3    H141662   8.177   4.212   1.865
13907TIP3    H241663   8.033   4.231   1.820
13908TIP3   OH241664   7.981   3.130   0.467
13908TIP3    H141665   8.075   3.148   0.471
13908TIP3    H241666   7.973   3.038   0.491
13909TIP3   OH241667   4.705   6.973   3.190
13909TIP3    H141668   4.781   6.989   3.134
13909TIP3    H241669   4.740   6.979   3.280
13910TIP3   OH241670   2.718   2.322   6.629
13910TIP3    H141671   2.745   2.237   6.592
13910TIP3    H241672   2.799   2.373   6.631
13911TIP3   OH241673   5.529   6.744   1.725
13911TIP3    H141674   5.504   6.767   1.635
13911TIP3    H241675   5.595   6.809   1.749
13912TIP3   OH241676   0.471   6.687   4.675
13912TIP3    H141677   0.523   6.692   4.755
13912TIP3    H241678   0.526   6.726   4.607
13913TIP3   OH241679   5.806   2.481   0.305
13913TIP3    H141680   5.791   2.436   0.222
13913TIP3    H241681   5.835   2.412   0.365
13914TIP3   OH241682   4.238   5.554   6.773
13914TIP3    H141683   4.326   5.535   6.742
13914TIP3    H241684   4.204   5.469   6.803
13915TIP3   OH241685   1.627   2.768   5.191
13915TIP3    H141686   1.554   2.827   5.171
13915TIP3    H241687   1.662   2.801   5.274
13916TIP3   OH241688   3.405   0.495   3.871
13916TIP3    H141689   3.435   0.508   3.961
13916TIP3    H241690   3.313   0.473   3.880
13917TIP3   OH241691   1.162   4.053   5.425
13917TIP3    H141692   1.180   4.015   5.511
13917TIP3    H241693   1.244   4.045   5.377
13918TIP3   OH241694   7.855   7.753   4.761
13918TIP3    H141695   7.801   7.722   4.834
13918TIP3    H241696   7.850   7.848   4.766
13919TIP3   OH241697   0.288   1.448   0.206
13919TIP3    H141698   0.254   1.442   0.295
13919TIP3    H241699   0.212   1.427   0.151
13920TIP3   OH241700   4.536   7.238   1.527
13920TIP3    H141701   4.585   7.255   1.607
13920TIP3    H241702   4.449   7.274   1.544
13921TIP3   OH241703   6.731   7.545   4.060
13921TIP3    H141704   6.722   7.501   4.144
13921TIP3    H241705   6.643   7.578   4.041
13922TIP3   OH241706   0.654   2.937   2.903
13922TIP3    H141707   0.576   2.960   2.953
13922TIP3    H241708   0.643   2.982   2.819
13923TIP3   OH241709   2.013   5.334   5.563
13923TIP3    H141710   1.964   5.393   5.620
13923TIP3    H241711   1.949   5.302   5.500
13924TIP3   OH241712   5.561   6.948   0.949
13924TIP3    H141713   5.656   6.958   0.952
13924TIP3    H241714   5.542   6.911   0.863
13925TIP3   OH241715   6.371   3.634   1.091
13925TIP3    H141716   6.351   3.661   1.001
13925TIP3    H241717   6.297   3.665   1.143
13926TIP3   OH241718   3.996   3.299   5.052
13926TIP3    H141719   3.902   3.311   5.067
13926TIP3    H241720   4.038   3.335   5.130
13927TIP3   OH241721   4.233   6.484   1.765
13927TIP3    H141722   4.156   6.474   1.710
13927TIP3    H241723   4.198   6.496   1.854
13928TIP3   OH241724   7.162   1.934   2.747
13928TIP3    H141725   7.152   1.921   2.652
13928TIP3    H241726   7.251   1.906   2.766
13929TIP3   OH241727   1.630   0.098   3.507
13929TIP3    H141728   1.718   0.098   3.469
13929TIP3    H241729   1.620   0.185   3.545
13930TIP3   OH241730   5.712   7.482   0.018
13930TIP3    H141731   5.656   7.546   0.062
13930TIP3    H241732   5.801   7.515   0.029
13931TIP3   OH241733   6.515   1.388   1.691
13931TIP3    H141734   6.511   1.296   1.714
13931TIP3    H241735   6.606   1.413   1.705
13932TIP3   OH241736   0.789   1.175   4.640
13932TIP3    H141737   0.880   1.185   4.609
13932TIP3    H241738   0.798   1.163   4.734
13933TIP3   OH241739   3.873   4.421   5.469
13933TIP3    H141740   3.830   4.474   5.402
13933TIP3    H241741   3.804   4.367   5.507
13934TIP3   OH241742   2.421   5.978   5.372
13934TIP3    H141743   2.396   6.001   5.282
13934TIP3    H241744   2.404   6.057   5.423
13935TIP3   OH241745   5.303   6.669   2.271
13935TIP3    H141746   5.246   6.720   2.328
13935TIP3    H241747   5.244   6.615   2.219
13936TIP3   OH241748   2.980   3.781   0.954
13936TIP3    H141749   2.983   3.868   0.995
13936TIP3    H241750   2.906   3.787   0.894
13937TIP3   OH241751   0.375   6.145   2.047
13937TIP3    H141752   0.399   6.063   2.004
13937TIP3    H241753   0.400   6.214   1.986
13938TIP3   OH241754   0.266   3.154   1.875
13938TIP3    H141755   0.236   3.204   1.950
13938TIP3    H241756   0.329   3.092   1.911
13939TIP3   OH241757   6.498   1.989   0.895
13939TIP3    H141758   6.424   1.952   0.944
13939TIP3    H241759   6.495   2.083   0.916
13940TIP3   OH241760   0.040   0.550   2.616
13940TIP3    H141761   0.114   0.563   2.556
13940TIP3    H241762  -0.038   0.564   2.562
13941TIP3   OH241763   4.819   4.914   2.281
13941TIP3    H141764   4.829   5.003   2.315
13941TIP3    H241765   4.843   4.857   2.354
13942TIP3   OH241766   8.249   6.949   3.501
13942TIP3    H141767   8.239   6.991   3.586
13942TIP3    H241768   8.162   6.954   3.461
13943TIP3   OH241769   0.603   2.502   2.571
13943TIP3    H141770   0.563   2.488   2.485
13943TIP3    H241771   0.536   2.547   2.622
13944TIP3   OH241772   7.574   2.455   1.113
13944TIP3    H141773   7.644   2.396   1.142
13944TIP3    H241774   7.498   2.429   1.164
13945TIP3   OH241775   5.173   4.114   3.228
13945TIP3    H141776   5.215   4.029   3.211
13945TIP3    H241777   5.245   4.177   3.226
13946TIP3   OH241778   5.994   0.890   5.070
13946TIP3    H141779   6.072   0.836   5.087
13946TIP3    H241780   5.961   0.857   4.986
13947TIP3   OH241781   5.840   6.157   1.003
13947TIP3    H141782   5.789   6.238   1.014
13947TIP3    H241783   5.851   6.148   0.909
13948TIP3   OH241784   2.988   3.945   1.696
13948TIP3    H141785   3.005   3.996   1.616
13948TIP3    H241786   2.964   3.858   1.664
13949TIP3   OH241787   8.053   4.003   2.457
13949TIP3    H141788   8.041   4.010   2.551
13949TIP3    H241789   8.007   3.923   2.432
13950TIP3   OH241790   4.459   6.537   5.138
13950TIP3    H141791   4.504   6.471   5.086
13950TIP3    H241792   4.515   6.549   5.215
13951TIP3   OH241793   7.203   3.008   2.582
13951TIP3    H141794   7.146   2.943   2.624
13951TIP3    H241795   7.160   3.092   2.597
13952TIP3   OH241796   4.990   1.731   3.007
13952TIP3    H141797   4.951   1.813   3.037
13952TIP3    H241798   4.938   1.706   2.930
13953TIP3   OH241799   7.560   0.577   4.517
13953TIP3    H141800   7.614   0.503   4.488
13953TIP3    H241801   7.534   0.621   4.436
13954TIP3   OH241802   2.456   7.688   0.679
13954TIP3    H141803   2.431   7.630   0.607
13954TIP3    H241804   2.517   7.637   0.731
13955TIP3   OH241805   5.481   4.601   4.754
13955TIP3    H141806   5.568   4.588   4.715
13955TIP3    H241807   5.428   4.530   4.718
13956TIP3   OH241808   8.306   2.186   6.845
13956TIP3    H141809   8.296   2.094   6.818
13956TIP3    H241810   8.370   2.222   6.784
13957TIP3   OH241811   7.710   2.242   3.552
13957TIP3    H141812   7.797   2.221   3.586
13957TIP3    H241813   7.723   2.322   3.501
13958TIP3   OH241814   3.886   2.719   5.309
13958TIP3    H141815   3.924   2.793   5.357
13958TIP3    H241816   3.925   2.724   5.222
13959TIP3   OH241817   0.949   2.011   5.449
13959TIP3    H141818   1.009   1.988   5.379
13959TIP3    H241819   0.876   1.950   5.439
13960TIP3   OH241820   7.710   4.394   6.009
13960TIP3    H141821   7.694   4.460   6.075
13960TIP3    H241822   7.804   4.401   5.990
13961TIP3   OH241823   7.213   3.894   4.256
13961TIP3    H141824   7.155   3.910   4.330
13961TIP3    H241825   7.209   3.975   4.204
13962TIP3   OH241826   8.077   4.812   2.081
13962TIP3    H141827   8.057   4.890   2.133
13962TIP3    H241828   8.060   4.838   1.991
13963TIP3   OH241829   0.789   7.432   4.265
13963TIP3    H141830   0.810   7.492   4.337
13963TIP3    H241831   0.861   7.369   4.265
13964TIP3   OH241832   8.353   6.184   3.133
13964TIP3    H141833   8.343   6.230   3.049
13964TIP3    H241834   8.265   6.152   3.153
13965TIP3   OH241835   6.945   3.454   3.567
13965TIP3    H141836   7.027   3.465   3.520
13965TIP3    H241837   6.928   3.360   3.565
13966TIP3   OH241838   2.737   1.673   2.545
13966TIP3    H141839   2.764   1.729   2.471
13966TIP3    H241840   2.818   1.645   2.585
13967TIP3   OH241841   1.040   7.436   4.441
13967TIP3    H141842   0.963   7.391   4.476
13967TIP3    H241843   1.076   7.375   4.376
13968TIP3   OH241844   5.524   0.532   4.150
13968TIP3    H141845   5.483   0.450   4.121
13968TIP3    H241846   5.535   0.583   4.070
13969TIP3   OH241847   8.123   4.740   2.568
13969TIP3    H141848   8.217   4.721   2.573
13969TIP3    H241849   8.088   4.671   2.512
13970TIP3   OH241850   1.245   0.800   0.905
13970TIP3    H141851   1.191   0.871   0.940
13970TIP3    H241852   1.234   0.806   0.810
13971TIP3   OH241853   6.193   3.480   2.484
13971TIP3    H141854   6.144   3.399   2.465
13971TIP3    H241855   6.278   3.467   2.442
13972TIP3   OH241856   1.145   2.066   4.502
13972TIP3    H141857   1.063   2.050   4.455
13972TIP3    H241858   1.162   1.984   4.550
13973TIP3   OH241859   1.253   6.488   4.237
13973TIP3    H141860   1.244   6.547   4.312
13973TIP3    H241861   1.341   6.453   4.245
13974TIP3   OH241862   6.594   6.482   1.118
13974TIP3    H141863   6.581   6.560   1.171
13974TIP3    H241864   6.684   6.454   1.138
13975TIP3   OH241865   2.704   3.020   2.819
13975TIP3    H141866   2.651   3.099   2.830
13975TIP3    H241867   2.770   3.045   2.754
13976TIP3   OH241868   5.183   7.663   4.574
13976TIP3    H141869   5.126   7.593   4.608
13976TIP3    H241870   5.188   7.647   4.480
13977TIP3   OH241871   4.211   0.656   5.013
13977TIP3    H141872   4.216   0.691   5.102
13977TIP3    H241873   4.265   0.577   5.015
13978TIP3   OH241874   5.867   5.273   6.597
13978TIP3    H141875   5.952   5.309   6.620
13978TIP3    H241876   5.880   5.178   6.597
13979TIP3   OH241877   2.617   4.731   6.188
13979TIP3    H141878   2.685   4.741   6.121
13979TIP3    H241879   2.665   4.727   6.270
13980TIP3   OH241880   2.059   5.802   2.968
13980TIP3    H141881   1.967   5.777   2.956
13980TIP3    H241882   2.098   5.791   2.881
13981TIP3   OH241883   4.475   2.052   2.625
13981TIP3    H141884   4.401   2.027   2.679
13981TIP3    H241885   4.520   1.969   2.606
13982TIP3   OH241886   7.390   5.701   2.524
13982TIP3    H141887   7.323   5.682   2.590
13982TIP3    H241888   7.389   5.625   2.466
13983TIP3   OH241889   0.736   7.251   1.315
13983TIP3    H141890   0.820   7.248   1.361
13983TIP3    H241891   0.675   7.291   1.378
13984TIP3   OH241892   2.146   5.119   2.108
13984TIP3    H141893   2.071   5.120   2.167
13984TIP3    H241894   2.209   5.059   2.150
13985TIP3   OH241895   2.039   1.521   3.083
13985TIP3    H141896   2.043   1.507   3.178
13985TIP3    H241897   2.005   1.610   3.074
13986TIP3   OH241898   1.531   3.935   1.490
13986TIP3    H141899   1.597   3.952   1.557
13986TIP3    H241900   1.459   3.995   1.510
13987TIP3   OH241901   4.169   5.122   4.525
13987TIP3    H141902   4.102   5.167   4.473
13987TIP3    H241903   4.169   5.168   4.609
13988TIP3   OH241904   3.670   0.410   5.710
13988TIP3    H141905   3.733   0.346   5.676
13988TIP3    H241906   3.617   0.360   5.772
13989TIP3   OH241907   3.041   3.501   0.896
13989TIP3    H141908   3.125   3.494   0.849
13989TIP3    H241909   3.039   3.592   0.927
13990TIP3   OH241910   7.694   1.114   3.066
13990TIP3    H141911   7.669   1.205   3.083
13990TIP3    H241912   7.611   1.070   3.047
13991TIP3   OH241913   4.899   1.769   0.080
13991TIP3    H141914   4.900   1.777   0.176
13991TIP3    H241915   4.859   1.850   0.049
13992TIP3   OH241916   6.454   0.261   0.221
13992TIP3    H141917   6.464   0.175   0.263
13992TIP3    H241918   6.466   0.244   0.128
13993TIP3   OH241919   3.014   7.485   2.053
13993TIP3    H141920   3.062   7.405   2.033
13993TIP3    H241921   3.076   7.539   2.103
13994TIP3   OH241922   4.802   7.491   4.314
13994TIP3    H141923   4.764   7.575   4.286
13994TIP3    H241924   4.770   7.428   4.250
13995TIP3   OH241925   3.747   6.652   1.099
13995TIP3    H141926   3.829   6.680   1.059
13995TIP3    H241927   3.747   6.557   1.090
13996TIP3   OH241928   5.407   7.003   2.256
13996TIP3    H141929   5.317   7.012   2.224
13996TIP3    H241930   5.435   6.916   2.227
13997TIP3   OH241931   7.102   6.333   6.365
13997TIP3    H141932   7.117   6.239   6.350
13997TIP3    H241933   7.189   6.369   6.380
13998TIP3   OH241934   4.118   4.606   0.258
13998TIP3    H141935   4.071   4.623   0.340
13998TIP3    H241936   4.178   4.535   0.279
13999TIP3   OH241937   4.478   4.305   3.158
13999TIP3    H141938   4.543   4.299   3.228
13999TIP3    H241939   4.480   4.219   3.116
14000TIP3   OH241940   6.522   6.214   0.379
14000TIP3    H141941   6.592   6.221   0.444
14000TIP3    H241942   6.449   6.262   0.418
14001TIP3   OH241943   8.226   3.669   5.208
14001TIP3    H141944   8.192   3.681   5.119
14001TIP3    H241945   8.226   3.757   5.245
14002TIP3   OH241946   6.914   4.075   4.695
14002TIP3    H141947   6.923   4.000   4.753
14002TIP3    H241948   6.972   4.142   4.733
14003TIP3   OH241949   7.852   3.709   2.626
14003TIP3    H141950   7.856   3.617   2.652
14003TIP3    H241951   7.782   3.712   2.561
14004TIP3   OH241952   6.137   2.154   4.079
14004TIP3    H141953   6.118   2.223   4.143
14004TIP3    H241954   6.059   2.152   4.023
14005TIP3   OH241955   0.936   6.589   0.087
14005TIP3    H141956   0.870   6.571   0.020
14005TIP3    H241957   0.935   6.684   0.096
14006TIP3   OH241958   8.182   5.757   4.526
14006TIP3    H141959   8.109   5.818   4.515
14006TIP3    H241960   8.145   5.671   4.504
14007TIP3   OH241961   7.750   7.546   3.262
14007TIP3    H141962   7.678   7.516   3.317
14007TIP3    H241963   7.771   7.470   3.207
14008TIP3   OH241964   8.214   7.545   3.236
14008TIP3    H141965   8.165   7.621   3.269
14008TIP3    H241966   8.305   7.566   3.256
14009TIP3   OH241967   2.173   5.320   4.963
14009TIP3    H141968   2.260   5.282   4.968
14009TIP3    H241969   2.188   5.415   4.961
14010TIP3   OH241970   1.968   4.337   3.837
14010TIP3    H141971   1.977   4.287   3.918
14010TIP3    H241972   1.922   4.279   3.777
14011TIP3   OH241973   3.345   0.579   3.341
14011TIP3    H141974   3.394   0.643   3.391
14011TIP3    H241975   3.253   0.603   3.354
14012TIP3   OH241976   8.352   0.989   2.033
14012TIP3    H141977   8.417   1.030   1.978
14012TIP3    H241978   8.272   0.988   1.980
14013TIP3   OH241979   1.090   5.868   3.943
14013TIP3    H141980   1.022   5.936   3.944
14013TIP3    H241981   1.160   5.905   3.890
14014TIP3   OH241982   2.191   3.516   2.862
14014TIP3    H141983   2.229   3.453   2.801
14014TIP3    H241984   2.205   3.478   2.949
14015TIP3   OH241985   4.172   2.043   5.223
14015TIP3    H141986   4.116   2.030   5.147
14015TIP3    H241987   4.144   2.127   5.260
14016TIP3   OH241988   2.016   1.807   5.795
14016TIP3    H141989   1.994   1.733   5.738
14016TIP3    H241990   2.110   1.819   5.783
14017TIP3   OH241991   0.836   6.839   1.061
14017TIP3    H141992   0.808   6.878   0.978
14017TIP3    H241993   0.878   6.910   1.109
14018TIP3   OH241994   7.701   0.696   2.585
14018TIP3    H141995   7.617   0.661   2.555
14018TIP3    H241996   7.766   0.641   2.542
14019TIP3   OH241997   5.951   7.152   5.584
14019TIP3    H141998   5.926   7.245   5.588
14019TIP3    H241999   5.973   7.130   5.674
14020TIP3   OH242000   6.193   0.444   2.035
14020TIP3    H142001   6.131   0.393   2.086
14020TIP3    H242002   6.151   0.456   1.950
14021TIP3   OH242003   2.523   7.202   1.129
14021TIP3    H142004   2.531   7.164   1.217
14021TIP3    H242005   2.583   7.149   1.075
14022TIP3   OH242006   5.966   1.647   0.234
14022TIP3    H142007   5.916   1.726   0.214
14022TIP3    H242008   5.977   1.603   0.150
14023TIP3   OH242009   5.871   0.854   5.895
14023TIP3    H142010   5.814   0.920   5.935
14023TIP3    H242011   5.811   0.788   5.860
14024TIP3   OH242012   7.443   5.899   4.840
14024TIP3    H142013   7.405   5.849   4.769
14024TIP3    H242014   7.369   5.920   4.897
14025TIP3   OH242015   0.493   6.223   3.858
14025TIP3    H142016   0.423   6.188   3.914
14025TIP3    H242017   0.574   6.200   3.903
14026TIP3   OH242018   3.277   4.920   0.087
14026TIP3    H142019   3.225   4.931   0.167
14026TIP3    H242020   3.315   4.833   0.095
14027TIP3   OH242021   7.509   7.064   0.985
14027TIP3    H142022   7.517   7.138   0.924
14027TIP3    H242023   7.556   6.993   0.942
14028TIP3   OH242024   7.547   4.441   1.349
14028TIP3    H142025   7.610   4.407   1.285
14028TIP3    H242026   7.494   4.366   1.373
14029TIP3   OH242027   2.344   2.459   4.654
14029TIP3    H142028   2.400   2.416   4.719
14029TIP3    H242029   2.255   2.440   4.682
14030TIP3   OH242030   1.989   0.722   3.172
14030TIP3    H142031   2.048   0.646   3.165
14030TIP3    H242032   1.916   0.690   3.225
14031TIP3   OH242033   7.556   5.882   3.053
14031TIP3    H142034   7.601   5.956   3.095
14031TIP3    H242035   7.620   5.811   3.055
14032TIP3   OH242036   0.588   7.513   3.834
14032TIP3    H142037   0.625   7.511   3.923
14032TIP3    H242038   0.545   7.428   3.825
14033TIP3   OH242039   1.491   7.096   5.234
14033TIP3    H142040   1.557   7.145   5.186
14033TIP3    H242041   1.494   7.008   5.198
14034TIP3   OH242042   1.387   7.401   5.767
14034TIP3    H142043   1.432   7.398   5.683
14034TIP3    H242044   1.455   7.424   5.830
14035TIP3   OH242045   5.915   3.954   3.145
14035TIP3    H142046   5.844   3.999   3.191
14035TIP3    H242047   5.925   3.870   3.190
14036TIP3   OH242048   1.510   0.238   2.795
14036TIP3    H142049   1.517   0.143   2.803
14036TIP3    H242050   1.483   0.253   2.705
14037TIP3   OH242051   4.904   5.702   5.681
14037TIP3    H142052   4.994   5.718   5.710
14037TIP3    H242053   4.877   5.784   5.640
14038TIP3   OH242054   0.181   1.001   3.868
14038TIP3    H142055   0.271   0.969   3.871
14038TIP3    H242056   0.188   1.094   3.889
14039TIP3   OH242057   4.318   1.900   0.104
14039TIP3    H142058   4.260   1.827   0.083
14039TIP3    H242059   4.406   1.863   0.095
14040TIP3   OH242060   5.073   3.204   4.431
14040TIP3    H142061   5.123   3.230   4.353
14040TIP3    H242062   4.988   3.246   4.419
14041TIP3   OH242063   4.497   7.156   3.188
14041TIP3    H142064   4.571   7.102   3.159
14041TIP3    H242065   4.467   7.199   3.108
14042TIP3   OH242066   2.495   6.890   4.348
14042TIP3    H142067   2.418   6.836   4.330
14042TIP3    H242068   2.459   6.974   4.377
14043TIP3   OH242069   7.042   2.792   3.341
14043TIP3    H142070   7.072   2.792   3.250
14043TIP3    H242071   7.086   2.718   3.382
14044TIP3   OH242072   6.629   3.202   4.942
14044TIP3    H142073   6.619   3.112   4.911
14044TIP3    H242074   6.672   3.193   5.027
14045TIP3   OH242075   3.890   6.304   3.050
14045TIP3    H142076   3.830   6.231   3.048
14045TIP3    H242077   3.977   6.264   3.051
14046TIP3   OH242078   0.706   0.653   2.267
14046TIP3    H142079   0.773   0.598   2.307
14046TIP3    H242080   0.694   0.616   2.179
14047TIP3   OH242081   8.164   1.185   2.395
14047TIP3    H142082   8.147   1.237   2.474
14047TIP3    H242083   8.242   1.225   2.356
14048TIP3   OH242084   1.193   5.757   0.789
14048TIP3    H142085   1.132   5.730   0.857
14048TIP3    H242086   1.137   5.780   0.715
14049TIP3   OH242087   2.373   5.786   3.015
14049TIP3    H142088   2.326   5.821   2.940
14049TIP3    H242089   2.313   5.799   3.089
14050TIP3   OH242090   4.388   1.658   4.750
14050TIP3    H142091   4.317   1.691   4.805
14050TIP3    H242092   4.348   1.643   4.664
14051TIP3   OH242093   1.798   3.214   0.914
14051TIP3    H142094   1.788   3.144   0.849
14051TIP3    H242095   1.813   3.169   0.997
14052TIP3   OH242096   5.995   1.527   2.966
14052TIP3    H142097   6.007   1.609   3.014
14052TIP3    H242098   5.998   1.553   2.873
14053TIP3   OH242099   6.815   5.169   1.124
14053TIP3    H142100   6.895   5.122   1.147
14053TIP3    H242101   6.830   5.201   1.035
14054TIP3   OH242102   8.303   7.541   3.560
14054TIP3    H142103   8.242   7.614   3.567
14054TIP3    H242104   8.386   7.575   3.594
14055TIP3   OH242105   7.589   3.985   0.816
14055TIP3    H142106   7.543   3.939   0.746
14055TIP3    H242107   7.580   4.077   0.794
14056TIP3   OH242108   5.640   7.199   5.499
14056TIP3    H142109   5.634   7.136   5.571
14056TIP3    H242110   5.706   7.261   5.528
14057TIP3   OH242111   4.104   3.384   3.971
14057TIP3    H142112   4.194   3.392   4.001
14057TIP3    H242113   4.099   3.297   3.931
14058TIP3   OH242114   4.991   5.963   3.540
14058TIP3    H142115   4.955   5.978   3.627
14058TIP3    H242116   5.073   5.916   3.557
14059TIP3   OH242117   7.134   7.477   2.901
14059TIP3    H142118   7.167   7.392   2.873
14059TIP3    H242119   7.186   7.500   2.977
14060TIP3   OH242120   8.067   7.682   3.537
14060TIP3    H142121   8.022   7.749   3.588
14060TIP3    H242122   8.037   7.695   3.448
14061TIP3   OH242123   5.321   5.302   4.971
14061TIP3    H142124   5.269   5.327   5.047
14061TIP3    H242125   5.388   5.371   4.965
14062TIP3   OH242126   6.917   7.327   1.662
14062TIP3    H142127   6.824   7.306   1.653
14062TIP3    H242128   6.918   7.399   1.726
14063TIP3   OH242129   3.364   7.332   2.342
14063TIP3    H142130   3.446   7.349   2.295
14063TIP3    H242131   3.361   7.398   2.410
14064TIP3   OH242132   6.501   7.795   4.571
14064TIP3    H142133   6.555   7.856   4.520
14064TIP3    H242134   6.538   7.709   4.553
14065TIP3   OH242135   2.656   3.264   5.261
14065TIP3    H142136   2.640   3.277   5.168
14065TIP3    H242137   2.666   3.352   5.297
14066TIP3   OH242138   1.327   2.830   3.127
14066TIP3    H142139   1.262   2.883   3.174
14066TIP3    H242140   1.410   2.852   3.167
14067TIP3   OH242141   7.284   1.247   2.847
14067TIP3    H142142   7.198   1.208   2.859
14067TIP3    H242143   7.327   1.191   2.782
14068TIP3   OH242144   6.248   4.376   0.874
14068TIP3    H142145   6.301   4.455   0.865
14068TIP3    H242146   6.169   4.404   0.921
14069TIP3   OH242147   3.595   7.095   1.761
14069TIP3    H142148   3.539   7.133   1.694
14069TIP3    H242149   3.535   7.060   1.826
14070TIP3   OH242150   7.887   3.853   6.840
14070TIP3    H142151   7.963   3.794   6.837
14070TIP3    H242152   7.920   3.935   6.806
14071TIP3   OH242153   2.866   4.916   0.729
14071TIP3    H142154   2.821   4.992   0.765
14071TIP3    H242155   2.802   4.876   0.669
14072TIP3   OH242156   4.795   1.531   2.098
14072TIP3    H142157   4.710   1.571   2.117
14072TIP3    H242158   4.782   1.438   2.110
14073TIP3   OH242159   3.221   6.962   2.380
14073TIP3    H142160   3.243   6.874   2.410
14073TIP3    H242161   3.256   7.020   2.448
14074TIP3   OH242162   5.248   7.163   3.332
14074TIP3    H142163   5.215   7.132   3.247
14074TIP3    H242164   5.325   7.216   3.309
14075TIP3   OH242165   7.225   4.390   2.173
14075TIP3    H142166   7.318   4.378   2.193
14075TIP3    H242167   7.224   4.462   2.109
14076TIP3   OH242168   5.541   5.474   6.197
14076TIP3    H142169   5.589   5.419   6.259
14076TIP3    H242170   5.542   5.424   6.115
14077TIP3   OH242171   0.680   1.127   2.774
14077TIP3    H142172   0.711   1.189   2.840
14077TIP3    H242173   0.586   1.120   2.790
14078TIP3   OH242174   6.435   0.359   2.312
14078TIP3    H142175   6.465   0.390   2.227
14078TIP3    H242176   6.507   0.305   2.345
14079TIP3   OH242177   2.124   1.077   4.723
14079TIP3    H142178   2.190   1.016   4.692
14079TIP3    H242179   2.173   1.156   4.748
14080TIP3   OH242180   5.694   4.479   6.520
14080TIP3    H142181   5.731   4.420   6.586
14080TIP3    H242182   5.734   4.450   6.437
14081TIP3   OH242183   1.409   7.138   4.550
14081TIP3    H142184   1.440   7.221   4.515
14081TIP3    H242185   1.398   7.082   4.474
14082TIP3   OH242186   7.498   5.225   5.243
14082TIP3    H142187   7.476   5.271   5.324
14082TIP3    H242188   7.593   5.226   5.239
14083TIP3   OH242189   0.683   6.057   5.825
14083TIP3    H142190   0.661   6.104   5.745
14083TIP3    H242191   0.601   6.016   5.852
14084TIP3   OH242192   0.129   4.645   6.231
14084TIP3    H142193   0.064   4.714   6.248
14084TIP3    H242194   0.132   4.638   6.136
14085TIP3   OH242195   0.480   6.873   5.083
14085TIP3    H142196   0.413   6.913   5.028
14085TIP3    H242197   0.519   6.805   5.029
14086TIP3   OH242198   7.784   2.907   0.672
14086TIP3    H142199   7.748   2.967   0.737
14086TIP3    H242200   7.858   2.866   0.715
14087TIP3   OH242201   2.433   7.677   3.463
14087TIP3    H142202   2.358   7.618   3.453
14087TIP3    H242203   2.472   7.652   3.546
14088TIP3   OH242204   4.435   5.869   0.556
14088TIP3    H142205   4.494   5.914   0.617
14088TIP3    H242206   4.493   5.836   0.487
14089TIP3   OH242207   6.531   3.562   4.203
14089TIP3    H142208   6.494   3.585   4.118
14089TIP3    H242209   6.455   3.557   4.261
14090TIP3   OH242210   7.928   3.065   3.816
14090TIP3    H142211   7.856   3.127   3.817
14090TIP3    H242212   7.889   2.984   3.783
14091TIP3   OH242213   6.448   3.807   5.665
14091TIP3    H142214   6.396   3.881   5.696
14091TIP3    H242215   6.389   3.759   5.606
14092TIP3   OH242216   0.665   1.427   1.958
14092TIP3    H142217   0.643   1.515   1.988
14092TIP3    H242218   0.749   1.408   1.999
14093TIP3   OH242219   0.124   4.885   1.387
14093TIP3    H142220   0.153   4.856   1.473
14093TIP3    H242221   0.030   4.869   1.386
14094TIP3   OH242222   1.934   7.699   4.885
14094TIP3    H142223   1.881   7.625   4.856
14094TIP3    H242224   1.887   7.777   4.856
14095TIP3   OH242225   1.069   4.480   3.631
14095TIP3    H142226   1.090   4.419   3.561
14095TIP3    H242227   1.152   4.497   3.675
14096TIP3   OH242228   4.134   3.148   5.351
14096TIP3    H142229   4.159   3.224   5.299
14096TIP3    H242230   4.187   3.155   5.431
14097TIP3   OH242231   0.945   7.808   1.908
14097TIP3    H142232   0.857   7.769   1.913
14097TIP3    H242233   0.936   7.893   1.952
14098TIP3   OH242234   6.636   4.107   2.925
14098TIP3    H142235   6.704   4.039   2.932
14098TIP3    H242236   6.554   4.058   2.916
14099TIP3   OH242237   5.419   7.426   5.533
14099TIP3    H142238   5.384   7.374   5.606
14099TIP3    H242239   5.508   7.448   5.560
14100TIP3   OH242240   0.592   4.860   2.279
14100TIP3    H142241   0.496   4.854   2.278
14100TIP3    H242242   0.612   4.921   2.350
14101TIP3   OH242243   8.014   0.544   2.692
14101TIP3    H142244   7.986   0.578   2.607
14101TIP3    H242245   8.034   0.622   2.744
14102TIP3   OH242246   0.290   3.314   2.546
14102TIP3    H142247   0.236   3.240   2.573
14102TIP3    H242248   0.334   3.285   2.466
14103TIP3   OH242249   3.982   0.482   3.836
14103TIP3    H142250   3.928   0.407   3.860
14103TIP3    H242251   3.936   0.522   3.762
14104TIP3   OH242252   1.174   0.488   3.012
14104TIP3    H142253   1.126   0.509   3.092
14104TIP3    H242254   1.261   0.460   3.042
14105TIP3   OH242255   2.961   0.166   2.386
14105TIP3    H142256   2.944   0.102   2.455
14105TIP3    H242257   2.876   0.177   2.343
14106TIP3   OH242258   3.695   7.086   5.103
14106TIP3    H142259   3.752   7.160   5.126
14106TIP3    H242260   3.678   7.042   5.186
14107TIP3   OH242261   0.065   7.019   5.081
14107TIP3    H142262   0.008   7.084   5.039
14107TIP3    H242263   0.006   6.960   5.126
14108TIP3   OH242264   1.561   5.307   2.121
14108TIP3    H142265   1.596   5.227   2.161
14108TIP3    H242266   1.636   5.346   2.077
14109TIP3   OH242267   4.850   0.483   6.894
14109TIP3    H142268   4.780   0.436   6.848
14109TIP3    H242269   4.887   0.542   6.828
14110TIP3   OH242270   0.788   1.892   2.657
14110TIP3    H142271   0.753   1.941   2.731
14110TIP3    H242272   0.748   1.934   2.580
14111TIP3   OH242273   5.385   3.632   5.291
14111TIP3    H142274   5.332   3.556   5.264
14111TIP3    H242275   5.419   3.667   5.209
14112TIP3   OH242276   6.437   5.470   3.438
14112TIP3    H142277   6.455   5.536   3.371
14112TIP3    H242278   6.345   5.483   3.461
14113TIP3   OH242279   4.879   2.310   3.974
14113TIP3    H142280   4.940   2.383   3.974
14113TIP3    H242281   4.810   2.337   4.034
14114TIP3   OH242282   2.851   4.980   2.445
14114TIP3    H142283   2.880   4.976   2.536
14114TIP3    H242284   2.847   5.074   2.425
14115TIP3   OH242285   1.540   7.409   6.322
14115TIP3    H142286   1.583   7.464   6.257
14115TIP3    H242287   1.592   7.329   6.325
14116TIP3   OH242288   5.496   2.498   4.467
14116TIP3    H142289   5.499   2.571   4.529
14116TIP3    H242290   5.586   2.463   4.467
14117TIP3   OH242291   3.906   4.740   5.413
14117TIP3    H142292   3.896   4.769   5.504
14117TIP3    H242293   3.991   4.696   5.412
14118TIP3   OH242294   6.308   1.471   5.165
14118TIP3    H142295   6.298   1.402   5.099
14118TIP3    H242296   6.223   1.514   5.168
14119TIP3   OH242297   2.958   7.198   3.963
14119TIP3    H142298   2.929   7.190   4.054
14119TIP3    H242299   2.907   7.269   3.927
14120TIP3   OH242300   2.069   7.668   1.120
14120TIP3    H142301   2.160   7.640   1.130
14120TIP3    H242302   2.034   7.667   1.209
14121TIP3   OH242303   1.460   6.868   3.501
14121TIP3    H142304   1.529   6.831   3.446
14121TIP3    H242305   1.401   6.911   3.439
14122TIP3   OH242306   5.938   6.111   2.758
14122TIP3    H142307   5.890   6.089   2.838
14122TIP3    H242308   5.882   6.173   2.712
14123TIP3   OH242309   4.805   3.775   1.062
14123TIP3    H142310   4.844   3.826   1.133
14123TIP3    H242311   4.852   3.691   1.064
14124TIP3   OH242312   4.793   7.226   3.884
14124TIP3    H142313   4.866   7.174   3.851
14124TIP3    H242314   4.724   7.213   3.819
14125TIP3   OH242315   0.925   4.833   1.024
14125TIP3    H142316   0.991   4.766   1.004
14125TIP3    H242317   0.915   4.882   0.943
14126TIP3   OH242318   0.776   5.046   0.449
14126TIP3    H142319   0.738   5.133   0.434
14126TIP3    H242320   0.819   5.025   0.366
14127TIP3   OH242321   5.234   1.880   0.362
14127TIP3    H142322   5.173   1.947   0.394
14127TIP3    H242323   5.250   1.903   0.271
14128TIP3   OH242324   5.405   6.705   4.292
14128TIP3    H142325   5.353   6.777   4.257
14128TIP3    H242326   5.371   6.627   4.248
14129TIP3   OH242327   6.262   3.065   5.792
14129TIP3    H142328   6.342   3.033   5.751
14129TIP3    H242329   6.231   2.991   5.845
14130TIP3   OH242330   1.522   3.364   6.165
14130TIP3    H142331   1.562   3.277   6.159
14130TIP3    H242332   1.564   3.415   6.096
14131TIP3   OH242333   2.559   7.311   0.717
14131TIP3    H142334   2.633   7.251   0.710
14131TIP3    H242335   2.491   7.260   0.760
14132TIP3   OH242336   2.212   1.488   2.828
14132TIP3    H142337   2.131   1.533   2.803
14132TIP3    H242338   2.249   1.541   2.898
14133TIP3   OH242339   3.108   6.630   5.815
14133TIP3    H142340   3.059   6.666   5.741
14133TIP3    H242341   3.200   6.641   5.791
14134TIP3   OH242342   1.943   2.835   3.694
14134TIP3    H142343   1.934   2.741   3.711
14134TIP3    H242344   1.947   2.875   3.781
14135TIP3   OH242345   1.480   6.904   5.792
14135TIP3    H142346   1.543   6.934   5.727
14135TIP3    H242347   1.431   6.834   5.748
14136TIP3   OH242348   0.127   1.858   2.570
14136TIP3    H142349   0.152   1.890   2.484
14136TIP3    H242350   0.035   1.836   2.562
14137TIP3   OH242351   3.118   4.067   5.080
14137TIP3    H142352   3.110   4.157   5.050
14137TIP3    H242353   3.034   4.046   5.120
14138TIP3   OH242354   0.962   2.686   3.799
14138TIP3    H142355   1.014   2.649   3.870
14138TIP3    H242356   1.007   2.657   3.719
14139TIP3   OH242357   7.730   4.028   0.427
14139TIP3    H142358   7.643   4.068   0.427
14139TIP3    H242359   7.748   4.008   0.335
14140TIP3   OH242360   2.465   4.245   1.447
14140TIP3    H142361   2.546   4.236   1.496
14140TIP3    H242362   2.404   4.185   1.490
14141TIP3   OH242363   4.942   5.364   0.168
14141TIP3    H142364   4.978   5.441   0.124
14141TIP3    H242365   5.017   5.322   0.210
14142TIP3   OH242366   5.480   0.935   6.120
14142TIP3    H142367   5.550   0.999   6.110
14142TIP3    H242368   5.525   0.854   6.142
14143TIP3   OH242369   2.264   3.340   4.099
14143TIP3    H142370   2.226   3.257   4.068
14143TIP3    H242371   2.265   3.397   4.022
14144TIP3   OH242372   6.978   7.707   6.592
14144TIP3    H142373   7.006   7.784   6.543
14144TIP3    H242374   6.916   7.663   6.534
14145TIP3   OH242375   4.909   4.062   0.940
14145TIP3    H142376   5.001   4.056   0.968
14145TIP3    H242377   4.860   4.075   1.022
14146TIP3   OH242378   8.181   7.584   0.572
14146TIP3    H142379   8.125   7.633   0.632
14146TIP3    H242380   8.186   7.639   0.494
14147TIP3   OH242381   6.573   4.760   0.386
14147TIP3    H142382   6.531   4.725   0.306
14147TIP3    H242383   6.637   4.693   0.410
14148TIP3   OH242384   7.206   5.235   2.947
14148TIP3    H142385   7.111   5.235   2.957
14148TIP3    H242386   7.221   5.195   2.861
14149TIP3   OH242387   5.522   0.134   3.181
14149TIP3    H142388   5.489   0.124   3.092
14149TIP3    H242389   5.482   0.063   3.231
14150TIP3   OH242390   4.906   2.530   0.192
14150TIP3    H142391   4.856   2.579   0.257
14150TIP3    H242392   4.990   2.575   0.186
14151TIP3   OH242393   5.837   7.359   3.898
14151TIP3    H142394   5.791   7.404   3.969
14151TIP3    H242395   5.920   7.330   3.938
14152TIP3   OH242396   7.482   6.125   2.929
14152TIP3    H142397   7.403   6.159   2.972
14152TIP3    H242398   7.484   6.032   2.951
14153TIP3   OH242399   2.174   6.486   2.464
14153TIP3    H142400   2.102   6.432   2.495
14153TIP3    H242401   2.150   6.511   2.375
14154TIP3   OH242402   2.964   7.670   3.499
14154TIP3    H142403   3.024   7.652   3.571
14154TIP3    H242404   2.985   7.604   3.433
14155TIP3   OH242405   3.992   2.928   5.446
14155TIP3    H142406   4.045   3.007   5.432
14155TIP3    H242407   3.965   2.934   5.538
14156TIP3   OH242408   5.702   6.799   4.827
14156TIP3    H142409   5.679   6.780   4.736
14156TIP3    H242410   5.699   6.714   4.870
14157TIP3   OH242411   2.590   5.253   3.796
14157TIP3    H142412   2.646   5.305   3.738
14157TIP3    H242413   2.585   5.167   3.754
14158TIP3   OH242414   2.250   0.059   6.708
14158TIP3    H142415   2.313   0.000   6.666
14158TIP3    H242416   2.219   0.010   6.784
14159TIP3   OH242417   3.291   2.096   2.217
14159TIP3    H142418   3.361   2.133   2.164
14159TIP3    H242419   3.302   2.001   2.209
14160TIP3   OH242420   3.698   0.983   2.319
14160TIP3    H142421   3.737   1.016   2.400
14160TIP3    H242422   3.633   1.049   2.295
14161TIP3   OH242423   7.548   5.076   2.918
14161TIP3    H142424   7.536   5.170   2.905
14161TIP3    H242425   7.637   5.067   2.950
14162TIP3   OH242426   2.601   4.587   0.794
14162TIP3    H142427   2.655   4.641   0.736
14162TIP3    H242428   2.603   4.634   0.878
14163TIP3   OH242429   0.181   1.647   1.476
14163TIP3    H142430   0.115   1.584   1.506
14163TIP3    H242431   0.228   1.601   1.406
14164TIP3   OH242432   5.980   7.358   6.147
14164TIP3    H142433   6.034   7.289   6.111
14164TIP3    H242434   5.932   7.316   6.219
14165TIP3   OH242435   1.587   5.019   4.809
14165TIP3    H142436   1.533   4.941   4.791
14165TIP3    H242437   1.620   5.045   4.723
14166TIP3   OH242438   6.497   0.490   5.171
14166TIP3    H142439   6.581   0.520   5.204
14166TIP3    H242440   6.435   0.510   5.241
14167TIP3   OH242441   2.720   0.753   3.727
14167TIP3    H142442   2.766   0.670   3.725
14167TIP3    H242443   2.629   0.731   3.706
14168TIP3   OH242444   3.898   5.667   3.217
14168TIP3    H142445   3.911   5.729   3.145
14168TIP3    H242446   3.892   5.582   3.174
14169TIP3   OH242447   6.753   0.608   5.193
14169TIP3    H142448   6.832   0.656   5.220
14169TIP3    H242449   6.689   0.676   5.173
14170TIP3   OH242450   0.623   2.612   3.836
14170TIP3    H142451   0.532   2.586   3.848
14170TIP3    H242452   0.649   2.570   3.754
14171TIP3   OH242453   5.654   1.327   5.751
14171TIP3    H142454   5.744   1.327   5.785
14171TIP3    H242455   5.652   1.402   5.691
14172TIP3   OH242456   5.901   0.551   5.597
14172TIP3    H142457   5.814   0.575   5.627
14172TIP3    H242458   5.956   0.627   5.617
14173TIP3   OH242459   4.134   6.714   0.575
14173TIP3    H142460   4.183   6.755   0.503
14173TIP3    H242461   4.195   6.649   0.611
14174TIP3   OH242462   5.207   6.460   5.288
14174TIP3    H142463   5.256   6.538   5.313
14174TIP3    H242464   5.116   6.489   5.284
14175TIP3   OH242465   3.971   6.847   1.526
14175TIP3    H142466   4.049   6.882   1.569
14175TIP3    H242467   3.940   6.918   1.471
14176TIP3   OH242468   7.882   3.026   4.157
14176TIP3    H142469   7.953   2.974   4.121
14176TIP3    H242470   7.921   3.112   4.175
14177TIP3   OH242471   1.894   1.711   1.471
14177TIP3    H142472   1.971   1.661   1.498
14177TIP3    H242473   1.930   1.790   1.429
14178TIP3   OH242474   3.985   3.676   2.496
14178TIP3    H142475   4.051   3.654   2.561
14178TIP3    H242476   3.910   3.621   2.518
14179TIP3   OH242477   4.002   5.028   5.629
14179TIP3    H142478   4.088   4.990   5.644
14179TIP3    H242479   4.008   5.069   5.543
14180TIP3   OH242480   3.261   4.054   3.769
14180TIP3    H142481   3.169   4.056   3.796
14180TIP3    H242482   3.305   4.116   3.827
14181TIP3   OH242483   4.764   5.072   6.091
14181TIP3    H142484   4.783   5.105   6.178
14181TIP3    H242485   4.769   5.149   6.034
14182TIP3   OH242486   7.104   5.775   4.533
14182TIP3    H142487   7.193   5.808   4.546
14182TIP3    H242488   7.074   5.753   4.622
14183TIP3   OH242489   8.363   6.244   2.533
14183TIP3    H142490   8.432   6.308   2.550
14183TIP3    H242491   8.293   6.268   2.594
14184TIP3   OH242492  -0.004   2.955   1.703
14184TIP3    H142493   0.002   2.930   1.611
14184TIP3    H242494   0.061   2.900   1.747
14185TIP3   OH242495   4.011   1.638   1.944
14185TIP3    H142496   4.002   1.608   2.035
14185TIP3    H242497   3.924   1.673   1.922
14186TIP3   OH242498   0.912   1.032   6.294
14186TIP3    H142499   0.881   1.029   6.204
14186TIP3    H242500   0.834   1.012   6.346
14187TIP3   OH242501   6.479   6.266   2.771
14187TIP3    H142502   6.399   6.279   2.720
14187TIP3    H242503   6.462   6.189   2.825
14188TIP3   OH242504   3.430   7.388   5.588
14188TIP3    H142505   3.404   7.480   5.595
14188TIP3    H242506   3.434   7.371   5.494
14189TIP3   OH242507   4.891   5.790   0.478
14189TIP3    H142508   4.912   5.857   0.543
14189TIP3    H242509   4.907   5.832   0.394
14190TIP3   OH242510   1.894   3.973   4.244
14190TIP3    H142511   1.960   4.042   4.241
14190TIP3    H242512   1.912   3.927   4.326
14191TIP3   OH242513   7.372   0.486   4.284
14191TIP3    H142514   7.452   0.476   4.233
14191TIP3    H242515   7.320   0.549   4.234
14192TIP3   OH242516   7.363   6.929   3.560
14192TIP3    H142517   7.352   6.978   3.642
14192TIP3    H242518   7.278   6.935   3.517
14193TIP3   OH242519   6.699   3.400   3.868
14193TIP3    H142520   6.730   3.326   3.816
14193TIP3    H242521   6.652   3.456   3.805
14194TIP3   OH242522   3.185   5.711   6.598
14194TIP3    H142523   3.248   5.736   6.665
14194TIP3    H242524   3.220   5.748   6.517
14195TIP3   OH242525   3.044   0.602   3.616
14195TIP3    H142526   3.090   0.530   3.659
14195TIP3    H242527   3.068   0.680   3.667
14196TIP3   OH242528   7.040   7.532   1.922
14196TIP3    H142529   6.976   7.462   1.935
14196TIP3    H242530   7.046   7.575   2.007
14197TIP3   OH242531   6.737   0.053   3.085
14197TIP3    H142532   6.674   0.119   3.055
14197TIP3    H242533   6.715  -0.026   3.036
14198TIP3   OH242534   7.621   0.040   3.500
14198TIP3    H142535   7.637  -0.053   3.486
14198TIP3    H242536   7.708   0.077   3.519
14199TIP3   OH242537   7.699   3.008   2.074
14199TIP3    H142538   7.651   3.022   1.993
14199TIP3    H242539   7.699   3.094   2.117
14200TIP3   OH242540   2.078   5.885   6.193
14200TIP3    H142541   2.130   5.922   6.265
14200TIP3    H242542   2.088   5.790   6.203
14201TIP3   OH242543   8.035   7.046   2.449
14201TIP3    H142544   8.060   7.086   2.366
14201TIP3    H242545   7.987   7.115   2.495
14202TIP3   OH242546   4.756   7.504   5.906
14202TIP3    H142547   4.795   7.437   5.962
14202TIP3    H242548   4.714   7.565   5.967
14203TIP3   OH242549   6.910   4.214   5.160
14203TIP3    H142550   6.859   4.159   5.101
14203TIP3    H242551   6.892   4.303   5.131
14204TIP3   OH242552   3.076   5.555   0.740
14204TIP3    H142553   3.168   5.530   0.739
14204TIP3    H242554   3.033   5.490   0.684
14205TIP3   OH242555   1.855   3.342   3.167
14205TIP3    H142556   1.822   3.430   3.187
14205TIP3    H242557   1.874   3.304   3.253
14206TIP3   OH242558   1.239   0.018   2.446
14206TIP3    H142559   1.190   0.012   2.529
14206TIP3    H242560   1.329   0.037   2.473
14207TIP3   OH242561   1.007   5.676   6.168
14207TIP3    H142562   1.005   5.719   6.253
14207TIP3    H242563   1.024   5.584   6.188
14208TIP3   OH242564   2.860   2.569   0.574
14208TIP3    H142565   2.935   2.512   0.590
14208TIP3    H242566   2.867   2.594   0.482
14209TIP3   OH242567   3.653   4.771   2.860
14209TIP3    H142568   3.621   4.689   2.821
14209TIP3    H242569   3.683   4.822   2.785
14210TIP3   OH242570   4.561   2.830   2.621
14210TIP3    H142571   4.572   2.738   2.596
14210TIP3    H242572   4.490   2.862   2.565
14211TIP3   OH242573   6.565   6.188   1.376
14211TIP3    H142574   6.624   6.113   1.365
14211TIP3    H242575   6.520   6.196   1.292
14212TIP3   OH242576   6.907   6.483   3.361
14212TIP3    H142577   6.935   6.478   3.452
14212TIP3    H242578   6.817   6.517   3.365
14213TIP3   OH242579   3.703   7.590   5.909
14213TIP3    H142580   3.652   7.517   5.874
14213TIP3    H242581   3.658   7.613   5.991
14214TIP3   OH242582   0.943   0.254   2.462
14214TIP3    H142583   1.036   0.279   2.456
14214TIP3    H242584   0.932   0.186   2.396
14215TIP3   OH242585   0.422   3.490   3.457
14215TIP3    H142586   0.337   3.495   3.414
14215TIP3    H242587   0.458   3.405   3.430
14216TIP3   OH242588   6.670   7.942   1.412
14216TIP3    H142589   6.677   7.886   1.489
14216TIP3    H242590   6.596   7.907   1.363
14217TIP3   OH242591   4.855   7.918   3.086
14217TIP3    H142592   4.822   7.855   3.151
14217TIP3    H242593   4.947   7.929   3.109
14218TIP3   OH242594   4.685   2.314   6.344
14218TIP3    H142595   4.646   2.353   6.265
14218TIP3    H242596   4.745   2.380   6.377
14219TIP3   OH242597   7.276   7.517   1.458
14219TIP3    H142598   7.215   7.556   1.395
14219TIP3    H242599   7.251   7.555   1.542
14220TIP3   OH242600   0.316   7.906   2.967
14220TIP3    H142601   0.311   7.845   2.894
14220TIP3    H242602   0.362   7.857   3.036
14221TIP3   OH242603   0.192   4.266   0.489
14221TIP3    H142604   0.098   4.275   0.472
14221TIP3    H242605   0.196   4.216   0.571
14222TIP3   OH242606   0.425   3.725   5.839
14222TIP3    H142607   0.399   3.633   5.835
14222TIP3    H242608   0.348   3.770   5.876
14223TIP3   OH242609   3.331   0.155   3.523
14223TIP3    H142610   3.388   0.227   3.494
14223TIP3    H242611   3.253   0.164   3.468
14224TIP3   OH242612   5.075   5.397   3.376
14224TIP3    H142613   5.151   5.403   3.433
14224TIP3    H242614   5.047   5.306   3.383
14225TIP3   OH242615   1.083   3.636   5.147
14225TIP3    H142616   1.112   3.574   5.214
14225TIP3    H242617   1.070   3.718   5.194
14226TIP3   OH242618   1.290   6.117   1.974
14226TIP3    H142619   1.345   6.066   1.915
14226TIP3    H242620   1.314   6.208   1.957
14227TIP3   OH242621   1.130   4.649   2.396
14227TIP3    H142622   1.176   4.674   2.316
14227TIP3    H242623   1.122   4.554   2.391
14228TIP3   OH242624   7.048   3.441   5.988
14228TIP3    H142625   6.961   3.464   5.955
14228TIP3    H242626   7.094   3.407   5.911
14229TIP3   OH242627   4.132   7.478   2.558
14229TIP3    H142628   4.171   7.566   2.563
14229TIP3    H242629   4.186   7.425   2.617
14230TIP3   OH242630   6.561   5.651   2.227
14230TIP3    H142631   6.542   5.734   2.269
14230TIP3    H242632   6.526   5.585   2.286
14231TIP3   OH242633   1.383   0.927   0.621
14231TIP3    H142634   1.326   0.927   0.544
14231TIP3    H242635   1.323   0.938   0.695
14232TIP3   OH242636   6.007   5.248   0.270
14232TIP3    H142637   6.002   5.321   0.209
14232TIP3    H242638   6.053   5.179   0.222
14233TIP3   OH242639   3.990   3.306   4.297
14233TIP3    H142640   3.950   3.267   4.219
14233TIP3    H242641   3.935   3.382   4.317
14234TIP3   OH242642   3.388   3.653   4.819
14234TIP3    H142643   3.316   3.698   4.865
14234TIP3    H242644   3.352   3.633   4.732
14235TIP3   OH242645   2.960   4.528   0.680
14235TIP3    H142646   2.928   4.443   0.650
14235TIP3    H242647   2.962   4.582   0.602
14236TIP3   OH242648   4.963   0.677   2.691
14236TIP3    H142649   4.937   0.593   2.654
14236TIP3    H242650   4.954   0.739   2.619
14237TIP3   OH242651   4.899   5.173   2.362
14237TIP3    H142652   4.922   5.159   2.454
14237TIP3    H242653   4.955   5.245   2.334
14238TIP3   OH242654   6.646   0.773   3.111
14238TIP3    H142655   6.626   0.808   3.197
14238TIP3    H242656   6.741   0.777   3.104
14239TIP3   OH242657   1.296   6.858   4.871
14239TIP3    H142658   1.383   6.827   4.845
14239TIP3    H242659   1.238   6.827   4.801
14240TIP3   OH242660   5.378   7.831   2.670
14240TIP3    H142661   5.317   7.873   2.731
14240TIP3    H242662   5.363   7.877   2.587
14241TIP3   OH242663   4.222   4.773   6.459
14241TIP3    H142664   4.195   4.703   6.400
14241TIP3    H242665   4.216   4.852   6.406
14242TIP3   OH242666   1.019   0.397   6.095
14242TIP3    H142667   0.997   0.469   6.155
14242TIP3    H242668   1.086   0.434   6.038
14243TIP3   OH242669   1.821   0.591   3.330
14243TIP3    H142670   1.738   0.542   3.331
14243TIP3    H242671   1.888   0.524   3.341
14244TIP3   OH242672   6.852   1.619   4.031
14244TIP3    H142673   6.839   1.680   4.104
14244TIP3    H242674   6.947   1.617   4.019
14245TIP3   OH242675  -0.030   2.304   3.591
14245TIP3    H142676   0.011   2.389   3.576
14245TIP3    H242677   0.040   2.241   3.577
14246TIP3   OH242678   0.200   5.694   1.139
14246TIP3    H142679   0.158   5.611   1.118
14246TIP3    H242680   0.198   5.744   1.057
14247TIP3   OH242681   7.433   0.582   3.515
14247TIP3    H142682   7.498   0.546   3.455
14247TIP3    H242683   7.474   0.663   3.547
14248TIP3   OH242684   8.286   6.705   6.549
14248TIP3    H142685   8.326   6.714   6.462
14248TIP3    H242686   8.331   6.770   6.603
14249TIP3   OH242687   2.152   3.263   5.224
14249TIP3    H142688   2.090   3.336   5.224
14249TIP3    H242689   2.099   3.186   5.245
14250TIP3   OH242690   0.992   5.300   3.139
14250TIP3    H142691   0.991   5.276   3.047
14250TIP3    H242692   0.903   5.283   3.170
14251TIP3   OH242693   5.684   1.605   0.281
14251TIP3    H142694   5.627   1.529   0.295
14251TIP3    H242695   5.769   1.568   0.260
14252TIP3   OH242696   3.375   6.111   0.281
14252TIP3    H142697   3.305   6.148   0.336
14252TIP3    H242698   3.334   6.036   0.238
14253TIP3   OH242699   1.760   6.989   4.922
14253TIP3    H142700   1.744   7.069   4.973
14253TIP3    H242701   1.834   6.947   4.965
14254TIP3   OH242702   4.949   4.981   4.716
14254TIP3    H142703   4.878   4.983   4.781
14254TIP3    H242704   5.028   5.002   4.766
14255TIP3   OH242705   5.619   2.128   3.411
14255TIP3    H142706   5.622   2.143   3.505
14255TIP3    H242707   5.544   2.070   3.398
14256TIP3   OH242708   7.957   2.417   3.303
14256TIP3    H142709   7.992   2.329   3.286
14256TIP3    H242710   7.968   2.463   3.219
14257TIP3   OH242711   1.724   0.892   3.993
14257TIP3    H142712   1.642   0.936   4.016
14257TIP3    H242713   1.724   0.890   3.898
14258TIP3   OH242714   5.259   7.202   4.912
14258TIP3    H142715   5.341   7.230   4.953
14258TIP3    H242716   5.286   7.141   4.843
14259TIP3   OH242717   2.901   2.948   0.184
14259TIP3    H142718   2.855   3.032   0.182
14259TIP3    H242719   2.923   2.935   0.276
14260TIP3   OH242720   3.284   4.787   5.411
14260TIP3    H142721   3.356   4.757   5.466
14260TIP3    H242722   3.259   4.710   5.360
14261TIP3   OH242723   7.889   3.762   6.347
14261TIP3    H142724   7.924   3.721   6.425
14261TIP3    H242725   7.945   3.731   6.276
14262TIP3   OH242726   0.149   4.990   3.873
14262TIP3    H142727   0.211   5.034   3.815
14262TIP3    H242728   0.113   5.059   3.927
14263TIP3   OH242729   5.103   1.899   1.042
14263TIP3    H142730   5.150   1.859   0.970
14263TIP3    H242731   5.170   1.915   1.109
14264TIP3   OH242732   6.660   6.461   3.703
14264TIP3    H142733   6.686   6.529   3.765
14264TIP3    H242734   6.636   6.386   3.758
14265TIP3   OH242735   6.904   6.659   4.270
14265TIP3    H142736   6.816   6.686   4.295
14265TIP3    H242737   6.927   6.592   4.335
14266TIP3   OH242738   2.170   2.917   3.223
14266TIP3    H142739   2.194   2.989   3.165
14266TIP3    H242740   2.101   2.869   3.176
14267TIP3   OH242741   5.268   5.217   6.404
14267TIP3    H142742   5.323   5.173   6.339
14267TIP3    H242743   5.303   5.306   6.408
14268TIP3   OH242744   4.822   5.541   5.974
14268TIP3    H142745   4.763   5.596   6.024
14268TIP3    H242746   4.816   5.573   5.884
14269TIP3   OH242747   1.566   4.156   3.552
14269TIP3    H142748   1.515   4.107   3.488
14269TIP3    H242749   1.505   4.221   3.588
14270TIP3   OH242750   3.757   2.433   6.298
14270TIP3    H142751   3.850   2.438   6.277
14270TIP3    H242752   3.732   2.345   6.271
14271TIP3   OH242753   6.370   6.621   5.526
14271TIP3    H142754   6.285   6.656   5.556
14271TIP3    H242755   6.398   6.563   5.597
14272TIP3   OH242756   5.829   4.093   2.427
14272TIP3    H142757   5.792   4.076   2.340
14272TIP3    H242758   5.755   4.123   2.480
14273TIP3   OH242759   1.445   0.139   4.855
14273TIP3    H142760   1.419   0.086   4.930
14273TIP3    H242761   1.425   0.084   4.779
14274TIP3   OH242762   4.545   4.268   4.071
14274TIP3    H142763   4.590   4.343   4.034
14274TIP3    H242764   4.488   4.236   4.001
14275TIP3   OH242765   5.374   5.988   2.047
14275TIP3    H142766   5.349   6.079   2.064
14275TIP3    H242767   5.415   5.989   1.961
14276TIP3   OH242768   1.646   7.353   2.939
14276TIP3    H142769   1.680   7.430   2.894
14276TIP3    H242770   1.719   7.290   2.938
14277TIP3   OH242771   0.217   2.724   6.447
14277TIP3    H142772   0.223   2.725   6.352
14277TIP3    H242773   0.295   2.772   6.476
14278TIP3   OH242774   7.477   0.503   6.179
14278TIP3    H142775   7.483   0.598   6.169
14278TIP3    H242776   7.514   0.486   6.266
14279TIP3   OH242777   0.196   3.989   1.113
14279TIP3    H142778   0.174   3.950   1.198
14279TIP3    H242779   0.243   3.920   1.067
14280TIP3   OH242780   1.423   6.163   0.823
14280TIP3    H142781   1.362   6.181   0.894
14280TIP3    H242782   1.428   6.246   0.775
14281TIP3   OH242783   7.103   1.782   1.802
14281TIP3    H142784   7.087   1.856   1.861
14281TIP3    H242785   7.197   1.783   1.786
14282TIP3   OH242786   4.797   3.862   3.439
14282TIP3    H142787   4.768   3.802   3.370
14282TIP3    H242788   4.810   3.945   3.394
14283TIP3   OH242789   6.054   3.653   5.868
14283TIP3    H142790   6.042   3.726   5.807
14283TIP3    H242791   6.080   3.579   5.812
14284TIP3   OH242792   4.524   7.530   1.728
14284TIP3    H142793   4.445   7.561   1.771
14284TIP3    H242794   4.499   7.520   1.636
14285TIP3   OH242795   3.923   0.277   5.615
14285TIP3    H142796   3.943   0.221   5.690
14285TIP3    H242797   3.924   0.217   5.540
14286TIP3   OH242798   2.630   0.590   4.623
14286TIP3    H142799   2.641   0.506   4.669
14286TIP3    H242800   2.641   0.656   4.692
14287TIP3   OH242801   4.883   1.208   2.970
14287TIP3    H142802   4.938   1.284   2.950
14287TIP3    H242803   4.874   1.163   2.886
14288TIP3   OH242804   4.282   0.937   3.302
14288TIP3    H142805   4.229   0.906   3.376
14288TIP3    H242806   4.311   1.024   3.329
14289TIP3   OH242807   3.766   4.398   2.823
14289TIP3    H142808   3.833   4.412   2.889
14289TIP3    H242809   3.802   4.330   2.766
14290TIP3   OH242810   4.126   0.253   3.167
14290TIP3    H142811   4.160   0.342   3.159
14290TIP3    H242812   4.041   0.256   3.124
14291TIP3   OH242813   5.111   6.134   6.227
14291TIP3    H142814   5.133   6.099   6.313
14291TIP3    H242815   5.171   6.208   6.216
14292TIP3   OH242816   0.842   2.585   2.739
14292TIP3    H142817   0.758   2.590   2.785
14292TIP3    H242818   0.826   2.628   2.656
14293TIP3   OH242819   1.362   4.701   6.407
14293TIP3    H142820   1.421   4.630   6.433
14293TIP3    H242821   1.350   4.752   6.487
14294TIP3   OH242822   8.018   7.495   5.472
14294TIP3    H142823   7.996   7.570   5.527
14294TIP3    H242824   8.018   7.420   5.532
14295TIP3   OH242825   5.121   4.819   3.987
14295TIP3    H142826   5.104   4.725   3.980
14295TIP3    H242827   5.132   4.835   4.081
14296TIP3   OH242828   6.645   4.082   5.367
14296TIP3    H142829   6.658   3.999   5.320
14296TIP3    H242830   6.632   4.055   5.458
14297TIP3   OH242831   2.169   0.654   2.582
14297TIP3    H142832   2.143   0.709   2.656
14297TIP3    H242833   2.260   0.678   2.565
14298TIP3   OH242834   7.053   4.133   6.383
14298TIP3    H142835   7.084   4.210   6.431
14298TIP3    H242836   6.958   4.143   6.380
14299TIP3   OH242837   7.657   2.295   6.269
14299TIP3    H142838   7.660   2.331   6.180
14299TIP3    H242839   7.640   2.370   6.325
14300TIP3   OH242840   2.344   1.242   4.737
14300TIP3    H142841   2.385   1.203   4.660
14300TIP3    H242842   2.399   1.214   4.810
14301TIP3   OH242843   0.257   1.529   2.894
14301TIP3    H142844   0.266   1.564   2.805
14301TIP3    H242845   0.162   1.529   2.910
14302TIP3   OH242846   7.455   6.900   0.480
14302TIP3    H142847   7.377   6.911   0.425
14302TIP3    H242848   7.469   6.805   0.483
14303TIP3   OH242849   2.997   5.973   5.482
14303TIP3    H142850   3.066   5.983   5.416
14303TIP3    H242851   2.965   5.883   5.469
14304TIP3   OH242852   6.027   2.307   3.722
14304TIP3    H142853   5.993   2.290   3.635
14304TIP3    H242854   5.979   2.246   3.779
14305TIP3   OH242855   8.223   5.353   2.581
14305TIP3    H142856   8.247   5.392   2.498
14305TIP3    H242857   8.186   5.425   2.633
14306TIP3   OH242858   4.936   6.522   2.210
14306TIP3    H142859   4.926   6.593   2.274
14306TIP3    H242860   5.030   6.504   2.209
14307TIP3   OH242861   4.781   6.169   4.686
14307TIP3    H142862   4.786   6.264   4.692
14307TIP3    H242863   4.778   6.150   4.593
14308TIP3   OH242864   6.334   0.829   0.790
14308TIP3    H142865   6.387   0.752   0.769
14308TIP3    H242866   6.330   0.829   0.886
14309TIP3   OH242867   7.348   0.301   3.524
14309TIP3    H142868   7.276   0.304   3.588
14309TIP3    H242869   7.390   0.387   3.532
14310TIP3   OH242870   3.523   7.043   3.850
14310TIP3    H142871   3.512   6.949   3.869
14310TIP3    H242872   3.564   7.045   3.764
14311TIP3   OH242873   4.850   0.917   4.546
14311TIP3    H142874   4.879   0.925   4.455
14311TIP3    H242875   4.913   0.968   4.596
14312TIP3   OH242876   5.376   3.684   6.376
14312TIP3    H142877   5.371   3.643   6.291
14312TIP3    H242878   5.461   3.657   6.411
14313TIP3   OH242879   3.722   1.367   1.922
14313TIP3    H142880   3.738   1.453   1.961
14313TIP3    H242881   3.800   1.316   1.943
14314TIP3   OH242882   3.265   2.221   0.075
14314TIP3    H142883   3.222   2.269   0.147
14314TIP3    H242884   3.199   2.158   0.046
14315TIP3   OH242885   3.343   2.774   4.898
14315TIP3    H142886   3.248   2.776   4.909
14315TIP3    H242887   3.374   2.846   4.952
14316TIP3   OH242888   3.204   7.500   1.683
14316TIP3    H142889   3.142   7.562   1.646
14316TIP3    H242890   3.194   7.508   1.777
14317TIP3   OH242891   5.787   1.590   0.685
14317TIP3    H142892   5.855   1.551   0.630
14317TIP3    H242893   5.728   1.517   0.706
14318TIP3   OH242894   7.655   1.162   2.714
14318TIP3    H142895   7.668   1.076   2.752
14318TIP3    H242896   7.562   1.165   2.692
14319TIP3   OH242897   3.180   4.131   1.801
14319TIP3    H142898   3.093   4.172   1.806
14319TIP3    H242899   3.163   4.038   1.815
14320TIP3   OH242900   5.683   2.527   0.879
14320TIP3    H142901   5.727   2.611   0.894
14320TIP3    H242902   5.666   2.493   0.967
14321TIP3   OH242903   5.563   6.599   2.372
14321TIP3    H142904   5.541   6.507   2.357
14321TIP3    H242905   5.486   6.647   2.342
14322TIP3   OH242906   0.068   2.959   1.074
14322TIP3    H142907   0.080   3.009   0.994
14322TIP3    H242908   0.149   2.908   1.082
14323TIP3   OH242909   1.944   5.614   6.599
14323TIP3    H142910   1.937   5.682   6.666
14323TIP3    H242911   1.909   5.535   6.640
14324TIP3   OH242912   1.381   5.705   1.037
14324TIP3    H142913   1.335   5.775   0.990
14324TIP3    H242914   1.425   5.656   0.967
14325TIP3   OH242915   2.042   3.809   1.328
14325TIP3    H142916   2.002   3.894   1.347
14325TIP3    H242917   1.980   3.767   1.268
14326TIP3   OH242918   2.026   0.985   3.146
14326TIP3    H142919   2.094   0.967   3.080
14326TIP3    H242920   2.018   0.902   3.194
14327TIP3   OH242921   7.455   7.022   1.661
14327TIP3    H142922   7.484   6.933   1.642
14327TIP3    H242923   7.431   7.021   1.754
14328TIP3   OH242924   3.950   4.661   0.468
14328TIP3    H142925   3.869   4.707   0.487
14328TIP3    H242926   3.983   4.635   0.554
14329TIP3   OH242927   6.427   0.569   3.852
14329TIP3    H142928   6.508   0.522   3.831
14329TIP3    H242929   6.372   0.502   3.894
14330TIP3   OH242930   2.767   6.650   2.071
14330TIP3    H142931   2.822   6.677   2.145
14330TIP3    H242932   2.774   6.554   2.070
14331TIP3   OH242933   4.060   4.206   2.019
14331TIP3    H142934   4.154   4.220   2.016
14331TIP3    H242935   4.033   4.238   2.105
14332TIP3   OH242936   3.718   3.173   3.230
14332TIP3    H142937   3.679   3.099   3.278
14332TIP3    H242938   3.644   3.230   3.210
14333TIP3   OH242939   1.585   7.779   2.047
14333TIP3    H142940   1.614   7.769   1.956
14333TIP3    H242941   1.606   7.695   2.088
14334TIP3   OH242942   4.053   7.029   2.662
14334TIP3    H142943   4.092   6.942   2.660
14334TIP3    H242944   4.127   7.088   2.679
14335TIP3   OH242945   6.855   4.485   6.827
14335TIP3    H142946   6.793   4.542   6.873
14335TIP3    H242947   6.928   4.543   6.804
14336TIP3   OH242948   8.407   0.613   4.609
14336TIP3    H142949   8.342   0.670   4.651
14336TIP3    H242950   8.445   0.563   4.681
14337TIP3   OH242951   3.305   3.707   6.754
14337TIP3    H142952   3.380   3.704   6.696
14337TIP3    H242953   3.290   3.801   6.769
14338TIP3   OH242954   1.790   5.745   2.075
14338TIP3    H142955   1.699   5.743   2.106
14338TIP3    H242956   1.807   5.655   2.046
14339TIP3   OH242957   2.969   6.614   5.483
14339TIP3    H142958   2.904   6.644   5.420
14339TIP3    H242959   2.996   6.528   5.451
14340TIP3   OH242960   3.096   1.253   1.574
14340TIP3    H142961   3.067   1.334   1.616
14340TIP3    H242962   3.048   1.184   1.618
14341TIP3   OH242963   5.010   6.986   4.288
14341TIP3    H142964   4.954   6.910   4.275
14341TIP3    H242965   4.954   7.061   4.268
14342TIP3   OH242966   3.107   2.327   1.695
14342TIP3    H142967   3.142   2.310   1.608
14342TIP3    H242968   3.143   2.257   1.750
14343TIP3   OH242969   4.230   7.464   0.846
14343TIP3    H142970   4.264   7.539   0.894
14343TIP3    H242971   4.284   7.390   0.875
14344TIP3   OH242972   4.924   6.236   5.264
14344TIP3    H142973   4.883   6.252   5.349
14344TIP3    H242974   4.944   6.143   5.263
14345TIP3   OH242975   5.155   0.212   2.065
14345TIP3    H142976   5.242   0.253   2.061
14345TIP3    H242977   5.135   0.209   2.159
14346TIP3   OH242978   6.910   4.922   3.247
14346TIP3    H142979   7.004   4.911   3.231
14346TIP3    H242980   6.897   5.016   3.250
14347TIP3   OH242981   0.418   5.822   4.756
14347TIP3    H142982   0.411   5.866   4.671
14347TIP3    H242983   0.342   5.853   4.806
14348TIP3   OH242984   4.868   4.903   5.112
14348TIP3    H142985   4.923   4.965   5.160
14348TIP3    H242986   4.925   4.868   5.044
14349TIP3   OH242987   2.815   6.408   1.507
14349TIP3    H142988   2.904   6.430   1.535
14349TIP3    H242989   2.803   6.456   1.425
14350TIP3   OH242990   2.304   4.089   2.948
14350TIP3    H142991   2.228   4.117   2.999
14350TIP3    H242992   2.283   4.000   2.920
14351TIP3   OH242993   7.758   6.589   1.676
14351TIP3    H142994   7.846   6.620   1.654
14351TIP3    H242995   7.772   6.501   1.712
14352TIP3   OH242996   4.304   4.118   5.953
14352TIP3    H142997   4.315   4.207   5.921
14352TIP3    H242998   4.354   4.064   5.892
14353TIP3   OH242999   0.272   4.467  -0.013
14353TIP3    H143000   0.321   4.546   0.011
14353TIP3    H243001   0.267   4.417   0.068
14354TIP3   OH243002   2.681   3.787   5.124
14354TIP3    H143003   2.684   3.767   5.031
14354TIP3    H243004   2.674   3.882   5.128
14355TIP3   OH243005   0.805   7.606   3.682
14355TIP3    H143006   0.752   7.558   3.746
14355TIP3    H243007   0.804   7.697   3.713
14356TIP3   OH243008   6.823   6.751   6.766
14356TIP3    H143009   6.860   6.683   6.710
14356TIP3    H243010   6.867   6.831   6.739
14357TIP3   OH243011   2.862   4.041   2.389
14357TIP3    H143012   2.853   3.946   2.390
14357TIP3    H243013   2.901   4.061   2.305
14358TIP3   OH243014   8.071   6.850   6.193
14358TIP3    H143015   8.163   6.877   6.192
14358TIP3    H243016   8.039   6.880   6.278
14359TIP3   OH243017   2.160   2.104   0.496
14359TIP3    H143018   2.139   2.185   0.543
14359TIP3    H243019   2.098   2.040   0.531
14360TIP3   OH243020   3.195   6.293   0.705
14360TIP3    H143021   3.209   6.380   0.668
14360TIP3    H243022   3.109   6.266   0.670
14361TIP3   OH243023   5.746   3.486   5.438
14361TIP3    H143024   5.719   3.571   5.403
14361TIP3    H243025   5.717   3.423   5.373
14362TIP3   OH243026   3.871   4.056   4.911
14362TIP3    H143027   3.841   4.012   4.991
14362TIP3    H243028   3.821   4.138   4.909
14363TIP3   OH243029   6.280   6.328   6.851
14363TIP3    H143030   6.255   6.406   6.800
14363TIP3    H243031   6.197   6.285   6.871
14364TIP3   OH243032   3.739   3.377   5.061
14364TIP3    H143033   3.660   3.353   5.109
14364TIP3    H243034   3.755   3.469   5.084
14365TIP3   OH243035   3.590   0.384   3.714
14365TIP3    H143036   3.647   0.343   3.779
14365TIP3    H243037   3.518   0.421   3.765
14366TIP3   OH243038   7.944   3.756   3.144
14366TIP3    H143039   8.019   3.762   3.086
14366TIP3    H243040   7.926   3.846   3.171
14367TIP3   OH243041   1.041   3.889   4.262
14367TIP3    H143042   1.037   3.818   4.197
14367TIP3    H243043   1.037   3.969   4.210
14368TIP3   OH243044   0.567   3.852   2.705
14368TIP3    H143045   0.574   3.799   2.625
14368TIP3    H243046   0.515   3.799   2.765
14369TIP3   OH243047   2.775   4.043   1.226
14369TIP3    H143048   2.698   4.002   1.187
14369TIP3    H243049   2.767   4.026   1.320
14370TIP3   OH243050   2.023   7.009   2.129
14370TIP3    H143051   2.108   6.970   2.153
14370TIP3    H243052   2.030   7.026   2.035
14371TIP3   OH243053   2.849   3.472   4.194
14371TIP3    H143054   2.938   3.463   4.160
14371TIP3    H243055   2.852   3.430   4.280
14372TIP3   OH243056   7.914   3.522   1.062
14372TIP3    H143057   7.929   3.589   1.128
14372TIP3    H243058   7.819   3.519   1.050
14373TIP3   OH243059   2.413   6.649   1.909
14373TIP3    H143060   2.460   6.565   1.909
14373TIP3    H243061   2.331   6.630   1.955
14374TIP3   OH243062   7.712   5.577   1.985
14374TIP3    H143063   7.645   5.624   1.936
14374TIP3    H243064   7.708   5.613   2.073
14375TIP3   OH243065   4.982   3.284   5.337
14375TIP3    H143066   4.900   3.315   5.299
14375TIP3    H243067   4.961   3.265   5.428
14376TIP3   OH243068   6.937   3.497   0.336
14376TIP3    H143069   7.000   3.496   0.408
14376TIP3    H243070   6.989   3.477   0.258
14377TIP3   OH243071   8.155   5.607   3.916
14377TIP3    H143072   8.199   5.660   3.982
14377TIP3    H243073   8.126   5.670   3.850
14378TIP3   OH243074   0.081   3.823   1.367
14378TIP3    H143075   0.057   3.731   1.357
14378TIP3    H243076  -0.003   3.868   1.382
14379TIP3   OH243077   6.186   6.844   1.557
14379TIP3    H143078   6.177   6.752   1.533
14379TIP3    H243079   6.102   6.884   1.531
14380TIP3   OH243080   6.917   5.236   2.967
14380TIP3    H143081   6.868   5.316   2.989
14380TIP3    H243082   6.916   5.234   2.871
14381TIP3   OH243083   1.952   1.386   1.382
14381TIP3    H143084   1.894   1.460   1.361
14381TIP3    H243085   2.011   1.379   1.307
14382TIP3   OH243086   5.592   7.123   6.480
14382TIP3    H143087   5.585   7.076   6.563
14382TIP3    H243088   5.504   7.160   6.467
14383TIP3   OH243089   2.985   4.817   0.205
14383TIP3    H143090   2.935   4.752   0.155
14383TIP3    H243091   2.978   4.897   0.154
14384TIP3   OH243092   7.938   6.017   2.472
14384TIP3    H143093   7.953   6.110   2.457
14384TIP3    H243094   7.992   5.997   2.549
14385TIP3   OH243095   6.870   3.335   1.418
14385TIP3    H143096   6.782   3.357   1.451
14385TIP3    H243097   6.909   3.284   1.489
14386TIP3   OH243098   1.877   0.590   0.537
14386TIP3    H143099   1.926   0.673   0.535
14386TIP3    H243100   1.794   0.612   0.579
14387TIP3   OH243101   8.243   4.326   1.230
14387TIP3    H143102   8.317   4.299   1.176
14387TIP3    H243103   8.266   4.298   1.318
14388TIP3   OH243104   1.710   2.097   3.702
14388TIP3    H143105   1.800   2.115   3.730
14388TIP3    H243106   1.697   2.004   3.724
14389TIP3   OH243107   6.327   3.010   1.929
14389TIP3    H143108   6.362   2.926   1.959
14389TIP3    H243109   6.237   2.989   1.902
14390TIP3   OH243110   4.853   0.811   0.040
14390TIP3    H143111   4.942   0.789   0.014
14390TIP3    H243112   4.813   0.726   0.061
14391TIP3   OH243113   1.636   7.010   5.998
14391TIP3    H143114   1.617   6.933   6.052
14391TIP3    H243115   1.572   7.006   5.927
14392TIP3   OH243116   8.039   3.267   2.854
14392TIP3    H143117   8.080   3.279   2.940
14392TIP3    H243118   8.049   3.174   2.836
14393TIP3   OH243119   6.722   6.281   2.652
14393TIP3    H143120   6.750   6.363   2.693
14393TIP3    H243121   6.633   6.266   2.684
14394TIP3   OH243122   6.216   3.117   1.039
14394TIP3    H143123   6.256   3.033   1.059
14394TIP3    H243124   6.282   3.164   0.987
14395TIP3   OH243125   1.925   4.983   1.238
14395TIP3    H143126   1.958   4.930   1.311
14395TIP3    H243127   1.957   5.071   1.256
14396TIP3   OH243128  -0.006   0.044   3.135
14396TIP3    H143129  -0.015  -0.050   3.117
14396TIP3    H243130   0.057   0.049   3.206
14397TIP3   OH243131   6.811   0.224   6.334
14397TIP3    H143132   6.750   0.243   6.405
14397TIP3    H243133   6.840   0.310   6.303
14398TIP3   OH243134   0.857   6.229   2.934
14398TIP3    H143135   0.795   6.176   2.985
14398TIP3    H243136   0.883   6.299   2.995
14399TIP3   OH243137   3.068   4.878   3.206
14399TIP3    H143138   3.018   4.914   3.279
14399TIP3    H243139   3.067   4.784   3.220
14400TIP3   OH243140   6.969   3.178   2.349
14400TIP3    H143141   6.959   3.136   2.434
14400TIP3    H243142   6.881   3.184   2.314
14401TIP3   OH243143   2.179   7.278   4.779
14401TIP3    H143144   2.261   7.232   4.799
14401TIP3    H243145   2.112   7.229   4.826
14402TIP3   OH243146   5.458   4.700   2.460
14402TIP3    H143147   5.366   4.724   2.469
14402TIP3    H243148   5.501   4.779   2.428
14403TIP3   OH243149   6.958   0.627   1.656
14403TIP3    H143150   7.017   0.562   1.618
14403TIP3    H243151   6.986   0.710   1.617
14404TIP3   OH243152   7.552   2.765   2.176
14404TIP3    H143153   7.573   2.837   2.118
14404TIP3    H243154   7.462   2.741   2.153
14405TIP3   OH243155   5.969   0.467   6.342
14405TIP3    H143156   6.013   0.435   6.421
14405TIP3    H243157   5.932   0.388   6.302
14406TIP3   OH243158   7.974   2.567   4.664
14406TIP3    H143159   7.939   2.651   4.634
14406TIP3    H243160   7.920   2.501   4.620
14407TIP3   OH243161   7.058   5.476   1.431
14407TIP3    H143162   7.051   5.381   1.422
14407TIP3    H243163   7.038   5.493   1.523
14408TIP3   OH243164   2.733   0.237   2.241
14408TIP3    H143165   2.646   0.247   2.282
14408TIP3    H243166   2.726   0.286   2.159
14409TIP3   OH243167   6.889   0.663   1.162
14409TIP3    H143168   6.911   0.570   1.168
14409TIP3    H243169   6.795   0.667   1.175
14410TIP3   OH243170   3.693   4.240   2.087
14410TIP3    H143171   3.756   4.168   2.087
14410TIP3    H243172   3.690   4.270   1.997
14411TIP3   OH243173   6.495   3.158   1.282
14411TIP3    H143174   6.510   3.216   1.208
14411TIP3    H243175   6.463   3.077   1.244
14412TIP3   OH243176   1.158   3.506   4.380
14412TIP3    H143177   1.173   3.463   4.464
14412TIP3    H243178   1.192   3.595   4.391
14413TIP3   OH243179   5.503   2.131   5.913
14413TIP3    H143180   5.573   2.083   5.868
14413TIP3    H243181   5.422   2.090   5.881
14414TIP3   OH243182   5.635   4.490   5.145
14414TIP3    H143183   5.711   4.440   5.174
14414TIP3    H243184   5.585   4.429   5.091
14415TIP3   OH243185   1.241   7.177   1.361
14415TIP3    H143186   1.290   7.234   1.420
14415TIP3    H243187   1.302   7.106   1.340
14416TIP3   OH243188   6.878   6.451   1.306
14416TIP3    H143189   6.921   6.454   1.391
14416TIP3    H243190   6.944   6.483   1.245
14417TIP3   OH243191   0.899   0.414   0.035
14417TIP3    H143192   0.805   0.413   0.017
14417TIP3    H243193   0.918   0.504   0.062
14418TIP3   OH243194   7.521   4.314   5.380
14418TIP3    H143195   7.602   4.339   5.426
14418TIP3    H243196   7.470   4.267   5.446
14419TIP3   OH243197   7.735   5.343   4.978
14419TIP3    H143198   7.644   5.319   4.960
14419TIP3    H243199   7.749   5.423   4.928
14420TIP3   OH243200   0.563   0.426   5.730
14420TIP3    H143201   0.583   0.504   5.680
14420TIP3    H243202   0.648   0.389   5.753
14421TIP3   OH243203   3.990   3.678   6.258
14421TIP3    H143204   4.006   3.751   6.318
14421TIP3    H243205   4.002   3.600   6.313
14422TIP3   OH243206   5.470   5.424   2.857
14422TIP3    H143207   5.504   5.511   2.837
14422TIP3    H243208   5.498   5.370   2.783
14423TIP3   OH243209   1.140   4.097   2.703
14423TIP3    H143210   1.183   4.054   2.629
14423TIP3    H243211   1.132   4.028   2.769
14424TIP3   OH243212   4.126   6.287   2.179
14424TIP3    H143213   4.160   6.260   2.094
14424TIP3    H243214   4.119   6.206   2.229
14425TIP3   OH243215   6.044   3.761   5.343
14425TIP3    H143216   6.087   3.786   5.261
14425TIP3    H243217   6.095   3.806   5.411
14426TIP3   OH243218   6.935   4.691   0.962
14426TIP3    H143219   7.001   4.733   0.907
14426TIP3    H243220   6.966   4.602   0.973
14427TIP3   OH243221   2.205   1.423   1.947
14427TIP3    H143222   2.261   1.377   2.008
14427TIP3    H243223   2.231   1.391   1.860
14428TIP3   OH243224   0.266   0.692   6.745
14428TIP3    H143225   0.337   0.695   6.809
14428TIP3    H243226   0.287   0.762   6.682
14429TIP3   OH243227   4.113   3.452   3.637
14429TIP3    H143228   4.121   3.470   3.543
14429TIP3    H243229   4.048   3.515   3.668
14430TIP3   OH243230   2.842   1.775   4.409
14430TIP3    H143231   2.932   1.756   4.384
14430TIP3    H243232   2.835   1.871   4.403
14431TIP3   OH243233   7.915   6.612   1.955
14431TIP3    H143234   7.838   6.556   1.952
14431TIP3    H243235   7.953   6.606   1.868
14432TIP3   OH243236   3.696   5.178   3.273
14432TIP3    H143237   3.660   5.091   3.255
14432TIP3    H243238   3.767   5.188   3.210
14433TIP3   OH243239   0.995   2.344   2.678
14433TIP3    H143240   0.970   2.302   2.595
14433TIP3    H243241   0.932   2.416   2.688
14434TIP3   OH243242   6.197   3.935   4.771
14434TIP3    H143243   6.232   3.848   4.752
14434TIP3    H243244   6.274   3.992   4.771
14435TIP3   OH243245   5.307   6.277   2.920
14435TIP3    H143246   5.269   6.348   2.868
14435TIP3    H243247   5.250   6.202   2.904
14436TIP3   OH243248   7.596   6.284   2.324
14436TIP3    H143249   7.679   6.238   2.337
14436TIP3    H243250   7.557   6.287   2.412
14437TIP3   OH243251   5.493   1.695   0.079
14437TIP3    H143252   5.567   1.690   0.141
14437TIP3    H243253   5.501   1.782   0.040
14438TIP3   OH243254   7.602   6.249   3.632
14438TIP3    H143255   7.651   6.330   3.619
14438TIP3    H243256   7.608   6.204   3.548
14439TIP3   OH243257   2.217   0.477   5.772
14439TIP3    H143258   2.216   0.499   5.865
14439TIP3    H243259   2.296   0.519   5.738
14440TIP3   OH243260   5.620   7.316   2.709
14440TIP3    H143261   5.671   7.393   2.684
14440TIP3    H243262   5.561   7.301   2.635
14441TIP3   OH243263   5.579   2.603   2.596
14441TIP3    H143264   5.524   2.681   2.584
14441TIP3    H243265   5.668   2.635   2.586
14442TIP3   OH243266   4.842   5.503   1.664
14442TIP3    H143267   4.847   5.588   1.708
14442TIP3    H243268   4.860   5.522   1.572
14443TIP3   OH243269   2.576   7.490   1.867
14443TIP3    H143270   2.667   7.485   1.838
14443TIP3    H243271   2.563   7.410   1.918
14444TIP3   OH243272   7.305   5.825   4.263
14444TIP3    H143273   7.214   5.847   4.241
14444TIP3    H243274   7.334   5.769   4.191
14445TIP3   OH243275   2.567   6.879   1.641
14445TIP3    H143276   2.577   6.820   1.567
14445TIP3    H243277   2.622   6.841   1.710
14446TIP3   OH243278   7.231   6.398   4.579
14446TIP3    H143279   7.249   6.309   4.608
14446TIP3    H243280   7.274   6.405   4.494
14447TIP3   OH243281   2.593   7.296   4.415
14447TIP3    H143282   2.600   7.304   4.320
14447TIP3    H243283   2.644   7.370   4.448
14448TIP3   OH243284   4.635   4.960   3.416
14448TIP3    H143285   4.672   5.043   3.446
14448TIP3    H243286   4.640   4.964   3.321
14449TIP3   OH243287   1.026   0.623   0.163
14449TIP3    H143288   1.067   0.634   0.249
14449TIP3    H243289   1.098   0.605   0.104
14450TIP3   OH243290   4.053   1.415   2.436
14450TIP3    H143291   4.065   1.437   2.344
14450TIP3    H243292   3.958   1.411   2.447
14451TIP3   OH243293   5.765   3.279   2.442
14451TIP3    H143294   5.750   3.319   2.356
14451TIP3    H243295   5.710   3.331   2.501
14452TIP3   OH243296   1.016   5.085   0.904
14452TIP3    H143297   0.963   5.144   0.957
14452TIP3    H243298   1.090   5.062   0.960
14453TIP3   OH243299   7.552   0.244   0.819
14453TIP3    H143300   7.587   0.182   0.755
14453TIP3    H243301   7.476   0.283   0.776
14454TIP3   OH243302   7.512   3.811   3.134
14454TIP3    H143303   7.567   3.772   3.066
14454TIP3    H243304   7.422   3.799   3.103
14455TIP3   OH243305   3.728   1.979   5.455
14455TIP3    H143306   3.701   1.894   5.490
14455TIP3    H243307   3.651   2.013   5.410
14456TIP3   OH243308   0.840   6.891   4.805
14456TIP3    H143309   0.829   6.966   4.863
14456TIP3    H243310   0.930   6.901   4.772
14457TIP3   OH243311   1.583   4.637   4.982
14457TIP3    H143312   1.525   4.570   5.018
14457TIP3    H243313   1.613   4.686   5.058
14458TIP3   OH243314   2.650   1.491   1.673
14458TIP3    H143315   2.656   1.397   1.653
14458TIP3    H243316   2.741   1.517   1.690
14459TIP3   OH243317   4.533   6.011   1.695
14459TIP3    H143318   4.605   5.987   1.754
14459TIP3    H243319   4.522   6.105   1.707
14460TIP3   OH243320   0.512   1.514   2.422
14460TIP3    H143321   0.453   1.584   2.449
14460TIP3    H243322   0.504   1.448   2.491
14461TIP3   OH243323   0.545   3.740   2.449
14461TIP3    H143324   0.583   3.772   2.368
14461TIP3    H243325   0.451   3.756   2.439
14462TIP3   OH243326   7.942   1.401   4.202
14462TIP3    H143327   7.984   1.379   4.285
14462TIP3    H243328   7.929   1.317   4.158
14463TIP3   OH243329   5.823   3.669   2.081
14463TIP3    H143330   5.910   3.707   2.076
14463TIP3    H243331   5.817   3.632   2.169
14464TIP3   OH243332   4.029   4.993   0.491
14464TIP3    H143333   3.933   4.985   0.492
14464TIP3    H243334   4.051   5.004   0.398
14465TIP3   OH243335   5.912   0.856   1.520
14465TIP3    H143336   5.911   0.871   1.426
14465TIP3    H243337   5.833   0.805   1.538
14466TIP3   OH243338   0.825   2.252   2.494
14466TIP3    H143339   0.761   2.244   2.565
14466TIP3    H243340   0.813   2.172   2.442
14467TIP3   OH243341   3.427   4.144   3.524
14467TIP3    H143342   3.488   4.088   3.476
14467TIP3    H243343   3.348   4.091   3.533
14468TIP3   OH243344   5.141   1.549   1.007
14468TIP3    H143345   5.226   1.577   1.042
14468TIP3    H243346   5.106   1.626   0.963
14469TIP3   OH243347   2.920   4.661   0.420
14469TIP3    H143348   2.986   4.595   0.398
14469TIP3    H243349   2.938   4.734   0.360
14470TIP3   OH243350   3.762   1.714   0.845
14470TIP3    H143351   3.772   1.767   0.924
14470TIP3    H243352   3.822   1.641   0.857
14471TIP3   OH243353   1.607   4.620   1.644
14471TIP3    H143354   1.528   4.641   1.593
14471TIP3    H243355   1.576   4.562   1.713
14472TIP3   OH243356   7.307   2.287   6.199
14472TIP3    H143357   7.220   2.293   6.238
14472TIP3    H243358   7.312   2.197   6.165
14473TIP3   OH243359   6.475   2.686   5.022
14473TIP3    H143360   6.432   2.721   4.944
14473TIP3    H243361   6.555   2.645   4.988
14474TIP3   OH243362   1.295   0.112   5.376
14474TIP3    H143363   1.345   0.190   5.401
14474TIP3    H243364   1.307   0.105   5.281
14475TIP3   OH243365   4.292   5.826   2.160
14475TIP3    H143366   4.253   5.908   2.189
14475TIP3    H243367   4.271   5.764   2.230
14476TIP3   OH243368   0.569   4.759   0.346
14476TIP3    H143369   0.629   4.792   0.278
14476TIP3    H243370   0.585   4.665   0.349
14477TIP3   OH243371   1.383   5.489   3.692
14477TIP3    H143372   1.380   5.417   3.629
14477TIP3    H243373   1.461   5.539   3.667
14478TIP3   OH243374   1.727   2.376   2.963
14478TIP3    H143375   1.700   2.306   3.022
14478TIP3    H243376   1.674   2.451   2.990
14479TIP3   OH243377   2.053   3.005   2.294
14479TIP3    H143378   2.124   2.944   2.313
14479TIP3    H243379   1.973   2.954   2.305
14480TIP3   OH243380   6.116   1.642   6.405
14480TIP3    H143381   6.177   1.630   6.478
14480TIP3    H243382   6.133   1.567   6.347
14481TIP3   OH243383   2.499   4.792   2.672
14481TIP3    H143384   2.493   4.696   2.671
14481TIP3    H243385   2.450   4.817   2.751
14482TIP3   OH243386   5.037   3.732   4.540
14482TIP3    H143387   5.123   3.693   4.522
14482TIP3    H243388   5.000   3.678   4.609
14483TIP3   OH243389   1.341   3.754   5.864
14483TIP3    H143390   1.358   3.805   5.943
14483TIP3    H243391   1.270   3.694   5.889
14484TIP3   OH243392   5.569   0.432   0.709
14484TIP3    H143393   5.610   0.517   0.692
14484TIP3    H243394   5.484   0.454   0.748
14485TIP3   OH243395   7.436   3.783   2.714
14485TIP3    H143396   7.461   3.872   2.739
14485TIP3    H243397   7.498   3.759   2.646
14486TIP3   OH243398   6.067   5.802   2.209
14486TIP3    H143399   6.156   5.802   2.173
14486TIP3    H243400   6.079   5.784   2.302
14487TIP3   OH243401   4.890   3.720   0.390
14487TIP3    H143402   4.944   3.645   0.415
14487TIP3    H243403   4.843   3.690   0.312
14488TIP3   OH243404   7.138   0.400   0.291
14488TIP3    H143405   7.162   0.357   0.209
14488TIP3    H243406   7.205   0.372   0.354
14489TIP3   OH243407   4.294   7.902   0.243
14489TIP3    H143408   4.213   7.876   0.287
14489TIP3    H243409   4.359   7.906   0.313
14490TIP3   OH243410   4.168   4.761   5.217
14490TIP3    H143411   4.100   4.821   5.186
14490TIP3    H243412   4.216   4.811   5.283
14491TIP3   OH243413   5.862   1.424   0.945
14491TIP3    H143414   5.855   1.406   0.851
14491TIP3    H243415   5.896   1.344   0.983
14492TIP3   OH243416   2.931   5.086   0.376
14492TIP3    H143417   2.951   5.116   0.288
14492TIP3    H243418   3.010   5.104   0.426
14493TIP3   OH243419   5.213   1.658   2.270
14493TIP3    H143420   5.291   1.610   2.241
14493TIP3    H243421   5.243   1.748   2.282
14494TIP3   OH243422   5.732   5.899   4.697
14494TIP3    H143423   5.780   5.982   4.690
14494TIP3    H243424   5.756   5.851   4.618
14495TIP3   OH243425   6.220   4.677   0.164
14495TIP3    H143426   6.262   4.763   0.159
14495TIP3    H243427   6.216   4.657   0.257
14496TIP3   OH243428   2.464   0.791   5.945
14496TIP3    H143429   2.411   0.865   5.915
14496TIP3    H243430   2.538   0.789   5.886
14497TIP3   OH243431   6.974   2.231   1.100
14497TIP3    H143432   7.020   2.158   1.058
14497TIP3    H243433   6.888   2.234   1.057
14498TIP3   OH243434   0.407   1.953   5.560
14498TIP3    H143435   0.499   1.933   5.542
14498TIP3    H243436   0.405   1.971   5.654
14499TIP3   OH243437   8.375   2.691   1.206
14499TIP3    H143438   8.456   2.658   1.167
14499TIP3    H243439   8.323   2.613   1.225
14500TIP3   OH243440   6.707   4.873   6.748
14500TIP3    H143441   6.649   4.888   6.674
14500TIP3    H243442   6.748   4.788   6.730
14501TIP3   OH243443   1.300   6.263   3.184
14501TIP3    H143444   1.298   6.356   3.161
14501TIP3    H243445   1.368   6.257   3.252
14502TIP3   OH243446   3.577   6.971   3.564
14502TIP3    H143447   3.494   6.972   3.515
14502TIP3    H243448   3.618   6.888   3.542
14503TIP3   OH243449   4.308   3.354   5.885
14503TIP3    H143450   4.323   3.266   5.851
14503TIP3    H243451   4.236   3.389   5.833
14504TIP3   OH243452   0.223   4.214   3.541
14504TIP3    H143453   0.235   4.227   3.635
14504TIP3    H243454   0.129   4.200   3.530
14505TIP3   OH243455   7.758   6.841   1.862
14505TIP3    H143456   7.687   6.779   1.845
14505TIP3    H243457   7.810   6.799   1.931
14506TIP3   OH243458   5.183   2.646   5.438
14506TIP3    H143459   5.189   2.713   5.369
14506TIP3    H243460   5.273   2.616   5.451
14507TIP3   OH243461   2.200   7.056   0.328
14507TIP3    H143462   2.154   7.135   0.302
14507TIP3    H243463   2.213   7.008   0.247
14508TIP3   OH243464   8.251   5.872   3.578
14508TIP3    H143465   8.334   5.832   3.604
14508TIP3    H243466   8.234   5.835   3.491
14509TIP3   OH243467   3.938   4.436   2.376
14509TIP3    H143468   3.907   4.475   2.457
14509TIP3    H243469   4.022   4.395   2.399
14510TIP3   OH243470   6.036   4.747   5.446
14510TIP3    H143471   6.078   4.661   5.444
14510TIP3    H243472   6.090   4.798   5.507
14511TIP3   OH243473   1.621   6.604   5.181
14511TIP3    H143474   1.656   6.586   5.094
14511TIP3    H243475   1.695   6.595   5.240
14512TIP3   OH243476   0.652   5.665   0.375
14512TIP3    H143477   0.620   5.683   0.464
14512TIP3    H243478   0.746   5.649   0.386
14513TIP3   OH243479   0.043   2.248   3.321
14513TIP3    H143480  -0.020   2.191   3.366
14513TIP3    H243481   0.125   2.235   3.369
14514TIP3   OH243482   7.128   5.496   4.832
14514TIP3    H143483   7.215   5.526   4.860
14514TIP3    H243484   7.082   5.576   4.806
14515TIP3   OH243485   1.524   3.171   0.694
14515TIP3    H143486   1.517   3.092   0.749
14515TIP3    H243487   1.480   3.239   0.745
14516TIP3   OH243488   2.637   1.751   0.095
14516TIP3    H143489   2.590   1.706   0.165
14516TIP3    H243490   2.570   1.802   0.050
14517TIP3   OH243491   5.624   7.593   5.415
14517TIP3    H143492   5.695   7.530   5.406
14517TIP3    H243493   5.633   7.626   5.504
14518TIP3   OH243494   5.156   0.982   6.719
14518TIP3    H143495   5.208   0.902   6.706
14518TIP3    H243496   5.184   1.014   6.805
14519TIP3   OH243497   8.010   3.703   1.242
14519TIP3    H143498   8.051   3.759   1.308
14519TIP3    H243499   7.974   3.764   1.178
14520TIP3   OH243500   6.006   5.929   4.493
14520TIP3    H143501   5.992   5.884   4.410
14520TIP3    H243502   6.089   5.894   4.525
14521TIP3   OH243503   3.303   2.556   0.580
14521TIP3    H143504   3.275   2.470   0.611
14521TIP3    H243505   3.399   2.552   0.583
14522TIP3   OH243506   2.101   5.003   5.250
14522TIP3    H143507   2.142   4.975   5.168
14522TIP3    H243508   2.130   5.093   5.262
14523TIP3   OH243509   1.352   5.499   5.894
14523TIP3    H143510   1.262   5.481   5.923
14523TIP3    H243511   1.342   5.533   5.805
14524TIP3   OH243512   2.382   1.078   3.674
14524TIP3    H143513   2.468   1.046   3.648
14524TIP3    H243514   2.321   1.023   3.625
14525TIP3   OH243515   2.970   0.584   5.198
14525TIP3    H143516   3.023   0.508   5.222
14525TIP3    H243517   2.974   0.642   5.274
14526TIP3   OH243518   0.724   4.956   4.065
14526TIP3    H143519   0.769   5.035   4.096
14526TIP3    H243520   0.727   4.896   4.138
14527TIP3   OH243521   0.913   5.320   6.304
14527TIP3    H143522   0.998   5.361   6.289
14527TIP3    H243523   0.923   5.231   6.269
14528TIP3   OH243524   8.251   5.517   5.070
14528TIP3    H143525   8.229   5.595   5.120
14528TIP3    H243526   8.179   5.456   5.086
14529TIP3   OH243527   4.990   3.497   0.485
14529TIP3    H143528   4.938   3.518   0.562
14529TIP3    H243529   5.025   3.410   0.503
14530TIP3   OH243530   2.148   0.090   4.251
14530TIP3    H143531   2.170   0.183   4.237
14530TIP3    H243532   2.197   0.066   4.329
14531TIP3   OH243533   1.536   0.005   3.162
14531TIP3    H143534   1.625   0.040   3.176
14531TIP3    H243535   1.478   0.075   3.192
14532TIP3   OH243536   2.471   4.340   4.925
14532TIP3    H143537   2.489   4.251   4.953
14532TIP3    H243538   2.398   4.368   4.980
14533TIP3   OH243539   6.720   0.974   3.818
14533TIP3    H143540   6.735   1.065   3.795
14533TIP3    H243541   6.704   0.931   3.734
14534TIP3   OH243542   6.746   6.004   5.014
14534TIP3    H143543   6.658   6.021   5.047
14534TIP3    H243544   6.737   6.009   4.919
14535TIP3   OH243545   1.654   0.992   2.246
14535TIP3    H143546   1.698   1.076   2.262
14535TIP3    H243547   1.598   1.008   2.170
14536TIP3   OH243548   4.238   4.576   2.575
14536TIP3    H143549   4.199   4.614   2.495
14536TIP3    H243550   4.331   4.596   2.568
14537TIP3   OH243551   0.511   6.165   6.798
14537TIP3    H143552   0.424   6.190   6.767
14537TIP3    H243553   0.569   6.234   6.767
14538TIP3   OH243554   3.403   2.186   5.973
14538TIP3    H143555   3.472   2.119   5.967
14538TIP3    H243556   3.444   2.259   6.018
14539TIP3   OH243557   4.020   5.343   0.907
14539TIP3    H143558   3.963   5.405   0.952
14539TIP3    H243559   4.050   5.284   0.976
14540TIP3   OH243560   7.990   7.003   0.542
14540TIP3    H143561   7.916   7.058   0.514
14540TIP3    H243562   8.033   7.055   0.611
14541TIP3   OH243563   0.727   3.899   4.619
14541TIP3    H143564   0.807   3.852   4.597
14541TIP3    H243565   0.676   3.900   4.537
14542TIP3   OH243566   0.830   6.202   3.325
14542TIP3    H143567   0.899   6.161   3.273
14542TIP3    H243568   0.828   6.150   3.406
14543TIP3   OH243569   2.260   3.332   1.785
14543TIP3    H143570   2.288   3.399   1.848
14543TIP3    H243571   2.296   3.361   1.702
14544TIP3   OH243572   4.324   2.504   1.022
14544TIP3    H143573   4.363   2.465   1.100
14544TIP3    H243574   4.353   2.595   1.024
14545TIP3   OH243575   7.151   4.148   2.270
14545TIP3    H143576   7.233   4.099   2.278
14545TIP3    H243577   7.175   4.228   2.223
14546TIP3   OH243578   1.205   5.563   5.001
14546TIP3    H143579   1.241   5.532   4.918
14546TIP3    H243580   1.282   5.593   5.051
14547TIP3   OH243581   4.567   6.814   2.549
14547TIP3    H143582   4.499   6.783   2.609
14547TIP3    H243583   4.560   6.757   2.473
14548TIP3   OH243584   7.268   2.238   0.591
14548TIP3    H143585   7.312   2.165   0.547
14548TIP3    H243586   7.330   2.311   0.586
14549TIP3   OH243587   1.620   7.338   4.492
14549TIP3    H143588   1.689   7.319   4.555
14549TIP3    H243589   1.654   7.304   4.409
14550TIP3   OH243590   2.953   7.347   3.007
14550TIP3    H143591   3.006   7.284   3.056
14550TIP3    H243592   2.911   7.295   2.939
14551TIP3   OH243593   3.324   4.811   6.193
14551TIP3    H143594   3.236   4.784   6.167
14551TIP3    H243595   3.370   4.825   6.110
14552TIP3   OH243596   7.786   6.921   1.200
14552TIP3    H143597   7.700   6.960   1.186
14552TIP3    H243598   7.768   6.843   1.252
14553TIP3   OH243599   8.069   0.455   0.220
14553TIP3    H143600   8.142   0.397   0.198
14553TIP3    H243601   8.074   0.525   0.154
14554TIP3   OH243602   5.617   1.319   3.504
14554TIP3    H143603   5.624   1.276   3.419
14554TIP3    H243604   5.708   1.331   3.533
14555TIP3   OH243605   0.103   7.608   3.310
14555TIP3    H143606   0.146   7.527   3.335
14555TIP3    H243607   0.130   7.623   3.219
14556TIP3   OH243608   6.947   5.016   6.585
14556TIP3    H143609   6.973   5.000   6.676
14556TIP3    H243610   7.025   4.995   6.534
14557TIP3   OH243611   5.294   5.780   0.480
14557TIP3    H143612   5.337   5.865   0.478
14557TIP3    H243613   5.337   5.733   0.552
14558TIP3   OH243614   1.609   0.165   5.126
14558TIP3    H143615   1.519   0.193   5.107
14558TIP3    H243616   1.648   0.239   5.172
14559TIP3   OH243617   3.854   5.876   0.081
14559TIP3    H143618   3.863   5.796   0.133
14559TIP3    H243619   3.780   5.922   0.121
14560TIP3   OH243620   6.950   7.739   3.967
14560TIP3    H143621   6.919   7.765   3.880
14560TIP3    H243622   6.896   7.663   3.989
14561TIP3   OH243623   5.181   7.500   1.680
14561TIP3    H143624   5.096   7.481   1.642
14561TIP3    H243625   5.182   7.595   1.690
14562TIP3   OH243626   3.321   2.461   5.307
14562TIP3    H143627   3.269   2.436   5.229
14562TIP3    H243628   3.324   2.380   5.359
14563TIP3   OH243629   6.676   5.644   2.570
14563TIP3    H143630   6.753   5.693   2.539
14563TIP3    H243631   6.699   5.552   2.557
14564TIP3   OH243632   5.228   7.049   0.496
14564TIP3    H143633   5.306   7.098   0.470
14564TIP3    H243634   5.235   6.966   0.448
14565TIP3   OH243635   1.008   4.598   3.161
14565TIP3    H143636   1.000   4.619   3.254
14565TIP3    H243637   1.058   4.516   3.159
14566TIP3   OH243638   2.330   7.566   3.735
14566TIP3    H143639   2.413   7.600   3.768
14566TIP3    H243640   2.263   7.608   3.789
14567TIP3   OH243641   7.593   6.332   4.499
14567TIP3    H143642   7.635   6.268   4.442
14567TIP3    H243643   7.612   6.417   4.459
14568TIP3   OH243644   4.611   6.344   6.565
14568TIP3    H143645   4.678   6.393   6.518
14568TIP3    H243646   4.530   6.363   6.519
14569TIP3   OH243647   2.385   6.835   2.989
14569TIP3    H143648   2.425   6.760   2.947
14569TIP3    H243649   2.429   6.842   3.074
14570TIP3   OH243650   3.371   0.430   6.410
14570TIP3    H143651   3.280   0.424   6.440
14570TIP3    H243652   3.374   0.375   6.331
14571TIP3   OH243653   7.136   6.008   5.190
14571TIP3    H143654   7.042   6.006   5.206
14571TIP3    H243655   7.171   6.069   5.255
14572TIP3   OH243656   0.948   0.637   1.659
14572TIP3    H143657   1.002   0.628   1.737
14572TIP3    H243658   0.858   0.632   1.691
14573TIP3   OH243659   1.880   4.952   4.599
14573TIP3    H143660   1.824   4.882   4.565
14573TIP3    H243661   1.838   5.033   4.570
14574TIP3   OH243662   7.515   6.130   3.368
14574TIP3    H143663   7.514   6.060   3.433
14574TIP3    H243664   7.425   6.162   3.365
14575TIP3   OH243665   3.616   7.327   1.491
14575TIP3    H143666   3.537   7.273   1.502
14575TIP3    H243667   3.589   7.413   1.522
14576TIP3   OH243668   6.886   4.172   6.073
14576TIP3    H143669   6.961   4.125   6.111
14576TIP3    H243670   6.883   4.142   5.982
14577TIP3   OH243671   2.823   3.295   4.446
14577TIP3    H143672   2.788   3.271   4.531
14577TIP3    H243673   2.908   3.253   4.442
14578TIP3   OH243674   3.282   2.635   3.234
14578TIP3    H143675   3.237   2.660   3.314
14578TIP3    H243676   3.340   2.709   3.214
14579TIP3   OH243677   7.454   5.123   5.965
14579TIP3    H143678   7.489   5.039   5.995
14579TIP3    H243679   7.531   5.173   5.939
14580TIP3   OH243680   0.240   2.194   4.244
14580TIP3    H143681   0.248   2.280   4.284
14580TIP3    H243682   0.148   2.170   4.258
14581TIP3   OH243683   2.249   3.096   3.947
14581TIP3    H143684   2.296   3.079   3.865
14581TIP3    H243685   2.225   3.009   3.979
14582TIP3   OH243686   1.485   0.180   4.138
14582TIP3    H143687   1.455   0.163   4.227
14582TIP3    H243688   1.478   0.275   4.128
14583TIP3   OH243689   0.162   6.011   0.215
14583TIP3    H143690   0.130   6.022   0.304
14583TIP3    H243691   0.185   6.100   0.187
14584TIP3   OH243692   6.593   3.198   2.454
14584TIP3    H143693   6.508   3.223   2.416
14584TIP3    H243694   6.634   3.145   2.386
14585TIP3   OH243695   1.272   2.319   4.483
14585TIP3    H143696   1.278   2.294   4.390
14585TIP3    H243697   1.216   2.251   4.522
14586TIP3   OH243698   3.223   6.025   3.574
14586TIP3    H143699   3.275   6.024   3.653
14586TIP3    H243700   3.262   6.094   3.520
14587TIP3   OH243701   2.163   6.730   3.881
14587TIP3    H143702   2.243   6.740   3.830
14587TIP3    H243703   2.170   6.643   3.921
14588TIP3   OH243704   7.558   5.453   2.558
14588TIP3    H143705   7.515   5.473   2.641
14588TIP3    H243706   7.594   5.365   2.569
14589TIP3   OH243707   4.177   2.886   4.322
14589TIP3    H143708   4.257   2.852   4.281
14589TIP3    H243709   4.122   2.912   4.248
14590TIP3   OH243710   2.577   3.435   0.142
14590TIP3    H143711   2.508   3.461   0.080
14590TIP3    H243712   2.537   3.366   0.195
14591TIP3   OH243713   4.986   6.986   3.179
14591TIP3    H143714   4.945   6.923   3.120
14591TIP3    H243715   5.004   6.936   3.258
14592TIP3   OH243716   5.036   1.069   4.702
14592TIP3    H143717   5.128   1.051   4.723
14592TIP3    H243718   5.015   1.146   4.755
14593TIP3   OH243719   6.197   3.507   4.758
14593TIP3    H143720   6.151   3.428   4.785
14593TIP3    H243721   6.135   3.578   4.775
14594TIP3   OH243722   5.995   0.120   0.145
14594TIP3    H143723   6.011   0.077   0.229
14594TIP3    H243724   5.901   0.108   0.129
14595TIP3   OH243725   1.837   2.430   6.546
14595TIP3    H143726   1.806   2.512   6.508
14595TIP3    H243727   1.795   2.362   6.492
14596TIP3   OH243728   3.776   1.571   3.121
14596TIP3    H143729   3.757   1.486   3.081
14596TIP3    H243730   3.825   1.551   3.200
14597TIP3   OH243731   4.617   4.886   5.235
14597TIP3    H143732   4.707   4.884   5.202
14597TIP3    H243733   4.615   4.818   5.302
14598TIP3   OH243734   5.575   2.609   5.333
14598TIP3    H143735   5.660   2.653   5.325
14598TIP3    H243736   5.558   2.606   5.427
14599TIP3   OH243737   7.761   1.559   1.554
14599TIP3    H143738   7.722   1.596   1.475
14599TIP3    H243739   7.781   1.468   1.531
14600TIP3   OH243740   4.240   3.371   1.918
14600TIP3    H143741   4.147   3.354   1.909
14600TIP3    H243742   4.255   3.378   2.012
14601TIP3   OH243743   4.604   0.495   0.609
14601TIP3    H143744   4.632   0.447   0.532
14601TIP3    H243745   4.664   0.569   0.615
14602TIP3   OH243746   1.345   6.052   3.021
14602TIP3    H143747   1.290   6.061   2.944
14602TIP3    H243748   1.322   6.126   3.076
14603TIP3   OH243749   2.398   0.094   0.815
14603TIP3    H143750   2.349   0.171   0.785
14603TIP3    H243751   2.333   0.040   0.859
14604TIP3   OH243752   4.958   1.529   1.241
14604TIP3    H143753   4.951   1.464   1.170
14604TIP3    H243754   5.053   1.537   1.256
14605TIP3   OH243755   2.139   5.292   3.118
14605TIP3    H143756   2.077   5.300   3.046
14605TIP3    H243757   2.116   5.363   3.178
14606TIP3   OH243758   4.134   3.599   2.719
14606TIP3    H143759   4.090   3.525   2.763
14606TIP3    H243760   4.106   3.676   2.769
14607TIP3   OH243761   4.634   1.092   2.017
14607TIP3    H143762   4.557   1.148   2.015
14607TIP3    H243763   4.615   1.023   1.952
14608TIP3   OH243764   8.167   2.356   4.029
14608TIP3    H143765   8.083   2.322   3.999
14608TIP3    H243766   8.149   2.393   4.115
14609TIP3   OH243767   7.386   1.497   2.288
14609TIP3    H143768   7.403   1.536   2.373
14609TIP3    H243769   7.453   1.428   2.280
14610TIP3   OH243770   4.867   7.716   4.769
14610TIP3    H143771   4.900   7.678   4.687
14610TIP3    H243772   4.868   7.810   4.754
14611TIP3   OH243773   2.124   5.321   3.540
14611TIP3    H143774   2.140   5.227   3.538
14611TIP3    H243775   2.061   5.333   3.611
14612TIP3   OH243776   2.155   7.737   4.749
14612TIP3    H143777   2.076   7.726   4.802
14612TIP3    H243778   2.159   7.831   4.731
14613TIP3   OH243779   8.058   3.450   0.496
14613TIP3    H143780   8.080   3.396   0.572
14613TIP3    H243781   8.038   3.387   0.427
14614TIP3   OH243782   3.205   4.128   2.346
14614TIP3    H143783   3.232   4.083   2.426
14614TIP3    H243784   3.266   4.096   2.279
14615TIP3   OH243785   4.535   3.596   5.752
14615TIP3    H143786   4.631   3.602   5.746
14615TIP3    H243787   4.508   3.680   5.789
14616TIP3   OH243788   7.336   4.611   0.040
14616TIP3    H143789   7.356   4.699   0.071
14616TIP3    H243790   7.393   4.599  -0.037
14617TIP3   OH243791   6.715   2.776   3.013
14617TIP3    H143792   6.684   2.761   2.924
14617TIP3    H243793   6.785   2.841   3.004
14618TIP3   OH243794   1.852   4.171   4.024
14618TIP3    H143795   1.877   4.130   4.108
14618TIP3    H243796   1.800   4.104   3.980
14619TIP3   OH243797   4.551   5.917   5.134
14619TIP3    H143798   4.579   5.936   5.044
14619TIP3    H243799   4.471   5.968   5.145
14620TIP3   OH243800   0.368   7.751   0.145
14620TIP3    H143801   0.352   7.814   0.215
14620TIP3    H243802   0.459   7.766   0.120
14621TIP3   OH243803   6.200   1.529   2.206
14621TIP3    H143804   6.142   1.455   2.223
14621TIP3    H243805   6.186   1.549   2.113
14622TIP3   OH243806   3.820   0.367   0.560
14622TIP3    H143807   3.855   0.429   0.496
14622TIP3    H243808   3.744   0.411   0.598
14623TIP3   OH243809   5.518   2.346   2.518
14623TIP3    H143810   5.546   2.421   2.570
14623TIP3    H243811   5.598   2.297   2.500
14624TIP3   OH243812   1.887   7.165   3.171
14624TIP3    H143813   1.850   7.091   3.218
14624TIP3    H243814   1.883   7.237   3.234
14625TIP3   OH243815   7.004   2.476   6.067
14625TIP3    H143816   6.914   2.485   6.036
14625TIP3    H243817   7.031   2.566   6.087
14626TIP3   OH243818   8.180   0.409   6.212
14626TIP3    H143819   8.270   0.397   6.180
14626TIP3    H243820   8.190   0.434   6.304
14627TIP3   OH243821   7.364   2.518   3.868
14627TIP3    H143822   7.316   2.596   3.839
14627TIP3    H243823   7.456   2.541   3.856
14628TIP3   OH243824   1.309   7.390   3.797
14628TIP3    H143825   1.309   7.485   3.812
14628TIP3    H243826   1.356   7.355   3.873
14629TIP3   OH243827   5.347   3.574   4.149
14629TIP3    H143828   5.419   3.518   4.177
14629TIP3    H243829   5.381   3.623   4.074
14630TIP3   OH243830   1.199   1.986   0.085
14630TIP3    H143831   1.158   2.055   0.033
14630TIP3    H243832   1.179   1.905   0.038
14631TIP3   OH243833   7.816   4.373   1.961
14631TIP3    H143834   7.829   4.279   1.968
14631TIP3    H243835   7.894   4.412   2.000
14632TIP3   OH243836   5.096   5.509   4.941
14632TIP3    H143837   5.129   5.579   4.885
14632TIP3    H243838   5.011   5.541   4.972
14633TIP3   OH243839   5.567   2.674   4.656
14633TIP3    H143840   5.512   2.752   4.662
14633TIP3    H243841   5.605   2.664   4.744
14634TIP3   OH243842   2.125   1.085   1.356
14634TIP3    H143843   2.168   1.157   1.401
14634TIP3    H243844   2.183   1.010   1.368
14635TIP3   OH243845   1.921   2.724   5.171
14635TIP3    H143846   1.893   2.810   5.140
14635TIP3    H243847   1.947   2.676   5.092
14636TIP3   OH243848   2.495   5.350   4.053
14636TIP3    H143849   2.404   5.349   4.081
14636TIP3    H243850   2.502   5.279   3.990
14637TIP3   OH243851   3.717   2.126   3.925
14637TIP3    H143852   3.739   2.212   3.889
14637TIP3    H243853   3.710   2.140   4.019
14638TIP3   OH243854   7.657   3.903   3.987
14638TIP3    H143855   7.579   3.849   3.971
14638TIP3    H243856   7.640   3.945   4.071
14639TIP3   OH243857   7.812   7.847   0.472
14639TIP3    H143858   7.814   7.822   0.380
14639TIP3    H243859   7.732   7.806   0.507
14640TIP3   OH243860   4.527   6.453   1.470
14640TIP3    H143861   4.615   6.425   1.445
14640TIP3    H243862   4.511   6.532   1.419
14641TIP3   OH243863   4.757   5.897   5.565
14641TIP3    H143864   4.787   5.948   5.489
14641TIP3    H243865   4.662   5.908   5.565
14642TIP3   OH243866   6.914   0.327   4.419
14642TIP3    H143867   6.970   0.394   4.458
14642TIP3    H243868   6.825   0.357   4.437
14643TIP3   OH243869   7.491   3.163   3.372
14643TIP3    H143870   7.425   3.191   3.436
14643TIP3    H243871   7.542   3.242   3.355
14644TIP3   OH243872   2.617   6.657   0.198
14644TIP3    H143873   2.577   6.576   0.167
14644TIP3    H243874   2.621   6.713   0.120
14645TIP3   OH243875   4.178   6.343   2.516
14645TIP3    H143876   4.093   6.299   2.524
14645TIP3    H243877   4.241   6.272   2.511
14646TIP3   OH243878   0.386   1.736   6.203
14646TIP3    H143879   0.477   1.733   6.175
14646TIP3    H243880   0.339   1.682   6.140
14647TIP3   OH243881   8.209   7.269   6.196
14647TIP3    H143882   8.238   7.200   6.137
14647TIP3    H243883   8.246   7.349   6.158
14648TIP3   OH243884   6.156   6.908   6.719
14648TIP3    H143885   6.219   6.860   6.772
14648TIP3    H243886   6.153   6.995   6.758
14649TIP3   OH243887   7.575   0.380   2.590
14649TIP3    H143888   7.534   0.455   2.547
14649TIP3    H243889   7.619   0.332   2.520
14650TIP3   OH243890   7.883   7.411   2.209
14650TIP3    H143891   7.828   7.396   2.286
14650TIP3    H243892   7.928   7.327   2.196
14651TIP3   OH243893   5.197   3.285   1.694
14651TIP3    H143894   5.124   3.224   1.690
14651TIP3    H243895   5.157   3.371   1.678
14652TIP3   OH243896   2.768   2.491   3.214
14652TIP3    H143897   2.728   2.578   3.202
14652TIP3    H243898   2.748   2.445   3.133
14653TIP3   OH243899   7.748   2.910   6.069
14653TIP3    H143900   7.728   2.826   6.109
14653TIP3    H243901   7.707   2.905   5.982
14654TIP3   OH243902   8.008   1.020   4.893
14654TIP3    H143903   8.059   1.039   4.972
14654TIP3    H243904   8.052   0.944   4.854
14655TIP3   OH243905   0.340   4.732   6.573
14655TIP3    H143906   0.256   4.694   6.598
14655TIP3    H243907   0.320   4.789   6.499
14656TIP3   OH243908   2.866   6.842   0.949
14656TIP3    H143909   2.843   6.751   0.928
14656TIP3    H243910   2.907   6.875   0.870
14657TIP3   OH243911   5.901   7.748   4.928
14657TIP3    H143912   5.952   7.674   4.959
14657TIP3    H243913   5.870   7.792   5.007
14658TIP3   OH243914   3.490   3.933   3.000
14658TIP3    H143915   3.414   3.881   2.975
14658TIP3    H243916   3.454   4.008   3.047
14659TIP3   OH243917   3.960   6.457   1.875
14659TIP3    H143918   3.913   6.375   1.863
14659TIP3    H243919   3.944   6.506   1.795
14660TIP3   OH243920   0.821   0.369   2.658
14660TIP3    H143921   0.852   0.323   2.579
14660TIP3    H243922   0.893   0.360   2.721
14661TIP3   OH243923   4.753   2.477   1.329
14661TIP3    H143924   4.786   2.551   1.380
14661TIP3    H243925   4.829   2.445   1.281
14662TIP3   OH243926   6.073   4.027   3.810
14662TIP3    H143927   6.051   4.116   3.837
14662TIP3    H243928   6.086   3.979   3.892
14663TIP3   OH243929   7.735   7.661   5.521
14663TIP3    H143930   7.738   7.684   5.428
14663TIP3    H243931   7.644   7.635   5.536
14664TIP3   OH243932   6.043   1.512   1.816
14664TIP3    H143933   6.108   1.445   1.838
14664TIP3    H243934   5.959   1.466   1.820
14665TIP3   OH243935   2.810   2.324   1.789
14665TIP3    H143936   2.881   2.287   1.737
14665TIP3    H243937   2.776   2.250   1.839
14666TIP3   OH243938   3.918   6.483   4.736
14666TIP3    H143939   3.848   6.507   4.676
14666TIP3    H243940   3.936   6.562   4.786
14667TIP3   OH243941   2.183   4.470   2.646
14667TIP3    H143942   2.254   4.416   2.681
14667TIP3    H243943   2.219   4.558   2.642
14668TIP3   OH243944   0.516   1.262   4.263
14668TIP3    H143945   0.507   1.266   4.168
14668TIP3    H243946   0.432   1.295   4.296
14669TIP3   OH243947   7.041   5.735   1.659
14669TIP3    H143948   6.965   5.749   1.603
14669TIP3    H243949   7.022   5.654   1.706
14670TIP3   OH243950   6.548   6.072   6.571
14670TIP3    H143951   6.475   6.021   6.535
14670TIP3    H243952   6.519   6.163   6.563
14671TIP3   OH243953   0.344   4.593   6.010
14671TIP3    H143954   0.412   4.566   6.072
14671TIP3    H243955   0.344   4.688   6.014
14672TIP3   OH243956   6.403   3.212   6.152
14672TIP3    H143957   6.349   3.147   6.196
14672TIP3    H243958   6.482   3.219   6.207
14673TIP3   OH243959   5.310   2.143   4.801
14673TIP3    H143960   5.236   2.098   4.761
14673TIP3    H243961   5.339   2.084   4.870
14674TIP3   OH243962   3.768   6.508   2.701
14674TIP3    H143963   3.811   6.524   2.785
14674TIP3    H243964   3.756   6.595   2.663
14675TIP3   OH243965   0.692   0.075   1.979
14675TIP3    H143966   0.697   0.137   2.052
14675TIP3    H243967   0.623   0.014   2.004
14676TIP3   OH243968   4.777   5.023   0.643
14676TIP3    H143969   4.809   5.085   0.708
14676TIP3    H243970   4.691   5.057   0.618
14677TIP3   OH243971   7.633   1.327   4.567
14677TIP3    H143972   7.619   1.391   4.637
14677TIP3    H243973   7.552   1.277   4.563
14678TIP3   OH243974   7.205   2.083   5.437
14678TIP3    H143975   7.221   2.166   5.481
14678TIP3    H243976   7.276   2.026   5.467
14679TIP3   OH243977   8.195   0.269   5.817
14679TIP3    H143978   8.151   0.188   5.794
14679TIP3    H243979   8.125   0.333   5.829
14680TIP3   OH243980   4.833   0.924   5.923
14680TIP3    H143981   4.892   0.859   5.886
14680TIP3    H243982   4.886   1.003   5.932
14681TIP3   OH243983   8.186   0.492   0.735
14681TIP3    H143984   8.201   0.403   0.703
14681TIP3    H243985   8.175   0.544   0.656
14682TIP3   OH243986   7.521   1.277   2.259
14682TIP3    H143987   7.512   1.267   2.164
14682TIP3    H243988   7.515   1.188   2.293
14683TIP3   OH243989   8.131   5.313   6.722
14683TIP3    H143990   8.045   5.289   6.754
14683TIP3    H243991   8.177   5.347   6.799
14684TIP3   OH243992   7.328   3.858   0.121
14684TIP3    H143993   7.303   3.908   0.199
14684TIP3    H243994   7.389   3.915   0.075
14685TIP3   OH243995   1.732   7.224   3.892
14685TIP3    H143996   1.733   7.263   3.805
14685TIP3    H243997   1.652   7.257   3.932
14686TIP3   OH243998   4.727   6.686   1.467
14686TIP3    H143999   4.683   6.771   1.459
14686TIP3    H244000   4.768   6.689   1.554
14687TIP3   OH244001   5.105   1.912   5.459
14687TIP3    H144002   5.145   1.894   5.374
14687TIP3    H244003   5.053   1.992   5.445
14688TIP3   OH244004   5.915   2.296   4.815
14688TIP3    H144005   5.918   2.383   4.854
14688TIP3    H244006   6.004   2.262   4.824
14689TIP3   OH244007   2.807   0.860   0.695
14689TIP3    H144008   2.792   0.948   0.727
14689TIP3    H244009   2.769   0.859   0.607
14690TIP3   OH244010   2.860   0.065   6.624
14690TIP3    H144011   2.806   0.063   6.702
14690TIP3    H244012   2.937   0.014   6.647
14691TIP3   OH244013   6.647   5.531   6.683
14691TIP3    H144014   6.612   5.616   6.654
14691TIP3    H244015   6.659   5.542   6.778
14692TIP3   OH244016   4.831   5.513   4.482
14692TIP3    H144017   4.856   5.511   4.574
14692TIP3    H244018   4.770   5.440   4.472
14693TIP3   OH244019   0.684   5.634   2.105
14693TIP3    H144020   0.684   5.538   2.098
14693TIP3    H244021   0.596   5.659   2.078
14694TIP3   OH244022   0.677   0.111   6.123
14694TIP3    H144023   0.732   0.127   6.046
14694TIP3    H244024   0.646   0.022   6.111
14695TIP3   OH244025   8.177   5.881   2.585
14695TIP3    H144026   8.210   5.906   2.671
14695TIP3    H244027   8.239   5.920   2.523
14696TIP3   OH244028   3.561   7.383   3.214
14696TIP3    H144029   3.542   7.433   3.293
14696TIP3    H244030   3.618   7.440   3.162
14697TIP3   OH244031   6.008   6.933   2.690
14697TIP3    H144032   5.950   7.003   2.660
14697TIP3    H244033   6.053   6.903   2.611
14698TIP3   OH244034   7.936   7.408   1.528
14698TIP3    H144035   7.936   7.316   1.502
14698TIP3    H244036   7.872   7.414   1.599
14699TIP3   OH244037   6.012   7.244   2.659
14699TIP3    H144038   6.085   7.269   2.602
14699TIP3    H244039   5.941   7.224   2.598
14700TIP3   OH244040   5.144   7.633   4.980
14700TIP3    H144041   5.174   7.566   4.918
14700TIP3    H244042   5.049   7.634   4.969
14701TIP3   OH244043   2.346   4.877   3.310
14701TIP3    H144044   2.370   4.920   3.392
14701TIP3    H244045   2.336   4.949   3.248
14702TIP3   OH244046   4.801   3.742   2.857
14702TIP3    H144047   4.861   3.811   2.828
14702TIP3    H244048   4.798   3.680   2.784
14703TIP3   OH244049   3.067   0.893   4.910
14703TIP3    H144050   3.031   0.913   4.997
14703TIP3    H244051   3.160   0.875   4.927
14704TIP3   OH244052   6.370   6.113   0.769
14704TIP3    H144053   6.329   6.080   0.689
14704TIP3    H244054   6.303   6.169   0.809
14705TIP3   OH244055   2.755   7.425   6.351
14705TIP3    H144056   2.747   7.423   6.255
14705TIP3    H244057   2.790   7.339   6.374
14706TIP3   OH244058   2.864   1.505   6.670
14706TIP3    H144059   2.936   1.455   6.711
14706TIP3    H244060   2.822   1.550   6.744
14707TIP3   OH244061   5.807   6.678   5.713
14707TIP3    H144062   5.764   6.745   5.767
14707TIP3    H244063   5.874   6.641   5.771
14708TIP3   OH244064   4.706   3.990   6.576
14708TIP3    H144065   4.750   3.934   6.513
14708TIP3    H244066   4.770   4.059   6.596
14709TIP3   OH244067   0.569   0.756   5.323
14709TIP3    H144068   0.656   0.717   5.321
14709TIP3    H244069   0.554   0.786   5.234
14710TIP3   OH244070   5.742   6.671   4.553
14710TIP3    H144071   5.736   6.741   4.488
14710TIP3    H244072   5.671   6.611   4.529
14711TIP3   OH244073   8.254   2.969   0.456
14711TIP3    H144074   8.318   3.032   0.422
14711TIP3    H244075   8.199   2.947   0.380
14712TIP3   OH244076   2.720   7.069   0.671
14712TIP3    H144077   2.643   7.047   0.619
14712TIP3    H244078   2.760   6.985   0.692
14713TIP3   OH244079   0.649   0.305   0.019
14713TIP3    H144080   0.605   0.379  -0.023
14713TIP3    H244081   0.605   0.296   0.104
14714TIP3   OH244082   3.573   6.137   0.458
14714TIP3    H144083   3.510   6.145   0.387
14714TIP3    H244084   3.522   6.155   0.537
14715TIP3   OH244085   3.162   3.385   4.729
14715TIP3    H144086   3.125   3.300   4.705
14715TIP3    H244087   3.241   3.363   4.779
14716TIP3   OH244088   7.304   3.651   1.894
14716TIP3    H144089   7.299   3.680   1.803
14716TIP3    H244090   7.249   3.573   1.898
14717TIP3   OH244091   6.455   2.981   3.056
14717TIP3    H144092   6.379   3.025   3.093
14717TIP3    H244093   6.522   2.987   3.124
14718TIP3   OH244094   6.623   2.607  -0.022
14718TIP3    H144095   6.559   2.599   0.048
14718TIP3    H244096   6.647   2.700  -0.022
14719TIP3   OH244097   5.550   6.780   6.231
14719TIP3    H144098   5.555   6.723   6.308
14719TIP3    H244099   5.600   6.858   6.256
14720TIP3   OH244100   3.312   4.462   2.857
14720TIP3    H144101   3.239   4.448   2.797
14720TIP3    H244102   3.279   4.527   2.920
14721TIP3   OH244103   6.939   6.192   3.378
14721TIP3    H144104   6.856   6.144   3.385
14721TIP3    H244105   6.913   6.284   3.366
14722TIP3   OH244106   1.061   2.627   6.435
14722TIP3    H144107   1.038   2.605   6.525
14722TIP3    H244108   1.006   2.702   6.413
14723TIP3   OH244109   3.953   0.131   0.627
14723TIP3    H144110   3.902   0.212   0.622
14723TIP3    H244111   3.907   0.070   0.568
14724TIP3   OH244112   2.536   3.538   3.603
14724TIP3    H144113   2.500   3.497   3.524
14724TIP3    H244114   2.527   3.632   3.587
14725TIP3   OH244115   4.661   5.417   0.073
14725TIP3    H144116   4.728   5.482   0.094
14725TIP3    H244117   4.710   5.340   0.046
14726TIP3   OH244118   2.803   6.716   5.275
14726TIP3    H144119   2.751   6.638   5.293
14726TIP3    H244120   2.830   6.707   5.184
14727TIP3   OH244121   1.934   1.309   6.293
14727TIP3    H144122   1.984   1.237   6.254
14727TIP3    H244123   1.927   1.287   6.386
14728TIP3   OH244124   4.541   4.543   0.766
14728TIP3    H144125   4.546   4.482   0.839
14728TIP3    H244126   4.571   4.492   0.690
14729TIP3   OH244127   6.051   3.123   4.964
14729TIP3    H144128   5.998   3.091   5.037
14729TIP3    H244129   6.022   3.071   4.888
14730TIP3   OH244130   4.552   0.675   2.538
14730TIP3    H144131   4.525   0.649   2.450
14730TIP3    H244132   4.545   0.595   2.590
14731TIP3   OH244133   6.735   4.628   3.208
14731TIP3    H144134   6.796   4.584   3.149
14731TIP3    H244135   6.753   4.721   3.197
14732TIP3   OH244136   2.675   6.232   6.409
14732TIP3    H144137   2.696   6.140   6.391
14732TIP3    H244138   2.667   6.272   6.323
14733TIP3   OH244139   4.242   6.910   6.689
14733TIP3    H144140   4.240   6.896   6.594
14733TIP3    H244141   4.206   6.997   6.701
14734TIP3   OH244142   5.642   7.420   4.419
14734TIP3    H144143   5.577   7.366   4.464
14734TIP3    H244144   5.714   7.360   4.401
14735TIP3   OH244145   7.554   3.550   3.817
14735TIP3    H144146   7.630   3.589   3.861
14735TIP3    H244147   7.586   3.465   3.786
14736TIP3   OH244148   5.125   2.979   5.555
14736TIP3    H144149   5.115   2.987   5.650
14736TIP3    H244150   5.121   3.069   5.523
14737TIP3   OH244151   4.257   0.357   0.899
14737TIP3    H144152   4.182   0.401   0.937
14737TIP3    H244153   4.226   0.268   0.880
14738TIP3   OH244154   4.320   2.179   3.717
14738TIP3    H144155   4.294   2.158   3.627
14738TIP3    H244156   4.321   2.094   3.762
14739TIP3   OH244157   5.284   3.331   6.767
14739TIP3    H144158   5.260   3.261   6.706
14739TIP3    H244159   5.362   3.299   6.812
14740TIP3   OH244160   5.837   6.399   1.360
14740TIP3    H144161   5.855   6.438   1.446
14740TIP3    H244162   5.742   6.394   1.355
14741TIP3   OH244163   1.984   3.132   2.673
14741TIP3    H144164   2.056   3.076   2.699
14741TIP3    H244165   1.954   3.173   2.754
14742TIP3   OH244166   5.836   0.883   2.523
14742TIP3    H144167   5.800   0.847   2.442
14742TIP3    H244168   5.760   0.894   2.580
14743TIP3   OH244169   0.189   6.467   5.959
14743TIP3    H144170   0.116   6.522   5.931
14743TIP3    H244171   0.262   6.491   5.901
14744TIP3   OH244172   7.927   3.944   2.730
14744TIP3    H144173   7.930   3.925   2.824
14744TIP3    H244174   7.890   3.866   2.690
14745TIP3   OH244175   7.603   7.143   6.237
14745TIP3    H144176   7.514   7.132   6.204
14745TIP3    H244177   7.654   7.077   6.190
14746TIP3   OH244178   5.738   1.984   1.454
14746TIP3    H144179   5.806   1.925   1.423
14746TIP3    H244180   5.775   2.024   1.532
14747TIP3   OH244181   2.190   0.813   1.035
14747TIP3    H144182   2.136   0.784   1.108
14747TIP3    H244183   2.185   0.909   1.039
14748TIP3   OH244184   0.349   3.474   4.416
14748TIP3    H144185   0.309   3.561   4.416
14748TIP3    H244186   0.288   3.420   4.366
14749TIP3   OH244187   3.830   5.877   3.373
14749TIP3    H144188   3.809   5.785   3.357
14749TIP3    H244189   3.857   5.880   3.465
14750TIP3   OH244190   5.069   7.702   0.797
14750TIP3    H144191   5.123   7.624   0.807
14750TIP3    H244192   4.982   7.668   0.774
14751TIP3   OH244193   7.636   7.253   0.837
14751TIP3    H144194   7.711   7.279   0.892
14751TIP3    H244195   7.647   7.303   0.756
14752TIP3   OH244196   5.731   6.987   4.119
14752TIP3    H144197   5.732   7.083   4.123
14752TIP3    H244198   5.671   6.961   4.189
14753TIP3   OH244199   8.065   0.774   2.838
14753TIP3    H144200   8.037   0.862   2.815
14753TIP3    H244201   8.009   0.749   2.912
14754TIP3   OH244202   4.477   2.998   2.867
14754TIP3    H144203   4.511   3.072   2.817
14754TIP3    H244204   4.514   3.010   2.955
14755TIP3   OH244205   4.750   4.087   3.691
14755TIP3    H144206   4.788   4.028   3.626
14755TIP3    H244207   4.795   4.065   3.773
14756TIP3   OH244208   5.691   5.428   3.893
14756TIP3    H144209   5.728   5.367   3.829
14756TIP3    H244210   5.681   5.510   3.844
14757TIP3   OH244211   0.468   5.541   3.477
14757TIP3    H144212   0.482   5.496   3.560
14757TIP3    H244213   0.476   5.471   3.411
14758TIP3   OH244214   4.918   0.921   5.546
14758TIP3    H144215   4.982   0.870   5.596
14758TIP3    H244216   4.843   0.863   5.537
14759TIP3   OH244217   5.697   7.046   6.240
14759TIP3    H144218   5.637   7.054   6.314
14759TIP3    H244219   5.780   7.079   6.273
14760TIP3   OH244220   0.855   6.833   3.287
14760TIP3    H144221   0.806   6.842   3.205
14760TIP3    H244222   0.792   6.797   3.349
14761TIP3   OH244223   4.074   6.651   3.154
14761TIP3    H144224   4.141   6.714   3.177
14761TIP3    H244225   4.031   6.630   3.237
14762TIP3   OH244226   1.996   2.444   6.778
14762TIP3    H144227   1.933   2.459   6.707
14762TIP3    H244228   1.947   2.396   6.844
14763TIP3   OH244229   6.765   2.604   0.382
14763TIP3    H144230   6.710   2.537   0.343
14763TIP3    H244231   6.851   2.563   0.390
14764TIP3   OH244232   1.633   4.079   2.321
14764TIP3    H144233   1.670   4.122   2.244
14764TIP3    H244234   1.707   4.032   2.361
14765TIP3   OH244235   6.086   7.775   5.974
14765TIP3    H144236   6.172   7.782   5.933
14765TIP3    H244237   6.025   7.814   5.911
14766TIP3   OH244238   8.359   1.730   1.223
14766TIP3    H144239   8.392   1.776   1.145
14766TIP3    H244240   8.286   1.784   1.254
14767TIP3   OH244241   1.244   1.641   5.428
14767TIP3    H144242   1.228   1.665   5.336
14767TIP3    H244243   1.306   1.707   5.458
14768TIP3   OH244244   7.588   3.431   3.132
14768TIP3    H144245   7.665   3.469   3.091
14768TIP3    H244246   7.614   3.414   3.222
14769TIP3   OH244247   8.332   3.524   2.043
14769TIP3    H144248   8.312   3.610   2.004
14769TIP3    H244249   8.251   3.475   2.033
14770TIP3   OH244250   4.256   1.655   2.228
14770TIP3    H144251   4.279   1.707   2.305
14770TIP3    H244252   4.337   1.609   2.205
14771TIP3   OH244253   1.463   6.204   6.122
14771TIP3    H144254   1.441   6.135   6.184
14771TIP3    H244255   1.487   6.156   6.042
14772TIP3   OH244256   1.074   7.557   5.438
14772TIP3    H144257   0.991   7.557   5.486
14772TIP3    H244258   1.113   7.472   5.459
14773TIP3   OH244259   2.201   5.879   4.861
14773TIP3    H144260   2.119   5.927   4.867
14773TIP3    H244261   2.190   5.821   4.785
14774TIP3   OH244262   5.124   2.714   6.080
14774TIP3    H144263   5.142   2.621   6.078
14774TIP3    H244264   5.177   2.747   6.152
14775TIP3   OH244265   0.198   5.676   3.415
14775TIP3    H144266   0.256   5.606   3.445
14775TIP3    H244267   0.159   5.642   3.334
14776TIP3   OH244268   6.202   2.540   0.154
14776TIP3    H144269   6.178   2.631   0.168
14776TIP3    H244270   6.297   2.538   0.168
14777TIP3   OH244271   7.157   2.642   5.045
14777TIP3    H144272   7.120   2.725   5.075
14777TIP3    H244273   7.080   2.587   5.027
14778TIP3   OH244274   1.541   6.092   4.807
14778TIP3    H144275   1.557   6.031   4.736
14778TIP3    H244276   1.546   6.179   4.766
14779TIP3   OH244277   1.188   2.617   2.025
14779TIP3    H144278   1.246   2.690   2.048
14779TIP3    H244279   1.114   2.627   2.084
14780TIP3   OH244280   7.881   5.182   6.084
14780TIP3    H144281   7.941   5.175   6.158
14780TIP3    H244282   7.900   5.106   6.030
14781TIP3   OH244283   5.487   5.605   2.274
14781TIP3    H144284   5.532   5.672   2.222
14781TIP3    H244285   5.456   5.541   2.210
14782TIP3   OH244286   0.337   4.763   0.743
14782TIP3    H144287   0.251   4.739   0.710
14782TIP3    H244288   0.381   4.803   0.668
14783TIP3   OH244289   2.097   4.962   2.822
14783TIP3    H144290   2.012   4.945   2.782
14783TIP3    H244291   2.123   5.047   2.787
14784TIP3   OH244292   4.657   5.082   4.568
14784TIP3    H144293   4.628   4.994   4.544
14784TIP3    H244294   4.728   5.067   4.631
14785TIP3   OH244295   4.835   4.220   1.973
14785TIP3    H144296   4.915   4.272   1.981
14785TIP3    H244297   4.858   4.134   2.006
14786TIP3   OH244298   4.111   0.768   5.840
14786TIP3    H144299   4.047   0.835   5.866
14786TIP3    H244300   4.073   0.728   5.762
14787TIP3   OH244301   2.216   0.199   1.832
14787TIP3    H144302   2.269   0.183   1.910
14787TIP3    H244303   2.239   0.129   1.772
14788TIP3   OH244304   6.406   5.641   1.508
14788TIP3    H144305   6.416   5.637   1.603
14788TIP3    H244306   6.489   5.607   1.474
14789TIP3   OH244307   5.764   6.420   1.079
14789TIP3    H144308   5.792   6.509   1.097
14789TIP3    H244309   5.712   6.394   1.155
14790TIP3   OH244310   2.992   0.056   5.292
14790TIP3    H144311   2.969  -0.025   5.337
14790TIP3    H244312   2.908   0.094   5.265
14791TIP3   OH244313   2.478   0.369   5.377
14791TIP3    H144314   2.434   0.453   5.390
14791TIP3    H244315   2.491   0.335   5.466
14792TIP3   OH244316   3.888   6.733   2.322
14792TIP3    H144317   3.980   6.756   2.325
14792TIP3    H244318   3.888   6.639   2.300
14793TIP3   OH244319   6.438   5.717   2.688
14793TIP3    H144320   6.401   5.790   2.638
14793TIP3    H244321   6.528   5.709   2.655
14794TIP3   OH244322   7.301   5.256   5.741
14794TIP3    H144323   7.307   5.162   5.758
14794TIP3    H244324   7.369   5.295   5.795
14795TIP3   OH244325   2.743   7.336   3.570
14795TIP3    H144326   2.653   7.342   3.539
14795TIP3    H244327   2.795   7.319   3.491
14796TIP3   OH244328   0.232   3.975   1.666
14796TIP3    H144329   0.150   3.930   1.645
14796TIP3    H244330   0.222   4.063   1.630
14797TIP3   OH244331   2.159   2.180   6.470
14797TIP3    H144332   2.092   2.160   6.535
14797TIP3    H244333   2.127   2.258   6.425
14798TIP3   OH244334   3.848   7.159   2.815
14798TIP3    H144335   3.915   7.119   2.759
14798TIP3    H244336   3.805   7.223   2.760
14799TIP3   OH244337   8.355   4.198   3.506
14799TIP3    H144338   8.312   4.163   3.584
14799TIP3    H244339   8.357   4.124   3.445
14800TIP3   OH244340   2.518   3.436   6.067
14800TIP3    H144341   2.614   3.434   6.070
14800TIP3    H244342   2.496   3.402   5.980
14801TIP3   OH244343   1.468   7.035   0.569
14801TIP3    H144344   1.451   7.072   0.483
14801TIP3    H244345   1.391   7.059   0.621
14802TIP3   OH244346   0.706   4.948   4.764
14802TIP3    H144347   0.640   5.002   4.807
14802TIP3    H244348   0.746   5.006   4.700
14803TIP3   OH244349   5.457   6.649   5.179
14803TIP3    H144350   5.526   6.705   5.143
14803TIP3    H244351   5.501   6.566   5.196
14804TIP3   OH244352   5.150   3.188   3.155
14804TIP3    H144353   5.152   3.112   3.213
14804TIP3    H244354   5.161   3.152   3.067
14805TIP3   OH244355   1.561   1.150   1.429
14805TIP3    H144356   1.518   1.070   1.461
14805TIP3    H244357   1.535   1.217   1.492
14806TIP3   OH244358   2.558   1.866   0.862
14806TIP3    H144359   2.590   1.891   0.949
14806TIP3    H244360   2.533   1.948   0.821
14807TIP3   OH244361   0.286   0.093   2.483
14807TIP3    H144362   0.198   0.060   2.464
14807TIP3    H244363   0.297   0.166   2.421
14808TIP3   OH244364   8.137   6.632   2.097
14808TIP3    H144365   8.055   6.612   2.052
14808TIP3    H244366   8.164   6.717   2.062
14809TIP3   OH244367   2.368   5.854   1.624
14809TIP3    H144368   2.382   5.760   1.616
14809TIP3    H244369   2.436   5.894   1.570
14810TIP3   OH244370   0.282   2.630   6.157
14810TIP3    H144371   0.213   2.686   6.121
14810TIP3    H244372   0.363   2.666   6.121
14811TIP3   OH244373   6.049   0.773   5.645
14811TIP3    H144374   6.098   0.729   5.715
14811TIP3    H244375   6.036   0.862   5.678
14812TIP3   OH244376   4.492   4.615   0.123
14812TIP3    H144377   4.483   4.536   0.070
14812TIP3    H244378   4.495   4.584   0.213
14813TIP3   OH244379   0.143   0.390   4.080
14813TIP3    H144380   0.063   0.414   4.126
14813TIP3    H244381   0.178   0.473   4.046
14814TIP3   OH244382   6.067   7.842   4.744
14814TIP3    H144383   6.028   7.800   4.821
14814TIP3    H244384   6.006   7.822   4.673
14815TIP3   OH244385   0.255   6.242   0.110
14815TIP3    H144386   0.211   6.326   0.125
14815TIP3    H244387   0.274   6.242   0.016
14816TIP3   OH244388   5.451   4.999   4.939
14816TIP3    H144389   5.373   5.048   4.913
14816TIP3    H244390   5.502   4.991   4.858
14817TIP3   OH244391   5.317   0.051   2.997
14817TIP3    H144392   5.224   0.073   3.006
14817TIP3    H244393   5.318  -0.024   2.937
14818TIP3   OH244394   2.202   3.048   5.988
14818TIP3    H144395   2.247   3.051   6.072
14818TIP3    H244396   2.225   2.962   5.952
14819TIP3   OH244397   2.366   2.884   1.365
14819TIP3    H144398   2.304   2.812   1.355
14819TIP3    H244399   2.348   2.920   1.452
14820TIP3   OH244400   7.514   7.428   4.309
14820TIP3    H144401   7.524   7.337   4.340
14820TIP3    H244402   7.554   7.428   4.222
14821TIP3   OH244403   2.270   7.065   5.222
14821TIP3    H144404   2.275   7.087   5.129
14821TIP3    H244405   2.355   7.092   5.257
14822TIP3   OH244406   6.020   1.400   3.903
14822TIP3    H144407   5.998   1.489   3.928
14822TIP3    H244408   5.937   1.352   3.906
14823TIP3   OH244409   0.987   6.645   1.178
14823TIP3    H144410   0.940   6.705   1.119
14823TIP3    H244411   0.919   6.612   1.238
14824TIP3   OH244412   7.537   2.280   2.122
14824TIP3    H144413   7.592   2.294   2.045
14824TIP3    H244414   7.589   2.313   2.195
14825TIP3   OH244415   6.255   0.132   6.141
14825TIP3    H144416   6.309   0.057   6.116
14825TIP3    H244417   6.294   0.162   6.223
14826TIP3   OH244418   1.567   0.434   3.377
14826TIP3    H144419   1.480   0.462   3.350
14826TIP3    H244420   1.553   0.390   3.461
14827TIP3   OH244421   5.670   2.782   5.630
14827TIP3    H144422   5.575   2.787   5.621
14827TIP3    H244423   5.690   2.833   5.708
14828TIP3   OH244424   5.457   2.247   1.432
14828TIP3    H144425   5.398   2.235   1.506
14828TIP3    H244426   5.544   2.254   1.471
14829TIP3   OH244427   3.949   2.427   4.607
14829TIP3    H144428   3.957   2.353   4.546
14829TIP3    H244429   3.969   2.504   4.554
14830TIP3   OH244430   4.850   5.746   6.566
14830TIP3    H144431   4.792   5.802   6.618
14830TIP3    H244432   4.791   5.681   6.527
14831TIP3   OH244433   7.185   3.866   0.625
14831TIP3    H144434   7.276   3.881   0.598
14831TIP3    H244435   7.190   3.791   0.684
14832TIP3   OH244436   7.165   3.550   4.758
14832TIP3    H144437   7.133   3.571   4.670
14832TIP3    H244438   7.094   3.575   4.816
14833TIP3   OH244439   0.900   0.418   0.945
14833TIP3    H144440   0.980   0.448   0.988
14833TIP3    H244441   0.878   0.336   0.989
14834TIP3   OH244442   5.086   4.716   1.048
14834TIP3    H144443   5.108   4.710   1.141
14834TIP3    H244444   4.996   4.682   1.042
14835TIP3   OH244445   3.793   6.404   3.281
14835TIP3    H144446   3.806   6.382   3.189
14835TIP3    H244447   3.876   6.381   3.323
14836TIP3   OH244448   0.403   5.960   5.850
14836TIP3    H144449   0.348   5.990   5.777
14836TIP3    H244450   0.363   5.877   5.877
14837TIP3   OH244451   6.730   2.921   1.055
14837TIP3    H144452   6.723   2.972   1.136
14837TIP3    H244453   6.813   2.874   1.063
14838TIP3   OH244454   1.672   6.732   3.924
14838TIP3    H144455   1.581   6.735   3.951
14838TIP3    H244456   1.688   6.817   3.884
14839TIP3   OH244457   2.966   4.475   5.939
14839TIP3    H144458   2.887   4.438   5.979
14839TIP3    H244459   3.038   4.422   5.974
14840TIP3   OH244460   5.646   2.181   2.991
14840TIP3    H144461   5.582   2.236   2.947
14840TIP3    H244462   5.594   2.115   3.036
14841TIP3   OH244463   4.137   2.629   5.523
14841TIP3    H144464   4.159   2.651   5.432
14841TIP3    H244465   4.216   2.652   5.572
14842TIP3   OH244466   6.999   7.037   3.175
14842TIP3    H144467   7.037   7.113   3.219
14842TIP3    H244468   7.055   7.021   3.100
14843TIP3   OH244469   2.733   2.105   3.169
14843TIP3    H144470   2.734   2.011   3.152
14843TIP3    H244471   2.772   2.114   3.256
14844TIP3   OH244472   5.924   5.026   3.996
14844TIP3    H144473   5.978   5.086   4.047
14844TIP3    H244474   5.837   5.066   3.995
14845TIP3   OH244475   0.915   3.916   2.257
14845TIP3    H144476   1.009   3.923   2.239
14845TIP3    H244477   0.879   3.874   2.179
14846TIP3   OH244478   1.605   4.041   0.171
14846TIP3    H144479   1.548   3.985   0.226
14846TIP3    H244480   1.671   4.075   0.232
14847TIP3   OH244481   3.822   3.927   2.408
14847TIP3    H144482   3.739   3.883   2.393
14847TIP3    H244483   3.880   3.859   2.441
14848TIP3   OH244484   8.097   2.615   0.372
14848TIP3    H144485   8.023   2.611   0.433
14848TIP3    H244486   8.058   2.644   0.290
14849TIP3   OH244487   5.328   0.446   0.824
14849TIP3    H144488   5.261   0.387   0.859
14849TIP3    H244489   5.324   0.523   0.880
14850TIP3   OH244490   0.715   4.649   5.749
14850TIP3    H144491   0.682   4.570   5.791
14850TIP3    H244492   0.808   4.652   5.774
14851TIP3   OH244493   3.077   1.712   2.197
14851TIP3    H144494   2.984   1.691   2.190
14851TIP3    H244495   3.115   1.677   2.116
14852TIP3   OH244496   3.756   2.125   2.047
14852TIP3    H144497   3.806   2.206   2.051
14852TIP3    H244498   3.822   2.056   2.036
14853TIP3   OH244499   1.521   4.455   5.590
14853TIP3    H144500   1.539   4.497   5.674
14853TIP3    H244501   1.582   4.381   5.588
14854TIP3   OH244502   6.091   6.047   1.609
14854TIP3    H144503   6.154   6.085   1.548
14854TIP3    H244504   6.069   5.962   1.571
14855TIP3   OH244505   4.457   4.581   0.409
14855TIP3    H144506   4.377   4.529   0.416
14855TIP3    H244507   4.527   4.522   0.438
14856TIP3   OH244508   4.874   7.103   1.583
14856TIP3    H144509   4.956   7.101   1.534
14856TIP3    H244510   4.807   7.074   1.521
14857TIP3   OH244511   1.263   7.556   1.056
14857TIP3    H144512   1.207   7.566   1.133
14857TIP3    H244513   1.206   7.521   0.988
14858TIP3   OH244514   1.095   0.635   3.917
14858TIP3    H144515   1.114   0.608   4.007
14858TIP3    H244516   1.006   0.603   3.901
14859TIP3   OH244517   5.336   1.285   0.526
14859TIP3    H144518   5.267   1.319   0.469
14859TIP3    H244519   5.357   1.358   0.584
14860TIP3   OH244520   5.463   3.114   4.936
14860TIP3    H144521   5.433   3.188   4.988
14860TIP3    H244522   5.492   3.152   4.853
14861TIP3   OH244523   4.651   4.991   0.179
14861TIP3    H144524   4.642   4.921   0.114
14861TIP3    H244525   4.652   4.945   0.263
14862TIP3   OH244526   2.568   0.470   4.237
14862TIP3    H144527   2.639   0.468   4.301
14862TIP3    H244528   2.539   0.380   4.230
14863TIP3   OH244529   2.033   0.365   2.936
14863TIP3    H144530   2.108   0.347   2.993
14863TIP3    H244531   2.067   0.356   2.847
14864TIP3   OH244532   3.357   2.966   5.113
14864TIP3    H144533   3.325   2.910   5.184
14864TIP3    H244534   3.335   3.055   5.141
14865TIP3   OH244535   2.171   4.511   0.651
14865TIP3    H144536   2.232   4.539   0.583
14865TIP3    H244537   2.156   4.590   0.704
14866TIP3   OH244538   2.899   2.265   5.067
14866TIP3    H144539   2.980   2.219   5.091
14866TIP3    H244540   2.888   2.332   5.134
14867TIP3   OH244541   6.733   1.290   5.757
14867TIP3    H144542   6.658   1.305   5.700
14867TIP3    H244543   6.764   1.202   5.736
14868TIP3   OH244544   8.077   0.573   4.585
14868TIP3    H144545   8.019   0.622   4.528
14868TIP3    H244546   8.113   0.638   4.645
14869TIP3   OH244547   3.539   6.225   1.502
14869TIP3    H144548   3.510   6.141   1.538
14869TIP3    H244549   3.524   6.288   1.572
14870TIP3   OH244550   6.467   2.785   2.064
14870TIP3    H144551   6.525   2.751   2.132
14870TIP3    H244552   6.503   2.752   1.982
14871TIP3   OH244553   7.389   2.861   4.581
14871TIP3    H144554   7.412   2.953   4.572
14871TIP3    H244555   7.358   2.854   4.671
14872TIP3   OH244556   2.545   2.572   3.384
14872TIP3    H144557   2.610   2.572   3.314
14872TIP3    H244558   2.469   2.527   3.346
14873TIP3   OH244559   3.843   5.310   3.726
14873TIP3    H144560   3.912   5.326   3.791
14873TIP3    H244561   3.792   5.238   3.763
14874TIP3   OH244562   1.623   2.693   4.495
14874TIP3    H144563   1.620   2.740   4.412
14874TIP3    H244564   1.690   2.626   4.482
14875TIP3   OH244565   6.028   7.898   2.028
14875TIP3    H144566   5.951   7.885   2.083
14875TIP3    H244567   6.009   7.850   1.947
14876TIP3   OH244568   7.084   2.182   1.362
14876TIP3    H144569   7.046   2.181   1.274
14876TIP3    H244570   7.091   2.275   1.384
14877TIP3   OH244571   1.666   1.297   2.057
14877TIP3    H144572   1.702   1.321   2.143
14877TIP3    H244573   1.743   1.284   2.001
14878TIP3   OH244574   5.589   3.541   2.634
14878TIP3    H144575   5.529   3.502   2.697
14878TIP3    H244576   5.559   3.508   2.549
14879TIP3   OH244577   5.980   7.558   0.106
14879TIP3    H144578   6.021   7.576   0.022
14879TIP3    H244579   6.052   7.537   0.165
14880TIP3   OH244580   6.102   4.833   5.701
14880TIP3    H144581   6.149   4.917   5.699
14880TIP3    H244582   6.057   4.835   5.786
14881TIP3   OH244583   2.557   7.416   4.858
14881TIP3    H144584   2.647   7.385   4.871
14881TIP3    H244585   2.503   7.347   4.896
14882TIP3   OH244586   7.212   5.546   6.150
14882TIP3    H144587   7.170   5.566   6.234
14882TIP3    H244588   7.143   5.508   6.097
14883TIP3   OH244589   1.631   0.387   0.804
14883TIP3    H144590   1.548   0.431   0.825
14883TIP3    H244591   1.608   0.324   0.737
14884TIP3   OH244592   2.750   7.421   2.531
14884TIP3    H144593   2.822   7.469   2.491
14884TIP3    H244594   2.777   7.329   2.527
14885TIP3   OH244595   3.754   2.511   0.039
14885TIP3    H144596   3.698   2.491  -0.036
14885TIP3    H244597   3.700   2.490   0.115
14886TIP3   OH244598   8.348   1.858   3.284
14886TIP3    H144599   8.262   1.818   3.276
14886TIP3    H244600   8.335   1.934   3.342
14887TIP3   OH244601   0.132   1.842   4.206
14887TIP3    H144602   0.202   1.907   4.216
14887TIP3    H244603   0.154   1.773   4.268
14888TIP3   OH244604   3.143   2.659   5.491
14888TIP3    H144605   3.235   2.641   5.470
14888TIP3    H244606   3.131   2.622   5.578
14889TIP3   OH244607   7.625   3.920   6.052
14889TIP3    H144608   7.597   3.858   6.119
14889TIP3    H244609   7.698   3.967   6.092
14890TIP3   OH244610   1.126   4.363   2.897
14890TIP3    H144611   1.182   4.345   2.821
14890TIP3    H244612   1.039   4.379   2.859
14891TIP3   OH244613   3.748   1.987   3.594
14891TIP3    H144614   3.751   1.940   3.677
14891TIP3    H244615   3.738   1.918   3.528
14892TIP3   OH244616   7.395   5.909   2.371
14892TIP3    H144617   7.392   5.824   2.414
14892TIP3    H244618   7.386   5.972   2.442
14893TIP3   OH244619   6.688   4.281   3.759
14893TIP3    H144620   6.617   4.217   3.753
14893TIP3    H244621   6.741   4.252   3.834
14894TIP3   OH244622   6.037   5.610   5.332
14894TIP3    H144623   6.061   5.702   5.337
14894TIP3    H244624   5.952   5.605   5.376
14895TIP3   OH244625   5.075   4.170   6.067
14895TIP3    H144626   5.149   4.230   6.059
14895TIP3    H244627   5.087   4.108   5.996
14896TIP3   OH244628   7.676   5.392   0.413
14896TIP3    H144629   7.637   5.479   0.415
14896TIP3    H244630   7.770   5.408   0.402
14897TIP3   OH244631   2.245   0.899   4.491
14897TIP3    H144632   2.331   0.856   4.490
14897TIP3    H244633   2.255   0.973   4.430
14898TIP3   OH244634   3.414   1.655   0.650
14898TIP3    H144635   3.321   1.638   0.664
14898TIP3    H244636   3.456   1.628   0.732
14899TIP3   OH244637   2.396   7.112   4.465
14899TIP3    H144638   2.340   7.186   4.441
14899TIP3    H244639   2.485   7.148   4.465
14900TIP3   OH244640   1.818   4.692   1.482
14900TIP3    H144641   1.763   4.658   1.552
14900TIP3    H244642   1.777   4.660   1.401
14901TIP3   OH244643   4.225   4.865   0.948
14901TIP3    H144644   4.157   4.901   0.891
14901TIP3    H244645   4.292   4.832   0.888
14902TIP3   OH244646   3.271   4.575   2.148
14902TIP3    H144647   3.229   4.544   2.068
14902TIP3    H244648   3.206   4.561   2.217
14903TIP3   OH244649   5.809   6.796   0.814
14903TIP3    H144650   5.898   6.824   0.836
14903TIP3    H244651   5.766   6.874   0.779
14904TIP3   OH244652   5.471   4.180   1.928
14904TIP3    H144653   5.526   4.128   1.986
14904TIP3    H244654   5.383   4.175   1.966
14905TIP3   OH244655   7.181   6.607   3.006
14905TIP3    H144656   7.205   6.525   3.050
14905TIP3    H244657   7.264   6.655   2.999
14906TIP3   OH244658   0.930   3.679   2.649
14906TIP3    H144659   0.924   3.689   2.744
14906TIP3    H244660   1.021   3.650   2.634
14907TIP3   OH244661   7.177   6.606   0.159
14907TIP3    H144662   7.187   6.527   0.212
14907TIP3    H244663   7.266   6.641   0.152
14908TIP3   OH244664   8.112   7.641   0.112
14908TIP3    H144665   8.152   7.658   0.027
14908TIP3    H244666   8.053   7.568   0.097
14909TIP3   OH244667   5.692   1.814   4.654
14909TIP3    H144668   5.764   1.758   4.626
14909TIP3    H244669   5.687   1.883   4.588
14910TIP3   OH244670   4.849   1.978   3.950
14910TIP3    H144671   4.811   2.064   3.933
14910TIP3    H244672   4.810   1.921   3.884
14911TIP3   OH244673   6.783   5.801   0.368
14911TIP3    H144674   6.847   5.871   0.378
14911TIP3    H244675   6.832   5.731   0.324
14912TIP3   OH244676   7.844   4.279   4.564
14912TIP3    H144677   7.782   4.275   4.637
14912TIP3    H244678   7.904   4.349   4.587
14913TIP3   OH244679   6.801   3.686   0.619
14913TIP3    H144680   6.730   3.684   0.554
14913TIP3    H244681   6.873   3.730   0.575
14914TIP3   OH244682   2.829   6.324   6.131
14914TIP3    H144683   2.789   6.402   6.093
14914TIP3    H244684   2.863   6.353   6.215
14915TIP3   OH244685   4.715   5.153   5.634
14915TIP3    H144686   4.625   5.123   5.649
14915TIP3    H244687   4.713   5.193   5.546
14916TIP3   OH244688   7.083   7.251   6.587
14916TIP3    H144689   7.104   7.344   6.593
14916TIP3    H244690   7.083   7.220   6.677
14917TIP3   OH244691   0.441   6.661   6.363
14917TIP3    H144692   0.405   6.591   6.309
14917TIP3    H244693   0.386   6.663   6.441
14918TIP3   OH244694   1.256   4.455   1.497
14918TIP3    H144695   1.192   4.387   1.517
14918TIP3    H244696   1.333   4.430   1.548
14919TIP3   OH244697   0.918   2.003   6.043
14919TIP3    H144698   0.935   1.910   6.059
14919TIP3    H244699   0.862   2.030   6.116
14920TIP3   OH244700   4.320   3.159   2.620
14920TIP3    H144701   4.253   3.154   2.687
14920TIP3    H244702   4.403   3.152   2.668
14921TIP3   OH244703   5.909   4.443   4.452
14921TIP3    H144704   5.938   4.453   4.362
14921TIP3    H244705   5.980   4.481   4.505
14922TIP3   OH244706   2.303   0.610   0.696
14922TIP3    H144707   2.213   0.633   0.719
14922TIP3    H244708   2.296   0.574   0.608
14923TIP3   OH244709   2.050   0.088   0.154
14923TIP3    H144710   2.131   0.137   0.164
14923TIP3    H244711   1.981   0.155   0.151
14924TIP3   OH244712   5.709   5.973   2.321
14924TIP3    H144713   5.788   6.013   2.358
14924TIP3    H244714   5.660   6.046   2.285
14925TIP3   OH244715   1.023   2.802   0.778
14925TIP3    H144716   1.040   2.738   0.847
14925TIP3    H244717   0.928   2.807   0.771
14926TIP3   OH244718   4.254   4.003   2.723
14926TIP3    H144719   4.269   4.096   2.742
14926TIP3    H244720   4.252   3.998   2.627
14927TIP3   OH244721   6.509   6.717   1.946
14927TIP3    H144722   6.554   6.640   1.912
14927TIP3    H244723   6.425   6.683   1.978
14928TIP3   OH244724   4.954   2.811   3.287
14928TIP3    H144725   4.989   2.748   3.350
14928TIP3    H244726   4.926   2.758   3.213
14929TIP3   OH244727   7.965   0.078   6.803
14929TIP3    H144728   7.929   0.003   6.756
14929TIP3    H244729   7.956   0.054   6.896
14930TIP3   OH244730   8.216   1.180   4.110
14930TIP3    H144731   8.214   1.170   4.205
14930TIP3    H244732   8.260   1.100   4.078
14931TIP3   OH244733   0.294   4.080   6.689
14931TIP3    H144734   0.335   3.995   6.706
14931TIP3    H244735   0.367   4.139   6.673
14932TIP3   OH244736   1.159   2.930   2.934
14932TIP3    H144737   1.232   2.890   2.981
14932TIP3    H244738   1.092   2.862   2.931
14933TIP3   OH244739   7.747   0.285   0.530
14933TIP3    H144740   7.827   0.245   0.496
14933TIP3    H244741   7.777   0.367   0.569
14934TIP3   OH244742   0.678   5.371   6.175
14934TIP3    H144743   0.766   5.381   6.212
14934TIP3    H244744   0.631   5.449   6.202
14935TIP3   OH244745   3.431   0.218   5.205
14935TIP3    H144746   3.526   0.224   5.217
14935TIP3    H244747   3.401   0.160   5.275
14936TIP3   OH244748   0.781   2.275   3.329
14936TIP3    H144749   0.737   2.270   3.244
14936TIP3    H244750   0.774   2.367   3.354
14937TIP3   OH244751   7.130   2.967   4.736
14937TIP3    H144752   7.069   2.980   4.809
14937TIP3    H244753   7.190   2.899   4.766
14938TIP3   OH244754   4.738   7.852   2.180
14938TIP3    H144755   4.767   7.764   2.206
14938TIP3    H244756   4.684   7.837   2.102
14939TIP3   OH244757   0.467   5.600   2.683
14939TIP3    H144758   0.420   5.607   2.600
14939TIP3    H244759   0.553   5.637   2.666
14940TIP3   OH244760   0.692   1.523   1.090
14940TIP3    H144761   0.774   1.501   1.133
14940TIP3    H244762   0.686   1.461   1.017
14941TIP3   OH244763   7.637   1.771   2.124
14941TIP3    H144764   7.710   1.807   2.176
14941TIP3    H244765   7.559   1.790   2.176
14942TIP3   OH244766   5.941   4.268   0.141
14942TIP3    H144767   6.002   4.315   0.083
14942TIP3    H244768   5.995   4.208   0.190
14943TIP3   OH244769   0.451   2.354   5.902
14943TIP3    H144770   0.399   2.434   5.910
14943TIP3    H244771   0.512   2.359   5.976
14944TIP3   OH244772   3.085   2.499   2.997
14944TIP3    H144773   3.101   2.414   3.038
14944TIP3    H244774   3.103   2.484   2.904
14945TIP3   OH244775   3.090   6.856   5.049
14945TIP3    H144776   3.151   6.797   5.092
14945TIP3    H244777   3.075   6.926   5.113
14946TIP3   OH244778   2.043   4.997   3.552
14946TIP3    H144779   2.037   4.921   3.609
14946TIP3    H244780   2.011   4.966   3.467
14947TIP3   OH244781   0.117   7.538   0.647
14947TIP3    H144782   0.173   7.474   0.690
14947TIP3    H244783   0.172   7.578   0.581
14948TIP3   OH244784   0.704   1.793   1.705
14948TIP3    H144785   0.706   1.860   1.637
14948TIP3    H244786   0.761   1.723   1.671
14949TIP3   OH244787   0.553   2.394   1.550
14949TIP3    H144788   0.537   2.319   1.493
14949TIP3    H244789   0.633   2.372   1.597
14950TIP3   OH244790   5.700   7.522   1.558
14950TIP3    H144791   5.622   7.471   1.581
14950TIP3    H244792   5.680   7.558   1.472
14951TIP3   OH244793   7.184   3.315   5.520
14951TIP3    H144794   7.230   3.283   5.442
14951TIP3    H244795   7.163   3.235   5.569
14952TIP3   OH244796   0.707   3.928   3.093
14952TIP3    H144797   0.632   3.886   3.136
14952TIP3    H244798   0.779   3.867   3.107
14953TIP3   OH244799   0.497   3.962   5.134
14953TIP3    H144800   0.459   3.981   5.048
14953TIP3    H244801   0.591   3.976   5.122
14954TIP3   OH244802   3.852   6.346   4.134
14954TIP3    H144803   3.909   6.291   4.081
14954TIP3    H244804   3.901   6.362   4.214
14955TIP3   OH244805   1.754   4.678   2.017
14955TIP3    H144806   1.678   4.671   1.960
14955TIP3    H244807   1.761   4.592   2.059
14956TIP3   OH244808   2.144   5.271   5.245
14956TIP3    H144809   2.072   5.314   5.290
14956TIP3    H244810   2.131   5.293   5.152
14957TIP3   OH244811   1.094   4.294   6.177
14957TIP3    H144812   1.048   4.307   6.094
14957TIP3    H244813   1.185   4.314   6.157
14958TIP3   OH244814   6.725   2.918   6.396
14958TIP3    H144815   6.814   2.888   6.376
14958TIP3    H244816   6.700   2.970   6.321
14959TIP3   OH244817   7.216   1.605   3.157
14959TIP3    H144818   7.288   1.645   3.206
14959TIP3    H244819   7.218   1.648   3.072
14960TIP3   OH244820   3.023   6.007   4.285
14960TIP3    H144821   3.024   6.100   4.311
14960TIP3    H244822   3.001   6.008   4.192
14961TIP3   OH244823   2.378   1.544   6.572
14961TIP3    H144824   2.430   1.584   6.642
14961TIP3    H244825   2.323   1.480   6.618
14962TIP3   OH244826   6.395   2.710   5.819
14962TIP3    H144827   6.365   2.674   5.736
14962TIP3    H244828   6.444   2.789   5.795
14963TIP3   OH244829   3.990   0.540   6.599
14963TIP3    H144830   3.973   0.460   6.550
14963TIP3    H244831   4.080   0.563   6.577
14964TIP3   OH244832   3.846   7.645   0.081
14964TIP3    H144833   3.853   7.565   0.028
14964TIP3    H244834   3.906   7.630   0.154
14965TIP3   OH244835   2.671   2.742   3.154
14965TIP3    H144836   2.584   2.766   3.185
14965TIP3    H244837   2.725   2.820   3.169
14966TIP3   OH244838   3.934   2.708   1.541
14966TIP3    H144839   3.900   2.624   1.509
14966TIP3    H244840   3.911   2.710   1.633
14967TIP3   OH244841   3.567   3.747   1.042
14967TIP3    H144842   3.517   3.689   1.100
14967TIP3    H244843   3.502   3.787   0.985
14968TIP3   OH244844   7.694   0.859   0.811
14968TIP3    H144845   7.643   0.915   0.753
14968TIP3    H244846   7.655   0.772   0.800
14969TIP3   OH244847   6.095   6.624   3.759
14969TIP3    H144848   6.177   6.638   3.806
14969TIP3    H244849   6.115   6.648   3.668
14970TIP3   OH244850   7.145   6.784   3.740
14970TIP3    H144851   7.219   6.742   3.696
14970TIP3    H244852   7.126   6.862   3.687
14971TIP3   OH244853   7.609   0.444   4.180
14971TIP3    H144854   7.690   0.493   4.189
14971TIP3    H244855   7.603   0.422   4.087
14972TIP3   OH244856   5.159   3.487   3.125
14972TIP3    H144857   5.074   3.508   3.085
14972TIP3    H244858   5.150   3.396   3.152
14973TIP3   OH244859   1.178   2.296   4.190
14973TIP3    H144860   1.242   2.225   4.188
14973TIP3    H244861   1.130   2.287   4.108
14974TIP3   OH244862   4.579   0.798   1.160
14974TIP3    H144863   4.539   0.808   1.074
14974TIP3    H244864   4.673   0.796   1.144
14975TIP3   OH244865   3.286   0.748   2.237
14975TIP3    H144866   3.211   0.748   2.295
14975TIP3    H244867   3.298   0.840   2.213
14976TIP3   OH244868   1.353   6.285   4.531
14976TIP3    H144869   1.333   6.285   4.625
14976TIP3    H244870   1.323   6.200   4.500
14977TIP3   OH244871   5.401   1.901   2.889
14977TIP3    H144872   5.344   1.873   2.817
14977TIP3    H244873   5.490   1.892   2.854
14978TIP3   OH244874   5.050   5.121   0.840
14978TIP3    H144875   4.974   5.166   0.804
14978TIP3    H244876   5.106   5.192   0.873
14979TIP3   OH244877   5.210   6.148   5.631
14979TIP3    H144878   5.180   6.236   5.652
14979TIP3    H244879   5.233   6.153   5.538
14980TIP3   OH244880   1.966   7.396   3.877
14980TIP3    H144881   1.976   7.441   3.961
14980TIP3    H244882   1.890   7.339   3.889
14981TIP3   OH244883   0.180   5.103   0.539
14981TIP3    H144884   0.124   5.055   0.600
14981TIP3    H244885   0.260   5.120   0.588
14982TIP3   OH244886   7.696   7.824   3.076
14982TIP3    H144887   7.639   7.868   3.012
14982TIP3    H244888   7.692   7.880   3.153
14983TIP3   OH244889   5.929   2.917   4.687
14983TIP3    H144890   5.966   2.852   4.746
14983TIP3    H244891   5.853   2.951   4.733
14984TIP3   OH244892   0.025   1.474   6.125
14984TIP3    H144893  -0.042   1.410   6.102
14984TIP3    H244894   0.079   1.430   6.191
14985TIP3   OH244895   4.547   4.867   4.447
14985TIP3    H144896   4.554   4.774   4.424
14985TIP3    H244897   4.455   4.879   4.469
14986TIP3   OH244898   7.996   4.599   6.320
14986TIP3    H144899   8.062   4.666   6.339
14986TIP3    H244900   7.913   4.639   6.348
14987TIP3   OH244901   6.450   1.408   2.186
14987TIP3    H144902   6.375   1.450   2.229
14987TIP3    H244903   6.475   1.469   2.117
14988TIP3   OH244904   4.028   5.717   5.394
14988TIP3    H144905   4.088   5.791   5.381
14988TIP3    H244906   4.035   5.698   5.487
14989TIP3   OH244907   3.178   6.414   2.955
14989TIP3    H144908   3.211   6.487   2.902
14989TIP3    H244909   3.256   6.381   3.001
14990TIP3   OH244910   8.201   0.128   3.503
14990TIP3    H144911   8.285   0.162   3.471
14990TIP3    H244912   8.136   0.189   3.467
14991TIP3   OH244913   1.912   5.655   0.242
14991TIP3    H144914   1.860   5.728   0.210
14991TIP3    H244915   1.849   5.586   0.262
14992TIP3   OH244916   2.271   7.550   3.134
14992TIP3    H144917   2.231   7.627   3.176
14992TIP3    H244918   2.361   7.576   3.116
14993TIP3   OH244919   6.836   3.442   2.331
14993TIP3    H144920   6.792   3.361   2.356
14993TIP3    H244921   6.863   3.480   2.414
14994TIP3   OH244922   6.401   0.022   3.781
14994TIP3    H144923   6.454   0.102   3.776
14994TIP3    H244924   6.376   0.016   3.873
14995TIP3   OH244925   1.755   5.589   4.411
14995TIP3    H144926   1.668   5.564   4.381
14995TIP3    H244927   1.787   5.649   4.344
14996TIP3   OH244928   0.725   5.806   0.816
14996TIP3    H144929   0.654   5.812   0.880
14996TIP3    H244930   0.758   5.895   0.808
14997TIP3   OH244931   7.316   6.685   5.670
14997TIP3    H144932   7.255   6.720   5.604
14997TIP3    H244933   7.261   6.667   5.746
14998TIP3   OH244934   1.586   2.936   5.882
14998TIP3    H144935   1.545   3.020   5.900
14998TIP3    H244936   1.592   2.893   5.967
14999TIP3   OH244937   6.941   0.301   1.152
14999TIP3    H144938   7.030   0.298   1.188
14999TIP3    H244939   6.953   0.338   1.064
15000TIP3   OH244940   6.624   1.742   3.614
15000TIP3    H144941   6.640   1.665   3.669
15000TIP3    H244942   6.579   1.707   3.537
15001TIP3   OH244943   4.376   2.638   1.622
15001TIP3    H144944   4.459   2.593   1.613
15001TIP3    H244945   4.392   2.726   1.587
15002TIP3   OH244946   0.636   3.297   1.160
15002TIP3    H144947   0.701   3.344   1.108
15002TIP3    H244948   0.579   3.256   1.094
15003TIP3   OH244949   3.625   1.468   0.881
15003TIP3    H144950   3.623   1.425   0.966
15003TIP3    H244951   3.716   1.496   0.870
15004TIP3   OH244952   4.633   1.031   0.883
15004TIP3    H144953   4.575   0.959   0.861
15004TIP3    H244954   4.720   0.993   0.882
15005TIP3   OH244955   0.216   7.631   2.076
15005TIP3    H144956   0.188   7.694   2.011
15005TIP3    H244957   0.135   7.596   2.113
15006TIP3   OH244958   6.036   5.841   4.817
15006TIP3    H144959   6.001   5.921   4.777
15006TIP3    H244960   6.100   5.808   4.754
15007TIP3   OH244961   8.268   4.841   0.897
15007TIP3    H144962   8.298   4.751   0.886
15007TIP3    H244963   8.174   4.838   0.877
15008TIP3   OH244964   7.404   5.540   3.180
15008TIP3    H144965   7.423   5.495   3.262
15008TIP3    H244966   7.393   5.632   3.204
15009TIP3   OH244967   7.108   2.240   5.929
15009TIP3    H144968   7.082   2.314   5.983
15009TIP3    H244969   7.134   2.172   5.991
15010TIP3   OH244970   1.813   6.881   3.569
15010TIP3    H144971   1.719   6.868   3.584
15010TIP3    H244972   1.853   6.854   3.652
15011TIP3   OH244973   6.450   5.942   1.266
15011TIP3    H144974   6.369   5.978   1.231
15011TIP3    H244975   6.442   5.848   1.253
15012TIP3   OH244976   6.339   7.616   2.184
15012TIP3    H144977   6.428   7.634   2.213
15012TIP3    H244978   6.289   7.693   2.209
15013TIP3   OH244979   1.199   0.839   2.940
15013TIP3    H144980   1.219   0.915   2.885
15013TIP3    H244981   1.194   0.766   2.880
15014TIP3   OH244982   1.892   3.894   6.630
15014TIP3    H144983   1.936   3.848   6.701
15014TIP3    H244984   1.811   3.927   6.669
15015TIP3   OH244985   6.337   1.272   6.638
15015TIP3    H144986   6.303   1.214   6.571
15015TIP3    H244987   6.269   1.339   6.649
15016TIP3   OH244988   1.141   6.061   6.477
15016TIP3    H144989   1.221   6.096   6.515
15016TIP3    H244990   1.103   6.133   6.428
15017TIP3   OH244991   2.223   0.875   3.546
15017TIP3    H144992   2.132   0.868   3.575
15017TIP3    H244993   2.222   0.836   3.458
15018TIP3   OH244994   1.204   1.362   2.260
15018TIP3    H144995   1.192   1.342   2.353
15018TIP3    H244996   1.285   1.414   2.258
15019TIP3   OH244997   7.218   0.160   3.874
15019TIP3    H144998   7.134   0.144   3.831
15019TIP3    H244999   7.284   0.124   3.814
15020TIP3   OH245000   4.052   0.774   0.502
15020TIP3    H145001   4.005   0.853   0.476
15020TIP3    H245002   4.082   0.793   0.591
15021TIP3   OH245003   2.275   4.610   4.880
15021TIP3    H145004   2.238   4.530   4.842
15021TIP3    H245005   2.293   4.587   4.971
15022TIP3   OH245006   5.625   2.026   0.971
15022TIP3    H145007   5.544   2.071   0.948
15022TIP3    H245008   5.635   1.958   0.904
15023TIP3   OH245009   5.193   5.267   0.270
15023TIP3    H145010   5.246   5.201   0.226
15023TIP3    H245011   5.242   5.348   0.260
15024TIP3   OH245012   7.146   6.668   4.663
15024TIP3    H145013   7.186   6.727   4.598
15024TIP3    H245014   7.164   6.580   4.629
15025TIP3   OH245015   4.741   7.112   4.929
15025TIP3    H145016   4.722   7.084   4.839
15025TIP3    H245017   4.676   7.180   4.947
15026TIP3   OH245018   1.904   7.638   6.251
15026TIP3    H145019   1.910   7.622   6.345
15026TIP3    H245020   1.994   7.650   6.223
15027TIP3   OH245021   8.299   2.994   3.370
15027TIP3    H145022   8.258   2.911   3.345
15027TIP3    H245023   8.225   3.052   3.390
15028TIP3   OH245024   5.149   2.508   2.839
15028TIP3    H145025   5.208   2.434   2.822
15028TIP3    H245026   5.177   2.575   2.777
15029TIP3   OH245027   7.210   1.538   6.701
15029TIP3    H145028   7.292   1.506   6.737
15029TIP3    H245029   7.224   1.632   6.688
15030TIP3   OH245030   3.134   7.821   4.871
15030TIP3    H145031   3.040   7.812   4.883
15030TIP3    H245032   3.155   7.758   4.802
15031TIP3   OH245033   7.864   1.574   2.960
15031TIP3    H145034   7.804   1.648   2.965
15031TIP3    H245035   7.821   1.513   2.900
15032TIP3   OH245036   5.946   4.806   6.642
15032TIP3    H145037   5.973   4.732   6.697
15032TIP3    H245038   5.859   4.829   6.674
15033TIP3   OH245039   2.636   0.576   3.041
15033TIP3    H145040   2.656   0.541   2.954
15033TIP3    H245041   2.582   0.509   3.083
15034TIP3   OH245042   4.693   5.703   0.989
15034TIP3    H145043   4.622   5.710   0.926
15034TIP3    H245044   4.660   5.749   1.067
15035TIP3   OH245045   3.064   6.157   0.072
15035TIP3    H145046   3.040   6.195  -0.013
15035TIP3    H245047   3.002   6.084   0.084
15036TIP3   OH245048   2.466   3.297   4.751
15036TIP3    H145049   2.393   3.269   4.807
15036TIP3    H245050   2.512   3.363   4.803
15037TIP3   OH245051   5.240   3.001   5.909
15037TIP3    H145052   5.200   3.086   5.894
15037TIP3    H245053   5.192   2.965   5.984
15038TIP3   OH245054   1.462   0.640   4.702
15038TIP3    H145055   1.553   0.645   4.730
15038TIP3    H245056   1.425   0.567   4.752
15039TIP3   OH245057   0.206   4.431   5.203
15039TIP3    H145058   0.264   4.405   5.131
15039TIP3    H245059   0.265   4.446   5.276
15040TIP3   OH245060   7.113   1.450   2.527
15040TIP3    H145061   7.052   1.433   2.455
15040TIP3    H245062   7.186   1.391   2.511
15041TIP3   OH245063   3.626   0.118   6.063
15041TIP3    H145064   3.712   0.103   6.023
15041TIP3    H245065   3.606   0.036   6.107
15042TIP3   OH245066   5.362   0.460   5.475
15042TIP3    H145067   5.420   0.444   5.401
15042TIP3    H245068   5.401   0.411   5.547
15043TIP3   OH245069   6.445   6.319   2.349
15043TIP3    H145070   6.406   6.277   2.425
15043TIP3    H245071   6.372   6.332   2.288
15044TIP3   OH245072   5.339   0.074   5.358
15044TIP3    H145073   5.401   0.055   5.428
15044TIP3    H245074   5.357   0.009   5.291
15045TIP3   OH245075   0.038   3.460   4.137
15045TIP3    H145076  -0.011   3.393   4.090
15045TIP3    H245077   0.096   3.410   4.195
15046TIP3   OH245078   3.835   7.266   4.635
15046TIP3    H145079   3.821   7.294   4.726
15046TIP3    H245080   3.902   7.325   4.602
15047TIP3   OH245081   6.845   6.561   1.842
15047TIP3    H145082   6.872   6.623   1.775
15047TIP3    H245083   6.903   6.486   1.830
15048TIP3   OH245084   3.453   1.686   3.785
15048TIP3    H145085   3.507   1.683   3.706
15048TIP3    H245086   3.380   1.743   3.762
15049TIP3   OH245087   6.102   5.066   0.774
15049TIP3    H145088   6.058   5.082   0.858
15049TIP3    H245089   6.051   5.117   0.711
15050TIP3   OH245090   4.715   1.981   3.523
15050TIP3    H145091   4.724   2.076   3.528
15050TIP3    H245092   4.790   1.952   3.471
15051TIP3   OH245093   1.655   4.045   6.559
15051TIP3    H145094   1.637   4.123   6.611
15051TIP3    H245095   1.746   4.055   6.532
15052TIP3   OH245096   5.307   0.343   5.961
15052TIP3    H145097   5.283   0.290   6.037
15052TIP3    H245098   5.238   0.409   5.955
15053TIP3   OH245099   5.358   5.280   0.553
15053TIP3    H145100   5.429   5.316   0.500
15053TIP3    H245101   5.326   5.205   0.503
15054TIP3   OH245102   3.132   5.127   1.379
15054TIP3    H145103   3.066   5.066   1.347
15054TIP3    H245104   3.214   5.097   1.340
15055TIP3   OH245105   0.381   2.704   2.279
15055TIP3    H145106   0.468   2.743   2.286
15055TIP3    H245107   0.396   2.610   2.290
15056TIP3   OH245108   4.807   4.685   4.413
15056TIP3    H145109   4.758   4.658   4.491
15056TIP3    H245110   4.809   4.780   4.418
15057TIP3   OH245111   4.283   0.884   1.284
15057TIP3    H145112   4.209   0.909   1.228
15057TIP3    H245113   4.348   0.851   1.222
15058TIP3   OH245114   2.000   6.411   2.167
15058TIP3    H145115   1.966   6.341   2.223
15058TIP3    H245116   1.931   6.478   2.169
15059TIP3   OH245117   5.878   6.937   1.197
15059TIP3    H145118   5.923   7.013   1.161
15059TIP3    H245119   5.909   6.932   1.288
15060TIP3   OH245120   5.943   2.852   5.773
15060TIP3    H145121   5.925   2.890   5.687
15060TIP3    H245122   5.933   2.924   5.834
15061TIP3   OH245123   4.649   3.731   5.055
15061TIP3    H145124   4.572   3.704   5.105
15061TIP3    H245125   4.663   3.822   5.079
15062TIP3   OH245126   0.687   5.061   2.456
15062TIP3    H145127   0.691   5.018   2.542
15062TIP3    H245128   0.669   5.153   2.476
15063TIP3   OH245129   2.500   5.628   0.549
15063TIP3    H145130   2.592   5.648   0.566
15063TIP3    H245131   2.499   5.590   0.461
15064TIP3   OH245132   0.616   6.870   2.114
15064TIP3    H145133   0.582   6.815   2.044
15064TIP3    H245134   0.551   6.940   2.124
15065TIP3   OH245135   4.684   1.521   3.296
15065TIP3    H145136   4.645   1.599   3.258
15065TIP3    H245137   4.774   1.519   3.264
15066TIP3   OH245138   0.555   7.130   3.211
15066TIP3    H145139   0.519   7.136   3.123
15066TIP3    H245140   0.507   7.058   3.252
15067TIP3   OH245141   1.062   0.716   4.779
15067TIP3    H145142   1.046   0.698   4.872
15067TIP3    H245143   0.975   0.713   4.739
15068TIP3   OH245144   2.172   6.132   2.733
15068TIP3    H145145   2.079   6.112   2.724
15068TIP3    H245146   2.182   6.219   2.695
15069TIP3   OH245147   0.320   4.044   3.334
15069TIP3    H145148   0.301   4.075   3.246
15069TIP3    H245149   0.294   4.115   3.392
15070TIP3   OH245150   3.512   0.204   0.497
15070TIP3    H145151   3.574   0.271   0.465
15070TIP3    H245152   3.559   0.162   0.569
15071TIP3   OH245153   6.912   1.245   4.805
15071TIP3    H145154   6.973   1.241   4.731
15071TIP3    H245155   6.956   1.302   4.868
15072TIP3   OH245156   2.584   6.254   1.493
15072TIP3    H145157   2.630   6.317   1.548
15072TIP3    H245158   2.547   6.307   1.422
15073TIP3   OH245159   5.407   4.528   6.491
15073TIP3    H145160   5.492   4.508   6.532
15073TIP3    H245161   5.415   4.619   6.463
15074TIP3   OH245162   2.331   4.729   0.724
15074TIP3    H145163   2.405   4.669   0.730
15074TIP3    H245164   2.345   4.791   0.796
15075TIP3   OH245165   3.731   2.387   3.796
15075TIP3    H145166   3.782   2.443   3.737
15075TIP3    H245167   3.640   2.410   3.776
15076TIP3   OH245168   4.302   1.491   5.524
15076TIP3    H145169   4.268   1.490   5.435
15076TIP3    H245170   4.393   1.463   5.516
15077TIP3   OH245171   4.042   2.029   0.655
15077TIP3    H145172   4.056   1.966   0.584
15077TIP3    H245173   3.951   2.057   0.644
15078TIP3   OH245174   4.550   6.910   6.810
15078TIP3    H145175   4.506   6.953   6.883
15078TIP3    H245176   4.480   6.889   6.749
15079TIP3   OH245177   2.734   6.869   5.884
15079TIP3    H145178   2.817   6.838   5.847
15079TIP3    H245179   2.738   6.844   5.976
15080TIP3   OH245180   4.874   6.061   6.083
15080TIP3    H145181   4.953   6.084   6.132
15080TIP3    H245182   4.906   6.013   6.007
15081TIP3   OH245183   8.175   7.684   4.745
15081TIP3    H145184   8.239   7.712   4.810
15081TIP3    H245185   8.130   7.765   4.720
15082TIP3   OH245186   3.889   1.205   0.674
15082TIP3    H145187   3.901   1.238   0.585
15082TIP3    H245188   3.879   1.111   0.664
15083TIP3   OH245189   4.651   6.597   5.357
15083TIP3    H145190   4.659   6.575   5.449
15083TIP3    H245191   4.705   6.533   5.311
15084TIP3   OH245192   6.723   7.304   5.168
15084TIP3    H145193   6.804   7.283   5.121
15084TIP3    H245194   6.654   7.294   5.103
15085TIP3   OH245195   0.311   3.799   0.960
15085TIP3    H145196   0.297   3.805   0.865
15085TIP3    H245197   0.400   3.831   0.973
15086TIP3   OH245198   7.784   5.225   5.219
15086TIP3    H145199   7.787   5.255   5.128
15086TIP3    H245200   7.788   5.306   5.271
15087TIP3   OH245201   0.173   4.854   3.309
15087TIP3    H145202   0.091   4.902   3.297
15087TIP3    H245203   0.230   4.916   3.355
15088TIP3   OH245204   3.751   0.928   0.117
15088TIP3    H145205   3.669   0.967   0.088
15088TIP3    H245206   3.809   0.932   0.040
15089TIP3   OH245207   4.333   0.191   3.023
15089TIP3    H145208   4.380   0.115   3.059
15089TIP3    H245209   4.257   0.201   3.080
15090TIP3   OH245210   8.233   2.976   3.647
15090TIP3    H145211   8.261   2.986   3.556
15090TIP3    H245212   8.165   2.908   3.644
15091TIP3   OH245213   4.970   0.373   0.348
15091TIP3    H145214   4.890   0.342   0.306
15091TIP3    H245215   5.034   0.379   0.278
15092TIP3   OH245216   5.792   3.069   6.069
15092TIP3    H145217   5.832   3.156   6.066
15092TIP3    H245218   5.700   3.085   6.046
15093TIP3   OH245219   5.010   2.294   5.647
15093TIP3    H145220   5.018   2.274   5.740
15093TIP3    H245221   5.095   2.271   5.610
15094TIP3   OH245222   4.286   7.108   5.374
15094TIP3    H145223   4.236   7.082   5.451
15094TIP3    H245224   4.364   7.151   5.409
15095TIP3   OH245225   1.492   6.416   4.883
15095TIP3    H145226   1.444   6.421   4.965
15095TIP3    H245227   1.425   6.411   4.815
15096TIP3   OH245228   3.889   7.200   1.680
15096TIP3    H145229   3.806   7.153   1.684
15096TIP3    H245230   3.950   7.147   1.731
15097TIP3   OH245231   4.167   7.501   3.602
15097TIP3    H145232   4.127   7.524   3.686
15097TIP3    H245233   4.163   7.405   3.600
15098TIP3   OH245234   7.004   4.819   3.959
15098TIP3    H145235   7.075   4.767   3.996
15098TIP3    H245236   6.978   4.879   4.030
15099TIP3   OH245237   3.141   1.111   3.928
15099TIP3    H145238   3.104   1.174   3.990
15099TIP3    H245239   3.091   1.031   3.942
15100TIP3   OH245240   3.606   2.361   0.890
15100TIP3    H145241   3.678   2.409   0.850
15100TIP3    H245242   3.645   2.315   0.964
15101TIP3   OH245243   4.585   4.819   0.423
15101TIP3    H145244   4.655   4.789   0.482
15101TIP3    H245245   4.518   4.751   0.430
15102TIP3   OH245246   0.824   6.668   5.217
15102TIP3    H145247   0.844   6.648   5.125
15102TIP3    H245248   0.856   6.758   5.229
15103TIP3   OH245249   0.744   1.651   3.625
15103TIP3    H145250   0.788   1.726   3.664
15103TIP3    H245251   0.695   1.687   3.552
15104TIP3   OH245252   1.835   2.846   2.615
15104TIP3    H145253   1.923   2.884   2.623
15104TIP3    H245254   1.813   2.856   2.522
15105TIP3   OH245255   2.281   4.547   6.404
15105TIP3    H145256   2.343   4.619   6.394
15105TIP3    H245257   2.195   4.589   6.401
15106TIP3   OH245258   4.470   7.702   3.076
15106TIP3    H145259   4.549   7.742   3.039
15106TIP3    H245260   4.400   7.731   3.017
15107TIP3   OH245261   3.975   3.431   0.387
15107TIP3    H145262   3.995   3.518   0.352
15107TIP3    H245263   4.004   3.435   0.478
15108TIP3   OH245264   3.857   2.041   1.302
15108TIP3    H145265   3.853   1.965   1.359
15108TIP3    H245266   3.884   2.113   1.359
15109TIP3   OH245267   0.357   2.524   1.292
15109TIP3    H145268   0.377   2.615   1.316
15109TIP3    H245269   0.398   2.513   1.206
15110TIP3   OH245270   3.432   7.638   6.345
15110TIP3    H145271   3.355   7.695   6.340
15110TIP3    H245272   3.425   7.597   6.432
15111TIP3   OH245273   1.628   1.661   6.413
15111TIP3    H145274   1.676   1.617   6.343
15111TIP3    H245275   1.612   1.593   6.479
15112TIP3   OH245276   3.495   1.892   6.811
15112TIP3    H145277   3.544   1.837   6.872
15112TIP3    H245278   3.526   1.981   6.827
15113TIP3   OH245279   5.655   5.807   5.691
15113TIP3    H145280   5.679   5.775   5.604
15113TIP3    H245281   5.570   5.849   5.678
15114TIP3   OH245282   1.186   2.569   0.892
15114TIP3    H145283   1.133   2.498   0.855
15114TIP3    H245284   1.264   2.571   0.837
15115TIP3   OH245285   3.802   2.393   2.094
15115TIP3    H145286   3.721   2.438   2.069
15115TIP3    H245287   3.798   2.387   2.189
15116TIP3   OH245288   1.539   2.765   1.190
15116TIP3    H145289   1.537   2.771   1.286
15116TIP3    H245290   1.624   2.724   1.171
15117TIP3   OH245291   3.772   4.896   1.883
15117TIP3    H145292   3.840   4.932   1.826
15117TIP3    H245293   3.772   4.802   1.863
15118TIP3   OH245294   7.501   3.060   1.564
15118TIP3    H145295   7.579   3.093   1.518
15118TIP3    H245296   7.525   3.062   1.656
15119TIP3   OH245297   5.364   6.484   4.129
15119TIP3    H145298   5.277   6.467   4.094
15119TIP3    H245299   5.419   6.497   4.051
15120TIP3   OH245300   6.215   0.235   1.005
15120TIP3    H145301   6.228   0.169   0.937
15120TIP3    H245302   6.187   0.185   1.082
15121TIP3   OH245303   0.307   6.757   4.412
15121TIP3    H145304   0.221   6.719   4.395
15121TIP3    H245305   0.298   6.799   4.498
15122TIP3   OH245306   5.180   3.264   4.939
15122TIP3    H145307   5.206   3.352   4.912
15122TIP3    H245308   5.171   3.215   4.857
15123TIP3   OH245309   3.214   5.218   2.308
15123TIP3    H145310   3.224   5.133   2.266
15123TIP3    H245311   3.275   5.275   2.260
15124TIP3   OH245312   4.720   0.326   5.950
15124TIP3    H145313   4.678   0.327   5.864
15124TIP3    H245314   4.656   0.283   6.007
15125TIP3   OH245315   0.879   3.308   3.847
15125TIP3    H145316   0.898   3.217   3.821
15125TIP3    H245317   0.806   3.334   3.791
15126TIP3   OH245318   3.075   4.869   6.374
15126TIP3    H145319   3.051   4.955   6.409
15126TIP3    H245320   3.044   4.871   6.283
15127TIP3   OH245321   4.414   7.544   0.492
15127TIP3    H145322   4.467   7.521   0.569
15127TIP3    H245323   4.323   7.532   0.521
15128TIP3   OH245324   0.569   3.322   4.451
15128TIP3    H145325   0.525   3.249   4.495
15128TIP3    H245326   0.505   3.393   4.452
15129TIP3   OH245327   4.554   7.111   4.412
15129TIP3    H145328   4.622   7.108   4.345
15129TIP3    H245329   4.493   7.178   4.381
15130TIP3   OH245330   5.553   3.863   2.229
15130TIP3    H145331   5.616   3.925   2.192
15130TIP3    H245332   5.605   3.810   2.290
15131TIP3   OH245333   6.972   3.565   1.492
15131TIP3    H145334   6.933   3.557   1.579
15131TIP3    H245335   6.970   3.476   1.457
15132TIP3   OH245336   6.812   2.781   1.425
15132TIP3    H145337   6.789   2.688   1.417
15132TIP3    H245338   6.902   2.781   1.459
15133TIP3   OH245339   5.928   3.357   6.084
15133TIP3    H145340   5.941   3.382   6.176
15133TIP3    H245341   6.016   3.335   6.053
15134TIP3   OH245342   4.224   7.288   6.151
15134TIP3    H145343   4.305   7.331   6.125
15134TIP3    H245344   4.198   7.237   6.074
15135TIP3   OH245345   1.442   7.866   0.009
15135TIP3    H145346   1.414   7.803  -0.057
15135TIP3    H245347   1.492   7.814   0.072
15136TIP3   OH245348   1.907   7.896   3.694
15136TIP3    H145349   1.939   7.958   3.759
15136TIP3    H245350   1.812   7.895   3.706
15137TIP3   OH245351   8.089   5.512   5.317
15137TIP3    H145352   8.107   5.435   5.263
15137TIP3    H245353   8.022   5.561   5.268
15138TIP3   OH245354   5.357   0.884   1.412
15138TIP3    H145355   5.300   0.942   1.462
15138TIP3    H245356   5.325   0.891   1.322
15139TIP3   OH245357   5.345   7.746   6.860
15139TIP3    H145358   5.347   7.700   6.776
15139TIP3    H245359   5.401   7.695   6.918
15140TIP3   OH245360   6.112   2.199   1.596
15140TIP3    H145361   6.125   2.120   1.544
15140TIP3    H245362   6.044   2.248   1.548
15141TIP3   OH245363   4.876   3.702   5.325
15141TIP3    H145364   4.819   3.779   5.323
15141TIP3    H245365   4.820   3.630   5.298
15142TIP3   OH245366   0.676   6.808   2.381
15142TIP3    H145367   0.692   6.814   2.287
15142TIP3    H245368   0.755   6.765   2.415
15143TIP3   OH245369   5.690   1.037   5.700
15143TIP3    H145370   5.671   1.124   5.665
15143TIP3    H245371   5.682   1.048   5.795
15144TIP3   OH245372   2.890   3.308   1.034
15144TIP3    H145373   2.936   3.390   1.017
15144TIP3    H245374   2.798   3.332   1.035
15145TIP3   OH245375   4.553   2.323   3.754
15145TIP3    H145376   4.488   2.256   3.776
15145TIP3    H245377   4.627   2.273   3.719
15146TIP3   OH245378   1.832   5.573   1.541
15146TIP3    H145379   1.897   5.620   1.593
15146TIP3    H245380   1.861   5.481   1.545
15147TIP3   OH245381   0.485   1.808   1.886
15147TIP3    H145382   0.467   1.747   1.958
15147TIP3    H245383   0.574   1.786   1.858
15148TIP3   OH245384   1.325   2.671   4.887
15148TIP3    H145385   1.256   2.703   4.829
15148TIP3    H245386   1.405   2.682   4.836
15149TIP3   OH245387   2.834   3.492   6.378
15149TIP3    H145388   2.874   3.514   6.462
15149TIP3    H245389   2.879   3.413   6.349
15150TIP3   OH245390   5.935   4.056   4.235
15150TIP3    H145391   5.905   3.997   4.304
15150TIP3    H245392   6.019   4.020   4.207
15151TIP3   OH245393   4.724   2.966   5.031
15151TIP3    H145394   4.635   2.963   4.997
15151TIP3    H245395   4.714   2.960   5.126
15152TIP3   OH245396   3.945   5.436   3.430
15152TIP3    H145397   4.016   5.375   3.415
15152TIP3    H245398   3.949   5.497   3.356
15153TIP3   OH245399   3.845   0.157   1.045
15153TIP3    H145400   3.915   0.205   1.090
15153TIP3    H245401   3.764   0.188   1.085
15154TIP3   OH245402   6.203   4.448   5.485
15154TIP3    H145403   6.260   4.377   5.454
15154TIP3    H245404   6.115   4.419   5.465
15155TIP3   OH245405   8.196   3.962   4.509
15155TIP3    H145406   8.117   3.980   4.560
15155TIP3    H245407   8.244   3.898   4.561
15156TIP3   OH245408   6.856   7.229   4.151
15156TIP3    H145409   6.845   7.152   4.208
15156TIP3    H245410   6.777   7.281   4.166
15157TIP3   OH245411   3.759   6.033   4.558
15157TIP3    H145412   3.729   6.042   4.648
15157TIP3    H245413   3.728   5.946   4.531
15158TIP3   OH245414   7.917   1.552   0.546
15158TIP3    H145415   7.943   1.462   0.524
15158TIP3    H245416   7.890   1.590   0.462
15159TIP3   OH245417   5.488   3.081   5.994
15159TIP3    H145418   5.406   3.075   5.946
15159TIP3    H245419   5.474   3.030   6.074
15160TIP3   OH245420   6.155   3.905   0.789
15160TIP3    H145421   6.131   3.833   0.732
15160TIP3    H245422   6.170   3.865   0.874
15161TIP3   OH245423   3.310   1.769   4.169
15161TIP3    H145424   3.312   1.848   4.222
15161TIP3    H245425   3.325   1.800   4.080
15162TIP3   OH245426   8.085   1.838   1.284
15162TIP3    H145427   8.050   1.796   1.205
15162TIP3    H245428   8.012   1.840   1.345
15163TIP3   OH245429   1.020   5.783   1.581
15163TIP3    H145430   0.985   5.844   1.646
15163TIP3    H245431   1.051   5.708   1.632
15164TIP3   OH245432   5.331   4.595   0.310
15164TIP3    H145433   5.351   4.502   0.323
15164TIP3    H245434   5.413   4.641   0.330
15165TIP3   OH245435   7.961   3.143   4.587
15165TIP3    H145436   7.912   3.069   4.623
15165TIP3    H245437   7.901   3.185   4.526
15166TIP3   OH245438   7.698   5.440   4.567
15166TIP3    H145439   7.607   5.425   4.543
15166TIP3    H245440   7.738   5.353   4.565
15167TIP3   OH245441   4.325   5.992   2.593
15167TIP3    H145442   4.266   5.993   2.518
15167TIP3    H245443   4.407   5.956   2.559
15168TIP3   OH245444   0.700   2.032   3.073
15168TIP3    H145445   0.657   1.966   3.017
15168TIP3    H245446   0.718   2.105   3.014
15169TIP3   OH245447   6.390   2.055   3.037
15169TIP3    H145448   6.438   2.020   2.962
15169TIP3    H245449   6.456   2.068   3.104
15170TIP3   OH245450   0.688   6.139   5.545
15170TIP3    H145451   0.721   6.137   5.455
15170TIP3    H245452   0.614   6.199   5.542
15171TIP3   OH245453   4.440   4.156   6.853
15171TIP3    H145454   4.349   4.179   6.834
15171TIP3    H245455   4.481   4.147   6.766
15172TIP3   OH245456   1.125   6.618   2.328
15172TIP3    H145457   1.194   6.671   2.366
15172TIP3    H245458   1.055   6.617   2.394
15173TIP3   OH245459   1.775   5.845   1.793
15173TIP3    H145460   1.830   5.922   1.809
15173TIP3    H245461   1.833   5.770   1.807
15174TIP3   OH245462   2.888   1.220   5.816
15174TIP3    H145463   2.831   1.230   5.741
15174TIP3    H245464   2.977   1.228   5.780
15175TIP3   OH245465   7.805   4.183   2.695
15175TIP3    H145466   7.824   4.090   2.708
15175TIP3    H245467   7.881   4.228   2.729
15176TIP3   OH245468   5.570   0.981   6.722
15176TIP3    H145469   5.503   1.006   6.786
15176TIP3    H245470   5.591   0.890   6.744
15177TIP3   OH245471   1.167   1.060   0.784
15177TIP3    H145472   1.129   1.111   0.855
15177TIP3    H245473   1.114   1.083   0.707
15178TIP3   OH245474   1.485   6.487   4.414
15178TIP3    H145475   1.577   6.461   4.410
15178TIP3    H245476   1.441   6.415   4.459
15179TIP3   OH245477   7.005   4.427   1.566
15179TIP3    H145478   7.011   4.366   1.640
15179TIP3    H245479   7.040   4.379   1.492
15180TIP3   OH245480   1.357   7.052   5.466
15180TIP3    H145481   1.421   7.042   5.537
15180TIP3    H245482   1.405   7.030   5.387
15181TIP3   OH245483   3.675   2.320   4.181
15181TIP3    H145484   3.648   2.395   4.234
15181TIP3    H245485   3.721   2.358   4.107
15182TIP3   OH245486   8.416   4.576   1.337
15182TIP3    H145487   8.324   4.593   1.354
15182TIP3    H245488   8.431   4.608   1.248
15183TIP3   OH245489   3.875   0.001   3.658
15183TIP3    H145490   3.785  -0.009   3.690
15183TIP3    H245491   3.918   0.055   3.724
15184TIP3   OH245492   3.898   0.551   0.375
15184TIP3    H145493   3.980   0.571   0.420
15184TIP3    H245494   3.840   0.624   0.397
15185TIP3   OH245495   0.150   7.696   6.458
15185TIP3    H145496   0.121   7.736   6.540
15185TIP3    H245497   0.226   7.747   6.432
15186TIP3   OH245498   5.802   3.900   2.764
15186TIP3    H145499   5.837   3.885   2.677
15186TIP3    H245500   5.709   3.921   2.749
15187TIP3   OH245501   3.501   3.507   1.847
15187TIP3    H145502   3.590   3.514   1.881
15187TIP3    H245503   3.454   3.579   1.888
15188TIP3   OH245504   3.277   7.653   5.433
15188TIP3    H145505   3.325   7.669   5.514
15188TIP3    H245506   3.200   7.709   5.438
15189TIP3   OH245507   2.589   1.853   3.014
15189TIP3    H145508   2.511   1.898   3.048
15189TIP3    H245509   2.586   1.868   2.919
15190TIP3   OH245510   3.093   1.099   0.430
15190TIP3    H145511   3.096   1.087   0.335
15190TIP3    H245512   3.179   1.069   0.460
15191TIP3   OH245513   7.815   4.512   5.052
15191TIP3    H145514   7.727   4.525   5.016
15191TIP3    H245515   7.806   4.436   5.109
15192TIP3   OH245516   3.261   4.143   6.098
15192TIP3    H145517   3.225   4.191   6.024
15192TIP3    H245518   3.277   4.211   6.164
15193TIP3   OH245519   0.593   0.968   1.108
15193TIP3    H145520   0.575   0.874   1.097
15193TIP3    H245521   0.520   1.011   1.063
15194TIP3   OH245522   3.346   0.753   3.705
15194TIP3    H145523   3.259   0.772   3.739
15194TIP3    H245524   3.377   0.680   3.759
15195TIP3   OH245525   0.592   3.083   2.684
15195TIP3    H145526   0.496   3.078   2.683
15195TIP3    H245527   0.620   3.017   2.620
15196TIP3   OH245528   5.443   3.174   3.231
15196TIP3    H145529   5.423   3.227   3.154
15196TIP3    H245530   5.366   3.119   3.243
15197TIP3   OH245531   1.326   0.417   1.338
15197TIP3    H145532   1.246   0.372   1.364
15197TIP3    H245533   1.382   0.348   1.301
15198TIP3   OH245534   7.423   2.667   5.767
15198TIP3    H145535   7.494   2.606   5.787
15198TIP3    H245536   7.358   2.652   5.836
15199TIP3   OH245537   7.527   4.995   1.673
15199TIP3    H145538   7.467   4.922   1.684
15199TIP3    H245539   7.479   5.059   1.620
15200TIP3   OH245540   6.738   4.748   5.708
15200TIP3    H145541   6.747   4.731   5.801
15200TIP3    H245542   6.711   4.840   5.702
15201TIP3   OH245543   0.614   5.990   2.188
15201TIP3    H145544   0.602   6.063   2.249
15201TIP3    H245545   0.688   6.015   2.134
15202TIP3   OH245546   8.219   5.810   3.303
15202TIP3    H145547   8.274   5.869   3.252
15202TIP3    H245548   8.264   5.726   3.300
15203TIP3   OH245549   5.525   5.346   5.343
15203TIP3    H145550   5.492   5.283   5.407
15203TIP3    H245551   5.536   5.296   5.263
15204TIP3   OH245552   3.407   5.076   1.337
15204TIP3    H145553   3.403   4.981   1.329
15204TIP3    H245554   3.491   5.101   1.297
15205TIP3   OH245555   7.037   0.777   3.451
15205TIP3    H145556   6.996   0.691   3.446
15205TIP3    H245557   7.064   0.785   3.543
15206TIP3   OH245558   0.167   2.800   2.804
15206TIP3    H145559   0.157   2.841   2.889
15206TIP3    H245560   0.086   2.750   2.791
15207TIP3   OH245561   1.992   1.547   5.685
15207TIP3    H145562   1.921   1.484   5.700
15207TIP3    H245563   1.988   1.566   5.591
15208TIP3   OH245564   7.094   7.594   2.193
15208TIP3    H145565   7.109   7.502   2.217
15208TIP3    H245566   7.011   7.617   2.236
15209TIP3   OH245567   1.046   5.970   4.276
15209TIP3    H145568   1.073   6.022   4.200
15209TIP3    H245569   1.091   5.886   4.265
15210TIP3   OH245570   2.592   1.230   4.286
15210TIP3    H145571   2.543   1.309   4.266
15210TIP3    H245572   2.612   1.192   4.201
15211TIP3   OH245573   1.168   0.019   3.396
15211TIP3    H145574   1.127  -0.060   3.361
15211TIP3    H245575   1.194   0.069   3.319
15212TIP3   OH245576   7.278   4.811   2.579
15212TIP3    H145577   7.308   4.750   2.511
15212TIP3    H245578   7.355   4.825   2.634
15213TIP3   OH245579   0.532   3.121   1.454
15213TIP3    H145580   0.525   3.198   1.397
15213TIP3    H245581   0.441   3.099   1.475
15214TIP3   OH245582   0.459   4.363   3.508
15214TIP3    H145583   0.432   4.438   3.456
15214TIP3    H245584   0.380   4.310   3.518
15215TIP3   OH245585   4.173   0.404   2.134
15215TIP3    H145586   4.215   0.329   2.176
15215TIP3    H245587   4.206   0.403   2.044
15216TIP3   OH245588   0.490   2.645   6.689
15216TIP3    H145589   0.464   2.708   6.622
15216TIP3    H245590   0.465   2.560   6.654
15217TIP3   OH245591   6.546   2.272   5.492
15217TIP3    H145592   6.570   2.185   5.524
15217TIP3    H245593   6.496   2.255   5.412
15218TIP3   OH245594   2.445   7.842   3.923
15218TIP3    H145595   2.489   7.862   4.005
15218TIP3    H245596   2.494   7.769   3.886
15219TIP3   OH245597   4.208   4.679   1.325
15219TIP3    H145598   4.195   4.683   1.419
15219TIP3    H245599   4.301   4.659   1.314
15220TIP3   OH245600   1.067   2.407   3.213
15220TIP3    H145601   1.137   2.386   3.152
15220TIP3    H245602   0.988   2.411   3.158
15221TIP3   OH245603   1.030  -0.025   6.378
15221TIP3    H145604   1.089   0.017   6.314
15221TIP3    H245605   1.044   0.025   6.458
15222TIP3   OH245606   4.481   4.563   4.454
15222TIP3    H145607   4.473   4.496   4.522
15222TIP3    H245608   4.487   4.513   4.372
15223TIP3   OH245609   1.799   5.271   0.486
15223TIP3    H145610   1.844   5.187   0.495
15223TIP3    H245611   1.780   5.298   0.576
15224TIP3   OH245612   1.097   4.796   2.976
15224TIP3    H145613   1.191   4.813   2.986
15224TIP3    H245614   1.082   4.716   3.026
15225TIP3   OH245615   1.466   5.604   0.793
15225TIP3    H145616   1.454   5.515   0.760
15225TIP3    H245617   1.392   5.653   0.757
15226TIP3   OH245618   7.719   1.194   0.757
15226TIP3    H145619   7.761   1.220   0.839
15226TIP3    H245620   7.654   1.262   0.741
15227TIP3   OH245621   5.421   4.614   5.265
15227TIP3    H145622   5.381   4.668   5.197
15227TIP3    H245623   5.506   4.590   5.230
15228TIP3   OH245624   1.446   0.556   0.546
15228TIP3    H145625   1.393   0.545   0.467
15228TIP3    H245626   1.383   0.567   0.617
15229TIP3   OH245627   5.378   2.525   3.852
15229TIP3    H145628   5.308   2.481   3.804
15229TIP3    H245629   5.366   2.617   3.832
15230TIP3   OH245630   7.974   2.269   6.210
15230TIP3    H145631   7.945   2.357   6.236
15230TIP3    H245632   7.932   2.255   6.125
15231TIP3   OH245633   2.685   1.188   2.098
15231TIP3    H145634   2.725   1.255   2.042
15231TIP3    H245635   2.646   1.126   2.038
15232TIP3   OH245636   5.282   0.810   4.579
15232TIP3    H145637   5.279   0.725   4.625
15232TIP3    H245638   5.342   0.795   4.506
15233TIP3   OH245639   8.409   2.491   4.400
15233TIP3    H145640   8.330   2.542   4.419
15233TIP3    H245641   8.377   2.411   4.359
15234TIP3   OH245642   1.578   1.973   0.796
15234TIP3    H145643   1.509   1.928   0.845
15234TIP3    H245644   1.659   1.950   0.841
15235TIP3   OH245645   6.563   4.614   5.089
15235TIP3    H145646   6.658   4.616   5.103
15235TIP3    H245647   6.527   4.572   5.167
15236TIP3   OH245648   2.340   4.961   1.741
15236TIP3    H145649   2.337   4.938   1.834
15236TIP3    H245650   2.248   4.967   1.715
15237TIP3   OH245651   3.289   1.750   2.374
15237TIP3    H145652   3.228   1.742   2.301
15237TIP3    H245653   3.234   1.776   2.448
15238TIP3   OH245654   4.301   6.326   5.383
15238TIP3    H145655   4.243   6.265   5.337
15238TIP3    H245656   4.344   6.375   5.313
15239TIP3   OH245657   4.566   0.189   1.674
15239TIP3    H145658   4.592   0.185   1.582
15239TIP3    H245659   4.471   0.203   1.672
15240TIP3   OH245660   0.262   1.810   2.174
15240TIP3    H145661   0.204   1.849   2.109
15240TIP3    H245662   0.213   1.736   2.209
15241TIP3   OH245663   2.774   3.511   0.675
15241TIP3    H145664   2.730   3.427   0.686
15241TIP3    H245665   2.855   3.502   0.726
15242TIP3   OH245666   5.514   1.736   1.799
15242TIP3    H145667   5.508   1.762   1.891
15242TIP3    H245668   5.472   1.650   1.795
15243TIP3   OH245669   5.912   6.119   2.460
15243TIP3    H145670   5.858   6.141   2.536
15243TIP3    H245671   5.969   6.194   2.448
15244TIP3   OH245672   8.035   4.262   6.160
15244TIP3    H145673   8.113   4.233   6.112
15244TIP3    H245674   7.984   4.311   6.095
15245TIP3   OH245675   6.348   7.250   6.036
15245TIP3    H145676   6.427   7.198   6.020
15245TIP3    H245677   6.353   7.272   6.129
15246TIP3   OH245678   0.450   2.438   2.303
15246TIP3    H145679   0.505   2.409   2.231
15246TIP3    H245680   0.377   2.376   2.304
15247TIP3   OH245681   1.907   2.745   4.882
15247TIP3    H145682   1.882   2.678   4.818
15247TIP3    H245683   1.993   2.775   4.853
15248TIP3   OH245684   2.603   0.932   1.619
15248TIP3    H145685   2.651   0.895   1.544
15248TIP3    H245686   2.633   0.881   1.694
15249TIP3   OH245687   1.746   6.539   1.391
15249TIP3    H145688   1.757   6.558   1.484
15249TIP3    H245689   1.700   6.455   1.389
15250TIP3   OH245690   1.173   4.546   1.960
15250TIP3    H145691   1.131   4.468   1.996
15250TIP3    H245692   1.205   4.593   2.037
15251TIP3   OH245693   1.924   5.227   6.457
15251TIP3    H145694   1.886   5.171   6.524
15251TIP3    H245695   1.915   5.316   6.490
15252TIP3   OH245696   6.830   4.315   2.416
15252TIP3    H145697   6.762   4.383   2.420
15252TIP3    H245698   6.911   4.363   2.397
15253TIP3   OH245699   7.163   7.094   4.186
15253TIP3    H145700   7.191   7.035   4.116
15253TIP3    H245701   7.099   7.044   4.235
15254TIP3   OH245702   3.439   6.778   3.918
15254TIP3    H145703   3.498   6.709   3.888
15254TIP3    H245704   3.400   6.743   3.998
15255TIP3   OH245705   6.248   4.092   3.027
15255TIP3    H145706   6.266   4.086   2.933
15255TIP3    H245707   6.156   4.120   3.032
15256TIP3   OH245708   4.065   3.449   5.736
15256TIP3    H145709   4.023   3.392   5.672
15256TIP3    H245710   4.076   3.532   5.691
15257TIP3   OH245711   6.275   0.588   4.904
15257TIP3    H145712   6.183   0.590   4.876
15257TIP3    H245713   6.287   0.502   4.944
15258TIP3   OH245714   3.571   4.165   5.791
15258TIP3    H145715   3.569   4.086   5.845
15258TIP3    H245716   3.592   4.235   5.853
15259TIP3   OH245717   4.910   5.902   3.043
15259TIP3    H145718   4.852   5.966   3.084
15259TIP3    H245719   4.974   5.880   3.111
15260TIP3   OH245720   4.863   3.737   2.487
15260TIP3    H145721   4.828   3.669   2.544
15260TIP3    H245722   4.957   3.737   2.505
15261TIP3   OH245723   3.674   6.244   2.684
15261TIP3    H145724   3.744   6.178   2.685
15261TIP3    H245725   3.720   6.328   2.679
15262TIP3   OH245726   1.807   7.360   2.057
15262TIP3    H145727   1.898   7.358   2.028
15262TIP3    H245728   1.757   7.334   1.979
15263TIP3   OH245729   5.756   5.906   1.090
15263TIP3    H145730   5.687   5.868   1.036
15263TIP3    H245731   5.790   5.979   1.038
15264TIP3   OH245732   1.805   3.196   1.929
15264TIP3    H145733   1.884   3.242   1.901
15264TIP3    H245734   1.732   3.250   1.898
15265TIP3   OH245735   6.647   1.484   4.383
15265TIP3    H145736   6.696   1.402   4.390
15265TIP3    H245737   6.713   1.553   4.393
15266TIP3   OH245738   2.171   1.255   0.849
15266TIP3    H145739   2.264   1.245   0.868
15266TIP3    H245740   2.157   1.350   0.842
15267TIP3   OH245741   2.518   6.100   5.917
15267TIP3    H145742   2.507   6.089   6.012
15267TIP3    H245743   2.493   6.016   5.880
15268TIP3   OH245744   2.621   2.513   0.308
15268TIP3    H145745   2.636   2.426   0.344
15268TIP3    H245746   2.547   2.502   0.247
15269TIP3   OH245747   5.091   0.379   0.121
15269TIP3    H145748   5.154   0.420   0.062
15269TIP3    H245749   5.123   0.290   0.133
15270TIP3   OH245750   7.455   1.158   0.935
15270TIP3    H145751   7.445   1.065   0.917
15270TIP3    H245752   7.365   1.191   0.944
15271TIP3   OH245753   4.933   1.564   4.682
15271TIP3    H145754   4.920   1.574   4.777
15271TIP3    H245755   4.925   1.470   4.666
15272TIP3   OH245756   7.303   6.514   6.460
15272TIP3    H145757   7.346   6.429   6.474
15272TIP3    H245758   7.238   6.520   6.530
15273TIP3   OH245759   6.966   0.041   4.725
15273TIP3    H145760   6.919   0.124   4.734
15273TIP3    H245761   7.019   0.052   4.646
15274TIP3   OH245762   0.260   0.603   2.436
15274TIP3    H145763   0.331   0.553   2.474
15274TIP3    H245764   0.303   0.659   2.371
15275TIP3   OH245765   2.401   3.696   0.903
15275TIP3    H145766   2.404   3.638   0.827
15275TIP3    H245767   2.310   3.695   0.930
15276TIP3   OH245768   4.590   3.298   2.290
15276TIP3    H145769   4.526   3.325   2.225
15276TIP3    H245770   4.628   3.380   2.322
15277TIP3   OH245771   1.102   6.428   5.652
15277TIP3    H145772   1.090   6.523   5.663
15277TIP3    H245773   1.031   6.389   5.703
15278TIP3   OH245774   3.716   2.265   2.684
15278TIP3    H145775   3.766   2.197   2.729
15278TIP3    H245776   3.648   2.218   2.635
15279TIP3   OH245777   2.069   0.637   1.225
15279TIP3    H145778   1.984   0.611   1.190
15279TIP3    H245779   2.053   0.653   1.318
15280TIP3   OH245780   7.807   2.931   0.050
15280TIP3    H145781   7.785   2.848   0.092
15280TIP3    H245782   7.832   2.989   0.122
15281TIP3   OH245783   8.116   0.904   1.494
15281TIP3    H145784   8.131   0.941   1.407
15281TIP3    H245785   8.202   0.911   1.537
15282TIP3   OH245786   5.902   6.584   6.064
15282TIP3    H145787   5.839   6.641   6.020
15282TIP3    H245788   5.956   6.549   5.993
15283TIP3   OH245789   7.438   0.811   2.204
15283TIP3    H145790   7.491   0.891   2.207
15283TIP3    H245791   7.493   0.744   2.243
15284TIP3   OH245792   0.641   0.525   0.306
15284TIP3    H145793   0.572   0.570   0.353
15284TIP3    H245794   0.602   0.441   0.280
15285TIP3   OH245795   3.874   1.177   5.539
15285TIP3    H145796   3.845   1.181   5.448
15285TIP3    H245797   3.812   1.233   5.586
15286TIP3   OH245798   5.398   6.310   6.563
15286TIP3    H145799   5.364   6.226   6.593
15286TIP3    H245800   5.368   6.373   6.629
15287TIP3   OH245801   2.314   5.831   4.304
15287TIP3    H145802   2.275   5.905   4.350
15287TIP3    H245803   2.407   5.853   4.297
15288TIP3   OH245804   7.240   3.874   5.952
15288TIP3    H145805   7.150   3.875   5.984
15288TIP3    H245806   7.249   3.790   5.906
15289TIP3   OH245807   5.172   4.320   3.760
15289TIP3    H145808   5.155   4.343   3.669
15289TIP3    H245809   5.090   4.341   3.806
15290TIP3   OH245810   4.444   5.098   5.623
15290TIP3    H145811   4.401   5.184   5.614
15290TIP3    H245812   4.396   5.055   5.694
15291TIP3   OH245813   1.389   3.264   3.004
15291TIP3    H145814   1.469   3.211   3.004
15291TIP3    H245815   1.357   3.259   2.913
15292TIP3   OH245816   2.144   6.005   1.620
15292TIP3    H145817   2.168   6.067   1.551
15292TIP3    H245818   2.222   5.951   1.631
15293TIP3   OH245819   4.388   4.961   3.159
15293TIP3    H145820   4.354   4.969   3.070
15293TIP3    H245821   4.420   4.871   3.165
15294TIP3   OH245822   3.682   5.586   1.461
15294TIP3    H145823   3.642   5.503   1.433
15294TIP3    H245824   3.750   5.602   1.396
15295TIP3   OH245825   1.887   6.257   4.582
15295TIP3    H145826   1.796   6.245   4.555
15295TIP3    H245827   1.882   6.269   4.677
15296TIP3   OH245828   0.782   7.177   3.656
15296TIP3    H145829   0.870   7.192   3.621
15296TIP3    H245830   0.723   7.200   3.584
15297TIP3   OH245831   3.586   5.002   2.977
15297TIP3    H145832   3.563   4.987   3.069
15297TIP3    H245833   3.570   4.918   2.934
15298TIP3   OH245834   0.279   3.024   2.678
15298TIP3    H145835   0.233   2.942   2.697
15298TIP3    H245836   0.297   3.062   2.764
15299TIP3   OH245837   5.586   4.174   4.186
15299TIP3    H145838   5.677   4.161   4.159
15299TIP3    H245839   5.583   4.265   4.216
15300TIP3   OH245840   2.677   2.224   4.128
15300TIP3    H145841   2.684   2.317   4.104
15300TIP3    H245842   2.586   2.202   4.108
15301TIP3   OH245843   0.960   7.669   5.934
15301TIP3    H145844   1.004   7.646   6.016
15301TIP3    H245845   1.031   7.683   5.871
15302TIP3   OH245846   8.262   2.988   6.132
15302TIP3    H145847   8.255   3.044   6.209
15302TIP3    H245848   8.174   2.955   6.118
15303TIP3   OH245849   6.878   2.343   0.119
15303TIP3    H145850   6.827   2.263   0.107
15303TIP3    H245851   6.843   2.382   0.199
15304TIP3   OH245852   2.172   2.430   4.284
15304TIP3    H145853   2.121   2.427   4.203
15304TIP3    H245854   2.135   2.503   4.333
15305TIP3   OH245855   4.781   0.031   3.001
15305TIP3    H145856   4.817  -0.029   2.935
15305TIP3    H245857   4.712   0.079   2.955
15306TIP3   OH245858   5.123   0.709   5.015
15306TIP3    H145859   5.089   0.702   4.926
15306TIP3    H245860   5.050   0.746   5.065
15307TIP3   OH245861   3.210   6.657   6.773
15307TIP3    H145862   3.298   6.673   6.807
15307TIP3    H245863   3.175   6.589   6.831
15308TIP3   OH245864   4.666   3.218   2.027
15308TIP3    H145865   4.617   3.217   1.944
15308TIP3    H245866   4.696   3.127   2.037
15309TIP3   OH245867   1.002   3.867   4.558
15309TIP3    H145868   1.066   3.925   4.599
15309TIP3    H245869   1.009   3.885   4.464
15310TIP3   OH245870   1.518   1.382   6.259
15310TIP3    H145871   1.605   1.419   6.276
15310TIP3    H245872   1.513   1.307   6.318
15311TIP3   OH245873   1.007   3.120   5.488
15311TIP3    H145874   1.075   3.060   5.520
15311TIP3    H245875   1.033   3.206   5.520
15312TIP3   OH245876   6.332   7.644   3.360
15312TIP3    H145877   6.285   7.633   3.277
15312TIP3    H245878   6.291   7.582   3.420
15313TIP3   OH245879   5.430   5.104   3.345
15313TIP3    H145880   5.418   5.104   3.440
15313TIP3    H245881   5.524   5.095   3.333
15314TIP3   OH245882   3.434   3.740   1.978
15314TIP3    H145883   3.522   3.776   1.971
15314TIP3    H245884   3.378   3.806   1.936
15315TIP3   OH245885   5.584   0.207   0.912
15315TIP3    H145886   5.569   0.273   0.845
15315TIP3    H245887   5.534   0.130   0.882
15316TIP3   OH245888   6.944   5.722   4.042
15316TIP3    H145889   6.915   5.635   4.069
15316TIP3    H245890   6.988   5.758   4.119
15317TIP3   OH245891   0.825   2.032   5.792
15317TIP3    H145892   0.876   2.027   5.872
15317TIP3    H245893   0.735   2.048   5.821
15318TIP3   OH245894   2.788   5.733   0.328
15318TIP3    H145895   2.748   5.661   0.279
15318TIP3    H245896   2.856   5.767   0.270
15319TIP3   OH245897   7.956   1.054   1.658
15319TIP3    H145898   8.016   1.001   1.606
15319TIP3    H245899   7.874   1.004   1.659
15320TIP3   OH245900   5.908   1.115   3.770
15320TIP3    H145901   5.882   1.161   3.690
15320TIP3    H245902   5.847   1.145   3.837
15321TIP3   OH245903   2.784   7.897   5.898
15321TIP3    H145904   2.761   7.807   5.875
15321TIP3    H245905   2.847   7.924   5.831
15322TIP3   OH245906   4.396   7.418   4.052
15322TIP3    H145907   4.330   7.487   4.057
15322TIP3    H245908   4.399   7.383   4.141
15323TIP3   OH245909   7.120   2.072   0.266
15323TIP3    H145910   7.165   2.008   0.211
15323TIP3    H245911   7.172   2.152   0.258
15324TIP3   OH245912   6.245   4.803   3.680
15324TIP3    H145913   6.222   4.777   3.591
15324TIP3    H245914   6.258   4.721   3.727
15325TIP3   OH245915   1.584   3.422   4.239
15325TIP3    H145916   1.649   3.388   4.178
15325TIP3    H245917   1.538   3.490   4.191
15326TIP3   OH245918   2.165   4.022   3.862
15326TIP3    H145919   2.098   3.970   3.906
15326TIP3    H245920   2.206   4.073   3.932
15327TIP3   OH245921   2.801   0.612   6.414
15327TIP3    H145922   2.868   0.679   6.416
15327TIP3    H245923   2.788   0.588   6.506
15328TIP3   OH245924   4.412   2.473   2.925
15328TIP3    H145925   4.422   2.433   2.838
15328TIP3    H245926   4.452   2.560   2.916
15329TIP3   OH245927   3.829   2.680   6.648
15329TIP3    H145928   3.828   2.605   6.708
15329TIP3    H245929   3.920   2.687   6.619
15330TIP3   OH245930   3.063   0.276   6.186
15330TIP3    H145931   3.158   0.279   6.174
15330TIP3    H245932   3.050   0.304   6.277
15331TIP3   OH245933   7.679   6.552   4.154
15331TIP3    H145934   7.704   6.578   4.065
15331TIP3    H245935   7.683   6.634   4.204
15332TIP3   OH245936   2.747   2.595   4.768
15332TIP3    H145937   2.828   2.572   4.815
15332TIP3    H245938   2.719   2.513   4.728
15333TIP3   OH245939   5.553   7.181   4.802
15333TIP3    H145940   5.580   7.104   4.853
15333TIP3    H245941   5.567   7.255   4.861
15334TIP3   OH245942   4.925   3.974   2.091
15334TIP3    H145943   4.890   3.886   2.106
15334TIP3    H245944   4.939   4.008   2.179
15335TIP3   OH245945   5.126   1.013   5.384
15335TIP3    H145946   5.052   0.978   5.434
15335TIP3    H245947   5.086   1.046   5.303
15336TIP3   OH245948   8.087   7.525   2.080
15336TIP3    H145949   8.015   7.484   2.128
15336TIP3    H245950   8.052   7.538   1.992
15337TIP3   OH245951   0.914   0.905   2.975
15337TIP3    H145952   1.001   0.866   2.983
15337TIP3    H245953   0.925   0.994   3.008
15338TIP3   OH245954   2.955   3.024   4.180
15338TIP3    H145955   2.970   3.026   4.274
15338TIP3    H245956   3.042   3.022   4.141
15339TIP3   OH245957   0.244   1.458   1.157
15339TIP3    H145958   0.333   1.477   1.187
15339TIP3    H245959   0.214   1.387   1.214
15340TIP3   OH245960   1.260   3.161   5.302
15340TIP3    H145961   1.326   3.134   5.366
15340TIP3    H245962   1.237   3.080   5.257
15341TIP3   OH245963   4.811   2.059   4.312
15341TIP3    H145964   4.835   2.001   4.385
15341TIP3    H245965   4.721   2.036   4.293
15342TIP3   OH245966   2.076   2.121   5.092
15342TIP3    H145967   2.137   2.087   5.158
15342TIP3    H245968   2.132   2.167   5.029
15343TIP3   OH245969   6.820   5.580   4.306
15343TIP3    H145970   6.866   5.533   4.376
15343TIP3    H245971   6.820   5.518   4.233
15344TIP3   OH245972   8.334   4.990   3.247
15344TIP3    H145973   8.274   5.054   3.209
15344TIP3    H245974   8.294   4.965   3.330
15345TIP3   OH245975   2.401   1.468   5.203
15345TIP3    H145976   2.440   1.389   5.164
15345TIP3    H245977   2.476   1.526   5.218
15346TIP3   OH245978   3.772   2.562   0.799
15346TIP3    H145979   3.771   2.649   0.840
15346TIP3    H245980   3.861   2.529   0.816
15347TIP3   OH245981   3.669   2.756   1.088
15347TIP3    H145982   3.721   2.676   1.094
15347TIP3    H245983   3.732   2.827   1.099
15348TIP3   OH245984   8.067   4.231   0.298
15348TIP3    H145985   8.008   4.218   0.373
15348TIP3    H245986   8.014   4.279   0.235
15349TIP3   OH245987   1.288   7.736   1.915
15349TIP3    H145988   1.362   7.773   1.867
15349TIP3    H245989   1.212   7.786   1.885
15350TIP3   OH245990   4.606   6.302   0.090
15350TIP3    H145991   4.599   6.375   0.152
15350TIP3    H245992   4.517   6.267   0.086
15351TIP3   OH245993   4.989   4.382   1.135
15351TIP3    H145994   5.077   4.421   1.136
15351TIP3    H245995   4.974   4.358   1.044
15352TIP3   OH245996   0.483   3.159   0.993
15352TIP3    H145997   0.416   3.195   0.934
15352TIP3    H245998   0.535   3.102   0.937
15353TIP3   OH245999   2.935   5.373   0.528
15353TIP3    H146000   2.996   5.299   0.538
15353TIP3    H246001   2.924   5.380   0.433
15354TIP3   OH246002   2.566   7.871   1.878
15354TIP3    H146003   2.551   7.931   1.805
15354TIP3    H246004   2.655   7.839   1.866
15355TIP3   OH246005   3.866   7.202   3.785
15355TIP3    H146006   3.808   7.230   3.715
15355TIP3    H246007   3.840   7.112   3.804
15356TIP3   OH246008   7.276   1.157   6.051
15356TIP3    H146009   7.277   1.085   6.115
15356TIP3    H246010   7.193   1.146   6.005
15357TIP3   OH246011   5.720   4.369   3.191
15357TIP3    H146012   5.674   4.314   3.129
15357TIP3    H246013   5.772   4.308   3.244
15358TIP3   OH246014   4.189   3.113   1.521
15358TIP3    H146015   4.133   3.060   1.465
15358TIP3    H246016   4.275   3.109   1.481
15359TIP3   OH246017   0.009   5.216   3.660
15359TIP3    H146018  -0.059   5.283   3.666
15359TIP3    H246019   0.059   5.225   3.741
15360TIP3   OH246020   4.033   2.414   4.212
15360TIP3    H146021   3.978   2.435   4.137
15360TIP3    H246022   3.971   2.382   4.278
15361TIP3   OH246023   6.636   3.359   4.710
15361TIP3    H146024   6.631   3.310   4.792
15361TIP3    H246025   6.604   3.297   4.644
15362TIP3   OH246026   6.720   5.964   2.818
15362TIP3    H146027   6.728   5.987   2.725
15362TIP3    H246028   6.810   5.963   2.849
15363TIP3   OH246029   2.973   4.694   0.900
15363TIP3    H146030   2.976   4.615   0.846
15363TIP3    H246031   2.957   4.765   0.839
15364TIP3   OH246032   3.038   1.801   1.250
15364TIP3    H146033   3.025   1.710   1.277
15364TIP3    H246034   3.028   1.852   1.330
15365TIP3   OH246035   0.765   3.539   2.913
15365TIP3    H146036   0.702   3.581   2.971
15365TIP3    H246037   0.715   3.521   2.833
15366TIP3   OH246038   7.187   6.525   5.397
15366TIP3    H146039   7.206   6.618   5.385
15366TIP3    H246040   7.139   6.521   5.479
15367TIP3   OH246041   0.040   0.743   6.599
15367TIP3    H146042   0.088   0.806   6.546
15367TIP3    H246043   0.107   0.698   6.651
15368TIP3   OH246044   2.820   1.483   4.152
15368TIP3    H146045   2.883   1.549   4.124
15368TIP3    H246046   2.735   1.524   4.142
15369TIP3   OH246047   2.079   7.827   5.192
15369TIP3    H146048   2.138   7.891   5.151
15369TIP3    H246049   2.013   7.881   5.236
15370TIP3   OH246050   4.296   6.069   4.230
15370TIP3    H146051   4.317   6.160   4.208
15370TIP3    H246052   4.380   6.031   4.255
15371TIP3   OH246053   1.446   5.834   4.686
15371TIP3    H146054   1.390   5.867   4.615
15371TIP3    H246055   1.463   5.743   4.662
   8.40143   7.92094   6.85974   0.00000   0.00000  -2.80048   0.00000  -2.80048  -3.96047
